Title t= 3500.00000 step= 1750000
42785
    1SAPS     N    1   4.732   3.466   6.543
    1SAPS   HN1    2   4.756   3.553   6.492
    1SAPS   HN2    3   4.816   3.413   6.573
    1SAPS   HN3    4   4.674   3.404   6.483
    1SAPS   C12    5   4.650   3.508   6.659
    1SAPS  H12A    6   4.638   3.427   6.728
    1SAPS   C13    7   4.699   3.631   6.733
    1SAPS  O13A    8   4.795   3.694   6.688
    1SAPS  O13B    9   4.616   3.684   6.815
    1SAPS   C11   10   4.502   3.537   6.612
    1SAPS  H11A   11   4.507   3.634   6.558
    1SAPS  H11B   12   4.433   3.535   6.699
    1SAPS     P   13   4.402   3.292   6.584
    1SAPS   O13   14   4.499   3.181   6.585
    1SAPS   O14   15   4.335   3.323   6.716
    1SAPS   O12   16   4.464   3.428   6.527
    1SAPS   O11   17   4.289   3.268   6.487
    1SAPS    C1   18   4.298   3.235   6.346
    1SAPS    HA   19   4.400   3.225   6.304
    1SAPS    HB   20   4.254   3.133   6.346
    1SAPS    C2   21   4.209   3.332   6.262
    1SAPS    HS   22   4.211   3.305   6.154
    1SAPS   O21   23   4.256   3.465   6.287
    1SAPS   C21   24   4.374   3.480   6.227
    1SAPS   O22   25   4.437   3.407   6.156
    1SAPS   C22   26   4.414   3.620   6.253
    1SAPS   H2R   27   4.349   3.698   6.208
    1SAPS   H2S   28   4.429   3.630   6.363
    1SAPS    C3   29   4.056   3.323   6.309
    1SAPS    HX   30   4.033   3.319   6.418
    1SAPS    HY   31   4.037   3.223   6.264
    1SAPS   O31   32   3.967   3.408   6.237
    1SAPS   C31   33   3.948   3.523   6.305
    1SAPS   O32   34   3.972   3.538   6.422
    1SAPS   C32   35   3.879   3.624   6.217
    1SAPS   H2X   36   3.881   3.723   6.266
    1SAPS   H2Y   37   3.771   3.596   6.217
    1SAPS   C23   38   4.549   3.660   6.187
    1SAPS   H3R   39   4.545   3.619   6.084
    1SAPS   H3S   40   4.634   3.614   6.242
    1SAPS   C24   41   4.568   3.808   6.163
    1SAPS   H4R   42   4.550   3.861   6.259
    1SAPS   H4S   43   4.492   3.845   6.090
    1SAPS   C25   44   4.700   3.850   6.110
    1SAPS   H5R   45   4.784   3.843   6.180
    1SAPS   C26   46   4.727   3.895   5.984
    1SAPS   H6R   47   4.832   3.898   5.952
    1SAPS   C27   48   4.634   3.922   5.863
    1SAPS   H7R   49   4.559   3.997   5.896
    1SAPS   H7S   50   4.572   3.831   5.851
    1SAPS   C28   51   4.692   3.986   5.745
    1SAPS   H8R   52   4.749   4.079   5.760
    1SAPS   C29   53   4.693   3.926   5.625
    1SAPS   H9R   54   4.733   3.978   5.536
    1SAPS  C210   55   4.648   3.780   5.581
    1SAPS  H10R   56   4.566   3.783   5.506
    1SAPS  H10S   57   4.603   3.716   5.660
    1SAPS  C211   58   4.779   3.716   5.534
    1SAPS  H11R   59   4.832   3.668   5.617
    1SAPS  C212   60   4.821   3.700   5.406
    1SAPS  H12R   61   4.907   3.639   5.376
    1SAPS  C213   62   4.748   3.766   5.292
    1SAPS  H13R   63   4.701   3.860   5.329
    1SAPS  H13S   64   4.669   3.697   5.255
    1SAPS  C214   65   4.844   3.806   5.182
    1SAPS  H14R   66   4.922   3.730   5.169
    1SAPS  C215   67   4.845   3.915   5.105
    1SAPS  H15R   68   4.933   3.934   5.041
    1SAPS  C216   69   4.734   4.025   5.097
    1SAPS  H16R   70   4.776   4.128   5.097
    1SAPS  H16S   71   4.658   4.015   5.177
    1SAPS  C217   72   4.642   4.024   4.971
    1SAPS  H17R   73   4.555   4.089   4.995
    1SAPS  H17S   74   4.613   3.918   4.958
    1SAPS  C218   75   4.714   4.074   4.852
    1SAPS  H18R   76   4.790   3.995   4.834
    1SAPS  H18S   77   4.766   4.172   4.859
    1SAPS  C219   78   4.628   4.084   4.729
    1SAPS  H19R   79   4.558   4.168   4.750
    1SAPS  H19S   80   4.562   3.994   4.733
    1SAPS  C220   81   4.697   4.103   4.594
    1SAPS  H20R   82   4.766   4.022   4.562
    1SAPS  H20S   83   4.757   4.195   4.608
    1SAPS  H20T   84   4.624   4.127   4.513
    1SAPS   C33   85   3.933   3.617   6.072
    1SAPS   H3X   86   3.859   3.670   6.008
    1SAPS   H3Y   87   3.935   3.514   6.031
    1SAPS   C34   88   4.064   3.693   6.042
    1SAPS   H4X   89   4.113   3.721   6.138
    1SAPS   H4Y   90   4.033   3.787   5.992
    1SAPS   C35   91   4.151   3.603   5.954
    1SAPS   H5X   92   4.088   3.573   5.867
    1SAPS   H5Y   93   4.186   3.512   6.007
    1SAPS   C36   94   4.270   3.679   5.897
    1SAPS   H6X   95   4.325   3.717   5.986
    1SAPS   H6Y   96   4.239   3.766   5.835
    1SAPS   C37   97   4.365   3.590   5.818
    1SAPS   H7X   98   4.400   3.504   5.879
    1SAPS   H7Y   99   4.444   3.665   5.798
    1SAPS   C38  100   4.326   3.553   5.674
    1SAPS   H8X  101   4.239   3.484   5.678
    1SAPS   H8Y  102   4.406   3.489   5.633
    1SAPS   C39  103   4.298   3.679   5.586
    1SAPS   H9X  104   4.374   3.760   5.598
    1SAPS   H9Y  105   4.200   3.725   5.611
    1SAPS  C310  106   4.283   3.638   5.438
    1SAPS  H10X  107   4.200   3.567   5.415
    1SAPS  H10Y  108   4.376   3.584   5.412
    1SAPS  C311  109   4.272   3.756   5.340
    1SAPS  H11X  110   4.368   3.811   5.352
    1SAPS  H11Y  111   4.191   3.823   5.373
    1SAPS  C312  112   4.252   3.714   5.193
    1SAPS  H12X  113   4.154   3.665   5.174
    1SAPS  H12Y  114   4.335   3.653   5.152
    1SAPS  C313  115   4.252   3.845   5.104
    1SAPS  H13X  116   4.341   3.902   5.137
    1SAPS  H13Y  117   4.166   3.909   5.134
    1SAPS  C314  118   4.268   3.830   4.956
    1SAPS  H14X  119   4.199   3.751   4.920
    1SAPS  H14Y  120   4.367   3.792   4.922
    1SAPS  C315  121   4.228   3.965   4.885
    1SAPS  H15X  122   4.296   4.040   4.932
    1SAPS  H15Y  123   4.135   4.005   4.931
    1SAPS  C316  124   4.230   3.956   4.738
    1SAPS  H16X  125   4.151   3.884   4.706
    1SAPS  H16Y  126   4.325   3.907   4.708
    1SAPS  C317  127   4.225   4.093   4.660
    1SAPS  H17X  128   4.309   4.155   4.697
    1SAPS  H17Y  129   4.126   4.141   4.675
    1SAPS  C318  130   4.238   4.068   4.501
    1SAPS  H18X  131   4.320   3.995   4.487
    1SAPS  H18Y  132   4.245   4.167   4.450
    1SAPS  H18Z  133   4.150   4.013   4.461
    2SAPS     N  134   4.453   0.017   6.762
    2SAPS   HN1  135   4.418   0.106   6.802
    2SAPS   HN2  136   4.505   6.855   6.839
    2SAPS   HN3  137   4.528   0.052   6.699
    2SAPS   C12  138   4.340   6.831   6.690
    2SAPS  H12A  139   4.274   6.795   6.768
    2SAPS   C13  140   4.251   0.024   6.588
    2SAPS  O13A  141   4.273   0.146   6.558
    2SAPS  O13B  142   4.168   6.842   6.505
    2SAPS   C11  143   4.404   6.704   6.620
    2SAPS  H11A  144   4.459   6.738   6.529
    2SAPS  H11B  145   4.327   6.631   6.587
    2SAPS     P  146   4.604   6.526   6.668
    2SAPS   O13  147   4.716   6.605   6.611
    2SAPS   O14  148   4.631   6.440   6.778
    2SAPS   O12  149   4.485   6.632   6.710
    2SAPS   O11  150   4.533   6.442   6.554
    2SAPS    C1  151   4.425   6.360   6.584
    2SAPS    HA  152   4.374   6.378   6.681
    2SAPS    HB  153   4.337   6.381   6.521
    2SAPS    C2  154   4.469   6.210   6.585
    2SAPS    HS  155   4.551   6.203   6.658
    2SAPS   O21  156   4.504   6.159   6.455
    2SAPS   C21  157   4.558   6.040   6.461
    2SAPS   O22  158   4.588   5.978   6.563
    2SAPS   C22  159   4.587   5.984   6.318
    2SAPS   H2R  160   4.490   5.977   6.265
    2SAPS   H2S  161   4.647   6.059   6.263
    2SAPS    C3  162   4.338   6.128   6.635
    2SAPS    HX  163   4.313   6.170   6.735
    2SAPS    HY  164   4.367   6.028   6.673
    2SAPS   O31  165   4.217   6.134   6.549
    2SAPS   C31  166   4.196   6.014   6.483
    2SAPS   O32  167   4.268   5.918   6.502
    2SAPS   C32  168   4.077   6.017   6.390
    2SAPS   H2X  169   4.005   6.095   6.421
    2SAPS   H2Y  170   4.025   5.920   6.400
    2SAPS   C23  171   4.656   5.845   6.302
    2SAPS   H3R  172   4.600   5.768   6.359
    2SAPS   H3S  173   4.753   5.854   6.355
    2SAPS   C24  174   4.680   5.791   6.166
    2SAPS   H4R  175   4.754   5.708   6.156
    2SAPS   H4S  176   4.730   5.875   6.113
    2SAPS   C25  177   4.556   5.753   6.097
    2SAPS   H5R  178   4.503   5.672   6.147
    2SAPS   C26  179   4.497   5.808   5.984
    2SAPS   H6R  180   4.410   5.747   5.954
    2SAPS   C27  181   4.549   5.924   5.901
    2SAPS   H7R  182   4.583   5.888   5.802
    2SAPS   H7S  183   4.638   5.967   5.951
    2SAPS   C28  184   4.456   6.036   5.895
    2SAPS   H8R  185   4.386   6.038   5.980
    2SAPS   C29  186   4.433   6.121   5.793
    2SAPS   H9R  187   4.351   6.191   5.811
    2SAPS  C210  188   4.502   6.122   5.666
    2SAPS  H10R  189   4.608   6.093   5.682
    2SAPS  H10S  190   4.498   6.231   5.641
    2SAPS  C211  191   4.446   6.035   5.557
    2SAPS  H11R  192   4.383   5.949   5.585
    2SAPS  C212  193   4.439   6.077   5.427
    2SAPS  H12R  194   4.393   6.001   5.362
    2SAPS  C213  195   4.503   6.200   5.374
    2SAPS  H13R  196   4.568   6.260   5.441
    2SAPS  H13S  197   4.423   6.268   5.338
    2SAPS  C214  198   4.593   6.157   5.254
    2SAPS  H14R  199   4.668   6.080   5.278
    2SAPS  C215  200   4.581   6.192   5.121
    2SAPS  H15R  201   4.651   6.139   5.056
    2SAPS  C216  202   4.488   6.300   5.072
    2SAPS  H16R  203   4.481   6.380   5.149
    2SAPS  H16S  204   4.385   6.260   5.075
    2SAPS  C217  205   4.532   6.357   4.936
    2SAPS  H17R  206   4.643   6.355   4.946
    2SAPS  H17S  207   4.486   6.454   4.908
    2SAPS  C218  208   4.512   6.261   4.823
    2SAPS  H18R  209   4.549   6.157   4.835
    2SAPS  H18S  210   4.574   6.307   4.743
    2SAPS  C219  211   4.376   6.274   4.750
    2SAPS  H19R  212   4.354   6.382   4.736
    2SAPS  H19S  213   4.298   6.239   4.821
    2SAPS  C220  214   4.360   6.215   4.610
    2SAPS  H20R  215   4.437   6.263   4.546
    2SAPS  H20S  216   4.256   6.237   4.579
    2SAPS  H20T  217   4.366   6.104   4.611
    2SAPS   C33  218   4.104   6.036   6.242
    2SAPS   H3X  219   4.001   6.021   6.202
    2SAPS   H3Y  220   4.163   5.952   6.199
    2SAPS   C34  221   4.146   6.173   6.207
    2SAPS   H4X  222   4.243   6.205   6.252
    2SAPS   H4Y  223   4.082   6.250   6.253
    2SAPS   C35  224   4.130   6.204   6.060
    2SAPS   H5X  225   4.199   6.151   5.990
    2SAPS   H5Y  226   4.159   6.310   6.044
    2SAPS   C36  227   3.979   6.207   6.009
    2SAPS   H6X  228   3.917   6.240   6.095
    2SAPS   H6Y  229   3.948   6.104   5.982
    2SAPS   C37  230   3.965   6.293   5.881
    2SAPS   H7X  231   4.015   6.386   5.915
    2SAPS   H7Y  232   3.858   6.306   5.854
    2SAPS   C38  233   4.052   6.248   5.762
    2SAPS   H8X  234   4.035   6.144   5.728
    2SAPS   H8Y  235   4.161   6.241   5.784
    2SAPS   C39  236   4.046   6.340   5.639
    2SAPS   H9X  237   4.099   6.433   5.669
    2SAPS   H9Y  238   3.942   6.377   5.623
    2SAPS  C310  239   4.120   6.296   5.507
    2SAPS  H10X  240   4.048   6.234   5.450
    2SAPS  H10Y  241   4.209   6.234   5.534
    2SAPS  C311  242   4.167   6.405   5.411
    2SAPS  H11X  243   4.231   6.358   5.334
    2SAPS  H11Y  244   4.229   6.478   5.468
    2SAPS  C312  245   4.053   6.474   5.332
    2SAPS  H12X  246   3.976   6.525   5.394
    2SAPS  H12Y  247   3.999   6.397   5.273
    2SAPS  C313  248   4.099   6.591   5.240
    2SAPS  H13X  249   4.144   6.666   5.308
    2SAPS  H13Y  250   4.007   6.635   5.195
    2SAPS  C314  251   4.191   6.552   5.132
    2SAPS  H14X  252   4.143   6.471   5.072
    2SAPS  H14Y  253   4.282   6.508   5.176
    2SAPS  C315  254   4.230   6.670   5.047
    2SAPS  H15X  255   4.260   6.750   5.119
    2SAPS  H15Y  256   4.130   6.702   5.012
    2SAPS  C316  257   4.317   6.641   4.930
    2SAPS  H16X  258   4.281   6.552   4.875
    2SAPS  H16Y  259   4.424   6.622   4.949
    2SAPS  C317  260   4.321   6.757   4.829
    2SAPS  H17X  261   4.395   6.837   4.853
    2SAPS  H17Y  262   4.219   6.797   4.808
    2SAPS  C318  263   4.357   6.698   4.688
    2SAPS  H18X  264   4.353   6.774   4.606
    2SAPS  H18Y  265   4.275   6.632   4.653
    2SAPS  H18Z  266   4.456   6.650   4.677
    3SAPS     N  267   4.754   3.961   6.809
    3SAPS   HN1  268   4.659   3.999   6.790
    3SAPS   HN2  269   4.771   3.888   6.737
    3SAPS   HN3  270   4.769   3.920   6.904
    3SAPS   C12  271   4.851   4.073   6.797
    3SAPS  H12A  272   4.805   4.120   6.712
    3SAPS   C13  273   4.859   4.160   6.920
    3SAPS  O13A  274   4.795   4.137   7.024
    3SAPS  O13B  275   4.934   4.262   6.915
    3SAPS   C11  276   5.002   4.018   6.762
    3SAPS  H11A  277   5.028   3.961   6.854
    3SAPS  H11B  278   5.077   4.098   6.745
    3SAPS     P  279   5.057   3.960   6.514
    3SAPS   O13  280   5.198   3.926   6.517
    3SAPS   O14  281   4.969   3.894   6.414
    3SAPS   O12  282   4.989   3.931   6.652
    3SAPS   O11  283   5.050   4.119   6.503
    3SAPS    C1  284   4.930   4.198   6.486
    3SAPS    HA  285   4.839   4.139   6.460
    3SAPS    HB  286   4.916   4.244   6.586
    3SAPS    C2  287   4.959   4.313   6.392
    3SAPS    HS  288   4.871   4.378   6.372
    3SAPS   O21  289   5.010   4.270   6.262
    3SAPS   C21  290   4.935   4.186   6.192
    3SAPS   O22  291   4.824   4.148   6.224
    3SAPS   C22  292   5.017   4.143   6.069
    3SAPS   H2R  293   5.121   4.183   6.072
    3SAPS   H2S  294   5.007   4.033   6.064
    3SAPS    C3  295   5.075   4.402   6.451
    3SAPS    HX  296   5.162   4.335   6.469
    3SAPS    HY  297   5.045   4.425   6.555
    3SAPS   O31  298   5.101   4.512   6.371
    3SAPS   C31  299   5.022   4.615   6.369
    3SAPS   O32  300   4.909   4.621   6.417
    3SAPS   C32  301   5.096   4.733   6.309
    3SAPS   H2X  302   5.206   4.713   6.315
    3SAPS   H2Y  303   5.073   4.825   6.366
    3SAPS   C23  304   4.960   4.191   5.933
    3SAPS   H3R  305   4.851   4.170   5.925
    3SAPS   H3S  306   5.005   4.139   5.846
    3SAPS   C24  307   4.980   4.343   5.902
    3SAPS   H4R  308   4.896   4.395   5.953
    3SAPS   H4S  309   4.970   4.367   5.794
    3SAPS   C25  310   5.116   4.393   5.945
    3SAPS   H5R  311   5.132   4.377   6.053
    3SAPS   C26  312   5.216   4.457   5.878
    3SAPS   H6R  313   5.310   4.481   5.931
    3SAPS   C27  314   5.206   4.474   5.731
    3SAPS   H7R  315   5.160   4.381   5.690
    3SAPS   H7S  316   5.303   4.479   5.677
    3SAPS   C28  317   5.120   4.595   5.691
    3SAPS   H8R  318   5.055   4.635   5.770
    3SAPS   C29  319   5.128   4.666   5.573
    3SAPS   H9R  320   5.040   4.728   5.550
    3SAPS  C210  321   5.209   4.631   5.447
    3SAPS  H10R  322   5.266   4.537   5.462
    3SAPS  H10S  323   5.285   4.712   5.444
    3SAPS  C211  324   5.127   4.621   5.320
    3SAPS  H11R  325   5.133   4.697   5.241
    3SAPS  C212  326   5.050   4.514   5.290
    3SAPS  H12R  327   4.986   4.515   5.201
    3SAPS  C213  328   5.048   4.394   5.374
    3SAPS  H13R  329   5.047   4.415   5.483
    3SAPS  H13S  330   5.145   4.343   5.357
    3SAPS  C214  331   4.945   4.290   5.343
    3SAPS  H14R  332   4.867   4.320   5.272
    3SAPS  C215  333   4.932   4.167   5.400
    3SAPS  H15R  334   4.851   4.104   5.359
    3SAPS  C216  335   5.020   4.105   5.502
    3SAPS  H16R  336   4.964   4.087   5.596
    3SAPS  H16S  337   5.110   4.167   5.524
    3SAPS  C217  338   5.076   3.965   5.460
    3SAPS  H17R  339   5.121   3.963   5.358
    3SAPS  H17S  340   4.986   3.903   5.442
    3SAPS  C218  341   5.182   3.914   5.560
    3SAPS  H18R  342   5.238   4.001   5.599
    3SAPS  H18S  343   5.256   3.858   5.499
    3SAPS  C219  344   5.114   3.833   5.676
    3SAPS  H19R  345   5.053   3.896   5.743
    3SAPS  H19S  346   5.048   3.756   5.632
    3SAPS  C220  347   5.210   3.766   5.771
    3SAPS  H20R  348   5.151   3.744   5.863
    3SAPS  H20S  349   5.291   3.835   5.801
    3SAPS  H20T  350   5.274   3.689   5.724
    3SAPS   C33  351   5.052   4.750   6.161
    3SAPS   H3X  352   5.083   4.662   6.101
    3SAPS   H3Y  353   5.115   4.829   6.115
    3SAPS   C34  354   4.908   4.787   6.137
    3SAPS   H4X  355   4.870   4.873   6.198
    3SAPS   H4Y  356   4.850   4.704   6.182
    3SAPS   C35  357   4.879   4.808   5.989
    3SAPS   H5X  358   4.933   4.730   5.931
    3SAPS   H5Y  359   4.773   4.790   5.960
    3SAPS   C36  360   4.910   4.947   5.937
    3SAPS   H6X  361   5.019   4.965   5.947
    3SAPS   H6Y  362   4.861   5.032   5.989
    3SAPS   C37  363   4.869   4.973   5.792
    3SAPS   H7X  364   4.916   4.905   5.718
    3SAPS   H7Y  365   4.920   5.070   5.773
    3SAPS   C38  366   4.718   4.984   5.760
    3SAPS   H8X  367   4.682   5.087   5.784
    3SAPS   H8Y  368   4.671   4.913   5.831
    3SAPS   C39  369   4.675   4.973   5.612
    3SAPS   H9X  370   4.567   4.995   5.598
    3SAPS   H9Y  371   4.700   4.871   5.576
    3SAPS  C310  372   4.751   5.076   5.525
    3SAPS  H10X  373   4.862   5.075   5.529
    3SAPS  H10Y  374   4.710   5.177   5.544
    3SAPS  C311  375   4.714   5.034   5.383
    3SAPS  H11X  376   4.615   4.985   5.381
    3SAPS  H11Y  377   4.786   4.953   5.359
    3SAPS  C312  378   4.723   5.147   5.279
    3SAPS  H12X  379   4.797   5.226   5.304
    3SAPS  H12Y  380   4.622   5.192   5.266
    3SAPS  C313  381   4.773   5.087   5.143
    3SAPS  H13X  382   4.688   5.018   5.123
    3SAPS  H13Y  383   4.865   5.024   5.155
    3SAPS  C314  384   4.784   5.190   5.030
    3SAPS  H14X  385   4.833   5.130   4.950
    3SAPS  H14Y  386   4.854   5.272   5.057
    3SAPS  C315  387   4.650   5.237   4.975
    3SAPS  H15X  388   4.618   5.321   5.041
    3SAPS  H15Y  389   4.580   5.151   4.984
    3SAPS  C316  390   4.666   5.286   4.831
    3SAPS  H16X  391   4.718   5.208   4.771
    3SAPS  H16Y  392   4.741   5.369   4.832
    3SAPS  C317  393   4.535   5.334   4.772
    3SAPS  H17X  394   4.562   5.389   4.679
    3SAPS  H17Y  395   4.501   5.415   4.839
    3SAPS  C318  396   4.426   5.231   4.762
    3SAPS  H18X  397   4.328   5.272   4.729
    3SAPS  H18Y  398   4.414   5.178   4.859
    3SAPS  H18Z  399   4.446   5.147   4.692
    4SAPS     N  400   2.037   2.538   6.759
    4SAPS   HN1  401   2.056   2.485   6.671
    4SAPS   HN2  402   2.036   2.639   6.732
    4SAPS   HN3  403   2.123   2.524   6.816
    4SAPS   C12  404   1.924   2.468   6.830
    4SAPS  H12A  405   1.938   2.367   6.797
    4SAPS   C13  406   1.936   2.473   6.987
    4SAPS  O13A  407   2.031   2.536   7.041
    4SAPS  O13B  408   1.873   2.383   7.051
    4SAPS   C11  409   1.789   2.530   6.783
    4SAPS  H11A  410   1.787   2.640   6.804
    4SAPS  H11B  411   1.705   2.479   6.835
    4SAPS     P  412   1.635   2.522   6.575
    4SAPS   O13  413   1.533   2.540   6.683
    4SAPS   O14  414   1.643   2.637   6.474
    4SAPS   O12  415   1.775   2.518   6.641
    4SAPS   O11  416   1.606   2.389   6.506
    4SAPS    C1  417   1.707   2.339   6.422
    4SAPS    HA  418   1.808   2.377   6.447
    4SAPS    HB  419   1.701   2.228   6.431
    4SAPS    C2  420   1.661   2.365   6.270
    4SAPS    HS  421   1.708   2.283   6.211
    4SAPS   O21  422   1.698   2.499   6.225
    4SAPS   C21  423   1.823   2.508   6.169
    4SAPS   O22  424   1.911   2.426   6.161
    4SAPS   C22  425   1.827   2.646   6.104
    4SAPS   H2R  426   1.740   2.658   6.036
    4SAPS   H2S  427   1.805   2.718   6.185
    4SAPS    C3  428   1.509   2.350   6.243
    4SAPS    HX  429   1.472   2.433   6.307
    4SAPS    HY  430   1.482   2.257   6.297
    4SAPS   O31  431   1.467   2.349   6.108
    4SAPS   C31  432   1.459   2.469   6.055
    4SAPS   O32  433   1.462   2.577   6.110
    4SAPS   C32  434   1.448   2.450   5.905
    4SAPS   H2X  435   1.345   2.415   5.880
    4SAPS   H2Y  436   1.521   2.380   5.859
    4SAPS   C23  437   1.947   2.680   6.016
    4SAPS   H3R  438   2.025   2.601   6.010
    4SAPS   H3S  439   2.005   2.761   6.067
    4SAPS   C24  440   1.907   2.730   5.872
    4SAPS   H4R  441   1.989   2.788   5.824
    4SAPS   H4S  442   1.833   2.810   5.892
    4SAPS   C25  443   1.855   2.635   5.774
    4SAPS   H5R  444   1.826   2.535   5.810
    4SAPS   C26  445   1.866   2.667   5.638
    4SAPS   H6R  446   1.818   2.601   5.564
    4SAPS   C27  447   1.914   2.790   5.565
    4SAPS   H7R  448   2.013   2.772   5.518
    4SAPS   H7S  449   1.930   2.868   5.643
    4SAPS   C28  450   1.829   2.858   5.459
    4SAPS   H8R  451   1.769   2.944   5.494
    4SAPS   C29  452   1.832   2.827   5.328
    4SAPS   H9R  453   1.778   2.891   5.257
    4SAPS  C210  454   1.920   2.724   5.272
    4SAPS  H10R  455   1.859   2.644   5.226
    4SAPS  H10S  456   1.989   2.669   5.339
    4SAPS  C211  457   2.008   2.785   5.167
    4SAPS  H11R  458   2.108   2.816   5.202
    4SAPS  C212  459   1.989   2.777   5.035
    4SAPS  H12R  460   2.070   2.801   4.965
    4SAPS  C213  461   1.871   2.728   4.961
    4SAPS  H13R  462   1.782   2.753   5.024
    4SAPS  H13S  463   1.881   2.617   4.957
    4SAPS  C214  464   1.859   2.794   4.821
    4SAPS  H14R  465   1.810   2.892   4.835
    4SAPS  C215  466   1.901   2.745   4.703
    4SAPS  H15R  467   1.890   2.809   4.614
    4SAPS  C216  468   1.973   2.610   4.667
    4SAPS  H16R  469   1.912   2.549   4.598
    4SAPS  H16S  470   1.995   2.554   4.761
    4SAPS  C217  471   2.108   2.619   4.597
    4SAPS  H17R  472   2.170   2.527   4.589
    4SAPS  H17S  473   2.176   2.688   4.650
    4SAPS  C218  474   2.093   2.688   4.455
    4SAPS  H18R  475   2.047   2.787   4.472
    4SAPS  H18S  476   2.039   2.615   4.390
    4SAPS  C219  477   2.229   2.716   4.393
    4SAPS  H19R  478   2.282   2.618   4.401
    4SAPS  H19S  479   2.277   2.790   4.460
    4SAPS  C220  480   2.234   2.772   4.255
    4SAPS  H20R  481   2.333   2.799   4.212
    4SAPS  H20S  482   2.181   2.869   4.244
    4SAPS  H20T  483   2.189   2.700   4.184
    4SAPS   C33  484   1.468   2.585   5.829
    4SAPS   H3X  485   1.574   2.617   5.837
    4SAPS   H3Y  486   1.409   2.669   5.871
    4SAPS   C34  487   1.453   2.578   5.676
    4SAPS   H4X  488   1.351   2.557   5.639
    4SAPS   H4Y  489   1.522   2.501   5.635
    4SAPS   C35  490   1.493   2.714   5.621
    4SAPS   H5X  491   1.601   2.736   5.634
    4SAPS   H5Y  492   1.438   2.792   5.680
    4SAPS   C36  493   1.449   2.752   5.481
    4SAPS   H6X  494   1.509   2.844   5.463
    4SAPS   H6Y  495   1.344   2.788   5.477
    4SAPS   C37  496   1.502   2.659   5.366
    4SAPS   H7X  497   1.452   2.561   5.380
    4SAPS   H7Y  498   1.612   2.645   5.375
    4SAPS   C38  499   1.467   2.708   5.224
    4SAPS   H8X  500   1.531   2.797   5.208
    4SAPS   H8Y  501   1.365   2.751   5.215
    4SAPS   C39  502   1.500   2.609   5.114
    4SAPS   H9X  503   1.451   2.511   5.132
    4SAPS   H9Y  504   1.610   2.598   5.127
    4SAPS  C310  505   1.459   2.659   4.978
    4SAPS  H10X  506   1.488   2.765   4.966
    4SAPS  H10Y  507   1.348   2.664   4.976
    4SAPS  C311  508   1.526   2.578   4.864
    4SAPS  H11X  509   1.503   2.470   4.879
    4SAPS  H11Y  510   1.635   2.593   4.876
    4SAPS  C312  511   1.484   2.617   4.716
    4SAPS  H12X  512   1.492   2.725   4.693
    4SAPS  H12Y  513   1.382   2.579   4.692
    4SAPS  C313  514   1.584   2.554   4.615
    4SAPS  H13X  515   1.595   2.445   4.636
    4SAPS  H13Y  516   1.689   2.587   4.634
    4SAPS  C314  517   1.542   2.574   4.465
    4SAPS  H14X  518   1.531   2.683   4.448
    4SAPS  H14Y  519   1.439   2.533   4.454
    4SAPS  C315  520   1.632   2.513   4.361
    4SAPS  H15X  521   1.650   2.404   4.375
    4SAPS  H15Y  522   1.725   2.570   4.379
    4SAPS  C316  523   1.587   2.524   4.212
    4SAPS  H16X  524   1.544   2.626   4.198
    4SAPS  H16Y  525   1.505   2.450   4.199
    4SAPS  C317  526   1.711   2.501   4.119
    4SAPS  H17X  527   1.753   2.399   4.128
    4SAPS  H17Y  528   1.791   2.565   4.164
    4SAPS  C318  529   1.684   2.535   3.971
    4SAPS  H18X  530   1.644   2.639   3.973
    4SAPS  H18Y  531   1.605   2.482   3.913
    4SAPS  H18Z  532   1.778   2.539   3.913
    5SAPS     N  533   5.760   4.732   6.921
    5SAPS   HN1  534   5.785   4.779   6.832
    5SAPS   HN2  535   5.789   4.797   6.997
    5SAPS   HN3  536   5.811   4.642   6.918
    5SAPS   C12  537   5.614   4.700   6.923
    5SAPS  H12A  538   5.587   4.634   7.004
    5SAPS   C13  539   5.512   4.819   6.929
    5SAPS  O13A  540   5.552   4.930   6.973
    5SAPS  O13B  541   5.389   4.786   6.937
    5SAPS   C11  542   5.574   4.605   6.797
    5SAPS  H11A  543   5.586   4.666   6.705
    5SAPS  H11B  544   5.466   4.579   6.805
    5SAPS     P  545   5.595   4.350   6.751
    5SAPS   O13  546   5.692   4.243   6.764
    5SAPS   O14  547   5.465   4.329   6.823
    5SAPS   O12  548   5.656   4.492   6.802
    5SAPS   O11  549   5.563   4.386   6.599
    5SAPS    C1  550   5.483   4.286   6.536
    5SAPS    HA  551   5.527   4.185   6.552
    5SAPS    HB  552   5.377   4.291   6.567
    5SAPS    C2  553   5.482   4.295   6.383
    5SAPS    HS  554   5.589   4.277   6.360
    5SAPS   O21  555   5.446   4.429   6.352
    5SAPS   C21  556   5.499   4.477   6.238
    5SAPS   O22  557   5.595   4.430   6.179
    5SAPS   C22  558   5.442   4.610   6.213
    5SAPS   H2R  559   5.337   4.606   6.177
    5SAPS   H2S  560   5.460   4.686   6.292
    5SAPS    C3  561   5.377   4.192   6.330
    5SAPS    HX  562   5.278   4.221   6.371
    5SAPS    HY  563   5.392   4.093   6.378
    5SAPS   O31  564   5.391   4.189   6.189
    5SAPS   C31  565   5.432   4.069   6.137
    5SAPS   O32  566   5.429   3.962   6.193
    5SAPS   C32  567   5.464   4.073   5.989
    5SAPS   H2X  568   5.434   3.976   5.946
    5SAPS   H2Y  569   5.575   4.083   5.989
    5SAPS   C23  570   5.511   4.661   6.077
    5SAPS   H3R  571   5.511   4.590   5.992
    5SAPS   H3S  572   5.618   4.682   6.100
    5SAPS   C24  573   5.444   4.788   6.026
    5SAPS   H4R  574   5.439   4.851   6.117
    5SAPS   H4S  575   5.342   4.763   5.990
    5SAPS   C25  576   5.526   4.856   5.921
    5SAPS   H5R  577   5.629   4.887   5.942
    5SAPS   C26  578   5.479   4.895   5.801
    5SAPS   H6R  579   5.551   4.928   5.724
    5SAPS   C27  580   5.344   4.862   5.746
    5SAPS   H7R  581   5.300   4.776   5.802
    5SAPS   H7S  582   5.357   4.827   5.642
    5SAPS   C28  583   5.251   4.981   5.739
    5SAPS   H8R  584   5.201   5.002   5.834
    5SAPS   C29  585   5.211   5.050   5.627
    5SAPS   H9R  586   5.146   5.139   5.630
    5SAPS  C210  587   5.261   5.031   5.486
    5SAPS  H10R  588   5.221   4.936   5.444
    5SAPS  H10S  589   5.368   5.003   5.501
    5SAPS  C211  590   5.245   5.142   5.382
    5SAPS  H11R  591   5.247   5.244   5.422
    5SAPS  C212  592   5.243   5.129   5.254
    5SAPS  H12R  593   5.223   5.217   5.191
    5SAPS  C213  594   5.245   5.004   5.173
    5SAPS  H13R  595   5.201   4.924   5.237
    5SAPS  H13S  596   5.346   4.979   5.134
    5SAPS  C214  597   5.153   5.010   5.062
    5SAPS  H14R  598   5.058   5.055   5.093
    5SAPS  C215  599   5.170   4.984   4.934
    5SAPS  H15R  600   5.077   4.995   4.876
    5SAPS  C216  601   5.290   4.920   4.870
    5SAPS  H16R  602   5.384   4.950   4.922
    5SAPS  H16S  603   5.305   4.953   4.765
    5SAPS  C217  604   5.271   4.764   4.864
    5SAPS  H17R  605   5.326   4.740   4.770
    5SAPS  H17S  606   5.167   4.733   4.842
    5SAPS  C218  607   5.316   4.688   4.986
    5SAPS  H18R  608   5.293   4.582   4.962
    5SAPS  H18S  609   5.256   4.719   5.075
    5SAPS  C219  610   5.463   4.705   5.017
    5SAPS  H19R  611   5.494   4.811   5.022
    5SAPS  H19S  612   5.534   4.657   4.947
    5SAPS  C220  613   5.500   4.640   5.152
    5SAPS  H20R  614   5.476   4.532   5.141
    5SAPS  H20S  615   5.462   4.694   5.241
    5SAPS  H20T  616   5.611   4.633   5.161
    5SAPS   C33  617   5.403   4.187   5.904
    5SAPS   H3X  618   5.427   4.284   5.953
    5SAPS   H3Y  619   5.295   4.161   5.899
    5SAPS   C34  620   5.460   4.191   5.764
    5SAPS   H4X  621   5.407   4.271   5.707
    5SAPS   H4Y  622   5.448   4.090   5.719
    5SAPS   C35  623   5.610   4.227   5.754
    5SAPS   H5X  624   5.670   4.142   5.792
    5SAPS   H5Y  625   5.623   4.317   5.817
    5SAPS   C36  626   5.643   4.257   5.609
    5SAPS   H6X  627   5.751   4.249   5.585
    5SAPS   H6Y  628   5.598   4.356   5.588
    5SAPS   C37  629   5.586   4.166   5.502
    5SAPS   H7X  630   5.479   4.191   5.511
    5SAPS   H7Y  631   5.604   4.058   5.523
    5SAPS   C38  632   5.643   4.183   5.361
    5SAPS   H8X  633   5.744   4.137   5.368
    5SAPS   H8Y  634   5.658   4.292   5.342
    5SAPS   C39  635   5.556   4.105   5.254
    5SAPS   H9X  636   5.549   3.998   5.284
    5SAPS   H9Y  637   5.617   4.115   5.162
    5SAPS  C310  638   5.420   4.170   5.229
    5SAPS  H10X  639   5.441   4.278   5.213
    5SAPS  H10Y  640   5.368   4.157   5.326
    5SAPS  C311  641   5.332   4.107   5.124
    5SAPS  H11X  642   5.296   4.004   5.145
    5SAPS  H11Y  643   5.387   4.095   5.028
    5SAPS  C312  644   5.213   4.202   5.098
    5SAPS  H12X  645   5.240   4.306   5.072
    5SAPS  H12Y  646   5.156   4.217   5.192
    5SAPS  C313  647   5.127   4.153   4.981
    5SAPS  H13X  648   5.021   4.180   4.999
    5SAPS  H13Y  649   5.135   4.042   4.979
    5SAPS  C314  650   5.169   4.202   4.842
    5SAPS  H14X  651   5.273   4.165   4.832
    5SAPS  H14Y  652   5.160   4.313   4.838
    5SAPS  C315  653   5.089   4.138   4.723
    5SAPS  H15X  654   4.983   4.168   4.720
    5SAPS  H15Y  655   5.088   4.027   4.737
    5SAPS  C316  656   5.155   4.179   4.591
    5SAPS  H16X  657   5.265   4.178   4.604
    5SAPS  H16Y  658   5.122   4.284   4.574
    5SAPS  C317  659   5.120   4.086   4.478
    5SAPS  H17X  660   5.012   4.094   4.455
    5SAPS  H17Y  661   5.138   3.979   4.503
    5SAPS  C318  662   5.206   4.115   4.356
    5SAPS  H18X  663   5.179   4.212   4.309
    5SAPS  H18Y  664   5.189   4.040   4.276
    5SAPS  H18Z  665   5.313   4.117   4.385
    6SAPS     N  666   3.044   4.052   6.880
    6SAPS   HN1  667   3.086   4.025   6.789
    6SAPS   HN2  668   3.011   4.149   6.866
    6SAPS   HN3  669   3.117   4.049   6.955
    6SAPS   C12  670   2.921   3.967   6.902
    6SAPS  H12A  671   2.952   3.864   6.896
    6SAPS   C13  672   2.837   3.964   7.032
    6SAPS  O13A  673   2.868   4.028   7.134
    6SAPS  O13B  674   2.735   3.891   7.020
    6SAPS   C11  675   2.831   4.004   6.778
    6SAPS  H11A  676   2.796   4.107   6.802
    6SAPS  H11B  677   2.737   3.944   6.775
    6SAPS     P  678   2.823   4.033   6.530
    6SAPS   O13  679   2.769   3.899   6.506
    6SAPS   O14  680   2.737   4.153   6.538
    6SAPS   O12  681   2.902   4.022   6.658
    6SAPS   O11  682   2.928   4.049   6.423
    6SAPS    C1  683   3.028   4.153   6.407
    6SAPS    HA  684   3.029   4.231   6.487
    6SAPS    HB  685   3.129   4.107   6.413
    6SAPS    C2  686   3.016   4.206   6.262
    6SAPS    HS  687   3.111   4.256   6.232
    6SAPS   O21  688   2.902   4.294   6.242
    6SAPS   C21  689   2.893   4.400   6.327
    6SAPS   O22  690   2.984   4.445   6.398
    6SAPS   C22  691   2.759   4.468   6.322
    6SAPS   H2R  692   2.734   4.484   6.215
    6SAPS   H2S  693   2.697   4.388   6.366
    6SAPS    C3  694   3.001   4.087   6.163
    6SAPS    HX  695   2.900   4.047   6.187
    6SAPS    HY  696   3.069   4.001   6.177
    6SAPS   O31  697   2.983   4.119   6.031
    6SAPS   C31  698   3.095   4.127   5.955
    6SAPS   O32  699   3.204   4.099   6.002
    6SAPS   C32  700   3.054   4.151   5.814
    6SAPS   H2X  701   3.005   4.250   5.808
    6SAPS   H2Y  702   2.967   4.085   5.791
    6SAPS   C23  703   2.728   4.592   6.403
    6SAPS   H3R  704   2.769   4.596   6.506
    6SAPS   H3S  705   2.618   4.593   6.417
    6SAPS   C24  706   2.766   4.724   6.333
    6SAPS   H4R  707   2.873   4.715   6.303
    6SAPS   H4S  708   2.755   4.799   6.414
    6SAPS   C25  709   2.681   4.769   6.212
    6SAPS   H5R  710   2.573   4.780   6.230
    6SAPS   C26  711   2.717   4.772   6.084
    6SAPS   H6R  712   2.636   4.798   6.015
    6SAPS   C27  713   2.846   4.747   6.019
    6SAPS   H7R  714   2.835   4.697   5.921
    6SAPS   H7S  715   2.913   4.682   6.080
    6SAPS   C28  716   2.896   4.882   5.990
    6SAPS   H8R  717   2.906   4.951   6.076
    6SAPS   C29  718   2.959   4.919   5.882
    6SAPS   H9R  719   2.989   5.025   5.878
    6SAPS  C210  720   2.998   4.831   5.763
    6SAPS  H10R  721   2.904   4.794   5.717
    6SAPS  H10S  722   3.043   4.739   5.807
    6SAPS  C211  723   3.091   4.898   5.671
    6SAPS  H11R  724   3.195   4.902   5.706
    6SAPS  C212  725   3.051   4.965   5.564
    6SAPS  H12R  726   3.131   5.005   5.500
    6SAPS  C213  727   2.908   4.967   5.506
    6SAPS  H13R  728   2.829   4.978   5.584
    6SAPS  H13S  729   2.884   4.866   5.467
    6SAPS  C214  730   2.870   5.074   5.402
    6SAPS  H14R  731   2.804   5.149   5.447
    6SAPS  C215  732   2.897   5.072   5.269
    6SAPS  H15R  733   2.869   5.157   5.204
    6SAPS  C216  734   2.971   4.968   5.193
    6SAPS  H16R  735   2.968   4.866   5.239
    6SAPS  H16S  736   3.079   4.995   5.200
    6SAPS  C217  737   2.934   4.951   5.049
    6SAPS  H17R  738   2.945   5.042   4.985
    6SAPS  H17S  739   2.830   4.914   5.039
    6SAPS  C218  740   3.018   4.837   4.995
    6SAPS  H18R  741   3.020   4.755   5.070
    6SAPS  H18S  742   3.124   4.864   4.979
    6SAPS  C219  743   2.961   4.785   4.859
    6SAPS  H19R  744   2.945   4.874   4.794
    6SAPS  H19S  745   2.859   4.748   4.883
    6SAPS  C220  746   3.041   4.667   4.815
    6SAPS  H20R  747   3.034   4.580   4.884
    6SAPS  H20S  748   3.150   4.688   4.819
    6SAPS  H20T  749   3.009   4.626   4.717
    6SAPS   C33  750   3.167   4.148   5.704
    6SAPS   H3X  751   3.216   4.049   5.691
    6SAPS   H3Y  752   3.240   4.227   5.730
    6SAPS   C34  753   3.111   4.175   5.561
    6SAPS   H4X  754   3.076   4.280   5.554
    6SAPS   H4Y  755   3.020   4.112   5.563
    6SAPS   C35  756   3.204   4.121   5.450
    6SAPS   H5X  757   3.250   4.023   5.473
    6SAPS   H5Y  758   3.293   4.187   5.452
    6SAPS   C36  759   3.150   4.110   5.310
    6SAPS   H6X  760   3.104   4.211   5.300
    6SAPS   H6Y  761   3.071   4.033   5.307
    6SAPS   C37  762   3.261   4.087   5.203
    6SAPS   H7X  763   3.301   3.984   5.204
    6SAPS   H7Y  764   3.340   4.163   5.221
    6SAPS   C38  765   3.211   4.112   5.063
    6SAPS   H8X  766   3.184   4.218   5.045
    6SAPS   H8Y  767   3.125   4.053   5.026
    6SAPS   C39  768   3.319   4.097   4.961
    6SAPS   H9X  769   3.389   4.013   4.982
    6SAPS   H9Y  770   3.386   4.185   4.959
    6SAPS  C310  771   3.259   4.087   4.821
    6SAPS  H10X  772   3.169   4.151   4.821
    6SAPS  H10Y  773   3.219   3.985   4.805
    6SAPS  C311  774   3.357   4.114   4.705
    6SAPS  H11X  775   3.402   4.215   4.723
    6SAPS  H11Y  776   3.305   4.135   4.609
    6SAPS  C312  777   3.462   4.005   4.689
    6SAPS  H12X  778   3.523   3.985   4.779
    6SAPS  H12Y  779   3.542   4.049   4.624
    6SAPS  C313  780   3.409   3.877   4.628
    6SAPS  H13X  781   3.339   3.820   4.693
    6SAPS  H13Y  782   3.499   3.813   4.621
    6SAPS  C314  783   3.326   3.883   4.489
    6SAPS  H14X  784   3.244   3.956   4.501
    6SAPS  H14Y  785   3.290   3.779   4.474
    6SAPS  C315  786   3.409   3.924   4.370
    6SAPS  H15X  787   3.507   3.874   4.360
    6SAPS  H15Y  788   3.440   4.031   4.372
    6SAPS  C316  789   3.336   3.908   4.240
    6SAPS  H16X  790   3.230   3.940   4.236
    6SAPS  H16Y  791   3.335   3.797   4.237
    6SAPS  C317  792   3.411   3.960   4.115
    6SAPS  H17X  793   3.517   3.939   4.141
    6SAPS  H17Y  794   3.386   4.068   4.110
    6SAPS  C318  795   3.380   3.898   3.978
    6SAPS  H18X  796   3.271   3.881   3.961
    6SAPS  H18Y  797   3.423   3.797   3.963
    6SAPS  H18Z  798   3.409   3.969   3.897
    7SAPS     N  799   2.681   0.918   6.637
    7SAPS   HN1  800   2.631   0.891   6.549
    7SAPS   HN2  801   2.607   0.960   6.697
    7SAPS   HN3  802   2.746   0.996   6.616
    7SAPS   C12  803   2.725   0.803   6.721
    7SAPS  H12A  804   2.804   0.832   6.788
    7SAPS   C13  805   2.611   0.743   6.811
    7SAPS  O13A  806   2.497   0.797   6.816
    7SAPS  O13B  807   2.645   0.651   6.887
    7SAPS   C11  808   2.783   0.694   6.622
    7SAPS  H11A  809   2.693   0.648   6.576
    7SAPS  H11B  810   2.829   0.617   6.687
    7SAPS     P  811   2.979   0.667   6.449
    7SAPS   O13  812   3.117   0.727   6.480
    7SAPS   O14  813   2.952   0.524   6.473
    7SAPS   O12  814   2.866   0.752   6.520
    7SAPS   O11  815   2.941   0.683   6.295
    7SAPS    C1  816   2.829   0.746   6.244
    7SAPS    HA  817   2.793   0.819   6.320
    7SAPS    HB  818   2.853   0.798   6.149
    7SAPS    C2  819   2.711   0.652   6.222
    7SAPS    HS  820   2.693   0.622   6.328
    7SAPS   O21  821   2.749   0.532   6.146
    7SAPS   C21  822   2.651   0.444   6.140
    7SAPS   O22  823   2.547   0.445   6.207
    7SAPS   C22  824   2.677   0.342   6.023
    7SAPS   H2R  825   2.727   0.398   5.941
    7SAPS   H2S  826   2.753   0.267   6.052
    7SAPS    C3  827   2.593   0.735   6.159
    7SAPS    HX  828   2.586   0.827   6.222
    7SAPS    HY  829   2.498   0.679   6.177
    7SAPS   O31  830   2.620   0.780   6.026
    7SAPS   C31  831   2.539   0.723   5.936
    7SAPS   O32  832   2.444   0.653   5.965
    7SAPS   C32  833   2.598   0.749   5.796
    7SAPS   H2X  834   2.707   0.757   5.817
    7SAPS   H2Y  835   2.570   0.854   5.772
    7SAPS   C23  836   2.544   0.292   5.958
    7SAPS   H3R  837   2.474   0.372   5.926
    7SAPS   H3S  838   2.477   0.235   6.026
    7SAPS   C24  839   2.576   0.216   5.828
    7SAPS   H4R  840   2.659   0.256   5.766
    7SAPS   H4S  841   2.487   0.206   5.763
    7SAPS   C25  842   2.613   0.071   5.855
    7SAPS   H5R  843   2.567   0.036   5.949
    7SAPS   C26  844   2.678   6.868   5.777
    7SAPS   H6R  845   2.689   6.764   5.810
    7SAPS   C27  846   2.756   0.013   5.654
    7SAPS   H7R  847   2.690   0.072   5.587
    7SAPS   H7S  848   2.771   6.803   5.593
    7SAPS   C28  849   2.886   0.087   5.672
    7SAPS   H8R  850   2.919   0.107   5.775
    7SAPS   C29  851   2.973   0.111   5.574
    7SAPS   H9R  852   3.069   0.157   5.599
    7SAPS  C210  853   2.950   0.091   5.427
    7SAPS  H10R  854   2.917   0.185   5.378
    7SAPS  H10S  855   2.866   0.021   5.408
    7SAPS  C211  856   3.077   0.032   5.371
    7SAPS  H11R  857   3.104   6.809   5.380
    7SAPS  C212  858   3.177   0.109   5.320
    7SAPS  H12R  859   3.264   0.051   5.284
    7SAPS  C213  860   3.189   0.264   5.324
    7SAPS  H13R  861   3.243   0.308   5.410
    7SAPS  H13S  862   3.090   0.314   5.316
    7SAPS  C214  863   3.263   0.316   5.201
    7SAPS  H14R  864   3.332   0.243   5.155
    7SAPS  C215  865   3.239   0.429   5.140
    7SAPS  H15R  866   3.305   0.447   5.053
    7SAPS  C216  867   3.142   0.541   5.173
    7SAPS  H16R  868   3.180   0.644   5.154
    7SAPS  H16S  869   3.108   0.539   5.278
    7SAPS  C217  870   3.003   0.535   5.094
    7SAPS  H17R  871   2.935   0.609   5.142
    7SAPS  H17S  872   2.959   0.435   5.113
    7SAPS  C218  873   3.012   0.552   4.940
    7SAPS  H18R  874   3.107   0.505   4.907
    7SAPS  H18S  875   3.027   0.659   4.912
    7SAPS  C219  876   2.904   0.484   4.848
    7SAPS  H19R  877   2.800   0.503   4.882
    7SAPS  H19S  878   2.903   0.373   4.847
    7SAPS  C220  879   2.902   0.538   4.700
    7SAPS  H20R  880   3.001   0.532   4.649
    7SAPS  H20S  881   2.876   0.646   4.700
    7SAPS  H20T  882   2.825   0.487   4.638
    7SAPS   C33  883   2.571   0.648   5.687
    7SAPS   H3X  884   2.468   0.608   5.697
    7SAPS   H3Y  885   2.638   0.561   5.707
    7SAPS   C34  886   2.598   0.699   5.538
    7SAPS   H4X  887   2.686   0.765   5.547
    7SAPS   H4Y  888   2.509   0.756   5.503
    7SAPS   C35  889   2.646   0.587   5.445
    7SAPS   H5X  890   2.741   0.544   5.485
    7SAPS   H5Y  891   2.664   0.641   5.350
    7SAPS   C36  892   2.542   0.481   5.421
    7SAPS   H6X  893   2.451   0.526   5.377
    7SAPS   H6Y  894   2.505   0.440   5.517
    7SAPS   C37  895   2.586   0.367   5.340
    7SAPS   H7X  896   2.495   0.309   5.315
    7SAPS   H7Y  897   2.635   0.285   5.398
    7SAPS   C38  898   2.677   0.398   5.216
    7SAPS   H8X  899   2.778   0.435   5.243
    7SAPS   H8Y  900   2.625   0.480   5.161
    7SAPS   C39  901   2.702   0.272   5.130
    7SAPS   H9X  902   2.721   0.187   5.199
    7SAPS   H9Y  903   2.788   0.283   5.060
    7SAPS  C310  904   2.580   0.236   5.047
    7SAPS  H10X  905   2.495   0.215   5.116
    7SAPS  H10Y  906   2.599   0.148   4.982
    7SAPS  C311  907   2.543   0.332   4.943
    7SAPS  H11X  908   2.635   0.350   4.884
    7SAPS  H11Y  909   2.517   0.430   4.990
    7SAPS  C312  910   2.430   0.282   4.851
    7SAPS  H12X  911   2.390   0.371   4.798
    7SAPS  H12Y  912   2.341   0.249   4.908
    7SAPS  C313  913   2.478   0.170   4.753
    7SAPS  H13X  914   2.527   0.094   4.817
    7SAPS  H13Y  915   2.558   0.214   4.688
    7SAPS  C314  916   2.376   0.098   4.666
    7SAPS  H14X  917   2.301   0.172   4.629
    7SAPS  H14Y  918   2.319   0.032   4.734
    7SAPS  C315  919   2.440   0.023   4.546
    7SAPS  H15X  920   2.524   6.840   4.573
    7SAPS  H15Y  921   2.473   0.103   4.476
    7SAPS  C316  922   2.333   6.819   4.485
    7SAPS  H16X  923   2.240   6.876   4.464
    7SAPS  H16Y  924   2.308   6.728   4.544
    7SAPS  C317  925   2.372   6.756   4.344
    7SAPS  H17X  926   2.355   6.834   4.267
    7SAPS  H17Y  927   2.298   6.674   4.328
    7SAPS  C318  928   2.517   6.711   4.329
    7SAPS  H18X  929   2.533   6.630   4.403
    7SAPS  H18Y  930   2.583   6.795   4.360
    7SAPS  H18Z  931   2.549   6.681   4.227
    8SAPS     N  932   1.723   1.660   6.520
    8SAPS   HN1  933   1.717   1.558   6.537
    8SAPS   HN2  934   1.627   1.700   6.514
    8SAPS   HN3  935   1.788   1.684   6.442
    8SAPS   C12  936   1.775   1.714   6.649
    8SAPS  H12A  937   1.798   1.818   6.629
    8SAPS   C13  938   1.666   1.727   6.760
    8SAPS  O13A  939   1.553   1.678   6.741
    8SAPS  O13B  940   1.706   1.754   6.874
    8SAPS   C11  941   1.909   1.646   6.689
    8SAPS  H11A  942   1.901   1.537   6.705
    8SAPS  H11B  943   1.953   1.692   6.780
    8SAPS     P  944   2.151   1.625   6.601
    8SAPS   O13  945   2.211   1.695   6.714
    8SAPS   O14  946   2.167   1.478   6.593
    8SAPS   O12  947   1.996   1.666   6.581
    8SAPS   O11  948   2.217   1.687   6.465
    8SAPS    C1  949   2.345   1.750   6.484
    8SAPS    HA  950   2.338   1.838   6.551
    8SAPS    HB  951   2.418   1.677   6.525
    8SAPS    C2  952   2.400   1.799   6.351
    8SAPS    HS  953   2.326   1.872   6.310
    8SAPS   O21  954   2.406   1.676   6.271
    8SAPS   C21  955   2.398   1.708   6.143
    8SAPS   O22  956   2.355   1.815   6.098
    8SAPS   C22  957   2.446   1.594   6.062
    8SAPS   H2R  958   2.552   1.625   6.046
    8SAPS   H2S  959   2.451   1.497   6.116
    8SAPS    C3  960   2.547   1.851   6.367
    8SAPS    HX  961   2.597   1.754   6.391
    8SAPS    HY  962   2.561   1.919   6.453
    8SAPS   O31  963   2.599   1.901   6.244
    8SAPS   C31  964   2.592   2.035   6.221
    8SAPS   O32  965   2.538   2.115   6.291
    8SAPS   C32  966   2.658   2.071   6.085
    8SAPS   H2X  967   2.765   2.042   6.087
    8SAPS   H2Y  968   2.658   2.182   6.077
    8SAPS   C23  969   2.379   1.568   5.925
    8SAPS   H3R  970   2.358   1.661   5.868
    8SAPS   H3S  971   2.286   1.514   5.955
    8SAPS   C24  972   2.460   1.482   5.823
    8SAPS   H4R  973   2.562   1.521   5.806
    8SAPS   H4S  974   2.410   1.476   5.724
    8SAPS   C25  975   2.482   1.335   5.858
    8SAPS   H5R  976   2.554   1.312   5.938
    8SAPS   C26  977   2.425   1.233   5.785
    8SAPS   H6R  978   2.457   1.130   5.803
    8SAPS   C27  979   2.333   1.236   5.666
    8SAPS   H7R  980   2.314   1.332   5.612
    8SAPS   H7S  981   2.229   1.220   5.701
    8SAPS   C28  982   2.379   1.130   5.575
    8SAPS   H8R  983   2.374   1.025   5.608
    8SAPS   C29  984   2.423   1.152   5.454
    8SAPS   H9R  985   2.457   1.065   5.395
    8SAPS  C210  986   2.440   1.283   5.378
    8SAPS  H10R  987   2.511   1.257   5.297
    8SAPS  H10S  988   2.486   1.355   5.448
    8SAPS  C211  989   2.315   1.344   5.317
    8SAPS  H11R  990   2.237   1.381   5.386
    8SAPS  C212  991   2.281   1.338   5.190
    8SAPS  H12R  992   2.184   1.386   5.173
    8SAPS  C213  993   2.369   1.266   5.080
    8SAPS  H13R  994   2.351   1.157   5.097
    8SAPS  H13S  995   2.476   1.288   5.101
    8SAPS  C214  996   2.336   1.311   4.935
    8SAPS  H14R  997   2.334   1.420   4.927
    8SAPS  C215  998   2.350   1.236   4.827
    8SAPS  H15R  999   2.351   1.280   4.726
    8SAPS  C216 1000   2.387   1.090   4.817
    8SAPS  H16R 1001   2.389   1.040   4.917
    8SAPS  H16S 1002   2.492   1.076   4.785
    8SAPS  C217 1003   2.320   1.002   4.715
    8SAPS  H17R 1004   2.211   0.989   4.732
    8SAPS  H17S 1005   2.371   0.904   4.724
    8SAPS  C218 1006   2.340   1.053   4.565
    8SAPS  H18R 1007   2.447   1.081   4.556
    8SAPS  H18S 1008   2.279   1.146   4.556
    8SAPS  C219 1009   2.306   0.957   4.453
    8SAPS  H19R 1010   2.207   0.912   4.476
    8SAPS  H19S 1011   2.385   0.881   4.436
    8SAPS  C220 1012   2.298   1.038   4.316
    8SAPS  H20R 1013   2.293   0.972   4.227
    8SAPS  H20S 1014   2.380   1.112   4.316
    8SAPS  H20T 1015   2.206   1.100   4.312
    8SAPS   C33 1016   2.589   2.024   5.957
    8SAPS   H3X 1017   2.481   2.050   5.962
    8SAPS   H3Y 1018   2.601   1.914   5.945
    8SAPS   C34 1019   2.657   2.097   5.833
    8SAPS   H4X 1020   2.760   2.058   5.820
    8SAPS   H4Y 1021   2.666   2.204   5.863
    8SAPS   C35 1022   2.592   2.069   5.703
    8SAPS   H5X 1023   2.633   2.130   5.620
    8SAPS   H5Y 1024   2.482   2.087   5.705
    8SAPS   C36 1025   2.610   1.924   5.656
    8SAPS   H6X 1026   2.564   1.868   5.740
    8SAPS   H6Y 1027   2.716   1.903   5.629
    8SAPS   C37 1028   2.536   1.887   5.530
    8SAPS   H7X 1029   2.597   1.908   5.439
    8SAPS   H7Y 1030   2.442   1.946   5.527
    8SAPS   C38 1031   2.495   1.735   5.532
    8SAPS   H8X 1032   2.471   1.704   5.636
    8SAPS   H8Y 1033   2.586   1.683   5.496
    8SAPS   C39 1034   2.382   1.699   5.432
    8SAPS   H9X 1035   2.283   1.727   5.473
    8SAPS   H9Y 1036   2.388   1.590   5.412
    8SAPS  C310 1037   2.393   1.768   5.292
    8SAPS  H10X 1038   2.495   1.742   5.256
    8SAPS  H10Y 1039   2.377   1.878   5.304
    8SAPS  C311 1040   2.290   1.718   5.188
    8SAPS  H11X 1041   2.188   1.735   5.227
    8SAPS  H11Y 1042   2.300   1.613   5.155
    8SAPS  C312 1043   2.306   1.794   5.050
    8SAPS  H12X 1044   2.309   1.904   5.070
    8SAPS  H12Y 1045   2.214   1.778   4.990
    8SAPS  C313 1046   2.426   1.731   4.975
    8SAPS  H13X 1047   2.401   1.624   4.957
    8SAPS  H13Y 1048   2.528   1.732   5.019
    8SAPS  C314 1049   2.431   1.793   4.832
    8SAPS  H14X 1050   2.461   1.899   4.848
    8SAPS  H14Y 1051   2.326   1.800   4.795
    8SAPS  C315 1052   2.527   1.709   4.747
    8SAPS  H15X 1053   2.478   1.610   4.731
    8SAPS  H15Y 1054   2.627   1.705   4.795
    8SAPS  C316 1055   2.544   1.757   4.603
    8SAPS  H16X 1056   2.600   1.852   4.609
    8SAPS  H16Y 1057   2.444   1.776   4.559
    8SAPS  C317 1058   2.640   1.677   4.514
    8SAPS  H17X 1059   2.725   1.647   4.580
    8SAPS  H17Y 1060   2.662   1.743   4.427
    8SAPS  C318 1061   2.581   1.544   4.455
    8SAPS  H18X 1062   2.471   1.554   4.440
    8SAPS  H18Y 1063   2.595   1.463   4.531
    8SAPS  H18Z 1064   2.624   1.518   4.356
    9SAPS     N 1065   0.985   5.295   6.818
    9SAPS   HN1 1066   0.977   5.191   6.814
    9SAPS   HN2 1067   0.937   5.331   6.902
    9SAPS   HN3 1068   0.928   5.338   6.743
    9SAPS   C12 1069   1.125   5.333   6.810
    9SAPS  H12A 1070   1.120   5.437   6.779
    9SAPS   C13 1071   1.204   5.331   6.942
    9SAPS  O13A 1072   1.160   5.263   7.041
    9SAPS  O13B 1073   1.311   5.399   6.946
    9SAPS   C11 1074   1.204   5.258   6.695
    9SAPS  H11A 1075   1.214   5.151   6.724
    9SAPS  H11B 1076   1.306   5.303   6.693
    9SAPS     P 1077   1.208   5.350   6.454
    9SAPS   O13 1078   1.128   5.330   6.328
    9SAPS   O14 1079   1.239   5.487   6.492
    9SAPS   O12 1080   1.140   5.277   6.570
    9SAPS   O11 1081   1.338   5.265   6.439
    9SAPS    C1 1082   1.332   5.121   6.445
    9SAPS    HA 1083   1.364   5.078   6.542
    9SAPS    HB 1084   1.234   5.073   6.422
    9SAPS    C2 1085   1.447   5.066   6.347
    9SAPS    HS 1086   1.536   5.128   6.370
    9SAPS   O21 1087   1.398   5.084   6.209
    9SAPS   C21 1088   1.450   5.188   6.146
    9SAPS   O22 1089   1.535   5.257   6.193
    9SAPS   C22 1090   1.390   5.203   6.005
    9SAPS   H2R 1091   1.279   5.204   6.004
    9SAPS   H2S 1092   1.421   5.299   5.958
    9SAPS    C3 1093   1.475   4.923   6.380
    9SAPS    HX 1094   1.379   4.869   6.366
    9SAPS    HY 1095   1.516   4.903   6.481
    9SAPS   O31 1096   1.570   4.862   6.292
    9SAPS   C31 1097   1.696   4.884   6.320
    9SAPS   O32 1098   1.750   4.933   6.421
    9SAPS   C32 1099   1.782   4.840   6.200
    9SAPS   H2X 1100   1.798   4.730   6.196
    9SAPS   H2Y 1101   1.882   4.886   6.218
    9SAPS   C23 1102   1.436   5.107   5.898
    9SAPS   H3R 1103   1.409   5.004   5.931
    9SAPS   H3S 1104   1.547   5.113   5.894
    9SAPS   C24 1105   1.386   5.144   5.763
    9SAPS   H4R 1106   1.437   5.235   5.724
    9SAPS   H4S 1107   1.277   5.152   5.778
    9SAPS   C25 1108   1.407   5.026   5.675
    9SAPS   H5R 1109   1.367   4.935   5.720
    9SAPS   C26 1110   1.455   5.014   5.546
    9SAPS   H6R 1111   1.443   4.912   5.505
    9SAPS   C27 1112   1.483   5.135   5.457
    9SAPS   H7R 1113   1.504   5.231   5.510
    9SAPS   H7S 1114   1.389   5.162   5.406
    9SAPS   C28 1115   1.593   5.105   5.349
    9SAPS   H8R 1116   1.689   5.153   5.370
    9SAPS   C29 1117   1.580   5.038   5.230
    9SAPS   H9R 1118   1.674   5.022   5.175
    9SAPS  C210 1119   1.451   4.978   5.178
    9SAPS  H10R 1120   1.380   4.964   5.262
    9SAPS  H10S 1121   1.480   4.876   5.143
    9SAPS  C211 1122   1.395   5.069   5.069
    9SAPS  H11R 1123   1.357   5.166   5.103
    9SAPS  C212 1124   1.440   5.065   4.941
    9SAPS  H12R 1125   1.414   5.143   4.868
    9SAPS  C213 1126   1.516   4.962   4.863
    9SAPS  H13R 1127   1.617   4.942   4.905
    9SAPS  H13S 1128   1.537   5.001   4.761
    9SAPS  C214 1129   1.441   4.832   4.848
    9SAPS  H14R 1130   1.411   4.791   4.946
    9SAPS  C215 1131   1.408   4.758   4.737
    9SAPS  H15R 1132   1.343   4.670   4.736
    9SAPS  C216 1133   1.441   4.806   4.600
    9SAPS  H16R 1134   1.506   4.896   4.601
    9SAPS  H16S 1135   1.354   4.837   4.539
    9SAPS  C217 1136   1.502   4.694   4.513
    9SAPS  H17R 1137   1.433   4.607   4.517
    9SAPS  H17S 1138   1.599   4.662   4.558
    9SAPS  C218 1139   1.508   4.741   4.368
    9SAPS  H18R 1140   1.567   4.657   4.326
    9SAPS  H18S 1141   1.572   4.832   4.370
    9SAPS  C219 1142   1.374   4.750   4.291
    9SAPS  H19R 1143   1.327   4.840   4.337
    9SAPS  H19S 1144   1.303   4.666   4.305
    9SAPS  C220 1145   1.402   4.777   4.147
    9SAPS  H20R 1146   1.489   4.846   4.141
    9SAPS  H20S 1147   1.319   4.824   4.090
    9SAPS  H20T 1148   1.422   4.684   4.089
    9SAPS   C33 1149   1.719   4.872   6.061
    9SAPS   H3X 1150   1.686   4.978   6.050
    9SAPS   H3Y 1151   1.623   4.816   6.055
    9SAPS   C34 1152   1.810   4.836   5.939
    9SAPS   H4X 1153   1.820   4.726   5.931
    9SAPS   H4Y 1154   1.906   4.880   5.974
    9SAPS   C35 1155   1.780   4.900   5.804
    9SAPS   H5X 1156   1.800   5.009   5.813
    9SAPS   H5Y 1157   1.675   4.882   5.772
    9SAPS   C36 1158   1.873   4.849   5.692
    9SAPS   H6X 1159   1.859   4.741   5.670
    9SAPS   H6Y 1160   1.979   4.852   5.726
    9SAPS   C37 1161   1.861   4.935   5.566
    9SAPS   H7X 1162   1.893   5.041   5.574
    9SAPS   H7Y 1163   1.755   4.942   5.533
    9SAPS   C38 1164   1.940   4.866   5.447
    9SAPS   H8X 1165   1.919   4.758   5.435
    9SAPS   H8Y 1166   2.045   4.861   5.482
    9SAPS   C39 1167   1.907   4.940   5.319
    9SAPS   H9X 1168   1.880   5.046   5.342
    9SAPS   H9Y 1169   1.814   4.908   5.270
    9SAPS  C310 1170   2.019   4.925   5.215
    9SAPS  H10X 1171   2.032   4.819   5.185
    9SAPS  H10Y 1172   2.114   4.952   5.266
    9SAPS  C311 1173   2.013   5.019   5.091
    9SAPS  H11X 1174   2.027   5.124   5.125
    9SAPS  H11Y 1175   1.921   4.997   5.033
    9SAPS  C312 1176   2.117   4.976   4.984
    9SAPS  H12X 1177   2.097   4.875   4.942
    9SAPS  H12Y 1178   2.217   4.980   5.032
    9SAPS  C313 1179   2.126   5.069   4.865
    9SAPS  H13X 1180   2.219   5.046   4.810
    9SAPS  H13Y 1181   2.144   5.172   4.904
    9SAPS  C314 1182   2.014   5.081   4.754
    9SAPS  H14X 1183   1.919   5.126   4.789
    9SAPS  H14Y 1184   1.979   4.980   4.724
    9SAPS  C315 1185   2.042   5.162   4.627
    9SAPS  H15X 1186   2.059   5.268   4.656
    9SAPS  H15Y 1187   1.953   5.168   4.561
    9SAPS  C316 1188   2.149   5.104   4.528
    9SAPS  H16X 1189   2.239   5.067   4.580
    9SAPS  H16Y 1190   2.185   5.185   4.461
    9SAPS  C317 1191   2.101   4.985   4.445
    9SAPS  H17X 1192   2.003   5.012   4.400
    9SAPS  H17Y 1193   2.091   4.898   4.512
    9SAPS  C318 1194   2.197   4.950   4.330
    9SAPS  H18X 1195   2.233   5.047   4.289
    9SAPS  H18Y 1196   2.156   4.889   4.246
    9SAPS  H18Z 1197   2.282   4.891   4.368
   10SAPS     N 1198   2.489   4.250   6.581
   10SAPS   HN1 1199   2.586   4.216   6.562
   10SAPS   HN2 1200   2.423   4.218   6.508
   10SAPS   HN3 1201   2.478   4.348   6.612
   10SAPS   C12 1202   2.440   4.167   6.691
   10SAPS  H12A 1203   2.460   4.062   6.681
   10SAPS   C13 1204   2.502   4.214   6.825
   10SAPS  O13A 1205   2.552   4.332   6.839
   10SAPS  O13B 1206   2.475   4.144   6.924
   10SAPS   C11 1207   2.285   4.163   6.691
   10SAPS  H11A 1208   2.231   4.260   6.698
   10SAPS  H11B 1209   2.245   4.105   6.777
   10SAPS     P 1210   2.087   4.107   6.529
   10SAPS   O13 1211   2.042   3.975   6.473
   10SAPS   O14 1212   2.018   4.155   6.647
   10SAPS   O12 1213   2.237   4.104   6.568
   10SAPS   O11 1214   2.088   4.221   6.425
   10SAPS    C1 1215   2.125   4.357   6.463
   10SAPS    HA 1216   2.063   4.396   6.547
   10SAPS    HB 1217   2.228   4.353   6.502
   10SAPS    C2 1218   2.121   4.452   6.336
   10SAPS    HS 1219   2.012   4.458   6.313
   10SAPS   O21 1220   2.190   4.394   6.223
   10SAPS   C21 1221   2.319   4.354   6.237
   10SAPS   O22 1222   2.381   4.345   6.345
   10SAPS   C22 1223   2.380   4.332   6.098
   10SAPS   H2R 1224   2.378   4.226   6.064
   10SAPS   H2S 1225   2.325   4.397   6.027
   10SAPS    C3 1226   2.168   4.590   6.372
   10SAPS    HX 1227   2.271   4.595   6.413
   10SAPS    HY 1228   2.118   4.626   6.465
   10SAPS   O31 1229   2.132   4.683   6.266
   10SAPS   C31 1230   2.223   4.749   6.201
   10SAPS   O32 1231   2.335   4.768   6.247
   10SAPS   C32 1232   2.170   4.785   6.058
   10SAPS   H2X 1233   2.104   4.873   6.072
   10SAPS   H2Y 1234   2.119   4.702   6.005
   10SAPS   C23 1235   2.523   4.372   6.086
   10SAPS   H3R 1236   2.595   4.303   6.135
   10SAPS   H3S 1237   2.548   4.474   6.122
   10SAPS   C24 1238   2.561   4.371   5.934
   10SAPS   H4R 1239   2.499   4.444   5.879
   10SAPS   H4S 1240   2.534   4.275   5.884
   10SAPS   C25 1241   2.714   4.390   5.927
   10SAPS   H5R 1242   2.770   4.358   6.016
   10SAPS   C26 1243   2.773   4.421   5.811
   10SAPS   H6R 1244   2.881   4.444   5.805
   10SAPS   C27 1245   2.718   4.434   5.673
   10SAPS   H7R 1246   2.612   4.401   5.660
   10SAPS   H7S 1247   2.774   4.357   5.615
   10SAPS   C28 1248   2.742   4.572   5.607
   10SAPS   H8R 1249   2.728   4.659   5.672
   10SAPS   C29 1250   2.780   4.589   5.472
   10SAPS   H9R 1251   2.789   4.692   5.436
   10SAPS  C210 1252   2.809   4.474   5.379
   10SAPS  H10R 1253   2.715   4.421   5.353
   10SAPS  H10S 1254   2.880   4.409   5.434
   10SAPS  C211 1255   2.879   4.502   5.248
   10SAPS  H11R 1256   2.946   4.588   5.260
   10SAPS  C212 1257   2.856   4.443   5.123
   10SAPS  H12R 1258   2.922   4.474   5.040
   10SAPS  C213 1259   2.766   4.329   5.088
   10SAPS  H13R 1260   2.678   4.341   5.155
   10SAPS  H13S 1261   2.821   4.235   5.107
   10SAPS  C214 1262   2.715   4.309   4.951
   10SAPS  H14R 1263   2.665   4.396   4.907
   10SAPS  C215 1264   2.755   4.207   4.866
   10SAPS  H15R 1265   2.697   4.194   4.774
   10SAPS  C216 1266   2.848   4.093   4.898
   10SAPS  H16R 1267   2.925   4.114   4.976
   10SAPS  H16S 1268   2.908   4.064   4.809
   10SAPS  C217 1269   2.781   3.958   4.946
   10SAPS  H17R 1270   2.705   3.989   5.021
   10SAPS  H17S 1271   2.854   3.890   4.996
   10SAPS  C218 1272   2.729   3.864   4.838
   10SAPS  H18R 1273   2.807   3.854   4.760
   10SAPS  H18S 1274   2.637   3.903   4.791
   10SAPS  C219 1275   2.725   3.721   4.886
   10SAPS  H19R 1276   2.826   3.701   4.929
   10SAPS  H19S 1277   2.697   3.652   4.804
   10SAPS  C220 1278   2.620   3.724   4.997
   10SAPS  H20R 1279   2.527   3.779   4.969
   10SAPS  H20S 1280   2.660   3.769   5.089
   10SAPS  H20T 1281   2.589   3.623   5.031
   10SAPS   C33 1282   2.280   4.835   5.961
   10SAPS   H3X 1283   2.349   4.919   5.985
   10SAPS   H3Y 1284   2.216   4.873   5.878
   10SAPS   C34 1285   2.365   4.731   5.902
   10SAPS   H4X 1286   2.299   4.657   5.850
   10SAPS   H4Y 1287   2.429   4.691   5.983
   10SAPS   C35 1288   2.464   4.779   5.798
   10SAPS   H5X 1289   2.527   4.697   5.756
   10SAPS   H5Y 1290   2.541   4.847   5.839
   10SAPS   C36 1291   2.396   4.864   5.691
   10SAPS   H6X 1292   2.340   4.958   5.711
   10SAPS   H6Y 1293   2.315   4.814   5.634
   10SAPS   C37 1294   2.493   4.906   5.580
   10SAPS   H7X 1295   2.535   4.824   5.518
   10SAPS   H7Y 1296   2.582   4.954   5.627
   10SAPS   C38 1297   2.421   5.006   5.486
   10SAPS   H8X 1298   2.377   5.092   5.541
   10SAPS   H8Y 1299   2.335   4.958   5.434
   10SAPS   C39 1300   2.515   5.054   5.373
   10SAPS   H9X 1301   2.559   4.967   5.320
   10SAPS   H9Y 1302   2.596   5.117   5.415
   10SAPS  C310 1303   2.434   5.129   5.255
   10SAPS  H10X 1304   2.366   5.051   5.215
   10SAPS  H10Y 1305   2.506   5.145   5.172
   10SAPS  C311 1306   2.351   5.242   5.306
   10SAPS  H11X 1307   2.417   5.318   5.354
   10SAPS  H11Y 1308   2.291   5.203   5.391
   10SAPS  C312 1309   2.269   5.325   5.205
   10SAPS  H12X 1310   2.239   5.413   5.266
   10SAPS  H12Y 1311   2.170   5.274   5.199
   10SAPS  C313 1312   2.339   5.358   5.075
   10SAPS  H13X 1313   2.403   5.280   5.029
   10SAPS  H13Y 1314   2.412   5.441   5.080
   10SAPS  C314 1315   2.234   5.415   4.970
   10SAPS  H14X 1316   2.202   5.518   4.998
   10SAPS  H14Y 1317   2.144   5.350   4.973
   10SAPS  C315 1318   2.289   5.428   4.826
   10SAPS  H15X 1319   2.206   5.474   4.768
   10SAPS  H15Y 1320   2.317   5.332   4.778
   10SAPS  C316 1321   2.397   5.536   4.830
   10SAPS  H16X 1322   2.483   5.480   4.872
   10SAPS  H16Y 1323   2.380   5.614   4.907
   10SAPS  C317 1324   2.426   5.611   4.694
   10SAPS  H17X 1325   2.482   5.706   4.703
   10SAPS  H17Y 1326   2.332   5.651   4.650
   10SAPS  C318 1327   2.496   5.523   4.596
   10SAPS  H18X 1328   2.435   5.434   4.572
   10SAPS  H18Y 1329   2.585   5.470   4.637
   10SAPS  H18Z 1330   2.528   5.581   4.506
   11SAPS     N 1331   3.660   3.425   1.950
   11SAPS   HN1 1332   3.624   3.361   2.024
   11SAPS   HN2 1333   3.760   3.447   1.970
   11SAPS   HN3 1334   3.621   3.521   1.953
   11SAPS   C12 1335   3.666   3.361   1.817
   11SAPS  H12A 1336   3.563   3.350   1.788
   11SAPS   C13 1337   3.723   3.447   1.710
   11SAPS  O13A 1338   3.746   3.566   1.729
   11SAPS  O13B 1339   3.715   3.404   1.592
   11SAPS   C11 1340   3.758   3.234   1.824
   11SAPS  H11A 1341   3.850   3.269   1.876
   11SAPS  H11B 1342   3.782   3.200   1.721
   11SAPS     P 1343   3.715   2.982   1.882
   11SAPS   O13 1344   3.684   2.962   1.743
   11SAPS   O14 1345   3.839   2.929   1.941
   11SAPS   O12 1346   3.706   3.132   1.908
   11SAPS   O11 1347   3.592   2.926   1.964
   11SAPS    C1 1348   3.524   2.984   2.073
   11SAPS    HA 1349   3.540   3.094   2.085
   11SAPS    HB 1350   3.417   2.974   2.048
   11SAPS    C2 1351   3.561   2.911   2.203
   11SAPS    HS 1352   3.494   2.951   2.282
   11SAPS   O21 1353   3.696   2.948   2.234
   11SAPS   C21 1354   3.726   2.958   2.359
   11SAPS   O22 1355   3.648   2.939   2.453
   11SAPS   C22 1356   3.864   3.013   2.377
   11SAPS   H2R 1357   3.931   2.953   2.312
   11SAPS   H2S 1358   3.855   3.115   2.334
   11SAPS    C3 1359   3.551   2.756   2.184
   11SAPS    HX 1360   3.639   2.726   2.123
   11SAPS    HY 1361   3.463   2.741   2.119
   11SAPS   O31 1362   3.528   2.696   2.309
   11SAPS   C31 1363   3.608   2.612   2.364
   11SAPS   O32 1364   3.728   2.599   2.343
   11SAPS   C32 1365   3.522   2.521   2.467
   11SAPS   H2X 1366   3.552   2.416   2.449
   11SAPS   H2Y 1367   3.418   2.537   2.429
   11SAPS   C23 1368   3.932   3.008   2.516
   11SAPS   H3R 1369   3.994   2.915   2.511
   11SAPS   H3S 1370   3.855   2.999   2.596
   11SAPS   C24 1371   4.030   3.124   2.538
   11SAPS   H4R 1372   3.969   3.216   2.522
   11SAPS   H4S 1373   4.108   3.106   2.461
   11SAPS   C25 1374   4.097   3.127   2.674
   11SAPS   H5R 1375   4.120   3.032   2.724
   11SAPS   C26 1376   4.101   3.233   2.761
   11SAPS   H6R 1377   4.149   3.213   2.858
   11SAPS   C27 1378   4.063   3.380   2.735
   11SAPS   H7R 1379   3.956   3.387   2.764
   11SAPS   H7S 1380   4.063   3.414   2.630
   11SAPS   C28 1381   4.131   3.487   2.819
   11SAPS   H8R 1382   4.190   3.568   2.774
   11SAPS   C29 1383   4.112   3.500   2.947
   11SAPS   H9R 1384   4.178   3.571   2.998
   11SAPS  C210 1385   4.021   3.413   3.032
   11SAPS  H10R 1386   4.070   3.317   3.058
   11SAPS  H10S 1387   3.932   3.382   2.972
   11SAPS  C211 1388   3.978   3.493   3.150
   11SAPS  H11R 1389   3.932   3.591   3.128
   11SAPS  C212 1390   3.994   3.442   3.279
   11SAPS  H12R 1391   3.951   3.500   3.362
   11SAPS  C213 1392   4.062   3.312   3.319
   11SAPS  H13R 1393   4.153   3.311   3.256
   11SAPS  H13S 1394   4.017   3.220   3.278
   11SAPS  C214 1395   4.103   3.293   3.460
   11SAPS  H14R 1396   4.021   3.291   3.533
   11SAPS  C215 1397   4.224   3.288   3.521
   11SAPS  H15R 1398   4.227   3.279   3.630
   11SAPS  C216 1399   4.350   3.308   3.449
   11SAPS  H16R 1400   4.424   3.356   3.517
   11SAPS  H16S 1401   4.345   3.374   3.360
   11SAPS  C217 1402   4.419   3.171   3.419
   11SAPS  H17R 1403   4.499   3.186   3.344
   11SAPS  H17S 1404   4.343   3.118   3.357
   11SAPS  C218 1405   4.456   3.086   3.538
   11SAPS  H18R 1406   4.368   3.046   3.593
   11SAPS  H18S 1407   4.514   3.151   3.607
   11SAPS  C219 1408   4.540   2.963   3.508
   11SAPS  H19R 1409   4.644   2.990   3.482
   11SAPS  H19S 1410   4.491   2.900   3.430
   11SAPS  C220 1411   4.552   2.876   3.637
   11SAPS  H20R 1412   4.593   2.941   3.718
   11SAPS  H20S 1413   4.609   2.782   3.623
   11SAPS  H20T 1414   4.447   2.847   3.656
   11SAPS   C33 1415   3.549   2.562   2.615
   11SAPS   H3X 1416   3.521   2.668   2.632
   11SAPS   H3Y 1417   3.655   2.536   2.636
   11SAPS   C34 1418   3.464   2.473   2.709
   11SAPS   H4X 1419   3.498   2.367   2.709
   11SAPS   H4Y 1420   3.355   2.478   2.688
   11SAPS   C35 1421   3.486   2.532   2.849
   11SAPS   H5X 1422   3.432   2.629   2.855
   11SAPS   H5Y 1423   3.594   2.547   2.866
   11SAPS   C36 1424   3.437   2.444   2.977
   11SAPS   H6X 1425   3.504   2.356   2.968
   11SAPS   H6Y 1426   3.333   2.414   2.951
   11SAPS   C37 1427   3.442   2.510   3.112
   11SAPS   H7X 1428   3.371   2.465   3.185
   11SAPS   H7Y 1429   3.409   2.616   3.105
   11SAPS   C38 1430   3.584   2.505   3.166
   11SAPS   H8X 1431   3.650   2.554   3.091
   11SAPS   H8Y 1432   3.614   2.398   3.158
   11SAPS   C39 1433   3.603   2.554   3.306
   11SAPS   H9X 1434   3.542   2.645   3.326
   11SAPS   H9Y 1435   3.708   2.582   3.331
   11SAPS  C310 1436   3.574   2.460   3.414
   11SAPS  H10X 1437   3.620   2.368   3.371
   11SAPS  H10Y 1438   3.465   2.440   3.412
   11SAPS  C311 1439   3.634   2.504   3.552
   11SAPS  H11X 1440   3.735   2.549   3.539
   11SAPS  H11Y 1441   3.637   2.414   3.618
   11SAPS  C312 1442   3.555   2.605   3.626
   11SAPS  H12X 1443   3.456   2.557   3.641
   11SAPS  H12Y 1444   3.531   2.689   3.557
   11SAPS  C313 1445   3.606   2.664   3.755
   11SAPS  H13X 1446   3.686   2.738   3.731
   11SAPS  H13Y 1447   3.645   2.589   3.827
   11SAPS  C314 1448   3.488   2.737   3.814
   11SAPS  H14X 1449   3.408   2.671   3.855
   11SAPS  H14Y 1450   3.440   2.804   3.739
   11SAPS  C315 1451   3.519   2.836   3.924
   11SAPS  H15X 1452   3.544   2.932   3.873
   11SAPS  H15Y 1453   3.601   2.803   3.992
   11SAPS  C316 1454   3.395   2.879   4.004
   11SAPS  H16X 1455   3.348   2.785   4.039
   11SAPS  H16Y 1456   3.324   2.927   3.934
   11SAPS  C317 1457   3.435   2.963   4.116
   11SAPS  H17X 1458   3.441   3.066   4.074
   11SAPS  H17Y 1459   3.534   2.932   4.155
   11SAPS  C318 1460   3.335   2.956   4.233
   11SAPS  H18X 1461   3.315   2.852   4.267
   11SAPS  H18Y 1462   3.235   3.000   4.209
   11SAPS  H18Z 1463   3.372   3.009   4.323
   12SAPS     N 1464   3.026   2.386   2.070
   12SAPS   HN1 1465   3.007   2.285   2.086
   12SAPS   HN2 1466   3.025   2.434   2.162
   12SAPS   HN3 1467   2.947   2.423   2.014
   12SAPS   C12 1468   3.158   2.396   2.008
   12SAPS  H12A 1469   3.150   2.335   1.920
   12SAPS   C13 1470   3.205   2.534   1.961
   12SAPS  O13A 1471   3.136   2.641   1.987
   12SAPS  O13B 1472   3.322   2.539   1.914
   12SAPS   C11 1473   3.270   2.326   2.099
   12SAPS  H11A 1474   3.308   2.402   2.170
   12SAPS  H11B 1475   3.361   2.305   2.039
   12SAPS     P 1476   3.313   2.137   2.280
   12SAPS   O13 1477   3.345   1.999   2.241
   12SAPS   O14 1478   3.435   2.227   2.302
   12SAPS   O12 1479   3.227   2.202   2.160
   12SAPS   O11 1480   3.211   2.135   2.404
   12SAPS    C1 1481   3.134   2.247   2.441
   12SAPS    HA 1482   3.192   2.314   2.508
   12SAPS    HB 1483   3.094   2.301   2.352
   12SAPS    C2 1484   3.004   2.205   2.520
   12SAPS    HS 1485   2.942   2.296   2.534
   12SAPS   O21 1486   3.032   2.135   2.639
   12SAPS   C21 1487   3.064   2.210   2.733
   12SAPS   O22 1488   3.059   2.336   2.733
   12SAPS   C22 1489   3.114   2.125   2.852
   12SAPS   H2R 1490   3.158   2.032   2.811
   12SAPS   H2S 1491   3.193   2.178   2.910
   12SAPS    C3 1492   2.921   2.105   2.438
   12SAPS    HX 1493   2.984   2.015   2.423
   12SAPS    HY 1494   2.898   2.163   2.346
   12SAPS   O31 1495   2.796   2.073   2.494
   12SAPS   C31 1496   2.779   1.975   2.572
   12SAPS   O32 1497   2.852   1.883   2.599
   12SAPS   C32 1498   2.641   1.991   2.621
   12SAPS   H2X 1499   2.571   1.915   2.579
   12SAPS   H2Y 1500   2.600   2.092   2.601
   12SAPS   C23 1501   2.993   2.070   2.940
   12SAPS   H3R 1502   2.929   2.010   2.872
   12SAPS   H3S 1503   2.932   2.155   2.975
   12SAPS   C24 1504   3.033   2.004   3.070
   12SAPS   H4R 1505   3.055   2.083   3.145
   12SAPS   H4S 1506   3.117   1.936   3.048
   12SAPS   C25 1507   2.915   1.932   3.140
   12SAPS   H5R 1508   2.905   1.826   3.113
   12SAPS   C26 1509   2.833   1.975   3.241
   12SAPS   H6R 1510   2.755   1.904   3.273
   12SAPS   C27 1511   2.819   2.115   3.294
   12SAPS   H7R 1512   2.860   2.187   3.220
   12SAPS   H7S 1513   2.881   2.134   3.385
   12SAPS   C28 1514   2.680   2.139   3.339
   12SAPS   H8R 1515   2.610   2.160   3.257
   12SAPS   C29 1516   2.630   2.139   3.462
   12SAPS   H9R 1517   2.521   2.156   3.471
   12SAPS  C210 1518   2.700   2.111   3.592
   12SAPS  H10R 1519   2.669   2.191   3.663
   12SAPS  H10S 1520   2.810   2.121   3.578
   12SAPS  C211 1521   2.660   1.976   3.649
   12SAPS  H11R 1522   2.648   1.885   3.589
   12SAPS  C212 1523   2.653   1.948   3.788
   12SAPS  H12R 1524   2.630   1.847   3.827
   12SAPS  C213 1525   2.673   2.046   3.899
   12SAPS  H13R 1526   2.644   2.149   3.871
   12SAPS  H13S 1527   2.782   2.053   3.917
   12SAPS  C214 1528   2.607   2.010   4.025
   12SAPS  H14R 1529   2.514   2.062   4.054
   12SAPS  C215 1530   2.658   1.916   4.108
   12SAPS  H15R 1531   2.606   1.885   4.200
   12SAPS  C216 1532   2.784   1.832   4.086
   12SAPS  H16R 1533   2.858   1.845   4.168
   12SAPS  H16S 1534   2.838   1.859   3.992
   12SAPS  C217 1535   2.745   1.682   4.067
   12SAPS  H17R 1536   2.648   1.673   4.013
   12SAPS  H17S 1537   2.721   1.636   4.166
   12SAPS  C218 1538   2.836   1.602   3.982
   12SAPS  H18R 1539   2.940   1.604   4.022
   12SAPS  H18S 1540   2.844   1.647   3.881
   12SAPS  C219 1541   2.779   1.460   3.976
   12SAPS  H19R 1542   2.670   1.453   3.959
   12SAPS  H19S 1543   2.806   1.411   4.072
   12SAPS  C220 1544   2.846   1.395   3.852
   12SAPS  H20R 1545   2.828   1.285   3.854
   12SAPS  H20S 1546   2.955   1.416   3.865
   12SAPS  H20T 1547   2.805   1.428   3.755
   12SAPS   C33 1548   2.642   1.950   2.770
   12SAPS   H3X 1549   2.665   2.041   2.829
   12SAPS   H3Y 1550   2.715   1.874   2.805
   12SAPS   C34 1551   2.496   1.904   2.814
   12SAPS   H4X 1552   2.473   1.802   2.776
   12SAPS   H4Y 1553   2.421   1.974   2.771
   12SAPS   C35 1554   2.466   1.897   2.964
   12SAPS   H5X 1555   2.358   1.875   2.970
   12SAPS   H5Y 1556   2.478   2.000   3.004
   12SAPS   C36 1557   2.532   1.785   3.042
   12SAPS   H6X 1558   2.642   1.774   3.034
   12SAPS   H6Y 1559   2.486   1.690   3.005
   12SAPS   C37 1560   2.494   1.800   3.189
   12SAPS   H7X 1561   2.383   1.811   3.194
   12SAPS   H7Y 1562   2.547   1.891   3.224
   12SAPS   C38 1563   2.536   1.683   3.278
   12SAPS   H8X 1564   2.646   1.695   3.288
   12SAPS   H8Y 1565   2.509   1.589   3.227
   12SAPS   C39 1566   2.468   1.691   3.416
   12SAPS   H9X 1567   2.358   1.680   3.402
   12SAPS   H9Y 1568   2.490   1.788   3.466
   12SAPS  C310 1569   2.532   1.581   3.501
   12SAPS  H10X 1570   2.641   1.583   3.479
   12SAPS  H10Y 1571   2.496   1.478   3.481
   12SAPS  C311 1572   2.515   1.604   3.655
   12SAPS  H11X 1573   2.573   1.699   3.660
   12SAPS  H11Y 1574   2.576   1.526   3.705
   12SAPS  C312 1575   2.371   1.608   3.704
   12SAPS  H12X 1576   2.324   1.509   3.688
   12SAPS  H12Y 1577   2.318   1.684   3.643
   12SAPS  C313 1578   2.365   1.647   3.851
   12SAPS  H13X 1579   2.404   1.751   3.859
   12SAPS  H13Y 1580   2.436   1.580   3.904
   12SAPS  C314 1581   2.223   1.646   3.904
   12SAPS  H14X 1582   2.191   1.540   3.908
   12SAPS  H14Y 1583   2.147   1.695   3.840
   12SAPS  C315 1584   2.215   1.731   4.035
   12SAPS  H15X 1585   2.208   1.838   4.007
   12SAPS  H15Y 1586   2.320   1.733   4.073
   12SAPS  C316 1587   2.112   1.682   4.139
   12SAPS  H16X 1588   2.122   1.573   4.160
   12SAPS  H16Y 1589   2.010   1.702   4.100
   12SAPS  C317 1590   2.109   1.764   4.272
   12SAPS  H17X 1591   2.021   1.725   4.327
   12SAPS  H17Y 1592   2.092   1.869   4.239
   12SAPS  C318 1593   2.235   1.759   4.367
   12SAPS  H18X 1594   2.319   1.803   4.309
   12SAPS  H18Y 1595   2.254   1.656   4.406
   12SAPS  H18Z 1596   2.220   1.827   4.454
   13SAPS     N 1597   4.877   1.778   2.190
   13SAPS   HN1 1598   4.978   1.798   2.171
   13SAPS   HN2 1599   4.820   1.865   2.178
   13SAPS   HN3 1600   4.879   1.734   2.283
   13SAPS   C12 1601   4.830   1.671   2.101
   13SAPS  H12A 1602   4.723   1.662   2.099
   13SAPS   C13 1603   4.889   1.655   1.955
   13SAPS  O13A 1604   4.947   1.754   1.900
   13SAPS  O13B 1605   4.854   1.562   1.885
   13SAPS   C11 1606   4.886   1.546   2.174
   13SAPS  H11A 1607   4.995   1.545   2.157
   13SAPS  H11B 1608   4.856   1.455   2.119
   13SAPS     P 1609   4.717   1.478   2.361
   13SAPS   O13 1610   4.621   1.592   2.367
   13SAPS   O14 1611   4.680   1.356   2.289
   13SAPS   O12 1612   4.853   1.535   2.315
   13SAPS   O11 1613   4.754   1.426   2.504
   13SAPS    C1 1614   4.823   1.499   2.606
   13SAPS    HA 1615   4.914   1.553   2.571
   13SAPS    HB 1616   4.751   1.578   2.638
   13SAPS    C2 1617   4.854   1.419   2.725
   13SAPS    HS 1618   4.924   1.340   2.693
   13SAPS   O21 1619   4.732   1.385   2.789
   13SAPS   C21 1620   4.737   1.277   2.868
   13SAPS   O22 1621   4.832   1.201   2.874
   13SAPS   C22 1622   4.606   1.269   2.932
   13SAPS   H2R 1623   4.582   1.372   2.966
   13SAPS   H2S 1624   4.536   1.241   2.851
   13SAPS    C3 1625   4.934   1.516   2.822
   13SAPS    HX 1626   4.854   1.582   2.863
   13SAPS    HY 1627   4.995   1.584   2.759
   13SAPS   O31 1628   5.012   1.448   2.928
   13SAPS   C31 1629   5.119   1.371   2.882
   13SAPS   O32 1630   5.150   1.360   2.767
   13SAPS   C32 1631   5.164   1.276   2.991
   13SAPS   H2X 1632   5.076   1.247   3.052
   13SAPS   H2Y 1633   5.236   1.331   3.056
   13SAPS   C23 1634   4.603   1.174   3.047
   13SAPS   H3R 1635   4.656   1.080   3.021
   13SAPS   H3S 1636   4.500   1.145   3.077
   13SAPS   C24 1637   4.656   1.234   3.178
   13SAPS   H4R 1638   4.595   1.315   3.225
   13SAPS   H4S 1639   4.760   1.272   3.167
   13SAPS   C25 1640   4.662   1.125   3.281
   13SAPS   H5R 1641   4.562   1.110   3.325
   13SAPS   C26 1642   4.765   1.053   3.324
   13SAPS   H6R 1643   4.736   0.976   3.396
   13SAPS   C27 1644   4.905   1.068   3.273
   13SAPS   H7R 1645   4.978   1.040   3.353
   13SAPS   H7S 1646   4.924   1.169   3.232
   13SAPS   C28 1647   4.917   0.971   3.158
   13SAPS   H8R 1648   4.906   1.017   3.059
   13SAPS   C29 1649   4.950   0.840   3.167
   13SAPS   H9R 1650   4.955   0.778   3.076
   13SAPS  C210 1651   4.973   0.761   3.295
   13SAPS  H10R 1652   5.009   0.836   3.368
   13SAPS  H10S 1653   5.047   0.682   3.266
   13SAPS  C211 1654   4.847   0.692   3.348
   13SAPS  H11R 1655   4.784   0.670   3.261
   13SAPS  C212 1656   4.817   0.667   3.476
   13SAPS  H12R 1657   4.733   0.601   3.504
   13SAPS  C213 1658   4.904   0.713   3.598
   13SAPS  H13R 1659   5.013   0.695   3.594
   13SAPS  H13S 1660   4.884   0.646   3.684
   13SAPS  C214 1661   4.880   0.859   3.640
   13SAPS  H14R 1662   4.931   0.933   3.576
   13SAPS  C215 1663   4.786   0.901   3.722
   13SAPS  H15R 1664   4.771   1.010   3.719
   13SAPS  C216 1665   4.678   0.824   3.783
   13SAPS  H16R 1666   4.683   0.847   3.892
   13SAPS  H16S 1667   4.686   0.713   3.775
   13SAPS  C217 1668   4.531   0.859   3.737
   13SAPS  H17R 1669   4.529   0.829   3.630
   13SAPS  H17S 1670   4.521   0.969   3.743
   13SAPS  C218 1671   4.434   0.796   3.832
   13SAPS  H18R 1672   4.458   0.692   3.864
   13SAPS  H18S 1673   4.337   0.788   3.778
   13SAPS  C219 1674   4.417   0.890   3.955
   13SAPS  H19R 1675   4.391   0.990   3.914
   13SAPS  H19S 1676   4.507   0.896   4.019
   13SAPS  C220 1677   4.295   0.847   4.042
   13SAPS  H20R 1678   4.207   0.886   3.988
   13SAPS  H20S 1679   4.294   0.881   4.148
   13SAPS  H20T 1680   4.292   0.737   4.059
   13SAPS   C33 1681   5.230   1.139   2.938
   13SAPS   H3X 1682   5.312   1.156   2.866
   13SAPS   H3Y 1683   5.157   1.092   2.869
   13SAPS   C34 1684   5.261   1.034   3.043
   13SAPS   H4X 1685   5.299   0.939   3.001
   13SAPS   H4Y 1686   5.165   1.014   3.095
   13SAPS   C35 1687   5.367   1.080   3.153
   13SAPS   H5X 1688   5.330   1.162   3.218
   13SAPS   H5Y 1689   5.451   1.120   3.092
   13SAPS   C36 1690   5.403   0.962   3.242
   13SAPS   H6X 1691   5.443   0.885   3.173
   13SAPS   H6Y 1692   5.311   0.926   3.294
   13SAPS   C37 1693   5.518   0.999   3.344
   13SAPS   H7X 1694   5.489   1.095   3.390
   13SAPS   H7Y 1695   5.612   1.019   3.289
   13SAPS   C38 1696   5.526   0.891   3.452
   13SAPS   H8X 1697   5.502   0.790   3.412
   13SAPS   H8Y 1698   5.439   0.905   3.519
   13SAPS   C39 1699   5.660   0.899   3.521
   13SAPS   H9X 1700   5.701   1.002   3.514
   13SAPS   H9Y 1701   5.742   0.835   3.482
   13SAPS  C310 1702   5.658   0.865   3.673
   13SAPS  H10X 1703   5.639   0.755   3.681
   13SAPS  H10Y 1704   5.575   0.929   3.710
   13SAPS  C311 1705   5.780   0.906   3.750
   13SAPS  H11X 1706   5.867   0.900   3.682
   13SAPS  H11Y 1707   5.791   0.839   3.838
   13SAPS  C312 1708   5.761   1.052   3.802
   13SAPS  H12X 1709   5.666   1.059   3.858
   13SAPS  H12Y 1710   5.760   1.123   3.717
   13SAPS  C313 1711   5.865   1.082   3.905
   13SAPS  H13X 1712   5.847   1.021   3.996
   13SAPS  H13Y 1713   5.867   1.187   3.942
   13SAPS  C314 1714   6.005   1.049   3.860
   13SAPS  H14X 1715   6.013   1.092   3.757
   13SAPS  H14Y 1716   6.019   0.940   3.851
   13SAPS  C315 1717   6.118   1.117   3.939
   13SAPS  H15X 1718   6.086   1.109   4.045
   13SAPS  H15Y 1719   6.101   1.224   3.914
   13SAPS  C316 1720   6.262   1.072   3.917
   13SAPS  H16X 1721   6.292   1.113   3.818
   13SAPS  H16Y 1722   6.280   0.963   3.915
   13SAPS  C317 1723   6.365   1.133   4.017
   13SAPS  H17X 1724   6.349   1.110   4.125
   13SAPS  H17Y 1725   6.357   1.243   4.030
   13SAPS  C318 1726   6.520   1.109   3.988
   13SAPS  H18X 1727   6.580   1.164   4.063
   13SAPS  H18Y 1728   6.536   1.146   3.884
   13SAPS  H18Z 1729   6.538   0.999   3.996
   14SAPS     N 1730   5.478   3.189   2.086
   14SAPS   HN1 1731   5.393   3.137   2.115
   14SAPS   HN2 1732   5.450   3.248   2.005
   14SAPS   HN3 1733   5.540   3.115   2.048
   14SAPS   C12 1734   5.524   3.276   2.194
   14SAPS  H12A 1735   5.493   3.220   2.281
   14SAPS   C13 1736   5.677   3.303   2.182
   14SAPS  O13A 1737   5.754   3.260   2.091
   14SAPS  O13B 1738   5.728   3.374   2.271
   14SAPS   C11 1739   5.453   3.414   2.189
   14SAPS  H11A 1740   5.383   3.416   2.103
   14SAPS  H11B 1741   5.519   3.501   2.169
   14SAPS     P 1742   5.355   3.582   2.371
   14SAPS   O13 1743   5.468   3.669   2.336
   14SAPS   O14 1744   5.219   3.623   2.340
   14SAPS   O12 1745   5.379   3.442   2.307
   14SAPS   O11 1746   5.363   3.545   2.524
   14SAPS    C1 1747   5.311   3.427   2.583
   14SAPS    HA 1748   5.200   3.435   2.585
   14SAPS    HB 1749   5.332   3.333   2.529
   14SAPS    C2 1750   5.344   3.410   2.731
   14SAPS    HS 1751   5.294   3.315   2.762
   14SAPS   O21 1752   5.312   3.523   2.805
   14SAPS   C21 1753   5.184   3.555   2.818
   14SAPS   O22 1754   5.087   3.487   2.787
   14SAPS   C22 1755   5.183   3.688   2.890
   14SAPS   H2R 1756   5.275   3.746   2.867
   14SAPS   H2S 1757   5.115   3.754   2.832
   14SAPS    C3 1758   5.496   3.382   2.742
   14SAPS    HX 1759   5.562   3.452   2.686
   14SAPS    HY 1760   5.507   3.281   2.699
   14SAPS   O31 1761   5.551   3.382   2.872
   14SAPS   C31 1762   5.578   3.499   2.926
   14SAPS   O32 1763   5.581   3.607   2.870
   14SAPS   C32 1764   5.625   3.469   3.069
   14SAPS   H2X 1765   5.706   3.394   3.069
   14SAPS   H2Y 1766   5.535   3.419   3.112
   14SAPS   C23 1767   5.160   3.663   3.043
   14SAPS   H3R 1768   5.082   3.585   3.054
   14SAPS   H3S 1769   5.122   3.756   3.092
   14SAPS   C24 1770   5.288   3.607   3.115
   14SAPS   H4R 1771   5.364   3.684   3.089
   14SAPS   H4S 1772   5.320   3.512   3.066
   14SAPS   C25 1773   5.279   3.589   3.265
   14SAPS   H5R 1774   5.274   3.682   3.325
   14SAPS   C26 1775   5.253   3.475   3.331
   14SAPS   H6R 1776   5.263   3.479   3.441
   14SAPS   C27 1777   5.242   3.337   3.267
   14SAPS   H7R 1778   5.298   3.335   3.171
   14SAPS   H7S 1779   5.137   3.319   3.236
   14SAPS   C28 1780   5.292   3.228   3.360
   14SAPS   H8R 1781   5.397   3.201   3.338
   14SAPS   C29 1782   5.237   3.163   3.459
   14SAPS   H9R 1783   5.307   3.092   3.506
   14SAPS  C210 1784   5.097   3.185   3.522
   14SAPS  H10R 1785   5.026   3.169   3.437
   14SAPS  H10S 1786   5.085   3.284   3.569
   14SAPS  C211 1787   5.084   3.077   3.629
   14SAPS  H11R 1788   5.013   2.996   3.606
   14SAPS  C212 1789   5.153   3.084   3.751
   14SAPS  H12R 1790   5.122   3.012   3.829
   14SAPS  C213 1791   5.253   3.184   3.802
   14SAPS  H13R 1792   5.222   3.218   3.903
   14SAPS  H13S 1793   5.240   3.271   3.734
   14SAPS  C214 1794   5.400   3.146   3.799
   14SAPS  H14R 1795   5.419   3.067   3.725
   14SAPS  C215 1796   5.497   3.193   3.878
   14SAPS  H15R 1797   5.597   3.147   3.866
   14SAPS  C216 1798   5.488   3.305   3.982
   14SAPS  H16R 1799   5.567   3.283   4.057
   14SAPS  H16S 1800   5.391   3.315   4.036
   14SAPS  C217 1801   5.503   3.450   3.929
   14SAPS  H17R 1802   5.520   3.514   4.018
   14SAPS  H17S 1803   5.405   3.485   3.890
   14SAPS  C218 1804   5.599   3.467   3.807
   14SAPS  H18R 1805   5.667   3.379   3.810
   14SAPS  H18S 1806   5.667   3.555   3.813
   14SAPS  C219 1807   5.530   3.458   3.670
   14SAPS  H19R 1808   5.497   3.562   3.648
   14SAPS  H19S 1809   5.440   3.393   3.669
   14SAPS  C220 1810   5.632   3.429   3.560
   14SAPS  H20R 1811   5.687   3.335   3.578
   14SAPS  H20S 1812   5.704   3.513   3.550
   14SAPS  H20T 1813   5.587   3.418   3.459
   14SAPS   C33 1814   5.662   3.591   3.160
   14SAPS   H3X 1815   5.653   3.542   3.260
   14SAPS   H3Y 1816   5.590   3.676   3.159
   14SAPS   C34 1817   5.805   3.634   3.153
   14SAPS   H4X 1818   5.836   3.658   3.049
   14SAPS   H4Y 1819   5.863   3.543   3.181
   14SAPS   C35 1820   5.820   3.760   3.242
   14SAPS   H5X 1821   5.745   3.841   3.230
   14SAPS   H5Y 1822   5.925   3.793   3.230
   14SAPS   C36 1823   5.808   3.733   3.391
   14SAPS   H6X 1824   5.893   3.668   3.420
   14SAPS   H6Y 1825   5.708   3.696   3.423
   14SAPS   C37 1826   5.807   3.857   3.473
   14SAPS   H7X 1827   5.739   3.936   3.435
   14SAPS   H7Y 1828   5.909   3.902   3.473
   14SAPS   C38 1829   5.787   3.830   3.627
   14SAPS   H8X 1830   5.859   3.755   3.668
   14SAPS   H8Y 1831   5.683   3.791   3.634
   14SAPS   C39 1832   5.799   3.951   3.720
   14SAPS   H9X 1833   5.722   4.027   3.695
   14SAPS   H9Y 1834   5.897   3.999   3.704
   14SAPS  C310 1835   5.805   3.914   3.867
   14SAPS  H10X 1836   5.814   4.003   3.933
   14SAPS  H10Y 1837   5.896   3.853   3.887
   14SAPS  C311 1838   5.673   3.862   3.935
   14SAPS  H11X 1839   5.638   3.762   3.900
   14SAPS  H11Y 1840   5.590   3.932   3.911
   14SAPS  C312 1841   5.676   3.859   4.087
   14SAPS  H12X 1842   5.675   3.965   4.122
   14SAPS  H12Y 1843   5.777   3.820   4.109
   14SAPS  C313 1844   5.575   3.768   4.145
   14SAPS  H13X 1845   5.626   3.676   4.180
   14SAPS  H13Y 1846   5.505   3.745   4.061
   14SAPS  C314 1847   5.505   3.828   4.257
   14SAPS  H14X 1848   5.475   3.928   4.219
   14SAPS  H14Y 1849   5.554   3.818   4.356
   14SAPS  C315 1850   5.375   3.751   4.288
   14SAPS  H15X 1851   5.302   3.767   4.206
   14SAPS  H15Y 1852   5.341   3.810   4.375
   14SAPS  C316 1853   5.401   3.602   4.326
   14SAPS  H16X 1854   5.499   3.596   4.377
   14SAPS  H16Y 1855   5.405   3.543   4.231
   14SAPS  C317 1856   5.283   3.556   4.409
   14SAPS  H17X 1857   5.198   3.589   4.347
   14SAPS  H17Y 1858   5.283   3.601   4.511
   14SAPS  C318 1859   5.273   3.405   4.422
   14SAPS  H18X 1860   5.174   3.370   4.457
   14SAPS  H18Y 1861   5.351   3.356   4.485
   14SAPS  H18Z 1862   5.278   3.369   4.318
   15SAPS     N 1863   3.932   3.759   1.770
   15SAPS   HN1 1864   3.863   3.831   1.801
   15SAPS   HN2 1865   3.942   3.766   1.667
   15SAPS   HN3 1866   3.891   3.664   1.773
   15SAPS   C12 1867   4.058   3.782   1.852
   15SAPS  H12A 1868   4.137   3.741   1.791
   15SAPS   C13 1869   4.088   3.930   1.879
   15SAPS  O13A 1870   4.015   4.021   1.826
   15SAPS  O13B 1871   4.173   3.951   1.968
   15SAPS   C11 1872   4.041   3.713   1.985
   15SAPS  H11A 1873   3.951   3.749   2.040
   15SAPS  H11B 1874   4.128   3.731   2.051
   15SAPS     P 1875   4.058   3.457   2.055
   15SAPS   O13 1876   3.924   3.402   2.061
   15SAPS   O14 1877   4.167   3.369   2.002
   15SAPS   O12 1878   4.026   3.577   1.955
   15SAPS   O11 1879   4.092   3.517   2.206
   15SAPS    C1 1880   4.161   3.451   2.304
   15SAPS    HA 1881   4.076   3.418   2.367
   15SAPS    HB 1882   4.231   3.372   2.269
   15SAPS    C2 1883   4.251   3.548   2.381
   15SAPS    HS 1884   4.339   3.575   2.319
   15SAPS   O21 1885   4.285   3.492   2.505
   15SAPS   C21 1886   4.408   3.448   2.520
   15SAPS   O22 1887   4.501   3.478   2.453
   15SAPS   C22 1888   4.409   3.368   2.654
   15SAPS   H2R 1889   4.390   3.444   2.733
   15SAPS   H2S 1890   4.326   3.294   2.647
   15SAPS    C3 1891   4.167   3.676   2.414
   15SAPS    HX 1892   4.070   3.641   2.456
   15SAPS    HY 1893   4.150   3.731   2.319
   15SAPS   O31 1894   4.234   3.764   2.511
   15SAPS   C31 1895   4.168   3.872   2.538
   15SAPS   O32 1896   4.068   3.905   2.475
   15SAPS   C32 1897   4.228   3.937   2.654
   15SAPS   H2X 1898   4.234   4.044   2.624
   15SAPS   H2Y 1899   4.332   3.903   2.674
   15SAPS   C23 1900   4.534   3.287   2.674
   15SAPS   H3R 1901   4.613   3.359   2.707
   15SAPS   H3S 1902   4.572   3.242   2.580
   15SAPS   C24 1903   4.525   3.161   2.767
   15SAPS   H4R 1904   4.629   3.122   2.768
   15SAPS   H4S 1905   4.462   3.087   2.714
   15SAPS   C25 1906   4.466   3.189   2.908
   15SAPS   H5R 1907   4.370   3.243   2.913
   15SAPS   C26 1908   4.519   3.173   3.026
   15SAPS   H6R 1909   4.448   3.185   3.110
   15SAPS   C27 1910   4.657   3.105   3.043
   15SAPS   H7R 1911   4.727   3.148   2.968
   15SAPS   H7S 1912   4.653   2.997   3.017
   15SAPS   C28 1913   4.729   3.111   3.178
   15SAPS   H8R 1914   4.752   3.012   3.221
   15SAPS   C29 1915   4.773   3.224   3.231
   15SAPS   H9R 1916   4.823   3.215   3.328
   15SAPS  C210 1917   4.752   3.368   3.179
   15SAPS  H10R 1918   4.658   3.418   3.211
   15SAPS  H10S 1919   4.741   3.363   3.069
   15SAPS  C211 1920   4.863   3.461   3.212
   15SAPS  H11R 1921   4.949   3.438   3.147
   15SAPS  C212 1922   4.873   3.547   3.314
   15SAPS  H12R 1923   4.969   3.598   3.334
   15SAPS  C213 1924   4.764   3.582   3.414
   15SAPS  H13R 1925   4.667   3.558   3.365
   15SAPS  H13S 1926   4.771   3.692   3.428
   15SAPS  C214 1927   4.759   3.509   3.542
   15SAPS  H14R 1928   4.717   3.408   3.532
   15SAPS  C215 1929   4.810   3.547   3.660
   15SAPS  H15R 1930   4.823   3.474   3.742
   15SAPS  C216 1931   4.883   3.682   3.675
   15SAPS  H16R 1932   4.854   3.735   3.768
   15SAPS  H16S 1933   4.865   3.755   3.593
   15SAPS  C217 1934   5.038   3.666   3.662
   15SAPS  H17R 1935   5.055   3.598   3.576
   15SAPS  H17S 1936   5.076   3.618   3.755
   15SAPS  C218 1937   5.109   3.798   3.636
   15SAPS  H18R 1938   5.084   3.875   3.712
   15SAPS  H18S 1939   5.072   3.838   3.539
   15SAPS  C219 1940   5.256   3.782   3.626
   15SAPS  H19R 1941   5.291   3.876   3.576
   15SAPS  H19S 1942   5.294   3.692   3.573
   15SAPS  C220 1943   5.323   3.754   3.759
   15SAPS  H20R 1944   5.432   3.734   3.762
   15SAPS  H20S 1945   5.271   3.667   3.805
   15SAPS  H20T 1946   5.314   3.842   3.826
   15SAPS   C33 1947   4.159   3.905   2.790
   15SAPS   H3X 1948   4.222   3.941   2.874
   15SAPS   H3Y 1949   4.149   3.796   2.808
   15SAPS   C34 1950   4.020   3.975   2.798
   15SAPS   H4X 1951   3.952   3.920   2.730
   15SAPS   H4Y 1952   4.032   4.080   2.762
   15SAPS   C35 1953   3.954   3.987   2.941
   15SAPS   H5X 1954   3.931   3.889   2.987
   15SAPS   H5Y 1955   3.848   4.018   2.922
   15SAPS   C36 1956   4.035   4.091   3.022
   15SAPS   H6X 1957   4.045   4.181   2.958
   15SAPS   H6Y 1958   4.139   4.051   3.029
   15SAPS   C37 1959   3.986   4.138   3.164
   15SAPS   H7X 1960   3.886   4.186   3.150
   15SAPS   H7Y 1961   4.056   4.209   3.212
   15SAPS   C38 1962   3.980   4.022   3.273
   15SAPS   H8X 1963   4.079   3.977   3.296
   15SAPS   H8Y 1964   3.919   3.943   3.223
   15SAPS   C39 1965   3.899   4.045   3.407
   15SAPS   H9X 1966   3.924   3.953   3.465
   15SAPS   H9Y 1967   3.790   4.053   3.388
   15SAPS  C310 1968   3.930   4.171   3.488
   15SAPS  H10X 1969   3.901   4.259   3.427
   15SAPS  H10Y 1970   4.041   4.184   3.492
   15SAPS  C311 1971   3.879   4.166   3.635
   15SAPS  H11X 1972   3.911   4.075   3.690
   15SAPS  H11Y 1973   3.768   4.160   3.636
   15SAPS  C312 1974   3.918   4.288   3.718
   15SAPS  H12X 1975   3.877   4.378   3.667
   15SAPS  H12Y 1976   4.026   4.312   3.711
   15SAPS  C313 1977   3.870   4.288   3.862
   15SAPS  H13X 1978   3.933   4.218   3.921
   15SAPS  H13Y 1979   3.767   4.249   3.849
   15SAPS  C314 1980   3.865   4.419   3.932
   15SAPS  H14X 1981   3.813   4.392   4.026
   15SAPS  H14Y 1982   3.795   4.492   3.886
   15SAPS  C315 1983   4.006   4.496   3.952
   15SAPS  H15X 1984   3.961   4.590   3.990
   15SAPS  H15Y 1985   4.051   4.506   3.851
   15SAPS  C316 1986   4.095   4.426   4.059
   15SAPS  H16X 1987   4.179   4.496   4.075
   15SAPS  H16Y 1988   4.127   4.326   4.023
   15SAPS  C317 1989   4.033   4.394   4.197
   15SAPS  H17X 1990   3.977   4.301   4.176
   15SAPS  H17Y 1991   3.988   4.494   4.219
   15SAPS  C318 1992   4.141   4.357   4.292
   15SAPS  H18X 1993   4.090   4.324   4.385
   15SAPS  H18Y 1994   4.199   4.451   4.303
   15SAPS  H18Z 1995   4.193   4.271   4.244
   16SAPS     N 1996   6.001   4.400   2.442
   16SAPS   HN1 1997   5.970   4.345   2.524
   16SAPS   HN2 1998   6.101   4.426   2.449
   16SAPS   HN3 1999   5.943   4.485   2.459
   16SAPS   C12 2000   5.965   4.331   2.317
   16SAPS  H12A 2001   5.865   4.292   2.324
   16SAPS   C13 2002   5.965   4.423   2.195
   16SAPS  O13A 2003   6.015   4.534   2.202
   16SAPS  O13B 2004   5.928   4.375   2.090
   16SAPS   C11 2005   6.048   4.198   2.282
   16SAPS  H11A 2006   6.156   4.225   2.286
   16SAPS  H11B 2007   6.030   4.162   2.179
   16SAPS     P 2008   6.074   3.960   2.355
   16SAPS   O13 2009   6.043   3.920   2.215
   16SAPS   O14 2010   6.216   3.972   2.395
   16SAPS   O12 2011   6.011   4.101   2.379
   16SAPS   O11 2012   6.005   3.861   2.457
   16SAPS    C1 2013   5.892   3.900   2.528
   16SAPS    HA 2014   5.819   3.951   2.462
   16SAPS    HB 2015   5.838   3.811   2.568
   16SAPS    C2 2016   5.915   4.004   2.644
   16SAPS    HS 2017   5.990   4.078   2.610
   16SAPS   O21 2018   5.954   3.927   2.759
   16SAPS   C21 2019   6.024   3.982   2.854
   16SAPS   O22 2020   6.079   4.090   2.847
   16SAPS   C22 2021   6.042   3.884   2.973
   16SAPS   H2R 2022   5.940   3.861   3.010
   16SAPS   H2S 2023   6.087   3.793   2.928
   16SAPS    C3 2024   5.788   4.078   2.675
   16SAPS    HX 2025   5.699   4.014   2.694
   16SAPS    HY 2026   5.750   4.143   2.594
   16SAPS   O31 2027   5.800   4.156   2.793
   16SAPS   C31 2028   5.852   4.277   2.770
   16SAPS   O32 2029   5.907   4.316   2.669
   16SAPS   C32 2030   5.853   4.352   2.906
   16SAPS   H2X 2031   5.909   4.286   2.977
   16SAPS   H2Y 2032   5.747   4.361   2.936
   16SAPS   C23 2033   6.126   3.941   3.092
   16SAPS   H3R 2034   6.219   3.987   3.053
   16SAPS   H3S 2035   6.144   3.855   3.161
   16SAPS   C24 2036   6.042   4.060   3.151
   16SAPS   H4R 2037   5.937   4.027   3.168
   16SAPS   H4S 2038   6.029   4.135   3.071
   16SAPS   C25 2039   6.096   4.129   3.274
   16SAPS   H5R 2040   6.204   4.113   3.283
   16SAPS   C26 2041   6.019   4.196   3.358
   16SAPS   H6R 2042   6.067   4.218   3.454
   16SAPS   C27 2043   5.873   4.221   3.345
   16SAPS   H7R 2044   5.811   4.144   3.294
   16SAPS   H7S 2045   5.865   4.313   3.282
   16SAPS   C28 2046   5.800   4.244   3.482
   16SAPS   H8R 2047   5.850   4.180   3.556
   16SAPS   C29 2048   5.711   4.337   3.522
   16SAPS   H9R 2049   5.686   4.338   3.629
   16SAPS  C210 2050   5.651   4.446   3.436
   16SAPS  H10R 2051   5.540   4.444   3.438
   16SAPS  H10S 2052   5.659   4.431   3.326
   16SAPS  C211 2053   5.698   4.580   3.488
   16SAPS  H11R 2054   5.805   4.600   3.473
   16SAPS  C212 2055   5.632   4.682   3.531
   16SAPS  H12R 2056   5.690   4.764   3.576
   16SAPS  C213 2057   5.483   4.697   3.557
   16SAPS  H13R 2058   5.443   4.657   3.461
   16SAPS  H13S 2059   5.447   4.800   3.540
   16SAPS  C214 2060   5.435   4.637   3.680
   16SAPS  H14R 2061   5.459   4.530   3.690
   16SAPS  C215 2062   5.378   4.704   3.780
   16SAPS  H15R 2063   5.330   4.641   3.856
   16SAPS  C216 2064   5.327   4.845   3.779
   16SAPS  H16R 2065   5.232   4.865   3.726
   16SAPS  H16S 2066   5.409   4.904   3.733
   16SAPS  C217 2067   5.323   4.912   3.915
   16SAPS  H17R 2068   5.243   4.869   3.979
   16SAPS  H17S 2069   5.298   5.017   3.892
   16SAPS  C218 2070   5.460   4.913   3.987
   16SAPS  H18R 2071   5.533   4.946   3.911
   16SAPS  H18S 2072   5.477   4.811   4.029
   16SAPS  C219 2073   5.463   4.996   4.112
   16SAPS  H19R 2074   5.375   4.981   4.178
   16SAPS  H19S 2075   5.468   5.102   4.077
   16SAPS  C220 2076   5.587   4.979   4.197
   16SAPS  H20R 2077   5.593   5.039   4.290
   16SAPS  H20S 2078   5.671   5.028   4.143
   16SAPS  H20T 2079   5.626   4.876   4.215
   16SAPS   C33 2080   5.916   4.492   2.899
   16SAPS   H3X 2081   5.865   4.566   2.835
   16SAPS   H3Y 2082   6.018   4.478   2.859
   16SAPS   C34 2083   5.931   4.547   3.043
   16SAPS   H4X 2084   6.006   4.622   3.010
   16SAPS   H4Y 2085   5.974   4.479   3.119
   16SAPS   C35 2086   5.796   4.619   3.083
   16SAPS   H5X 2087   5.814   4.649   3.188
   16SAPS   H5Y 2088   5.708   4.552   3.093
   16SAPS   C36 2089   5.752   4.750   3.019
   16SAPS   H6X 2090   5.689   4.732   2.929
   16SAPS   H6Y 2091   5.849   4.795   2.989
   16SAPS   C37 2092   5.668   4.843   3.104
   16SAPS   H7X 2093   5.653   4.934   3.042
   16SAPS   H7Y 2094   5.722   4.857   3.200
   16SAPS   C38 2095   5.535   4.782   3.152
   16SAPS   H8X 2096   5.554   4.697   3.221
   16SAPS   H8Y 2097   5.492   4.746   3.056
   16SAPS   C39 2098   5.449   4.882   3.228
   16SAPS   H9X 2099   5.466   4.979   3.176
   16SAPS   H9Y 2100   5.493   4.897   3.329
   16SAPS  C310 2101   5.298   4.845   3.245
   16SAPS  H10X 2102   5.283   4.758   3.312
   16SAPS  H10Y 2103   5.261   4.814   3.145
   16SAPS  C311 2104   5.207   4.951   3.307
   16SAPS  H11X 2105   5.227   5.039   3.242
   16SAPS  H11Y 2106   5.241   4.970   3.412
   16SAPS  C312 2107   5.064   4.917   3.305
   16SAPS  H12X 2108   5.048   4.823   3.363
   16SAPS  H12Y 2109   5.033   4.886   3.203
   16SAPS  C313 2110   4.963   5.020   3.355
   16SAPS  H13X 2111   4.867   5.017   3.300
   16SAPS  H13Y 2112   5.006   5.120   3.334
   16SAPS  C314 2113   4.912   5.012   3.497
   16SAPS  H14X 2114   4.883   4.907   3.518
   16SAPS  H14Y 2115   4.828   5.084   3.506
   16SAPS  C315 2116   5.011   5.071   3.600
   16SAPS  H15X 2117   5.038   5.176   3.576
   16SAPS  H15Y 2118   5.111   5.023   3.606
   16SAPS  C316 2119   4.941   5.066   3.735
   16SAPS  H16X 2120   4.839   5.102   3.714
   16SAPS  H16Y 2121   4.998   5.133   3.803
   16SAPS  C317 2122   4.934   4.927   3.796
   16SAPS  H17X 2123   5.009   4.862   3.746
   16SAPS  H17Y 2124   4.839   4.871   3.782
   16SAPS  C318 2125   4.947   4.925   3.944
   16SAPS  H18X 2126   4.928   4.831   3.999
   16SAPS  H18Y 2127   4.865   4.990   3.982
   16SAPS  H18Z 2128   5.041   4.970   3.982
   17SAPS     N 2129   1.906   1.779   1.492
   17SAPS   HN1 2130   1.852   1.833   1.422
   17SAPS   HN2 2131   1.976   1.842   1.536
   17SAPS   HN3 2132   1.952   1.697   1.448
   17SAPS   C12 2133   1.813   1.712   1.585
   17SAPS  H12A 2134   1.751   1.652   1.521
   17SAPS   C13 2135   1.856   1.603   1.684
   17SAPS  O13A 2136   1.969   1.554   1.670
   17SAPS  O13B 2137   1.765   1.538   1.742
   17SAPS   C11 2138   1.725   1.823   1.665
   17SAPS  H11A 2139   1.784   1.877   1.742
   17SAPS  H11B 2140   1.656   1.762   1.728
   17SAPS     P 2141   1.513   1.954   1.593
   17SAPS   O13 2142   1.458   2.027   1.481
   17SAPS   O14 2143   1.432   1.839   1.649
   17SAPS   O12 2144   1.665   1.907   1.566
   17SAPS   O11 2145   1.528   2.068   1.701
   17SAPS    C1 2146   1.417   2.102   1.781
   17SAPS    HA 2147   1.390   2.208   1.761
   17SAPS    HB 2148   1.329   2.035   1.772
   17SAPS    C2 2149   1.444   2.095   1.934
   17SAPS    HS 2150   1.519   2.174   1.957
   17SAPS   O21 2151   1.494   1.964   1.963
   17SAPS   C21 2152   1.609   1.956   2.021
   17SAPS   O22 2153   1.685   2.046   2.055
   17SAPS   C22 2154   1.649   1.807   2.039
   17SAPS   H2R 2155   1.587   1.753   2.113
   17SAPS   H2S 2156   1.617   1.766   1.941
   17SAPS    C3 2157   1.320   2.128   2.026
   17SAPS    HX 2158   1.232   2.081   1.979
   17SAPS    HY 2159   1.298   2.237   2.022
   17SAPS   O31 2160   1.336   2.093   2.160
   17SAPS   C31 2161   1.331   1.961   2.193
   17SAPS   O32 2162   1.293   1.870   2.120
   17SAPS   C32 2163   1.347   1.953   2.354
   17SAPS   H2X 2164   1.407   2.037   2.395
   17SAPS   H2Y 2165   1.388   1.853   2.380
   17SAPS   C23 2166   1.791   1.786   2.077
   17SAPS   H3R 2167   1.861   1.861   2.034
   17SAPS   H3S 2168   1.811   1.691   2.025
   17SAPS   C24 2169   1.813   1.780   2.236
   17SAPS   H4R 2170   1.744   1.700   2.271
   17SAPS   H4S 2171   1.788   1.883   2.269
   17SAPS   C25 2172   1.951   1.763   2.284
   17SAPS   H5R 2173   2.033   1.794   2.219
   17SAPS   C26 2174   1.989   1.724   2.407
   17SAPS   H6R 2175   2.099   1.713   2.416
   17SAPS   C27 2176   1.901   1.693   2.526
   17SAPS   H7R 2177   1.797   1.716   2.493
   17SAPS   H7S 2178   1.930   1.758   2.611
   17SAPS   C28 2179   1.923   1.545   2.549
   17SAPS   H8R 2180   1.885   1.474   2.475
   17SAPS   C29 2181   1.979   1.485   2.654
   17SAPS   H9R 2182   1.977   1.375   2.653
   17SAPS  C210 2183   2.048   1.543   2.773
   17SAPS  H10R 2184   2.027   1.484   2.864
   17SAPS  H10S 2185   2.003   1.643   2.788
   17SAPS  C211 2186   2.189   1.555   2.732
   17SAPS  H11R 2187   2.208   1.620   2.646
   17SAPS  C212 2188   2.294   1.501   2.811
   17SAPS  H12R 2189   2.401   1.515   2.790
   17SAPS  C213 2190   2.280   1.415   2.933
   17SAPS  H13R 2191   2.355   1.334   2.946
   17SAPS  H13S 2192   2.197   1.342   2.923
   17SAPS  C214 2193   2.250   1.496   3.060
   17SAPS  H14R 2194   2.245   1.606   3.048
   17SAPS  C215 2195   2.249   1.453   3.185
   17SAPS  H15R 2196   2.229   1.525   3.267
   17SAPS  C216 2197   2.240   1.309   3.225
   17SAPS  H16R 2198   2.334   1.261   3.259
   17SAPS  H16S 2199   2.220   1.239   3.141
   17SAPS  C217 2200   2.122   1.264   3.319
   17SAPS  H17R 2201   2.118   1.153   3.329
   17SAPS  H17S 2202   2.023   1.296   3.280
   17SAPS  C218 2203   2.129   1.331   3.460
   17SAPS  H18R 2204   2.116   1.440   3.444
   17SAPS  H18S 2205   2.230   1.315   3.504
   17SAPS  C219 2206   2.016   1.296   3.563
   17SAPS  H19R 2207   2.006   1.187   3.580
   17SAPS  H19S 2208   1.917   1.334   3.530
   17SAPS  C220 2209   2.044   1.361   3.696
   17SAPS  H20R 2210   1.980   1.312   3.772
   17SAPS  H20S 2211   2.027   1.470   3.684
   17SAPS  H20T 2212   2.152   1.361   3.720
   17SAPS   C33 2213   1.210   1.971   2.423
   17SAPS   H3X 2214   1.131   1.896   2.397
   17SAPS   H3Y 2215   1.167   2.070   2.395
   17SAPS   C34 2216   1.221   1.953   2.576
   17SAPS   H4X 2217   1.133   2.001   2.623
   17SAPS   H4Y 2218   1.322   1.978   2.616
   17SAPS   C35 2219   1.220   1.796   2.601
   17SAPS   H5X 2220   1.326   1.761   2.594
   17SAPS   H5Y 2221   1.161   1.750   2.518
   17SAPS   C36 2222   1.142   1.760   2.730
   17SAPS   H6X 2223   1.130   1.650   2.739
   17SAPS   H6Y 2224   1.040   1.804   2.717
   17SAPS   C37 2225   1.201   1.821   2.862
   17SAPS   H7X 2226   1.207   1.932   2.858
   17SAPS   H7Y 2227   1.309   1.798   2.875
   17SAPS   C38 2228   1.130   1.782   2.995
   17SAPS   H8X 2229   1.132   1.672   3.011
   17SAPS   H8Y 2230   1.022   1.804   2.986
   17SAPS   C39 2231   1.178   1.853   3.117
   17SAPS   H9X 2232   1.177   1.964   3.108
   17SAPS   H9Y 2233   1.286   1.828   3.124
   17SAPS  C310 2234   1.106   1.815   3.242
   17SAPS  H10X 2235   1.113   1.704   3.243
   17SAPS  H10Y 2236   1.002   1.855   3.247
   17SAPS  C311 2237   1.182   1.874   3.364
   17SAPS  H11X 2238   1.160   1.983   3.356
   17SAPS  H11Y 2239   1.289   1.854   3.339
   17SAPS  C312 2240   1.135   1.829   3.507
   17SAPS  H12X 2241   1.158   1.722   3.523
   17SAPS  H12Y 2242   1.026   1.851   3.515
   17SAPS  C313 2243   1.217   1.898   3.620
   17SAPS  H13X 2244   1.213   2.009   3.626
   17SAPS  H13Y 2245   1.322   1.878   3.588
   17SAPS  C314 2246   1.189   1.845   3.765
   17SAPS  H14X 2247   1.186   1.734   3.766
   17SAPS  H14Y 2248   1.095   1.880   3.812
   17SAPS  C315 2249   1.299   1.895   3.859
   17SAPS  H15X 2250   1.259   1.991   3.898
   17SAPS  H15Y 2251   1.397   1.905   3.808
   17SAPS  C316 2252   1.321   1.810   3.989
   17SAPS  H16X 2253   1.329   1.706   3.951
   17SAPS  H16Y 2254   1.229   1.820   4.051
   17SAPS  C317 2255   1.445   1.847   4.074
   17SAPS  H17X 2256   1.540   1.821   4.022
   17SAPS  H17Y 2257   1.454   1.783   4.165
   17SAPS  C318 2258   1.451   1.995   4.119
   17SAPS  H18X 2259   1.363   2.024   4.181
   17SAPS  H18Y 2260   1.448   2.068   4.036
   17SAPS  H18Z 2261   1.543   2.011   4.180
   18SAPS     N 2262   4.780   2.473   1.982
   18SAPS   HN1 2263   4.785   2.402   1.906
   18SAPS   HN2 2264   4.725   2.553   1.946
   18SAPS   HN3 2265   4.876   2.512   1.996
   18SAPS   C12 2266   4.705   2.417   2.098
   18SAPS  H12A 2267   4.608   2.398   2.054
   18SAPS   C13 2268   4.745   2.283   2.163
   18SAPS  O13A 2269   4.828   2.218   2.098
   18SAPS  O13B 2270   4.683   2.233   2.257
   18SAPS   C11 2271   4.678   2.518   2.218
   18SAPS  H11A 2272   4.765   2.519   2.287
   18SAPS  H11B 2273   4.592   2.475   2.274
   18SAPS     P 2274   4.574   2.737   2.272
   18SAPS   O13 2275   4.586   2.878   2.229
   18SAPS   O14 2276   4.437   2.686   2.268
   18SAPS   O12 2277   4.663   2.647   2.170
   18SAPS   O11 2278   4.641   2.712   2.408
   18SAPS    C1 2279   4.768   2.779   2.438
   18SAPS    HA 2280   4.842   2.738   2.367
   18SAPS    HB 2281   4.754   2.889   2.435
   18SAPS    C2 2282   4.824   2.742   2.573
   18SAPS    HS 2283   4.926   2.779   2.596
   18SAPS   O21 2284   4.799   2.604   2.604
   18SAPS   C21 2285   4.889   2.518   2.556
   18SAPS   O22 2286   4.983   2.546   2.485
   18SAPS   C22 2287   4.857   2.376   2.603
   18SAPS   H2R 2288   4.768   2.339   2.548
   18SAPS   H2S 2289   4.946   2.317   2.575
   18SAPS    C3 2290   4.741   2.815   2.680
   18SAPS    HX 2291   4.634   2.806   2.652
   18SAPS    HY 2292   4.768   2.923   2.679
   18SAPS   O31 2293   4.746   2.747   2.811
   18SAPS   C31 2294   4.861   2.740   2.876
   18SAPS   O32 2295   4.966   2.799   2.844
   18SAPS   C32 2296   4.846   2.657   3.011
   18SAPS   H2X 2297   4.948   2.651   3.056
   18SAPS   H2Y 2298   4.809   2.554   2.991
   18SAPS   C23 2299   4.842   2.360   2.754
   18SAPS   H3R 2300   4.767   2.433   2.792
   18SAPS   H3S 2301   4.941   2.382   2.799
   18SAPS   C24 2302   4.788   2.223   2.802
   18SAPS   H4R 2303   4.813   2.221   2.910
   18SAPS   H4S 2304   4.843   2.145   2.744
   18SAPS   C25 2305   4.642   2.194   2.797
   18SAPS   H5R 2306   4.605   2.137   2.710
   18SAPS   C26 2307   4.553   2.225   2.889
   18SAPS   H6R 2308   4.449   2.214   2.856
   18SAPS   C27 2309   4.569   2.323   3.013
   18SAPS   H7R 2310   4.494   2.406   3.010
   18SAPS   H7S 2311   4.671   2.366   3.011
   18SAPS   C28 2312   4.560   2.252   3.143
   18SAPS   H8R 2313   4.582   2.145   3.130
   18SAPS   C29 2314   4.524   2.300   3.258
   18SAPS   H9R 2315   4.527   2.229   3.342
   18SAPS  C210 2316   4.514   2.449   3.294
   18SAPS  H10R 2317   4.515   2.511   3.202
   18SAPS  H10S 2318   4.609   2.489   3.335
   18SAPS  C211 2319   4.389   2.470   3.375
   18SAPS  H11R 2320   4.295   2.444   3.325
   18SAPS  C212 2321   4.380   2.496   3.506
   18SAPS  H12R 2322   4.278   2.517   3.541
   18SAPS  C213 2323   4.494   2.524   3.599
   18SAPS  H13R 2324   4.444   2.575   3.684
   18SAPS  H13S 2325   4.551   2.613   3.564
   18SAPS  C214 2326   4.578   2.404   3.640
   18SAPS  H14R 2327   4.646   2.364   3.564
   18SAPS  C215 2328   4.586   2.350   3.766
   18SAPS  H15R 2329   4.656   2.271   3.797
   18SAPS  C216 2330   4.488   2.398   3.872
   18SAPS  H16R 2331   4.380   2.382   3.851
   18SAPS  H16S 2332   4.502   2.507   3.890
   18SAPS  C217 2333   4.502   2.330   4.010
   18SAPS  H17R 2334   4.495   2.220   4.004
   18SAPS  H17S 2335   4.417   2.374   4.066
   18SAPS  C218 2336   4.637   2.354   4.080
   18SAPS  H18R 2337   4.641   2.463   4.101
   18SAPS  H18S 2338   4.716   2.336   4.005
   18SAPS  C219 2339   4.657   2.263   4.200
   18SAPS  H19R 2340   4.639   2.158   4.167
   18SAPS  H19S 2341   4.578   2.280   4.277
   18SAPS  C220 2342   4.791   2.283   4.271
   18SAPS  H20R 2343   4.874   2.252   4.205
   18SAPS  H20S 2344   4.793   2.219   4.362
   18SAPS  H20T 2345   4.807   2.391   4.290
   18SAPS   C33 2346   4.749   2.724   3.116
   18SAPS   H3X 2347   4.669   2.654   3.145
   18SAPS   H3Y 2348   4.693   2.802   3.060
   18SAPS   C34 2349   4.820   2.780   3.240
   18SAPS   H4X 2350   4.740   2.831   3.298
   18SAPS   H4Y 2351   4.894   2.852   3.198
   18SAPS   C35 2352   4.891   2.676   3.322
   18SAPS   H5X 2353   4.992   2.660   3.280
   18SAPS   H5Y 2354   4.823   2.589   3.314
   18SAPS   C36 2355   4.905   2.711   3.468
   18SAPS   H6X 2356   4.813   2.741   3.523
   18SAPS   H6Y 2357   4.979   2.794   3.458
   18SAPS   C37 2358   4.972   2.608   3.562
   18SAPS   H7X 2359   5.059   2.560   3.511
   18SAPS   H7Y 2360   4.906   2.521   3.580
   18SAPS   C38 2361   5.016   2.677   3.696
   18SAPS   H8X 2362   4.922   2.726   3.729
   18SAPS   H8Y 2363   5.100   2.748   3.680
   18SAPS   C39 2364   5.062   2.584   3.810
   18SAPS   H9X 2365   5.150   2.526   3.775
   18SAPS   H9Y 2366   4.979   2.512   3.828
   18SAPS  C310 2367   5.110   2.656   3.936
   18SAPS  H10X 2368   5.017   2.714   3.955
   18SAPS  H10Y 2369   5.197   2.725   3.930
   18SAPS  C311 2370   5.128   2.574   4.064
   18SAPS  H11X 2371   5.207   2.498   4.046
   18SAPS  H11Y 2372   5.040   2.510   4.083
   18SAPS  C312 2373   5.182   2.653   4.186
   18SAPS  H12X 2374   5.096   2.703   4.235
   18SAPS  H12Y 2375   5.245   2.737   4.151
   18SAPS  C313 2376   5.251   2.570   4.294
   18SAPS  H13X 2377   5.306   2.640   4.361
   18SAPS  H13Y 2378   5.328   2.512   4.240
   18SAPS  C314 2379   5.157   2.481   4.372
   18SAPS  H14X 2380   5.100   2.410   4.307
   18SAPS  H14Y 2381   5.084   2.546   4.425
   18SAPS  C315 2382   5.228   2.393   4.481
   18SAPS  H15X 2383   5.310   2.450   4.529
   18SAPS  H15Y 2384   5.297   2.327   4.425
   18SAPS  C316 2385   5.138   2.318   4.576
   18SAPS  H16X 2386   5.077   2.236   4.532
   18SAPS  H16Y 2387   5.062   2.383   4.623
   18SAPS  C317 2388   5.223   2.247   4.689
   18SAPS  H17X 2389   5.297   2.184   4.634
   18SAPS  H17Y 2390   5.150   2.186   4.746
   18SAPS  C318 2391   5.284   2.349   4.792
   18SAPS  H18X 2392   5.196   2.409   4.821
   18SAPS  H18Y 2393   5.362   2.408   4.740
   18SAPS  H18Z 2394   5.333   2.298   4.878
   19SAPS     N 2395   4.510   4.981   2.128
   19SAPS   HN1 2396   4.590   4.948   2.185
   19SAPS   HN2 2397   4.431   4.918   2.155
   19SAPS   HN3 2398   4.531   4.967   2.027
   19SAPS   C12 2399   4.494   5.125   2.145
   19SAPS  H12A 2400   4.458   5.142   2.245
   19SAPS   C13 2401   4.620   5.209   2.135
   19SAPS  O13A 2402   4.729   5.152   2.125
   19SAPS  O13B 2403   4.618   5.334   2.161
   19SAPS   C11 2404   4.390   5.183   2.031
   19SAPS  H11A 2405   4.441   5.178   1.933
   19SAPS  H11B 2406   4.364   5.288   2.058
   19SAPS     P 2407   4.134   5.145   2.061
   19SAPS   O13 2408   4.107   5.266   1.983
   19SAPS   O14 2409   4.046   5.023   2.062
   19SAPS   O12 2410   4.279   5.096   2.011
   19SAPS   O11 2411   4.171   5.184   2.206
   19SAPS    C1 2412   4.199   5.077   2.297
   19SAPS    HA 2413   4.268   5.001   2.256
   19SAPS    HB 2414   4.250   5.120   2.386
   19SAPS    C2 2415   4.073   5.006   2.365
   19SAPS    HS 2416   4.029   4.942   2.285
   19SAPS   O21 2417   3.989   5.105   2.398
   19SAPS   C21 2418   3.867   5.062   2.425
   19SAPS   O22 2419   3.835   4.944   2.432
   19SAPS   C22 2420   3.774   5.184   2.440
   19SAPS   H2R 2421   3.769   5.241   2.344
   19SAPS   H2S 2422   3.671   5.151   2.467
   19SAPS    C3 2423   4.120   4.909   2.477
   19SAPS    HX 2424   4.210   4.863   2.431
   19SAPS    HY 2425   4.035   4.840   2.491
   19SAPS   O31 2426   4.155   4.974   2.602
   19SAPS   C31 2427   4.171   4.886   2.701
   19SAPS   O32 2428   4.169   4.763   2.682
   19SAPS   C32 2429   4.166   4.971   2.833
   19SAPS   H2X 2430   4.093   5.054   2.819
   19SAPS   H2Y 2431   4.268   5.012   2.845
   19SAPS   C23 2432   3.809   5.288   2.547
   19SAPS   H3R 2433   3.797   5.390   2.504
   19SAPS   H3S 2434   3.919   5.288   2.562
   19SAPS   C24 2435   3.722   5.283   2.667
   19SAPS   H4R 2436   3.613   5.288   2.644
   19SAPS   H4S 2437   3.731   5.377   2.725
   19SAPS   C25 2438   3.758   5.161   2.743
   19SAPS   H5R 2439   3.738   5.074   2.678
   19SAPS   C26 2440   3.813   5.152   2.865
   19SAPS   H6R 2441   3.846   5.053   2.900
   19SAPS   C27 2442   3.833   5.265   2.967
   19SAPS   H7R 2443   3.858   5.361   2.917
   19SAPS   H7S 2444   3.927   5.246   3.023
   19SAPS   C28 2445   3.704   5.272   3.053
   19SAPS   H8R 2446   3.605   5.265   3.006
   19SAPS   C29 2447   3.702   5.301   3.188
   19SAPS   H9R 2448   3.605   5.306   3.239
   19SAPS  C210 2449   3.822   5.317   3.276
   19SAPS  H10R 2450   3.819   5.417   3.325
   19SAPS  H10S 2451   3.917   5.327   3.220
   19SAPS  C211 2452   3.839   5.207   3.378
   19SAPS  H11R 2453   3.893   5.119   3.340
   19SAPS  C212 2454   3.796   5.196   3.506
   19SAPS  H12R 2455   3.819   5.107   3.567
   19SAPS  C213 2456   3.723   5.304   3.578
   19SAPS  H13R 2457   3.784   5.393   3.549
   19SAPS  H13S 2458   3.756   5.294   3.684
   19SAPS  C214 2459   3.577   5.314   3.546
   19SAPS  H14R 2460   3.551   5.251   3.459
   19SAPS  C215 2461   3.492   5.398   3.602
   19SAPS  H15R 2462   3.392   5.408   3.556
   19SAPS  C216 2463   3.516   5.483   3.721
   19SAPS  H16R 2464   3.509   5.591   3.693
   19SAPS  H16S 2465   3.610   5.466   3.778
   19SAPS  C217 2466   3.409   5.443   3.830
   19SAPS  H17R 2467   3.441   5.349   3.879
   19SAPS  H17S 2468   3.311   5.440   3.778
   19SAPS  C218 2469   3.391   5.548   3.944
   19SAPS  H18R 2470   3.376   5.650   3.903
   19SAPS  H18S 2471   3.493   5.563   3.985
   19SAPS  C219 2472   3.287   5.514   4.051
   19SAPS  H19R 2473   3.321   5.421   4.102
   19SAPS  H19S 2474   3.193   5.497   3.993
   19SAPS  C220 2475   3.249   5.618   4.149
   19SAPS  H20R 2476   3.221   5.711   4.095
   19SAPS  H20S 2477   3.338   5.640   4.212
   19SAPS  H20T 2478   3.168   5.596   4.222
   19SAPS   C33 2479   4.128   4.884   2.961
   19SAPS   H3X 2480   4.204   4.804   2.967
   19SAPS   H3Y 2481   4.030   4.833   2.952
   19SAPS   C34 2482   4.135   4.969   3.091
   19SAPS   H4X 2483   4.045   5.034   3.099
   19SAPS   H4Y 2484   4.225   5.034   3.085
   19SAPS   C35 2485   4.168   4.891   3.218
   19SAPS   H5X 2486   4.267   4.839   3.213
   19SAPS   H5Y 2487   4.106   4.803   3.243
   19SAPS   C36 2488   4.187   4.990   3.336
   19SAPS   H6X 2489   4.113   5.070   3.313
   19SAPS   H6Y 2490   4.288   5.035   3.327
   19SAPS   C37 2491   4.155   4.919   3.468
   19SAPS   H7X 2492   4.225   4.835   3.489
   19SAPS   H7Y 2493   4.056   4.875   3.447
   19SAPS   C38 2494   4.157   5.000   3.598
   19SAPS   H8X 2495   4.081   5.081   3.607
   19SAPS   H8Y 2496   4.246   5.064   3.618
   19SAPS   C39 2497   4.130   4.906   3.720
   19SAPS   H9X 2498   4.210   4.834   3.747
   19SAPS   H9Y 2499   4.033   4.851   3.722
   19SAPS  C310 2500   4.119   5.004   3.842
   19SAPS  H10X 2501   4.066   5.099   3.819
   19SAPS  H10Y 2502   4.225   5.036   3.844
   19SAPS  C311 2503   4.075   4.937   3.973
   19SAPS  H11X 2504   3.986   4.873   3.953
   19SAPS  H11Y 2505   4.026   5.018   4.032
   19SAPS  C312 2506   4.189   4.871   4.056
   19SAPS  H12X 2507   4.277   4.935   4.037
   19SAPS  H12Y 2508   4.201   4.772   4.006
   19SAPS  C313 2509   4.156   4.851   4.207
   19SAPS  H13X 2510   4.254   4.812   4.241
   19SAPS  H13Y 2511   4.082   4.769   4.224
   19SAPS  C314 2512   4.117   4.976   4.287
   19SAPS  H14X 2513   4.136   4.949   4.393
   19SAPS  H14Y 2514   4.010   5.005   4.283
   19SAPS  C315 2515   4.198   5.099   4.252
   19SAPS  H15X 2516   4.145   5.186   4.295
   19SAPS  H15Y 2517   4.201   5.121   4.144
   19SAPS  C316 2518   4.342   5.102   4.304
   19SAPS  H16X 2519   4.413   5.041   4.243
   19SAPS  H16Y 2520   4.348   5.064   4.408
   19SAPS  C317 2521   4.395   5.250   4.302
   19SAPS  H17X 2522   4.343   5.304   4.384
   19SAPS  H17Y 2523   4.364   5.288   4.202
   19SAPS  C318 2524   4.544   5.268   4.325
   19SAPS  H18X 2525   4.603   5.205   4.255
   19SAPS  H18Y 2526   4.559   5.234   4.430
   19SAPS  H18Z 2527   4.572   5.374   4.306
   20SAPS     N 2528   4.801   5.514   2.217
   20SAPS   HN1 2529   4.751   5.583   2.277
   20SAPS   HN2 2530   4.744   5.431   2.193
   20SAPS   HN3 2531   4.894   5.490   2.258
   20SAPS   C12 2532   4.834   5.600   2.098
   20SAPS  H12A 2533   4.897   5.682   2.129
   20SAPS   C13 2534   4.901   5.525   1.984
   20SAPS  O13A 2535   4.960   5.413   1.998
   20SAPS  O13B 2536   4.900   5.577   1.869
   20SAPS   C11 2537   4.708   5.673   2.058
   20SAPS  H11A 2538   4.642   5.587   2.033
   20SAPS  H11B 2539   4.729   5.739   1.971
   20SAPS     P 2540   4.548   5.856   2.146
   20SAPS   O13 2541   4.608   5.991   2.141
   20SAPS   O14 2542   4.478   5.812   2.021
   20SAPS   O12 2543   4.660   5.751   2.172
   20SAPS   O11 2544   4.448   5.854   2.263
   20SAPS    C1 2545   4.440   5.757   2.365
   20SAPS    HA 2546   4.337   5.716   2.352
   20SAPS    HB 2547   4.508   5.672   2.346
   20SAPS    C2 2548   4.479   5.828   2.501
   20SAPS    HS 2549   4.420   5.922   2.506
   20SAPS   O21 2550   4.620   5.859   2.486
   20SAPS   C21 2551   4.656   5.988   2.522
   20SAPS   O22 2552   4.577   6.067   2.566
   20SAPS   C22 2553   4.800   6.011   2.491
   20SAPS   H2R 2554   4.865   5.932   2.534
   20SAPS   H2S 2555   4.812   5.997   2.382
   20SAPS    C3 2556   4.450   5.748   2.629
   20SAPS    HX 2557   4.470   5.804   2.723
   20SAPS    HY 2558   4.520   5.661   2.632
   20SAPS   O31 2559   4.319   5.694   2.628
   20SAPS   C31 2560   4.219   5.777   2.668
   20SAPS   O32 2561   4.240   5.884   2.717
   20SAPS   C32 2562   4.085   5.710   2.666
   20SAPS   H2X 2563   4.056   5.707   2.558
   20SAPS   H2Y 2564   4.013   5.779   2.715
   20SAPS   C23 2565   4.850   6.152   2.541
   20SAPS   H3R 2566   4.799   6.176   2.637
   20SAPS   H3S 2567   4.808   6.235   2.479
   20SAPS   C24 2568   4.997   6.150   2.563
   20SAPS   H4R 2569   5.035   6.114   2.465
   20SAPS   H4S 2570   5.040   6.077   2.635
   20SAPS   C25 2571   5.040   6.290   2.596
   20SAPS   H5R 2572   5.069   6.350   2.508
   20SAPS   C26 2573   5.022   6.352   2.709
   20SAPS   H6R 2574   5.079   6.445   2.724
   20SAPS   C27 2575   4.976   6.280   2.839
   20SAPS   H7R 2576   5.044   6.295   2.926
   20SAPS   H7S 2577   4.979   6.169   2.835
   20SAPS   C28 2578   4.835   6.322   2.872
   20SAPS   H8R 2579   4.757   6.309   2.796
   20SAPS   C29 2580   4.791   6.369   2.993
   20SAPS   H9R 2581   4.683   6.383   3.008
   20SAPS  C210 2582   4.886   6.384   3.112
   20SAPS  H10R 2583   4.832   6.457   3.177
   20SAPS  H10S 2584   4.974   6.432   3.063
   20SAPS  C211 2585   4.920   6.262   3.192
   20SAPS  H11R 2586   4.872   6.170   3.154
   20SAPS  C212 2587   4.988   6.264   3.307
   20SAPS  H12R 2588   5.017   6.172   3.361
   20SAPS  C213 2589   5.053   6.376   3.376
   20SAPS  H13R 2590   5.063   6.347   3.483
   20SAPS  H13S 2591   4.992   6.468   3.387
   20SAPS  C214 2592   5.193   6.408   3.317
   20SAPS  H14R 2593   5.195   6.430   3.210
   20SAPS  C215 2594   5.312   6.401   3.381
   20SAPS  H15R 2595   5.406   6.420   3.328
   20SAPS  C216 2596   5.333   6.372   3.529
   20SAPS  H16R 2597   5.432   6.324   3.544
   20SAPS  H16S 2598   5.256   6.299   3.561
   20SAPS  C217 2599   5.326   6.507   3.608
   20SAPS  H17R 2600   5.236   6.562   3.572
   20SAPS  H17S 2601   5.407   6.573   3.571
   20SAPS  C218 2602   5.315   6.493   3.758
   20SAPS  H18R 2603   5.401   6.436   3.800
   20SAPS  H18S 2604   5.219   6.441   3.780
   20SAPS  C219 2605   5.303   6.629   3.826
   20SAPS  H19R 2606   5.213   6.678   3.783
   20SAPS  H19S 2607   5.391   6.693   3.804
   20SAPS  C220 2608   5.283   6.630   3.975
   20SAPS  H20R 2609   5.360   6.568   4.026
   20SAPS  H20S 2610   5.184   6.584   3.996
   20SAPS  H20T 2611   5.291   6.734   4.013
   20SAPS   C33 2612   4.078   5.574   2.737
   20SAPS   H3X 2613   4.166   5.515   2.705
   20SAPS   H3Y 2614   3.980   5.529   2.712
   20SAPS   C34 2615   4.096   5.581   2.896
   20SAPS   H4X 2616   4.194   5.629   2.914
   20SAPS   H4Y 2617   4.091   5.483   2.948
   20SAPS   C35 2618   3.990   5.677   2.951
   20SAPS   H5X 2619   3.890   5.654   2.907
   20SAPS   H5Y 2620   4.008   5.780   2.913
   20SAPS   C36 2621   3.988   5.678   3.106
   20SAPS   H6X 2622   4.076   5.726   3.153
   20SAPS   H6Y 2623   3.979   5.572   3.136
   20SAPS   C37 2624   3.872   5.759   3.156
   20SAPS   H7X 2625   3.772   5.714   3.137
   20SAPS   H7Y 2626   3.878   5.854   3.100
   20SAPS   C38 2627   3.865   5.807   3.304
   20SAPS   H8X 2628   3.791   5.889   3.294
   20SAPS   H8Y 2629   3.962   5.852   3.333
   20SAPS   C39 2630   3.826   5.696   3.391
   20SAPS   H9X 2631   3.912   5.627   3.402
   20SAPS   H9Y 2632   3.743   5.632   3.353
   20SAPS  C310 2633   3.782   5.741   3.533
   20SAPS  H10X 2634   3.749   5.655   3.593
   20SAPS  H10Y 2635   3.695   5.810   3.526
   20SAPS  C311 2636   3.885   5.831   3.596
   20SAPS  H11X 2637   3.911   5.923   3.540
   20SAPS  H11Y 2638   3.978   5.770   3.598
   20SAPS  C312 2639   3.859   5.880   3.744
   20SAPS  H12X 2640   3.760   5.925   3.721
   20SAPS  H12Y 2641   3.935   5.957   3.768
   20SAPS  C313 2642   3.839   5.760   3.843
   20SAPS  H13X 2643   3.894   5.665   3.821
   20SAPS  H13Y 2644   3.732   5.731   3.848
   20SAPS  C314 2645   3.876   5.805   3.983
   20SAPS  H14X 2646   3.981   5.837   3.998
   20SAPS  H14Y 2647   3.861   5.716   4.047
   20SAPS  C315 2648   3.781   5.914   4.033
   20SAPS  H15X 2649   3.680   5.876   4.006
   20SAPS  H15Y 2650   3.798   6.010   3.981
   20SAPS  C316 2651   3.785   5.941   4.190
   20SAPS  H16X 2652   3.733   6.034   4.220
   20SAPS  H16Y 2653   3.893   5.955   4.208
   20SAPS  C317 2654   3.735   5.821   4.278
   20SAPS  H17X 2655   3.788   5.839   4.374
   20SAPS  H17Y 2656   3.782   5.725   4.250
   20SAPS  C318 2657   3.586   5.804   4.305
   20SAPS  H18X 2658   3.524   5.789   4.214
   20SAPS  H18Y 2659   3.541   5.889   4.361
   20SAPS  H18Z 2660   3.572   5.709   4.361
   21CHL1    C3 2661   1.691   3.670   5.981
   21CHL1    H3 2662   1.781   3.606   5.969
   21CHL1    O3 2663   1.650   3.656   6.120
   21CHL1   H3' 2664   1.563   3.696   6.132
   21CHL1    C4 2665   1.740   3.817   5.960
   21CHL1   H4A 2666   1.659   3.887   5.986
   21CHL1   H4B 2667   1.830   3.838   6.021
   21CHL1    C5 2668   1.778   3.832   5.813
   21CHL1    C6 2669   1.905   3.871   5.775
   21CHL1    H6 2670   1.976   3.894   5.856
   21CHL1    C7 2671   1.950   3.899   5.635
   21CHL1   H7A 2672   2.017   3.988   5.631
   21CHL1   H7B 2673   2.018   3.814   5.617
   21CHL1    C8 2674   1.834   3.906   5.532
   21CHL1    H8 2675   1.784   4.004   5.548
   21CHL1   C14 2676   1.884   3.897   5.393
   21CHL1   H14 2677   1.924   3.794   5.396
   21CHL1   C15 2678   2.003   3.992   5.355
   21CHL1  H15A 2679   1.980   4.095   5.387
   21CHL1  H15B 2680   2.105   3.960   5.387
   21CHL1   C16 2681   2.003   3.971   5.200
   21CHL1  H16A 2682   2.020   4.072   5.157
   21CHL1  H16B 2683   2.077   3.894   5.171
   21CHL1   C17 2684   1.867   3.912   5.155
   21CHL1   H17 2685   1.876   3.804   5.133
   21CHL1   C13 2686   1.780   3.919   5.278
   21CHL1   C18 2687   1.727   4.070   5.287
   21CHL1  H18A 2688   1.637   4.085   5.223
   21CHL1  H18B 2689   1.697   4.094   5.392
   21CHL1  H18C 2690   1.808   4.138   5.251
   21CHL1   C12 2691   1.677   3.810   5.305
   21CHL1  H12A 2692   1.598   3.805   5.226
   21CHL1  H12B 2693   1.733   3.714   5.297
   21CHL1   C11 2694   1.606   3.816   5.444
   21CHL1  H11A 2695   1.526   3.891   5.455
   21CHL1  H11B 2696   1.549   3.720   5.441
   21CHL1    C9 2697   1.723   3.811   5.556
   21CHL1    H9 2698   1.776   3.714   5.543
   21CHL1   C10 2699   1.672   3.789   5.707
   21CHL1   C19 2700   1.553   3.888   5.726
   21CHL1  H19A 2701   1.577   3.991   5.692
   21CHL1  H19B 2702   1.463   3.854   5.672
   21CHL1  H19C 2703   1.535   3.888   5.836
   21CHL1    C1 2704   1.641   3.642   5.735
   21CHL1   H1A 2705   1.555   3.610   5.672
   21CHL1   H1B 2706   1.723   3.571   5.711
   21CHL1    C2 2707   1.588   3.626   5.878
   21CHL1   H2A 2708   1.554   3.520   5.886
   21CHL1   H2B 2709   1.497   3.680   5.910
   21CHL1   C20 2710   1.812   3.979   5.023
   21CHL1   H20 2711   1.803   4.089   5.035
   21CHL1   C21 2712   1.679   3.910   4.978
   21CHL1  H21A 2713   1.592   3.948   5.036
   21CHL1  H21B 2714   1.688   3.800   4.991
   21CHL1  H21C 2715   1.658   3.919   4.869
   21CHL1   C22 2716   1.923   3.975   4.911
   21CHL1  H22A 2717   2.017   4.007   4.960
   21CHL1  H22B 2718   1.934   3.867   4.887
   21CHL1   C23 2719   1.894   4.063   4.792
   21CHL1  H23A 2720   1.806   4.020   4.739
   21CHL1  H23B 2721   1.881   4.170   4.817
   21CHL1   C24 2722   2.015   4.060   4.696
   21CHL1  H24A 2723   2.111   4.085   4.746
   21CHL1  H24B 2724   2.032   3.957   4.659
   21CHL1   C25 2725   2.005   4.171   4.581
   21CHL1   H25 2726   1.983   4.265   4.636
   21CHL1   C26 2727   2.136   4.195   4.494
   21CHL1  H26A 2728   2.223   4.189   4.563
   21CHL1  H26B 2729   2.142   4.119   4.413
   21CHL1  H26C 2730   2.139   4.293   4.442
   21CHL1   C27 2731   1.885   4.136   4.492
   21CHL1  H27A 2732   1.793   4.176   4.539
   21CHL1  H27B 2733   1.910   4.189   4.398
   21CHL1  H27C 2734   1.883   4.031   4.456
   22CHL1    C3 2735   2.213   2.078   5.923
   22CHL1    H3 2736   2.299   2.145   5.899
   22CHL1    O3 2737   2.214   2.044   6.061
   22CHL1   H3' 2738   2.272   1.968   6.072
   22CHL1    C4 2739   2.075   2.131   5.898
   22CHL1   H4A 2740   1.996   2.062   5.936
   22CHL1   H4B 2741   2.064   2.229   5.949
   22CHL1    C5 2742   2.041   2.149   5.752
   22CHL1    C6 2743   1.999   2.271   5.710
   22CHL1    H6 2744   1.991   2.357   5.779
   22CHL1    C7 2745   1.953   2.305   5.573
   22CHL1   H7A 2746   1.848   2.335   5.591
   22CHL1   H7B 2747   2.006   2.390   5.526
   22CHL1    C8 2748   1.958   2.189   5.468
   22CHL1    H8 2749   1.860   2.137   5.474
   22CHL1   C14 2750   1.984   2.225   5.321
   22CHL1   H14 2751   2.091   2.250   5.310
   22CHL1   C15 2752   1.908   2.349   5.263
   22CHL1  H15A 2753   1.798   2.338   5.275
   22CHL1  H15B 2754   1.942   2.432   5.328
   22CHL1   C16 2755   1.939   2.356   5.117
   22CHL1  H16A 2756   1.849   2.375   5.055
   22CHL1  H16B 2757   2.021   2.428   5.095
   22CHL1   C17 2758   1.991   2.212   5.090
   22CHL1   H17 2759   2.101   2.221   5.099
   22CHL1   C13 2760   1.963   2.120   5.215
   22CHL1   C18 2761   1.817   2.075   5.212
   22CHL1  H18A 2762   1.788   1.986   5.153
   22CHL1  H18B 2763   1.778   2.045   5.312
   22CHL1  H18C 2764   1.746   2.147   5.165
   22CHL1   C12 2765   2.060   2.006   5.256
   22CHL1  H12A 2766   2.048   1.919   5.188
   22CHL1  H12B 2767   2.160   2.052   5.250
   22CHL1   C11 2768   2.044   1.957   5.403
   22CHL1  H11A 2769   1.942   1.914   5.416
   22CHL1  H11B 2770   2.125   1.885   5.427
   22CHL1    C9 2771   2.060   2.075   5.506
   22CHL1    H9 2772   2.161   2.121   5.496
   22CHL1   C10 2773   2.062   2.031   5.659
   22CHL1   C19 2774   1.946   1.928   5.682
   22CHL1  H19A 2775   1.960   1.840   5.615
   22CHL1  H19B 2776   1.933   1.889   5.785
   22CHL1  H19C 2777   1.851   1.984   5.668
   22CHL1    C1 2778   2.197   1.955   5.687
   22CHL1   H1A 2779   2.208   1.853   5.644
   22CHL1   H1B 2780   2.282   2.016   5.648
   22CHL1    C2 2781   2.231   1.948   5.842
   22CHL1   H2A 2782   2.339   1.923   5.851
   22CHL1   H2B 2783   2.165   1.873   5.891
   22CHL1   C20 2784   1.947   2.165   4.948
   22CHL1   H20 2785   1.845   2.121   4.946
   22CHL1   C21 2786   2.047   2.050   4.911
   22CHL1  H21A 2787   2.035   1.964   4.981
   22CHL1  H21B 2788   2.154   2.075   4.923
   22CHL1  H21C 2789   2.038   2.024   4.803
   22CHL1   C22 2790   1.953   2.278   4.837
   22CHL1  H22A 2791   1.877   2.357   4.853
   22CHL1  H22B 2792   2.059   2.313   4.838
   22CHL1   C23 2793   1.942   2.234   4.684
   22CHL1  H23A 2794   1.931   2.324   4.619
   22CHL1  H23B 2795   2.035   2.189   4.645
   22CHL1   C24 2796   1.818   2.147   4.653
   22CHL1  H24A 2797   1.810   2.053   4.712
   22CHL1  H24B 2798   1.730   2.213   4.669
   22CHL1   C25 2799   1.812   2.119   4.501
   22CHL1   H25 2800   1.832   2.202   4.430
   22CHL1   C26 2801   1.903   2.005   4.456
   22CHL1  H26A 2802   1.901   1.996   4.346
   22CHL1  H26B 2803   2.003   2.042   4.487
   22CHL1  H26C 2804   1.879   1.909   4.506
   22CHL1   C27 2805   1.675   2.063   4.475
   22CHL1  H27A 2806   1.658   2.021   4.373
   22CHL1  H27B 2807   1.651   1.983   4.548
   22CHL1  H27C 2808   1.594   2.139   4.480
   23CHL1    C3 2809   1.030   3.593   5.947
   23CHL1    H3 2810   0.959   3.676   5.926
   23CHL1    O3 2811   1.029   3.550   6.080
   23CHL1   H3' 2812   1.115   3.509   6.098
   23CHL1    C4 2813   0.996   3.478   5.856
   23CHL1   H4A 2814   1.063   3.392   5.877
   23CHL1   H4B 2815   0.895   3.443   5.885
   23CHL1    C5 2816   1.012   3.520   5.711
   23CHL1    C6 2817   0.906   3.503   5.635
   23CHL1    H6 2818   0.813   3.463   5.678
   23CHL1    C7 2819   0.915   3.515   5.484
   23CHL1   H7A 2820   0.873   3.429   5.428
   23CHL1   H7B 2821   0.847   3.599   5.461
   23CHL1    C8 2822   1.054   3.536   5.426
   23CHL1    H8 2823   1.103   3.436   5.428
   23CHL1   C14 2824   1.052   3.606   5.286
   23CHL1   H14 2825   1.012   3.709   5.292
   23CHL1   C15 2826   0.962   3.539   5.180
   23CHL1  H15A 2827   0.966   3.428   5.171
   23CHL1  H15B 2828   0.856   3.572   5.188
   23CHL1   C16 2829   1.027   3.590   5.049
   23CHL1  H16A 2830   1.057   3.509   4.979
   23CHL1  H16B 2831   0.943   3.646   5.003
   23CHL1   C17 2832   1.153   3.677   5.079
   23CHL1   H17 2833   1.105   3.777   5.085
   23CHL1   C13 2834   1.192   3.617   5.216
   23CHL1   C18 2835   1.259   3.480   5.187
   23CHL1  H18A 2836   1.364   3.490   5.154
   23CHL1  H18B 2837   1.257   3.418   5.280
   23CHL1  H18C 2838   1.217   3.411   5.111
   23CHL1   C12 2839   1.272   3.699   5.306
   23CHL1  H12A 2840   1.372   3.708   5.260
   23CHL1  H12B 2841   1.224   3.799   5.309
   23CHL1   C11 2842   1.276   3.632   5.448
   23CHL1  H11A 2843   1.331   3.537   5.439
   23CHL1  H11B 2844   1.324   3.713   5.508
   23CHL1    C9 2845   1.140   3.618   5.519
   23CHL1    H9 2846   1.088   3.715   5.522
   23CHL1   C10 2847   1.150   3.564   5.664
   23CHL1   C19 2848   1.243   3.445   5.678
   23CHL1  H19A 2849   1.237   3.383   5.586
   23CHL1  H19B 2850   1.348   3.480   5.683
   23CHL1  H19C 2851   1.239   3.398   5.779
   23CHL1    C1 2852   1.196   3.682   5.766
   23CHL1   H1A 2853   1.294   3.718   5.728
   23CHL1   H1B 2854   1.120   3.759   5.740
   23CHL1    C2 2855   1.174   3.654   5.920
   23CHL1   H2A 2856   1.187   3.747   5.980
   23CHL1   H2B 2857   1.258   3.585   5.943
   23CHL1   C20 2858   1.249   3.680   4.964
   23CHL1   H20 2859   1.299   3.581   4.952
   23CHL1   C21 2860   1.339   3.802   4.989
   23CHL1  H21A 2861   1.276   3.893   5.002
   23CHL1  H21B 2862   1.401   3.819   4.898
   23CHL1  H21C 2863   1.404   3.783   5.077
   23CHL1   C22 2864   1.171   3.705   4.826
   23CHL1  H22A 2865   1.116   3.616   4.788
   23CHL1  H22B 2866   1.091   3.780   4.844
   23CHL1   C23 2867   1.264   3.742   4.700
   23CHL1  H23A 2868   1.191   3.758   4.618
   23CHL1  H23B 2869   1.320   3.838   4.703
   23CHL1   C24 2870   1.351   3.617   4.664
   23CHL1  H24A 2871   1.430   3.605   4.741
   23CHL1  H24B 2872   1.292   3.522   4.663
   23CHL1   C25 2873   1.436   3.629   4.537
   23CHL1   H25 2874   1.378   3.607   4.445
   23CHL1   C26 2875   1.482   3.775   4.514
   23CHL1  H26A 2876   1.534   3.776   4.416
   23CHL1  H26B 2877   1.399   3.848   4.519
   23CHL1  H26C 2878   1.553   3.800   4.596
   23CHL1   C27 2879   1.545   3.523   4.537
   23CHL1  H27A 2880   1.605   3.536   4.630
   23CHL1  H27B 2881   1.503   3.422   4.518
   23CHL1  H27C 2882   1.617   3.538   4.454
   24CHL1    C3 2883   3.401   4.504   6.099
   24CHL1    H3 2884   3.386   4.614   6.100
   24CHL1    O3 2885   3.390   4.446   6.232
   24CHL1   H3' 2886   3.331   4.505   6.279
   24CHL1    C4 2887   3.301   4.435   6.002
   24CHL1   H4A 2888   3.315   4.327   6.023
   24CHL1   H4B 2889   3.197   4.455   6.036
   24CHL1    C5 2890   3.332   4.468   5.851
   24CHL1    C6 2891   3.233   4.526   5.783
   24CHL1    H6 2892   3.139   4.547   5.835
   24CHL1    C7 2893   3.242   4.573   5.645
   24CHL1   H7A 2894   3.147   4.557   5.590
   24CHL1   H7B 2895   3.273   4.680   5.645
   24CHL1    C8 2896   3.365   4.514   5.567
   24CHL1    H8 2897   3.333   4.411   5.541
   24CHL1   C14 2898   3.388   4.591   5.438
   24CHL1   H14 2899   3.426   4.693   5.463
   24CHL1   C15 2900   3.266   4.609   5.348
   24CHL1  H15A 2901   3.208   4.514   5.349
   24CHL1  H15B 2902   3.198   4.691   5.381
   24CHL1   C16 2903   3.325   4.631   5.209
   24CHL1  H16A 2904   3.301   4.553   5.134
   24CHL1  H16B 2905   3.296   4.734   5.179
   24CHL1   C17 2906   3.479   4.626   5.229
   24CHL1   H17 2907   3.501   4.731   5.255
   24CHL1   C13 2908   3.492   4.540   5.352
   24CHL1   C18 2909   3.477   4.389   5.308
   24CHL1  H18A 2910   3.503   4.319   5.391
   24CHL1  H18B 2911   3.372   4.373   5.276
   24CHL1  H18C 2912   3.543   4.358   5.224
   24CHL1   C12 2913   3.627   4.552   5.433
   24CHL1  H12A 2914   3.710   4.505   5.375
   24CHL1  H12B 2915   3.650   4.661   5.445
   24CHL1   C11 2916   3.613   4.478   5.572
   24CHL1  H11A 2917   3.608   4.370   5.547
   24CHL1  H11B 2918   3.706   4.492   5.630
   24CHL1    C9 2919   3.490   4.516   5.656
   24CHL1    H9 2920   3.500   4.624   5.682
   24CHL1   C10 2921   3.473   4.453   5.797
   24CHL1   C19 2922   3.499   4.307   5.778
   24CHL1  H19A 2923   3.441   4.272   5.691
   24CHL1  H19B 2924   3.601   4.283   5.740
   24CHL1  H19C 2925   3.468   4.243   5.864
   24CHL1    C1 2926   3.572   4.506   5.900
   24CHL1   H1A 2927   3.673   4.471   5.869
   24CHL1   H1B 2928   3.573   4.615   5.875
   24CHL1    C2 2929   3.543   4.477   6.048
   24CHL1   H2A 2930   3.605   4.529   6.125
   24CHL1   H2B 2931   3.572   4.373   6.072
   24CHL1   C20 2932   3.552   4.593   5.090
   24CHL1   H20 2933   3.548   4.488   5.055
   24CHL1   C21 2934   3.698   4.612   5.111
   24CHL1  H21A 2935   3.750   4.616   5.013
   24CHL1  H21B 2936   3.735   4.528   5.173
   24CHL1  H21C 2937   3.714   4.713   5.157
   24CHL1   C22 2938   3.503   4.687   4.969
   24CHL1  H22A 2939   3.396   4.715   4.972
   24CHL1  H22B 2940   3.557   4.783   4.978
   24CHL1   C23 2941   3.533   4.640   4.820
   24CHL1  H23A 2942   3.640   4.611   4.822
   24CHL1  H23B 2943   3.470   4.557   4.784
   24CHL1   C24 2944   3.514   4.768   4.725
   24CHL1  H24A 2945   3.406   4.791   4.715
   24CHL1  H24B 2946   3.576   4.853   4.760
   24CHL1   C25 2947   3.567   4.756   4.581
   24CHL1   H25 2948   3.670   4.716   4.584
   24CHL1   C26 2949   3.488   4.650   4.500
   24CHL1  H26A 2950   3.380   4.669   4.485
   24CHL1  H26B 2951   3.531   4.629   4.400
   24CHL1  H26C 2952   3.499   4.552   4.552
   24CHL1   C27 2953   3.560   4.879   4.496
   24CHL1  H27A 2954   3.459   4.925   4.501
   24CHL1  H27B 2955   3.630   4.953   4.539
   24CHL1  H27C 2956   3.585   4.860   4.389
   25CHL1    C3 2957   6.175   5.748   6.009
   25CHL1    H3 2958   6.234   5.839   5.983
   25CHL1    O3 2959   6.203   5.696   6.138
   25CHL1   H3' 2960   6.128   5.643   6.167
   25CHL1    C4 2961   6.024   5.766   6.001
   25CHL1   H4A 2962   5.973   5.672   6.029
   25CHL1   H4B 2963   6.014   5.835   6.088
   25CHL1    C5 2964   5.978   5.816   5.869
   25CHL1    C6 2965   5.907   5.925   5.851
   25CHL1    H6 2966   5.867   5.980   5.937
   25CHL1    C7 2967   5.860   5.971   5.722
   25CHL1   H7A 2968   5.751   5.994   5.725
   25CHL1   H7B 2969   5.908   6.068   5.698
   25CHL1    C8 2970   5.889   5.875   5.601
   25CHL1    H8 2971   5.805   5.803   5.611
   25CHL1   C14 2972   5.887   5.959   5.474
   25CHL1   H14 2973   5.980   6.020   5.466
   25CHL1   C15 2974   5.776   6.056   5.446
   25CHL1  H15A 2975   5.679   6.004   5.460
   25CHL1  H15B 2976   5.773   6.144   5.513
   25CHL1   C16 2977   5.791   6.089   5.298
   25CHL1  H16A 2978   5.686   6.093   5.262
   25CHL1  H16B 2979   5.840   6.188   5.285
   25CHL1   C17 2980   5.885   5.980   5.237
   25CHL1   H17 2981   5.986   6.026   5.234
   25CHL1   C13 2982   5.893   5.875   5.346
   25CHL1   C18 2983   5.765   5.781   5.331
   25CHL1  H18A 2984   5.752   5.727   5.234
   25CHL1  H18B 2985   5.772   5.709   5.415
   25CHL1  H18C 2986   5.675   5.845   5.339
   25CHL1   C12 2987   6.028   5.796   5.353
   25CHL1  H12A 2988   6.053   5.724   5.272
   25CHL1  H12B 2989   6.109   5.872   5.361
   25CHL1   C11 2990   6.040   5.718   5.485
   25CHL1  H11A 2991   5.957   5.645   5.481
   25CHL1  H11B 2992   6.132   5.657   5.494
   25CHL1    C9 2993   6.024   5.802   5.611
   25CHL1    H9 2994   6.112   5.870   5.610
   25CHL1   C10 2995   6.038   5.730   5.748
   25CHL1   C19 2996   5.953   5.605   5.727
   25CHL1  H19A 2997   5.845   5.631   5.720
   25CHL1  H19B 2998   5.990   5.535   5.649
   25CHL1  H19C 2999   5.953   5.541   5.819
   25CHL1    C1 3000   6.187   5.690   5.766
   25CHL1   H1A 3001   6.223   5.617   5.691
   25CHL1   H1B 3002   6.241   5.786   5.750
   25CHL1    C2 3003   6.226   5.646   5.906
   25CHL1   H2A 3004   6.336   5.644   5.916
   25CHL1   H2B 3005   6.181   5.546   5.922
   25CHL1   C20 3006   5.825   5.952   5.096
   25CHL1   H20 3007   5.722   5.912   5.108
   25CHL1   C21 3008   5.923   5.839   5.048
   25CHL1  H21A 3009   6.028   5.875   5.057
   25CHL1  H21B 3010   5.907   5.818   4.940
   25CHL1  H21C 3011   5.917   5.744   5.105
   25CHL1   C22 3012   5.828   6.079   5.010
   25CHL1  H22A 3013   5.780   6.054   4.913
   25CHL1  H22B 3014   5.755   6.145   5.062
   25CHL1   C23 3015   5.960   6.150   4.986
   25CHL1  H23A 3016   6.019   6.166   5.079
   25CHL1  H23B 3017   6.024   6.084   4.922
   25CHL1   C24 3018   5.943   6.287   4.923
   25CHL1  H24A 3019   5.878   6.354   4.984
   25CHL1  H24B 3020   6.041   6.340   4.917
   25CHL1   C25 3021   5.886   6.289   4.778
   25CHL1   H25 3022   5.782   6.250   4.779
   25CHL1   C26 3023   5.879   6.435   4.726
   25CHL1  H26A 3024   5.838   6.434   4.623
   25CHL1  H26B 3025   5.800   6.492   4.779
   25CHL1  H26C 3026   5.975   6.487   4.748
   25CHL1   C27 3027   5.970   6.196   4.688
   25CHL1  H27A 3028   6.078   6.224   4.686
   25CHL1  H27B 3029   5.962   6.089   4.718
   25CHL1  H27C 3030   5.928   6.204   4.586
   26CHL1    C3 3031   4.110   3.090   5.852
   26CHL1    H3 3032   4.011   3.042   5.868
   26CHL1    O3 3033   4.166   3.104   5.984
   26CHL1   H3' 3034   4.239   3.165   5.969
   26CHL1    C4 3035   4.190   2.997   5.761
   26CHL1   H4A 3036   4.299   3.016   5.758
   26CHL1   H4B 3037   4.189   2.898   5.813
   26CHL1    C5 3038   4.143   3.007   5.620
   26CHL1    C6 3039   4.114   2.893   5.558
   26CHL1    H6 3040   4.131   2.800   5.615
   26CHL1    C7 3041   4.069   2.887   5.415
   26CHL1   H7A 3042   4.121   2.805   5.361
   26CHL1   H7B 3043   3.960   2.863   5.419
   26CHL1    C8 3044   4.095   3.020   5.336
   26CHL1    H8 3045   4.204   3.015   5.315
   26CHL1   C14 3046   4.011   3.010   5.209
   26CHL1   H14 3047   3.905   3.008   5.243
   26CHL1   C15 3048   4.027   2.884   5.122
   26CHL1  H15A 3049   4.136   2.863   5.120
   26CHL1  H15B 3050   3.976   2.794   5.163
   26CHL1   C16 3051   3.984   2.922   4.982
   26CHL1  H16A 3052   4.068   2.912   4.910
   26CHL1  H16B 3053   3.901   2.863   4.938
   26CHL1   C17 3054   3.951   3.080   4.990
   26CHL1   H17 3055   3.841   3.078   5.008
   26CHL1   C13 3056   4.030   3.127   5.111
   26CHL1   C18 3057   4.182   3.141   5.077
   26CHL1  H18A 3058   4.229   3.045   5.047
   26CHL1  H18B 3059   4.194   3.215   4.994
   26CHL1  H18C 3060   4.241   3.175   5.164
   26CHL1   C12 3061   3.987   3.252   5.188
   26CHL1  H12A 3062   3.992   3.344   5.125
   26CHL1  H12B 3063   3.877   3.255   5.207
   26CHL1   C11 3064   4.056   3.275   5.330
   26CHL1  H11A 3065   4.162   3.299   5.304
   26CHL1  H11B 3066   4.019   3.368   5.378
   26CHL1    C9 3067   4.055   3.141   5.417
   26CHL1    H9 3068   3.945   3.125   5.425
   26CHL1   C10 3069   4.122   3.148   5.553
   26CHL1   C19 3070   4.258   3.218   5.534
   26CHL1  H19A 3071   4.298   3.166   5.444
   26CHL1  H19B 3072   4.247   3.325   5.508
   26CHL1  H19C 3073   4.329   3.198   5.617
   26CHL1    C1 3074   4.039   3.232   5.655
   26CHL1   H1A 3075   4.024   3.339   5.631
   26CHL1   H1B 3076   3.938   3.186   5.659
   26CHL1    C2 3077   4.101   3.234   5.792
   26CHL1   H2A 3078   4.035   3.295   5.857
   26CHL1   H2B 3079   4.202   3.281   5.789
   26CHL1   C20 3080   3.978   3.151   4.851
   26CHL1   H20 3081   4.087   3.151   4.828
   26CHL1   C21 3082   3.921   3.296   4.865
   26CHL1  H21A 3083   3.895   3.337   4.765
   26CHL1  H21B 3084   3.990   3.368   4.915
   26CHL1  H21C 3085   3.829   3.289   4.926
   26CHL1   C22 3086   3.908   3.080   4.736
   26CHL1  H22A 3087   3.947   2.977   4.727
   26CHL1  H22B 3088   3.798   3.076   4.756
   26CHL1   C23 3089   3.909   3.138   4.589
   26CHL1  H23A 3090   3.840   3.226   4.586
   26CHL1  H23B 3091   4.012   3.161   4.556
   26CHL1   C24 3092   3.866   3.032   4.494
   26CHL1  H24A 3093   3.935   2.946   4.501
   26CHL1  H24B 3094   3.764   2.998   4.521
   26CHL1   C25 3095   3.872   3.083   4.351
   26CHL1   H25 3096   3.820   3.181   4.345
   26CHL1   C26 3097   4.016   3.116   4.288
   26CHL1  H26A 3098   4.064   3.198   4.347
   26CHL1  H26B 3099   4.074   3.021   4.286
   26CHL1  H26C 3100   4.001   3.156   4.185
   26CHL1   C27 3101   3.812   2.971   4.262
   26CHL1  H27A 3102   3.707   2.950   4.292
   26CHL1  H27B 3103   3.814   2.993   4.153
   26CHL1  H27C 3104   3.870   2.879   4.282
   27CHL1    C3 3105   0.618   2.232   6.027
   27CHL1    H3 3106   0.548   2.158   5.982
   27CHL1    O3 3107   0.655   2.181   6.153
   27CHL1   H3' 3108   0.569   2.183   6.197
   27CHL1    C4 3109   0.741   2.255   5.936
   27CHL1   H4A 3110   0.813   2.311   5.999
   27CHL1   H4B 3111   0.787   2.154   5.927
   27CHL1    C5 3112   0.708   2.331   5.813
   27CHL1    C6 3113   0.750   2.282   5.692
   27CHL1    H6 3114   0.806   2.187   5.690
   27CHL1    C7 3115   0.716   2.346   5.565
   27CHL1   H7A 3116   0.790   2.345   5.482
   27CHL1   H7B 3117   0.635   2.290   5.513
   27CHL1    C8 3118   0.667   2.494   5.575
   27CHL1    H8 3119   0.755   2.561   5.588
   27CHL1   C14 3120   0.609   2.539   5.439
   27CHL1   H14 3121   0.523   2.471   5.421
   27CHL1   C15 3122   0.692   2.540   5.308
   27CHL1  H15A 3123   0.792   2.582   5.330
   27CHL1  H15B 3124   0.687   2.440   5.260
   27CHL1   C16 3125   0.620   2.635   5.212
   27CHL1  H16A 3126   0.694   2.713   5.184
   27CHL1  H16B 3127   0.592   2.581   5.118
   27CHL1   C17 3128   0.500   2.692   5.290
   27CHL1   H17 3129   0.417   2.621   5.270
   27CHL1   C13 3130   0.549   2.679   5.440
   27CHL1   C18 3131   0.653   2.781   5.468
   27CHL1  H18A 3132   0.742   2.788   5.403
   27CHL1  H18B 3133   0.621   2.887   5.477
   27CHL1  H18C 3134   0.689   2.767   5.572
   27CHL1   C12 3135   0.437   2.679   5.537
   27CHL1  H12A 3136   0.385   2.776   5.551
   27CHL1  H12B 3137   0.353   2.619   5.494
   27CHL1   C11 3138   0.481   2.633   5.681
   27CHL1  H11A 3139   0.538   2.722   5.715
   27CHL1  H11B 3140   0.387   2.626   5.740
   27CHL1    C9 3141   0.568   2.508   5.684
   27CHL1    H9 3142   0.491   2.432   5.657
   27CHL1   C10 3143   0.628   2.463   5.825
   27CHL1   C19 3144   0.719   2.570   5.877
   27CHL1  H19A 3145   0.772   2.531   5.966
   27CHL1  H19B 3146   0.789   2.610   5.800
   27CHL1  H19C 3147   0.663   2.663   5.904
   27CHL1    C1 3148   0.508   2.438   5.918
   27CHL1   H1A 3149   0.460   2.534   5.944
   27CHL1   H1B 3150   0.422   2.382   5.874
   27CHL1    C2 3151   0.547   2.368   6.049
   27CHL1   H2A 3152   0.454   2.351   6.107
   27CHL1   H2B 3153   0.612   2.433   6.111
   27CHL1   C20 3154   0.461   2.827   5.231
   27CHL1   H20 3155   0.542   2.902   5.247
   27CHL1   C21 3156   0.323   2.880   5.289
   27CHL1  H21A 3157   0.274   2.789   5.328
   27CHL1  H21B 3158   0.251   2.913   5.211
   27CHL1  H21C 3159   0.342   2.953   5.371
   27CHL1   C22 3160   0.438   2.823   5.075
   27CHL1  H22A 3161   0.512   2.756   5.026
   27CHL1  H22B 3162   0.338   2.780   5.054
   27CHL1   C23 3163   0.445   2.961   5.005
   27CHL1  H23A 3164   0.389   3.030   5.072
   27CHL1  H23B 3165   0.547   3.004   5.007
   27CHL1   C24 3166   0.395   2.955   4.860
   27CHL1  H24A 3167   0.455   2.887   4.796
   27CHL1  H24B 3168   0.285   2.941   4.851
   27CHL1   C25 3169   0.425   3.085   4.783
   27CHL1   H25 3170   0.531   3.113   4.801
   27CHL1   C26 3171   0.379   3.073   4.637
   27CHL1  H26A 3172   0.384   3.170   4.581
   27CHL1  H26B 3173   0.449   3.002   4.588
   27CHL1  H26C 3174   0.273   3.042   4.629
   27CHL1   C27 3175   0.347   3.208   4.851
   27CHL1  H27A 3176   0.247   3.180   4.891
   27CHL1  H27B 3177   0.338   3.284   4.771
   27CHL1  H27C 3178   0.418   3.250   4.926
   28CHL1    C3 3179   5.717   2.208   5.902
   28CHL1    H3 3180   5.826   2.227   5.900
   28CHL1    O3 3181   5.679   2.189   6.032
   28CHL1   H3' 3182   5.597   2.140   6.024
   28CHL1    C4 3183   5.645   2.321   5.835
   28CHL1   H4A 3184   5.534   2.317   5.844
   28CHL1   H4B 3185   5.668   2.415   5.890
   28CHL1    C5 3186   5.663   2.334   5.690
   28CHL1    C6 3187   5.702   2.442   5.628
   28CHL1    H6 3188   5.713   2.530   5.692
   28CHL1    C7 3189   5.724   2.464   5.484
   28CHL1   H7A 3190   5.681   2.561   5.450
   28CHL1   H7B 3191   5.831   2.486   5.461
   28CHL1    C8 3192   5.664   2.346   5.393
   28CHL1    H8 3193   5.554   2.363   5.392
   28CHL1   C14 3194   5.712   2.339   5.252
   28CHL1   H14 3195   5.819   2.308   5.254
   28CHL1   C15 3196   5.719   2.473   5.172
   28CHL1  H15A 3197   5.620   2.522   5.190
   28CHL1  H15B 3198   5.803   2.542   5.195
   28CHL1   C16 3199   5.711   2.422   5.021
   28CHL1  H16A 3200   5.616   2.469   4.989
   28CHL1  H16B 3201   5.799   2.467   4.970
   28CHL1   C17 3202   5.711   2.268   5.029
   28CHL1   H17 3203   5.818   2.238   5.036
   28CHL1   C13 3204   5.642   2.236   5.165
   28CHL1   C18 3205   5.485   2.264   5.148
   28CHL1  H18A 3206   5.449   2.366   5.123
   28CHL1  H18B 3207   5.436   2.208   5.066
   28CHL1  H18C 3208   5.428   2.223   5.234
   28CHL1   C12 3209   5.671   2.097   5.228
   28CHL1  H12A 3210   5.605   2.027   5.174
   28CHL1  H12B 3211   5.779   2.072   5.212
   28CHL1   C11 3212   5.635   2.091   5.376
   28CHL1  H11A 3213   5.524   2.096   5.388
   28CHL1  H11B 3214   5.666   1.995   5.424
   28CHL1    C9 3215   5.692   2.209   5.459
   28CHL1    H9 3216   5.802   2.200   5.472
   28CHL1   C10 3217   5.644   2.201   5.608
   28CHL1   C19 3218   5.494   2.159   5.626
   28CHL1  H19A 3219   5.486   2.053   5.593
   28CHL1  H19B 3220   5.473   2.159   5.735
   28CHL1  H19C 3221   5.426   2.224   5.567
   28CHL1    C1 3222   5.722   2.094   5.680
   28CHL1   H1A 3223   5.697   1.993   5.640
   28CHL1   H1B 3224   5.832   2.108   5.668
   28CHL1    C2 3225   5.694   2.072   5.833
   28CHL1   H2A 3226   5.767   1.994   5.862
   28CHL1   H2B 3227   5.590   2.035   5.835
   28CHL1   C20 3228   5.667   2.214   4.890
   28CHL1   H20 3229   5.569   2.267   4.887
   28CHL1   C21 3230   5.641   2.061   4.896
   28CHL1  H21A 3231   5.634   2.013   4.796
   28CHL1  H21B 3232   5.553   2.044   4.960
   28CHL1  H21C 3233   5.724   2.016   4.955
   28CHL1   C22 3234   5.744   2.256   4.758
   28CHL1  H22A 3235   5.771   2.364   4.761
   28CHL1  H22B 3236   5.837   2.198   4.743
   28CHL1   C23 3237   5.663   2.247   4.630
   28CHL1  H23A 3238   5.616   2.148   4.610
   28CHL1  H23B 3239   5.568   2.305   4.637
   28CHL1   C24 3240   5.750   2.273   4.504
   28CHL1  H24A 3241   5.774   2.381   4.505
   28CHL1  H24B 3242   5.845   2.216   4.512
   28CHL1   C25 3243   5.678   2.243   4.373
   28CHL1   H25 3244   5.620   2.150   4.393
   28CHL1   C26 3245   5.578   2.350   4.343
   28CHL1  H26A 3246   5.628   2.430   4.285
   28CHL1  H26B 3247   5.504   2.308   4.272
   28CHL1  H26C 3248   5.528   2.397   4.430
   28CHL1   C27 3249   5.765   2.206   4.256
   28CHL1  H27A 3250   5.700   2.195   4.168
   28CHL1  H27B 3251   5.835   2.292   4.253
   28CHL1  H27C 3252   5.812   2.106   4.273
   29CHL1    C3 3253   2.333   3.801   6.380
   29CHL1    H3 3254   2.414   3.725   6.371
   29CHL1    O3 3255   2.284   3.813   6.509
   29CHL1   H3' 3256   2.210   3.873   6.500
   29CHL1    C4 3257   2.381   3.934   6.334
   29CHL1   H4A 3258   2.315   4.023   6.334
   29CHL1   H4B 3259   2.464   3.964   6.400
   29CHL1    C5 3260   2.439   3.930   6.189
   29CHL1    C6 3261   2.564   3.961   6.160
   29CHL1    H6 3262   2.637   4.001   6.233
   29CHL1    C7 3263   2.621   3.957   6.019
   29CHL1   H7A 3264   2.684   4.047   6.001
   29CHL1   H7B 3265   2.683   3.869   5.994
   29CHL1    C8 3266   2.508   3.954   5.909
   29CHL1    H8 3267   2.455   4.052   5.908
   29CHL1   C14 3268   2.569   3.930   5.771
   29CHL1   H14 3269   2.626   3.834   5.778
   29CHL1   C15 3270   2.672   4.035   5.716
   29CHL1  H15A 3271   2.650   4.138   5.750
   29CHL1  H15B 3272   2.767   3.999   5.762
   29CHL1   C16 3273   2.666   4.013   5.563
   29CHL1  H16A 3274   2.634   4.114   5.530
   29CHL1  H16B 3275   2.766   3.977   5.532
   29CHL1   C17 3276   2.561   3.900   5.539
   29CHL1   H17 3277   2.615   3.803   5.546
   29CHL1   C13 3278   2.465   3.913   5.664
   29CHL1   C18 3279   2.384   4.042   5.656
   29CHL1  H18A 3280   2.313   4.029   5.571
   29CHL1  H18B 3281   2.328   4.051   5.751
   29CHL1  H18C 3282   2.445   4.133   5.636
   29CHL1   C12 3283   2.376   3.794   5.689
   29CHL1  H12A 3284   2.292   3.788   5.616
   29CHL1  H12B 3285   2.434   3.701   5.675
   29CHL1   C11 3286   2.319   3.802   5.827
   29CHL1  H11A 3287   2.233   3.872   5.826
   29CHL1  H11B 3288   2.275   3.702   5.850
   29CHL1    C9 3289   2.409   3.847   5.946
   29CHL1    H9 3290   2.475   3.759   5.958
   29CHL1   C10 3291   2.333   3.873   6.082
   29CHL1   C19 3292   2.222   3.978   6.065
   29CHL1  H19A 3293   2.147   3.935   5.996
   29CHL1  H19B 3294   2.166   3.981   6.161
   29CHL1  H19C 3295   2.256   4.080   6.035
   29CHL1    C1 3296   2.273   3.742   6.141
   29CHL1   H1A 3297   2.187   3.708   6.080
   29CHL1   H1B 3298   2.350   3.662   6.139
   29CHL1    C2 3299   2.219   3.760   6.289
   29CHL1   H2A 3300   2.185   3.663   6.331
   29CHL1   H2B 3301   2.135   3.831   6.302
   29CHL1   C20 3302   2.477   3.901   5.408
   29CHL1   H20 3303   2.370   3.906   5.436
   29CHL1   C21 3304   2.477   3.760   5.338
   29CHL1  H21A 3305   2.427   3.698   5.415
   29CHL1  H21B 3306   2.583   3.730   5.323
   29CHL1  H21C 3307   2.415   3.760   5.246
   29CHL1   C22 3308   2.505   4.019   5.314
   29CHL1  H22A 3309   2.484   4.111   5.373
   29CHL1  H22B 3310   2.610   4.024   5.278
   29CHL1   C23 3311   2.402   4.019   5.196
   29CHL1  H23A 3312   2.454   3.965   5.114
   29CHL1  H23B 3313   2.309   3.967   5.229
   29CHL1   C24 3314   2.376   4.154   5.133
   29CHL1  H24A 3315   2.340   4.237   5.196
   29CHL1  H24B 3316   2.474   4.194   5.100
   29CHL1   C25 3317   2.292   4.147   4.999
   29CHL1   H25 3318   2.190   4.109   5.020
   29CHL1   C26 3319   2.258   4.286   4.947
   29CHL1  H26A 3320   2.208   4.260   4.851
   29CHL1  H26B 3321   2.192   4.345   5.014
   29CHL1  H26C 3322   2.353   4.342   4.930
   29CHL1   C27 3323   2.360   4.060   4.889
   29CHL1  H27A 3324   2.342   3.954   4.917
   29CHL1  H27B 3325   2.306   4.077   4.793
   29CHL1  H27C 3326   2.465   4.095   4.881
   30CHL1    C3 3327   3.181   3.714   6.069
   30CHL1    H3 3328   3.194   3.824   6.075
   30CHL1    O3 3329   3.163   3.665   6.203
   30CHL1   H3' 3330   3.249   3.632   6.230
   30CHL1    C4 3331   3.050   3.685   5.989
   30CHL1   H4A 3332   3.029   3.578   6.009
   30CHL1   H4B 3333   2.967   3.739   6.038
   30CHL1    C5 3334   3.056   3.702   5.837
   30CHL1    C6 3335   2.969   3.778   5.775
   30CHL1    H6 3336   2.891   3.824   5.838
   30CHL1    C7 3337   2.947   3.788   5.628
   30CHL1   H7A 3338   2.841   3.761   5.606
   30CHL1   H7B 3339   2.961   3.898   5.629
   30CHL1    C8 3340   3.047   3.692   5.562
   30CHL1    H8 3341   3.003   3.590   5.565
   30CHL1   C14 3342   3.062   3.729   5.416
   30CHL1   H14 3343   3.116   3.826   5.420
   30CHL1   C15 3344   2.936   3.749   5.322
   30CHL1  H15A 3345   2.838   3.708   5.355
   30CHL1  H15B 3346   2.927   3.860   5.319
   30CHL1   C16 3347   2.977   3.695   5.183
   30CHL1  H16A 3348   2.945   3.592   5.157
   30CHL1  H16B 3349   2.946   3.763   5.101
   30CHL1   C17 3350   3.138   3.691   5.186
   30CHL1   H17 3351   3.170   3.798   5.184
   30CHL1   C13 3352   3.155   3.639   5.333
   30CHL1   C18 3353   3.111   3.490   5.347
   30CHL1  H18A 3354   3.117   3.456   5.453
   30CHL1  H18B 3355   3.002   3.477   5.332
   30CHL1  H18C 3356   3.170   3.425   5.278
   30CHL1   C12 3357   3.295   3.655   5.397
   30CHL1  H12A 3358   3.377   3.601   5.345
   30CHL1  H12B 3359   3.315   3.764   5.398
   30CHL1   C11 3360   3.304   3.614   5.550
   30CHL1  H11A 3361   3.309   3.503   5.557
   30CHL1  H11B 3362   3.403   3.652   5.585
   30CHL1    C9 3363   3.190   3.686   5.627
   30CHL1    H9 3364   3.219   3.794   5.629
   30CHL1   C10 3365   3.175   3.634   5.775
   30CHL1   C19 3366   3.147   3.479   5.782
   30CHL1  H19A 3367   3.230   3.411   5.753
   30CHL1  H19B 3368   3.132   3.443   5.886
   30CHL1  H19C 3369   3.058   3.461   5.717
   30CHL1    C1 3370   3.309   3.672   5.847
   30CHL1   H1A 3371   3.389   3.601   5.818
   30CHL1   H1B 3372   3.333   3.779   5.836
   30CHL1    C2 3373   3.296   3.649   6.003
   30CHL1   H2A 3374   3.391   3.676   6.055
   30CHL1   H2B 3375   3.288   3.538   6.013
   30CHL1   C20 3376   3.212   3.622   5.071
   30CHL1   H20 3377   3.241   3.517   5.090
   30CHL1   C21 3378   3.350   3.693   5.064
   30CHL1  H21A 3379   3.328   3.791   5.017
   30CHL1  H21B 3380   3.420   3.652   4.989
   30CHL1  H21C 3381   3.403   3.697   5.162
   30CHL1   C22 3382   3.149   3.632   4.926
   30CHL1  H22A 3383   3.047   3.593   4.945
   30CHL1  H22B 3384   3.138   3.737   4.893
   30CHL1   C23 3385   3.197   3.546   4.805
   30CHL1  H23A 3386   3.299   3.568   4.768
   30CHL1  H23B 3387   3.205   3.439   4.833
   30CHL1   C24 3388   3.099   3.552   4.679
   30CHL1  H24A 3389   3.008   3.504   4.720
   30CHL1  H24B 3390   3.081   3.660   4.657
   30CHL1   C25 3391   3.152   3.485   4.549
   30CHL1   H25 3392   3.252   3.530   4.529
   30CHL1   C26 3393   3.162   3.334   4.559
   30CHL1  H26A 3394   3.214   3.302   4.466
   30CHL1  H26B 3395   3.220   3.311   4.650
   30CHL1  H26C 3396   3.064   3.282   4.569
   30CHL1   C27 3397   3.069   3.522   4.430
   30CHL1  H27A 3398   2.985   3.449   4.419
   30CHL1  H27B 3399   3.019   3.620   4.445
   30CHL1  H27C 3400   3.125   3.528   4.334
   31CHL1    C3 3401   1.686   4.372   6.096
   31CHL1    H3 3402   1.627   4.462   6.068
   31CHL1    O3 3403   1.616   4.307   6.201
   31CHL1   H3' 3404   1.623   4.373   6.270
   31CHL1    C4 3405   1.688   4.261   5.983
   31CHL1   H4A 3406   1.718   4.162   6.023
   31CHL1   H4B 3407   1.585   4.229   5.954
   31CHL1    C5 3408   1.763   4.298   5.861
   31CHL1    C6 3409   1.703   4.294   5.739
   31CHL1    H6 3410   1.603   4.248   5.733
   31CHL1    C7 3411   1.775   4.330   5.612
   31CHL1   H7A 3412   1.754   4.259   5.528
   31CHL1   H7B 3413   1.728   4.424   5.576
   31CHL1    C8 3414   1.928   4.343   5.629
   31CHL1    H8 3415   1.979   4.246   5.610
   31CHL1   C14 3416   1.989   4.436   5.523
   31CHL1   H14 3417   1.965   4.538   5.558
   31CHL1   C15 3418   1.932   4.445   5.381
   31CHL1  H15A 3419   1.892   4.349   5.342
   31CHL1  H15B 3420   1.853   4.523   5.376
   31CHL1   C16 3421   2.048   4.496   5.299
   31CHL1  H16A 3422   2.080   4.418   5.226
   31CHL1  H16B 3423   2.014   4.589   5.249
   31CHL1   C17 3424   2.163   4.536   5.398
   31CHL1   H17 3425   2.143   4.640   5.431
   31CHL1   C13 3426   2.141   4.439   5.518
   31CHL1   C18 3427   2.188   4.296   5.481
   31CHL1  H18A 3428   2.148   4.266   5.381
   31CHL1  H18B 3429   2.297   4.298   5.459
   31CHL1  H18C 3430   2.171   4.217   5.558
   31CHL1   C12 3431   2.197   4.475   5.647
   31CHL1  H12A 3432   2.301   4.443   5.667
   31CHL1  H12B 3433   2.191   4.586   5.656
   31CHL1   C11 3434   2.128   4.412   5.773
   31CHL1  H11A 3435   2.174   4.313   5.794
   31CHL1  H11B 3436   2.155   4.471   5.862
   31CHL1    C9 3437   1.970   4.410   5.765
   31CHL1    H9 3438   1.922   4.510   5.758
   31CHL1   C10 3439   1.905   4.346   5.894
   31CHL1   C19 3440   1.988   4.220   5.942
   31CHL1  H19A 3441   1.991   4.148   5.858
   31CHL1  H19B 3442   2.092   4.251   5.969
   31CHL1  H19C 3443   1.938   4.172   6.029
   31CHL1    C1 3444   1.905   4.446   6.007
   31CHL1   H1A 3445   2.004   4.487   6.039
   31CHL1   H1B 3446   1.840   4.531   5.979
   31CHL1    C2 3447   1.833   4.391   6.134
   31CHL1   H2A 3448   1.833   4.482   6.198
   31CHL1   H2B 3449   1.873   4.301   6.185
   31CHL1   C20 3450   2.299   4.539   5.327
   31CHL1   H20 3451   2.319   4.433   5.299
   31CHL1   C21 3452   2.414   4.591   5.414
   31CHL1  H21A 3453   2.417   4.527   5.505
   31CHL1  H21B 3454   2.405   4.700   5.433
   31CHL1  H21C 3455   2.516   4.574   5.373
   31CHL1   C22 3456   2.274   4.622   5.196
   31CHL1  H22A 3457   2.225   4.568   5.113
   31CHL1  H22B 3458   2.218   4.714   5.224
   31CHL1   C23 3459   2.409   4.666   5.131
   31CHL1  H23A 3460   2.454   4.756   5.178
   31CHL1  H23B 3461   2.483   4.585   5.145
   31CHL1   C24 3462   2.400   4.698   4.982
   31CHL1  H24A 3463   2.375   4.606   4.925
   31CHL1  H24B 3464   2.312   4.762   4.961
   31CHL1   C25 3465   2.528   4.761   4.925
   31CHL1   H25 3466   2.612   4.699   4.961
   31CHL1   C26 3467   2.523   4.742   4.772
   31CHL1  H26A 3468   2.523   4.634   4.745
   31CHL1  H26B 3469   2.432   4.787   4.727
   31CHL1  H26C 3470   2.608   4.787   4.716
   31CHL1   C27 3471   2.547   4.916   4.956
   31CHL1  H27A 3472   2.643   4.946   4.908
   31CHL1  H27B 3473   2.464   4.971   4.905
   31CHL1  H27C 3474   2.529   4.935   5.064
   32CHL1    C3 3475   2.505   2.531   5.922
   32CHL1    H3 3476   2.614   2.523   5.904
   32CHL1    O3 3477   2.499   2.549   6.064
   32CHL1   H3' 3478   2.422   2.603   6.085
   32CHL1    C4 3479   2.438   2.657   5.858
   32CHL1   H4A 3480   2.333   2.677   5.889
   32CHL1   H4B 3481   2.498   2.744   5.894
   32CHL1    C5 3482   2.453   2.647   5.700
   32CHL1    C6 3483   2.523   2.739   5.628
   32CHL1    H6 3484   2.579   2.819   5.679
   32CHL1    C7 3485   2.534   2.728   5.473
   32CHL1   H7A 3486   2.501   2.823   5.426
   32CHL1   H7B 3487   2.639   2.694   5.458
   32CHL1    C8 3488   2.436   2.623   5.418
   32CHL1    H8 3489   2.339   2.676   5.410
   32CHL1   C14 3490   2.480   2.579   5.280
   32CHL1   H14 3491   2.578   2.530   5.300
   32CHL1   C15 3492   2.515   2.684   5.179
   32CHL1  H15A 3493   2.436   2.762   5.179
   32CHL1  H15B 3494   2.614   2.727   5.205
   32CHL1   C16 3495   2.519   2.610   5.049
   32CHL1  H16A 3496   2.441   2.652   4.982
   32CHL1  H16B 3497   2.618   2.623   4.999
   32CHL1   C17 3498   2.482   2.462   5.071
   32CHL1   H17 3499   2.572   2.407   5.105
   32CHL1   C13 3500   2.396   2.474   5.203
   32CHL1   C18 3501   2.265   2.539   5.169
   32CHL1  H18A 3502   2.224   2.476   5.088
   32CHL1  H18B 3503   2.193   2.534   5.254
   32CHL1  H18C 3504   2.270   2.643   5.129
   32CHL1   C12 3505   2.377   2.351   5.288
   32CHL1  H12A 3506   2.293   2.289   5.250
   32CHL1  H12B 3507   2.472   2.295   5.298
   32CHL1   C11 3508   2.332   2.388   5.431
   32CHL1  H11A 3509   2.229   2.429   5.423
   32CHL1  H11B 3510   2.320   2.293   5.487
   32CHL1    C9 3511   2.421   2.491   5.502
   32CHL1    H9 3512   2.522   2.445   5.504
   32CHL1   C10 3513   2.378   2.523   5.646
   32CHL1   C19 3514   2.226   2.545   5.648
   32CHL1  H19A 3515   2.189   2.610   5.566
   32CHL1  H19B 3516   2.179   2.445   5.638
   32CHL1  H19C 3517   2.193   2.596   5.741
   32CHL1    C1 3518   2.420   2.392   5.720
   32CHL1   H1A 3519   2.340   2.315   5.710
   32CHL1   H1B 3520   2.525   2.366   5.695
   32CHL1    C2 3521   2.427   2.402   5.875
   32CHL1   H2A 3522   2.477   2.311   5.916
   32CHL1   H2B 3523   2.323   2.414   5.913
   32CHL1   C20 3524   2.423   2.387   4.948
   32CHL1   H20 3525   2.329   2.433   4.911
   32CHL1   C21 3526   2.408   2.242   4.986
   32CHL1  H21A 3527   2.329   2.225   5.063
   32CHL1  H21B 3528   2.506   2.204   5.021
   32CHL1  H21C 3529   2.362   2.177   4.908
   32CHL1   C22 3530   2.531   2.397   4.833
   32CHL1  H22A 3531   2.539   2.505   4.811
   32CHL1  H22B 3532   2.624   2.367   4.886
   32CHL1   C23 3533   2.512   2.294   4.721
   32CHL1  H23A 3534   2.611   2.292   4.672
   32CHL1  H23B 3535   2.485   2.191   4.752
   32CHL1   C24 3536   2.397   2.339   4.632
   32CHL1  H24A 3537   2.306   2.318   4.691
   32CHL1  H24B 3538   2.400   2.445   4.598
   32CHL1   C25 3539   2.413   2.256   4.501
   32CHL1   H25 3540   2.505   2.194   4.508
   32CHL1   C26 3541   2.290   2.162   4.481
   32CHL1  H26A 3542   2.199   2.217   4.451
   32CHL1  H26B 3543   2.312   2.103   4.389
   32CHL1  H26C 3544   2.276   2.093   4.568
   32CHL1   C27 3545   2.422   2.339   4.369
   32CHL1  H27A 3546   2.448   2.273   4.283
   32CHL1  H27B 3547   2.323   2.384   4.346
   32CHL1  H27C 3548   2.501   2.414   4.392
   33CHL1    C3 3549   0.650   1.357   5.589
   33CHL1    H3 3550   0.759   1.374   5.580
   33CHL1    O3 3551   0.638   1.304   5.723
   33CHL1   H3' 3552   0.622   1.210   5.711
   33CHL1    C4 3553   0.568   1.487   5.583
   33CHL1   H4A 3554   0.463   1.460   5.606
   33CHL1   H4B 3555   0.594   1.551   5.670
   33CHL1    C5 3556   0.576   1.543   5.443
   33CHL1    C6 3557   0.626   1.666   5.430
   33CHL1    H6 3558   0.652   1.726   5.519
   33CHL1    C7 3559   0.656   1.736   5.305
   33CHL1   H7A 3560   0.618   1.839   5.319
   33CHL1   H7B 3561   0.763   1.726   5.276
   33CHL1    C8 3562   0.573   1.663   5.190
   33CHL1    H8 3563   0.466   1.687   5.211
   33CHL1   C14 3564   0.612   1.725   5.053
   33CHL1   H14 3565   0.712   1.690   5.021
   33CHL1   C15 3566   0.618   1.882   5.037
   33CHL1  H15A 3567   0.535   1.934   5.090
   33CHL1  H15B 3568   0.719   1.912   5.072
   33CHL1   C16 3569   0.591   1.905   4.887
   33CHL1  H16A 3570   0.500   1.970   4.886
   33CHL1  H16B 3571   0.675   1.951   4.830
   33CHL1   C17 3572   0.564   1.759   4.825
   33CHL1   H17 3573   0.666   1.722   4.804
   33CHL1   C13 3574   0.519   1.673   4.941
   33CHL1   C18 3575   0.363   1.707   4.967
   33CHL1  H18A 3576   0.288   1.702   4.886
   33CHL1  H18B 3577   0.303   1.643   5.036
   33CHL1  H18C 3578   0.351   1.808   5.013
   33CHL1   C12 3579   0.526   1.519   4.937
   33CHL1  H12A 3580   0.453   1.472   4.868
   33CHL1  H12B 3581   0.622   1.497   4.886
   33CHL1   C11 3582   0.516   1.447   5.071
   33CHL1  H11A 3583   0.407   1.440   5.091
   33CHL1  H11B 3584   0.548   1.340   5.066
   33CHL1    C9 3585   0.589   1.503   5.188
   33CHL1    H9 3586   0.697   1.485   5.168
   33CHL1   C10 3587   0.532   1.450   5.322
   33CHL1   C19 3588   0.374   1.434   5.331
   33CHL1  H19A 3589   0.341   1.347   5.270
   33CHL1  H19B 3590   0.348   1.408   5.436
   33CHL1  H19C 3591   0.324   1.531   5.316
   33CHL1    C1 3592   0.604   1.312   5.346
   33CHL1   H1A 3593   0.552   1.238   5.282
   33CHL1   H1B 3594   0.703   1.313   5.295
   33CHL1    C2 3595   0.600   1.256   5.485
   33CHL1   H2A 3596   0.660   1.164   5.498
   33CHL1   H2B 3597   0.495   1.224   5.507
   33CHL1   C20 3598   0.482   1.751   4.690
   33CHL1   H20 3599   0.379   1.794   4.701
   33CHL1   C21 3600   0.470   1.610   4.626
   33CHL1  H21A 3601   0.572   1.569   4.609
   33CHL1  H21B 3602   0.416   1.607   4.529
   33CHL1  H21C 3603   0.415   1.548   4.700
   33CHL1   C22 3604   0.554   1.847   4.590
   33CHL1  H22A 3605   0.622   1.919   4.640
   33CHL1  H22B 3606   0.623   1.785   4.529
   33CHL1   C23 3607   0.460   1.932   4.499
   33CHL1  H23A 3608   0.400   1.864   4.434
   33CHL1  H23B 3609   0.398   2.001   4.558
   33CHL1   C24 3610   0.539   2.021   4.404
   33CHL1  H24A 3611   0.583   1.958   4.324
   33CHL1  H24B 3612   0.469   2.096   4.361
   33CHL1   C25 3613   0.645   2.114   4.467
   33CHL1   H25 3614   0.724   2.068   4.530
   33CHL1   C26 3615   0.714   2.183   4.357
   33CHL1  H26A 3616   0.780   2.258   4.405
   33CHL1  H26B 3617   0.789   2.114   4.310
   33CHL1  H26C 3618   0.648   2.224   4.278
   33CHL1   C27 3619   0.574   2.218   4.561
   33CHL1  H27A 3620   0.487   2.260   4.507
   33CHL1  H27B 3621   0.534   2.175   4.655
   33CHL1  H27C 3622   0.642   2.304   4.578
   34CHL1    C3 3623   3.015   3.057   6.058
   34CHL1    H3 3624   3.087   2.978   6.088
   34CHL1    O3 3625   2.979   3.137   6.168
   34CHL1   H3' 3626   3.004   3.227   6.146
   34CHL1    C4 3627   3.096   3.137   5.948
   34CHL1   H4A 3628   3.056   3.231   5.905
   34CHL1   H4B 3629   3.189   3.170   6.000
   34CHL1    C5 3630   3.121   3.045   5.824
   34CHL1    C6 3631   3.241   3.009   5.783
   34CHL1    H6 3632   3.321   3.057   5.840
   34CHL1    C7 3633   3.278   2.920   5.667
   34CHL1   H7A 3634   3.366   2.963   5.614
   34CHL1   H7B 3635   3.292   2.813   5.696
   34CHL1    C8 3636   3.151   2.922   5.581
   34CHL1    H8 3637   3.149   3.019   5.527
   34CHL1   C14 3638   3.175   2.817   5.470
   34CHL1   H14 3639   3.181   2.714   5.512
   34CHL1   C15 3640   3.309   2.836   5.385
   34CHL1  H15A 3641   3.319   2.945   5.368
   34CHL1  H15B 3642   3.401   2.804   5.437
   34CHL1   C16 3643   3.276   2.768   5.250
   34CHL1  H16A 3644   3.294   2.839   5.166
   34CHL1  H16B 3645   3.336   2.675   5.238
   34CHL1   C17 3646   3.125   2.723   5.257
   34CHL1   H17 3647   3.126   2.619   5.297
   34CHL1   C13 3648   3.063   2.817   5.363
   34CHL1   C18 3649   3.039   2.955   5.304
   34CHL1  H18A 3650   3.028   3.033   5.382
   34CHL1  H18B 3651   3.121   2.985   5.236
   34CHL1  H18C 3652   2.947   2.955   5.240
   34CHL1   C12 3653   2.938   2.755   5.441
   34CHL1  H12A 3654   2.847   2.730   5.383
   34CHL1  H12B 3655   2.966   2.656   5.481
   34CHL1   C11 3656   2.898   2.842   5.565
   34CHL1  H11A 3657   2.842   2.933   5.535
   34CHL1  H11B 3658   2.831   2.790   5.637
   34CHL1    C9 3659   3.017   2.885   5.652
   34CHL1    H9 3660   3.051   2.792   5.702
   34CHL1   C10 3661   2.983   2.992   5.769
   34CHL1   C19 3662   2.909   3.116   5.707
   34CHL1  H19A 3663   2.890   3.187   5.790
   34CHL1  H19B 3664   2.969   3.161   5.625
   34CHL1  H19C 3665   2.809   3.095   5.664
   34CHL1    C1 3666   2.892   2.923   5.874
   34CHL1   H1A 3667   2.790   2.907   5.833
   34CHL1   H1B 3668   2.945   2.830   5.906
   34CHL1    C2 3669   2.883   3.011   6.001
   34CHL1   H2A 3670   2.829   2.949   6.077
   34CHL1   H2B 3671   2.817   3.096   5.975
   34CHL1   C20 3672   3.058   2.713   5.119
   34CHL1   H20 3673   3.064   2.808   5.063
   34CHL1   C21 3674   2.906   2.678   5.123
   34CHL1  H21A 3675   2.890   2.584   5.178
   34CHL1  H21B 3676   2.884   2.666   5.014
   34CHL1  H21C 3677   2.835   2.753   5.164
   34CHL1   C22 3678   3.132   2.611   5.023
   34CHL1  H22A 3679   3.237   2.584   5.049
   34CHL1  H22B 3680   3.067   2.521   5.032
   34CHL1   C23 3681   3.123   2.647   4.868
   34CHL1  H23A 3682   3.019   2.640   4.830
   34CHL1  H23B 3683   3.148   2.754   4.849
   34CHL1   C24 3684   3.213   2.570   4.773
   34CHL1  H24A 3685   3.310   2.549   4.822
   34CHL1  H24B 3686   3.158   2.474   4.758
   34CHL1   C25 3687   3.253   2.631   4.642
   34CHL1   H25 3688   3.296   2.733   4.655
   34CHL1   C26 3689   3.366   2.556   4.568
   34CHL1  H26A 3690   3.453   2.532   4.633
   34CHL1  H26B 3691   3.336   2.455   4.532
   34CHL1  H26C 3692   3.401   2.624   4.488
   34CHL1   C27 3693   3.132   2.647   4.542
   34CHL1  H27A 3694   3.047   2.710   4.577
   34CHL1  H27B 3695   3.167   2.661   4.438
   34CHL1  H27C 3696   3.071   2.554   4.544
   35CHL1    C3 3697   3.972   5.137   6.055
   35CHL1    H3 3698   3.959   5.027   6.051
   35CHL1    O3 3699   3.949   5.177   6.192
   35CHL1   H3' 3700   3.949   5.273   6.194
   35CHL1    C4 3701   4.117   5.175   6.012
   35CHL1   H4A 3702   4.141   5.271   6.061
   35CHL1   H4B 3703   4.177   5.103   6.072
   35CHL1    C5 3704   4.130   5.167   5.864
   35CHL1    C6 3705   4.227   5.100   5.805
   35CHL1    H6 3706   4.308   5.057   5.866
   35CHL1    C7 3707   4.260   5.088   5.661
   35CHL1   H7A 3708   4.370   5.094   5.649
   35CHL1   H7B 3709   4.220   4.993   5.621
   35CHL1    C8 3710   4.190   5.204   5.588
   35CHL1    H8 3711   4.248   5.297   5.604
   35CHL1   C14 3712   4.184   5.186   5.439
   35CHL1   H14 3713   4.132   5.089   5.423
   35CHL1   C15 3714   4.328   5.169   5.377
   35CHL1  H15A 3715   4.396   5.238   5.432
   35CHL1  H15B 3716   4.374   5.070   5.397
   35CHL1   C16 3717   4.312   5.198   5.231
   35CHL1  H16A 3718   4.390   5.276   5.215
   35CHL1  H16B 3719   4.331   5.113   5.162
   35CHL1   C17 3720   4.167   5.261   5.218
   35CHL1   H17 3721   4.100   5.174   5.208
   35CHL1   C13 3722   4.123   5.300   5.359
   35CHL1   C18 3723   4.193   5.435   5.393
   35CHL1  H18A 3724   4.165   5.521   5.327
   35CHL1  H18B 3725   4.167   5.473   5.494
   35CHL1  H18C 3726   4.304   5.439   5.387
   35CHL1   C12 3727   3.966   5.298   5.384
   35CHL1  H12A 3728   3.913   5.380   5.332
   35CHL1  H12B 3729   3.926   5.207   5.335
   35CHL1   C11 3730   3.953   5.303   5.538
   35CHL1  H11A 3731   3.958   5.412   5.558
   35CHL1  H11B 3732   3.852   5.261   5.553
   35CHL1    C9 3733   4.043   5.215   5.629
   35CHL1    H9 3734   3.996   5.115   5.618
   35CHL1   C10 3735   4.023   5.243   5.780
   35CHL1   C19 3736   4.041   5.396   5.805
   35CHL1  H19A 3737   3.955   5.454   5.766
   35CHL1  H19B 3738   4.049   5.416   5.915
   35CHL1  H19C 3739   4.139   5.423   5.760
   35CHL1    C1 3740   3.882   5.196   5.828
   35CHL1   H1A 3741   3.804   5.253   5.774
   35CHL1   H1B 3742   3.874   5.089   5.801
   35CHL1    C2 3743   3.868   5.216   5.976
   35CHL1   H2A 3744   3.765   5.186   6.006
   35CHL1   H2B 3745   3.873   5.324   6.002
   35CHL1   C20 3746   4.146   5.362   5.101
   35CHL1   H20 3747   4.052   5.416   5.125
   35CHL1   C21 3748   4.127   5.290   4.972
   35CHL1  H21A 3749   4.130   5.357   4.883
   35CHL1  H21B 3750   4.027   5.241   4.966
   35CHL1  H21C 3751   4.203   5.213   4.946
   35CHL1   C22 3752   4.267   5.455   5.082
   35CHL1  H22A 3753   4.310   5.489   5.178
   35CHL1  H22B 3754   4.345   5.407   5.019
   35CHL1   C23 3755   4.235   5.580   4.997
   35CHL1  H23A 3756   4.216   5.537   4.897
   35CHL1  H23B 3757   4.139   5.612   5.044
   35CHL1   C24 3758   4.328   5.705   4.982
   35CHL1  H24A 3759   4.350   5.749   5.082
   35CHL1  H24B 3760   4.425   5.667   4.942
   35CHL1   C25 3761   4.282   5.816   4.890
   35CHL1   H25 3762   4.184   5.845   4.933
   35CHL1   C26 3763   4.372   5.939   4.880
   35CHL1  H26A 3764   4.378   6.003   4.971
   35CHL1  H26B 3765   4.475   5.901   4.865
   35CHL1  H26C 3766   4.343   6.006   4.797
   35CHL1   C27 3767   4.258   5.776   4.741
   35CHL1  H27A 3768   4.241   5.862   4.672
   35CHL1  H27B 3769   4.356   5.737   4.705
   35CHL1  H27C 3770   4.185   5.693   4.729
   36CHL1    C3 3771   0.498   3.948   6.211
   36CHL1    H3 3772   0.480   3.844   6.178
   36CHL1    O3 3773   0.459   3.964   6.352
   36CHL1   H3' 3774   0.370   3.930   6.354
   36CHL1    C4 3775   0.644   3.996   6.183
   36CHL1   H4A 3776   0.656   4.099   6.222
   36CHL1   H4B 3777   0.710   3.928   6.241
   36CHL1    C5 3778   0.670   3.993   6.035
   36CHL1    C6 3779   0.778   3.926   5.989
   36CHL1    H6 3780   0.850   3.886   6.061
   36CHL1    C7 3781   0.808   3.893   5.845
   36CHL1   H7A 3782   0.917   3.897   5.828
   36CHL1   H7B 3783   0.764   3.796   5.813
   36CHL1    C8 3784   0.734   4.004   5.754
   36CHL1    H8 3785   0.775   4.107   5.763
   36CHL1   C14 3786   0.736   3.959   5.607
   36CHL1   H14 3787   0.677   3.865   5.601
   36CHL1   C15 3788   0.877   3.924   5.548
   36CHL1  H15A 3789   0.953   4.000   5.577
   36CHL1  H15B 3790   0.923   3.825   5.567
   36CHL1   C16 3791   0.858   3.942   5.397
   36CHL1  H16A 3792   0.935   4.012   5.358
   36CHL1  H16B 3793   0.870   3.841   5.352
   36CHL1   C17 3794   0.711   3.986   5.369
   36CHL1   H17 3795   0.655   3.890   5.370
   36CHL1   C13 3796   0.670   4.050   5.505
   36CHL1   C18 3797   0.727   4.194   5.513
   36CHL1  H18A 3798   0.681   4.253   5.431
   36CHL1  H18B 3799   0.700   4.239   5.611
   36CHL1  H18C 3800   0.836   4.195   5.492
   36CHL1   C12 3801   0.513   4.040   5.539
   36CHL1  H12A 3802   0.456   4.106   5.470
   36CHL1  H12B 3803   0.486   3.934   5.517
   36CHL1   C11 3804   0.494   4.077   5.687
   36CHL1  H11A 3805   0.509   4.186   5.702
   36CHL1  H11B 3806   0.392   4.048   5.720
   36CHL1    C9 3807   0.585   4.002   5.795
   36CHL1    H9 3808   0.542   3.900   5.789
   36CHL1   C10 3809   0.568   4.055   5.937
   36CHL1   C19 3810   0.580   4.205   5.935
   36CHL1  H19A 3811   0.484   4.245   5.897
   36CHL1  H19B 3812   0.600   4.234   6.041
   36CHL1  H19C 3813   0.667   4.248   5.880
   36CHL1    C1 3814   0.427   4.027   5.988
   36CHL1   H1A 3815   0.351   4.092   5.940
   36CHL1   H1B 3816   0.406   3.924   5.952
   36CHL1    C2 3817   0.402   4.042   6.134
   36CHL1   H2A 3818   0.297   4.022   6.161
   36CHL1   H2B 3819   0.425   4.144   6.173
   36CHL1   C20 3820   0.700   4.062   5.234
   36CHL1   H20 3821   0.768   4.149   5.242
   36CHL1   C21 3822   0.552   4.109   5.217
   36CHL1  H21A 3823   0.509   4.167   5.301
   36CHL1  H21B 3824   0.488   4.019   5.208
   36CHL1  H21C 3825   0.542   4.166   5.121
   36CHL1   C22 3826   0.745   3.975   5.109
   36CHL1  H22A 3827   0.843   3.929   5.135
   36CHL1  H22B 3828   0.671   3.893   5.096
   36CHL1   C23 3829   0.748   4.051   4.976
   36CHL1  H23A 3830   0.649   4.079   4.934
   36CHL1  H23B 3831   0.804   4.146   4.985
   36CHL1   C24 3832   0.805   3.958   4.857
   36CHL1  H24A 3833   0.890   3.893   4.885
   36CHL1  H24B 3834   0.730   3.882   4.828
   36CHL1   C25 3835   0.847   4.020   4.723
   36CHL1   H25 3836   0.871   3.937   4.652
   36CHL1   C26 3837   0.733   4.102   4.665
   36CHL1  H26A 3838   0.640   4.045   4.686
   36CHL1  H26B 3839   0.725   4.202   4.711
   36CHL1  H26C 3840   0.735   4.100   4.554
   36CHL1   C27 3841   0.975   4.101   4.748
   36CHL1  H27A 3842   0.944   4.178   4.822
   36CHL1  H27B 3843   1.054   4.034   4.788
   36CHL1  H27C 3844   1.014   4.149   4.656
   37CHL1    C3 3845   0.823   0.107   5.691
   37CHL1    H3 3846   0.932   0.087   5.680
   37CHL1    O3 3847   0.776   0.084   5.825
   37CHL1   H3' 3848   0.778   6.871   5.828
   37CHL1    C4 3849   0.786   0.256   5.664
   37CHL1   H4A 3850   0.676   0.268   5.676
   37CHL1   H4B 3851   0.844   0.320   5.734
   37CHL1    C5 3852   0.819   0.291   5.523
   37CHL1    C6 3853   0.906   0.386   5.493
   37CHL1    H6 3854   0.955   0.442   5.573
   37CHL1    C7 3855   0.928   0.425   5.347
   37CHL1   H7A 3856   0.932   0.535   5.330
   37CHL1   H7B 3857   1.018   0.372   5.308
   37CHL1    C8 3858   0.810   0.382   5.253
   37CHL1    H8 3859   0.719   0.437   5.285
   37CHL1   C14 3860   0.856   0.409   5.112
   37CHL1   H14 3861   0.945   0.344   5.103
   37CHL1   C15 3862   0.900   0.541   5.069
   37CHL1  H15A 3863   0.829   0.623   5.096
   37CHL1  H15B 3864   1.007   0.566   5.089
   37CHL1   C16 3865   0.898   0.532   4.916
   37CHL1  H16A 3866   0.832   0.616   4.885
   37CHL1  H16B 3867   1.003   0.553   4.885
   37CHL1   C17 3868   0.837   0.394   4.873
   37CHL1   H17 3869   0.921   0.321   4.867
   37CHL1   C13 3870   0.763   0.352   5.000
   37CHL1   C18 3871   0.625   0.424   5.009
   37CHL1  H18A 3872   0.554   0.385   4.933
   37CHL1  H18B 3873   0.568   0.412   5.103
   37CHL1  H18C 3874   0.637   0.534   5.001
   37CHL1   C12 3875   0.752   0.195   5.021
   37CHL1  H12A 3876   0.666   0.160   4.959
   37CHL1  H12B 3877   0.851   0.152   4.998
   37CHL1   C11 3878   0.708   0.160   5.160
   37CHL1  H11A 3879   0.607   0.201   5.184
   37CHL1  H11B 3880   0.700   0.051   5.181
   37CHL1    C9 3881   0.790   0.229   5.271
   37CHL1    H9 3882   0.887   0.175   5.267
   37CHL1   C10 3883   0.736   0.205   5.416
   37CHL1   C19 3884   0.585   0.233   5.429
   37CHL1  H19A 3885   0.533   0.160   5.364
   37CHL1  H19B 3886   0.552   0.215   5.534
   37CHL1  H19C 3887   0.560   0.339   5.406
   37CHL1    C1 3888   0.762   0.059   5.446
   37CHL1   H1A 3889   0.688   6.878   5.393
   37CHL1   H1B 3890   0.861   0.022   5.410
   37CHL1    C2 3891   0.740   0.020   5.590
   37CHL1   H2A 3892   0.771   6.798   5.613
   37CHL1   H2B 3893   0.634   0.045   5.611
   37CHL1   C20 3894   0.758   0.402   4.736
   37CHL1   H20 3895   0.667   0.464   4.749
   37CHL1   C21 3896   0.719   0.263   4.691
   37CHL1  H21A 3897   0.686   0.262   4.585
   37CHL1  H21B 3898   0.637   0.219   4.752
   37CHL1  H21C 3899   0.806   0.194   4.690
   37CHL1   C22 3900   0.841   0.472   4.626
   37CHL1  H22A 3901   0.775   0.493   4.539
   37CHL1  H22B 3902   0.852   0.575   4.667
   37CHL1   C23 3903   0.971   0.400   4.580
   37CHL1  H23A 3904   1.039   0.397   4.669
   37CHL1  H23B 3905   0.962   0.304   4.527
   37CHL1   C24 3906   1.057   0.485   4.472
   37CHL1  H24A 3907   0.982   0.509   4.393
   37CHL1  H24B 3908   1.083   0.581   4.522
   37CHL1   C25 3909   1.162   0.417   4.390
   37CHL1   H25 3910   1.114   0.324   4.352
   37CHL1   C26 3911   1.187   0.513   4.277
   37CHL1  H26A 3912   1.105   0.522   4.201
   37CHL1  H26B 3913   1.210   0.618   4.304
   37CHL1  H26C 3914   1.279   0.481   4.223
   37CHL1   C27 3915   1.292   0.378   4.464
   37CHL1  H27A 3916   1.263   0.310   4.547
   37CHL1  H27B 3917   1.358   0.325   4.392
   37CHL1  H27C 3918   1.336   0.476   4.490
   38CHL1    C3 3919   1.513   1.084   5.814
   38CHL1    H3 3920   1.408   1.055   5.834
   38CHL1    O3 3921   1.572   1.067   5.941
   38CHL1   H3' 3922   1.549   1.139   6.000
   38CHL1    C4 3923   1.589   0.993   5.717
   38CHL1   H4A 3924   1.697   1.019   5.717
   38CHL1   H4B 3925   1.577   0.886   5.746
   38CHL1    C5 3926   1.552   1.012   5.569
   38CHL1    C6 3927   1.519   0.905   5.492
   38CHL1    H6 3928   1.522   0.809   5.545
   38CHL1    C7 3929   1.477   0.913   5.352
   38CHL1   H7A 3930   1.543   0.846   5.295
   38CHL1   H7B 3931   1.371   0.879   5.348
   38CHL1    C8 3932   1.478   1.056   5.290
   38CHL1    H8 3933   1.587   1.073   5.280
   38CHL1   C14 3934   1.401   1.056   5.163
   38CHL1   H14 3935   1.295   1.035   5.190
   38CHL1   C15 3936   1.442   0.955   5.048
   38CHL1  H15A 3937   1.552   0.937   5.045
   38CHL1  H15B 3938   1.392   0.858   5.069
   38CHL1   C16 3939   1.390   1.024   4.923
   38CHL1  H16A 3940   1.469   1.033   4.846
   38CHL1  H16B 3941   1.319   0.947   4.886
   38CHL1   C17 3942   1.325   1.157   4.967
   38CHL1   H17 3943   1.219   1.141   4.996
   38CHL1   C13 3944   1.394   1.192   5.104
   38CHL1   C18 3945   1.534   1.248   5.067
   38CHL1  H18A 3946   1.577   1.193   4.981
   38CHL1  H18B 3947   1.532   1.354   5.034
   38CHL1  H18C 3948   1.596   1.237   5.159
   38CHL1   C12 3949   1.322   1.272   5.204
   38CHL1  H12A 3950   1.303   1.373   5.162
   38CHL1  H12B 3951   1.221   1.231   5.223
   38CHL1   C11 3952   1.389   1.296   5.336
   38CHL1  H11A 3953   1.478   1.361   5.322
   38CHL1  H11B 3954   1.310   1.346   5.396
   38CHL1    C9 3955   1.431   1.160   5.391
   38CHL1    H9 3956   1.338   1.117   5.434
   38CHL1   C10 3957   1.528   1.159   5.521
   38CHL1   C19 3958   1.664   1.222   5.484
   38CHL1  H19A 3959   1.723   1.217   5.578
   38CHL1  H19B 3960   1.725   1.179   5.402
   38CHL1  H19C 3961   1.644   1.331   5.470
   38CHL1    C1 3962   1.459   1.246   5.627
   38CHL1   H1A 3963   1.462   1.349   5.587
   38CHL1   H1B 3964   1.351   1.222   5.623
   38CHL1    C2 3965   1.517   1.226   5.765
   38CHL1   H2A 3966   1.447   1.282   5.831
   38CHL1   H2B 3967   1.619   1.269   5.757
   38CHL1   C20 3968   1.330   1.264   4.856
   38CHL1   H20 3969   1.432   1.294   4.823
   38CHL1   C21 3970   1.270   1.402   4.898
   38CHL1  H21A 3971   1.330   1.456   4.974
   38CHL1  H21B 3972   1.169   1.388   4.943
   38CHL1  H21C 3973   1.267   1.472   4.812
   38CHL1   C22 3974   1.254   1.199   4.740
   38CHL1  H22A 3975   1.300   1.102   4.710
   38CHL1  H22B 3976   1.153   1.168   4.773
   38CHL1   C23 3977   1.259   1.288   4.618
   38CHL1  H23A 3978   1.192   1.376   4.630
   38CHL1  H23B 3979   1.357   1.338   4.604
   38CHL1   C24 3980   1.201   1.223   4.492
   38CHL1  H24A 3981   1.235   1.119   4.473
   38CHL1  H24B 3982   1.091   1.218   4.510
   38CHL1   C25 3983   1.224   1.295   4.358
   38CHL1   H25 3984   1.190   1.400   4.365
   38CHL1   C26 3985   1.376   1.295   4.309
   38CHL1  H26A 3986   1.409   1.190   4.294
   38CHL1  H26B 3987   1.385   1.351   4.214
   38CHL1  H26C 3988   1.434   1.350   4.386
   38CHL1   C27 3989   1.137   1.225   4.246
   38CHL1  H27A 3990   1.032   1.216   4.282
   38CHL1  H27B 3991   1.133   1.267   4.143
   38CHL1  H27C 3992   1.167   1.120   4.227
   39CHL1    C3 3993   3.859   1.618   5.435
   39CHL1    H3 3994   3.874   1.508   5.436
   39CHL1    O3 3995   3.812   1.647   5.560
   39CHL1   H3' 3996   3.764   1.569   5.590
   39CHL1    C4 3997   3.991   1.691   5.404
   39CHL1   H4A 3998   3.989   1.802   5.406
   39CHL1   H4B 3999   4.068   1.663   5.479
   39CHL1    C5 4000   4.040   1.654   5.268
   39CHL1    C6 4001   4.166   1.607   5.258
   39CHL1    H6 4002   4.227   1.609   5.349
   39CHL1    C7 4003   4.230   1.589   5.119
   39CHL1   H7A 4004   4.332   1.632   5.113
   39CHL1   H7B 4005   4.249   1.483   5.095
   39CHL1    C8 4006   4.155   1.651   5.004
   39CHL1    H8 4007   4.171   1.761   4.999
   39CHL1   C14 4008   4.205   1.610   4.872
   39CHL1   H14 4009   4.185   1.500   4.875
   39CHL1   C15 4010   4.354   1.616   4.838
   39CHL1  H15A 4011   4.396   1.719   4.847
   39CHL1  H15B 4012   4.410   1.552   4.910
   39CHL1   C16 4013   4.353   1.553   4.698
   39CHL1  H16A 4014   4.434   1.598   4.638
   39CHL1  H16B 4015   4.361   1.442   4.700
   39CHL1   C17 4016   4.208   1.585   4.636
   39CHL1   H17 4017   4.172   1.481   4.618
   39CHL1   C13 4018   4.127   1.641   4.751
   39CHL1   C18 4019   4.128   1.794   4.741
   39CHL1  H18A 4020   4.069   1.837   4.657
   39CHL1  H18B 4021   4.081   1.843   4.829
   39CHL1  H18C 4022   4.233   1.830   4.738
   39CHL1   C12 4023   3.985   1.580   4.773
   39CHL1  H12A 4024   3.924   1.608   4.684
   39CHL1  H12B 4025   3.989   1.472   4.799
   39CHL1   C11 4026   3.914   1.639   4.889
   39CHL1  H11A 4027   3.907   1.746   4.860
   39CHL1  H11B 4028   3.809   1.601   4.898
   39CHL1    C9 4029   4.005   1.615   5.012
   39CHL1    H9 4030   3.999   1.504   5.017
   39CHL1   C10 4031   3.938   1.673   5.143
   39CHL1   C19 4032   3.918   1.826   5.112
   39CHL1  H19A 4033   3.818   1.834   5.065
   39CHL1  H19B 4034   3.924   1.893   5.200
   39CHL1  H19C 4035   3.987   1.858   5.031
   39CHL1    C1 4036   3.802   1.609   5.183
   39CHL1   H1A 4037   3.724   1.634   5.108
   39CHL1   H1B 4038   3.821   1.500   5.173
   39CHL1    C2 4039   3.755   1.652   5.325
   39CHL1   H2A 4040   3.666   1.592   5.354
   39CHL1   H2B 4041   3.728   1.759   5.316
   39CHL1   C20 4042   4.204   1.666   4.505
   39CHL1   H20 4043   4.242   1.769   4.522
   39CHL1   C21 4044   4.058   1.669   4.452
   39CHL1  H21A 4045   4.023   1.567   4.427
   39CHL1  H21B 4046   4.057   1.723   4.354
   39CHL1  H21C 4047   3.989   1.724   4.520
   39CHL1   C22 4048   4.301   1.608   4.392
   39CHL1  H22A 4049   4.331   1.506   4.424
   39CHL1  H22B 4050   4.239   1.593   4.301
   39CHL1   C23 4051   4.429   1.695   4.365
   39CHL1  H23A 4052   4.391   1.799   4.348
   39CHL1  H23B 4053   4.488   1.702   4.459
   39CHL1   C24 4054   4.504   1.639   4.242
   39CHL1  H24A 4055   4.521   1.532   4.264
   39CHL1  H24B 4056   4.430   1.647   4.159
   39CHL1   C25 4057   4.635   1.706   4.211
   39CHL1   H25 4058   4.681   1.730   4.309
   39CHL1   C26 4059   4.734   1.621   4.133
   39CHL1  H26A 4060   4.826   1.682   4.128
   39CHL1  H26B 4061   4.759   1.532   4.194
   39CHL1  H26C 4062   4.712   1.594   4.027
   39CHL1   C27 4063   4.629   1.849   4.141
   39CHL1  H27A 4064   4.729   1.898   4.138
   39CHL1  H27B 4065   4.589   1.841   4.037
   39CHL1  H27C 4066   4.571   1.921   4.203
   40CHL1    C3 4067   3.733   4.094   6.043
   40CHL1    H3 4068   3.666   4.178   6.019
   40CHL1    O3 4069   3.731   4.063   6.180
   40CHL1   H3' 4070   3.638   4.070   6.203
   40CHL1    C4 4071   3.682   3.972   5.964
   40CHL1   H4A 4072   3.742   3.885   5.995
   40CHL1   H4B 4073   3.579   3.944   5.995
   40CHL1    C5 4074   3.685   3.986   5.815
   40CHL1    C6 4075   3.576   3.961   5.741
   40CHL1    H6 4076   3.482   3.936   5.793
   40CHL1    C7 4077   3.579   3.975   5.593
   40CHL1   H7A 4078   3.526   3.890   5.546
   40CHL1   H7B 4079   3.519   4.066   5.571
   40CHL1    C8 4080   3.719   3.986   5.525
   40CHL1    H8 4081   3.766   3.886   5.515
   40CHL1   C14 4082   3.708   4.053   5.394
   40CHL1   H14 4083   3.673   4.155   5.421
   40CHL1   C15 4084   3.596   4.009   5.299
   40CHL1  H15A 4085   3.611   3.899   5.290
   40CHL1  H15B 4086   3.497   4.035   5.342
   40CHL1   C16 4087   3.631   4.072   5.162
   40CHL1  H16A 4088   3.666   3.992   5.093
   40CHL1  H16B 4089   3.561   4.139   5.109
   40CHL1   C17 4090   3.756   4.155   5.189
   40CHL1   H17 4091   3.720   4.256   5.217
   40CHL1   C13 4092   3.829   4.086   5.305
   40CHL1   C18 4093   3.906   3.960   5.259
   40CHL1  H18A 4094   3.831   3.888   5.221
   40CHL1  H18B 4095   3.983   3.969   5.180
   40CHL1  H18C 4096   3.951   3.917   5.351
   40CHL1   C12 4097   3.913   4.179   5.405
   40CHL1  H12A 4098   4.005   4.201   5.348
   40CHL1  H12B 4099   3.867   4.279   5.424
   40CHL1   C11 4100   3.936   4.112   5.544
   40CHL1  H11A 4101   3.988   4.018   5.514
   40CHL1  H11B 4102   4.008   4.173   5.602
   40CHL1    C9 4103   3.810   4.070   5.616
   40CHL1    H9 4104   3.747   4.160   5.634
   40CHL1   C10 4105   3.823   4.025   5.765
   40CHL1   C19 4106   3.912   3.896   5.768
   40CHL1  H19A 4107   3.899   3.846   5.866
   40CHL1  H19B 4108   3.869   3.815   5.706
   40CHL1  H19C 4109   4.019   3.921   5.750
   40CHL1    C1 4110   3.891   4.138   5.848
   40CHL1   H1A 4111   3.998   4.150   5.820
   40CHL1   H1B 4112   3.835   4.230   5.820
   40CHL1    C2 4113   3.881   4.123   6.003
   40CHL1   H2A 4114   3.908   4.220   6.050
   40CHL1   H2B 4115   3.945   4.042   6.045
   40CHL1   C20 4116   3.846   4.179   5.067
   40CHL1   H20 4117   3.895   4.084   5.035
   40CHL1   C21 4118   3.952   4.283   5.099
   40CHL1  H21A 4119   3.909   4.373   5.147
   40CHL1  H21B 4120   3.995   4.326   5.006
   40CHL1  H21C 4121   4.036   4.248   5.162
   40CHL1   C22 4122   3.758   4.222   4.949
   40CHL1  H22A 4123   3.676   4.151   4.924
   40CHL1  H22B 4124   3.703   4.312   4.983
   40CHL1   C23 4125   3.832   4.255   4.823
   40CHL1  H23A 4126   3.883   4.350   4.849
   40CHL1  H23B 4127   3.908   4.180   4.793
   40CHL1   C24 4128   3.736   4.280   4.704
   40CHL1  H24A 4129   3.695   4.179   4.682
   40CHL1  H24B 4130   3.654   4.344   4.743
   40CHL1   C25 4131   3.816   4.341   4.581
   40CHL1   H25 4132   3.916   4.292   4.578
   40CHL1   C26 4133   3.743   4.310   4.451
   40CHL1  H26A 4134   3.821   4.291   4.373
   40CHL1  H26B 4135   3.694   4.211   4.445
   40CHL1  H26C 4136   3.678   4.394   4.417
   40CHL1   C27 4137   3.850   4.489   4.596
   40CHL1  H27A 4138   3.910   4.505   4.688
   40CHL1  H27B 4139   3.899   4.525   4.503
   40CHL1  H27C 4140   3.755   4.545   4.614
   41CHL1    C3 4141   0.867   4.979   5.866
   41CHL1    H3 4142   0.824   4.882   5.834
   41CHL1    O3 4143   0.887   4.996   6.007
   41CHL1   H3' 4144   0.922   5.085   6.017
   41CHL1    C4 4145   1.003   5.012   5.805
   41CHL1   H4A 4146   1.045   5.110   5.838
   41CHL1   H4B 4147   1.081   4.949   5.853
   41CHL1    C5 4148   0.993   5.008   5.654
   41CHL1    C6 4149   1.064   4.933   5.572
   41CHL1    H6 4150   1.142   4.865   5.609
   41CHL1    C7 4151   1.053   4.918   5.420
   41CHL1   H7A 4152   1.150   4.901   5.369
   41CHL1   H7B 4153   0.989   4.829   5.406
   41CHL1    C8 4154   0.979   5.040   5.358
   41CHL1    H8 4155   1.046   5.127   5.347
   41CHL1   C14 4156   0.937   5.002   5.214
   41CHL1   H14 4157   0.860   4.925   5.233
   41CHL1   C15 4158   1.034   4.938   5.107
   41CHL1  H15A 4159   1.132   4.989   5.110
   41CHL1  H15B 4160   1.061   4.835   5.140
   41CHL1   C16 4161   0.958   4.949   4.972
   41CHL1  H16A 4162   1.026   5.006   4.906
   41CHL1  H16B 4163   0.924   4.858   4.919
   41CHL1   C17 4164   0.834   5.043   5.010
   41CHL1   H17 4165   0.754   4.970   5.033
   41CHL1   C13 4166   0.868   5.115   5.140
   41CHL1   C18 4167   0.968   5.235   5.111
   41CHL1  H18A 4168   1.058   5.204   5.054
   41CHL1  H18B 4169   0.911   5.313   5.054
   41CHL1  H18C 4170   1.000   5.271   5.211
   41CHL1   C12 4171   0.744   5.156   5.219
   41CHL1  H12A 4172   0.701   5.245   5.169
   41CHL1  H12B 4173   0.661   5.082   5.221
   41CHL1   C11 4174   0.787   5.196   5.365
   41CHL1  H11A 4175   0.854   5.284   5.354
   41CHL1  H11B 4176   0.696   5.228   5.419
   41CHL1    C9 4177   0.857   5.085   5.441
   41CHL1    H9 4178   0.797   4.992   5.434
   41CHL1   C10 4179   0.886   5.105   5.595
   41CHL1   C19 4180   0.932   5.247   5.614
   41CHL1  H19A 4181   0.977   5.269   5.713
   41CHL1  H19B 4182   1.011   5.298   5.554
   41CHL1  H19C 4183   0.838   5.305   5.604
   41CHL1    C1 4184   0.758   5.074   5.666
   41CHL1   H1A 4185   0.680   5.145   5.631
   41CHL1   H1B 4186   0.710   4.980   5.632
   41CHL1    C2 4187   0.766   5.087   5.822
   41CHL1   H2A 4188   0.664   5.060   5.856
   41CHL1   H2B 4189   0.806   5.185   5.854
   41CHL1   C20 4190   0.799   5.123   4.877
   41CHL1   H20 4191   0.893   5.177   4.854
   41CHL1   C21 4192   0.682   5.219   4.888
   41CHL1  H21A 4193   0.600   5.171   4.947
   41CHL1  H21B 4194   0.643   5.259   4.792
   41CHL1  H21C 4195   0.712   5.312   4.941
   41CHL1   C22 4196   0.779   5.032   4.753
   41CHL1  H22A 4197   0.742   5.090   4.666
   41CHL1  H22B 4198   0.872   4.983   4.718
   41CHL1   C23 4199   0.677   4.922   4.777
   41CHL1  H23A 4200   0.719   4.843   4.844
   41CHL1  H23B 4201   0.602   4.965   4.847
   41CHL1   C24 4202   0.608   4.861   4.654
   41CHL1  H24A 4203   0.571   4.944   4.591
   41CHL1  H24B 4204   0.676   4.792   4.599
   41CHL1   C25 4205   0.474   4.783   4.688
   41CHL1   H25 4206   0.502   4.715   4.771
   41CHL1   C26 4207   0.360   4.870   4.741
   41CHL1  H26A 4208   0.261   4.828   4.714
   41CHL1  H26B 4209   0.356   4.870   4.852
   41CHL1  H26C 4210   0.362   4.977   4.712
   41CHL1   C27 4211   0.437   4.698   4.571
   41CHL1  H27A 4212   0.342   4.642   4.587
   41CHL1  H27B 4213   0.425   4.762   4.481
   41CHL1  H27C 4214   0.519   4.625   4.549
   42CHL1    C3 4215   5.768   3.827   6.097
   42CHL1    H3 4216   5.719   3.926   6.090
   42CHL1    O3 4217   5.770   3.790   6.237
   42CHL1   H3' 4218   5.821   3.709   6.230
   42CHL1    C4 4219   5.697   3.720   6.009
   42CHL1   H4A 4220   5.752   3.627   6.032
   42CHL1   H4B 4221   5.594   3.706   6.049
   42CHL1    C5 4222   5.695   3.746   5.864
   42CHL1    C6 4223   5.583   3.740   5.792
   42CHL1    H6 4224   5.487   3.701   5.830
   42CHL1    C7 4225   5.588   3.780   5.643
   42CHL1   H7A 4226   5.521   3.716   5.582
   42CHL1   H7B 4227   5.552   3.884   5.629
   42CHL1    C8 4228   5.732   3.761   5.584
   42CHL1    H8 4229   5.743   3.650   5.581
   42CHL1   C14 4230   5.737   3.795   5.435
   42CHL1   H14 4231   5.712   3.902   5.418
   42CHL1   C15 4232   5.633   3.730   5.343
   42CHL1  H15A 4233   5.640   3.620   5.355
   42CHL1  H15B 4234   5.534   3.779   5.354
   42CHL1   C16 4235   5.692   3.744   5.204
   42CHL1  H16A 4236   5.711   3.641   5.167
   42CHL1  H16B 4237   5.628   3.807   5.139
   42CHL1   C17 4238   5.835   3.811   5.212
   42CHL1   H17 4239   5.819   3.921   5.214
   42CHL1   C13 4240   5.874   3.792   5.362
   42CHL1   C18 4241   5.933   3.646   5.375
   42CHL1  H18A 4242   5.952   3.619   5.481
   42CHL1  H18B 4243   5.871   3.568   5.326
   42CHL1  H18C 4244   6.034   3.642   5.329
   42CHL1   C12 4245   5.969   3.885   5.438
   42CHL1  H12A 4246   6.072   3.877   5.398
   42CHL1  H12B 4247   5.938   3.990   5.420
   42CHL1   C11 4248   5.974   3.854   5.591
   42CHL1  H11A 4249   6.040   3.765   5.603
   42CHL1  H11B 4250   6.034   3.942   5.624
   42CHL1    C9 4251   5.838   3.839   5.671
   42CHL1    H9 4252   5.799   3.942   5.684
   42CHL1   C10 4253   5.842   3.776   5.815
   42CHL1   C19 4254   5.925   3.642   5.794
   42CHL1  H19A 4255   5.864   3.577   5.727
   42CHL1  H19B 4256   6.027   3.652   5.751
   42CHL1  H19C 4257   5.936   3.593   5.893
   42CHL1    C1 4258   5.926   3.878   5.908
   42CHL1   H1A 4259   6.031   3.863   5.878
   42CHL1   H1B 4260   5.895   3.981   5.880
   42CHL1    C2 4261   5.918   3.853   6.054
   42CHL1   H2A 4262   5.961   3.943   6.104
   42CHL1   H2B 4263   5.961   3.757   6.087
   42CHL1   C20 4264   5.923   3.771   5.091
   42CHL1   H20 4265   5.924   3.660   5.094
   42CHL1   C21 4266   6.050   3.858   5.095
   42CHL1  H21A 4267   6.035   3.968   5.102
   42CHL1  H21B 4268   6.109   3.832   5.005
   42CHL1  H21C 4269   6.127   3.832   5.172
   42CHL1   C22 4270   5.853   3.799   4.954
   42CHL1  H22A 4271   5.759   3.740   4.961
   42CHL1  H22B 4272   5.816   3.902   4.940
   42CHL1   C23 4273   5.934   3.754   4.832
   42CHL1  H23A 4274   6.025   3.817   4.825
   42CHL1  H23B 4275   5.969   3.651   4.851
   42CHL1   C24 4276   5.863   3.762   4.695
   42CHL1  H24A 4277   5.755   3.736   4.704
   42CHL1  H24B 4278   5.862   3.871   4.676
   42CHL1   C25 4279   5.932   3.696   4.578
   42CHL1   H25 4280   5.966   3.596   4.613
   42CHL1   C26 4281   5.833   3.678   4.464
   42CHL1  H26A 4282   5.752   3.609   4.495
   42CHL1  H26B 4283   5.803   3.783   4.443
   42CHL1  H26C 4284   5.875   3.640   4.368
   42CHL1   C27 4285   6.049   3.780   4.532
   42CHL1  H27A 4286   6.101   3.727   4.450
   42CHL1  H27B 4287   6.013   3.868   4.474
   42CHL1  H27C 4288   6.118   3.815   4.612
   43CHL1    C3 4289   6.524   2.041   5.823
   43CHL1    H3 4290   6.415   2.039   5.803
   43CHL1    O3 4291   6.544   2.001   5.961
   43CHL1   H3' 4292   6.531   2.071   6.025
   43CHL1    C4 4293   6.600   1.944   5.734
   43CHL1   H4A 4294   6.703   1.942   5.777
   43CHL1   H4B 4295   6.567   1.840   5.756
   43CHL1    C5 4296   6.583   1.985   5.585
   43CHL1    C6 4297   6.538   1.905   5.489
   43CHL1    H6 4298   6.515   1.802   5.517
   43CHL1    C7 4299   6.535   1.942   5.344
   43CHL1   H7A 4300   6.587   1.867   5.281
   43CHL1   H7B 4301   6.427   1.935   5.319
   43CHL1    C8 4302   6.594   2.079   5.311
   43CHL1    H8 4303   6.704   2.071   5.303
   43CHL1   C14 4304   6.540   2.131   5.173
   43CHL1   H14 4305   6.430   2.124   5.188
   43CHL1   C15 4306   6.566   2.038   5.055
   43CHL1  H15A 4307   6.676   2.021   5.066
   43CHL1  H15B 4308   6.504   1.947   5.068
   43CHL1   C16 4309   6.549   2.134   4.934
   43CHL1  H16A 4310   6.629   2.126   4.857
   43CHL1  H16B 4311   6.449   2.110   4.892
   43CHL1   C17 4312   6.542   2.278   4.994
   43CHL1   H17 4313   6.432   2.297   5.001
   43CHL1   C13 4314   6.598   2.267   5.139
   43CHL1   C18 4315   6.751   2.259   5.120
   43CHL1  H18A 4316   6.797   2.252   5.221
   43CHL1  H18B 4317   6.791   2.171   5.065
   43CHL1  H18C 4318   6.782   2.350   5.065
   43CHL1   C12 4319   6.554   2.371   5.247
   43CHL1  H12A 4320   6.601   2.468   5.219
   43CHL1  H12B 4321   6.443   2.380   5.240
   43CHL1   C11 4322   6.597   2.320   5.393
   43CHL1  H11A 4323   6.706   2.337   5.404
   43CHL1  H11B 4324   6.548   2.387   5.467
   43CHL1    C9 4325   6.559   2.175   5.424
   43CHL1    H9 4326   6.449   2.162   5.426
   43CHL1   C10 4327   6.610   2.131   5.567
   43CHL1   C19 4328   6.767   2.148   5.576
   43CHL1  H19A 4329   6.794   2.255   5.592
   43CHL1  H19B 4330   6.807   2.088   5.661
   43CHL1  H19C 4331   6.821   2.118   5.484
   43CHL1    C1 4332   6.542   2.222   5.668
   43CHL1   H1A 4333   6.579   2.326   5.666
   43CHL1   H1B 4334   6.432   2.219   5.651
   43CHL1    C2 4335   6.567   2.181   5.809
   43CHL1   H2A 4336   6.519   2.239   5.891
   43CHL1   H2B 4337   6.677   2.186   5.827
   43CHL1   C20 4338   6.591   2.382   4.892
   43CHL1   H20 4339   6.701   2.374   4.879
   43CHL1   C21 4340   6.546   2.525   4.943
   43CHL1  H21A 4341   6.446   2.529   4.990
   43CHL1  H21B 4342   6.554   2.599   4.860
   43CHL1  H21C 4343   6.620   2.561   5.017
   43CHL1   C22 4344   6.528   2.360   4.749
   43CHL1  H22A 4345   6.529   2.256   4.711
   43CHL1  H22B 4346   6.420   2.389   4.748
   43CHL1   C23 4347   6.586   2.450   4.647
   43CHL1  H23A 4348   6.605   2.555   4.676
   43CHL1  H23B 4349   6.677   2.403   4.604
   43CHL1   C24 4350   6.492   2.471   4.520
   43CHL1  H24A 4351   6.457   2.373   4.480
   43CHL1  H24B 4352   6.399   2.519   4.558
   43CHL1   C25 4353   6.561   2.546   4.398
   43CHL1   H25 4354   6.485   2.550   4.317
   43CHL1   C26 4355   6.624   2.688   4.432
   43CHL1  H26A 4356   6.670   2.718   4.335
   43CHL1  H26B 4357   6.553   2.767   4.463
   43CHL1  H26C 4358   6.707   2.670   4.504
   43CHL1   C27 4359   6.660   2.442   4.321
   43CHL1  H27A 4360   6.645   2.455   4.212
   43CHL1  H27B 4361   6.769   2.453   4.336
   43CHL1  H27C 4362   6.635   2.335   4.337
   44CHL1    C3 4363   0.067   3.085   6.051
   44CHL1    H3 4364   6.841   3.100   6.064
   44CHL1    O3 4365   0.099   3.042   6.184
   44CHL1   H3' 4366   0.195   3.042   6.187
   44CHL1    C4 4367   0.109   2.987   5.944
   44CHL1   H4A 4368   0.220   2.985   5.941
   44CHL1   H4B 4369   0.075   2.882   5.953
   44CHL1    C5 4370   0.064   3.031   5.808
   44CHL1    C6 4371   6.872   2.958   5.727
   44CHL1    H6 4372   6.838   2.856   5.748
   44CHL1    C7 4373   6.828   2.994   5.588
   44CHL1   H7A 4374   6.823   2.910   5.516
   44CHL1   H7B 4375   6.722   3.025   5.598
   44CHL1    C8 4376   0.026   3.115   5.529
   44CHL1    H8 4377   0.123   3.065   5.506
   44CHL1   C14 4378   6.858   3.168   5.404
   44CHL1   H14 4379   6.759   3.206   5.437
   44CHL1   C15 4380   6.842   3.064   5.286
   44CHL1  H15A 4381   0.045   2.994   5.288
   44CHL1  H15B 4382   6.750   3.001   5.298
   44CHL1   C16 4383   6.835   3.144   5.154
   44CHL1  H16A 4384   0.022   3.098   5.081
   44CHL1  H16B 4385   6.733   3.141   5.109
   44CHL1   C17 4386   6.865   3.290   5.194
   44CHL1   H17 4387   6.767   3.339   5.208
   44CHL1   C13 4388   0.050   3.284   5.340
   44CHL1   C18 4389   0.201   3.248   5.320
   44CHL1  H18A 4390   0.249   3.338   5.277
   44CHL1  H18B 4391   0.241   3.222   5.421
   44CHL1  H18C 4392   0.225   3.156   5.262
   44CHL1   C12 4393   0.023   3.398   5.438
   44CHL1  H12A 4394   0.061   3.495   5.399
   44CHL1  H12B 4395   6.796   3.406   5.448
   44CHL1   C11 4396   0.084   3.372   5.576
   44CHL1  H11A 4397   0.194   3.375   5.565
   44CHL1  H11B 4398   0.066   3.450   5.653
   44CHL1    C9 4399   0.046   3.231   5.633
   44CHL1    H9 4400   6.825   3.260   5.660
   44CHL1   C10 4401   0.106   3.179   5.769
   44CHL1   C19 4402   0.258   3.180   5.740
   44CHL1  H19A 4403   0.299   3.116   5.660
   44CHL1  H19B 4404   0.301   3.282   5.729
   44CHL1  H19C 4405   0.295   3.147   5.839
   44CHL1    C1 4406   0.077   3.285   5.887
   44CHL1   H1A 4407   0.134   3.375   5.855
   44CHL1   H1B 4408   6.853   3.308   5.905
   44CHL1    C2 4409   0.133   3.230   6.026
   44CHL1   H2A 4410   0.109   3.296   6.112
   44CHL1   H2B 4411   0.244   3.229   6.022
   44CHL1   C20 4412   0.049   3.359   5.083
   44CHL1   H20 4413   0.149   3.313   5.070
   44CHL1   C21 4414   0.071   3.510   5.125
   44CHL1  H21A 4415   0.120   3.559   5.037
   44CHL1  H21B 4416   0.144   3.511   5.209
   44CHL1  H21C 4417   6.868   3.577   5.148
   44CHL1   C22 4418   6.854   3.368   4.949
   44CHL1  H22A 4419   6.838   3.260   4.926
   44CHL1  H22B 4420   6.759   3.423   4.967
   44CHL1   C23 4421   0.052   3.421   4.828
   44CHL1  H23A 4422   0.061   3.530   4.849
   44CHL1  H23B 4423   0.153   3.376   4.814
   44CHL1   C24 4424   6.856   3.410   4.698
   44CHL1  H24A 4425   6.821   3.306   4.684
   44CHL1  H24B 4426   6.761   3.466   4.711
   44CHL1   C25 4427   0.045   3.456   4.565
   44CHL1   H25 4428   6.847   3.470   4.490
   44CHL1   C26 4429   0.126   3.583   4.569
   44CHL1  H26A 4430   0.156   3.610   4.466
   44CHL1  H26B 4431   0.078   3.667   4.623
   44CHL1  H26C 4432   0.221   3.571   4.627
   44CHL1   C27 4433   0.128   3.339   4.510
   44CHL1  H27A 4434   0.078   3.240   4.519
   44CHL1  H27B 4435   0.147   3.360   4.402
   44CHL1  H27C 4436   0.224   3.342   4.566
   45CHL1    C3 4437   0.105   4.464   6.055
   45CHL1    H3 4438   0.120   4.574   6.063
   45CHL1    O3 4439   0.057   4.422   6.183
   45CHL1   H3' 4440   0.101   4.477   6.248
   45CHL1    C4 4441   0.003   4.417   5.948
   45CHL1   H4A 4442   6.872   4.306   5.954
   45CHL1   H4B 4443   6.786   4.457   5.973
   45CHL1    C5 4444   0.046   4.454   5.806
   45CHL1    C6 4445   6.849   4.526   5.726
   45CHL1    H6 4446   6.751   4.567   5.754
   45CHL1    C7 4447   0.002   4.561   5.580
   45CHL1   H7A 4448   6.793   4.546   5.519
   45CHL1   H7B 4449   0.030   4.667   5.566
   45CHL1    C8 4450   0.105   4.460   5.527
   45CHL1    H8 4451   0.050   4.364   5.522
   45CHL1   C14 4452   0.159   4.517   5.397
   45CHL1   H14 4453   0.212   4.611   5.423
   45CHL1   C15 4454   0.057   4.559   5.292
   45CHL1  H15A 4455   6.855   4.489   5.275
   45CHL1  H15B 4456   0.005   4.652   5.323
   45CHL1   C16 4457   0.141   4.580   5.166
   45CHL1  H16A 4458   0.086   4.511   5.099
   45CHL1  H16B 4459   0.145   4.686   5.132
   45CHL1   C17 4460   0.284   4.521   5.198
   45CHL1   H17 4461   0.344   4.605   5.239
   45CHL1   C13 4462   0.266   4.434   5.328
   45CHL1   C18 4463   0.212   4.296   5.299
   45CHL1  H18A 4464   0.198   4.228   5.386
   45CHL1  H18B 4465   0.115   4.300   5.244
   45CHL1  H18C 4466   0.280   4.240   5.232
   45CHL1   C12 4467   0.393   4.440   5.423
   45CHL1  H12A 4468   0.481   4.394   5.373
   45CHL1  H12B 4469   0.418   4.547   5.439
   45CHL1   C11 4470   0.349   4.376   5.556
   45CHL1  H11A 4471   0.324   4.269   5.542
   45CHL1  H11B 4472   0.429   4.372   5.633
   45CHL1    C9 4473   0.222   4.448   5.624
   45CHL1    H9 4474   0.268   4.549   5.630
   45CHL1   C10 4475   0.182   4.401   5.764
   45CHL1   C19 4476   0.169   4.242   5.755
   45CHL1  H19A 4477   0.261   4.197   5.712
   45CHL1  H19B 4478   0.157   4.206   5.859
   45CHL1  H19C 4479   0.080   4.222   5.692
   45CHL1    C1 4480   0.284   4.449   5.876
   45CHL1   H1A 4481   0.386   4.413   5.848
   45CHL1   H1B 4482   0.294   4.560   5.868
   45CHL1    C2 4483   0.240   4.407   6.023
   45CHL1   H2A 4484   0.310   4.446   6.099
   45CHL1   H2B 4485   0.235   4.296   6.031
   45CHL1   C20 4486   0.351   4.459   5.081
   45CHL1   H20 4487   0.436   4.397   5.116
   45CHL1   C21 4488   0.403   4.577   4.991
   45CHL1  H21A 4489   0.485   4.547   4.923
   45CHL1  H21B 4490   0.442   4.663   5.049
   45CHL1  H21C 4491   0.319   4.598   4.922
   45CHL1   C22 4492   0.263   4.374   4.979
   45CHL1  H22A 4493   0.213   4.301   5.046
   45CHL1  H22B 4494   0.193   4.439   4.922
   45CHL1   C23 4495   0.331   4.292   4.871
   45CHL1  H23A 4496   0.375   4.360   4.795
   45CHL1  H23B 4497   0.413   4.231   4.915
   45CHL1   C24 4498   0.231   4.202   4.802
   45CHL1  H24A 4499   0.207   4.109   4.857
   45CHL1  H24B 4500   0.143   4.265   4.776
   45CHL1   C25 4501   0.283   4.146   4.669
   45CHL1   H25 4502   0.386   4.111   4.693
   45CHL1   C26 4503   0.215   4.016   4.627
   45CHL1  H26A 4504   0.107   4.039   4.629
   45CHL1  H26B 4505   0.243   3.974   4.528
   45CHL1  H26C 4506   0.239   3.940   4.704
   45CHL1   C27 4507   0.291   4.251   4.552
   45CHL1  H27A 4508   0.324   4.214   4.453
   45CHL1  H27B 4509   0.192   4.297   4.536
   45CHL1  H27C 4510   0.361   4.331   4.585
   46CHL1    C3 4511   1.953   6.011   6.160
   46CHL1    H3 4512   1.988   5.918   6.110
   46CHL1    O3 4513   1.941   5.995   6.303
   46CHL1   H3' 4514   1.879   5.922   6.313
   46CHL1    C4 4515   2.051   6.124   6.141
   46CHL1   H4A 4516   2.022   6.217   6.195
   46CHL1   H4B 4517   2.148   6.088   6.180
   46CHL1    C5 4518   2.054   6.167   5.996
   46CHL1    C6 4519   2.170   6.182   5.933
   46CHL1    H6 4520   2.260   6.167   5.995
   46CHL1    C7 4521   2.186   6.229   5.789
   46CHL1   H7A 4522   2.264   6.307   5.781
   46CHL1   H7B 4523   2.222   6.144   5.727
   46CHL1    C8 4524   2.051   6.263   5.723
   46CHL1    H8 4525   2.026   6.368   5.748
   46CHL1   C14 4526   2.062   6.250   5.570
   46CHL1   H14 4527   2.070   6.141   5.553
   46CHL1   C15 4528   2.188   6.306   5.494
   46CHL1  H15A 4529   2.201   6.412   5.525
   46CHL1  H15B 4530   2.290   6.266   5.512
   46CHL1   C16 4531   2.145   6.303   5.345
   46CHL1  H16A 4532   2.153   6.408   5.310
   46CHL1  H16B 4533   2.194   6.240   5.267
   46CHL1   C17 4534   1.995   6.270   5.346
   46CHL1   H17 4535   1.997   6.159   5.337
   46CHL1   C13 4536   1.941   6.292   5.485
   46CHL1   C18 4537   1.916   6.445   5.509
   46CHL1  H18A 4538   1.869   6.485   5.416
   46CHL1  H18B 4539   1.859   6.474   5.600
   46CHL1  H18C 4540   2.014   6.497   5.511
   46CHL1   C12 4541   1.828   6.203   5.533
   46CHL1  H12A 4542   1.734   6.216   5.474
   46CHL1  H12B 4543   1.853   6.099   5.504
   46CHL1   C11 4544   1.811   6.204   5.688
   46CHL1  H11A 4545   1.770   6.306   5.709
   46CHL1  H11B 4546   1.731   6.134   5.718
   46CHL1    C9 4547   1.939   6.177   5.775
   46CHL1    H9 4548   1.975   6.073   5.756
   46CHL1   C10 4549   1.915   6.187   5.926
   46CHL1   C19 4550   1.859   6.324   5.952
   46CHL1  H19A 4551   1.927   6.405   5.916
   46CHL1  H19B 4552   1.758   6.325   5.906
   46CHL1  H19C 4553   1.841   6.334   6.062
   46CHL1    C1 4554   1.814   6.074   5.966
   46CHL1   H1A 4555   1.713   6.111   5.938
   46CHL1   H1B 4556   1.844   5.987   5.903
   46CHL1    C2 4557   1.819   6.044   6.114
   46CHL1   H2A 4558   1.750   5.961   6.141
   46CHL1   H2B 4559   1.786   6.139   6.160
   46CHL1   C20 4560   1.926   6.326   5.220
   46CHL1   H20 4561   1.931   6.437   5.218
   46CHL1   C21 4562   1.773   6.294   5.215
   46CHL1  H21A 4563   1.767   6.186   5.241
   46CHL1  H21B 4564   1.730   6.307   5.113
   46CHL1  H21C 4565   1.719   6.348   5.296
   46CHL1   C22 4566   1.998   6.282   5.080
   46CHL1  H22A 4567   2.109   6.286   5.083
   46CHL1  H22B 4568   1.975   6.176   5.057
   46CHL1   C23 4569   1.957   6.377   4.965
   46CHL1  H23A 4570   1.989   6.324   4.872
   46CHL1  H23B 4571   1.847   6.394   4.966
   46CHL1   C24 4572   2.029   6.518   4.972
   46CHL1  H24A 4573   2.000   6.576   5.062
   46CHL1  H24B 4574   2.138   6.503   4.989
   46CHL1   C25 4575   1.997   6.598   4.846
   46CHL1   H25 4576   2.028   6.536   4.760
   46CHL1   C26 4577   1.850   6.643   4.835
   46CHL1  H26A 4578   1.821   6.700   4.926
   46CHL1  H26B 4579   1.845   6.703   4.742
   46CHL1  H26C 4580   1.790   6.549   4.832
   46CHL1   C27 4581   2.081   6.721   4.844
   46CHL1  H27A 4582   2.078   6.768   4.744
   46CHL1  H27B 4583   2.045   6.787   4.926
   46CHL1  H27C 4584   2.189   6.702   4.866
   47CHL1    C3 4585   4.031   4.661   6.068
   47CHL1    H3 4586   4.037   4.772   6.059
   47CHL1    O3 4587   4.010   4.620   6.206
   47CHL1   H3' 4588   4.094   4.633   6.250
   47CHL1    C4 4589   3.915   4.625   5.979
   47CHL1   H4A 4590   3.880   4.520   5.986
   47CHL1   H4B 4591   3.822   4.668   6.024
   47CHL1    C5 4592   3.941   4.663   5.839
   47CHL1    C6 4593   3.860   4.759   5.786
   47CHL1    H6 4594   3.776   4.792   5.850
   47CHL1    C7 4595   3.857   4.809   5.645
   47CHL1   H7A 4596   3.756   4.814   5.599
   47CHL1   H7B 4597   3.903   4.909   5.641
   47CHL1    C8 4598   3.961   4.723   5.559
   47CHL1    H8 4599   3.921   4.622   5.537
   47CHL1   C14 4600   4.002   4.804   5.435
   47CHL1   H14 4601   4.035   4.901   5.478
   47CHL1   C15 4602   3.888   4.858   5.342
   47CHL1  H15A 4603   3.818   4.772   5.340
   47CHL1  H15B 4604   3.831   4.944   5.383
   47CHL1   C16 4605   3.964   4.892   5.221
   47CHL1  H16A 4606   3.906   4.843   5.140
   47CHL1  H16B 4607   3.957   5.002   5.210
   47CHL1   C17 4608   4.111   4.841   5.233
   47CHL1   H17 4609   4.174   4.921   5.279
   47CHL1   C13 4610   4.111   4.737   5.350
   47CHL1   C18 4611   4.050   4.608   5.303
   47CHL1  H18A 4612   4.131   4.563   5.241
   47CHL1  H18B 4613   4.014   4.551   5.391
   47CHL1  H18C 4614   3.974   4.636   5.227
   47CHL1   C12 4615   4.238   4.719   5.434
   47CHL1  H12A 4616   4.321   4.670   5.379
   47CHL1  H12B 4617   4.276   4.822   5.455
   47CHL1   C11 4618   4.203   4.633   5.551
   47CHL1  H11A 4619   4.178   4.529   5.521
   47CHL1  H11B 4620   4.290   4.623   5.620
   47CHL1    C9 4621   4.094   4.699   5.642
   47CHL1    H9 4622   4.128   4.800   5.675
   47CHL1   C10 4623   4.066   4.613   5.764
   47CHL1   C19 4624   4.046   4.466   5.740
   47CHL1  H19A 4625   4.143   4.422   5.707
   47CHL1  H19B 4626   4.010   4.418   5.834
   47CHL1  H19C 4627   3.962   4.455   5.669
   47CHL1    C1 4628   4.194   4.628   5.859
   47CHL1   H1A 4629   4.278   4.564   5.827
   47CHL1   H1B 4630   4.216   4.737   5.862
   47CHL1    C2 4631   4.163   4.598   6.004
   47CHL1   H2A 4632   4.254   4.625   6.062
   47CHL1   H2B 4633   4.154   4.489   6.023
   47CHL1   C20 4634   4.177   4.802   5.095
   47CHL1   H20 4635   4.147   4.701   5.062
   47CHL1   C21 4636   4.325   4.785   5.120
   47CHL1  H21A 4637   4.384   4.793   5.026
   47CHL1  H21B 4638   4.344   4.694   5.180
   47CHL1  H21C 4639   4.365   4.867   5.183
   47CHL1   C22 4640   4.154   4.895   4.986
   47CHL1  H22A 4641   4.051   4.936   4.987
   47CHL1  H22B 4642   4.231   4.974   4.997
   47CHL1   C23 4643   4.182   4.852   4.839
   47CHL1  H23A 4644   4.289   4.823   4.829
   47CHL1  H23B 4645   4.113   4.766   4.822
   47CHL1   C24 4646   4.166   4.964   4.736
   47CHL1  H24A 4647   4.228   5.049   4.772
   47CHL1  H24B 4648   4.223   4.943   4.643
   47CHL1   C25 4649   4.020   5.012   4.703
   47CHL1   H25 4650   3.961   5.030   4.796
   47CHL1   C26 4651   4.008   5.139   4.627
   47CHL1  H26A 4652   3.912   5.193   4.639
   47CHL1  H26B 4653   4.079   5.216   4.663
   47CHL1  H26C 4654   4.041   5.116   4.523
   47CHL1   C27 4655   3.950   4.904   4.624
   47CHL1  H27A 4656   3.918   4.821   4.690
   47CHL1  H27B 4657   3.857   4.945   4.580
   47CHL1  H27C 4658   4.018   4.868   4.544
   48CHL1    C3 4659   1.337   5.630   5.627
   48CHL1    H3 4660   1.395   5.724   5.639
   48CHL1    O3 4661   1.376   5.558   5.743
   48CHL1   H3' 4662   1.451   5.501   5.724
   48CHL1    C4 4663   1.187   5.669   5.633
   48CHL1   H4A 4664   1.121   5.580   5.630
   48CHL1   H4B 4665   1.170   5.708   5.736
   48CHL1    C5 4666   1.144   5.761   5.525
   48CHL1    C6 4667   1.096   5.883   5.545
   48CHL1    H6 4668   1.083   5.928   5.645
   48CHL1    C7 4669   1.058   5.976   5.434
   48CHL1   H7A 4670   0.968   6.035   5.462
   48CHL1   H7B 4671   1.146   6.039   5.409
   48CHL1    C8 4672   1.041   5.902   5.299
   48CHL1    H8 4673   0.947   5.843   5.308
   48CHL1   C14 4674   1.038   6.000   5.175
   48CHL1   H14 4675   1.144   6.033   5.179
   48CHL1   C15 4676   0.952   6.127   5.177
   48CHL1  H15A 4677   0.854   6.087   5.210
   48CHL1  H15B 4678   0.985   6.205   5.250
   48CHL1   C16 4679   0.939   6.163   5.031
   48CHL1  H16A 4680   0.832   6.175   5.006
   48CHL1  H16B 4681   0.982   6.261   5.000
   48CHL1   C17 4682   1.001   6.049   4.945
   48CHL1   H17 4683   1.101   6.085   4.915
   48CHL1   C13 4684   1.014   5.933   5.040
   48CHL1   C18 4685   0.883   5.850   5.036
   48CHL1  H18A 4686   0.797   5.920   5.028
   48CHL1  H18B 4687   0.886   5.779   4.951
   48CHL1  H18C 4688   0.887   5.789   5.129
   48CHL1   C12 4689   1.140   5.847   5.014
   48CHL1  H12A 4690   1.137   5.783   4.924
   48CHL1  H12B 4691   1.240   5.896   5.021
   48CHL1   C11 4692   1.154   5.745   5.131
   48CHL1  H11A 4693   1.080   5.663   5.121
   48CHL1  H11B 4694   1.253   5.694   5.126
   48CHL1    C9 4695   1.158   5.808   5.272
   48CHL1    H9 4696   1.254   5.862   5.267
   48CHL1   C10 4697   1.169   5.700   5.388
   48CHL1   C19 4698   1.062   5.582   5.380
   48CHL1  H19A 4699   1.049   5.510   5.463
   48CHL1  H19B 4700   0.964   5.633   5.367
   48CHL1  H19C 4701   1.076   5.528   5.284
   48CHL1    C1 4702   1.312   5.646   5.374
   48CHL1   H1A 4703   1.305   5.581   5.285
   48CHL1   H1B 4704   1.380   5.731   5.353
   48CHL1    C2 4705   1.362   5.562   5.492
   48CHL1   H2A 4706   1.469   5.533   5.488
   48CHL1   H2B 4707   1.304   5.469   5.510
   48CHL1   C20 4708   0.942   6.033   4.799
   48CHL1   H20 4709   0.834   6.012   4.806
   48CHL1   C21 4710   1.005   5.910   4.719
   48CHL1  H21A 4711   1.102   5.945   4.677
   48CHL1  H21B 4712   0.999   5.823   4.789
   48CHL1  H21C 4713   0.946   5.875   4.632
   48CHL1   C22 4714   0.954   6.162   4.721
   48CHL1  H22A 4715   0.880   6.228   4.771
   48CHL1  H22B 4716   1.058   6.202   4.723
   48CHL1   C23 4717   0.901   6.144   4.582
   48CHL1  H23A 4718   0.973   6.083   4.524
   48CHL1  H23B 4719   0.804   6.094   4.603
   48CHL1   C24 4720   0.877   6.278   4.519
   48CHL1  H24A 4721   0.807   6.338   4.582
   48CHL1  H24B 4722   0.967   6.340   4.498
   48CHL1   C25 4723   0.810   6.267   4.375
   48CHL1   H25 4724   0.869   6.195   4.314
   48CHL1   C26 4725   0.671   6.208   4.379
   48CHL1  H26A 4726   0.663   6.108   4.427
   48CHL1  H26B 4727   0.607   6.263   4.451
   48CHL1  H26C 4728   0.641   6.206   4.272
   48CHL1   C27 4729   0.808   6.402   4.309
   48CHL1  H27A 4730   0.902   6.458   4.323
   48CHL1  H27B 4731   0.787   6.397   4.200
   48CHL1  H27C 4732   0.731   6.467   4.357
   49CHL1    C3 4733   4.434   4.269   2.750
   49CHL1    H3 4734   4.327   4.240   2.758
   49CHL1    O3 4735   4.475   4.266   2.617
   49CHL1   H3' 4736   4.556   4.317   2.618
   49CHL1    C4 4737   4.438   4.415   2.806
   49CHL1   H4A 4738   4.543   4.452   2.805
   49CHL1   H4B 4739   4.384   4.494   2.749
   49CHL1    C5 4740   4.391   4.415   2.950
   49CHL1    C6 4741   4.285   4.494   2.984
   49CHL1    H6 4742   4.232   4.567   2.921
   49CHL1    C7 4743   4.231   4.500   3.122
   49CHL1   H7A 4744   4.205   4.601   3.160
   49CHL1   H7B 4745   4.142   4.434   3.129
   49CHL1    C8 4746   4.338   4.440   3.222
   49CHL1    H8 4747   4.417   4.515   3.240
   49CHL1   C14 4748   4.278   4.425   3.364
   49CHL1   H14 4749   4.189   4.360   3.353
   49CHL1   C15 4750   4.223   4.549   3.443
   49CHL1  H15A 4751   4.279   4.645   3.439
   49CHL1  H15B 4752   4.121   4.572   3.403
   49CHL1   C16 4753   4.224   4.502   3.589
   49CHL1  H16A 4754   4.277   4.583   3.642
   49CHL1  H16B 4755   4.120   4.501   3.628
   49CHL1   C17 4756   4.299   4.369   3.595
   49CHL1   H17 4757   4.221   4.291   3.591
   49CHL1   C13 4758   4.378   4.362   3.466
   49CHL1   C18 4759   4.507   4.452   3.487
   49CHL1  H18A 4760   4.560   4.479   3.394
   49CHL1  H18B 4761   4.484   4.548   3.540
   49CHL1  H18C 4762   4.582   4.405   3.555
   49CHL1   C12 4763   4.404   4.218   3.422
   49CHL1  H12A 4764   4.481   4.167   3.482
   49CHL1  H12B 4765   4.313   4.154   3.424
   49CHL1   C11 4766   4.462   4.220   3.285
   49CHL1  H11A 4767   4.563   4.268   3.290
   49CHL1  H11B 4768   4.481   4.115   3.257
   49CHL1    C9 4769   4.387   4.305   3.170
   49CHL1    H9 4770   4.299   4.242   3.145
   49CHL1   C10 4771   4.466   4.319   3.042
   49CHL1   C19 4772   4.613   4.364   3.076
   49CHL1  H19A 4773   4.610   4.444   3.152
   49CHL1  H19B 4774   4.681   4.281   3.105
   49CHL1  H19C 4775   4.667   4.400   2.985
   49CHL1    C1 4776   4.473   4.177   2.985
   49CHL1   H1A 4777   4.545   4.120   3.048
   49CHL1   H1B 4778   4.376   4.127   3.003
   49CHL1    C2 4779   4.524   4.181   2.837
   49CHL1   H2A 4780   4.538   4.080   2.794
   49CHL1   H2B 4781   4.630   4.213   2.848
   49CHL1   C20 4782   4.377   4.339   3.726
   49CHL1   H20 4783   4.478   4.302   3.696
   49CHL1   C21 4784   4.297   4.216   3.782
   49CHL1  H21A 4785   4.189   4.240   3.795
   49CHL1  H21B 4786   4.348   4.160   3.864
   49CHL1  H21C 4787   4.313   4.136   3.706
   49CHL1   C22 4788   4.387   4.455   3.830
   49CHL1  H22A 4789   4.417   4.548   3.778
   49CHL1  H22B 4790   4.289   4.474   3.878
   49CHL1   C23 4791   4.495   4.431   3.931
   49CHL1  H23A 4792   4.481   4.330   3.975
   49CHL1  H23B 4793   4.599   4.445   3.894
   49CHL1   C24 4794   4.491   4.535   4.046
   49CHL1  H24A 4795   4.519   4.637   4.013
   49CHL1  H24B 4796   4.390   4.551   4.089
   49CHL1   C25 4797   4.572   4.500   4.180
   49CHL1   H25 4798   4.517   4.561   4.254
   49CHL1   C26 4799   4.568   4.354   4.220
   49CHL1  H26A 4800   4.461   4.324   4.226
   49CHL1  H26B 4801   4.628   4.300   4.144
   49CHL1  H26C 4802   4.622   4.337   4.316
   49CHL1   C27 4803   4.715   4.562   4.184
   49CHL1  H27A 4804   4.749   4.566   4.289
   49CHL1  H27B 4805   4.792   4.496   4.139
   49CHL1  H27C 4806   4.714   4.670   4.159
   50CHL1    C3 4807   3.830   1.628   2.977
   50CHL1    H3 4808   3.772   1.722   2.970
   50CHL1    O3 4809   3.877   1.586   2.851
   50CHL1   H3' 4810   3.947   1.523   2.868
   50CHL1    C4 4811   3.954   1.661   3.061
   50CHL1   H4A 4812   4.027   1.578   3.067
   50CHL1   H4B 4813   4.023   1.741   3.028
   50CHL1    C5 4814   3.921   1.702   3.206
   50CHL1    C6 4815   3.969   1.821   3.258
   50CHL1    H6 4816   4.039   1.887   3.206
   50CHL1    C7 4817   3.946   1.850   3.404
   50CHL1   H7A 4818   4.029   1.889   3.466
   50CHL1   H7B 4819   3.866   1.927   3.401
   50CHL1    C8 4820   3.898   1.726   3.493
   50CHL1    H8 4821   3.984   1.656   3.498
   50CHL1   C14 4822   3.853   1.766   3.635
   50CHL1   H14 4823   3.766   1.834   3.621
   50CHL1   C15 4824   3.959   1.834   3.720
   50CHL1  H15A 4825   4.060   1.788   3.721
   50CHL1  H15B 4826   3.956   1.937   3.679
   50CHL1   C16 4827   3.914   1.808   3.863
   50CHL1  H16A 4828   3.995   1.753   3.917
   50CHL1  H16B 4829   3.890   1.908   3.905
   50CHL1   C17 4830   3.782   1.718   3.860
   50CHL1   H17 4831   3.699   1.791   3.853
   50CHL1   C13 4832   3.799   1.652   3.717
   50CHL1   C18 4833   3.900   1.536   3.714
   50CHL1  H18A 4834   3.997   1.557   3.764
   50CHL1  H18B 4835   3.851   1.451   3.766
   50CHL1  H18C 4836   3.929   1.494   3.615
   50CHL1   C12 4837   3.668   1.602   3.649
   50CHL1  H12A 4838   3.621   1.520   3.706
   50CHL1  H12B 4839   3.604   1.693   3.641
   50CHL1   C11 4840   3.692   1.568   3.505
   50CHL1  H11A 4841   3.741   1.469   3.510
   50CHL1  H11B 4842   3.596   1.551   3.451
   50CHL1    C9 4843   3.786   1.658   3.416
   50CHL1    H9 4844   3.725   1.745   3.383
   50CHL1   C10 4845   3.835   1.598   3.281
   50CHL1   C19 4846   3.925   1.467   3.312
   50CHL1  H19A 4847   3.925   1.396   3.227
   50CHL1  H19B 4848   4.031   1.497   3.324
   50CHL1  H19C 4849   3.895   1.406   3.400
   50CHL1    C1 4850   3.716   1.555   3.192
   50CHL1   H1A 4851   3.683   1.462   3.244
   50CHL1   H1B 4852   3.642   1.638   3.196
   50CHL1    C2 4853   3.740   1.519   3.043
   50CHL1   H2A 4854   3.643   1.506   2.991
   50CHL1   H2B 4855   3.788   1.419   3.043
   50CHL1   C20 4856   3.765   1.631   3.981
   50CHL1   H20 4857   3.842   1.552   3.969
   50CHL1   C21 4858   3.624   1.560   3.974
   50CHL1  H21A 4859   3.590   1.526   4.074
   50CHL1  H21B 4860   3.632   1.467   3.914
   50CHL1  H21C 4861   3.549   1.639   3.948
   50CHL1   C22 4862   3.801   1.693   4.116
   50CHL1  H22A 4863   3.787   1.627   4.204
   50CHL1  H22B 4864   3.905   1.731   4.122
   50CHL1   C23 4865   3.701   1.817   4.145
   50CHL1  H23A 4866   3.743   1.898   4.083
   50CHL1  H23B 4867   3.602   1.803   4.096
   50CHL1   C24 4868   3.680   1.847   4.285
   50CHL1  H24A 4869   3.670   1.746   4.330
   50CHL1  H24B 4870   3.773   1.898   4.318
   50CHL1   C25 4871   3.551   1.927   4.330
   50CHL1   H25 4872   3.456   1.890   4.285
   50CHL1   C26 4873   3.530   1.904   4.482
   50CHL1  H26A 4874   3.506   1.803   4.522
   50CHL1  H26B 4875   3.625   1.940   4.527
   50CHL1  H26C 4876   3.443   1.962   4.519
   50CHL1   C27 4877   3.568   2.078   4.293
   50CHL1  H27A 4878   3.636   2.123   4.369
   50CHL1  H27B 4879   3.605   2.087   4.189
   50CHL1  H27C 4880   3.473   2.135   4.307
   51CHL1    C3 4881   4.302   2.497   2.536
   51CHL1    H3 4882   4.256   2.412   2.591
   51CHL1    O3 4883   4.349   2.471   2.409
   51CHL1   H3' 4884   4.368   2.560   2.379
   51CHL1    C4 4885   4.208   2.613   2.534
   51CHL1   H4A 4886   4.262   2.696   2.484
   51CHL1   H4B 4887   4.122   2.584   2.470
   51CHL1    C5 4888   4.152   2.661   2.670
   51CHL1    C6 4889   4.021   2.674   2.688
   51CHL1    H6 4890   3.953   2.656   2.604
   51CHL1    C7 4891   3.959   2.722   2.808
   51CHL1   H7A 4892   3.886   2.799   2.775
   51CHL1   H7B 4893   3.892   2.646   2.853
   51CHL1    C8 4894   4.060   2.775   2.914
   51CHL1    H8 4895   4.092   2.879   2.892
   51CHL1   C14 4896   3.994   2.771   3.053
   51CHL1   H14 4897   3.980   2.664   3.079
   51CHL1   C15 4898   3.859   2.842   3.076
   51CHL1  H15A 4899   3.864   2.945   3.035
   51CHL1  H15B 4900   3.774   2.782   3.038
   51CHL1   C16 4901   3.855   2.866   3.228
   51CHL1  H16A 4902   3.863   2.977   3.234
   51CHL1  H16B 4903   3.756   2.832   3.265
   51CHL1   C17 4904   3.978   2.815   3.288
   51CHL1   H17 4905   3.969   2.705   3.298
   51CHL1   C13 4906   4.081   2.821   3.173
   51CHL1   C18 4907   4.125   2.973   3.161
   51CHL1  H18A 4908   4.192   3.003   3.244
   51CHL1  H18B 4909   4.190   2.981   3.071
   51CHL1  H18C 4910   4.035   3.036   3.147
   51CHL1   C12 4911   4.206   2.728   3.169
   51CHL1  H12A 4912   4.274   2.760   3.251
   51CHL1  H12B 4913   4.179   2.627   3.206
   51CHL1   C11 4914   4.285   2.724   3.038
   51CHL1  H11A 4915   4.329   2.824   3.019
   51CHL1  H11B 4916   4.368   2.650   3.041
   51CHL1    C9 4917   4.188   2.686   2.916
   51CHL1    H9 4918   4.161   2.580   2.940
   51CHL1   C10 4919   4.262   2.675   2.776
   51CHL1   C19 4920   4.342   2.806   2.755
   51CHL1  H19A 4921   4.285   2.897   2.782
   51CHL1  H19B 4922   4.423   2.810   2.831
   51CHL1  H19C 4923   4.392   2.814   2.656
   51CHL1    C1 4924   4.361   2.560   2.771
   51CHL1   H1A 4925   4.449   2.598   2.828
   51CHL1   H1B 4926   4.328   2.474   2.833
   51CHL1    C2 4927   4.413   2.532   2.633
   51CHL1   H2A 4928   4.478   2.442   2.635
   51CHL1   H2B 4929   4.480   2.611   2.592
   51CHL1   C20 4930   4.013   2.868   3.428
   51CHL1   H20 4931   4.061   2.968   3.416
   51CHL1   C21 4932   4.113   2.765   3.492
   51CHL1  H21A 4933   4.202   2.743   3.430
   51CHL1  H21B 4934   4.068   2.664   3.499
   51CHL1  H21C 4935   4.140   2.810   3.591
   51CHL1   C22 4936   3.889   2.880   3.528
   51CHL1  H22A 4937   3.790   2.908   3.487
   51CHL1  H22B 4938   3.880   2.785   3.584
   51CHL1   C23 4939   3.914   2.991   3.630
   51CHL1  H23A 4940   4.004   2.960   3.688
   51CHL1  H23B 4941   3.929   3.088   3.577
   51CHL1   C24 4942   3.794   3.022   3.721
   51CHL1  H24A 4943   3.700   3.036   3.664
   51CHL1  H24B 4944   3.788   2.945   3.801
   51CHL1   C25 4945   3.801   3.159   3.798
   51CHL1   H25 4946   3.798   3.239   3.721
   51CHL1   C26 4947   3.691   3.169   3.904
   51CHL1  H26A 4948   3.698   3.266   3.958
   51CHL1  H26B 4949   3.592   3.160   3.855
   51CHL1  H26C 4950   3.705   3.079   3.968
   51CHL1   C27 4951   3.937   3.166   3.859
   51CHL1  H27A 4952   4.008   3.203   3.782
   51CHL1  H27B 4953   3.953   3.241   3.939
   51CHL1  H27C 4954   3.980   3.070   3.896
   52CHL1    C3 4955   3.348   4.108   2.629
   52CHL1    H3 4956   3.249   4.146   2.596
   52CHL1    O3 4957   3.396   4.057   2.510
   52CHL1   H3' 4958   3.482   4.101   2.509
   52CHL1    C4 4959   3.433   4.228   2.678
   52CHL1   H4A 4960   3.538   4.215   2.646
   52CHL1   H4B 4961   3.399   4.316   2.619
   52CHL1    C5 4962   3.411   4.263   2.828
   52CHL1    C6 4963   3.377   4.390   2.867
   52CHL1    H6 4964   3.363   4.472   2.796
   52CHL1    C7 4965   3.362   4.432   3.009
   52CHL1   H7A 4966   3.416   4.527   3.029
   52CHL1   H7B 4967   3.254   4.445   3.031
   52CHL1    C8 4968   3.427   4.329   3.110
   52CHL1    H8 4969   3.538   4.336   3.109
   52CHL1   C14 4970   3.373   4.344   3.255
   52CHL1   H14 4971   3.262   4.351   3.254
   52CHL1   C15 4972   3.400   4.481   3.321
   52CHL1  H15A 4973   3.505   4.503   3.293
   52CHL1  H15B 4974   3.339   4.566   3.283
   52CHL1   C16 4975   3.371   4.453   3.467
   52CHL1  H16A 4976   3.461   4.480   3.526
   52CHL1  H16B 4977   3.292   4.520   3.507
   52CHL1   C17 4978   3.337   4.299   3.482
   52CHL1   H17 4979   3.227   4.292   3.474
   52CHL1   C13 4980   3.407   4.231   3.357
   52CHL1   C18 4981   3.559   4.232   3.382
   52CHL1  H18A 4982   3.617   4.208   3.291
   52CHL1  H18B 4983   3.603   4.325   3.424
   52CHL1  H18C 4984   3.589   4.149   3.449
   52CHL1   C12 4985   3.349   4.105   3.305
   52CHL1  H12A 4986   3.366   4.022   3.377
   52CHL1  H12B 4987   3.239   4.119   3.303
   52CHL1   C11 4988   3.409   4.079   3.169
   52CHL1  H11A 4989   3.517   4.054   3.169
   52CHL1  H11B 4990   3.347   3.990   3.142
   52CHL1    C9 4991   3.383   4.190   3.064
   52CHL1    H9 4992   3.272   4.186   3.065
   52CHL1   C10 4993   3.426   4.144   2.920
   52CHL1   C19 4994   3.576   4.111   2.917
   52CHL1  H19A 4995   3.637   4.195   2.957
   52CHL1  H19B 4996   3.587   4.016   2.974
   52CHL1  H19C 4997   3.613   4.082   2.816
   52CHL1    C1 4998   3.329   4.040   2.874
   52CHL1   H1A 4999   3.351   3.950   2.934
   52CHL1   H1B 5000   3.221   4.062   2.887
   52CHL1    C2 5001   3.344   3.995   2.729
   52CHL1   H2A 5002   3.269   3.920   2.694
   52CHL1   H2B 5003   3.439   3.937   2.722
   52CHL1   C20 5004   3.374   4.247   3.619
   52CHL1   H20 5005   3.480   4.212   3.624
   52CHL1   C21 5006   3.284   4.125   3.644
   52CHL1  H21A 5007   3.178   4.154   3.634
   52CHL1  H21B 5008   3.299   4.069   3.739
   52CHL1  H21C 5009   3.285   4.058   3.556
   52CHL1   C22 5010   3.370   4.356   3.733
   52CHL1  H22A 5011   3.425   4.452   3.724
   52CHL1  H22B 5012   3.266   4.392   3.717
   52CHL1   C23 5013   3.383   4.308   3.879
   52CHL1  H23A 5014   3.322   4.217   3.896
   52CHL1  H23B 5015   3.488   4.279   3.896
   52CHL1   C24 5016   3.333   4.414   3.984
   52CHL1  H24A 5017   3.377   4.516   3.972
   52CHL1  H24B 5018   3.227   4.437   3.962
   52CHL1   C25 5019   3.356   4.361   4.120
   52CHL1   H25 5020   3.319   4.256   4.120
   52CHL1   C26 5021   3.513   4.358   4.155
   52CHL1  H26A 5022   3.515   4.322   4.260
   52CHL1  H26B 5023   3.572   4.292   4.088
   52CHL1  H26C 5024   3.551   4.462   4.149
   52CHL1   C27 5025   3.266   4.433   4.230
   52CHL1  H27A 5026   3.291   4.539   4.248
   52CHL1  H27B 5027   3.164   4.409   4.192
   52CHL1  H27C 5028   3.268   4.380   4.327
   53CHL1    C3 5029   3.450   3.130   2.651
   53CHL1    H3 5030   3.438   3.240   2.663
   53CHL1    O3 5031   3.455   3.105   2.511
   53CHL1   H3' 5032   3.524   3.042   2.487
   53CHL1    C4 5033   3.577   3.081   2.720
   53CHL1   H4A 5034   3.576   2.971   2.728
   53CHL1   H4B 5035   3.671   3.115   2.672
   53CHL1    C5 5036   3.576   3.130   2.865
   53CHL1    C6 5037   3.668   3.208   2.920
   53CHL1    H6 5038   3.758   3.233   2.863
   53CHL1    C7 5039   3.666   3.253   3.068
   53CHL1   H7A 5040   3.768   3.246   3.111
   53CHL1   H7B 5041   3.623   3.355   3.076
   53CHL1    C8 5042   3.562   3.178   3.152
   53CHL1    H8 5043   3.602   3.081   3.190
   53CHL1   C14 5044   3.516   3.263   3.272
   53CHL1   H14 5045   3.459   3.346   3.227
   53CHL1   C15 5046   3.629   3.330   3.358
   53CHL1  H15A 5047   3.705   3.256   3.392
   53CHL1  H15B 5048   3.674   3.415   3.302
   53CHL1   C16 5049   3.553   3.369   3.480
   53CHL1  H16A 5050   3.623   3.334   3.559
   53CHL1  H16B 5051   3.541   3.476   3.510
   53CHL1   C17 5052   3.416   3.306   3.479
   53CHL1   H17 5053   3.354   3.393   3.448
   53CHL1   C13 5054   3.417   3.202   3.376
   53CHL1   C18 5055   3.475   3.066   3.433
   53CHL1  H18A 5056   3.517   2.995   3.358
   53CHL1  H18B 5057   3.558   3.083   3.505
   53CHL1  H18C 5058   3.396   3.013   3.490
   53CHL1   C12 5059   3.291   3.182   3.289
   53CHL1  H12A 5060   3.208   3.137   3.348
   53CHL1  H12B 5061   3.246   3.277   3.255
   53CHL1   C11 5062   3.312   3.094   3.160
   53CHL1  H11A 5063   3.340   2.991   3.192
   53CHL1  H11B 5064   3.218   3.071   3.107
   53CHL1    C9 5065   3.427   3.164   3.077
   53CHL1    H9 5066   3.399   3.267   3.045
   53CHL1   C10 5067   3.445   3.088   2.937
   53CHL1   C19 5068   3.464   2.935   2.959
   53CHL1  H19A 5069   3.367   2.906   3.007
   53CHL1  H19B 5070   3.457   2.878   2.864
   53CHL1  H19C 5071   3.555   2.913   3.019
   53CHL1    C1 5072   3.311   3.102   2.859
   53CHL1   H1A 5073   3.234   3.034   2.903
   53CHL1   H1B 5074   3.279   3.208   2.854
   53CHL1    C2 5075   3.326   3.066   2.712
   53CHL1   H2A 5076   3.227   3.100   2.675
   53CHL1   H2B 5077   3.336   2.955   2.704
   53CHL1   C20 5078   3.355   3.288   3.624
   53CHL1   H20 5079   3.410   3.207   3.676
   53CHL1   C21 5080   3.207   3.233   3.624
   53CHL1  H21A 5081   3.199   3.138   3.566
   53CHL1  H21B 5082   3.134   3.306   3.581
   53CHL1  H21C 5083   3.173   3.200   3.724
   53CHL1   C22 5084   3.367   3.422   3.704
   53CHL1  H22A 5085   3.473   3.455   3.709
   53CHL1  H22B 5086   3.304   3.491   3.643
   53CHL1   C23 5087   3.306   3.427   3.844
   53CHL1  H23A 5088   3.304   3.532   3.880
   53CHL1  H23B 5089   3.200   3.401   3.823
   53CHL1   C24 5090   3.382   3.352   3.948
   53CHL1  H24A 5091   3.378   3.248   3.910
   53CHL1  H24B 5092   3.489   3.381   3.954
   53CHL1   C25 5093   3.318   3.352   4.088
   53CHL1   H25 5094   3.386   3.291   4.151
   53CHL1   C26 5095   3.323   3.502   4.137
   53CHL1  H26A 5096   3.425   3.540   4.118
   53CHL1  H26B 5097   3.253   3.576   4.092
   53CHL1  H26C 5098   3.308   3.505   4.247
   53CHL1   C27 5099   3.180   3.285   4.084
   53CHL1  H27A 5100   3.190   3.184   4.039
   53CHL1  H27B 5101   3.145   3.268   4.188
   53CHL1  H27C 5102   3.106   3.347   4.027
   54CHL1    C3 5103   2.732   3.160   2.635
   54CHL1    H3 5104   2.632   3.209   2.636
   54CHL1    O3 5105   2.761   3.126   2.502
   54CHL1   H3' 5106   2.854   3.101   2.507
   54CHL1    C4 5107   2.845   3.231   2.713
   54CHL1   H4A 5108   2.941   3.177   2.700
   54CHL1   H4B 5109   2.865   3.319   2.649
   54CHL1    C5 5110   2.826   3.251   2.865
   54CHL1    C6 5111   2.823   3.369   2.930
   54CHL1    H6 5112   2.827   3.457   2.865
   54CHL1    C7 5113   2.806   3.389   3.079
   54CHL1   H7A 5114   2.880   3.463   3.117
   54CHL1   H7B 5115   2.712   3.439   3.110
   54CHL1    C8 5116   2.815   3.256   3.150
   54CHL1    H8 5117   2.923   3.230   3.152
   54CHL1   C14 5118   2.762   3.268   3.292
   54CHL1   H14 5119   2.656   3.300   3.298
   54CHL1   C15 5120   2.835   3.357   3.387
   54CHL1  H15A 5121   2.942   3.335   3.366
   54CHL1  H15B 5122   2.822   3.465   3.364
   54CHL1   C16 5123   2.795   3.327   3.533
   54CHL1  H16A 5124   2.886   3.340   3.596
   54CHL1  H16B 5125   2.724   3.410   3.552
   54CHL1   C17 5126   2.740   3.185   3.519
   54CHL1   H17 5127   2.630   3.195   3.522
   54CHL1   C13 5128   2.773   3.137   3.376
   54CHL1   C18 5129   2.916   3.074   3.390
   54CHL1  H18A 5130   2.977   3.131   3.463
   54CHL1  H18B 5131   2.907   2.965   3.411
   54CHL1  H18C 5132   2.965   3.079   3.291
   54CHL1   C12 5133   2.680   3.034   3.312
   54CHL1  H12A 5134   2.666   2.942   3.373
   54CHL1  H12B 5135   2.582   3.085   3.306
   54CHL1   C11 5136   2.728   3.010   3.167
   54CHL1  H11A 5137   2.822   2.951   3.172
   54CHL1  H11B 5138   2.654   2.938   3.126
   54CHL1    C9 5139   2.738   3.146   3.085
   54CHL1    H9 5140   2.634   3.185   3.085
   54CHL1   C10 5141   2.789   3.124   2.941
   54CHL1   C19 5142   2.925   3.053   2.950
   54CHL1  H19A 5143   2.921   2.949   2.990
   54CHL1  H19B 5144   2.983   3.030   2.858
   54CHL1  H19C 5145   2.995   3.107   3.017
   54CHL1    C1 5146   2.695   3.028   2.861
   54CHL1   H1A 5147   2.689   2.926   2.904
   54CHL1   H1B 5148   2.596   3.078   2.875
   54CHL1    C2 5149   2.726   3.022   2.708
   54CHL1   H2A 5150   2.654   2.953   2.659
   54CHL1   H2B 5151   2.827   2.976   2.705
   54CHL1   C20 5152   2.780   3.088   3.639
   54CHL1   H20 5153   2.887   3.060   3.639
   54CHL1   C21 5154   2.702   2.958   3.646
   54CHL1  H21A 5155   2.714   2.903   3.742
   54CHL1  H21B 5156   2.731   2.889   3.564
   54CHL1  H21C 5157   2.595   2.976   3.622
   54CHL1   C22 5158   2.767   3.160   3.775
   54CHL1  H22A 5159   2.806   3.090   3.852
   54CHL1  H22B 5160   2.847   3.237   3.773
   54CHL1   C23 5161   2.629   3.211   3.808
   54CHL1  H23A 5162   2.565   3.236   3.720
   54CHL1  H23B 5163   2.578   3.127   3.860
   54CHL1   C24 5164   2.631   3.329   3.908
   54CHL1  H24A 5165   2.694   3.412   3.870
   54CHL1  H24B 5166   2.530   3.369   3.929
   54CHL1   C25 5167   2.691   3.304   4.050
   54CHL1   H25 5168   2.776   3.234   4.037
   54CHL1   C26 5169   2.723   3.428   4.129
   54CHL1  H26A 5170   2.814   3.479   4.091
   54CHL1  H26B 5171   2.635   3.496   4.127
   54CHL1  H26C 5172   2.735   3.399   4.236
   54CHL1   C27 5173   2.581   3.235   4.130
   54CHL1  H27A 5174   2.493   3.299   4.151
   54CHL1  H27B 5175   2.551   3.141   4.079
   54CHL1  H27C 5176   2.620   3.195   4.226
   55CHL1    C3 5177   3.690   6.276   2.896
   55CHL1    H3 5178   3.584   6.310   2.895
   55CHL1    O3 5179   3.727   6.259   2.762
   55CHL1   H3' 5180   3.788   6.185   2.765
   55CHL1    C4 5181   3.781   6.370   2.976
   55CHL1   H4A 5182   3.888   6.339   2.976
   55CHL1   H4B 5183   3.792   6.461   2.913
   55CHL1    C5 5184   3.741   6.380   3.124
   55CHL1    C6 5185   3.712   6.502   3.172
   55CHL1    H6 5186   3.716   6.596   3.114
   55CHL1    C7 5187   3.676   6.522   3.318
   55CHL1   H7A 5188   3.732   6.608   3.361
   55CHL1   H7B 5189   3.568   6.533   3.339
   55CHL1    C8 5190   3.713   6.392   3.402
   55CHL1    H8 5191   3.822   6.390   3.423
   55CHL1   C14 5192   3.641   6.404   3.536
   55CHL1   H14 5193   3.533   6.402   3.509
   55CHL1   C15 5194   3.661   6.527   3.621
   55CHL1  H15A 5195   3.766   6.560   3.612
   55CHL1  H15B 5196   3.594   6.608   3.586
   55CHL1   C16 5197   3.645   6.493   3.768
   55CHL1  H16A 5198   3.740   6.485   3.825
   55CHL1  H16B 5199   3.582   6.561   3.829
   55CHL1   C17 5200   3.598   6.343   3.763
   55CHL1   H17 5201   3.490   6.350   3.738
   55CHL1   C13 5202   3.662   6.285   3.634
   55CHL1   C18 5203   3.814   6.257   3.661
   55CHL1  H18A 5204   3.826   6.174   3.733
   55CHL1  H18B 5205   3.874   6.235   3.569
   55CHL1  H18C 5206   3.870   6.342   3.706
   55CHL1   C12 5207   3.589   6.173   3.564
   55CHL1  H12A 5208   3.595   6.083   3.628
   55CHL1  H12B 5209   3.483   6.203   3.548
   55CHL1   C11 5210   3.647   6.141   3.423
   55CHL1  H11A 5211   3.744   6.087   3.422
   55CHL1  H11B 5212   3.572   6.079   3.371
   55CHL1    C9 5213   3.661   6.269   3.332
   55CHL1    H9 5214   3.555   6.283   3.303
   55CHL1   C10 5215   3.734   6.243   3.195
   55CHL1   C19 5216   3.878   6.190   3.215
   55CHL1  H19A 5217   3.883   6.081   3.237
   55CHL1  H19B 5218   3.934   6.197   3.120
   55CHL1  H19C 5219   3.928   6.258   3.287
   55CHL1    C1 5220   3.653   6.144   3.107
   55CHL1   H1A 5221   3.644   6.047   3.161
   55CHL1   H1B 5222   3.547   6.178   3.113
   55CHL1    C2 5223   3.695   6.133   2.961
   55CHL1   H2A 5224   3.632   6.057   2.911
   55CHL1   H2B 5225   3.797   6.090   2.962
   55CHL1   C20 5226   3.609   6.262   3.899
   55CHL1   H20 5227   3.716   6.245   3.921
   55CHL1   C21 5228   3.546   6.118   3.888
   55CHL1  H21A 5229   3.618   6.051   3.836
   55CHL1  H21B 5230   3.447   6.134   3.839
   55CHL1  H21C 5231   3.532   6.061   3.982
   55CHL1   C22 5232   3.554   6.341   4.022
   55CHL1  H22A 5233   3.609   6.435   4.039
   55CHL1  H22B 5234   3.449   6.375   4.011
   55CHL1   C23 5235   3.571   6.264   4.155
   55CHL1  H23A 5236   3.532   6.160   4.153
   55CHL1  H23B 5237   3.682   6.259   4.168
   55CHL1   C24 5238   3.515   6.353   4.262
   55CHL1  H24A 5239   3.550   6.458   4.248
   55CHL1  H24B 5240   3.405   6.360   4.249
   55CHL1   C25 5241   3.547   6.320   4.412
   55CHL1   H25 5242   3.503   6.403   4.472
   55CHL1   C26 5243   3.478   6.192   4.468
   55CHL1  H26A 5244   3.368   6.208   4.473
   55CHL1  H26B 5245   3.502   6.107   4.400
   55CHL1  H26C 5246   3.526   6.171   4.566
   55CHL1   C27 5247   3.694   6.329   4.429
   55CHL1  H27A 5248   3.729   6.352   4.532
   55CHL1  H27B 5249   3.749   6.238   4.398
   55CHL1  H27C 5250   3.726   6.415   4.365
   56CHL1    C3 5251   6.046   1.911   2.876
   56CHL1    H3 5252   6.087   2.002   2.926
   56CHL1    O3 5253   6.040   1.922   2.738
   56CHL1   H3' 5254   5.966   1.870   2.708
   56CHL1    C4 5255   6.134   1.797   2.910
   56CHL1   H4A 5256   6.116   1.708   2.845
   56CHL1   H4B 5257   6.233   1.836   2.878
   56CHL1    C5 5258   6.131   1.763   3.056
   56CHL1    C6 5259   6.240   1.762   3.133
   56CHL1    H6 5260   6.338   1.781   3.087
   56CHL1    C7 5261   6.234   1.729   3.281
   56CHL1   H7A 5262   6.312   1.651   3.299
   56CHL1   H7B 5263   6.266   1.824   3.327
   56CHL1    C8 5264   6.099   1.667   3.331
   56CHL1    H8 5265   6.092   1.563   3.295
   56CHL1   C14 5266   6.096   1.662   3.483
   56CHL1   H14 5267   6.097   1.770   3.510
   56CHL1   C15 5268   6.211   1.590   3.558
   56CHL1  H15A 5269   6.250   1.494   3.517
   56CHL1  H15B 5270   6.301   1.655   3.565
   56CHL1   C16 5271   6.144   1.568   3.698
   56CHL1  H16A 5272   6.148   1.460   3.725
   56CHL1  H16B 5273   6.196   1.631   3.772
   56CHL1   C17 5274   5.990   1.614   3.686
   56CHL1   H17 5275   5.984   1.721   3.715
   56CHL1   C13 5276   5.961   1.613   3.539
   56CHL1   C18 5277   5.935   1.462   3.506
   56CHL1  H18A 5278   6.024   1.396   3.519
   56CHL1  H18B 5279   5.851   1.418   3.564
   56CHL1  H18C 5280   5.914   1.441   3.399
   56CHL1   C12 5281   5.844   1.703   3.482
   56CHL1  H12A 5282   5.746   1.665   3.520
   56CHL1  H12B 5283   5.856   1.805   3.524
   56CHL1   C11 5284   5.839   1.706   3.332
   56CHL1  H11A 5285   5.801   1.606   3.302
   56CHL1  H11B 5286   5.768   1.786   3.300
   56CHL1    C9 5287   5.980   1.744   3.267
   56CHL1    H9 5288   5.995   1.848   3.303
   56CHL1   C10 5289   5.986   1.743   3.116
   56CHL1   C19 5290   5.943   1.605   3.065
   56CHL1  H19A 5291   5.946   1.599   2.954
   56CHL1  H19B 5292   6.000   1.520   3.109
   56CHL1  H19C 5293   5.835   1.594   3.090
   56CHL1    C1 5294   5.896   1.855   3.063
   56CHL1   H1A 5295   5.793   1.835   3.098
   56CHL1   H1B 5296   5.918   1.947   3.121
   56CHL1    C2 5297   5.898   1.884   2.917
   56CHL1   H2A 5298   5.838   1.974   2.892
   56CHL1   H2B 5299   5.858   1.791   2.871
   56CHL1   C20 5300   5.902   1.550   3.795
   56CHL1   H20 5301   5.889   1.444   3.766
   56CHL1   C21 5302   5.759   1.611   3.788
   56CHL1  H21A 5303   5.692   1.566   3.864
   56CHL1  H21B 5304   5.697   1.593   3.697
   56CHL1  H21C 5305   5.763   1.721   3.801
   56CHL1   C22 5306   5.962   1.562   3.935
   56CHL1  H22A 5307   6.063   1.516   3.929
   56CHL1  H22B 5308   5.966   1.669   3.963
   56CHL1   C23 5309   5.876   1.495   4.051
   56CHL1  H23A 5310   5.817   1.572   4.105
   56CHL1  H23B 5311   5.810   1.420   4.003
   56CHL1   C24 5312   5.942   1.416   4.162
   56CHL1  H24A 5313   6.028   1.367   4.111
   56CHL1  H24B 5314   5.978   1.490   4.236
   56CHL1   C25 5315   5.850   1.311   4.230
   56CHL1   H25 5316   5.790   1.253   4.155
   56CHL1   C26 5317   5.928   1.210   4.312
   56CHL1  H26A 5318   5.860   1.126   4.334
   56CHL1  H26B 5319   6.010   1.171   4.248
   56CHL1  H26C 5320   5.961   1.264   4.404
   56CHL1   C27 5321   5.740   1.387   4.304
   56CHL1  H27A 5322   5.787   1.440   4.390
   56CHL1  H27B 5323   5.684   1.456   4.238
   56CHL1  H27C 5324   5.665   1.311   4.335
   57CHL1    C3 5325   4.660   6.852   2.936
   57CHL1    H3 5326   4.719   0.059   2.961
   57CHL1    O3 5327   4.637   6.862   2.798
   57CHL1   H3' 5328   4.626   6.771   2.768
   57CHL1    C4 5329   4.753   6.730   2.975
   57CHL1   H4A 5330   4.706   6.637   2.937
   57CHL1   H4B 5331   4.848   6.728   2.918
   57CHL1    C5 5332   4.777   6.728   3.123
   57CHL1    C6 5333   4.907   6.726   3.165
   57CHL1    H6 5334   4.992   6.726   3.096
   57CHL1    C7 5335   4.941   6.739   3.309
   57CHL1   H7A 5336   5.028   6.675   3.333
   57CHL1   H7B 5337   4.966   6.844   3.336
   57CHL1    C8 5338   4.818   6.694   3.402
   57CHL1    H8 5339   4.815   6.584   3.411
   57CHL1   C14 5340   4.850   6.741   3.543
   57CHL1   H14 5341   4.864   6.852   3.541
   57CHL1   C15 5342   4.977   6.698   3.621
   57CHL1  H15A 5343   5.006   6.593   3.597
   57CHL1  H15B 5344   5.065   6.759   3.590
   57CHL1   C16 5345   4.948   6.699   3.771
   57CHL1  H16A 5346   4.957   6.601   3.822
   57CHL1  H16B 5347   5.009   6.779   3.817
   57CHL1   C17 5348   4.801   6.753   3.782
   57CHL1   H17 5349   4.804   6.864   3.778
   57CHL1   C13 5350   4.736   6.714   3.641
   57CHL1   C18 5351   4.712   6.562   3.651
   57CHL1  H18A 5352   4.680   6.519   3.554
   57CHL1  H18B 5353   4.805   6.510   3.684
   57CHL1  H18C 5354   4.637   6.550   3.732
   57CHL1   C12 5355   4.610   6.780   3.593
   57CHL1  H12A 5356   4.520   6.748   3.649
   57CHL1  H12B 5357   4.612   0.008   3.588
   57CHL1   C11 5358   4.574   6.745   3.449
   57CHL1  H11A 5359   4.544   6.638   3.454
   57CHL1  H11B 5360   4.483   6.800   3.417
   57CHL1    C9 5361   4.697   6.767   3.356
   57CHL1    H9 5362   4.733   6.872   3.359
   57CHL1   C10 5363   4.651   6.739   3.212
   57CHL1   C19 5364   4.580   6.599   3.204
   57CHL1  H19A 5365   4.493   6.604   3.273
   57CHL1  H19B 5366   4.540   6.567   3.105
   57CHL1  H19C 5367   4.642   6.522   3.254
   57CHL1    C1 5368   4.561   6.860   3.170
   57CHL1   H1A 5369   4.463   6.869   3.221
   57CHL1   H1B 5370   4.617   0.073   3.182
   57CHL1    C2 5371   4.526   6.852   3.011
   57CHL1   H2A 5372   4.468   0.056   2.974
   57CHL1   H2B 5373   4.488   6.748   2.999
   57CHL1   C20 5374   4.726   6.721   3.913
   57CHL1   H20 5375   4.723   6.610   3.916
   57CHL1   C21 5376   4.582   6.777   3.914
   57CHL1  H21A 5377   4.516   6.718   3.846
   57CHL1  H21B 5378   4.579   0.001   3.883
   57CHL1  H21C 5379   4.539   6.764   4.015
   57CHL1   C22 5380   4.808   6.780   4.033
   57CHL1  H22A 5381   4.916   6.756   4.026
   57CHL1  H22B 5382   4.810   0.008   4.032
   57CHL1   C23 5383   4.759   6.749   4.176
   57CHL1  H23A 5384   4.824   6.813   4.239
   57CHL1  H23B 5385   4.651   6.775   4.187
   57CHL1   C24 5386   4.754   6.600   4.204
   57CHL1  H24A 5387   4.666   6.562   4.147
   57CHL1  H24B 5388   4.850   6.556   4.170
   57CHL1   C25 5389   4.731   6.579   4.358
   57CHL1   H25 5390   4.650   6.646   4.394
   57CHL1   C26 5391   4.686   6.434   4.379
   57CHL1  H26A 5392   4.769   6.371   4.342
   57CHL1  H26B 5393   4.659   6.431   4.487
   57CHL1  H26C 5394   4.594   6.412   4.321
   57CHL1   C27 5395   4.871   6.608   4.434
   57CHL1  H27A 5396   4.954   6.543   4.399
   57CHL1  H27B 5397   4.878   6.719   4.426
   57CHL1  H27C 5398   4.835   6.586   4.537
   58CHL1    C3 5399   4.599   0.637   2.980
   58CHL1    H3 5400   4.698   0.624   3.029
   58CHL1    O3 5401   4.626   0.676   2.849
   58CHL1   H3' 5402   4.602   0.605   2.788
   58CHL1    C4 5403   4.513   0.516   2.983
   58CHL1   H4A 5404   4.427   0.529   2.914
   58CHL1   H4B 5405   4.571   0.437   2.932
   58CHL1    C5 5406   4.474   0.477   3.122
   58CHL1    C6 5407   4.501   0.351   3.166
   58CHL1    H6 5408   4.544   0.277   3.097
   58CHL1    C7 5409   4.462   0.300   3.299
   58CHL1   H7A 5410   4.417   0.200   3.281
   58CHL1   H7B 5411   4.550   0.283   3.366
   58CHL1    C8 5412   4.363   0.391   3.375
   58CHL1    H8 5413   4.266   0.371   3.325
   58CHL1   C14 5414   4.367   0.359   3.524
   58CHL1   H14 5415   4.469   0.389   3.555
   58CHL1   C15 5416   4.359   0.210   3.551
   58CHL1  H15A 5417   4.266   0.172   3.505
   58CHL1  H15B 5418   4.447   0.151   3.518
   58CHL1   C16 5419   4.336   0.208   3.707
   58CHL1  H16A 5420   4.250   0.138   3.720
   58CHL1  H16B 5421   4.425   0.170   3.761
   58CHL1   C17 5422   4.283   0.356   3.741
   58CHL1   H17 5423   4.381   0.399   3.768
   58CHL1   C13 5424   4.263   0.428   3.609
   58CHL1   C18 5425   4.119   0.401   3.567
   58CHL1  H18A 5426   4.044   0.434   3.642
   58CHL1  H18B 5427   4.106   0.450   3.468
   58CHL1  H18C 5428   4.108   0.291   3.556
   58CHL1   C12 5429   4.292   0.584   3.591
   58CHL1  H12A 5430   4.223   0.649   3.648
   58CHL1  H12B 5431   4.391   0.591   3.642
   58CHL1   C11 5432   4.304   0.628   3.446
   58CHL1  H11A 5433   4.201   0.631   3.405
   58CHL1  H11B 5434   4.346   0.730   3.436
   58CHL1    C9 5435   4.397   0.539   3.364
   58CHL1    H9 5436   4.495   0.542   3.416
   58CHL1   C10 5437   4.403   0.580   3.215
   58CHL1   C19 5438   4.266   0.598   3.157
   58CHL1  H19A 5439   4.227   0.693   3.200
   58CHL1  H19B 5440   4.275   0.612   3.047
   58CHL1  H19C 5441   4.190   0.524   3.189
   58CHL1    C1 5442   4.489   0.716   3.198
   58CHL1   H1A 5443   4.434   0.802   3.242
   58CHL1   H1B 5444   4.583   0.701   3.255
   58CHL1    C2 5445   4.532   0.749   3.050
   58CHL1   H2A 5446   4.591   0.843   3.056
   58CHL1   H2B 5447   4.436   0.769   2.997
   58CHL1   C20 5448   4.181   0.362   3.860
   58CHL1   H20 5449   4.077   0.345   3.825
   58CHL1   C21 5450   4.204   0.504   3.917
   58CHL1  H21A 5451   4.310   0.511   3.949
   58CHL1  H21B 5452   4.131   0.519   4.000
   58CHL1  H21C 5453   4.184   0.575   3.834
   58CHL1   C22 5454   4.214   0.255   3.966
   58CHL1  H22A 5455   4.188   0.154   3.928
   58CHL1  H22B 5456   4.322   0.264   3.990
   58CHL1   C23 5457   4.134   0.266   4.104
   58CHL1  H23A 5458   4.156   0.370   4.138
   58CHL1  H23B 5459   4.032   0.245   4.067
   58CHL1   C24 5460   4.195   0.174   4.217
   58CHL1  H24A 5461   4.191   0.066   4.194
   58CHL1  H24B 5462   4.303   0.198   4.221
   58CHL1   C25 5463   4.126   0.191   4.350
   58CHL1   H25 5464   4.018   0.179   4.325
   58CHL1   C26 5465   4.167   0.095   4.451
   58CHL1  H26A 5466   4.269   0.120   4.487
   58CHL1  H26B 5467   4.095   0.087   4.535
   58CHL1  H26C 5468   4.179   6.874   4.413
   58CHL1   C27 5469   4.149   0.334   4.396
   58CHL1  H27A 5470   4.096   0.408   4.333
   58CHL1  H27B 5471   4.096   0.350   4.492
   58CHL1  H27C 5472   4.257   0.360   4.395
   59CHL1    C3 5473   2.903   4.575   2.874
   59CHL1    H3 5474   2.887   4.468   2.899
   59CHL1    O3 5475   2.897   4.603   2.736
   59CHL1   H3' 5476   2.907   4.698   2.725
   59CHL1    C4 5477   2.800   4.657   2.953
   59CHL1   H4A 5478   2.817   4.762   2.920
   59CHL1   H4B 5479   2.695   4.640   2.920
   59CHL1    C5 5480   2.803   4.646   3.109
   59CHL1    C6 5481   2.695   4.590   3.171
   59CHL1    H6 5482   2.604   4.554   3.121
   59CHL1    C7 5483   2.684   4.572   3.318
   59CHL1   H7A 5484   2.595   4.628   3.352
   59CHL1   H7B 5485   2.674   4.464   3.344
   59CHL1    C8 5486   2.806   4.642   3.389
   59CHL1    H8 5487   2.777   4.750   3.392
   59CHL1   C14 5488   2.813   4.591   3.525
   59CHL1   H14 5489   2.852   4.487   3.520
   59CHL1   C15 5490   2.678   4.582   3.610
   59CHL1  H15A 5491   2.592   4.643   3.577
   59CHL1  H15B 5492   2.638   4.482   3.582
   59CHL1   C16 5493   2.726   4.592   3.760
   59CHL1  H16A 5494   2.688   4.681   3.815
   59CHL1  H16B 5495   2.699   4.509   3.829
   59CHL1   C17 5496   2.884   4.593   3.752
   59CHL1   H17 5497   2.925   4.489   3.748
   59CHL1   C13 5498   2.910   4.670   3.614
   59CHL1   C18 5499   2.882   4.817   3.610
   59CHL1  H18A 5500   2.906   4.859   3.510
   59CHL1  H18B 5501   2.779   4.838   3.645
   59CHL1  H18C 5502   2.962   4.865   3.671
   59CHL1   C12 5503   3.042   4.639   3.546
   59CHL1  H12A 5504   3.126   4.679   3.606
   59CHL1  H12B 5505   3.056   4.529   3.555
   59CHL1   C11 5506   3.057   4.671   3.395
   59CHL1  H11A 5507   3.064   4.782   3.395
   59CHL1  H11B 5508   3.150   4.627   3.352
   59CHL1    C9 5509   2.932   4.619   3.312
   59CHL1    H9 5510   2.950   4.509   3.319
   59CHL1   C10 5511   2.932   4.676   3.172
   59CHL1   C19 5512   2.937   4.833   3.170
   59CHL1  H19A 5513   3.019   4.879   3.229
   59CHL1  H19B 5514   2.933   4.882   3.071
   59CHL1  H19C 5515   2.853   4.872   3.232
   59CHL1    C1 5516   3.043   4.610   3.083
   59CHL1   H1A 5517   3.140   4.652   3.119
   59CHL1   H1B 5518   3.046   4.502   3.106
   59CHL1    C2 5519   3.036   4.624   2.933
   59CHL1   H2A 5520   3.122   4.569   2.888
   59CHL1   H2B 5521   3.060   4.729   2.904
   59CHL1   C20 5522   2.946   4.667   3.880
   59CHL1   H20 5523   2.909   4.771   3.890
   59CHL1   C21 5524   3.099   4.684   3.857
   59CHL1  H21A 5525   3.124   4.781   3.809
   59CHL1  H21B 5526   3.152   4.598   3.810
   59CHL1  H21C 5527   3.145   4.693   3.957
   59CHL1   C22 5528   2.927   4.593   4.017
   59CHL1  H22A 5529   2.837   4.529   4.003
   59CHL1  H22B 5530   3.003   4.513   4.032
   59CHL1   C23 5531   2.934   4.692   4.140
   59CHL1  H23A 5532   3.037   4.728   4.157
   59CHL1  H23B 5533   2.870   4.778   4.111
   59CHL1   C24 5534   2.852   4.644   4.261
   59CHL1  H24A 5535   2.751   4.604   4.239
   59CHL1  H24B 5536   2.911   4.562   4.308
   59CHL1   C25 5537   2.838   4.759   4.369
   59CHL1   H25 5538   2.775   4.833   4.314
   59CHL1   C26 5539   2.762   4.711   4.491
   59CHL1  H26A 5540   2.665   4.660   4.474
   59CHL1  H26B 5541   2.834   4.643   4.542
   59CHL1  H26C 5542   2.756   4.798   4.560
   59CHL1   C27 5543   2.968   4.825   4.412
   59CHL1  H27A 5544   2.950   4.888   4.501
   59CHL1  H27B 5545   3.044   4.755   4.454
   59CHL1  H27C 5546   3.020   4.880   4.331
   60CHL1    C3 5547   5.383   5.981   2.946
   60CHL1    H3 5548   5.488   6.014   2.961
   60CHL1    O3 5549   5.342   5.997   2.812
   60CHL1   H3' 5550   5.413   6.036   2.761
   60CHL1    C4 5551   5.380   5.837   2.986
   60CHL1   H4A 5552   5.284   5.784   2.974
   60CHL1   H4B 5553   5.452   5.789   2.917
   60CHL1    C5 5554   5.408   5.817   3.132
   60CHL1    C6 5555   5.507   5.741   3.174
   60CHL1    H6 5556   5.563   5.686   3.096
   60CHL1    C7 5557   5.555   5.721   3.314
   60CHL1   H7A 5558   5.579   5.614   3.328
   60CHL1   H7B 5559   5.661   5.756   3.318
   60CHL1    C8 5560   5.457   5.771   3.423
   60CHL1    H8 5561   5.376   5.695   3.432
   60CHL1   C14 5562   5.515   5.788   3.561
   60CHL1   H14 5563   5.593   5.867   3.552
   60CHL1   C15 5564   5.597   5.669   3.615
   60CHL1  H15A 5565   5.534   5.579   3.596
   60CHL1  H15B 5566   5.699   5.658   3.573
   60CHL1   C16 5567   5.608   5.708   3.772
   60CHL1  H16A 5568   5.565   5.630   3.838
   60CHL1  H16B 5569   5.715   5.732   3.788
   60CHL1   C17 5570   5.534   5.843   3.788
   60CHL1   H17 5571   5.604   5.926   3.762
   60CHL1   C13 5572   5.426   5.845   3.674
   60CHL1   C18 5573   5.313   5.747   3.714
   60CHL1  H18A 5574   5.364   5.658   3.758
   60CHL1  H18B 5575   5.247   5.782   3.796
   60CHL1  H18C 5576   5.252   5.710   3.629
   60CHL1   C12 5577   5.366   5.976   3.633
   60CHL1  H12A 5578   5.293   6.027   3.699
   60CHL1  H12B 5579   5.450   6.047   3.616
   60CHL1   C11 5580   5.301   5.959   3.488
   60CHL1  H11A 5581   5.216   5.892   3.516
   60CHL1  H11B 5582   5.254   6.057   3.468
   60CHL1    C9 5583   5.395   5.895   3.379
   60CHL1    H9 5584   5.481   5.965   3.369
   60CHL1   C10 5585   5.330   5.901   3.237
   60CHL1   C19 5586   5.182   5.861   3.247
   60CHL1  H19A 5587   5.120   5.942   3.291
   60CHL1  H19B 5588   5.137   5.832   3.150
   60CHL1  H19C 5589   5.167   5.767   3.305
   60CHL1    C1 5590   5.331   6.044   3.186
   60CHL1   H1A 5591   5.275   6.106   3.259
   60CHL1   H1B 5592   5.431   6.088   3.205
   60CHL1    C2 5593   5.300   6.073   3.039
   60CHL1   H2A 5594   5.329   6.178   3.015
   60CHL1   H2B 5595   5.191   6.072   3.018
   60CHL1   C20 5596   5.481   5.888   3.925
   60CHL1   H20 5597   5.394   5.952   3.899
   60CHL1   C21 5598   5.584   5.982   3.995
   60CHL1  H21A 5599   5.687   6.002   3.958
   60CHL1  H21B 5600   5.591   5.943   4.099
   60CHL1  H21C 5601   5.541   6.083   4.011
   60CHL1   C22 5602   5.435   5.777   4.030
   60CHL1  H22A 5603   5.393   5.690   3.973
   60CHL1  H22B 5604   5.519   5.727   4.083
   60CHL1   C23 5605   5.337   5.822   4.130
   60CHL1  H23A 5606   5.364   5.922   4.171
   60CHL1  H23B 5607   5.242   5.831   4.072
   60CHL1   C24 5608   5.315   5.712   4.236
   60CHL1  H24A 5609   5.298   5.611   4.192
   60CHL1  H24B 5610   5.402   5.703   4.305
   60CHL1   C25 5611   5.203   5.753   4.327
   60CHL1   H25 5612   5.230   5.852   4.370
   60CHL1   C26 5613   5.078   5.766   4.247
   60CHL1  H26A 5614   4.997   5.779   4.322
   60CHL1  H26B 5615   5.079   5.857   4.183
   60CHL1  H26C 5616   5.058   5.676   4.185
   60CHL1   C27 5617   5.159   5.662   4.444
   60CHL1  H27A 5618   5.072   5.698   4.503
   60CHL1  H27B 5619   5.133   5.569   4.390
   60CHL1  H27C 5620   5.247   5.634   4.506
   61CHL1    C3 5621   5.847   2.381   2.748
   61CHL1    H3 5622   5.896   2.283   2.730
   61CHL1    O3 5623   5.878   2.474   2.640
   61CHL1   H3' 5624   5.819   2.547   2.658
   61CHL1    C4 5625   5.693   2.372   2.737
   61CHL1   H4A 5626   5.641   2.470   2.740
   61CHL1   H4B 5627   5.668   2.329   2.637
   61CHL1    C5 5628   5.649   2.277   2.851
   61CHL1    C6 5629   5.566   2.170   2.824
   61CHL1    H6 5630   5.527   2.152   2.722
   61CHL1    C7 5631   5.509   2.085   2.933
   61CHL1   H7A 5632   5.399   2.066   2.927
   61CHL1   H7B 5633   5.558   1.986   2.931
   61CHL1    C8 5634   5.532   2.147   3.071
   61CHL1    H8 5635   5.462   2.232   3.085
   61CHL1   C14 5636   5.492   2.039   3.175
   61CHL1   H14 5637   5.557   1.950   3.164
   61CHL1   C15 5638   5.348   1.988   3.173
   61CHL1  H15A 5639   5.263   2.058   3.153
   61CHL1  H15B 5640   5.329   1.914   3.092
   61CHL1   C16 5641   5.334   1.912   3.301
   61CHL1  H16A 5642   5.245   1.948   3.358
   61CHL1  H16B 5643   5.322   1.804   3.276
   61CHL1   C17 5644   5.462   1.954   3.391
   61CHL1   H17 5645   5.532   1.872   3.365
   61CHL1   C13 5646   5.514   2.080   3.323
   61CHL1   C18 5647   5.428   2.193   3.361
   61CHL1  H18A 5648   5.321   2.185   3.332
   61CHL1  H18B 5649   5.419   2.213   3.469
   61CHL1  H18C 5650   5.468   2.284   3.311
   61CHL1   C12 5651   5.665   2.113   3.338
   61CHL1  H12A 5652   5.677   2.161   3.438
   61CHL1  H12B 5653   5.737   2.029   3.349
   61CHL1   C11 5654   5.723   2.216   3.236
   61CHL1  H11A 5655   5.690   2.316   3.270
   61CHL1  H11B 5656   5.834   2.217   3.243
   61CHL1    C9 5657   5.673   2.193   3.089
   61CHL1    H9 5658   5.730   2.106   3.050
   61CHL1   C10 5659   5.700   2.311   2.997
   61CHL1   C19 5660   5.630   2.431   3.042
   61CHL1  H19A 5661   5.671   2.463   3.141
   61CHL1  H19B 5662   5.651   2.524   2.985
   61CHL1  H19C 5663   5.520   2.438   3.039
   61CHL1    C1 5664   5.853   2.342   2.999
   61CHL1   H1A 5665   5.880   2.392   3.094
   61CHL1   H1B 5666   5.913   2.249   2.988
   61CHL1    C2 5667   5.895   2.435   2.881
   61CHL1   H2A 5668   6.003   2.459   2.889
   61CHL1   H2B 5669   5.843   2.531   2.902
   61CHL1   C20 5670   5.442   1.938   3.549
   61CHL1   H20 5671   5.391   2.029   3.588
   61CHL1   C21 5672   5.581   1.928   3.610
   61CHL1  H21A 5673   5.625   2.030   3.606
   61CHL1  H21B 5674   5.648   1.862   3.550
   61CHL1  H21C 5675   5.574   1.901   3.718
   61CHL1   C22 5676   5.372   1.809   3.584
   61CHL1  H22A 5677   5.283   1.781   3.525
   61CHL1  H22B 5678   5.440   1.722   3.569
   61CHL1   C23 5679   5.313   1.816   3.731
   61CHL1  H23A 5680   5.368   1.887   3.797
   61CHL1  H23B 5681   5.212   1.860   3.726
   61CHL1   C24 5682   5.314   1.679   3.802
   61CHL1  H24A 5683   5.270   1.599   3.740
   61CHL1  H24B 5684   5.421   1.648   3.805
   61CHL1   C25 5685   5.256   1.696   3.953
   61CHL1   H25 5686   5.300   1.786   4.002
   61CHL1   C26 5687   5.105   1.720   3.972
   61CHL1  H26A 5688   5.040   1.657   3.908
   61CHL1  H26B 5689   5.071   1.694   4.075
   61CHL1  H26C 5690   5.063   1.821   3.951
   61CHL1   C27 5691   5.298   1.572   4.035
   61CHL1  H27A 5692   5.220   1.498   4.006
   61CHL1  H27B 5693   5.402   1.550   4.002
   61CHL1  H27C 5694   5.291   1.593   4.144
   62CHL1    C3 5695   1.466   0.527   2.722
   62CHL1    H3 5696   1.424   0.626   2.748
   62CHL1    O3 5697   1.459   0.511   2.581
   62CHL1   H3' 5698   1.527   0.570   2.547
   62CHL1    C4 5699   1.604   0.521   2.774
   62CHL1   H4A 5700   1.638   0.419   2.747
   62CHL1   H4B 5701   1.674   0.592   2.723
   62CHL1    C5 5702   1.621   0.531   2.923
   62CHL1    C6 5703   1.697   0.621   2.978
   62CHL1    H6 5704   1.738   0.701   2.914
   62CHL1    C7 5705   1.715   0.629   3.127
   62CHL1   H7A 5706   1.820   0.645   3.159
   62CHL1   H7B 5707   1.661   0.719   3.162
   62CHL1    C8 5708   1.652   0.520   3.212
   62CHL1    H8 5709   1.733   0.443   3.218
   62CHL1   C14 5710   1.629   0.572   3.355
   62CHL1   H14 5711   1.540   0.638   3.352
   62CHL1   C15 5712   1.736   0.657   3.429
   62CHL1  H15A 5713   1.843   0.632   3.417
   62CHL1  H15B 5714   1.748   0.762   3.397
   62CHL1   C16 5715   1.691   0.640   3.574
   62CHL1  H16A 5716   1.765   0.583   3.634
   62CHL1  H16B 5717   1.672   0.737   3.625
   62CHL1   C17 5718   1.561   0.554   3.579
   62CHL1   H17 5719   1.473   0.620   3.566
   62CHL1   C13 5720   1.580   0.464   3.448
   62CHL1   C18 5721   1.697   0.360   3.476
   62CHL1  H18A 5722   1.794   0.395   3.517
   62CHL1  H18B 5723   1.646   0.279   3.532
   62CHL1  H18C 5724   1.716   0.308   3.380
   62CHL1   C12 5725   1.463   0.386   3.395
   62CHL1  H12A 5726   1.437   0.299   3.458
   62CHL1  H12B 5727   1.373   0.451   3.390
   62CHL1   C11 5728   1.495   0.334   3.246
   62CHL1  H11A 5729   1.579   0.260   3.242
   62CHL1  H11B 5730   1.402   0.287   3.207
   62CHL1    C9 5731   1.538   0.458   3.153
   62CHL1    H9 5732   1.450   0.524   3.170
   62CHL1   C10 5733   1.541   0.418   3.000
   62CHL1   C19 5734   1.622   0.278   2.988
   62CHL1  H19A 5735   1.707   0.285   3.059
   62CHL1  H19B 5736   1.556   0.190   3.005
   62CHL1  H19C 5737   1.652   0.272   2.881
   62CHL1    C1 5738   1.397   0.424   2.950
   62CHL1   H1A 5739   1.340   0.337   2.990
   62CHL1   H1B 5740   1.347   0.518   2.979
   62CHL1    C2 5741   1.387   0.415   2.791
   62CHL1   H2A 5742   1.280   0.426   2.763
   62CHL1   H2B 5743   1.425   0.313   2.770
   62CHL1   C20 5744   1.529   0.481   3.716
   62CHL1   H20 5745   1.589   0.388   3.715
   62CHL1   C21 5746   1.382   0.447   3.730
   62CHL1  H21A 5747   1.369   0.355   3.790
   62CHL1  H21B 5748   1.346   0.434   3.626
   62CHL1  H21C 5749   1.340   0.534   3.784
   62CHL1   C22 5750   1.583   0.558   3.846
   62CHL1  H22A 5751   1.693   0.573   3.845
   62CHL1  H22B 5752   1.535   0.656   3.829
   62CHL1   C23 5753   1.553   0.492   3.981
   62CHL1  H23A 5754   1.448   0.524   3.999
   62CHL1  H23B 5755   1.550   0.381   3.975
   62CHL1   C24 5756   1.658   0.535   4.088
   62CHL1  H24A 5757   1.765   0.522   4.061
   62CHL1  H24B 5758   1.657   0.645   4.104
   62CHL1   C25 5759   1.627   0.470   4.223
   62CHL1   H25 5760   1.519   0.471   4.249
   62CHL1   C26 5761   1.657   0.313   4.213
   62CHL1  H26A 5762   1.735   0.286   4.138
   62CHL1  H26B 5763   1.676   0.263   4.310
   62CHL1  H26C 5764   1.568   0.257   4.177
   62CHL1   C27 5765   1.712   0.524   4.336
   62CHL1  H27A 5766   1.819   0.503   4.313
   62CHL1  H27B 5767   1.695   0.632   4.352
   62CHL1  H27C 5768   1.690   0.466   4.428
   63CHL1    C3 5769   4.630   5.433   2.902
   63CHL1    H3 5770   4.718   5.496   2.924
   63CHL1    O3 5771   4.650   5.391   2.769
   63CHL1   H3' 5772   4.596   5.312   2.766
   63CHL1    C4 5773   4.617   5.305   2.997
   63CHL1   H4A 5774   4.557   5.226   2.948
   63CHL1   H4B 5775   4.721   5.267   3.006
   63CHL1    C5 5776   4.563   5.334   3.132
   63CHL1    C6 5777   4.626   5.296   3.241
   63CHL1    H6 5778   4.724   5.246   3.233
   63CHL1    C7 5779   4.580   5.321   3.384
   63CHL1   H7A 5780   4.605   5.224   3.431
   63CHL1   H7B 5781   4.654   5.390   3.430
   63CHL1    C8 5782   4.433   5.359   3.391
   63CHL1    H8 5783   4.372   5.269   3.368
   63CHL1   C14 5784   4.404   5.408   3.532
   63CHL1   H14 5785   4.468   5.499   3.536
   63CHL1   C15 5786   4.468   5.336   3.659
   63CHL1  H15A 5787   4.453   5.227   3.640
   63CHL1  H15B 5788   4.576   5.360   3.668
   63CHL1   C16 5789   4.376   5.377   3.769
   63CHL1  H16A 5790   4.325   5.285   3.805
   63CHL1  H16B 5791   4.427   5.414   3.860
   63CHL1   C17 5792   4.275   5.478   3.705
   63CHL1   H17 5793   4.329   5.576   3.709
   63CHL1   C13 5794   4.268   5.449   3.555
   63CHL1   C18 5795   4.171   5.328   3.544
   63CHL1  H18A 5796   4.067   5.367   3.539
   63CHL1  H18B 5797   4.184   5.282   3.443
   63CHL1  H18C 5798   4.177   5.262   3.633
   63CHL1   C12 5799   4.234   5.564   3.453
   63CHL1  H12A 5800   4.128   5.596   3.454
   63CHL1  H12B 5801   4.291   5.656   3.477
   63CHL1   C11 5802   4.258   5.523   3.306
   63CHL1  H11A 5803   4.189   5.437   3.291
   63CHL1  H11B 5804   4.231   5.608   3.240
   63CHL1    C9 5805   4.399   5.466   3.284
   63CHL1    H9 5806   4.463   5.556   3.295
   63CHL1   C10 5807   4.432   5.418   3.137
   63CHL1   C19 5808   4.316   5.338   3.081
   63CHL1  H19A 5809   4.283   5.270   3.161
   63CHL1  H19B 5810   4.236   5.413   3.063
   63CHL1  H19C 5811   4.336   5.287   2.984
   63CHL1    C1 5812   4.463   5.547   3.050
   63CHL1   H1A 5813   4.367   5.600   3.036
   63CHL1   H1B 5814   4.539   5.602   3.110
   63CHL1    C2 5815   4.499   5.508   2.906
   63CHL1   H2A 5816   4.512   5.596   2.840
   63CHL1   H2B 5817   4.426   5.436   2.862
   63CHL1   C20 5818   4.143   5.503   3.777
   63CHL1   H20 5819   4.072   5.551   3.706
   63CHL1   C21 5820   4.175   5.601   3.899
   63CHL1  H21A 5821   4.257   5.553   3.956
   63CHL1  H21B 5822   4.083   5.622   3.957
   63CHL1  H21C 5823   4.194   5.701   3.855
   63CHL1   C22 5824   4.065   5.392   3.842
   63CHL1  H22A 5825   4.038   5.329   3.754
   63CHL1  H22B 5826   4.125   5.347   3.924
   63CHL1   C23 5827   3.921   5.427   3.900
   63CHL1  H23A 5828   3.930   5.498   3.985
   63CHL1  H23B 5829   3.859   5.464   3.815
   63CHL1   C24 5830   3.851   5.303   3.961
   63CHL1  H24A 5831   3.832   5.231   3.879
   63CHL1  H24B 5832   3.909   5.250   4.040
   63CHL1   C25 5833   3.718   5.342   4.018
   63CHL1   H25 5834   3.663   5.417   3.957
   63CHL1   C26 5835   3.631   5.212   4.028
   63CHL1  H26A 5836   3.667   5.132   4.097
   63CHL1  H26B 5837   3.533   5.249   4.065
   63CHL1  H26C 5838   3.618   5.160   3.931
   63CHL1   C27 5839   3.738   5.412   4.154
   63CHL1  H27A 5840   3.642   5.425   4.209
   63CHL1  H27B 5841   3.810   5.354   4.217
   63CHL1  H27C 5842   3.783   5.513   4.145
   64CHL1    C3 5843   2.932   2.612   2.883
   64CHL1    H3 5844   2.879   2.709   2.897
   64CHL1    O3 5845   2.936   2.583   2.748
   64CHL1   H3' 5846   2.980   2.498   2.740
   64CHL1    C4 5847   3.070   2.623   2.940
   64CHL1   H4A 5848   3.116   2.523   2.924
   64CHL1   H4B 5849   3.126   2.706   2.891
   64CHL1    C5 5850   3.066   2.647   3.087
   64CHL1    C6 5851   3.118   2.758   3.136
   64CHL1    H6 5852   3.171   2.831   3.074
   64CHL1    C7 5853   3.141   2.782   3.285
   64CHL1   H7A 5854   3.252   2.791   3.293
   64CHL1   H7B 5855   3.105   2.883   3.313
   64CHL1    C8 5856   3.093   2.660   3.368
   64CHL1    H8 5857   3.169   2.578   3.365
   64CHL1   C14 5858   3.068   2.695   3.513
   64CHL1   H14 5859   2.981   2.763   3.508
   64CHL1   C15 5860   3.171   2.782   3.595
   64CHL1  H15A 5861   3.270   2.734   3.579
   64CHL1  H15B 5862   3.183   2.887   3.562
   64CHL1   C16 5863   3.118   2.784   3.738
   64CHL1  H16A 5864   3.200   2.769   3.812
   64CHL1  H16B 5865   3.066   2.880   3.757
   64CHL1   C17 5866   3.022   2.658   3.735
   64CHL1   H17 5867   2.918   2.697   3.735
   64CHL1   C13 5868   3.036   2.584   3.609
   64CHL1   C18 5869   3.144   2.476   3.622
   64CHL1  H18A 5870   3.242   2.518   3.655
   64CHL1  H18B 5871   3.120   2.395   3.695
   64CHL1  H18C 5872   3.170   2.426   3.526
   64CHL1   C12 5873   2.907   2.524   3.555
   64CHL1  H12A 5874   2.880   2.430   3.609
   64CHL1  H12B 5875   2.822   2.594   3.555
   64CHL1   C11 5876   2.920   2.482   3.407
   64CHL1  H11A 5877   2.989   2.395   3.410
   64CHL1  H11B 5878   2.823   2.429   3.389
   64CHL1    C9 5879   2.971   2.595   3.315
   64CHL1    H9 5880   2.890   2.671   3.311
   64CHL1   C10 5881   2.988   2.540   3.171
   64CHL1   C19 5882   3.070   2.404   3.166
   64CHL1  H19A 5883   3.156   2.408   3.236
   64CHL1  H19B 5884   3.009   2.317   3.200
   64CHL1  H19C 5885   3.102   2.373   3.064
   64CHL1    C1 5886   2.847   2.527   3.102
   64CHL1   H1A 5887   2.797   2.444   3.157
   64CHL1   H1B 5888   2.770   2.606   3.119
   64CHL1    C2 5889   2.849   2.499   2.955
   64CHL1   H2A 5890   2.743   2.494   2.922
   64CHL1   H2B 5891   2.907   2.407   2.934
   64CHL1   C20 5892   3.032   2.578   3.869
   64CHL1   H20 5893   3.127   2.520   3.867
   64CHL1   C21 5894   2.920   2.474   3.874
   64CHL1  H21A 5895   2.827   2.534   3.865
   64CHL1  H21B 5896   2.914   2.424   3.973
   64CHL1  H21C 5897   2.923   2.396   3.795
   64CHL1   C22 5898   3.021   2.669   3.992
   64CHL1  H22A 5899   3.018   2.599   4.078
   64CHL1  H22B 5900   3.112   2.731   4.010
   64CHL1   C23 5901   2.906   2.767   3.988
   64CHL1  H23A 5902   2.924   2.842   3.908
   64CHL1  H23B 5903   2.817   2.707   3.962
   64CHL1   C24 5904   2.879   2.848   4.113
   64CHL1  H24A 5905   2.972   2.901   4.144
   64CHL1  H24B 5906   2.793   2.916   4.097
   64CHL1   C25 5907   2.842   2.757   4.233
   64CHL1   H25 5908   2.909   2.668   4.237
   64CHL1   C26 5909   2.856   2.829   4.368
   64CHL1  H26A 5910   2.772   2.901   4.383
   64CHL1  H26B 5911   2.854   2.748   4.443
   64CHL1  H26C 5912   2.957   2.873   4.380
   64CHL1   C27 5913   2.696   2.707   4.218
   64CHL1  H27A 5914   2.704   2.627   4.142
   64CHL1  H27B 5915   2.664   2.653   4.310
   64CHL1  H27C 5916   2.623   2.784   4.185
   65CHL1    C3 5917   0.749   0.341   2.570
   65CHL1    H3 5918   0.808   0.435   2.578
   65CHL1    O3 5919   0.733   0.307   2.429
   65CHL1   H3' 5920   0.776   0.222   2.416
   65CHL1    C4 5921   0.831   0.224   2.642
   65CHL1   H4A 5922   0.767   0.134   2.628
   65CHL1   H4B 5923   0.923   0.206   2.582
   65CHL1    C5 5924   0.862   0.266   2.784
   65CHL1    C6 5925   0.985   0.258   2.829
   65CHL1    H6 5926   1.072   0.224   2.771
   65CHL1    C7 5927   1.024   0.294   2.974
   65CHL1   H7A 5928   1.066   0.208   3.030
   65CHL1   H7B 5929   1.089   0.383   2.977
   65CHL1    C8 5930   0.902   0.325   3.067
   65CHL1    H8 5931   0.864   0.229   3.109
   65CHL1   C14 5932   0.943   0.412   3.190
   65CHL1   H14 5933   0.979   0.514   3.165
   65CHL1   C15 5934   1.062   0.359   3.276
   65CHL1  H15A 5935   1.061   0.249   3.290
   65CHL1  H15B 5936   1.158   0.396   3.233
   65CHL1   C16 5937   1.041   0.415   3.415
   65CHL1  H16A 5938   1.056   0.339   3.495
   65CHL1  H16B 5939   1.106   0.503   3.434
   65CHL1   C17 5940   0.905   0.488   3.410
   65CHL1   H17 5941   0.923   0.592   3.376
   65CHL1   C13 5942   0.829   0.417   3.298
   65CHL1   C18 5943   0.787   0.276   3.348
   65CHL1  H18A 5944   0.750   0.212   3.265
   65CHL1  H18B 5945   0.876   0.220   3.385
   65CHL1  H18C 5946   0.699   0.292   3.414
   65CHL1   C12 5947   0.707   0.486   3.240
   65CHL1  H12A 5948   0.625   0.476   3.315
   65CHL1  H12B 5949   0.728   0.595   3.243
   65CHL1   C11 5950   0.663   0.441   3.103
   65CHL1  H11A 5951   0.602   0.350   3.123
   65CHL1  H11B 5952   0.607   0.524   3.054
   65CHL1    C9 5953   0.783   0.399   2.996
   65CHL1    H9 5954   0.828   0.499   2.974
   65CHL1   C10 5955   0.741   0.324   2.867
   65CHL1   C19 5956   0.651   0.204   2.909
   65CHL1  H19A 5957   0.560   0.244   2.959
   65CHL1  H19B 5958   0.629   0.156   2.811
   65CHL1  H19C 5959   0.707   0.137   2.978
   65CHL1    C1 5960   0.646   0.410   2.778
   65CHL1   H1A 5961   0.553   0.427   2.836
   65CHL1   H1B 5962   0.692   0.510   2.764
   65CHL1    C2 5963   0.615   0.359   2.639
   65CHL1   H2A 5964   0.553   0.432   2.582
   65CHL1   H2B 5965   0.569   0.258   2.638
   65CHL1   C20 5966   0.828   0.505   3.546
   65CHL1   H20 5967   0.764   0.419   3.573
   65CHL1   C21 5968   0.730   0.621   3.544
   65CHL1  H21A 5969   0.692   0.652   3.644
   65CHL1  H21B 5970   0.644   0.608   3.475
   65CHL1  H21C 5971   0.785   0.714   3.515
   65CHL1   C22 5972   0.913   0.522   3.673
   65CHL1  H22A 5973   0.962   0.423   3.682
   65CHL1  H22B 5974   0.990   0.600   3.653
   65CHL1   C23 5975   0.844   0.543   3.807
   65CHL1  H23A 5976   0.927   0.538   3.881
   65CHL1  H23B 5977   0.800   0.645   3.801
   65CHL1   C24 5978   0.740   0.437   3.845
   65CHL1  H24A 5979   0.666   0.427   3.763
   65CHL1  H24B 5980   0.793   0.340   3.856
   65CHL1   C25 5981   0.680   0.466   3.987
   65CHL1   H25 5982   0.657   0.573   4.005
   65CHL1   C26 5983   0.553   0.382   4.002
   65CHL1  H26A 5984   0.492   0.415   4.089
   65CHL1  H26B 5985   0.488   0.403   3.916
   65CHL1  H26C 5986   0.569   0.272   4.003
   65CHL1   C27 5987   0.790   0.446   4.094
   65CHL1  H27A 5988   0.831   0.343   4.084
   65CHL1  H27B 5989   0.874   0.518   4.083
   65CHL1  H27C 5990   0.745   0.461   4.195
   66CHL1    C3 5991   4.406   1.620   2.714
   66CHL1    H3 5992   4.490   1.546   2.720
   66CHL1    O3 5993   4.356   1.609   2.583
   66CHL1   H3' 5994   4.300   1.685   2.573
   66CHL1    C4 5995   4.289   1.586   2.809
   66CHL1   H4A 5996   4.203   1.650   2.782
   66CHL1   H4B 5997   4.247   1.486   2.786
   66CHL1    C5 5998   4.326   1.605   2.954
   66CHL1    C6 5999   4.310   1.513   3.044
   66CHL1    H6 6000   4.266   1.419   3.007
   66CHL1    C7 6001   4.339   1.529   3.192
   66CHL1   H7A 6002   4.262   1.485   3.260
   66CHL1   H7B 6003   4.433   1.477   3.224
   66CHL1    C8 6004   4.349   1.674   3.239
   66CHL1    H8 6005   4.248   1.717   3.252
   66CHL1   C14 6006   4.400   1.676   3.382
   66CHL1   H14 6007   4.493   1.615   3.385
   66CHL1   C15 6008   4.312   1.627   3.498
   66CHL1  H15A 6009   4.205   1.651   3.483
   66CHL1  H15B 6010   4.327   1.518   3.510
   66CHL1   C16 6011   4.375   1.702   3.621
   66CHL1  H16A 6012   4.296   1.757   3.676
   66CHL1  H16B 6013   4.420   1.635   3.697
   66CHL1   C17 6014   4.480   1.799   3.565
   66CHL1   H17 6015   4.574   1.740   3.563
   66CHL1   C13 6016   4.447   1.819   3.422
   66CHL1   C18 6017   4.336   1.924   3.406
   66CHL1  H18A 6018   4.247   1.903   3.469
   66CHL1  H18B 6019   4.366   2.030   3.415
   66CHL1  H18C 6020   4.299   1.915   3.301
   66CHL1   C12 6021   4.563   1.875   3.329
   66CHL1  H12A 6022   4.606   1.966   3.376
   66CHL1  H12B 6023   4.637   1.792   3.338
   66CHL1   C11 6024   4.512   1.876   3.183
   66CHL1  H11A 6025   4.436   1.955   3.172
   66CHL1  H11B 6026   4.602   1.892   3.119
   66CHL1    C9 6027   4.443   1.748   3.135
   66CHL1    H9 6028   4.533   1.683   3.124
   66CHL1   C10 6029   4.388   1.747   2.991
   66CHL1   C19 6030   4.290   1.867   2.991
   66CHL1  H19A 6031   4.344   1.964   2.997
   66CHL1  H19B 6032   4.230   1.877   2.898
   66CHL1  H19C 6033   4.220   1.869   3.077
   66CHL1    C1 6034   4.500   1.772   2.889
   66CHL1   H1A 6035   4.523   1.880   2.902
   66CHL1   H1B 6036   4.587   1.705   2.911
   66CHL1    C2 6037   4.464   1.763   2.740
   66CHL1   H2A 6038   4.554   1.769   2.675
   66CHL1   H2B 6039   4.378   1.829   2.714
   66CHL1   C20 6040   4.522   1.919   3.650
   66CHL1   H20 6041   4.574   1.978   3.572
   66CHL1   C21 6042   4.634   1.872   3.754
   66CHL1  H21A 6043   4.599   1.798   3.829
   66CHL1  H21B 6044   4.646   1.961   3.818
   66CHL1  H21C 6045   4.732   1.835   3.715
   66CHL1   C22 6046   4.408   1.993   3.723
   66CHL1  H22A 6047   4.435   2.101   3.718
   66CHL1  H22B 6048   4.311   1.980   3.672
   66CHL1   C23 6049   4.380   1.955   3.871
   66CHL1  H23A 6050   4.374   1.845   3.884
   66CHL1  H23B 6051   4.467   1.984   3.934
   66CHL1   C24 6052   4.252   2.030   3.923
   66CHL1  H24A 6053   4.257   2.138   3.899
   66CHL1  H24B 6054   4.156   2.002   3.873
   66CHL1   C25 6055   4.239   2.020   4.071
   66CHL1   H25 6056   4.335   2.052   4.118
   66CHL1   C26 6057   4.128   2.112   4.107
   66CHL1  H26A 6058   4.124   2.120   4.218
   66CHL1  H26B 6059   4.136   2.219   4.079
   66CHL1  H26C 6060   4.038   2.068   4.059
   66CHL1   C27 6061   4.212   1.877   4.123
   66CHL1  H27A 6062   4.206   1.867   4.234
   66CHL1  H27B 6063   4.295   1.813   4.085
   66CHL1  H27C 6064   4.129   1.828   4.069
   67CHL1    C3 6065   4.358   6.164   2.940
   67CHL1    H3 6066   4.346   6.269   2.975
   67CHL1    O3 6067   4.379   6.159   2.800
   67CHL1   H3' 6068   4.348   6.071   2.776
   67CHL1    C4 6069   4.468   6.107   3.031
   67CHL1   H4A 6070   4.481   6.000   3.004
   67CHL1   H4B 6071   4.563   6.162   3.013
   67CHL1    C5 6072   4.446   6.125   3.183
   67CHL1    C6 6073   4.538   6.190   3.259
   67CHL1    H6 6074   4.624   6.232   3.205
   67CHL1    C7 6075   4.528   6.202   3.409
   67CHL1   H7A 6076   4.625   6.191   3.463
   67CHL1   H7B 6077   4.488   6.304   3.429
   67CHL1    C8 6078   4.424   6.108   3.470
   67CHL1    H8 6079   4.469   6.006   3.471
   67CHL1   C14 6080   4.385   6.145   3.612
   67CHL1   H14 6081   4.336   6.244   3.602
   67CHL1   C15 6082   4.500   6.163   3.716
   67CHL1  H15A 6083   4.568   6.075   3.711
   67CHL1  H15B 6084   4.550   6.262   3.703
   67CHL1   C16 6085   4.426   6.156   3.852
   67CHL1  H16A 6086   4.489   6.091   3.916
   67CHL1  H16B 6087   4.422   6.258   3.895
   67CHL1   C17 6088   4.276   6.108   3.826
   67CHL1   H17 6089   4.225   6.206   3.818
   67CHL1   C13 6090   4.290   6.049   3.683
   67CHL1   C18 6091   4.353   5.903   3.676
   67CHL1  H18A 6092   4.371   5.865   3.573
   67CHL1  H18B 6093   4.449   5.906   3.732
   67CHL1  H18C 6094   4.289   5.830   3.729
   67CHL1   C12 6095   4.162   6.059   3.602
   67CHL1  H12A 6096   4.097   5.975   3.633
   67CHL1  H12B 6097   4.111   6.154   3.628
   67CHL1   C11 6098   4.172   6.035   3.452
   67CHL1  H11A 6099   4.202   5.928   3.452
   67CHL1  H11B 6100   4.074   6.054   3.404
   67CHL1    C9 6101   4.289   6.109   3.388
   67CHL1    H9 6102   4.261   6.217   3.391
   67CHL1   C10 6103   4.315   6.063   3.240
   67CHL1   C19 6104   4.316   5.912   3.226
   67CHL1  H19A 6105   4.340   5.875   3.124
   67CHL1  H19B 6106   4.375   5.859   3.304
   67CHL1  H19C 6107   4.213   5.877   3.249
   67CHL1    C1 6108   4.201   6.111   3.138
   67CHL1   H1A 6109   4.114   6.047   3.163
   67CHL1   H1B 6110   4.176   6.215   3.168
   67CHL1    C2 6111   4.232   6.093   2.985
   67CHL1   H2A 6112   4.146   6.130   2.926
   67CHL1   H2B 6113   4.241   5.984   2.962
   67CHL1   C20 6114   4.209   6.026   3.938
   67CHL1   H20 6115   4.179   5.931   3.887
   67CHL1   C21 6116   4.090   6.113   3.977
   67CHL1  H21A 6117   4.118   6.208   4.025
   67CHL1  H21B 6118   4.025   6.057   4.048
   67CHL1  H21C 6119   4.027   6.141   3.889
   67CHL1   C22 6120   4.291   5.987   4.062
   67CHL1  H22A 6121   4.380   5.934   4.021
   67CHL1  H22B 6122   4.317   6.085   4.107
   67CHL1   C23 6123   4.221   5.889   4.164
   67CHL1  H23A 6124   4.130   5.928   4.214
   67CHL1  H23B 6125   4.183   5.805   4.103
   67CHL1   C24 6126   4.327   5.823   4.261
   67CHL1  H24A 6127   4.425   5.811   4.210
   67CHL1  H24B 6128   4.332   5.879   4.357
   67CHL1   C25 6129   4.282   5.684   4.312
   67CHL1   H25 6130   4.289   5.610   4.230
   67CHL1   C26 6131   4.379   5.629   4.418
   67CHL1  H26A 6132   4.470   5.596   4.363
   67CHL1  H26B 6133   4.405   5.714   4.485
   67CHL1  H26C 6134   4.336   5.550   4.482
   67CHL1   C27 6135   4.146   5.681   4.382
   67CHL1  H27A 6136   4.064   5.629   4.329
   67CHL1  H27B 6137   4.157   5.630   4.479
   67CHL1  H27C 6138   4.112   5.784   4.408
   68CHL1    C3 6139   2.160   4.989   2.770
   68CHL1    H3 6140   2.254   4.947   2.811
   68CHL1    O3 6141   2.154   4.952   2.636
   68CHL1   H3' 6142   2.066   4.979   2.607
   68CHL1    C4 6143   2.030   4.941   2.845
   68CHL1   H4A 6144   1.939   4.989   2.801
   68CHL1   H4B 6145   2.024   4.831   2.841
   68CHL1    C5 6146   2.037   4.992   2.989
   68CHL1    C6 6147   2.021   4.909   3.091
   68CHL1    H6 6148   1.991   4.806   3.067
   68CHL1    C7 6149   2.021   4.952   3.235
   68CHL1   H7A 6150   1.942   4.908   3.300
   68CHL1   H7B 6151   2.108   4.910   3.290
   68CHL1    C8 6152   2.010   5.106   3.255
   68CHL1    H8 6153   1.904   5.136   3.241
   68CHL1   C14 6154   2.051   5.143   3.398
   68CHL1   H14 6155   2.160   5.118   3.401
   68CHL1   C15 6156   1.990   5.069   3.517
   68CHL1  H15A 6157   1.879   5.064   3.504
   68CHL1  H15B 6158   2.019   4.963   3.510
   68CHL1   C16 6159   2.033   5.152   3.637
   68CHL1  H16A 6160   1.946   5.160   3.706
   68CHL1  H16B 6161   2.128   5.112   3.677
   68CHL1   C17 6162   2.073   5.293   3.586
   68CHL1   H17 6163   2.183   5.308   3.596
   68CHL1   C13 6164   2.043   5.293   3.435
   68CHL1   C18 6165   1.897   5.352   3.406
   68CHL1  H18A 6166   1.855   5.355   3.303
   68CHL1  H18B 6167   1.830   5.291   3.471
   68CHL1  H18C 6168   1.879   5.455   3.444
   68CHL1   C12 6169   2.147   5.361   3.343
   68CHL1  H12A 6170   2.145   5.471   3.361
   68CHL1  H12B 6171   2.244   5.315   3.370
   68CHL1   C11 6172   2.126   5.328   3.186
   68CHL1  H11A 6173   2.033   5.385   3.163
   68CHL1  H11B 6174   2.215   5.361   3.128
   68CHL1    C9 6175   2.101   5.180   3.155
   68CHL1    H9 6176   2.200   5.135   3.179
   68CHL1   C10 6177   2.073   5.142   3.012
   68CHL1   C19 6178   1.946   5.217   2.969
   68CHL1  H19A 6179   1.966   5.325   2.983
   68CHL1  H19B 6180   1.914   5.200   2.864
   68CHL1  H19C 6181   1.863   5.187   3.037
   68CHL1    C1 6182   2.186   5.193   2.918
   68CHL1   H1A 6183   2.192   5.303   2.910
   68CHL1   H1B 6184   2.280   5.165   2.970
   68CHL1    C2 6185   2.179   5.134   2.779
   68CHL1   H2A 6186   2.272   5.168   2.728
   68CHL1   H2B 6187   2.104   5.184   2.714
   68CHL1   C20 6188   2.012   5.403   3.679
   68CHL1   H20 6189   1.904   5.382   3.663
   68CHL1   C21 6190   2.069   5.539   3.638
   68CHL1  H21A 6191   2.017   5.623   3.688
   68CHL1  H21B 6192   2.064   5.546   3.528
   68CHL1  H21C 6193   2.177   5.533   3.665
   68CHL1   C22 6194   2.038   5.367   3.831
   68CHL1  H22A 6195   2.020   5.260   3.852
   68CHL1  H22B 6196   2.145   5.385   3.857
   68CHL1   C23 6197   1.958   5.451   3.927
   68CHL1  H23A 6198   1.974   5.560   3.918
   68CHL1  H23B 6199   1.856   5.422   3.893
   68CHL1   C24 6200   1.974   5.401   4.073
   68CHL1  H24A 6201   1.939   5.296   4.072
   68CHL1  H24B 6202   2.078   5.407   4.111
   68CHL1   C25 6203   1.888   5.484   4.177
   68CHL1   H25 6204   1.786   5.501   4.135
   68CHL1   C26 6205   1.876   5.399   4.301
   68CHL1  H26A 6206   1.978   5.384   4.343
   68CHL1  H26B 6207   1.818   5.457   4.376
   68CHL1  H26C 6208   1.819   5.308   4.276
   68CHL1   C27 6209   1.955   5.618   4.215
   68CHL1  H27A 6210   1.983   5.679   4.127
   68CHL1  H27B 6211   1.888   5.677   4.281
   68CHL1  H27C 6212   2.051   5.595   4.266
   69CHL1    C3 6213   1.085   2.700   2.270
   69CHL1    H3 6214   1.131   2.599   2.267
   69CHL1    O3 6215   1.072   2.743   2.130
   69CHL1   H3' 6216   1.158   2.731   2.090
   69CHL1    C4 6217   0.951   2.707   2.343
   69CHL1   H4A 6218   0.899   2.798   2.307
   69CHL1   H4B 6219   0.892   2.621   2.305
   69CHL1    C5 6220   0.954   2.685   2.498
   69CHL1    C6 6221   0.872   2.593   2.556
   69CHL1    H6 6222   0.802   2.536   2.494
   69CHL1    C7 6223   0.859   2.573   2.702
   69CHL1   H7A 6224   0.750   2.582   2.721
   69CHL1   H7B 6225   0.905   2.477   2.733
   69CHL1    C8 6226   0.922   2.690   2.777
   69CHL1    H8 6227   0.853   2.777   2.775
   69CHL1   C14 6228   0.944   2.646   2.920
   69CHL1   H14 6229   1.019   2.564   2.924
   69CHL1   C15 6230   0.824   2.588   3.003
   69CHL1  H15A 6231   0.730   2.647   2.994
   69CHL1  H15B 6232   0.813   2.481   2.976
   69CHL1   C16 6233   0.864   2.611   3.156
   69CHL1  H16A 6234   0.785   2.656   3.219
   69CHL1  H16B 6235   0.878   2.510   3.199
   69CHL1   C17 6236   0.991   2.694   3.155
   69CHL1   H17 6237   1.079   2.626   3.156
   69CHL1   C13 6238   1.003   2.758   3.012
   69CHL1   C18 6239   0.917   2.890   3.008
   69CHL1  H18A 6240   0.927   2.951   2.916
   69CHL1  H18B 6241   0.811   2.877   3.039
   69CHL1  H18C 6242   0.965   2.950   3.089
   69CHL1   C12 6243   1.146   2.791   2.963
   69CHL1  H12A 6244   1.203   2.867   3.020
   69CHL1  H12B 6245   1.217   2.706   2.962
   69CHL1   C11 6246   1.137   2.824   2.811
   69CHL1  H11A 6247   1.092   2.926   2.804
   69CHL1  H11B 6248   1.241   2.837   2.776
   69CHL1    C9 6249   1.061   2.729   2.716
   69CHL1    H9 6250   1.119   2.634   2.709
   69CHL1   C10 6251   1.052   2.775   2.571
   69CHL1   C19 6252   1.006   2.922   2.546
   69CHL1  H19A 6253   1.008   2.952   2.439
   69CHL1  H19B 6254   0.900   2.931   2.578
   69CHL1  H19C 6255   1.074   2.994   2.598
   69CHL1    C1 6256   1.186   2.755   2.498
   69CHL1   H1A 6257   1.253   2.827   2.549
   69CHL1   H1B 6258   1.234   2.658   2.521
   69CHL1    C2 6259   1.183   2.786   2.349
   69CHL1   H2A 6260   1.284   2.763   2.310
   69CHL1   H2B 6261   1.160   2.892   2.324
   69CHL1   C20 6262   1.017   2.779   3.281
   69CHL1   H20 6263   0.934   2.853   3.284
   69CHL1   C21 6264   1.145   2.861   3.281
   69CHL1  H21A 6265   1.229   2.790   3.267
   69CHL1  H21B 6266   1.150   2.922   3.374
   69CHL1  H21C 6267   1.145   2.944   3.207
   69CHL1   C22 6268   1.010   2.692   3.405
   69CHL1  H22A 6269   0.933   2.616   3.382
   69CHL1  H22B 6270   1.106   2.636   3.412
   69CHL1   C23 6271   0.983   2.767   3.535
   69CHL1  H23A 6272   1.076   2.798   3.588
   69CHL1  H23B 6273   0.934   2.865   3.517
   69CHL1   C24 6274   0.895   2.689   3.624
   69CHL1  H24A 6275   0.798   2.685   3.570
   69CHL1  H24B 6276   0.924   2.585   3.647
   69CHL1   C25 6277   0.873   2.751   3.760
   69CHL1   H25 6278   0.966   2.722   3.813
   69CHL1   C26 6279   0.855   2.905   3.754
   69CHL1  H26A 6280   0.852   2.940   3.859
   69CHL1  H26B 6281   0.941   2.954   3.703
   69CHL1  H26C 6282   0.757   2.920   3.704
   69CHL1   C27 6283   0.753   2.689   3.838
   69CHL1  H27A 6284   0.724   2.752   3.925
   69CHL1  H27B 6285   0.669   2.671   3.768
   69CHL1  H27C 6286   0.778   2.587   3.874
   70CHL1    C3 6287   2.630   0.551   2.812
   70CHL1    H3 6288   2.627   0.443   2.837
   70CHL1    O3 6289   2.606   0.560   2.677
   70CHL1   H3' 6290   2.624   0.653   2.660
   70CHL1    C4 6291   2.531   0.628   2.896
   70CHL1   H4A 6292   2.524   0.735   2.868
   70CHL1   H4B 6293   2.430   0.590   2.872
   70CHL1    C5 6294   2.561   0.625   3.044
   70CHL1    C6 6295   2.472   0.583   3.131
   70CHL1    H6 6296   2.373   0.559   3.088
   70CHL1    C7 6297   2.491   0.576   3.274
   70CHL1   H7A 6298   2.412   0.631   3.329
   70CHL1   H7B 6299   2.505   0.475   3.317
   70CHL1    C8 6300   2.621   0.652   3.321
   70CHL1    H8 6301   2.613   0.763   3.322
   70CHL1   C14 6302   2.662   0.607   3.458
   70CHL1   H14 6303   2.679   0.500   3.437
   70CHL1   C15 6304   2.558   0.610   3.566
   70CHL1  H15A 6305   2.511   0.711   3.563
   70CHL1  H15B 6306   2.485   0.526   3.556
   70CHL1   C16 6307   2.643   0.601   3.691
   70CHL1  H16A 6308   2.627   0.696   3.745
   70CHL1  H16B 6309   2.616   0.514   3.755
   70CHL1   C17 6310   2.785   0.581   3.648
   70CHL1   H17 6311   2.791   0.472   3.627
   70CHL1   C13 6312   2.796   0.657   3.521
   70CHL1   C18 6313   2.793   0.808   3.550
   70CHL1  H18A 6314   2.892   0.842   3.589
   70CHL1  H18B 6315   2.763   0.857   3.455
   70CHL1  H18C 6316   2.707   0.832   3.616
   70CHL1   C12 6317   2.911   0.623   3.426
   70CHL1  H12A 6318   3.002   0.682   3.449
   70CHL1  H12B 6319   2.942   0.516   3.435
   70CHL1   C11 6320   2.876   0.681   3.287
   70CHL1  H11A 6321   2.889   0.792   3.290
   70CHL1  H11B 6322   2.959   0.635   3.230
   70CHL1    C9 6323   2.744   0.628   3.234
   70CHL1    H9 6324   2.751   0.518   3.250
   70CHL1   C10 6325   2.711   0.654   3.087
   70CHL1   C19 6326   2.732   0.811   3.060
   70CHL1  H19A 6327   2.688   0.854   2.967
   70CHL1  H19B 6328   2.690   0.872   3.142
   70CHL1  H19C 6329   2.842   0.821   3.067
   70CHL1    C1 6330   2.803   0.578   2.992
   70CHL1   H1A 6331   2.909   0.602   3.013
   70CHL1   H1B 6332   2.792   0.468   3.008
   70CHL1    C2 6333   2.771   0.606   2.846
   70CHL1   H2A 6334   2.848   0.558   2.782
   70CHL1   H2B 6335   2.780   0.714   2.820
   70CHL1   C20 6336   2.886   0.595   3.764
   70CHL1   H20 6337   2.885   0.702   3.791
   70CHL1   C21 6338   3.021   0.544   3.711
   70CHL1  H21A 6339   3.061   0.608   3.630
   70CHL1  H21B 6340   3.019   0.438   3.677
   70CHL1  H21C 6341   3.089   0.552   3.799
   70CHL1   C22 6342   2.845   0.526   3.891
   70CHL1  H22A 6343   2.738   0.548   3.913
   70CHL1  H22B 6344   2.851   0.416   3.879
   70CHL1   C23 6345   2.942   0.546   4.011
   70CHL1  H23A 6346   3.044   0.515   3.979
   70CHL1  H23B 6347   2.960   0.653   4.037
   70CHL1   C24 6348   2.906   0.476   4.140
   70CHL1  H24A 6349   2.810   0.518   4.178
   70CHL1  H24B 6350   2.896   0.367   4.122
   70CHL1   C25 6351   3.007   0.490   4.258
   70CHL1   H25 6352   3.107   0.468   4.216
   70CHL1   C26 6353   2.999   0.638   4.307
   70CHL1  H26A 6354   3.069   0.652   4.392
   70CHL1  H26B 6355   3.038   0.705   4.227
   70CHL1  H26C 6356   2.898   0.673   4.335
   70CHL1   C27 6357   2.981   0.382   4.366
   70CHL1  H27A 6358   3.047   0.393   4.454
   70CHL1  H27B 6359   2.883   0.406   4.411
   70CHL1  H27C 6360   2.990   0.276   4.334
   71CHL1    C3 6361   6.206   6.030   2.813
   71CHL1    H3 6362   6.126   5.953   2.811
   71CHL1    O3 6363   6.248   6.058   2.684
   71CHL1   H3' 6364   6.185   6.126   2.656
   71CHL1    C4 6365   6.163   6.162   2.865
   71CHL1   H4A 6366   6.246   6.234   2.849
   71CHL1   H4B 6367   6.087   6.209   2.798
   71CHL1    C5 6368   6.112   6.158   3.013
   71CHL1    C6 6369   5.987   6.180   3.055
   71CHL1    H6 6370   5.916   6.214   2.978
   71CHL1    C7 6371   5.935   6.168   3.196
   71CHL1   H7A 6372   5.876   6.259   3.222
   71CHL1   H7B 6373   5.865   6.081   3.201
   71CHL1    C8 6374   6.046   6.146   3.298
   71CHL1    H8 6375   6.111   6.235   3.312
   71CHL1   C14 6376   5.988   6.092   3.425
   71CHL1   H14 6377   5.937   5.996   3.399
   71CHL1   C15 6378   5.883   6.170   3.503
   71CHL1  H15A 6379   5.914   6.275   3.525
   71CHL1  H15B 6380   5.790   6.175   3.443
   71CHL1   C16 6381   5.865   6.086   3.632
   71CHL1  H16A 6382   5.861   6.163   3.713
   71CHL1  H16B 6383   5.768   6.031   3.635
   71CHL1   C17 6384   5.984   5.978   3.639
   71CHL1   H17 6385   5.957   5.881   3.591
   71CHL1   C13 6386   6.083   6.037   3.535
   71CHL1   C18 6387   6.156   6.158   3.607
   71CHL1  H18A 6388   6.086   6.219   3.668
   71CHL1  H18B 6389   6.237   6.129   3.678
   71CHL1  H18C 6390   6.195   6.224   3.527
   71CHL1   C12 6391   6.191   5.941   3.474
   71CHL1  H12A 6392   6.256   5.913   3.559
   71CHL1  H12B 6393   6.142   5.847   3.440
   71CHL1   C11 6394   6.262   6.004   3.357
   71CHL1  H11A 6395   6.307   6.098   3.395
   71CHL1  H11B 6396   6.337   5.934   3.317
   71CHL1    C9 6397   6.154   6.042   3.245
   71CHL1    H9 6398   6.092   5.952   3.224
   71CHL1   C10 6399   6.218   6.089   3.108
   71CHL1   C19 6400   6.325   6.203   3.131
   71CHL1  H19A 6401   6.286   6.281   3.200
   71CHL1  H19B 6402   6.417   6.161   3.177
   71CHL1  H19C 6403   6.348   6.249   3.032
   71CHL1    C1 6404   6.289   5.962   3.047
   71CHL1   H1A 6405   6.382   5.927   3.098
   71CHL1   H1B 6406   6.225   5.871   3.056
   71CHL1    C2 6407   6.326   5.978   2.899
   71CHL1   H2A 6408   6.383   5.893   2.857
   71CHL1   H2B 6409   6.396   6.064   2.899
   71CHL1   C20 6410   6.043   5.941   3.779
   71CHL1   H20 6411   6.135   5.995   3.808
   71CHL1   C21 6412   6.086   5.792   3.768
   71CHL1  H21A 6413   5.995   5.728   3.769
   71CHL1  H21B 6414   6.151   5.758   3.852
   71CHL1  H21C 6415   6.147   5.782   3.676
   71CHL1   C22 6416   5.939   5.957   3.896
   71CHL1  H22A 6417   5.898   6.060   3.904
   71CHL1  H22B 6418   5.849   5.901   3.862
   71CHL1   C23 6419   6.004   5.921   4.033
   71CHL1  H23A 6420   6.017   5.812   4.045
   71CHL1  H23B 6421   6.104   5.969   4.039
   71CHL1   C24 6422   5.910   5.978   4.148
   71CHL1  H24A 6423   5.915   6.087   4.130
   71CHL1  H24B 6424   5.806   5.938   4.139
   71CHL1   C25 6425   5.958   5.936   4.295
   71CHL1   H25 6426   5.922   5.832   4.303
   71CHL1   C26 6427   6.104   5.942   4.324
   71CHL1  H26A 6428   6.166   5.883   4.253
   71CHL1  H26B 6429   6.143   6.046   4.321
   71CHL1  H26C 6430   6.130   5.907   4.427
   71CHL1   C27 6431   5.877   6.018   4.397
   71CHL1  H27A 6432   5.766   6.008   4.392
   71CHL1  H27B 6433   5.913   5.980   4.495
   71CHL1  H27C 6434   5.900   6.125   4.382
   72CHL1    C3 6435   0.563   4.559   2.728
   72CHL1    H3 6436   0.653   4.499   2.753
   72CHL1    O3 6437   0.594   4.611   2.601
   72CHL1   H3' 6438   0.505   4.635   2.574
   72CHL1    C4 6439   0.437   4.481   2.731
   72CHL1   H4A 6440   0.355   4.541   2.686
   72CHL1   H4B 6441   0.444   4.399   2.657
   72CHL1    C5 6442   0.383   4.442   2.872
   72CHL1    C6 6443   0.353   4.319   2.906
   72CHL1    H6 6444   0.377   4.243   2.830
   72CHL1    C7 6445   0.280   4.274   3.028
   72CHL1   H7A 6446   0.189   4.217   2.999
   72CHL1   H7B 6447   0.342   4.201   3.084
   72CHL1    C8 6448   0.245   4.391   3.126
   72CHL1    H8 6449   0.143   4.426   3.099
   72CHL1   C14 6450   0.240   4.325   3.264
   72CHL1   H14 6451   0.347   4.302   3.286
   72CHL1   C15 6452   0.158   4.202   3.279
   72CHL1  H15A 6453   0.053   4.213   3.244
   72CHL1  H15B 6454   0.202   4.113   3.230
   72CHL1   C16 6455   0.154   4.187   3.429
   72CHL1  H16A 6456   0.046   4.189   3.451
   72CHL1  H16B 6457   0.190   4.094   3.479
   72CHL1   C17 6458   0.215   4.320   3.491
   72CHL1   H17 6459   0.322   4.309   3.520
   72CHL1   C13 6460   0.213   4.426   3.375
   72CHL1   C18 6461   0.070   4.481   3.360
   72CHL1  H18A 6462   0.070   4.537   3.264
   72CHL1  H18B 6463   6.875   4.401   3.351
   72CHL1  H18C 6464   0.039   4.561   3.430
   72CHL1   C12 6465   0.322   4.542   3.371
   72CHL1  H12A 6466   0.306   4.619   3.450
   72CHL1  H12B 6467   0.418   4.501   3.407
   72CHL1   C11 6468   0.334   4.611   3.236
   72CHL1  H11A 6469   0.241   4.663   3.204
   72CHL1  H11B 6470   0.419   4.683   3.227
   72CHL1    C9 6471   0.345   4.502   3.123
   72CHL1    H9 6472   0.437   4.443   3.142
   72CHL1   C10 6473   0.364   4.557   2.966
   72CHL1   C19 6474   0.247   4.643   2.913
   72CHL1  H19A 6475   0.225   4.713   2.995
   72CHL1  H19B 6476   0.278   4.700   2.823
   72CHL1  H19C 6477   0.159   4.577   2.898
   72CHL1    C1 6478   0.498   4.637   2.969
   72CHL1   H1A 6479   0.481   4.737   3.015
   72CHL1   H1B 6480   0.568   4.566   3.019
   72CHL1    C2 6481   0.560   4.675   2.828
   72CHL1   H2A 6482   0.657   4.730   2.832
   72CHL1   H2B 6483   0.488   4.744   2.780
   72CHL1   C20 6484   0.146   4.373   3.615
   72CHL1   H20 6485   0.047   4.409   3.580
   72CHL1   C21 6486   0.211   4.502   3.673
   72CHL1  H21A 6487   0.173   4.519   3.775
   72CHL1  H21B 6488   0.175   4.589   3.614
   72CHL1  H21C 6489   0.322   4.490   3.668
   72CHL1   C22 6490   0.105   4.270   3.726
   72CHL1  H22A 6491   0.053   4.318   3.811
   72CHL1  H22B 6492   0.038   4.189   3.691
   72CHL1   C23 6493   0.229   4.202   3.797
   72CHL1  H23A 6494   0.200   4.102   3.835
   72CHL1  H23B 6495   0.311   4.181   3.724
   72CHL1   C24 6496   0.279   4.272   3.923
   72CHL1  H24A 6497   0.377   4.233   3.958
   72CHL1  H24B 6498   0.292   4.380   3.903
   72CHL1   C25 6499   0.192   4.251   4.053
   72CHL1   H25 6500   0.090   4.228   4.018
   72CHL1   C26 6501   0.261   4.149   4.149
   72CHL1  H26A 6502   0.366   4.170   4.179
   72CHL1  H26B 6503   0.202   4.127   4.240
   72CHL1  H26C 6504   0.263   4.054   4.092
   72CHL1   C27 6505   0.188   4.389   4.112
   72CHL1  H27A 6506   0.121   4.387   4.201
   72CHL1  H27B 6507   0.289   4.430   4.133
   72CHL1  H27C 6508   0.142   4.456   4.036
   73CHL1    C3 6509   1.299   5.036   2.980
   73CHL1    H3 6510   1.302   5.146   2.972
   73CHL1    O3 6511   1.292   4.982   2.850
   73CHL1   H3' 6512   1.259   5.051   2.792
   73CHL1    C4 6513   1.421   4.979   3.048
   73CHL1   H4A 6514   1.418   4.868   3.041
   73CHL1   H4B 6515   1.499   5.015   2.977
   73CHL1    C5 6516   1.440   5.013   3.192
   73CHL1    C6 6517   1.557   5.068   3.235
   73CHL1    H6 6518   1.638   5.086   3.163
   73CHL1    C7 6519   1.585   5.111   3.376
   73CHL1   H7A 6520   1.689   5.084   3.405
   73CHL1   H7B 6521   1.585   5.222   3.381
   73CHL1    C8 6522   1.468   5.064   3.472
   73CHL1    H8 6523   1.488   4.956   3.490
   73CHL1   C14 6524   1.480   5.148   3.604
   73CHL1   H14 6525   1.459   5.255   3.581
   73CHL1   C15 6526   1.615   5.136   3.678
   73CHL1  H15A 6527   1.659   5.034   3.671
   73CHL1  H15B 6528   1.683   5.214   3.639
   73CHL1   C16 6529   1.574   5.183   3.818
   73CHL1  H16A 6530   1.622   5.109   3.886
   73CHL1  H16B 6531   1.620   5.280   3.846
   73CHL1   C17 6532   1.423   5.184   3.833
   73CHL1   H17 6533   1.395   5.290   3.816
   73CHL1   C13 6534   1.380   5.100   3.709
   73CHL1   C18 6535   1.390   4.947   3.747
   73CHL1  H18A 6536   1.489   4.934   3.797
   73CHL1  H18B 6537   1.302   4.930   3.812
   73CHL1  H18C 6538   1.397   4.876   3.662
   73CHL1   C12 6539   1.238   5.133   3.653
   73CHL1  H12A 6540   1.162   5.093   3.723
   73CHL1  H12B 6541   1.212   5.239   3.629
   73CHL1   C11 6542   1.217   5.057   3.517
   73CHL1  H11A 6543   1.215   4.949   3.541
   73CHL1  H11B 6544   1.120   5.095   3.478
   73CHL1    C9 6545   1.326   5.085   3.415
   73CHL1    H9 6546   1.331   5.194   3.392
   73CHL1   C10 6547   1.313   5.011   3.280
   73CHL1   C19 6548   1.271   4.864   3.311
   73CHL1  H19A 6549   1.275   4.810   3.214
   73CHL1  H19B 6550   1.340   4.836   3.393
   73CHL1  H19C 6551   1.168   4.845   3.347
   73CHL1    C1 6552   1.195   5.076   3.200
   73CHL1   H1A 6553   1.108   5.058   3.265
   73CHL1   H1B 6554   1.209   5.183   3.176
   73CHL1    C2 6555   1.174   5.015   3.058
   73CHL1   H2A 6556   1.087   5.057   3.003
   73CHL1   H2B 6557   1.152   4.906   3.056
   73CHL1   C20 6558   1.373   5.142   3.974
   73CHL1   H20 6559   1.396   5.034   3.991
   73CHL1   C21 6560   1.221   5.167   3.994
   73CHL1  H21A 6561   1.203   5.275   3.980
   73CHL1  H21B 6562   1.193   5.154   4.100
   73CHL1  H21C 6563   1.158   5.101   3.930
   73CHL1   C22 6564   1.450   5.212   4.079
   73CHL1  H22A 6565   1.559   5.201   4.060
   73CHL1  H22B 6566   1.430   5.321   4.068
   73CHL1   C23 6567   1.424   5.165   4.224
   73CHL1  H23A 6568   1.332   5.213   4.262
   73CHL1  H23B 6569   1.402   5.056   4.215
   73CHL1   C24 6570   1.529   5.228   4.311
   73CHL1  H24A 6571   1.635   5.203   4.290
   73CHL1  H24B 6572   1.520   5.338   4.308
   73CHL1   C25 6573   1.513   5.194   4.461
   73CHL1   H25 6574   1.501   5.084   4.476
   73CHL1   C26 6575   1.621   5.245   4.552
   73CHL1  H26A 6576   1.711   5.187   4.523
   73CHL1  H26B 6577   1.642   5.352   4.531
   73CHL1  H26C 6578   1.602   5.223   4.659
   73CHL1   C27 6579   1.383   5.269   4.518
   73CHL1  H27A 6580   1.295   5.217   4.476
   73CHL1  H27B 6581   1.388   5.262   4.629
   73CHL1  H27C 6582   1.380   5.378   4.497
   74CHL1    C3 6583   1.123   3.987   2.533
   74CHL1    H3 6584   1.032   4.038   2.569
   74CHL1    O3 6585   1.102   3.928   2.402
   74CHL1   H3' 6586   1.027   3.869   2.409
   74CHL1    C4 6587   1.237   4.089   2.521
   74CHL1   H4A 6588   1.329   4.031   2.496
   74CHL1   H4B 6589   1.220   4.163   2.440
   74CHL1    C5 6590   1.254   4.161   2.655
   74CHL1    C6 6591   1.259   4.294   2.669
   74CHL1    H6 6592   1.243   4.356   2.580
   74CHL1    C7 6593   1.285   4.365   2.801
   74CHL1   H7A 6594   1.372   4.434   2.800
   74CHL1   H7B 6595   1.195   4.423   2.830
   74CHL1    C8 6596   1.322   4.267   2.913
   74CHL1    H8 6597   1.432   4.255   2.909
   74CHL1   C14 6598   1.296   4.335   3.047
   74CHL1   H14 6599   1.188   4.344   3.070
   74CHL1   C15 6600   1.347   4.478   3.075
   74CHL1  H15A 6601   1.451   4.503   3.045
   74CHL1  H15B 6602   1.273   4.550   3.033
   74CHL1   C16 6603   1.346   4.498   3.225
   74CHL1  H16A 6604   1.451   4.512   3.257
   74CHL1  H16B 6605   1.272   4.578   3.248
   74CHL1   C17 6606   1.314   4.356   3.285
   74CHL1   H17 6607   1.204   4.342   3.288
   74CHL1   C13 6608   1.351   4.260   3.168
   74CHL1   C18 6609   1.509   4.249   3.162
   74CHL1  H18A 6610   1.542   4.179   3.082
   74CHL1  H18B 6611   1.566   4.341   3.142
   74CHL1  H18C 6612   1.548   4.205   3.257
   74CHL1   C12 6613   1.291   4.119   3.170
   74CHL1  H12A 6614   1.341   4.052   3.243
   74CHL1  H12B 6615   1.182   4.125   3.189
   74CHL1   C11 6616   1.306   4.049   3.031
   74CHL1  H11A 6617   1.412   4.017   3.040
   74CHL1  H11B 6618   1.245   3.956   3.039
   74CHL1    C9 6619   1.261   4.132   2.904
   74CHL1    H9 6620   1.150   4.136   2.912
   74CHL1   C10 6621   1.286   4.063   2.771
   74CHL1   C19 6622   1.439   4.036   2.752
   74CHL1  H19A 6623   1.459   3.986   2.655
   74CHL1  H19B 6624   1.498   4.130   2.761
   74CHL1  H19C 6625   1.474   3.971   2.835
   74CHL1    C1 6626   1.206   3.933   2.769
   74CHL1   H1A 6627   1.249   3.845   2.822
   74CHL1   H1B 6628   1.105   3.949   2.812
   74CHL1    C2 6629   1.174   3.884   2.629
   74CHL1   H2A 6630   1.097   3.804   2.639
   74CHL1   H2B 6631   1.258   3.829   2.579
   74CHL1   C20 6632   1.367   4.334   3.425
   74CHL1   H20 6633   1.478   4.332   3.416
   74CHL1   C21 6634   1.315   4.210   3.492
   74CHL1  H21A 6635   1.324   4.122   3.426
   74CHL1  H21B 6636   1.210   4.224   3.524
   74CHL1  H21C 6637   1.383   4.176   3.573
   74CHL1   C22 6638   1.347   4.454   3.514
   74CHL1  H22A 6639   1.399   4.432   3.610
   74CHL1  H22B 6640   1.388   4.544   3.463
   74CHL1   C23 6641   1.204   4.502   3.547
   74CHL1  H23A 6642   1.160   4.549   3.456
   74CHL1  H23B 6643   1.141   4.418   3.584
   74CHL1   C24 6644   1.202   4.597   3.668
   74CHL1  H24A 6645   1.248   4.543   3.753
   74CHL1  H24B 6646   1.267   4.685   3.650
   74CHL1   C25 6647   1.055   4.625   3.708
   74CHL1   H25 6648   0.991   4.534   3.705
   74CHL1   C26 6649   1.051   4.681   3.853
   74CHL1  H26A 6650   0.947   4.703   3.887
   74CHL1  H26B 6651   1.106   4.611   3.919
   74CHL1  H26C 6652   1.107   4.776   3.855
   74CHL1   C27 6653   0.982   4.717   3.610
   74CHL1  H27A 6654   0.875   4.690   3.617
   74CHL1  H27B 6655   0.999   4.823   3.641
   74CHL1  H27C 6656   1.029   4.702   3.511
   75CHL1    C3 6657   1.280   3.197   2.621
   75CHL1    H3 6658   1.241   3.095   2.640
   75CHL1    O3 6659   1.308   3.232   2.490
   75CHL1   H3' 6660   1.366   3.307   2.503
   75CHL1    C4 6661   1.189   3.310   2.682
   75CHL1   H4A 6662   1.242   3.402   2.650
   75CHL1   H4B 6663   1.096   3.297   2.622
   75CHL1    C5 6664   1.178   3.297   2.831
   75CHL1    C6 6665   1.061   3.301   2.898
   75CHL1    H6 6666   0.977   3.327   2.832
   75CHL1    C7 6667   1.040   3.301   3.042
   75CHL1   H7A 6668   0.947   3.354   3.072
   75CHL1   H7B 6669   1.009   3.195   3.056
   75CHL1    C8 6670   1.173   3.336   3.121
   75CHL1    H8 6671   1.185   3.447   3.120
   75CHL1   C14 6672   1.153   3.291   3.266
   75CHL1   H14 6673   1.139   3.182   3.251
   75CHL1   C15 6674   1.027   3.331   3.356
   75CHL1  H15A 6675   1.010   3.440   3.362
   75CHL1  H15B 6676   0.932   3.293   3.313
   75CHL1   C16 6677   1.054   3.274   3.497
   75CHL1  H16A 6678   1.021   3.340   3.580
   75CHL1  H16B 6679   1.007   3.174   3.500
   75CHL1   C17 6680   1.211   3.245   3.492
   75CHL1   H17 6681   1.222   3.134   3.501
   75CHL1   C13 6682   1.276   3.306   3.361
   75CHL1   C18 6683   1.312   3.459   3.371
   75CHL1  H18A 6684   1.249   3.519   3.441
   75CHL1  H18B 6685   1.409   3.470   3.424
   75CHL1  H18C 6686   1.328   3.511   3.274
   75CHL1   C12 6687   1.390   3.221   3.300
   75CHL1  H12A 6688   1.483   3.228   3.360
   75CHL1  H12B 6689   1.359   3.115   3.307
   75CHL1   C11 6690   1.416   3.266   3.154
   75CHL1  H11A 6691   1.440   3.375   3.155
   75CHL1  H11B 6692   1.510   3.219   3.117
   75CHL1    C9 6693   1.290   3.266   3.057
   75CHL1    H9 6694   1.252   3.161   3.059
   75CHL1   C10 6695   1.313   3.293   2.908
   75CHL1   C19 6696   1.369   3.445   2.892
   75CHL1  H19A 6697   1.294   3.521   2.923
   75CHL1  H19B 6698   1.465   3.463   2.943
   75CHL1  H19C 6699   1.395   3.460   2.785
   75CHL1    C1 6700   1.399   3.189   2.839
   75CHL1   H1A 6701   1.500   3.183   2.884
   75CHL1   H1B 6702   1.353   3.090   2.863
   75CHL1    C2 6703   1.418   3.204   2.695
   75CHL1   H2A 6704   1.488   3.127   2.657
   75CHL1   H2B 6705   1.475   3.295   2.664
   75CHL1   C20 6706   1.277   3.286   3.628
   75CHL1   H20 6707   1.267   3.395   3.645
   75CHL1   C21 6708   1.426   3.260   3.620
   75CHL1  H21A 6709   1.469   3.284   3.720
   75CHL1  H21B 6710   1.479   3.326   3.548
   75CHL1  H21C 6711   1.451   3.152   3.616
   75CHL1   C22 6712   1.211   3.198   3.745
   75CHL1  H22A 6713   1.101   3.207   3.751
   75CHL1  H22B 6714   1.229   3.091   3.722
   75CHL1   C23 6715   1.270   3.216   3.882
   75CHL1  H23A 6716   1.215   3.146   3.948
   75CHL1  H23B 6717   1.377   3.183   3.888
   75CHL1   C24 6718   1.256   3.360   3.941
   75CHL1  H24A 6719   1.300   3.430   3.867
   75CHL1  H24B 6720   1.148   3.384   3.956
   75CHL1   C25 6721   1.327   3.378   4.071
   75CHL1   H25 6722   1.304   3.291   4.136
   75CHL1   C26 6723   1.485   3.381   4.067
   75CHL1  H26A 6724   1.513   3.366   4.174
   75CHL1  H26B 6725   1.531   3.295   4.014
   75CHL1  H26C 6726   1.528   3.471   4.018
   75CHL1   C27 6727   1.275   3.504   4.148
   75CHL1  H27A 6728   1.287   3.592   4.081
   75CHL1  H27B 6729   1.167   3.494   4.170
   75CHL1  H27C 6730   1.322   3.530   4.245
   76CHL1    C3 6731   6.678   4.971   3.029
   76CHL1    H3 6732   6.775   4.920   3.044
   76CHL1    O3 6733   6.659   4.961   2.890
   76CHL1   H3' 6734   6.574   5.003   2.873
   76CHL1    C4 6735   6.565   4.903   3.104
   76CHL1   H4A 6736   6.468   4.939   3.065
   76CHL1   H4B 6737   6.560   4.798   3.069
   76CHL1    C5 6738   6.561   4.926   3.256
   76CHL1    C6 6739   6.556   4.823   3.345
   76CHL1    H6 6740   6.541   4.723   3.304
   76CHL1    C7 6741   6.566   4.854   3.493
   76CHL1   H7A 6742   6.488   4.793   3.544
   76CHL1   H7B 6743   6.661   4.821   3.540
   76CHL1    C8 6744   6.540   5.005   3.538
   76CHL1    H8 6745   6.436   5.040   3.524
   76CHL1   C14 6746   6.588   5.022   3.686
   76CHL1   H14 6747   6.695   4.996   3.695
   76CHL1   C15 6748   6.520   4.927   3.795
   76CHL1  H15A 6749   6.413   4.913   3.770
   76CHL1  H15B 6750   6.576   4.831   3.793
   76CHL1   C16 6751   6.544   5.002   3.930
   76CHL1  H16A 6752   6.452   5.003   3.991
   76CHL1  H16B 6753   6.626   4.960   3.993
   76CHL1   C17 6754   6.612   5.141   3.892
   76CHL1   H17 6755   6.722   5.129   3.894
   76CHL1   C13 6756   6.576   5.163   3.740
   76CHL1   C18 6757   6.425   5.196   3.730
   76CHL1  H18A 6758   6.384   5.196   3.627
   76CHL1  H18B 6759   6.358   5.132   3.791
   76CHL1  H18C 6760   6.415   5.297   3.774
   76CHL1   C12 6761   6.661   5.262   3.660
   76CHL1  H12A 6762   6.639   5.359   3.709
   76CHL1  H12B 6763   6.770   5.244   3.669
   76CHL1   C11 6764   6.617   5.253   3.513
   76CHL1  H11A 6765   6.512   5.291   3.505
   76CHL1  H11B 6766   6.677   5.328   3.456
   76CHL1    C9 6767   6.619   5.102   3.453
   76CHL1    H9 6768   6.727   5.077   3.460
   76CHL1   C10 6769   6.588   5.077   3.298
   76CHL1   C19 6770   6.460   5.161   3.276
   76CHL1  H19A 6771   6.389   5.127   3.355
   76CHL1  H19B 6772   6.476   5.270   3.288
   76CHL1  H19C 6773   6.427   5.147   3.171
   76CHL1    C1 6774   6.710   5.135   3.216
   76CHL1   H1A 6775   6.720   5.243   3.241
   76CHL1   H1B 6776   6.802   5.079   3.244
   76CHL1    C2 6777   6.697   5.119   3.060
   76CHL1   H2A 6778   6.785   5.151   3.000
   76CHL1   H2B 6779   6.612   5.180   3.024
   76CHL1   C20 6780   6.584   5.260   3.992
   76CHL1   H20 6781   6.596   5.360   3.944
   76CHL1   C21 6782   6.699   5.257   4.092
   76CHL1  H21A 6783   6.704   5.345   4.160
   76CHL1  H21B 6784   6.791   5.263   4.030
   76CHL1  H21C 6785   6.699   5.161   4.148
   76CHL1   C22 6786   6.453   5.267   4.072
   76CHL1  H22A 6787   6.368   5.270   4.001
   76CHL1  H22B 6788   6.441   5.169   4.123
   76CHL1   C23 6789   6.434   5.387   4.169
   76CHL1  H23A 6790   6.527   5.400   4.228
   76CHL1  H23B 6791   6.427   5.486   4.121
   76CHL1   C24 6792   6.323   5.363   4.269
   76CHL1  H24A 6793   6.234   5.350   4.204
   76CHL1  H24B 6794   6.341   5.265   4.317
   76CHL1   C25 6795   6.311   5.469   4.386
   76CHL1   H25 6796   6.295   5.568   4.337
   76CHL1   C26 6797   6.181   5.443   4.461
   76CHL1  H26A 6798   6.169   5.513   4.546
   76CHL1  H26B 6799   6.088   5.451   4.401
   76CHL1  H26C 6800   6.197   5.346   4.512
   76CHL1   C27 6801   6.433   5.468   4.472
   76CHL1  H27A 6802   6.449   5.368   4.517
   76CHL1  H27B 6803   6.527   5.496   4.419
   76CHL1  H27C 6804   6.417   5.546   4.549
   77SOPE     N 6805   3.692   2.686   6.605
   77SOPE   HN1 6806   3.762   2.760   6.621
   77SOPE   HN2 6807   3.634   2.673   6.690
   77SOPE   HN3 6808   3.755   2.605   6.585
   77SOPE   C12 6809   3.623   2.709   6.478
   77SOPE  H12A 6810   3.566   2.803   6.480
   77SOPE  H12B 6811   3.549   2.630   6.452
   77SOPE   C11 6812   3.731   2.710   6.376
   77SOPE  H11A 6813   3.686   2.736   6.278
   77SOPE  H11B 6814   3.780   2.611   6.366
   77SOPE     P 6815   3.843   2.959   6.370
   77SOPE   O13 6816   3.982   2.994   6.327
   77SOPE   O14 6817   3.790   3.037   6.484
   77SOPE   O12 6818   3.835   2.806   6.414
   77SOPE   O11 6819   3.734   2.970   6.248
   77SOPE    C1 6820   3.776   2.940   6.113
   77SOPE    HA 6821   3.737   2.841   6.083
   77SOPE    HB 6822   3.886   2.936   6.098
   77SOPE    C2 6823   3.737   3.052   6.012
   77SOPE    HS 6824   3.635   3.089   6.037
   77SOPE   O21 6825   3.737   2.991   5.880
   77SOPE   C21 6826   3.661   3.057   5.791
   77SOPE   O22 6827   3.589   3.153   5.812
   77SOPE   C22 6828   3.664   2.973   5.664
   77SOPE   H2R 6829   3.595   2.887   5.679
   77SOPE   H2S 6830   3.769   2.937   5.660
   77SOPE    C3 6831   3.823   3.180   6.034
   77SOPE    HX 6832   3.928   3.144   6.024
   77SOPE    HY 6833   3.809   3.212   6.140
   77SOPE   O31 6834   3.799   3.286   5.941
   77SOPE   C31 6835   3.702   3.378   5.973
   77SOPE   O32 6836   3.652   3.386   6.080
   77SOPE   C32 6837   3.664   3.463   5.857
   77SOPE   H2X 6838   3.666   3.569   5.889
   77SOPE   H2Y 6839   3.565   3.441   5.813
   77SOPE   C23 6840   3.622   3.069   5.547
   77SOPE   H3R 6841   3.667   3.168   5.569
   77SOPE   H3S 6842   3.514   3.091   5.554
   77SOPE   C24 6843   3.644   3.021   5.400
   77SOPE   H4R 6844   3.744   2.977   5.382
   77SOPE   H4S 6845   3.571   2.938   5.386
   77SOPE   C25 6846   3.604   3.127   5.302
   77SOPE   H5R 6847   3.520   3.187   5.343
   77SOPE   H5S 6848   3.685   3.204   5.293
   77SOPE   C26 6849   3.578   3.074   5.162
   77SOPE   H6R 6850   3.665   3.013   5.131
   77SOPE   H6S 6851   3.491   3.005   5.159
   77SOPE   C27 6852   3.571   3.185   5.058
   77SOPE   H7R 6853   3.483   3.249   5.078
   77SOPE   H7S 6854   3.664   3.245   5.069
   77SOPE   C28 6855   3.543   3.144   4.909
   77SOPE   H8R 6856   3.581   3.223   4.840
   77SOPE   H8S 6857   3.613   3.058   4.903
   77SOPE   C29 6858   3.398   3.120   4.870
   77SOPE   H91 6859   3.316   3.155   4.933
   77SOPE  C210 6860   3.359   3.045   4.763
   77SOPE  H101 6861   3.250   3.037   4.751
   77SOPE  C211 6862   3.458   2.987   4.655
   77SOPE  H11R 6863   3.420   2.893   4.612
   77SOPE  H11S 6864   3.559   2.963   4.693
   77SOPE  C212 6865   3.461   3.084   4.537
   77SOPE  H12R 6866   3.358   3.095   4.497
   77SOPE  H12S 6867   3.529   3.044   4.458
   77SOPE  C213 6868   3.523   3.224   4.573
   77SOPE  H13R 6869   3.628   3.215   4.608
   77SOPE  H13S 6870   3.464   3.276   4.652
   77SOPE  C214 6871   3.533   3.317   4.450
   77SOPE  H14R 6872   3.438   3.356   4.408
   77SOPE  H14S 6873   3.579   3.251   4.373
   77SOPE  C215 6874   3.628   3.445   4.466
   77SOPE  H15R 6875   3.730   3.411   4.494
   77SOPE  H15S 6876   3.589   3.489   4.560
   77SOPE  C216 6877   3.636   3.529   4.336
   77SOPE  H16R 6878   3.678   3.630   4.353
   77SOPE  H16S 6879   3.536   3.528   4.286
   77SOPE  C217 6880   3.738   3.468   4.237
   77SOPE  H17R 6881   3.717   3.359   4.233
   77SOPE  H17S 6882   3.840   3.476   4.281
   77SOPE  C218 6883   3.750   3.539   4.096
   77SOPE  H18R 6884   3.832   3.489   4.040
   77SOPE  H18S 6885   3.772   3.646   4.116
   77SOPE  H18T 6886   3.649   3.527   4.053
   77SOPE   C33 6887   3.762   3.458   5.727
   77SOPE   H3X 6888   3.768   3.350   5.703
   77SOPE   H3Y 6889   3.859   3.507   5.753
   77SOPE   C34 6890   3.704   3.535   5.614
   77SOPE   H4X 6891   3.692   3.643   5.634
   77SOPE   H4Y 6892   3.602   3.499   5.589
   77SOPE   C35 6893   3.797   3.517   5.491
   77SOPE   H5X 6894   3.802   3.407   5.475
   77SOPE   H5Y 6895   3.898   3.560   5.508
   77SOPE   C36 6896   3.727   3.581   5.371
   77SOPE   H6X 6897   3.667   3.672   5.395
   77SOPE   H6Y 6898   3.638   3.515   5.358
   77SOPE   C37 6899   3.800   3.591   5.234
   77SOPE   H7X 6900   3.844   3.490   5.222
   77SOPE   H7Y 6901   3.874   3.673   5.246
   77SOPE   C38 6902   3.696   3.634   5.128
   77SOPE   H8X 6903   3.676   3.742   5.143
   77SOPE   H8Y 6904   3.598   3.583   5.141
   77SOPE   C39 6905   3.744   3.611   4.988
   77SOPE   H9X 6906   3.661   3.636   4.918
   77SOPE   H9Y 6907   3.754   3.501   4.984
   77SOPE  C310 6908   3.871   3.684   4.932
   77SOPE  H10X 6909   3.968   3.653   4.978
   77SOPE  H10Y 6910   3.873   3.782   4.984
   77SOPE  C311 6911   3.883   3.707   4.783
   77SOPE  H11X 6912   3.879   3.605   4.739
   77SOPE  H11Y 6913   3.986   3.744   4.767
   77SOPE  C312 6914   3.768   3.797   4.724
   77SOPE  H12X 6915   3.757   3.890   4.784
   77SOPE  H12Y 6916   3.676   3.738   4.743
   77SOPE  C313 6917   3.786   3.825   4.576
   77SOPE  H13X 6918   3.694   3.871   4.535
   77SOPE  H13Y 6919   3.807   3.727   4.529
   77SOPE  C314 6920   3.887   3.933   4.546
   77SOPE  H14X 6921   3.986   3.893   4.574
   77SOPE  H14Y 6922   3.865   4.020   4.612
   77SOPE  C315 6923   3.890   3.985   4.402
   77SOPE  H15X 6924   3.943   4.081   4.390
   77SOPE  H15Y 6925   3.783   3.997   4.374
   77SOPE  C316 6926   3.954   3.888   4.305
   77SOPE  H16X 6927   3.884   3.803   4.300
   77SOPE  H16Y 6928   4.059   3.868   4.334
   77SOPE  C317 6929   3.952   3.938   4.160
   77SOPE  H17X 6930   4.018   3.863   4.113
   77SOPE  H17Y 6931   4.011   4.032   4.165
   77SOPE  C318 6932   3.820   3.960   4.093
   77SOPE  H18X 6933   3.764   4.042   4.142
   77SOPE  H18Y 6934   3.762   3.867   4.108
   77SOPE  H18Z 6935   3.832   3.979   3.984
   78SOPE     N 6936   1.983   3.677   6.782
   78SOPE   HN1 6937   1.947   3.660   6.878
   78SOPE   HN2 6938   1.966   3.778   6.764
   78SOPE   HN3 6939   1.935   3.611   6.717
   78SOPE   C12 6940   2.132   3.653   6.764
   78SOPE  H12A 6941   2.180   3.753   6.774
   78SOPE  H12B 6942   2.134   3.643   6.654
   78SOPE   C11 6943   2.177   3.543   6.854
   78SOPE  H11A 6944   2.145   3.561   6.959
   78SOPE  H11B 6945   2.288   3.550   6.855
   78SOPE     P 6946   2.237   3.304   6.777
   78SOPE   O13 6947   2.156   3.183   6.795
   78SOPE   O14 6948   2.351   3.325   6.869
   78SOPE   O12 6949   2.140   3.419   6.804
   78SOPE   O11 6950   2.274   3.306   6.621
   78SOPE    C1 6951   2.337   3.404   6.550
   78SOPE    HA 6952   2.420   3.447   6.610
   78SOPE    HB 6953   2.276   3.494   6.526
   78SOPE    C2 6954   2.395   3.351   6.415
   78SOPE    HS 6955   2.448   3.260   6.452
   78SOPE   O21 6956   2.477   3.450   6.352
   78SOPE   C21 6957   2.589   3.423   6.305
   78SOPE   O22 6958   2.643   3.315   6.291
   78SOPE   C22 6959   2.651   3.554   6.252
   78SOPE   H2R 6960   2.717   3.602   6.327
   78SOPE   H2S 6961   2.567   3.625   6.236
   78SOPE    C3 6962   2.282   3.317   6.318
   78SOPE    HX 6963   2.235   3.414   6.291
   78SOPE    HY 6964   2.211   3.256   6.378
   78SOPE   O31 6965   2.338   3.258   6.203
   78SOPE   C31 6966   2.376   3.129   6.213
   78SOPE   O32 6967   2.380   3.064   6.319
   78SOPE   C32 6968   2.407   3.061   6.076
   78SOPE   H2X 6969   2.329   2.983   6.063
   78SOPE   H2Y 6970   2.509   3.018   6.079
   78SOPE   C23 6971   2.715   3.550   6.105
   78SOPE   H3R 6972   2.809   3.490   6.100
   78SOPE   H3S 6973   2.738   3.654   6.075
   78SOPE   C24 6974   2.640   3.477   5.996
   78SOPE   H4R 6975   2.652   3.369   6.021
   78SOPE   H4S 6976   2.530   3.495   5.995
   78SOPE   C25 6977   2.700   3.514   5.855
   78SOPE   H5R 6978   2.694   3.622   5.833
   78SOPE   H5S 6979   2.807   3.487   5.855
   78SOPE   C26 6980   2.625   3.444   5.741
   78SOPE   H6R 6981   2.610   3.337   5.765
   78SOPE   H6S 6982   2.525   3.491   5.736
   78SOPE   C27 6983   2.693   3.472   5.609
   78SOPE   H7R 6984   2.681   3.581   5.589
   78SOPE   H7S 6985   2.800   3.445   5.598
   78SOPE   C28 6986   2.615   3.422   5.481
   78SOPE   H8R 6987   2.517   3.473   5.465
   78SOPE   H8S 6988   2.675   3.449   5.392
   78SOPE   C29 6989   2.600   3.271   5.477
   78SOPE   H91 6990   2.575   3.219   5.570
   78SOPE  C210 6991   2.635   3.200   5.372
   78SOPE  H101 6992   2.631   3.091   5.382
   78SOPE  C211 6993   2.648   3.241   5.230
   78SOPE  H11R 6994   2.583   3.326   5.199
   78SOPE  H11S 6995   2.600   3.162   5.169
   78SOPE  C212 6996   2.784   3.260   5.174
   78SOPE  H12R 6997   2.851   3.175   5.199
   78SOPE  H12S 6998   2.807   3.359   5.219
   78SOPE  C213 6999   2.792   3.274   5.018
   78SOPE  H13R 7000   2.889   3.326   5.009
   78SOPE  H13S 7001   2.709   3.339   4.981
   78SOPE  C214 7002   2.800   3.144   4.940
   78SOPE  H14R 7003   2.700   3.096   4.925
   78SOPE  H14S 7004   2.849   3.060   4.994
   78SOPE  C215 7005   2.865   3.167   4.800
   78SOPE  H15R 7006   2.843   3.073   4.746
   78SOPE  H15S 7007   2.974   3.188   4.796
   78SOPE  C216 7008   2.789   3.273   4.717
   78SOPE  H16R 7009   2.840   3.288   4.620
   78SOPE  H16S 7010   2.797   3.371   4.769
   78SOPE  C217 7011   2.639   3.233   4.698
   78SOPE  H17R 7012   2.592   3.205   4.794
   78SOPE  H17S 7013   2.649   3.137   4.642
   78SOPE  C218 7014   2.552   3.325   4.630
   78SOPE  H18R 7015   2.602   3.359   4.537
   78SOPE  H18S 7016   2.545   3.421   4.685
   78SOPE  H18T 7017   2.455   3.279   4.600
   78SOPE   C33 7018   2.404   3.161   5.953
   78SOPE   H3X 7019   2.482   3.239   5.951
   78SOPE   H3Y 7020   2.313   3.224   5.953
   78SOPE   C34 7021   2.408   3.090   5.817
   78SOPE   H4X 7022   2.491   3.016   5.811
   78SOPE   H4Y 7023   2.427   3.175   5.747
   78SOPE   C35 7024   2.275   3.013   5.800
   78SOPE   H5X 7025   2.195   3.078   5.842
   78SOPE   H5Y 7026   2.280   2.916   5.854
   78SOPE   C36 7027   2.243   2.975   5.649
   78SOPE   H6X 7028   2.178   2.887   5.629
   78SOPE   H6Y 7029   2.336   2.943   5.598
   78SOPE   C37 7030   2.168   3.087   5.574
   78SOPE   H7X 7031   2.210   3.183   5.611
   78SOPE   H7Y 7032   2.063   3.081   5.608
   78SOPE   C38 7033   2.158   3.077   5.419
   78SOPE   H8X 7034   2.104   3.167   5.382
   78SOPE   H8Y 7035   2.104   2.988   5.380
   78SOPE   C39 7036   2.298   3.078   5.354
   78SOPE   H9X 7037   2.359   2.996   5.398
   78SOPE   H9Y 7038   2.356   3.170   5.379
   78SOPE  C310 7039   2.297   3.069   5.195
   78SOPE  H10X 7040   2.219   2.995   5.167
   78SOPE  H10Y 7041   2.394   3.023   5.165
   78SOPE  C311 7042   2.272   3.200   5.121
   78SOPE  H11X 7043   2.342   3.277   5.159
   78SOPE  H11Y 7044   2.173   3.245   5.143
   78SOPE  C312 7045   2.290   3.185   4.969
   78SOPE  H12X 7046   2.396   3.164   4.944
   78SOPE  H12Y 7047   2.294   3.288   4.927
   78SOPE  C313 7048   2.200   3.087   4.895
   78SOPE  H13X 7049   2.149   3.152   4.821
   78SOPE  H13Y 7050   2.122   3.043   4.961
   78SOPE  C314 7051   2.271   2.996   4.797
   78SOPE  H14X 7052   2.335   3.063   4.736
   78SOPE  H14Y 7053   2.195   2.951   4.729
   78SOPE  C315 7054   2.345   2.880   4.859
   78SOPE  H15X 7055   2.284   2.798   4.904
   78SOPE  H15Y 7056   2.416   2.907   4.940
   78SOPE  C316 7057   2.415   2.809   4.741
   78SOPE  H16X 7058   2.382   2.846   4.641
   78SOPE  H16Y 7059   2.407   2.698   4.747
   78SOPE  C317 7060   2.568   2.839   4.730
   78SOPE  H17X 7061   2.616   2.801   4.823
   78SOPE  H17Y 7062   2.591   2.948   4.732
   78SOPE  C318 7063   2.633   2.779   4.608
   78SOPE  H18X 7064   2.667   2.675   4.624
   78SOPE  H18Y 7065   2.728   2.836   4.594
   78SOPE  H18Z 7066   2.574   2.784   4.514
   79SOPE     N 7067   4.846   0.999   6.485
   79SOPE   HN1 7068   4.900   1.015   6.573
   79SOPE   HN2 7069   4.758   0.960   6.525
   79SOPE   HN3 7070   4.888   0.919   6.433
   79SOPE   C12 7071   4.828   1.124   6.405
   79SOPE  H12A 7072   4.922   1.147   6.352
   79SOPE  H12B 7073   4.804   1.207   6.476
   79SOPE   C11 7074   4.708   1.106   6.300
   79SOPE  H11A 7075   4.747   1.054   6.210
   79SOPE  H11B 7076   4.672   1.209   6.276
   79SOPE     P 7077   4.505   0.942   6.275
   79SOPE   O13 7078   4.361   0.967   6.302
   79SOPE   O14 7079   4.549   0.797   6.286
   79SOPE   O12 7080   4.596   1.041   6.358
   79SOPE   O11 7081   4.537   0.971   6.126
   79SOPE    C1 7082   4.469   1.075   6.055
   79SOPE    HA 7083   4.478   1.166   6.117
   79SOPE    HB 7084   4.364   1.037   6.049
   79SOPE    C2 7085   4.524   1.097   5.913
   79SOPE    HS 7086   4.438   1.133   5.852
   79SOPE   O21 7087   4.562   0.976   5.840
   79SOPE   C21 7088   4.465   0.878   5.853
   79SOPE   O22 7089   4.350   0.898   5.853
   79SOPE   C22 7090   4.534   0.745   5.836
   79SOPE   H2R 7091   4.622   0.748   5.903
   79SOPE   H2S 7092   4.570   0.729   5.732
   79SOPE    C3 7093   4.637   1.200   5.917
   79SOPE    HX 7094   4.715   1.169   5.989
   79SOPE    HY 7095   4.599   1.295   5.960
   79SOPE   O31 7096   4.699   1.223   5.787
   79SOPE   C31 7097   4.632   1.304   5.714
   79SOPE   O32 7098   4.537   1.367   5.745
   79SOPE   C32 7099   4.697   1.309   5.579
   79SOPE   H2X 7100   4.787   1.244   5.587
   79SOPE   H2Y 7101   4.721   1.415   5.559
   79SOPE   C23 7102   4.446   0.627   5.880
   79SOPE   H3R 7103   4.407   0.653   5.981
   79SOPE   H3S 7104   4.510   0.538   5.897
   79SOPE   C24 7105   4.344   0.585   5.779
   79SOPE   H4R 7106   4.300   0.486   5.805
   79SOPE   H4S 7107   4.266   0.663   5.770
   79SOPE   C25 7108   4.400   0.567   5.636
   79SOPE   H5R 7109   4.396   0.662   5.579
   79SOPE   H5S 7110   4.506   0.534   5.632
   79SOPE   C26 7111   4.304   0.473   5.562
   79SOPE   H6R 7112   4.355   0.446   5.467
   79SOPE   H6S 7113   4.274   0.377   5.611
   79SOPE   C27 7114   4.162   0.535   5.537
   79SOPE   H7R 7115   4.113   0.536   5.637
   79SOPE   H7S 7116   4.152   0.637   5.494
   79SOPE   C28 7117   4.083   0.451   5.437
   79SOPE   H8R 7118   4.135   0.451   5.339
   79SOPE   H8S 7119   4.069   0.346   5.468
   79SOPE   C29 7120   3.945   0.510   5.408
   79SOPE   H91 7121   3.871   0.467   5.477
   79SOPE  C210 7122   3.896   0.592   5.316
   79SOPE  H101 7123   3.789   0.612   5.326
   79SOPE  C211 7124   3.974   0.665   5.213
   79SOPE  H11R 7125   4.077   0.670   5.254
   79SOPE  H11S 7126   3.924   0.765   5.213
   79SOPE  C212 7127   3.971   0.608   5.071
   79SOPE  H12R 7128   3.869   0.610   5.026
   79SOPE  H12S 7129   4.010   0.504   5.069
   79SOPE  C213 7130   4.053   0.688   4.967
   79SOPE  H13R 7131   4.145   0.704   5.026
   79SOPE  H13S 7132   4.014   0.788   4.940
   79SOPE  C214 7133   4.088   0.606   4.846
   79SOPE  H14R 7134   3.993   0.584   4.793
   79SOPE  H14S 7135   4.128   0.509   4.883
   79SOPE  C215 7136   4.189   0.674   4.750
   79SOPE  H15R 7137   4.204   0.588   4.681
   79SOPE  H15S 7138   4.273   0.708   4.813
   79SOPE  C216 7139   4.139   0.784   4.663
   79SOPE  H16R 7140   4.144   0.889   4.701
   79SOPE  H16S 7141   4.033   0.773   4.632
   79SOPE  C217 7142   4.216   0.773   4.532
   79SOPE  H17R 7143   4.158   0.836   4.461
   79SOPE  H17S 7144   4.217   0.669   4.493
   79SOPE  C218 7145   4.353   0.836   4.554
   79SOPE  H18R 7146   4.343   0.941   4.590
   79SOPE  H18S 7147   4.412   0.833   4.460
   79SOPE  H18T 7148   4.415   0.775   4.622
   79SOPE   C33 7149   4.608   1.253   5.472
   79SOPE   H3X 7150   4.661   1.266   5.375
   79SOPE   H3Y 7151   4.522   1.319   5.449
   79SOPE   C34 7152   4.561   1.104   5.493
   79SOPE   H4X 7153   4.509   1.095   5.591
   79SOPE   H4Y 7154   4.654   1.046   5.516
   79SOPE   C35 7155   4.479   1.038   5.383
   79SOPE   H5X 7156   4.498   1.092   5.287
   79SOPE   H5Y 7157   4.371   1.059   5.397
   79SOPE   C36 7158   4.504   0.884   5.367
   79SOPE   H6X 7159   4.489   0.835   5.466
   79SOPE   H6Y 7160   4.602   0.851   5.326
   79SOPE   C37 7161   4.396   0.822   5.272
   79SOPE   H7X 7162   4.394   0.886   5.182
   79SOPE   H7Y 7163   4.294   0.831   5.317
   79SOPE   C38 7164   4.417   0.673   5.235
   79SOPE   H8X 7165   4.342   0.650   5.156
   79SOPE   H8Y 7166   4.395   0.609   5.323
   79SOPE   C39 7167   4.557   0.640   5.182
   79SOPE   H9X 7168   4.555   0.536   5.141
   79SOPE   H9Y 7169   4.630   0.638   5.266
   79SOPE  C310 7170   4.622   0.736   5.082
   79SOPE  H10X 7171   4.614   0.843   5.111
   79SOPE  H10Y 7172   4.554   0.724   4.995
   79SOPE  C311 7173   4.767   0.708   5.028
   79SOPE  H11X 7174   4.754   0.612   4.973
   79SOPE  H11Y 7175   4.837   0.683   5.111
   79SOPE  C312 7176   4.828   0.823   4.936
   79SOPE  H12X 7177   4.931   0.799   4.900
   79SOPE  H12Y 7178   4.822   0.913   5.001
   79SOPE  C313 7179   4.731   0.843   4.811
   79SOPE  H13X 7180   4.626   0.853   4.845
   79SOPE  H13Y 7181   4.736   0.754   4.744
   79SOPE  C314 7182   4.767   0.970   4.724
   79SOPE  H14X 7183   4.854   0.947   4.658
   79SOPE  H14Y 7184   4.781   1.061   4.787
   79SOPE  C315 7185   4.653   0.998   4.630
   79SOPE  H15X 7186   4.563   1.033   4.685
   79SOPE  H15Y 7187   4.621   0.908   4.573
   79SOPE  C316 7188   4.699   1.091   4.521
   79SOPE  H16X 7189   4.612   1.130   4.464
   79SOPE  H16Y 7190   4.748   1.034   4.439
   79SOPE  C317 7191   4.771   1.218   4.574
   79SOPE  H17X 7192   4.881   1.213   4.561
   79SOPE  H17Y 7193   4.742   1.245   4.678
   79SOPE  C318 7194   4.729   1.344   4.492
   79SOPE  H18X 7195   4.770   1.422   4.559
   79SOPE  H18Y 7196   4.618   1.345   4.490
   79SOPE  H18Z 7197   4.769   1.360   4.390
   80SOPE     N 7198   1.435   2.746   6.326
   80SOPE   HN1 7199   1.516   2.735   6.390
   80SOPE   HN2 7200   1.345   2.704   6.357
   80SOPE   HN3 7201   1.455   2.697   6.237
   80SOPE   C12 7202   1.410   2.894   6.300
   80SOPE  H12A 7203   1.312   2.905   6.249
   80SOPE  H12B 7204   1.496   2.923   6.235
   80SOPE   C11 7205   1.407   2.980   6.427
   80SOPE  H11A 7206   1.320   2.943   6.485
   80SOPE  H11B 7207   1.394   3.089   6.408
   80SOPE     P 7208   1.666   3.040   6.476
   80SOPE   O13 7209   1.772   2.966   6.546
   80SOPE   O14 7210   1.651   3.184   6.508
   80SOPE   O12 7211   1.525   2.964   6.509
   80SOPE   O11 7212   1.685   3.018   6.318
   80SOPE    C1 7213   1.824   3.028   6.270
   80SOPE    HA 7214   1.866   2.928   6.243
   80SOPE    HB 7215   1.888   3.083   6.342
   80SOPE    C2 7216   1.834   3.117   6.141
   80SOPE    HS 7217   1.789   3.212   6.177
   80SOPE   O21 7218   1.762   3.059   6.034
   80SOPE   C21 7219   1.668   3.121   5.984
   80SOPE   O22 7220   1.628   3.234   6.009
   80SOPE   C22 7221   1.609   3.040   5.866
   80SOPE   H2R 7222   1.536   2.969   5.911
   80SOPE   H2S 7223   1.690   2.970   5.836
   80SOPE    C3 7224   1.983   3.137   6.100
   80SOPE    HX 7225   2.009   3.035   6.064
   80SOPE    HY 7226   2.052   3.158   6.184
   80SOPE   O31 7227   1.993   3.238   5.995
   80SOPE   C31 7228   2.012   3.361   6.036
   80SOPE   O32 7229   2.003   3.407   6.148
   80SOPE   C32 7230   2.040   3.460   5.912
   80SOPE   H2X 7231   2.108   3.542   5.943
   80SOPE   H2Y 7232   1.936   3.491   5.888
   80SOPE   C23 7233   1.553   3.119   5.748
   80SOPE   H3R 7234   1.479   3.190   5.791
   80SOPE   H3S 7235   1.510   3.050   5.672
   80SOPE   C24 7236   1.667   3.195   5.672
   80SOPE   H4R 7237   1.722   3.252   5.750
   80SOPE   H4S 7238   1.735   3.119   5.628
   80SOPE   C25 7239   1.611   3.285   5.555
   80SOPE   H5R 7240   1.568   3.212   5.483
   80SOPE   H5S 7241   1.526   3.342   5.599
   80SOPE   C26 7242   1.722   3.367   5.482
   80SOPE   H6R 7243   1.754   3.444   5.556
   80SOPE   H6S 7244   1.806   3.296   5.472
   80SOPE   C27 7245   1.666   3.421   5.350
   80SOPE   H7R 7246   1.570   3.470   5.374
   80SOPE   H7S 7247   1.729   3.507   5.317
   80SOPE   C28 7248   1.640   3.329   5.226
   80SOPE   H8R 7249   1.565   3.252   5.253
   80SOPE   H8S 7250   1.602   3.393   5.143
   80SOPE   C29 7251   1.773   3.266   5.178
   80SOPE   H91 7252   1.809   3.174   5.225
   80SOPE  C210 7253   1.850   3.318   5.077
   80SOPE  H101 7254   1.936   3.255   5.049
   80SOPE  C211 7255   1.840   3.449   4.998
   80SOPE  H11R 7256   1.928   3.517   4.998
   80SOPE  H11S 7257   1.765   3.519   5.038
   80SOPE  C212 7258   1.812   3.426   4.853
   80SOPE  H12R 7259   1.815   3.526   4.806
   80SOPE  H12S 7260   1.709   3.394   4.825
   80SOPE  C213 7261   1.912   3.328   4.780
   80SOPE  H13R 7262   1.920   3.231   4.833
   80SOPE  H13S 7263   2.016   3.367   4.779
   80SOPE  C214 7264   1.866   3.304   4.637
   80SOPE  H14R 7265   1.870   3.407   4.594
   80SOPE  H14S 7266   1.760   3.272   4.630
   80SOPE  C215 7267   1.956   3.213   4.557
   80SOPE  H15R 7268   1.907   3.184   4.462
   80SOPE  H15S 7269   1.984   3.120   4.611
   80SOPE  C216 7270   2.081   3.291   4.516
   80SOPE  H16R 7271   2.161   3.321   4.587
   80SOPE  H16S 7272   2.047   3.393   4.487
   80SOPE  C217 7273   2.151   3.234   4.393
   80SOPE  H17R 7274   2.232   3.309   4.393
   80SOPE  H17S 7275   2.092   3.232   4.299
   80SOPE  C218 7276   2.208   3.095   4.425
   80SOPE  H18R 7277   2.302   3.082   4.367
   80SOPE  H18S 7278   2.138   3.018   4.386
   80SOPE  H18T 7279   2.235   3.087   4.533
   80SOPE   C33 7280   2.102   3.415   5.777
   80SOPE   H3X 7281   2.057   3.319   5.743
   80SOPE   H3Y 7282   2.211   3.407   5.798
   80SOPE   C34 7283   2.068   3.517   5.670
   80SOPE   H4X 7284   2.108   3.618   5.695
   80SOPE   H4Y 7285   1.958   3.529   5.655
   80SOPE   C35 7286   2.122   3.466   5.534
   80SOPE   H5X 7287   2.061   3.376   5.512
   80SOPE   H5Y 7288   2.227   3.429   5.539
   80SOPE   C36 7289   2.101   3.559   5.410
   80SOPE   H6X 7290   2.143   3.660   5.428
   80SOPE   H6Y 7291   1.992   3.571   5.390
   80SOPE   C37 7292   2.181   3.523   5.286
   80SOPE   H7X 7293   2.139   3.428   5.246
   80SOPE   H7Y 7294   2.285   3.510   5.322
   80SOPE   C38 7295   2.172   3.624   5.176
   80SOPE   H8X 7296   2.212   3.725   5.201
   80SOPE   H8Y 7297   2.063   3.630   5.156
   80SOPE   C39 7298   2.232   3.574   5.042
   80SOPE   H9X 7299   2.180   3.476   5.031
   80SOPE   H9Y 7300   2.341   3.553   5.046
   80SOPE  C310 7301   2.191   3.647   4.907
   80SOPE  H10X 7302   2.225   3.753   4.907
   80SOPE  H10Y 7303   2.081   3.658   4.915
   80SOPE  C311 7304   2.237   3.578   4.776
   80SOPE  H11X 7305   2.194   3.476   4.768
   80SOPE  H11Y 7306   2.346   3.564   4.760
   80SOPE  C312 7307   2.207   3.658   4.641
   80SOPE  H12X 7308   2.096   3.667   4.634
   80SOPE  H12Y 7309   2.240   3.597   4.554
   80SOPE  C313 7310   2.274   3.793   4.652
   80SOPE  H13X 7311   2.374   3.782   4.700
   80SOPE  H13Y 7312   2.222   3.864   4.719
   80SOPE  C314 7313   2.273   3.852   4.513
   80SOPE  H14X 7314   2.303   3.958   4.530
   80SOPE  H14Y 7315   2.173   3.867   4.468
   80SOPE  C315 7316   2.384   3.797   4.413
   80SOPE  H15X 7317   2.389   3.854   4.318
   80SOPE  H15Y 7318   2.343   3.697   4.389
   80SOPE  C316 7319   2.533   3.776   4.468
   80SOPE  H16X 7320   2.550   3.685   4.529
   80SOPE  H16Y 7321   2.563   3.871   4.518
   80SOPE  C317 7322   2.626   3.767   4.350
   80SOPE  H17X 7323   2.639   3.861   4.292
   80SOPE  H17Y 7324   2.587   3.687   4.284
   80SOPE  C318 7325   2.767   3.726   4.394
   80SOPE  H18X 7326   2.808   3.811   4.452
   80SOPE  H18Y 7327   2.824   3.700   4.302
   80SOPE  H18Z 7328   2.762   3.640   4.464
   81SOPE     N 7329   4.575   0.538   6.348
   81SOPE   HN1 7330   4.655   0.523   6.413
   81SOPE   HN2 7331   4.592   0.628   6.299
   81SOPE   HN3 7332   4.492   0.559   6.407
   81SOPE   C12 7333   4.550   0.434   6.248
   81SOPE  H12A 7334   4.467   0.475   6.187
   81SOPE  H12B 7335   4.515   0.341   6.298
   81SOPE   C11 7336   4.678   0.404   6.176
   81SOPE  H11A 7337   4.706   0.493   6.117
   81SOPE  H11B 7338   4.658   0.329   6.096
   81SOPE     P 7339   4.905   0.455   6.307
   81SOPE   O13 7340   4.989   0.387   6.406
   81SOPE   O14 7341   4.854   0.584   6.351
   81SOPE   O12 7342   4.787   0.361   6.264
   81SOPE   O11 7343   4.980   0.477   6.172
   81SOPE    C1 7344   5.084   0.388   6.125
   81SOPE    HA 7345   5.051   0.282   6.125
   81SOPE    HB 7346   5.180   0.407   6.177
   81SOPE    C2 7347   5.123   0.416   5.970
   81SOPE    HS 7348   5.233   0.397   5.965
   81SOPE   O21 7349   5.113   0.559   5.932
   81SOPE   C21 7350   5.190   0.646   5.992
   81SOPE   O22 7351   5.278   0.629   6.073
   81SOPE   C22 7352   5.145   0.790   5.946
   81SOPE   H2R 7353   5.133   0.854   6.036
   81SOPE   H2S 7354   5.044   0.785   5.900
   81SOPE    C3 7355   5.035   0.328   5.870
   81SOPE    HX 7356   4.927   0.337   5.892
   81SOPE    HY 7357   5.074   0.225   5.884
   81SOPE   O31 7358   5.045   0.367   5.735
   81SOPE   C31 7359   5.166   0.343   5.671
   81SOPE   O32 7360   5.259   0.278   5.718
   81SOPE   C32 7361   5.173   0.430   5.547
   81SOPE   H2X 7362   5.149   0.533   5.581
   81SOPE   H2Y 7363   5.088   0.403   5.481
   81SOPE   C23 7364   5.239   0.871   5.853
   81SOPE   H3R 7365   5.247   0.825   5.752
   81SOPE   H3S 7366   5.344   0.872   5.891
   81SOPE   C24 7367   5.196   1.018   5.845
   81SOPE   H4R 7368   5.088   1.015   5.821
   81SOPE   H4S 7369   5.216   1.062   5.945
   81SOPE   C25 7370   5.269   1.084   5.721
   81SOPE   H5R 7371   5.375   1.055   5.736
   81SOPE   H5S 7372   5.238   1.027   5.631
   81SOPE   C26 7373   5.253   1.231   5.716
   81SOPE   H6R 7374   5.143   1.242   5.708
   81SOPE   H6S 7375   5.274   1.281   5.813
   81SOPE   C27 7376   5.328   1.307   5.609
   81SOPE   H7R 7377   5.438   1.317   5.618
   81SOPE   H7S 7378   5.329   1.237   5.523
   81SOPE   C28 7379   5.264   1.445   5.594
   81SOPE   H8R 7380   5.285   1.503   5.687
   81SOPE   H8S 7381   5.322   1.487   5.509
   81SOPE   C29 7382   5.122   1.447   5.558
   81SOPE   H91 7383   5.055   1.427   5.643
   81SOPE  C210 7384   5.067   1.454   5.438
   81SOPE  H101 7385   4.957   1.462   5.436
   81SOPE  C211 7386   5.136   1.461   5.303
   81SOPE  H11R 7387   5.221   1.395   5.275
   81SOPE  H11S 7388   5.158   1.569   5.294
   81SOPE  C212 7389   5.026   1.440   5.187
   81SOPE  H12R 7390   4.958   1.527   5.176
   81SOPE  H12S 7391   4.974   1.343   5.205
   81SOPE  C213 7392   5.109   1.430   5.053
   81SOPE  H13R 7393   5.155   1.330   5.046
   81SOPE  H13S 7394   5.183   1.510   5.076
   81SOPE  C214 7395   5.033   1.444   4.920
   81SOPE  H14R 7396   4.973   1.537   4.915
   81SOPE  H14S 7397   4.968   1.355   4.907
   81SOPE  C215 7398   5.135   1.448   4.802
   81SOPE  H15R 7399   5.199   1.357   4.799
   81SOPE  H15S 7400   5.203   1.533   4.822
   81SOPE  C216 7401   5.070   1.458   4.664
   81SOPE  H16R 7402   5.065   1.566   4.638
   81SOPE  H16S 7403   4.967   1.417   4.664
   81SOPE  C217 7404   5.156   1.384   4.555
   81SOPE  H17R 7405   5.114   1.283   4.537
   81SOPE  H17S 7406   5.262   1.376   4.587
   81SOPE  C218 7407   5.141   1.462   4.430
   81SOPE  H18R 7408   5.034   1.464   4.401
   81SOPE  H18S 7409   5.209   1.432   4.347
   81SOPE  H18T 7410   5.171   1.567   4.451
   81SOPE   C33 7411   5.307   0.437   5.474
   81SOPE   H3X 7412   5.323   0.343   5.417
   81SOPE   H3Y 7413   5.394   0.452   5.542
   81SOPE   C34 7414   5.322   0.539   5.358
   81SOPE   H4X 7415   5.294   0.640   5.396
   81SOPE   H4Y 7416   5.258   0.514   5.271
   81SOPE   C35 7417   5.466   0.557   5.301
   81SOPE   H5X 7418   5.497   0.461   5.255
   81SOPE   H5Y 7419   5.539   0.583   5.381
   81SOPE   C36 7420   5.467   0.678   5.202
   81SOPE   H6X 7421   5.423   0.771   5.244
   81SOPE   H6Y 7422   5.398   0.652   5.119
   81SOPE   C37 7423   5.611   0.705   5.150
   81SOPE   H7X 7424   5.650   0.613   5.100
   81SOPE   H7Y 7425   5.672   0.737   5.237
   81SOPE   C38 7426   5.616   0.820   5.051
   81SOPE   H8X 7427   5.567   0.910   5.094
   81SOPE   H8Y 7428   5.553   0.790   4.966
   81SOPE   C39 7429   5.756   0.861   5.004
   81SOPE   H9X 7430   5.816   0.768   5.010
   81SOPE   H9Y 7431   5.800   0.933   5.077
   81SOPE  C310 7432   5.782   0.921   4.863
   81SOPE  H10X 7433   5.750   1.027   4.863
   81SOPE  H10Y 7434   5.720   0.874   4.783
   81SOPE  C311 7435   5.932   0.921   4.837
   81SOPE  H11X 7436   5.965   0.816   4.817
   81SOPE  H11Y 7437   5.982   0.957   4.929
   81SOPE  C312 7438   5.978   1.010   4.725
   81SOPE  H12X 7439   5.946   1.114   4.744
   81SOPE  H12Y 7440   5.945   0.975   4.625
   81SOPE  C313 7441   6.131   1.010   4.724
   81SOPE  H13X 7442   6.167   0.908   4.699
   81SOPE  H13Y 7443   6.172   1.032   4.825
   81SOPE  C314 7444   6.193   1.107   4.625
   81SOPE  H14X 7445   6.146   1.204   4.650
   81SOPE  H14Y 7446   6.176   1.080   4.519
   81SOPE  C315 7447   6.340   1.119   4.654
   81SOPE  H15X 7448   6.388   1.023   4.627
   81SOPE  H15Y 7449   6.347   1.136   4.763
   81SOPE  C316 7450   6.403   1.242   4.583
   81SOPE  H16X 7451   6.365   1.338   4.623
   81SOPE  H16Y 7452   6.378   1.233   4.475
   81SOPE  C317 7453   6.563   1.237   4.589
   81SOPE  H17X 7454   6.583   1.134   4.552
   81SOPE  H17Y 7455   6.593   1.231   4.696
   81SOPE  C318 7456   6.634   1.339   4.505
   81SOPE  H18X 7457   6.593   1.353   4.403
   81SOPE  H18Y 7458   6.743   1.316   4.506
   81SOPE  H18Z 7459   6.616   1.437   4.555
   82SOPE     N 7460   2.327   1.313   6.473
   82SOPE   HN1 7461   2.416   1.305   6.526
   82SOPE   HN2 7462   2.269   1.392   6.506
   82SOPE   HN3 7463   2.271   1.226   6.488
   82SOPE   C12 7464   2.348   1.346   6.324
   82SOPE  H12A 7465   2.452   1.385   6.323
   82SOPE  H12B 7466   2.280   1.429   6.298
   82SOPE   C11 7467   2.328   1.223   6.239
   82SOPE  H11A 7468   2.418   1.162   6.219
   82SOPE  H11B 7469   2.301   1.264   6.139
   82SOPE     P 7470   2.232   0.972   6.299
   82SOPE   O13 7471   2.097   0.916   6.326
   82SOPE   O14 7472   2.346   0.942   6.391
   82SOPE   O12 7473   2.226   1.137   6.289
   82SOPE   O11 7474   2.271   0.936   6.156
   82SOPE    C1 7475   2.231   1.001   6.029
   82SOPE    HA 7476   2.310   1.054   5.973
   82SOPE    HB 7477   2.162   1.085   6.051
   82SOPE    C2 7478   2.148   0.901   5.944
   82SOPE    HS 7479   2.213   0.812   5.927
   82SOPE   O21 7480   2.120   0.965   5.818
   82SOPE   C21 7481   2.106   0.894   5.712
   82SOPE   O22 7482   2.122   0.774   5.707
   82SOPE   C22 7483   2.048   0.956   5.586
   82SOPE   H2R 7484   2.097   1.056   5.579
   82SOPE   H2S 7485   1.938   0.962   5.597
   82SOPE    C3 7486   2.018   0.856   6.016
   82SOPE    HX 7487   1.975   0.954   6.045
   82SOPE    HY 7488   2.049   0.807   6.111
   82SOPE   O31 7489   1.933   0.774   5.929
   82SOPE   C31 7490   1.966   0.638   5.940
   82SOPE   O32 7491   2.047   0.596   6.018
   82SOPE   C32 7492   1.881   0.550   5.845
   82SOPE   H2X 7493   1.949   0.464   5.830
   82SOPE   H2Y 7494   1.874   0.612   5.753
   82SOPE   C23 7495   2.074   0.877   5.456
   82SOPE   H3R 7496   2.063   0.766   5.462
   82SOPE   H3S 7497   2.183   0.887   5.441
   82SOPE   C24 7498   1.996   0.927   5.336
   82SOPE   H4R 7499   2.016   0.851   5.257
   82SOPE   H4S 7500   1.886   0.930   5.351
   82SOPE   C25 7501   2.051   1.054   5.277
   82SOPE   H5R 7502   2.018   1.139   5.341
   82SOPE   H5S 7503   2.162   1.049   5.290
   82SOPE   C26 7504   2.022   1.080   5.128
   82SOPE   H6R 7505   2.005   1.189   5.115
   82SOPE   H6S 7506   2.106   1.053   5.061
   82SOPE   C27 7507   1.893   1.016   5.077
   82SOPE   H7R 7508   1.912   0.909   5.057
   82SOPE   H7S 7509   1.813   1.024   5.153
   82SOPE   C28 7510   1.845   1.083   4.947
   82SOPE   H8R 7511   1.740   1.052   4.929
   82SOPE   H8S 7512   1.831   1.191   4.965
   82SOPE   C29 7513   1.938   1.049   4.829
   82SOPE   H91 7514   2.043   1.081   4.840
   82SOPE  C210 7515   1.896   1.008   4.702
   82SOPE  H101 7516   1.972   0.975   4.630
   82SOPE  C211 7517   1.750   0.985   4.658
   82SOPE  H11R 7518   1.695   0.944   4.745
   82SOPE  H11S 7519   1.744   0.898   4.590
   82SOPE  C212 7520   1.656   1.087   4.598
   82SOPE  H12R 7521   1.661   1.180   4.658
   82SOPE  H12S 7522   1.557   1.037   4.604
   82SOPE  C213 7523   1.696   1.123   4.458
   82SOPE  H13R 7524   1.610   1.171   4.407
   82SOPE  H13S 7525   1.718   1.029   4.402
   82SOPE  C214 7526   1.807   1.226   4.448
   82SOPE  H14R 7527   1.897   1.194   4.505
   82SOPE  H14S 7528   1.762   1.316   4.496
   82SOPE  C215 7529   1.864   1.251   4.309
   82SOPE  H15R 7530   1.853   1.161   4.246
   82SOPE  H15S 7531   1.973   1.275   4.312
   82SOPE  C216 7532   1.790   1.366   4.228
   82SOPE  H16R 7533   1.845   1.463   4.235
   82SOPE  H16S 7534   1.700   1.394   4.288
   82SOPE  C217 7535   1.749   1.338   4.089
   82SOPE  H17R 7536   1.673   1.257   4.094
   82SOPE  H17S 7537   1.836   1.292   4.037
   82SOPE  C218 7538   1.679   1.451   4.007
   82SOPE  H18R 7539   1.631   1.406   3.917
   82SOPE  H18S 7540   1.758   1.519   3.970
   82SOPE  H18T 7541   1.605   1.501   4.073
   82SOPE   C33 7542   1.747   0.513   5.904
   82SOPE   H3X 7543   1.751   0.532   6.014
   82SOPE   H3Y 7544   1.728   0.404   5.892
   82SOPE   C34 7545   1.628   0.594   5.861
   82SOPE   H4X 7546   1.583   0.540   5.774
   82SOPE   H4Y 7547   1.662   0.694   5.828
   82SOPE   C35 7548   1.516   0.592   5.970
   82SOPE   H5X 7549   1.553   0.624   6.070
   82SOPE   H5Y 7550   1.482   0.487   5.983
   82SOPE   C36 7551   1.400   0.684   5.927
   82SOPE   H6X 7552   1.454   0.781   5.921
   82SOPE   H6Y 7553   1.324   0.690   6.008
   82SOPE   C37 7554   1.323   0.641   5.801
   82SOPE   H7X 7555   1.267   0.546   5.813
   82SOPE   H7Y 7556   1.400   0.626   5.722
   82SOPE   C38 7557   1.225   0.758   5.760
   82SOPE   H8X 7558   1.281   0.853   5.774
   82SOPE   H8Y 7559   1.145   0.772   5.836
   82SOPE   C39 7560   1.178   0.749   5.619
   82SOPE   H9X 7561   1.108   0.663   5.610
   82SOPE   H9Y 7562   1.250   0.730   5.537
   82SOPE  C310 7563   1.090   0.872   5.576
   82SOPE  H10X 7564   1.150   0.965   5.590
   82SOPE  H10Y 7565   1.001   0.888   5.641
   82SOPE  C311 7566   1.038   0.867   5.434
   82SOPE  H11X 7567   0.967   0.783   5.416
   82SOPE  H11Y 7568   1.127   0.846   5.371
   82SOPE  C312 7569   0.979   1.002   5.387
   82SOPE  H12X 7570   1.064   1.072   5.400
   82SOPE  H12Y 7571   0.895   1.032   5.454
   82SOPE  C313 7572   0.944   0.996   5.236
   82SOPE  H13X 7573   0.850   0.937   5.233
   82SOPE  H13Y 7574   1.025   0.938   5.186
   82SOPE  C314 7575   0.927   1.132   5.174
   82SOPE  H14X 7576   1.030   1.172   5.154
   82SOPE  H14Y 7577   0.865   1.199   5.237
   82SOPE  C315 7578   0.868   1.140   5.025
   82SOPE  H15X 7579   0.759   1.153   5.037
   82SOPE  H15Y 7580   0.904   1.046   4.978
   82SOPE  C316 7581   0.909   1.261   4.941
   82SOPE  H16X 7582   1.017   1.245   4.926
   82SOPE  H16Y 7583   0.900   1.354   5.001
   82SOPE  C317 7584   0.827   1.267   4.817
   82SOPE  H17X 7585   0.724   1.279   4.857
   82SOPE  H17Y 7586   0.829   1.168   4.766
   82SOPE  C318 7587   0.868   1.376   4.719
   82SOPE  H18X 7588   0.776   1.415   4.670
   82SOPE  H18Y 7589   0.929   1.344   4.632
   82SOPE  H18Z 7590   0.931   1.450   4.774
   83SOPE     N 7591   1.146   2.586   1.575
   83SOPE   HN1 7592   1.169   2.486   1.561
   83SOPE   HN2 7593   1.074   2.610   1.503
   83SOPE   HN3 7594   1.227   2.649   1.557
   83SOPE   C12 7595   1.087   2.607   1.713
   83SOPE  H12A 7596   1.000   2.540   1.725
   83SOPE  H12B 7597   1.049   2.712   1.719
   83SOPE   C11 7598   1.199   2.595   1.825
   83SOPE  H11A 7599   1.221   2.487   1.828
   83SOPE  H11B 7600   1.164   2.620   1.928
   83SOPE     P 7601   1.352   2.804   1.862
   83SOPE   O13 7602   1.240   2.902   1.840
   83SOPE   O14 7603   1.489   2.856   1.832
   83SOPE   O12 7604   1.320   2.668   1.785
   83SOPE   O11 7605   1.344   2.752   2.016
   83SOPE    C1 7606   1.424   2.638   2.062
   83SOPE    HA 7607   1.416   2.548   1.998
   83SOPE    HB 7608   1.391   2.606   2.164
   83SOPE    C2 7609   1.571   2.670   2.070
   83SOPE    HS 7610   1.605   2.693   1.967
   83SOPE   O21 7611   1.645   2.564   2.130
   83SOPE   C21 7612   1.678   2.467   2.049
   83SOPE   O22 7613   1.645   2.465   1.928
   83SOPE   C22 7614   1.756   2.358   2.122
   83SOPE   H2R 7615   1.841   2.408   2.174
   83SOPE   H2S 7616   1.786   2.280   2.049
   83SOPE    C3 7617   1.604   2.797   2.159
   83SOPE    HX 7618   1.556   2.878   2.100
   83SOPE    HY 7619   1.714   2.811   2.151
   83SOPE   O31 7620   1.551   2.786   2.295
   83SOPE   C31 7621   1.638   2.782   2.389
   83SOPE   O32 7622   1.761   2.798   2.373
   83SOPE   C32 7623   1.579   2.720   2.516
   83SOPE   H2X 7624   1.648   2.638   2.543
   83SOPE   H2Y 7625   1.478   2.680   2.495
   83SOPE   C23 7626   1.675   2.312   2.239
   83SOPE   H3R 7627   1.574   2.271   2.217
   83SOPE   H3S 7628   1.648   2.401   2.300
   83SOPE   C24 7629   1.757   2.213   2.329
   83SOPE   H4R 7630   1.798   2.119   2.287
   83SOPE   H4S 7631   1.844   2.280   2.342
   83SOPE   C25 7632   1.699   2.202   2.473
   83SOPE   H5R 7633   1.686   2.306   2.509
   83SOPE   H5S 7634   1.600   2.160   2.446
   83SOPE   C26 7635   1.791   2.117   2.570
   83SOPE   H6R 7636   1.801   2.017   2.521
   83SOPE   H6S 7637   1.888   2.168   2.583
   83SOPE   C27 7638   1.727   2.105   2.720
   83SOPE   H7R 7639   1.801   2.066   2.793
   83SOPE   H7S 7640   1.694   2.206   2.753
   83SOPE   C28 7641   1.593   2.028   2.720
   83SOPE   H8R 7642   1.540   2.056   2.813
   83SOPE   H8S 7643   1.526   2.065   2.640
   83SOPE   C29 7644   1.617   1.878   2.697
   83SOPE   H91 7645   1.590   1.852   2.594
   83SOPE  C210 7646   1.647   1.785   2.788
   83SOPE  H101 7647   1.669   1.684   2.751
   83SOPE  C211 7648   1.669   1.808   2.938
   83SOPE  H11R 7649   1.580   1.854   2.987
   83SOPE  H11S 7650   1.765   1.858   2.963
   83SOPE  C212 7651   1.674   1.670   3.001
   83SOPE  H12R 7652   1.755   1.598   2.975
   83SOPE  H12S 7653   1.580   1.616   2.974
   83SOPE  C213 7654   1.679   1.672   3.156
   83SOPE  H13R 7655   1.577   1.712   3.172
   83SOPE  H13S 7656   1.751   1.749   3.193
   83SOPE  C214 7657   1.703   1.526   3.212
   83SOPE  H14R 7658   1.781   1.476   3.152
   83SOPE  H14S 7659   1.607   1.473   3.193
   83SOPE  C215 7660   1.718   1.531   3.363
   83SOPE  H15R 7661   1.812   1.584   3.390
   83SOPE  H15S 7662   1.730   1.425   3.395
   83SOPE  C216 7663   1.607   1.600   3.442
   83SOPE  H16R 7664   1.513   1.567   3.393
   83SOPE  H16S 7665   1.616   1.710   3.432
   83SOPE  C217 7666   1.594   1.565   3.596
   83SOPE  H17R 7667   1.697   1.592   3.628
   83SOPE  H17S 7668   1.562   1.462   3.621
   83SOPE  C218 7669   1.501   1.668   3.671
   83SOPE  H18R 7670   1.401   1.623   3.654
   83SOPE  H18S 7671   1.506   1.771   3.631
   83SOPE  H18T 7672   1.527   1.669   3.779
   83SOPE   C33 7673   1.570   2.816   2.640
   83SOPE   H3X 7674   1.494   2.892   2.612
   83SOPE   H3Y 7675   1.670   2.860   2.656
   83SOPE   C34 7676   1.531   2.746   2.766
   83SOPE   H4X 7677   1.595   2.663   2.803
   83SOPE   H4Y 7678   1.435   2.695   2.744
   83SOPE   C35 7679   1.523   2.838   2.887
   83SOPE   H5X 7680   1.434   2.904   2.877
   83SOPE   H5Y 7681   1.616   2.899   2.878
   83SOPE   C36 7682   1.535   2.766   3.017
   83SOPE   H6X 7683   1.620   2.695   3.015
   83SOPE   H6Y 7684   1.439   2.716   3.043
   83SOPE   C37 7685   1.587   2.847   3.138
   83SOPE   H7X 7686   1.521   2.937   3.130
   83SOPE   H7Y 7687   1.691   2.885   3.126
   83SOPE   C38 7688   1.581   2.773   3.278
   83SOPE   H8X 7689   1.684   2.743   3.304
   83SOPE   H8Y 7690   1.520   2.683   3.255
   83SOPE   C39 7691   1.516   2.852   3.388
   83SOPE   H9X 7692   1.416   2.885   3.354
   83SOPE   H9Y 7693   1.582   2.936   3.417
   83SOPE  C310 7694   1.483   2.767   3.517
   83SOPE  H10X 7695   1.577   2.717   3.547
   83SOPE  H10Y 7696   1.403   2.695   3.491
   83SOPE  C311 7697   1.417   2.849   3.626
   83SOPE  H11X 7698   1.336   2.903   3.573
   83SOPE  H11Y 7699   1.486   2.927   3.666
   83SOPE  C312 7700   1.363   2.759   3.744
   83SOPE  H12X 7701   1.446   2.705   3.794
   83SOPE  H12Y 7702   1.296   2.677   3.711
   83SOPE  C313 7703   1.282   2.849   3.832
   83SOPE  H13X 7704   1.194   2.881   3.773
   83SOPE  H13Y 7705   1.334   2.944   3.858
   83SOPE  C314 7706   1.238   2.784   3.966
   83SOPE  H14X 7707   1.327   2.734   4.010
   83SOPE  H14Y 7708   1.163   2.707   3.938
   83SOPE  C315 7709   1.174   2.887   4.063
   83SOPE  H15X 7710   1.093   2.936   4.003
   83SOPE  H15Y 7711   1.255   2.959   4.085
   83SOPE  C316 7712   1.125   2.831   4.196
   83SOPE  H16X 7713   1.073   2.736   4.172
   83SOPE  H16Y 7714   1.049   2.899   4.240
   83SOPE  C317 7715   1.231   2.812   4.298
   83SOPE  H17X 7716   1.260   2.912   4.337
   83SOPE  H17Y 7717   1.316   2.763   4.245
   83SOPE  C318 7718   1.174   2.720   4.414
   83SOPE  H18X 7719   1.120   2.629   4.382
   83SOPE  H18Y 7720   1.101   2.783   4.469
   83SOPE  H18Z 7721   1.251   2.688   4.488
   84SOPE     N 7722   6.726   0.887   2.200
   84SOPE   HN1 7723   6.664   0.963   2.234
   84SOPE   HN2 7724   6.770   0.927   2.114
   84SOPE   HN3 7725   6.654   0.816   2.176
   84SOPE   C12 7726   6.828   0.822   2.287
   84SOPE  H12A 7727   6.877   0.904   2.343
   84SOPE  H12B 7728   0.022   0.782   2.217
   84SOPE   C11 7729   6.765   0.712   2.375
   84SOPE  H11A 7730   6.674   0.759   2.418
   84SOPE  H11B 7731   6.829   0.695   2.464
   84SOPE     P 7732   6.829   0.476   2.287
   84SOPE   O13 7733   0.021   0.479   2.161
   84SOPE   O14 7734   6.753   0.353   2.306
   84SOPE   O12 7735   6.729   0.601   2.297
   84SOPE   O11 7736   0.049   0.484   2.414
   84SOPE    C1 7737   0.089   0.370   2.487
   84SOPE    HA 7738   0.162   0.311   2.427
   84SOPE    HB 7739   0.003   0.302   2.504
   84SOPE    C2 7740   0.145   0.397   2.631
   84SOPE    HS 7741   0.061   0.422   2.698
   84SOPE   O21 7742   0.234   0.508   2.619
   84SOPE   C21 7743   0.275   0.554   2.731
   84SOPE   O22 7744   0.248   0.510   2.842
   84SOPE   C22 7745   0.369   0.672   2.705
   84SOPE   H2R 7746   0.319   0.756   2.653
   84SOPE   H2S 7747   0.439   0.635   2.627
   84SOPE    C3 7748   0.219   0.268   2.679
   84SOPE    HX 7749   0.264   0.259   2.780
   84SOPE    HY 7750   0.311   0.275   2.617
   84SOPE   O31 7751   0.138   0.149   2.654
   84SOPE   C31 7752   0.209   0.033   2.643
   84SOPE   O32 7753   0.333   0.024   2.651
   84SOPE   C32 7754   0.110   6.798   2.622
   84SOPE   H2X 7755   0.166   6.702   2.628
   84SOPE   H2Y 7756   0.073   6.817   2.519
   84SOPE   C23 7757   0.439   0.731   2.835
   84SOPE   H3R 7758   0.499   0.657   2.892
   84SOPE   H3S 7759   0.366   0.788   2.898
   84SOPE   C24 7760   0.552   0.828   2.789
   84SOPE   H4R 7761   0.602   0.771   2.708
   84SOPE   H4S 7762   0.504   0.915   2.739
   84SOPE   C25 7763   0.651   0.872   2.896
   84SOPE   H5R 7764   0.714   0.793   2.940
   84SOPE   H5S 7765   0.731   0.938   2.855
   84SOPE   C26 7766   0.596   0.941   3.017
   84SOPE   H6R 7767   0.535   1.029   2.992
   84SOPE   H6S 7768   0.538   0.873   3.084
   84SOPE   C27 7769   0.716   0.988   3.107
   84SOPE   H7R 7770   0.774   0.895   3.130
   84SOPE   H7S 7771   0.779   1.051   3.040
   84SOPE   C28 7772   0.677   1.072   3.232
   84SOPE   H8R 7773   0.586   1.128   3.201
   84SOPE   H8S 7774   0.649   0.991   3.302
   84SOPE   C29 7775   0.796   1.153   3.276
   84SOPE   H91 7776   0.843   1.210   3.194
   84SOPE  C210 7777   0.852   1.161   3.399
   84SOPE  H101 7778   0.933   1.231   3.422
   84SOPE  C211 7779   0.813   1.064   3.512
   84SOPE  H11R 7780   0.859   0.964   3.500
   84SOPE  H11S 7781   0.704   1.055   3.532
   84SOPE  C212 7782   0.874   1.129   3.636
   84SOPE  H12R 7783   0.846   1.235   3.649
   84SOPE  H12S 7784   0.984   1.114   3.645
   84SOPE  C213 7785   0.834   1.045   3.760
   84SOPE  H13R 7786   0.877   0.943   3.749
   84SOPE  H13S 7787   0.724   1.048   3.776
   84SOPE  C214 7788   0.902   1.113   3.883
   84SOPE  H14R 7789   0.872   1.219   3.877
   84SOPE  H14S 7790   1.013   1.103   3.877
   84SOPE  C215 7791   0.856   1.044   4.021
   84SOPE  H15R 7792   0.745   1.045   4.022
   84SOPE  H15S 7793   0.900   1.112   4.097
   84SOPE  C216 7794   0.897   0.896   4.056
   84SOPE  H16R 7795   1.004   0.886   4.084
   84SOPE  H16S 7796   0.892   0.836   3.963
   84SOPE  C217 7797   0.837   0.855   4.193
   84SOPE  H17R 7798   0.859   0.749   4.218
   84SOPE  H17S 7799   0.727   0.868   4.198
   84SOPE  C218 7800   0.876   0.938   4.313
   84SOPE  H18R 7801   0.836   1.040   4.298
   84SOPE  H18S 7802   0.987   0.942   4.318
   84SOPE  H18T 7803   0.834   0.888   4.403
   84SOPE   C33 7804   6.875   6.796   2.715
   84SOPE   H3X 7805   6.787   6.740   2.679
   84SOPE   H3Y 7806   6.841   0.017   2.739
   84SOPE   C34 7807   0.025   6.724   2.848
   84SOPE   H4X 7808   0.074   6.626   2.832
   84SOPE   H4Y 7809   6.816   6.723   2.911
   84SOPE   C35 7810   0.125   6.803   2.935
   84SOPE   H5X 7811   0.074   0.019   2.942
   84SOPE   H5Y 7812   0.223   6.809   2.883
   84SOPE   C36 7813   0.144   6.752   3.078
   84SOPE   H6X 7814   0.217   6.668   3.071
   84SOPE   H6Y 7815   0.048   6.711   3.116
   84SOPE   C37 7816   0.217   6.848   3.169
   84SOPE   H7X 7817   0.202   6.813   3.274
   84SOPE   H7Y 7818   0.180   0.069   3.155
   84SOPE   C38 7819   0.371   6.845   3.154
   84SOPE   H8X 7820   0.388   6.841   3.044
   84SOPE   H8Y 7821   0.405   6.745   3.187
   84SOPE   C39 7822   0.436   0.088   3.221
   84SOPE   H9X 7823   0.372   0.173   3.188
   84SOPE   H9Y 7824   0.533   0.096   3.167
   84SOPE  C310 7825   0.429   0.105   3.373
   84SOPE  H10X 7826   0.521   0.059   3.415
   84SOPE  H10Y 7827   0.338   0.050   3.404
   84SOPE  C311 7828   0.416   0.247   3.422
   84SOPE  H11X 7829   0.314   0.281   3.394
   84SOPE  H11Y 7830   0.493   0.302   3.364
   84SOPE  C312 7831   0.442   0.273   3.576
   84SOPE  H12X 7832   0.440   0.383   3.589
   84SOPE  H12Y 7833   0.551   0.249   3.584
   84SOPE  C313 7834   0.359   0.200   3.671
   84SOPE  H13X 7835   0.400   0.204   3.774
   84SOPE  H13Y 7836   0.350   0.093   3.643
   84SOPE  C314 7837   0.219   0.264   3.677
   84SOPE  H14X 7838   0.143   0.189   3.707
   84SOPE  H14Y 7839   0.195   0.308   3.579
   84SOPE  C315 7840   0.204   0.377   3.784
   84SOPE  H15X 7841   0.121   0.446   3.757
   84SOPE  H15Y 7842   0.299   0.433   3.792
   84SOPE  C316 7843   0.186   0.323   3.927
   84SOPE  H16X 7844   0.269   0.251   3.940
   84SOPE  H16Y 7845   0.090   0.268   3.936
   84SOPE  C317 7846   0.185   0.434   4.027
   84SOPE  H17X 7847   0.107   0.510   4.006
   84SOPE  H17Y 7848   0.287   0.479   4.022
   84SOPE  C318 7849   0.136   0.395   4.172
   84SOPE  H18X 7850   0.109   0.481   4.236
   84SOPE  H18Y 7851   0.205   0.321   4.218
   84SOPE  H18Z 7852   0.042   0.337   4.160
   85SOPE     N 7853   5.908   4.955   2.483
   85SOPE   HN1 7854   5.926   4.859   2.518
   85SOPE   HN2 7855   5.872   4.955   2.385
   85SOPE   HN3 7856   5.991   5.018   2.489
   85SOPE   C12 7857   5.795   5.005   2.558
   85SOPE  H12A 7858   5.726   5.053   2.486
   85SOPE  H12B 7859   5.837   5.083   2.626
   85SOPE   C11 7860   5.740   4.895   2.643
   85SOPE  H11A 7861   5.658   4.923   2.713
   85SOPE  H11B 7862   5.818   4.852   2.709
   85SOPE     P 7863   5.710   4.650   2.519
   85SOPE   O13 7864   5.859   4.641   2.502
   85SOPE   O14 7865   5.621   4.603   2.413
   85SOPE   O12 7866   5.668   4.805   2.551
   85SOPE   O11 7867   5.682   4.566   2.648
   85SOPE    C1 7868   5.578   4.584   2.743
   85SOPE    HA 7869   5.551   4.690   2.755
   85SOPE    HB 7870   5.611   4.535   2.838
   85SOPE    C2 7871   5.454   4.508   2.681
   85SOPE    HS 7872   5.432   4.562   2.586
   85SOPE   O21 7873   5.351   4.521   2.772
   85SOPE   C21 7874   5.226   4.492   2.716
   85SOPE   O22 7875   5.212   4.469   2.595
   85SOPE   C22 7876   5.117   4.497   2.827
   85SOPE   H2R 7877   5.035   4.430   2.794
   85SOPE   H2S 7878   5.077   4.600   2.838
   85SOPE    C3 7879   5.488   4.360   2.645
   85SOPE    HX 7880   5.575   4.354   2.576
   85SOPE    HY 7881   5.417   4.309   2.577
   85SOPE   O31 7882   5.537   4.286   2.754
   85SOPE   C31 7883   5.446   4.236   2.828
   85SOPE   O32 7884   5.329   4.223   2.793
   85SOPE   C32 7885   5.493   4.204   2.966
   85SOPE   H2X 7886   5.500   4.292   3.034
   85SOPE   H2Y 7887   5.593   4.157   2.963
   85SOPE   C23 7888   5.168   4.451   2.968
   85SOPE   H3R 7889   5.275   4.475   2.985
   85SOPE   H3S 7890   5.152   4.341   2.977
   85SOPE   C24 7891   5.076   4.518   3.079
   85SOPE   H4R 7892   5.105   4.625   3.070
   85SOPE   H4S 7893   4.968   4.503   3.057
   85SOPE   C25 7894   5.116   4.471   3.225
   85SOPE   H5R 7895   5.134   4.362   3.229
   85SOPE   H5S 7896   5.219   4.513   3.234
   85SOPE   C26 7897   5.023   4.515   3.338
   85SOPE   H6R 7898   4.978   4.612   3.306
   85SOPE   H6S 7899   4.941   4.440   3.336
   85SOPE   C27 7900   5.093   4.526   3.475
   85SOPE   H7R 7901   5.094   4.424   3.519
   85SOPE   H7S 7902   5.194   4.571   3.462
   85SOPE   C28 7903   5.024   4.620   3.577
   85SOPE   H8R 7904   5.101   4.639   3.655
   85SOPE   H8S 7905   4.995   4.711   3.521
   85SOPE   C29 7906   4.909   4.556   3.652
   85SOPE   H91 7907   4.814   4.600   3.619
   85SOPE  C210 7908   4.918   4.476   3.757
   85SOPE  H101 7909   4.826   4.442   3.806
   85SOPE  C211 7910   5.046   4.428   3.820
   85SOPE  H11R 7911   5.144   4.476   3.798
   85SOPE  H11S 7912   5.057   4.320   3.795
   85SOPE  C212 7913   5.042   4.410   3.967
   85SOPE  H12R 7914   5.109   4.334   4.013
   85SOPE  H12S 7915   4.939   4.369   3.981
   85SOPE  C213 7916   5.061   4.545   4.044
   85SOPE  H13R 7917   4.975   4.610   4.019
   85SOPE  H13S 7918   5.152   4.581   3.992
   85SOPE  C214 7919   5.082   4.513   4.192
   85SOPE  H14R 7920   5.141   4.421   4.208
   85SOPE  H14S 7921   4.985   4.492   4.240
   85SOPE  C215 7922   5.152   4.620   4.276
   85SOPE  H15R 7923   5.252   4.644   4.234
   85SOPE  H15S 7924   5.171   4.589   4.381
   85SOPE  C216 7925   5.054   4.743   4.289
   85SOPE  H16R 7926   4.957   4.710   4.331
   85SOPE  H16S 7927   5.043   4.792   4.190
   85SOPE  C217 7928   5.117   4.857   4.380
   85SOPE  H17R 7929   5.228   4.855   4.368
   85SOPE  H17S 7930   5.102   4.831   4.487
   85SOPE  C218 7931   5.049   4.996   4.367
   85SOPE  H18R 7932   5.102   5.076   4.424
   85SOPE  H18S 7933   4.949   4.982   4.411
   85SOPE  H18T 7934   5.039   5.041   4.265
   85SOPE   C33 7935   5.399   4.096   3.040
   85SOPE   H3X 7936   5.361   4.020   2.968
   85SOPE   H3Y 7937   5.311   4.147   3.084
   85SOPE   C34 7938   5.480   4.024   3.146
   85SOPE   H4X 7939   5.533   4.111   3.189
   85SOPE   H4Y 7940   5.554   3.956   3.099
   85SOPE   C35 7941   5.397   3.945   3.254
   85SOPE   H5X 7942   5.475   3.887   3.309
   85SOPE   H5Y 7943   5.325   3.882   3.198
   85SOPE   C36 7944   5.308   4.039   3.341
   85SOPE   H6X 7945   5.247   3.965   3.397
   85SOPE   H6Y 7946   5.230   4.095   3.286
   85SOPE   C37 7947   5.382   4.122   3.448
   85SOPE   H7X 7948   5.426   4.216   3.407
   85SOPE   H7Y 7949   5.462   4.056   3.487
   85SOPE   C38 7950   5.286   4.176   3.565
   85SOPE   H8X 7951   5.217   4.097   3.599
   85SOPE   H8Y 7952   5.222   4.251   3.513
   85SOPE   C39 7953   5.359   4.244   3.687
   85SOPE   H9X 7954   5.285   4.310   3.737
   85SOPE   H9Y 7955   5.438   4.308   3.641
   85SOPE  C310 7956   5.414   4.136   3.784
   85SOPE  H10X 7957   5.512   4.096   3.753
   85SOPE  H10Y 7958   5.355   4.042   3.783
   85SOPE  C311 7959   5.420   4.202   3.919
   85SOPE  H11X 7960   5.447   4.121   3.992
   85SOPE  H11Y 7961   5.318   4.235   3.949
   85SOPE  C312 7962   5.519   4.319   3.938
   85SOPE  H12X 7963   5.507   4.390   3.852
   85SOPE  H12Y 7964   5.621   4.274   3.935
   85SOPE  C313 7965   5.496   4.392   4.072
   85SOPE  H13X 7966   5.492   4.314   4.152
   85SOPE  H13Y 7967   5.401   4.442   4.044
   85SOPE  C314 7968   5.609   4.491   4.093
   85SOPE  H14X 7969   5.643   4.537   3.998
   85SOPE  H14Y 7970   5.692   4.435   4.140
   85SOPE  C315 7971   5.575   4.606   4.187
   85SOPE  H15X 7972   5.489   4.660   4.141
   85SOPE  H15Y 7973   5.658   4.680   4.186
   85SOPE  C316 7974   5.524   4.572   4.330
   85SOPE  H16X 7975   5.577   4.478   4.357
   85SOPE  H16Y 7976   5.414   4.569   4.345
   85SOPE  C317 7977   5.581   4.674   4.436
   85SOPE  H17X 7978   5.572   4.777   4.394
   85SOPE  H17Y 7979   5.688   4.647   4.451
   85SOPE  C318 7980   5.501   4.674   4.570
   85SOPE  H18X 7981   5.482   4.568   4.599
   85SOPE  H18Y 7982   5.401   4.722   4.569
   85SOPE  H18Z 7983   5.563   4.724   4.648
   86SOPE     N 7984   5.375   1.548   2.212
   86SOPE   HN1 7985   5.463   1.496   2.232
   86SOPE   HN2 7986   5.385   1.650   2.227
   86SOPE   HN3 7987   5.296   1.504   2.263
   86SOPE   C12 7988   5.356   1.532   2.067
   86SOPE  H12A 7989   5.435   1.589   2.014
   86SOPE  H12B 7990   5.261   1.584   2.039
   86SOPE   C11 7991   5.337   1.384   2.026
   86SOPE  H11A 7992   5.315   1.388   1.917
   86SOPE  H11B 7993   5.249   1.350   2.086
   86SOPE     P 7994   5.497   1.179   1.972
   86SOPE   O13 7995   5.616   1.219   1.895
   86SOPE   O14 7996   5.383   1.126   1.891
   86SOPE   O12 7997   5.448   1.303   2.056
   86SOPE   O11 7998   5.529   1.078   2.089
   86SOPE    C1 7999   5.423   1.006   2.154
   86SOPE    HA 8000   5.461   0.904   2.172
   86SOPE    HB 8001   5.327   0.985   2.102
   86SOPE    C2 8002   5.390   1.078   2.286
   86SOPE    HS 8003   5.325   1.165   2.263
   86SOPE   O21 8004   5.514   1.116   2.351
   86SOPE   C21 8005   5.503   1.228   2.417
   86SOPE   O22 8006   5.406   1.306   2.415
   86SOPE   C22 8007   5.639   1.237   2.506
   86SOPE   H2R 8008   5.698   1.325   2.472
   86SOPE   H2S 8009   5.703   1.147   2.493
   86SOPE    C3 8010   5.308   0.986   2.385
   86SOPE    HX 8011   5.207   0.959   2.347
   86SOPE    HY 8012   5.285   1.047   2.475
   86SOPE   O31 8013   5.365   0.864   2.428
   86SOPE   C31 8014   5.437   0.860   2.541
   86SOPE   O32 8015   5.453   0.951   2.622
   86SOPE   C32 8016   5.485   0.715   2.569
   86SOPE   H2X 8017   5.594   0.711   2.545
   86SOPE   H2Y 8018   5.427   0.644   2.506
   86SOPE   C23 8019   5.621   1.251   2.657
   86SOPE   H3R 8020   5.542   1.182   2.694
   86SOPE   H3S 8021   5.576   1.350   2.677
   86SOPE   C24 8022   5.749   1.239   2.735
   86SOPE   H4R 8023   5.811   1.153   2.702
   86SOPE   H4S 8024   5.826   1.316   2.714
   86SOPE   C25 8025   5.729   1.239   2.887
   86SOPE   H5R 8026   5.656   1.320   2.911
   86SOPE   H5S 8027   5.682   1.143   2.919
   86SOPE   C26 8028   5.850   1.261   2.978
   86SOPE   H6R 8029   5.931   1.190   2.952
   86SOPE   H6S 8030   5.907   1.355   2.968
   86SOPE   C27 8031   5.807   1.241   3.121
   86SOPE   H7R 8032   5.748   1.327   3.160
   86SOPE   H7S 8033   5.740   1.153   3.128
   86SOPE   C28 8034   5.925   1.210   3.207
   86SOPE   H8R 8035   5.967   1.116   3.166
   86SOPE   H8S 8036   6.003   1.290   3.206
   86SOPE   C29 8037   5.896   1.171   3.355
   86SOPE   H91 8038   5.794   1.188   3.391
   86SOPE  C210 8039   5.981   1.112   3.445
   86SOPE  H101 8040   5.929   1.089   3.539
   86SOPE  C211 8041   6.127   1.077   3.435
   86SOPE  H11R 8042   6.156   1.078   3.328
   86SOPE  H11S 8043   6.133   0.975   3.479
   86SOPE  C212 8044   6.221   1.161   3.513
   86SOPE  H12R 8045   6.190   1.175   3.619
   86SOPE  H12S 8046   6.221   1.268   3.481
   86SOPE  C213 8047   6.366   1.117   3.502
   86SOPE  H13R 8048   6.386   1.008   3.494
   86SOPE  H13S 8049   6.404   1.141   3.604
   86SOPE  C214 8050   6.441   1.193   3.390
   86SOPE  H14R 8051   6.426   1.302   3.402
   86SOPE  H14S 8052   6.392   1.158   3.296
   86SOPE  C215 8053   6.592   1.177   3.388
   86SOPE  H15R 8054   6.622   1.250   3.310
   86SOPE  H15S 8055   6.626   1.076   3.358
   86SOPE  C216 8056   6.649   1.217   3.529
   86SOPE  H16R 8057   6.598   1.154   3.604
   86SOPE  H16S 8058   6.614   1.321   3.550
   86SOPE  C217 8059   6.801   1.206   3.548
   86SOPE  H17R 8060   6.843   1.257   3.459
   86SOPE  H17S 8061   6.835   1.100   3.548
   86SOPE  C218 8062   6.849   1.283   3.674
   86SOPE  H18R 8063   6.820   1.390   3.662
   86SOPE  H18S 8064   0.077   1.278   3.679
   86SOPE  H18T 8065   6.805   1.240   3.766
   86SOPE   C33 8066   5.481   0.686   2.723
   86SOPE   H3X 8067   5.517   0.765   2.792
   86SOPE   H3Y 8068   5.530   0.592   2.755
   86SOPE   C34 8069   5.336   0.658   2.769
   86SOPE   H4X 8070   5.300   0.563   2.725
   86SOPE   H4Y 8071   5.276   0.743   2.729
   86SOPE   C35 8072   5.323   0.641   2.924
   86SOPE   H5X 8073   5.222   0.598   2.942
   86SOPE   H5Y 8074   5.316   0.734   2.984
   86SOPE   C36 8075   5.429   0.540   2.987
   86SOPE   H6X 8076   5.507   0.614   3.016
   86SOPE   H6Y 8077   5.457   0.467   2.909
   86SOPE   C37 8078   5.383   0.475   3.113
   86SOPE   H7X 8079   5.460   0.408   3.156
   86SOPE   H7Y 8080   5.293   0.411   3.108
   86SOPE   C38 8081   5.336   0.573   3.218
   86SOPE   H8X 8082   5.236   0.610   3.187
   86SOPE   H8Y 8083   5.407   0.658   3.229
   86SOPE   C39 8084   5.317   0.505   3.357
   86SOPE   H9X 8085   5.420   0.485   3.394
   86SOPE   H9Y 8086   5.267   0.406   3.348
   86SOPE  C310 8087   5.260   0.593   3.469
   86SOPE  H10X 8088   5.151   0.572   3.476
   86SOPE  H10Y 8089   5.254   0.697   3.432
   86SOPE  C311 8090   5.336   0.603   3.608
   86SOPE  H11X 8091   5.429   0.657   3.582
   86SOPE  H11Y 8092   5.364   0.498   3.630
   86SOPE  C312 8093   5.270   0.686   3.720
   86SOPE  H12X 8094   5.178   0.632   3.752
   86SOPE  H12Y 8095   5.238   0.784   3.679
   86SOPE  C313 8096   5.356   0.705   3.845
   86SOPE  H13X 8097   5.461   0.703   3.811
   86SOPE  H13Y 8098   5.359   0.628   3.925
   86SOPE  C314 8099   5.321   0.839   3.906
   86SOPE  H14X 8100   5.211   0.852   3.917
   86SOPE  H14Y 8101   5.351   0.910   3.826
   86SOPE  C315 8102   5.381   0.878   4.035
   86SOPE  H15X 8103   5.486   0.844   4.051
   86SOPE  H15Y 8104   5.311   0.840   4.113
   86SOPE  C316 8105   5.383   1.025   4.048
   86SOPE  H16X 8106   5.284   1.055   4.007
   86SOPE  H16Y 8107   5.465   1.075   3.991
   86SOPE  C317 8108   5.381   1.081   4.191
   86SOPE  H17X 8109   5.477   1.057   4.243
   86SOPE  H17Y 8110   5.295   1.028   4.238
   86SOPE  C318 8111   5.385   1.232   4.202
   86SOPE  H18X 8112   5.290   1.270   4.159
   86SOPE  H18Y 8113   5.473   1.285   4.161
   86SOPE  H18Z 8114   5.371   1.266   4.307
   87SOPE     N 8115   6.358   0.334   2.238
   87SOPE   HN1 8116   6.403   0.319   2.330
   87SOPE   HN2 8117   6.256   0.353   2.242
   87SOPE   HN3 8118   6.372   0.241   2.193
   87SOPE   C12 8119   6.422   0.435   2.150
   87SOPE  H12A 8120   6.356   0.442   2.061
   87SOPE  H12B 8121   6.522   0.394   2.123
   87SOPE   C11 8122   6.439   0.563   2.234
   87SOPE  H11A 8123   6.512   0.615   2.168
   87SOPE  H11B 8124   6.484   0.530   2.330
   87SOPE     P 8125   6.331   0.788   2.298
   87SOPE   O13 8126   6.193   0.837   2.288
   87SOPE   O14 8127   6.437   0.863   2.218
   87SOPE   O12 8128   6.326   0.640   2.252
   87SOPE   O11 8129   6.384   0.782   2.456
   87SOPE    C1 8130   6.325   0.683   2.536
   87SOPE    HA 8131   6.330   0.585   2.485
   87SOPE    HB 8132   6.218   0.710   2.548
   87SOPE    C2 8133   6.402   0.673   2.673
   87SOPE    HS 8134   6.364   0.587   2.732
   87SOPE   O21 8135   6.392   0.794   2.754
   87SOPE   C21 8136   6.276   0.819   2.808
   87SOPE   O22 8137   6.176   0.756   2.795
   87SOPE   C22 8138   6.273   0.947   2.884
   87SOPE   H2R 8139   6.242   1.026   2.812
   87SOPE   H2S 8140   6.378   0.972   2.909
   87SOPE    C3 8141   6.549   0.641   2.649
   87SOPE    HX 8142   6.589   0.738   2.611
   87SOPE    HY 8143   6.553   0.566   2.567
   87SOPE   O31 8144   6.622   0.606   2.781
   87SOPE   C31 8145   6.638   0.476   2.800
   87SOPE   O32 8146   6.611   0.392   2.717
   87SOPE   C32 8147   6.696   0.452   2.944
   87SOPE   H2X 8148   6.641   0.515   3.018
   87SOPE   H2Y 8149   6.801   0.489   2.944
   87SOPE   C23 8150   6.198   0.946   3.015
   87SOPE   H3R 8151   6.106   0.884   3.011
   87SOPE   H3S 8152   6.165   1.047   3.049
   87SOPE   C24 8153   6.286   0.889   3.125
   87SOPE   H4R 8154   6.360   0.960   3.165
   87SOPE   H4S 8155   6.214   0.863   3.207
   87SOPE   C25 8156   6.350   0.748   3.106
   87SOPE   H5R 8157   6.276   0.668   3.084
   87SOPE   H5S 8158   6.432   0.750   3.031
   87SOPE   C26 8159   6.425   0.715   3.236
   87SOPE   H6R 8160   6.471   0.616   3.219
   87SOPE   H6S 8161   6.501   0.794   3.251
   87SOPE   C27 8162   6.348   0.689   3.369
   87SOPE   H7R 8163   6.318   0.793   3.395
   87SOPE   H7S 8164   6.272   0.608   3.369
   87SOPE   C28 8165   6.449   0.651   3.491
   87SOPE   H8R 8166   6.394   0.675   3.584
   87SOPE   H8S 8167   6.458   0.540   3.488
   87SOPE   C29 8168   6.587   0.704   3.488
   87SOPE   H91 8169   6.639   0.684   3.394
   87SOPE  C210 8170   6.650   0.775   3.579
   87SOPE  H101 8171   6.753   0.813   3.571
   87SOPE  C211 8172   6.604   0.805   3.717
   87SOPE  H11R 8173   6.523   0.739   3.755
   87SOPE  H11S 8174   6.571   0.911   3.725
   87SOPE  C212 8175   6.708   0.777   3.823
   87SOPE  H12R 8176   6.778   0.698   3.787
   87SOPE  H12S 8177   6.654   0.752   3.916
   87SOPE  C213 8178   6.791   0.902   3.862
   87SOPE  H13R 8179   6.729   0.979   3.914
   87SOPE  H13S 8180   6.822   0.963   3.774
   87SOPE  C214 8181   0.027   0.860   3.954
   87SOPE  H14R 8182   0.071   0.770   3.907
   87SOPE  H14S 8183   6.863   0.814   4.044
   87SOPE  C215 8184   0.120   0.977   3.995
   87SOPE  H15R 8185   0.154   1.021   3.899
   87SOPE  H15S 8186   0.212   0.953   4.053
   87SOPE  C216 8187   0.055   1.104   4.056
   87SOPE  H16R 8188   0.021   1.072   4.157
   87SOPE  H16S 8189   6.858   1.148   3.991
   87SOPE  C217 8190   0.155   1.216   4.069
   87SOPE  H17R 8191   0.161   1.259   3.967
   87SOPE  H17S 8192   0.256   1.174   4.093
   87SOPE  C218 8193   0.114   1.336   4.159
   87SOPE  H18R 8194   0.179   1.426   4.155
   87SOPE  H18S 8195   0.108   1.304   4.266
   87SOPE  H18T 8196   0.016   1.385   4.141
   87SOPE   C33 8197   6.701   0.298   2.985
   87SOPE   H3X 8198   6.723   0.241   2.892
   87SOPE   H3Y 8199   6.600   0.268   3.020
   87SOPE   C34 8200   6.800   0.276   3.099
   87SOPE   H4X 8201   0.015   0.322   3.072
   87SOPE   H4Y 8202   6.807   0.166   3.093
   87SOPE   C35 8203   6.748   0.314   3.233
   87SOPE   H5X 8204   6.651   0.262   3.246
   87SOPE   H5Y 8205   6.723   0.420   3.214
   87SOPE   C36 8206   6.848   0.292   3.343
   87SOPE   H6X 8207   0.049   0.363   3.324
   87SOPE   H6Y 8208   0.008   0.190   3.336
   87SOPE   C37 8209   6.786   0.319   3.480
   87SOPE   H7X 8210   6.732   0.415   3.492
   87SOPE   H7Y 8211   6.864   0.290   3.552
   87SOPE   C38 8212   6.676   0.221   3.523
   87SOPE   H8X 8213   6.709   0.119   3.494
   87SOPE   H8Y 8214   6.578   0.247   3.477
   87SOPE   C39 8215   6.642   0.224   3.674
   87SOPE   H9X 8216   6.737   0.211   3.729
   87SOPE   H9Y 8217   6.576   0.140   3.703
   87SOPE  C310 8218   6.596   0.357   3.740
   87SOPE  H10X 8219   6.500   0.395   3.699
   87SOPE  H10Y 8220   6.669   0.435   3.710
   87SOPE  C311 8221   6.582   0.352   3.889
   87SOPE  H11X 8222   6.648   0.273   3.931
   87SOPE  H11Y 8223   6.477   0.328   3.917
   87SOPE  C312 8224   6.609   0.493   3.956
   87SOPE  H12X 8225   6.520   0.555   3.932
   87SOPE  H12Y 8226   6.692   0.544   3.904
   87SOPE  C313 8227   6.618   0.494   4.112
   87SOPE  H13X 8228   6.694   0.418   4.140
   87SOPE  H13Y 8229   6.526   0.439   4.143
   87SOPE  C314 8230   6.638   0.628   4.179
   87SOPE  H14X 8231   6.543   0.681   4.162
   87SOPE  H14Y 8232   6.718   0.675   4.117
   87SOPE  C315 8233   6.655   0.609   4.335
   87SOPE  H15X 8234   6.645   0.712   4.377
   87SOPE  H15Y 8235   6.765   0.592   4.342
   87SOPE  C316 8236   6.580   0.510   4.416
   87SOPE  H16X 8237   6.603   0.409   4.376
   87SOPE  H16Y 8238   6.469   0.525   4.418
   87SOPE  C317 8239   6.628   0.503   4.568
   87SOPE  H17X 8240   6.555   0.429   4.606
   87SOPE  H17Y 8241   6.603   0.601   4.613
   87SOPE  C318 8242   6.774   0.451   4.592
   87SOPE  H18X 8243   6.805   0.425   4.695
   87SOPE  H18Y 8244   6.848   0.528   4.559
   87SOPE  H18Z 8245   6.789   0.363   4.526
   88SOPE     N 8246   1.238   5.791   2.216
   88SOPE   HN1 8247   1.161   5.809   2.149
   88SOPE   HN2 8248   1.257   5.877   2.271
   88SOPE   HN3 8249   1.322   5.756   2.166
   88SOPE   C12 8250   1.205   5.664   2.286
   88SOPE  H12A 8251   1.289   5.636   2.352
   88SOPE  H12B 8252   1.195   5.583   2.210
   88SOPE   C11 8253   1.069   5.687   2.351
   88SOPE  H11A 8254   1.070   5.717   2.457
   88SOPE  H11B 8255   1.013   5.593   2.369
   88SOPE     P 8256   0.870   5.872   2.297
   88SOPE   O13 8257   0.753   5.812   2.349
   88SOPE   O14 8258   0.850   5.946   2.171
   88SOPE   O12 8259   0.982   5.759   2.264
   88SOPE   O11 8260   0.951   5.962   2.394
   88SOPE    C1 8261   0.952   5.941   2.539
   88SOPE    HA 8262   0.909   5.842   2.567
   88SOPE    HB 8263   0.894   6.028   2.576
   88SOPE    C2 8264   1.099   5.970   2.597
   88SOPE    HS 8265   1.162   5.879   2.601
   88SOPE   O21 8266   1.084   6.026   2.731
   88SOPE   C21 8267   1.032   5.937   2.817
   88SOPE   O22 8268   0.995   5.824   2.784
   88SOPE   C22 8269   1.011   5.984   2.957
   88SOPE   H2R 8270   0.953   6.078   2.941
   88SOPE   H2S 8271   1.104   6.016   3.008
   88SOPE    C3 8272   1.184   6.066   2.504
   88SOPE    HX 8273   1.118   6.155   2.496
   88SOPE    HY 8274   1.184   6.024   2.401
   88SOPE   O31 8275   1.310   6.097   2.560
   88SOPE   C31 8276   1.397   5.998   2.535
   88SOPE   O32 8277   1.378   5.900   2.468
   88SOPE   C32 8278   1.513   6.011   2.637
   88SOPE   H2X 8279   1.529   6.120   2.652
   88SOPE   H2Y 8280   1.605   5.955   2.614
   88SOPE   C23 8281   0.926   5.887   3.046
   88SOPE   H3R 8282   0.987   5.796   3.067
   88SOPE   H3S 8283   0.833   5.858   2.993
   88SOPE   C24 8284   0.884   5.944   3.183
   88SOPE   H4R 8285   0.966   6.011   3.219
   88SOPE   H4S 8286   0.803   6.018   3.164
   88SOPE   C25 8287   0.843   5.832   3.284
   88SOPE   H5R 8288   0.793   5.755   3.222
   88SOPE   H5S 8289   0.936   5.785   3.322
   88SOPE   C26 8290   0.765   5.880   3.401
   88SOPE   H6R 8291   0.820   5.954   3.463
   88SOPE   H6S 8292   0.680   5.944   3.369
   88SOPE   C27 8293   0.696   5.769   3.492
   88SOPE   H7R 8294   0.628   5.708   3.429
   88SOPE   H7S 8295   0.779   5.697   3.510
   88SOPE   C28 8296   0.648   5.817   3.629
   88SOPE   H8R 8297   0.734   5.861   3.684
   88SOPE   H8S 8298   0.586   5.905   3.603
   88SOPE   C29 8299   0.578   5.715   3.714
   88SOPE   H91 8300   0.476   5.686   3.683
   88SOPE  C210 8301   0.621   5.677   3.838
   88SOPE  H101 8302   0.545   5.615   3.888
   88SOPE  C211 8303   0.743   5.729   3.911
   88SOPE  H11R 8304   0.814   5.797   3.858
   88SOPE  H11S 8305   0.810   5.642   3.929
   88SOPE  C212 8306   0.700   5.782   4.048
   88SOPE  H12R 8307   0.621   5.859   4.037
   88SOPE  H12S 8308   0.790   5.835   4.087
   88SOPE  C213 8309   0.653   5.666   4.137
   88SOPE  H13R 8310   0.727   5.584   4.152
   88SOPE  H13S 8311   0.562   5.611   4.103
   88SOPE  C214 8312   0.623   5.709   4.279
   88SOPE  H14R 8313   0.583   5.813   4.279
   88SOPE  H14S 8314   0.716   5.706   4.338
   88SOPE  C215 8315   0.524   5.619   4.349
   88SOPE  H15R 8316   0.430   5.622   4.290
   88SOPE  H15S 8317   0.504   5.671   4.445
   88SOPE  C216 8318   0.550   5.470   4.388
   88SOPE  H16R 8319   0.635   5.456   4.458
   88SOPE  H16S 8320   0.564   5.412   4.294
   88SOPE  C217 8321   0.438   5.401   4.467
   88SOPE  H17R 8322   0.377   5.325   4.412
   88SOPE  H17S 8323   0.363   5.480   4.491
   88SOPE  C218 8324   0.484   5.333   4.594
   88SOPE  H18R 8325   0.563   5.263   4.558
   88SOPE  H18S 8326   0.399   5.278   4.640
   88SOPE  H18T 8327   0.529   5.405   4.667
   88SOPE   C33 8328   1.458   5.954   2.774
   88SOPE   H3X 8329   1.429   5.847   2.759
   88SOPE   H3Y 8330   1.360   6.004   2.788
   88SOPE   C34 8331   1.550   5.978   2.899
   88SOPE   H4X 8332   1.562   6.088   2.914
   88SOPE   H4Y 8333   1.655   5.945   2.885
   88SOPE   C35 8334   1.486   5.924   3.032
   88SOPE   H5X 8335   1.569   5.897   3.100
   88SOPE   H5Y 8336   1.446   5.822   3.012
   88SOPE   C36 8337   1.387   6.021   3.094
   88SOPE   H6X 8338   1.308   6.049   3.021
   88SOPE   H6Y 8339   1.441   6.114   3.120
   88SOPE   C37 8340   1.322   5.972   3.228
   88SOPE   H7X 8341   1.399   5.926   3.294
   88SOPE   H7Y 8342   1.244   5.895   3.211
   88SOPE   C38 8343   1.275   6.095   3.309
   88SOPE   H8X 8344   1.191   6.142   3.255
   88SOPE   H8Y 8345   1.357   6.170   3.303
   88SOPE   C39 8346   1.231   6.053   3.454
   88SOPE   H9X 8347   1.296   5.973   3.496
   88SOPE   H9Y 8348   1.129   6.017   3.427
   88SOPE  C310 8349   1.241   6.168   3.555
   88SOPE  H10X 8350   1.203   6.260   3.505
   88SOPE  H10Y 8351   1.350   6.184   3.575
   88SOPE  C311 8352   1.166   6.144   3.685
   88SOPE  H11X 8353   1.060   6.120   3.665
   88SOPE  H11Y 8354   1.180   6.231   3.753
   88SOPE  C312 8355   1.214   6.026   3.771
   88SOPE  H12X 8356   1.240   5.947   3.698
   88SOPE  H12Y 8357   1.134   5.995   3.841
   88SOPE  C313 8358   1.325   6.068   3.873
   88SOPE  H13X 8359   1.319   6.176   3.900
   88SOPE  H13Y 8360   1.425   6.065   3.825
   88SOPE  C314 8361   1.316   5.991   4.005
   88SOPE  H14X 8362   1.361   5.890   3.996
   88SOPE  H14Y 8363   1.210   5.961   4.025
   88SOPE  C315 8364   1.392   6.060   4.125
   88SOPE  H15X 8365   1.349   6.161   4.141
   88SOPE  H15Y 8366   1.494   6.093   4.096
   88SOPE  C316 8367   1.409   5.986   4.256
   88SOPE  H16X 8368   1.308   5.967   4.298
   88SOPE  H16Y 8369   1.464   6.049   4.329
   88SOPE  C317 8370   1.494   5.854   4.229
   88SOPE  H17X 8371   1.589   5.877   4.176
   88SOPE  H17Y 8372   1.452   5.783   4.154
   88SOPE  C318 8373   1.535   5.775   4.353
   88SOPE  H18X 8374   1.449   5.714   4.387
   88SOPE  H18Y 8375   1.551   5.848   4.435
   88SOPE  H18Z 8376   1.625   5.710   4.349
   89SAPC     N 8377   5.166   2.920   6.946
   89SAPC   C12 8378   5.192   2.941   6.801
   89SAPC  H12A 8379   5.113   2.897   6.743
   89SAPC  H12B 8380   5.270   2.874   6.770
   89SAPC   C13 8381   5.135   2.784   6.982
   89SAPC  H13A 8382   5.115   2.778   7.088
   89SAPC  H13B 8383   5.042   2.747   6.942
   89SAPC  H13C 8384   5.210   2.716   6.946
   89SAPC   C14 8385   5.287   2.940   7.033
   89SAPC  H14A 8386   5.369   2.876   7.003
   89SAPC  H14B 8387   5.331   3.038   7.030
   89SAPC  H14C 8388   5.255   2.932   7.136
   89SAPC   C15 8389   5.047   3.001   6.983
   89SAPC  H15A 8390   5.025   3.001   7.089
   89SAPC  H15B 8391   5.056   3.107   6.963
   89SAPC  H15C 8392   4.961   2.965   6.927
   89SAPC   C11 8393   5.207   3.087   6.754
   89SAPC  H11A 8394   5.259   3.074   6.657
   89SAPC  H11B 8395   5.276   3.141   6.822
   89SAPC     P 8396   4.980   3.152   6.648
   89SAPC   O13 8397   4.907   3.025   6.670
   89SAPC   O14 8398   4.898   3.276   6.649
   89SAPC   O12 8399   5.088   3.173   6.754
   89SAPC   O11 8400   5.046   3.141   6.510
   89SAPC    C1 8401   5.103   3.258   6.446
   89SAPC    HA 8402   5.068   3.356   6.485
   89SAPC    HB 8403   5.214   3.267   6.450
   89SAPC    C2 8404   5.056   3.260   6.295
   89SAPC    HS 8405   4.948   3.238   6.309
   89SAPC   O21 8406   5.124   3.161   6.217
   89SAPC   C21 8407   5.045   3.116   6.118
   89SAPC   O22 8408   4.933   3.151   6.092
   89SAPC   C22 8409   5.119   3.008   6.042
   89SAPC   H2R 8410   5.198   3.061   5.984
   89SAPC   H2S 8411   5.165   2.942   6.118
   89SAPC    C3 8412   5.080   3.400   6.228
   89SAPC    HX 8413   5.189   3.418   6.233
   89SAPC    HY 8414   5.043   3.483   6.293
   89SAPC   O31 8415   5.042   3.422   6.087
   89SAPC   C31 8416   4.921   3.487   6.079
   89SAPC   O32 8417   4.847   3.515   6.167
   89SAPC   C32 8418   4.903   3.517   5.927
   89SAPC   H2X 8419   4.970   3.602   5.904
   89SAPC   H2Y 8420   4.795   3.537   5.910
   89SAPC   C23 8421   5.019   2.933   5.948
   89SAPC   H3R 8422   4.965   3.008   5.886
   89SAPC   H3S 8423   4.935   2.885   6.003
   89SAPC   C24 8424   5.094   2.823   5.867
   89SAPC   H4R 8425   5.139   2.740   5.925
   89SAPC   H4S 8426   5.179   2.873   5.816
   89SAPC   C25 8427   5.003   2.758   5.763
   89SAPC   H5R 8428   4.945   2.676   5.808
   89SAPC   C26 8429   4.983   2.795   5.637
   89SAPC   H6R 8430   4.917   2.735   5.573
   89SAPC   C27 8431   5.041   2.913   5.566
   89SAPC   H7R 8432   5.128   2.952   5.623
   89SAPC   H7S 8433   4.960   2.989   5.560
   89SAPC   C28 8434   5.084   2.880   5.427
   89SAPC   H8R 8435   5.120   2.777   5.413
   89SAPC   C29 8436   5.062   2.954   5.316
   89SAPC   H9R 8437   5.088   2.905   5.221
   89SAPC  C210 8438   4.997   3.086   5.298
   89SAPC  H10R 8439   4.977   3.133   5.396
   89SAPC  H10S 8440   4.906   3.070   5.237
   89SAPC  C211 8441   5.078   3.188   5.224
   89SAPC  H11R 8442   5.182   3.197   5.259
   89SAPC  C212 8443   5.031   3.278   5.133
   89SAPC  H12R 8444   5.098   3.351   5.085
   89SAPC  C213 8445   4.894   3.298   5.076
   89SAPC  H13R 8446   4.863   3.402   5.099
   89SAPC  H13S 8447   4.817   3.241   5.132
   89SAPC  C214 8448   4.895   3.253   4.933
   89SAPC  H14R 8449   4.892   3.143   4.924
   89SAPC  C215 8450   4.899   3.339   4.823
   89SAPC  H15R 8451   4.896   3.299   4.721
   89SAPC  C216 8452   4.914   3.487   4.833
   89SAPC  H16R 8453   4.990   3.524   4.761
   89SAPC  H16S 8454   4.948   3.511   4.936
   89SAPC  C217 8455   4.789   3.571   4.802
   89SAPC  H17R 8456   4.825   3.673   4.824
   89SAPC  H17S 8457   4.702   3.551   4.869
   89SAPC  C218 8458   4.745   3.553   4.659
   89SAPC  H18R 8459   4.653   3.614   4.651
   89SAPC  H18S 8460   4.718   3.448   4.635
   89SAPC  C219 8461   4.845   3.588   4.544
   89SAPC  H19R 8462   4.801   3.549   4.450
   89SAPC  H19S 8463   4.941   3.532   4.554
   89SAPC  C220 8464   4.864   3.740   4.532
   89SAPC  H20R 8465   4.791   3.791   4.466
   89SAPC  H20S 8466   4.960   3.760   4.480
   89SAPC  H20T 8467   4.878   3.795   4.628
   89SAPC   C33 8468   4.942   3.395   5.836
   89SAPC   H3X 8469   4.895   3.300   5.870
   89SAPC   H3Y 8470   5.050   3.373   5.848
   89SAPC   C34 8471   4.911   3.416   5.686
   89SAPC   H4X 8472   4.968   3.503   5.648
   89SAPC   H4Y 8473   4.802   3.441   5.691
   89SAPC   C35 8474   4.907   3.295   5.592
   89SAPC   H5X 8475   4.974   3.213   5.625
   89SAPC   H5Y 8476   4.948   3.338   5.498
   89SAPC   C36 8477   4.769   3.244   5.560
   89SAPC   H6X 8478   4.711   3.214   5.650
   89SAPC   H6Y 8479   4.783   3.155   5.495
   89SAPC   C37 8480   4.698   3.349   5.475
   89SAPC   H7X 8481   4.776   3.405   5.420
   89SAPC   H7Y 8482   4.637   3.411   5.544
   89SAPC   C38 8483   4.602   3.290   5.371
   89SAPC   H8X 8484   4.502   3.256   5.405
   89SAPC   H8Y 8485   4.646   3.196   5.330
   89SAPC   C39 8486   4.582   3.401   5.258
   89SAPC   H9X 8487   4.684   3.417   5.215
   89SAPC   H9Y 8488   4.543   3.497   5.298
   89SAPC  C310 8489   4.498   3.354   5.141
   89SAPC  H10X 8490   4.395   3.337   5.180
   89SAPC  H10Y 8491   4.530   3.253   5.105
   89SAPC  C311 8492   4.500   3.456   5.021
   89SAPC  H11X 8493   4.595   3.430   4.968
   89SAPC  H11Y 8494   4.506   3.564   5.048
   89SAPC  C312 8495   4.382   3.438   4.919
   89SAPC  H12X 8496   4.298   3.475   4.982
   89SAPC  H12Y 8497   4.370   3.333   4.885
   89SAPC  C313 8498   4.402   3.517   4.790
   89SAPC  H13X 8499   4.495   3.487   4.738
   89SAPC  H13Y 8500   4.412   3.622   4.825
   89SAPC  C314 8501   4.281   3.499   4.687
   89SAPC  H14X 8502   4.194   3.543   4.739
   89SAPC  H14Y 8503   4.254   3.392   4.680
   89SAPC  C315 8504   4.302   3.568   4.557
   89SAPC  H15X 8505   4.395   3.517   4.523
   89SAPC  H15Y 8506   4.311   3.678   4.568
   89SAPC  C316 8507   4.188   3.538   4.455
   89SAPC  H16X 8508   4.099   3.599   4.484
   89SAPC  H16Y 8509   4.170   3.429   4.449
   89SAPC  C317 8510   4.244   3.586   4.319
   89SAPC  H17X 8511   4.345   3.539   4.316
   89SAPC  H17Y 8512   4.263   3.695   4.333
   89SAPC  C318 8513   4.153   3.577   4.196
   89SAPC  H18X 8514   4.128   3.471   4.174
   89SAPC  H18Y 8515   4.199   3.628   4.109
   89SAPC  H18Z 8516   4.063   3.637   4.223
   90SAPC     N 8517   3.065   6.258   7.014
   90SAPC   C12 8518   2.954   6.228   6.914
   90SAPC  H12A 8519   2.904   6.319   6.883
   90SAPC  H12B 8520   2.884   6.160   6.961
   90SAPC   C13 8521   3.094   6.125   7.085
   90SAPC  H13A 8522   3.151   6.066   7.015
   90SAPC  H13B 8523   3.163   6.140   7.166
   90SAPC  H13C 8524   3.002   6.078   7.116
   90SAPC   C14 8525   3.197   6.316   6.959
   90SAPC  H14A 8526   3.270   6.334   7.036
   90SAPC  H14B 8527   3.238   6.243   6.891
   90SAPC  H14C 8528   3.182   6.412   6.911
   90SAPC   C15 8529   3.005   6.354   7.115
   90SAPC  H15A 8530   2.935   6.300   7.177
   90SAPC  H15B 8531   3.088   6.380   7.179
   90SAPC  H15C 8532   2.960   6.438   7.064
   90SAPC   C11 8533   2.980   6.147   6.784
   90SAPC  H11A 8534   3.050   6.211   6.727
   90SAPC  H11B 8535   2.892   6.158   6.717
   90SAPC     P 8536   2.925   5.900   6.836
   90SAPC   O13 8537   2.991   5.777   6.877
   90SAPC   O14 8538   2.820   5.961   6.921
   90SAPC   O12 8539   3.030   6.012   6.808
   90SAPC   O11 8540   2.867   5.888   6.695
   90SAPC    C1 8541   2.928   5.799   6.595
   90SAPC    HA 8542   2.988   5.714   6.633
   90SAPC    HB 8543   2.855   5.750   6.527
   90SAPC    C2 8544   3.018   5.873   6.499
   90SAPC    HS 8545   3.096   5.926   6.558
   90SAPC   O21 8546   2.928   5.960   6.425
   90SAPC   C21 8547   3.002   6.037   6.354
   90SAPC   O22 8548   3.113   6.085   6.384
   90SAPC   C22 8549   2.924   6.077   6.230
   90SAPC   H2R 8550   2.858   5.994   6.196
   90SAPC   H2S 8551   2.858   6.163   6.256
   90SAPC    C3 8552   3.092   5.771   6.414
   90SAPC    HX 8553   3.138   5.704   6.490
   90SAPC    HY 8554   3.161   5.830   6.350
   90SAPC   O31 8555   3.006   5.704   6.324
   90SAPC   C31 8556   3.031   5.575   6.288
   90SAPC   O32 8557   3.120   5.503   6.335
   90SAPC   C32 8558   2.924   5.535   6.177
   90SAPC   H2X 8559   2.854   5.619   6.157
   90SAPC   H2Y 8560   2.859   5.457   6.220
   90SAPC   C23 8561   3.013   6.122   6.116
   90SAPC   H3R 8562   3.074   6.209   6.149
   90SAPC   H3S 8563   2.953   6.155   6.028
   90SAPC   C24 8564   3.114   6.021   6.070
   90SAPC   H4R 8565   3.191   6.000   6.147
   90SAPC   H4S 8566   3.166   6.066   5.983
   90SAPC   C25 8567   3.051   5.888   6.030
   90SAPC   H5R 8568   2.997   5.853   6.119
   90SAPC   C26 8569   3.045   5.825   5.910
   90SAPC   H6R 8570   2.980   5.737   5.917
   90SAPC   C27 8571   3.099   5.853   5.775
   90SAPC   H7R 8572   3.161   5.944   5.786
   90SAPC   H7S 8573   3.010   5.868   5.709
   90SAPC   C28 8574   3.184   5.742   5.708
   90SAPC   H8R 8575   3.207   5.659   5.777
   90SAPC   C29 8576   3.222   5.733   5.574
   90SAPC   H9R 8577   3.277   5.644   5.540
   90SAPC  C210 8578   3.213   5.840   5.479
   90SAPC  H10R 8579   3.317   5.869   5.453
   90SAPC  H10S 8580   3.183   5.935   5.528
   90SAPC  C211 8581   3.131   5.808   5.362
   90SAPC  H11R 8582   3.024   5.799   5.384
   90SAPC  C212 8583   3.171   5.802   5.232
   90SAPC  H12R 8584   3.097   5.760   5.162
   90SAPC  C213 8585   3.313   5.822   5.181
   90SAPC  H13R 8586   3.389   5.759   5.233
   90SAPC  H13S 8587   3.344   5.922   5.219
   90SAPC  C214 8588   3.321   5.829   5.030
   90SAPC  H14R 8589   3.364   5.735   4.991
   90SAPC  C215 8590   3.300   5.932   4.954
   90SAPC  H15R 8591   3.317   5.902   4.849
   90SAPC  C216 8592   3.266   6.076   4.993
   90SAPC  H16R 8593   3.211   6.085   5.089
   90SAPC  H16S 8594   3.198   6.120   4.917
   90SAPC  C217 8595   3.391   6.161   5.006
   90SAPC  H17R 8596   3.477   6.116   5.060
   90SAPC  H17S 8597   3.357   6.252   5.061
   90SAPC  C218 8598   3.448   6.200   4.873
   90SAPC  H18R 8599   3.371   6.212   4.795
   90SAPC  H18S 8600   3.519   6.121   4.840
   90SAPC  C219 8601   3.512   6.339   4.884
   90SAPC  H19R 8602   3.607   6.337   4.942
   90SAPC  H19S 8603   3.442   6.401   4.943
   90SAPC  C220 8604   3.532   6.413   4.753
   90SAPC  H20R 8605   3.596   6.503   4.750
   90SAPC  H20S 8606   3.432   6.434   4.709
   90SAPC  H20T 8607   3.577   6.342   4.680
   90SAPC   C33 8608   3.004   5.491   6.048
   90SAPC   H3X 8609   3.096   5.549   6.024
   90SAPC   H3Y 8610   2.922   5.506   5.975
   90SAPC   C34 8611   3.049   5.346   6.062
   90SAPC   H4X 8612   2.959   5.285   6.083
   90SAPC   H4Y 8613   3.122   5.333   6.144
   90SAPC   C35 8614   3.112   5.299   5.930
   90SAPC   H5X 8615   3.042   5.324   5.847
   90SAPC   H5Y 8616   3.116   5.189   5.941
   90SAPC   C36 8617   3.255   5.357   5.909
   90SAPC   H6X 8618   3.320   5.341   5.998
   90SAPC   H6Y 8619   3.245   5.466   5.892
   90SAPC   C37 8620   3.314   5.315   5.771
   90SAPC   H7X 8621   3.317   5.204   5.771
   90SAPC   H7Y 8622   3.420   5.344   5.756
   90SAPC   C38 8623   3.233   5.367   5.651
   90SAPC   H8X 8624   3.259   5.475   5.660
   90SAPC   H8Y 8625   3.125   5.352   5.672
   90SAPC   C39 8626   3.273   5.315   5.511
   90SAPC   H9X 8627   3.199   5.242   5.470
   90SAPC   H9Y 8628   3.371   5.263   5.509
   90SAPC  C310 8629   3.297   5.431   5.411
   90SAPC  H10X 8630   3.387   5.485   5.447
   90SAPC  H10Y 8631   3.208   5.497   5.407
   90SAPC  C311 8632   3.328   5.376   5.271
   90SAPC  H11X 8633   3.305   5.267   5.275
   90SAPC  H11Y 8634   3.434   5.407   5.259
   90SAPC  C312 8635   3.230   5.438   5.172
   90SAPC  H12X 8636   3.221   5.546   5.195
   90SAPC  H12Y 8637   3.129   5.393   5.187
   90SAPC  C313 8638   3.279   5.422   5.027
   90SAPC  H13X 8639   3.295   5.312   5.017
   90SAPC  H13Y 8640   3.383   5.458   5.027
   90SAPC  C314 8641   3.190   5.492   4.926
   90SAPC  H14X 8642   3.167   5.600   4.937
   90SAPC  H14Y 8643   3.096   5.434   4.920
   90SAPC  C315 8644   3.249   5.509   4.784
   90SAPC  H15X 8645   3.303   5.420   4.744
   90SAPC  H15Y 8646   3.338   5.575   4.796
   90SAPC  C316 8647   3.149   5.564   4.673
   90SAPC  H16X 8648   3.087   5.645   4.716
   90SAPC  H16Y 8649   3.078   5.479   4.658
   90SAPC  C317 8650   3.214   5.583   4.544
   90SAPC  H17X 8651   3.130   5.594   4.472
   90SAPC  H17Y 8652   3.276   5.496   4.515
   90SAPC  C318 8653   3.298   5.714   4.539
   90SAPC  H18X 8654   3.322   5.743   4.434
   90SAPC  H18Y 8655   3.390   5.693   4.597
   90SAPC  H18Z 8656   3.250   5.802   4.586
   91SAPC     N 8657   0.534   6.241   6.594
   91SAPC   C12 8658   0.455   6.293   6.466
   91SAPC  H12A 8659   0.431   6.397   6.483
   91SAPC  H12B 8660   0.374   6.224   6.449
   91SAPC   C13 8661   0.538   6.101   6.584
   91SAPC  H13A 8662   0.595   6.060   6.666
   91SAPC  H13B 8663   0.440   6.058   6.571
   91SAPC  H13C 8664   0.597   6.078   6.496
   91SAPC   C14 8665   0.669   6.308   6.608
   91SAPC  H14A 8666   0.742   6.305   6.528
   91SAPC  H14B 8667   0.657   6.413   6.629
   91SAPC  H14C 8668   0.719   6.277   6.698
   91SAPC   C15 8669   0.468   6.262   6.722
   91SAPC  H15A 8670   0.467   6.367   6.750
   91SAPC  H15B 8671   0.365   6.228   6.718
   91SAPC  H15C 8672   0.519   6.206   6.799
   91SAPC   C11 8673   0.544   6.283   6.340
   91SAPC  H11A 8674   0.650   6.312   6.353
   91SAPC  H11B 8675   0.490   6.350   6.269
   91SAPC     P 8676   0.642   6.112   6.173
   91SAPC   O13 8677   0.783   6.154   6.212
   91SAPC   O14 8678   0.617   5.980   6.111
   91SAPC   O12 8679   0.538   6.150   6.291
   91SAPC   O11 8680   0.602   6.221   6.069
   91SAPC    C1 8681   0.463   6.246   6.033
   91SAPC    HA 8682   0.391   6.203   6.106
   91SAPC    HB 8683   0.441   6.355   6.037
   91SAPC    C2 8684   0.437   6.194   5.889
   91SAPC    HS 8685   0.465   6.087   5.898
   91SAPC   O21 8686   0.522   6.267   5.797
   91SAPC   C21 8687   0.578   6.201   5.703
   91SAPC   O22 8688   0.562   6.083   5.678
   91SAPC   C22 8689   0.688   6.297   5.636
   91SAPC   H2R 8690   0.658   6.327   5.533
   91SAPC   H2S 8691   0.685   6.392   5.694
   91SAPC    C3 8692   0.281   6.206   5.851
   91SAPC    HX 8693   0.245   6.310   5.869
   91SAPC    HY 8694   0.226   6.144   5.924
   91SAPC   O31 8695   0.250   6.162   5.714
   91SAPC   C31 8696   0.250   6.028   5.701
   91SAPC   O32 8697   0.279   5.952   5.794
   91SAPC   C32 8698   0.213   5.986   5.557
   91SAPC   H2X 8699   0.308   5.974   5.500
   91SAPC   H2Y 8700   0.148   6.063   5.511
   91SAPC   C23 8701   0.831   6.234   5.635
   91SAPC   H3R 8702   0.815   6.128   5.606
   91SAPC   H3S 8703   0.874   6.242   5.737
   91SAPC   C24 8704   0.931   6.314   5.546
   91SAPC   H4R 8705   0.906   6.296   5.439
   91SAPC   H4S 8706   1.033   6.273   5.559
   91SAPC   C25 8707   0.944   6.466   5.563
   91SAPC   H5R 8708   0.980   6.500   5.661
   91SAPC   C26 8709   0.907   6.561   5.476
   91SAPC   H6R 8710   0.921   6.667   5.504
   91SAPC   C27 8711   0.837   6.547   5.343
   91SAPC   H7R 8712   0.750   6.617   5.346
   91SAPC   H7S 8713   0.795   6.447   5.322
   91SAPC   C28 8714   0.919   6.576   5.223
   91SAPC   H8R 8715   1.023   6.609   5.238
   91SAPC   C29 8716   0.876   6.578   5.091
   91SAPC   H9R 8717   0.937   6.609   5.005
   91SAPC  C210 8718   0.734   6.540   5.046
   91SAPC  H10R 8719   0.677   6.497   5.130
   91SAPC  H10S 8720   0.730   6.463   4.966
   91SAPC  C211 8721   0.659   6.649   4.986
   91SAPC  H11R 8722   0.624   6.730   5.051
   91SAPC  C212 8723   0.631   6.667   4.853
   91SAPC  H12R 8724   0.586   6.759   4.813
   91SAPC  C213 8725   0.674   6.567   4.749
   91SAPC  H13R 8726   0.627   6.471   4.782
   91SAPC  H13S 8727   0.783   6.547   4.745
   91SAPC  C214 8728   0.612   6.593   4.610
   91SAPC  H14R 8729   0.524   6.535   4.578
   91SAPC  C215 8730   0.651   6.697   4.530
   91SAPC  H15R 8731   0.608   6.710   4.430
   91SAPC  C216 8732   0.766   6.789   4.570
   91SAPC  H16R 8733   0.852   6.721   4.589
   91SAPC  H16S 8734   0.739   6.839   4.665
   91SAPC  C217 8735   0.804   0.010   4.462
   91SAPC  H17R 8736   0.875   0.086   4.500
   91SAPC  H17S 8737   0.711   0.063   4.435
   91SAPC  C218 8738   0.865   6.814   4.344
   91SAPC  H18R 8739   0.785   6.746   4.307
   91SAPC  H18S 8740   0.958   6.760   4.374
   91SAPC  C219 8741   0.906   0.030   4.231
   91SAPC  H19R 8742   0.859   0.126   4.260
   91SAPC  H19S 8743   0.873   6.860   4.139
   91SAPC  C220 8744   1.055   0.059   4.234
   91SAPC  H20R 8745   1.082   0.156   4.189
   91SAPC  H20S 8746   1.111   6.872   4.167
   91SAPC  H20T 8747   1.101   0.061   4.335
   91SAPC   C33 8748   0.147   5.844   5.575
   91SAPC   H3X 8749   0.059   5.840   5.643
   91SAPC   H3Y 8750   0.227   5.782   5.620
   91SAPC   C34 8751   0.108   5.786   5.434
   91SAPC   H4X 8752   0.207   5.775   5.383
   91SAPC   H4Y 8753   0.059   5.863   5.371
   91SAPC   C35 8754   0.032   5.654   5.439
   91SAPC   H5X 8755   6.806   5.665   5.455
   91SAPC   H5Y 8756   0.080   5.599   5.523
   91SAPC   C36 8757   0.055   5.572   5.311
   91SAPC   H6X 8758   0.042   5.466   5.339
   91SAPC   H6Y 8759   0.161   5.584   5.280
   91SAPC   C37 8760   6.847   5.608   5.191
   91SAPC   H7X 8761   6.857   5.716   5.169
   91SAPC   H7Y 8762   6.738   5.593   5.206
   91SAPC   C38 8763   0.001   5.543   5.055
   91SAPC   H8X 8764   0.060   5.450   5.066
   91SAPC   H8Y 8765   0.073   5.614   5.007
   91SAPC   C39 8766   6.771   5.511   4.954
   91SAPC   H9X 8767   6.722   5.610   4.941
   91SAPC   H9Y 8768   6.693   5.449   5.003
   91SAPC  C310 8769   6.827   5.457   4.827
   91SAPC  H10X 8770   0.011   5.372   4.852
   91SAPC  H10Y 8771   0.006   5.530   4.772
   91SAPC  C311 8772   6.732   5.411   4.722
   91SAPC  H11X 8773   6.667   5.497   4.695
   91SAPC  H11Y 8774   6.668   5.337   4.773
   91SAPC  C312 8775   6.812   5.365   4.594
   91SAPC  H12X 8776   6.742   5.295   4.545
   91SAPC  H12Y 8777   0.014   5.304   4.630
   91SAPC  C313 8778   6.849   5.474   4.486
   91SAPC  H13X 8779   0.014   5.556   4.544
   91SAPC  H13Y 8780   6.748   5.511   4.459
   91SAPC  C314 8781   0.049   5.429   4.364
   91SAPC  H14X 8782   6.881   5.335   4.331
   91SAPC  H14Y 8783   0.145   5.397   4.409
   91SAPC  C315 8784   0.068   5.545   4.267
   91SAPC  H15X 8785   0.114   5.630   4.322
   91SAPC  H15Y 8786   6.851   5.564   4.221
   91SAPC  C316 8787   0.162   5.507   4.148
   91SAPC  H16X 8788   0.114   5.429   4.083
   91SAPC  H16Y 8789   0.254   5.470   4.197
   91SAPC  C317 8790   0.195   5.622   4.051
   91SAPC  H17X 8791   0.293   5.607   3.999
   91SAPC  H17Y 8792   0.202   5.721   4.102
   91SAPC  C318 8793   0.092   5.623   3.946
   91SAPC  H18X 8794   0.108   5.709   3.878
   91SAPC  H18Y 8795   6.871   5.641   3.983
   91SAPC  H18Z 8796   0.107   5.532   3.885
   92SAPC     N 8797   5.899   5.249   6.865
   92SAPC   C12 8798   6.033   5.212   6.808
   92SAPC  H12A 8799   6.023   5.107   6.787
   92SAPC  H12B 8800   6.106   5.222   6.887
   92SAPC   C13 8801   5.867   5.161   6.981
   92SAPC  H13A 8802   5.860   5.060   6.943
   92SAPC  H13B 8803   5.936   5.172   7.063
   92SAPC  H13C 8804   5.769   5.188   7.016
   92SAPC   C14 8805   5.919   5.394   6.917
   92SAPC  H14A 8806   5.823   5.435   6.944
   92SAPC  H14B 8807   5.983   5.404   7.004
   92SAPC  H14C 8808   5.958   5.449   6.833
   92SAPC   C15 8809   5.790   5.256   6.757
   92SAPC  H15A 8810   5.700   5.295   6.802
   92SAPC  H15B 8811   5.825   5.329   6.686
   92SAPC  H15C 8812   5.787   5.155   6.717
   92SAPC   C11 8813   6.092   5.284   6.684
   92SAPC  H11A 8814   6.022   5.268   6.599
   92SAPC  H11B 8815   6.189   5.240   6.652
   92SAPC     P 8816   6.238   5.491   6.736
   92SAPC   O13 8817   6.215   5.633   6.743
   92SAPC   O14 8818   6.288   5.437   6.865
   92SAPC   O12 8819   6.099   5.423   6.706
   92SAPC   O11 8820   6.327   5.442   6.619
   92SAPC    C1 8821   6.304   5.498   6.484
   92SAPC    HA 8822   6.195   5.508   6.467
   92SAPC    HB 8823   6.352   5.598   6.475
   92SAPC    C2 8824   6.377   5.414   6.375
   92SAPC    HS 8825   6.349   5.456   6.276
   92SAPC   O21 8826   6.340   5.272   6.382
   92SAPC   C21 8827   6.235   5.244   6.319
   92SAPC   O22 8828   6.149   5.317   6.269
   92SAPC   C22 8829   6.224   5.090   6.306
   92SAPC   H2R 8830   6.294   5.045   6.380
   92SAPC   H2S 8831   6.123   5.070   6.350
   92SAPC    C3 8832   6.529   5.424   6.400
   92SAPC    HX 8833   6.546   5.390   6.505
   92SAPC    HY 8834   6.560   5.531   6.394
   92SAPC   O31 8835   6.604   5.351   6.298
   92SAPC   C31 8836   6.632   5.412   6.185
   92SAPC   O32 8837   6.600   5.526   6.151
   92SAPC   C32 8838   6.695   5.315   6.092
   92SAPC   H2X 8839   6.615   5.244   6.063
   92SAPC   H2Y 8840   6.785   5.265   6.134
   92SAPC   C23 8841   6.229   5.048   6.157
   92SAPC   H3R 8842   6.156   5.101   6.093
   92SAPC   H3S 8843   6.185   4.946   6.158
   92SAPC   C24 8844   6.374   5.065   6.113
   92SAPC   H4R 8845   6.433   4.999   6.180
   92SAPC   H4S 8846   6.405   5.171   6.131
   92SAPC   C25 8847   6.400   5.017   5.970
   92SAPC   H5R 8848   6.419   4.912   5.945
   92SAPC   C26 8849   6.395   5.094   5.864
   92SAPC   H6R 8850   6.405   5.046   5.766
   92SAPC   C27 8851   6.347   5.236   5.854
   92SAPC   H7R 8852   6.402   5.306   5.920
   92SAPC   H7S 8853   6.243   5.252   5.889
   92SAPC   C28 8854   6.339   5.274   5.705
   92SAPC   H8R 8855   6.434   5.320   5.675
   92SAPC   C29 8856   6.236   5.279   5.620
   92SAPC   H9R 8857   6.271   5.302   5.518
   92SAPC  C210 8858   6.102   5.215   5.645
   92SAPC  H10R 8859   6.017   5.271   5.600
   92SAPC  H10S 8860   6.071   5.224   5.751
   92SAPC  C211 8861   6.096   5.078   5.595
   92SAPC  H11R 8862   6.180   5.023   5.640
   92SAPC  C212 8863   6.009   5.019   5.514
   92SAPC  H12R 8864   6.020   4.911   5.500
   92SAPC  C213 8865   5.891   5.078   5.441
   92SAPC  H13R 8866   5.914   5.078   5.332
   92SAPC  H13S 8867   5.869   5.181   5.475
   92SAPC  C214 8868   5.759   5.016   5.444
   92SAPC  H14R 8869   5.731   4.977   5.543
   92SAPC  C215 8870   5.671   5.007   5.341
   92SAPC  H15R 8871   5.579   4.949   5.352
   92SAPC  C216 8872   5.684   5.059   5.201
   92SAPC  H16R 8873   5.759   5.139   5.183
   92SAPC  H16S 8874   5.581   5.072   5.161
   92SAPC  C217 8875   5.751   4.933   5.129
   92SAPC  H17R 8876   5.693   4.839   5.143
   92SAPC  H17S 8877   5.856   4.926   5.163
   92SAPC  C218 8878   5.779   4.956   4.976
   92SAPC  H18R 8879   5.847   5.043   4.957
   92SAPC  H18S 8880   5.682   4.982   4.930
   92SAPC  C219 8881   5.819   4.825   4.908
   92SAPC  H19R 8882   5.820   4.846   4.799
   92SAPC  H19S 8883   5.735   4.757   4.935
   92SAPC  C220 8884   5.948   4.759   4.955
   92SAPC  H20R 8885   5.977   4.670   4.896
   92SAPC  H20S 8886   5.935   4.720   5.058
   92SAPC  H20T 8887   6.034   4.829   4.949
   92SAPC   C33 8888   6.745   5.381   5.964
   92SAPC   H3X 8889   6.829   5.451   5.984
   92SAPC   H3Y 8890   6.667   5.440   5.912
   92SAPC   C34 8891   6.780   5.281   5.850
   92SAPC   H4X 8892   6.685   5.231   5.820
   92SAPC   H4Y 8893   6.844   5.198   5.886
   92SAPC   C35 8894   6.848   5.350   5.729
   92SAPC   H5X 8895   0.061   5.384   5.773
   92SAPC   H5Y 8896   6.776   5.430   5.701
   92SAPC   C36 8897   0.004   5.255   5.613
   92SAPC   H6X 8898   0.045   5.161   5.655
   92SAPC   H6Y 8899   0.079   5.313   5.555
   92SAPC   C37 8900   6.777   5.222   5.512
   92SAPC   H7X 8901   6.744   5.323   5.479
   92SAPC   H7Y 8902   6.693   5.175   5.567
   92SAPC   C38 8903   6.803   5.134   5.386
   92SAPC   H8X 8904   6.817   5.025   5.403
   92SAPC   H8Y 8905   0.021   5.165   5.351
   92SAPC   C39 8906   6.706   5.161   5.274
   92SAPC   H9X 8907   6.726   5.266   5.243
   92SAPC   H9Y 8908   6.605   5.149   5.319
   92SAPC  C310 8909   6.735   5.087   5.155
   92SAPC  H10X 8910   6.732   4.977   5.171
   92SAPC  H10Y 8911   6.833   5.102   5.105
   92SAPC  C311 8912   6.631   5.107   5.046
   92SAPC  H11X 8913   6.598   5.213   5.040
   92SAPC  H11Y 8914   6.541   5.055   5.084
   92SAPC  C312 8915   6.676   5.053   4.907
   92SAPC  H12X 8916   6.705   4.946   4.910
   92SAPC  H12Y 8917   6.758   5.121   4.873
   92SAPC  C313 8918   6.575   5.064   4.789
   92SAPC  H13X 8919   6.566   5.169   4.752
   92SAPC  H13Y 8920   6.471   5.051   4.825
   92SAPC  C314 8921   6.597   4.958   4.674
   92SAPC  H14X 8922   6.610   4.858   4.721
   92SAPC  H14Y 8923   6.692   4.991   4.626
   92SAPC  C315 8924   6.481   4.962   4.566
   92SAPC  H15X 8925   6.427   5.059   4.569
   92SAPC  H15Y 8926   6.399   4.892   4.596
   92SAPC  C316 8927   6.540   4.932   4.424
   92SAPC  H16X 8928   6.592   4.834   4.429
   92SAPC  H16Y 8929   6.612   5.010   4.393
   92SAPC  C317 8930   6.443   4.920   4.303
   92SAPC  H17X 8931   6.505   4.910   4.212
   92SAPC  H17Y 8932   6.379   5.010   4.289
   92SAPC  C318 8933   6.342   4.805   4.298
   92SAPC  H18X 8934   6.280   4.819   4.389
   92SAPC  H18Y 8935   6.384   4.703   4.293
   92SAPC  H18Z 8936   6.287   4.822   4.203
   93SAPC     N 8937   1.196   0.233   6.495
   93SAPC   C12 8938   1.247   0.193   6.362
   93SAPC  H12A 8939   1.352   0.165   6.371
   93SAPC  H12B 8940   1.255   0.281   6.301
   93SAPC   C13 8941   1.062   0.301   6.480
   93SAPC  H13A 8942   1.063   0.383   6.409
   93SAPC  H13B 8943   0.992   0.232   6.436
   93SAPC  H13C 8944   1.017   0.335   6.572
   93SAPC   C14 8945   1.173   0.115   6.584
   93SAPC  H14A 8946   1.118   0.041   6.528
   93SAPC  H14B 8947   1.266   0.061   6.592
   93SAPC  H14C 8948   1.133   0.139   6.681
   93SAPC   C15 8949   1.293   0.328   6.562
   93SAPC  H15A 8950   1.301   0.413   6.496
   93SAPC  H15B 8951   1.244   0.360   6.652
   93SAPC  H15C 8952   1.386   0.277   6.583
   93SAPC   C11 8953   1.169   0.076   6.286
   93SAPC  H11A 8954   1.210   0.075   6.183
   93SAPC  H11B 8955   1.062   0.104   6.277
   93SAPC     P 8956   1.304   6.734   6.336
   93SAPC   O13 8957   1.412   6.806   6.401
   93SAPC   O14 8958   1.257   6.600   6.388
   93SAPC   O12 8959   1.181   6.827   6.345
   93SAPC   O11 8960   1.336   6.721   6.180
   93SAPC    C1 8961   1.458   6.763   6.130
   93SAPC    HA 8962   1.470   6.873   6.139
   93SAPC    HB 8963   1.535   6.705   6.186
   93SAPC    C2 8964   1.470   6.730   5.972
   93SAPC    HS 8965   1.552   6.776   5.913
   93SAPC   O21 8966   1.337   6.749   5.918
   93SAPC   C21 8967   1.324   6.869   5.874
   93SAPC   O22 8968   1.407   0.077   5.885
   93SAPC   C22 8969   1.190   6.881   5.803
   93SAPC   H2R 8970   1.112   6.836   5.867
   93SAPC   H2S 8971   1.162   0.105   5.790
   93SAPC    C3 8972   1.501   6.573   5.965
   93SAPC    HX 8973   1.434   6.521   6.036
   93SAPC    HY 8974   1.605   6.563   6.002
   93SAPC   O31 8975   1.484   6.518   5.833
   93SAPC   C31 8976   1.385   6.425   5.808
   93SAPC   O32 8977   1.325   6.369   5.901
   93SAPC   C32 8978   1.353   6.403   5.661
   93SAPC   H2X 8979   1.427   6.467   5.608
   93SAPC   H2Y 8980   1.250   6.439   5.636
   93SAPC   C23 8981   1.168   6.785   5.675
   93SAPC   H3R 8982   1.060   6.780   5.650
   93SAPC   H3S 8983   1.195   6.680   5.699
   93SAPC   C24 8984   1.249   6.835   5.560
   93SAPC   H4R 8985   1.252   6.754   5.484
   93SAPC   H4S 8986   1.355   6.859   5.587
   93SAPC   C25 8987   1.188   0.083   5.512
   93SAPC   H5R 8988   1.189   0.168   5.581
   93SAPC   C26 8989   1.147   0.100   5.386
   93SAPC   H6R 8990   1.087   0.191   5.373
   93SAPC   C27 8991   1.156   0.004   5.265
   93SAPC   H7R 8992   1.056   6.845   5.236
   93SAPC   H7S 8993   1.225   6.802   5.285
   93SAPC   C28 8994   1.234   0.090   5.164
   93SAPC   H8R 8995   1.311   0.156   5.206
   93SAPC   C29 8996   1.220   0.092   5.033
   93SAPC   H9R 8997   1.290   0.147   4.970
   93SAPC  C210 8998   1.110   0.006   4.966
   93SAPC  H10R 8999   1.011   0.011   5.014
   93SAPC  H10S 9000   1.146   6.785   4.985
   93SAPC  C211 9001   1.092   0.038   4.821
   93SAPC  H11R 9002   1.000   0.091   4.792
   93SAPC  C212 9003   1.181   0.007   4.724
   93SAPC  H12R 9004   1.168   0.046   4.622
   93SAPC  C213 9005   1.323   6.829   4.738
   93SAPC  H13R 9006   1.343   6.750   4.662
   93SAPC  H13S 9007   1.326   6.771   4.832
   93SAPC  C214 9008   1.421   0.058   4.715
   93SAPC  H14R 9009   1.415   0.143   4.784
   93SAPC  C215 9010   1.530   0.064   4.633
   93SAPC  H15R 9011   1.577   0.161   4.610
   93SAPC  C216 9012   1.590   6.845   4.531
   93SAPC  H16R 9013   1.542   6.826   4.432
   93SAPC  H16S 9014   1.604   6.751   4.587
   93SAPC  C217 9015   1.739   0.003   4.508
   93SAPC  H17R 9016   1.787   0.007   4.608
   93SAPC  H17S 9017   1.740   0.107   4.469
   93SAPC  C218 9018   1.827   6.805   4.408
   93SAPC  H18R 9019   1.767   6.817   4.315
   93SAPC  H18S 9020   1.812   6.699   4.438
   93SAPC  C219 9021   1.983   6.832   4.400
   93SAPC  H19R 9022   2.038   6.738   4.379
   93SAPC  H19S 9023   2.018   6.863   4.501
   93SAPC  C220 9024   2.001   0.070   4.309
   93SAPC  H20R 9025   1.902   0.102   4.269
   93SAPC  H20S 9026   2.061   0.046   4.219
   93SAPC  H20T 9027   2.029   0.156   4.373
   93SAPC   C33 9028   1.368   6.259   5.621
   93SAPC   H3X 9029   1.287   6.187   5.645
   93SAPC   H3Y 9030   1.448   6.222   5.688
   93SAPC   C34 9031   1.407   6.239   5.474
   93SAPC   H4X 9032   1.412   6.130   5.451
   93SAPC   H4Y 9033   1.506   6.289   5.462
   93SAPC   C35 9034   1.307   6.303   5.378
   93SAPC   H5X 9035   1.281   6.408   5.403
   93SAPC   H5Y 9036   1.208   6.255   5.362
   93SAPC   C36 9037   1.364   6.305   5.235
   93SAPC   H6X 9038   1.399   6.202   5.212
   93SAPC   H6Y 9039   1.462   6.358   5.236
   93SAPC   C37 9040   1.278   6.366   5.129
   93SAPC   H7X 9041   1.253   6.466   5.168
   93SAPC   H7Y 9042   1.191   6.298   5.114
   93SAPC   C38 9043   1.342   6.371   4.989
   93SAPC   H8X 9044   1.370   6.266   4.965
   93SAPC   H8Y 9045   1.433   6.434   4.981
   93SAPC   C39 9046   1.240   6.414   4.880
   93SAPC   H9X 9047   1.199   6.517   4.895
   93SAPC   H9Y 9048   1.155   6.344   4.869
   93SAPC  C310 9049   1.323   6.405   4.744
   93SAPC  H10X 9050   1.378   6.309   4.736
   93SAPC  H10Y 9051   1.402   6.483   4.747
   93SAPC  C311 9052   1.231   6.447   4.629
   93SAPC  H11X 9053   1.171   6.533   4.666
   93SAPC  H11Y 9054   1.166   6.363   4.598
   93SAPC  C312 9055   1.297   6.508   4.501
   93SAPC  H12X 9056   1.365   6.427   4.465
   93SAPC  H12Y 9057   1.365   6.593   4.524
   93SAPC  C313 9058   1.196   6.540   4.389
   93SAPC  H13X 9059   1.117   6.616   4.412
   93SAPC  H13Y 9060   1.124   6.456   4.395
   93SAPC  C314 9061   1.244   6.548   4.252
   93SAPC  H14X 9062   1.303   6.460   4.219
   93SAPC  H14Y 9063   1.308   6.637   4.231
   93SAPC  C315 9064   1.123   6.551   4.153
   93SAPC  H15X 9065   1.046   6.625   4.182
   93SAPC  H15Y 9066   1.092   6.444   4.144
   93SAPC  C316 9067   1.167   6.575   4.008
   93SAPC  H16X 9068   1.206   6.677   3.986
   93SAPC  H16Y 9069   1.088   6.574   3.930
   93SAPC  C317 9070   1.268   6.471   3.962
   93SAPC  H17X 9071   1.225   6.378   4.005
   93SAPC  H17Y 9072   1.370   6.479   4.006
   93SAPC  C318 9073   1.289   6.472   3.811
   93SAPC  H18X 9074   1.191   6.451   3.765
   93SAPC  H18Y 9075   1.361   6.393   3.780
   93SAPC  H18Z 9076   1.331   6.568   3.776
   94SAPC     N 9077   0.259   5.449   6.636
   94SAPC   C12 9078   0.240   5.307   6.670
   94SAPC  H12A 9079   0.327   5.250   6.641
   94SAPC  H12B 9080   0.152   5.274   6.616
   94SAPC   C13 9081   0.135   5.530   6.650
   94SAPC  H13A 9082   0.094   5.497   6.744
   94SAPC  H13B 9083   0.154   5.637   6.645
   94SAPC  H13C 9084   0.067   5.522   6.567
   94SAPC   C14 9085   0.365   5.520   6.713
   94SAPC  H14A 9086   0.460   5.469   6.714
   94SAPC  H14B 9087   0.376   5.619   6.670
   94SAPC  H14C 9088   0.329   5.528   6.814
   94SAPC   C15 9089   0.296   5.459   6.494
   94SAPC  H15A 9090   0.320   5.557   6.455
   94SAPC  H15B 9091   0.375   5.387   6.476
   94SAPC  H15C 9092   0.219   5.420   6.430
   94SAPC   C11 9093   0.214   5.267   6.816
   94SAPC  H11A 9094   0.298   5.293   6.884
   94SAPC  H11B 9095   0.196   5.158   6.804
   94SAPC     P 9096   6.835   5.277   6.848
   94SAPC   O13 9097   6.827   5.174   6.955
   94SAPC   O14 9098   6.730   5.384   6.846
   94SAPC   O12 9099   0.097   5.342   6.872
   94SAPC   O11 9100   6.842   5.204   6.709
   94SAPC    C1 9101   6.848   5.060   6.701
   94SAPC    HA 9102   0.046   5.032   6.773
   94SAPC    HB 9103   6.756   5.017   6.746
   94SAPC    C2 9104   0.003   5.012   6.556
   94SAPC    HS 9105   0.002   4.901   6.556
   94SAPC   O21 9106   0.134   5.072   6.526
   94SAPC   C21 9107   0.206   4.984   6.458
   94SAPC   O22 9108   0.181   4.868   6.430
   94SAPC   C22 9109   0.332   5.054   6.409
   94SAPC   H2R 9110   0.374   5.106   6.498
   94SAPC   H2S 9111   0.403   4.976   6.373
   94SAPC    C3 9112   6.784   5.067   6.456
   94SAPC    HX 9113   6.798   5.177   6.447
   94SAPC    HY 9114   6.677   5.052   6.482
   94SAPC   O31 9115   6.822   5.019   6.327
   94SAPC   C31 9116   6.769   4.900   6.304
   94SAPC   O32 9117   6.688   4.841   6.375
   94SAPC   C32 9118   6.821   4.849   6.173
   94SAPC   H2X 9119   6.812   4.739   6.190
   94SAPC   H2Y 9120   0.048   4.866   6.164
   94SAPC   C23 9121   0.300   5.155   6.296
   94SAPC   H3R 9122   0.398   5.196   6.265
   94SAPC   H3S 9123   0.233   5.234   6.337
   94SAPC   C24 9124   0.239   5.075   6.177
   94SAPC   H4R 9125   0.143   5.034   6.215
   94SAPC   H4S 9126   0.306   4.992   6.145
   94SAPC   C25 9127   0.212   5.157   6.053
   94SAPC   H5R 9128   0.117   5.131   6.002
   94SAPC   C26 9129   0.290   5.235   5.970
   94SAPC   H6R 9130   0.240   5.272   5.879
   94SAPC   C27 9131   0.433   5.285   5.987
   94SAPC   H7R 9132   0.498   5.222   5.923
   94SAPC   H7S 9133   0.465   5.280   6.094
   94SAPC   C28 9134   0.468   5.432   5.950
   94SAPC   H8R 9135   0.486   5.494   6.039
   94SAPC   C29 9136   0.476   5.487   5.831
   94SAPC   H9R 9137   0.491   5.596   5.834
   94SAPC  C210 9138   0.458   5.435   5.693
   94SAPC  H10R 9139   0.425   5.329   5.699
   94SAPC  H10S 9140   0.558   5.410   5.650
   94SAPC  C211 9141   0.365   5.510   5.599
   94SAPC  H11R 9142   0.261   5.540   5.617
   94SAPC  C212 9143   0.411   5.560   5.481
   94SAPC  H12R 9144   0.342   5.613   5.414
   94SAPC  C213 9145   0.556   5.555   5.437
   94SAPC  H13R 9146   0.548   5.587   5.331
   94SAPC  H13S 9147   0.582   5.447   5.439
   94SAPC  C214 9148   0.661   5.634   5.506
   94SAPC  H14R 9149   0.732   5.583   5.572
   94SAPC  C215 9150   0.665   5.766   5.521
   94SAPC  H15R 9151   0.751   5.812   5.572
   94SAPC  C216 9152   0.572   5.864   5.447
   94SAPC  H16R 9153   0.574   5.962   5.498
   94SAPC  H16S 9154   0.468   5.826   5.441
   94SAPC  C217 9155   0.611   5.898   5.303
   94SAPC  H17R 9156   0.608   5.806   5.242
   94SAPC  H17S 9157   0.716   5.934   5.295
   94SAPC  C218 9158   0.527   6.009   5.231
   94SAPC  H18R 9159   0.425   5.973   5.255
   94SAPC  H18S 9160   0.544   5.989   5.123
   94SAPC  C219 9161   0.561   6.146   5.287
   94SAPC  H19R 9162   0.663   6.170   5.250
   94SAPC  H19S 9163   0.564   6.146   5.398
   94SAPC  C220 9164   0.463   6.251   5.250
   94SAPC  H20R 9165   0.497   6.350   5.289
   94SAPC  H20S 9166   0.359   6.236   5.284
   94SAPC  H20T 9167   0.461   6.269   5.140
   94SAPC   C33 9168   6.750   4.906   6.046
   94SAPC   H3X 9169   6.741   5.016   6.055
   94SAPC   H3Y 9170   6.644   4.872   6.040
   94SAPC   C34 9171   6.827   4.858   5.928
   94SAPC   H4X 9172   6.838   4.747   5.923
   94SAPC   H4Y 9173   0.048   4.894   5.943
   94SAPC   C35 9174   6.780   4.897   5.787
   94SAPC   H5X 9175   6.856   4.854   5.718
   94SAPC   H5Y 9176   6.793   5.005   5.761
   94SAPC   C36 9177   6.636   4.851   5.751
   94SAPC   H6X 9178   6.570   4.895   5.829
   94SAPC   H6Y 9179   6.632   4.742   5.775
   94SAPC   C37 9180   6.587   4.867   5.611
   94SAPC   H7X 9181   6.664   4.830   5.540
   94SAPC   H7Y 9182   6.573   4.974   5.584
   94SAPC   C38 9183   6.454   4.788   5.595
   94SAPC   H8X 9184   6.391   4.822   5.680
   94SAPC   H8Y 9185   6.472   4.682   5.622
   94SAPC   C39 9186   6.375   4.814   5.465
   94SAPC   H9X 9187   6.349   4.921   5.480
   94SAPC   H9Y 9188   6.285   4.749   5.456
   94SAPC  C310 9189   6.453   4.797   5.338
   94SAPC  H10X 9190   6.511   4.704   5.354
   94SAPC  H10Y 9191   6.521   4.883   5.319
   94SAPC  C311 9192   6.360   4.774   5.210
   94SAPC  H11X 9193   6.303   4.866   5.186
   94SAPC  H11Y 9194   6.283   4.699   5.238
   94SAPC  C312 9195   6.429   4.721   5.083
   94SAPC  H12X 9196   6.494   4.639   5.121
   94SAPC  H12Y 9197   6.498   4.801   5.047
   94SAPC  C313 9198   6.326   4.671   4.975
   94SAPC  H13X 9199   6.267   4.759   4.940
   94SAPC  H13Y 9200   6.254   4.601   5.022
   94SAPC  C314 9201   6.383   4.602   4.855
   94SAPC  H14X 9202   6.424   4.503   4.882
   94SAPC  H14Y 9203   6.451   4.679   4.812
   94SAPC  C315 9204   6.279   4.592   4.738
   94SAPC  H15X 9205   6.245   4.694   4.710
   94SAPC  H15Y 9206   6.191   4.529   4.762
   94SAPC  C316 9207   6.350   4.525   4.617
   94SAPC  H16X 9208   6.388   4.424   4.644
   94SAPC  H16Y 9209   6.436   4.587   4.584
   94SAPC  C317 9210   6.268   4.523   4.490
   94SAPC  H17X 9211   6.262   4.628   4.454
   94SAPC  H17Y 9212   6.169   4.480   4.517
   94SAPC  C318 9213   6.328   4.430   4.375
   94SAPC  H18X 9214   6.290   4.326   4.370
   94SAPC  H18Y 9215   6.436   4.421   4.397
   94SAPC  H18Z 9216   6.307   4.483   4.280
   95SAPC     N 9217   4.110   5.638   1.989
   95SAPC   C12 9218   4.059   5.547   2.102
   95SAPC  H12A 9219   4.137   5.479   2.134
   95SAPC  H12B 9220   3.984   5.483   2.058
   95SAPC   C13 9221   4.005   5.714   1.917
   95SAPC  H13A 9222   4.039   5.789   1.847
   95SAPC  H13B 9223   3.950   5.640   1.860
   95SAPC  H13C 9224   3.945   5.757   1.996
   95SAPC   C14 9225   4.198   5.736   2.065
   95SAPC  H14A 9226   4.282   5.690   2.115
   95SAPC  H14B 9227   4.242   5.801   1.990
   95SAPC  H14C 9228   4.143   5.792   2.139
   95SAPC   C15 9229   4.198   5.555   1.897
   95SAPC  H15A 9230   4.143   5.467   1.867
   95SAPC  H15B 9231   4.225   5.614   1.810
   95SAPC  H15C 9232   4.294   5.522   1.934
   95SAPC   C11 9233   3.996   5.617   2.228
   95SAPC  H11A 9234   4.073   5.653   2.299
   95SAPC  H11B 9235   3.952   5.541   2.296
   95SAPC     P 9236   3.883   5.846   2.242
   95SAPC   O13 9237   4.009   5.918   2.210
   95SAPC   O14 9238   3.764   5.909   2.190
   95SAPC   O12 9239   3.887   5.702   2.190
   95SAPC   O11 9240   3.866   5.843   2.398
   95SAPC    C1 9241   3.793   5.743   2.464
   95SAPC    HA 9242   3.817   5.646   2.415
   95SAPC    HB 9243   3.822   5.734   2.571
   95SAPC    C2 9244   3.641   5.765   2.462
   95SAPC    HS 9245   3.612   5.779   2.356
   95SAPC   O21 9246   3.608   5.878   2.546
   95SAPC   C21 9247   3.489   5.928   2.535
   95SAPC   O22 9248   3.409   5.885   2.451
   95SAPC   C22 9249   3.453   6.031   2.636
   95SAPC   H2R 9250   3.526   6.035   2.719
   95SAPC   H2S 9251   3.463   6.126   2.578
   95SAPC    C3 9252   3.572   5.630   2.515
   95SAPC    HX 9253   3.605   5.553   2.442
   95SAPC    HY 9254   3.463   5.640   2.496
   95SAPC   O31 9255   3.612   5.590   2.643
   95SAPC   C31 9256   3.510   5.606   2.738
   95SAPC   O32 9257   3.402   5.651   2.718
   95SAPC   C32 9258   3.560   5.541   2.869
   95SAPC   H2X 9259   3.665   5.575   2.877
   95SAPC   H2Y 9260   3.570   5.433   2.845
   95SAPC   C23 9261   3.317   6.004   2.712
   95SAPC   H3R 9262   3.306   5.898   2.745
   95SAPC   H3S 9263   3.228   6.012   2.646
   95SAPC   C24 9264   3.287   6.104   2.829
   95SAPC   H4R 9265   3.361   6.099   2.911
   95SAPC   H4S 9266   3.191   6.072   2.876
   95SAPC   C25 9267   3.284   6.251   2.793
   95SAPC   H5R 9268   3.369   6.309   2.831
   95SAPC   C26 9269   3.193   6.317   2.723
   95SAPC   H6R 9270   3.215   6.425   2.722
   95SAPC   C27 9271   3.072   6.263   2.653
   95SAPC   H7R 9272   3.031   6.178   2.712
   95SAPC   H7S 9273   3.103   6.222   2.555
   95SAPC   C28 9274   2.970   6.374   2.637
   95SAPC   H8R 9275   2.953   6.412   2.536
   95SAPC   C29 9276   2.882   6.415   2.732
   95SAPC   H9R 9277   2.808   6.493   2.708
   95SAPC  C210 9278   2.870   6.355   2.872
   95SAPC  H10R 9279   2.809   6.427   2.930
   95SAPC  H10S 9280   2.969   6.360   2.923
   95SAPC  C211 9281   2.813   6.215   2.890
   95SAPC  H11R 9282   2.791   6.158   2.799
   95SAPC  C212 9283   2.784   6.168   3.015
   95SAPC  H12R 9284   2.756   6.062   3.022
   95SAPC  C213 9285   2.804   6.237   3.148
   95SAPC  H13R 9286   2.892   6.304   3.149
   95SAPC  H13S 9287   2.834   6.164   3.226
   95SAPC  C214 9288   2.671   6.292   3.190
   95SAPC  H14R 9289   2.593   6.216   3.175
   95SAPC  C215 9290   2.645   6.414   3.242
   95SAPC  H15R 9291   2.542   6.441   3.269
   95SAPC  C216 9292   2.743   6.520   3.289
   95SAPC  H16R 9293   2.715   6.611   3.233
   95SAPC  H16S 9294   2.848   6.496   3.261
   95SAPC  C217 9295   2.738   6.541   3.442
   95SAPC  H17R 9296   2.798   6.633   3.458
   95SAPC  H17S 9297   2.791   6.457   3.490
   95SAPC  C218 9298   2.601   6.576   3.510
   95SAPC  H18R 9299   2.620   6.605   3.616
   95SAPC  H18S 9300   2.528   6.493   3.506
   95SAPC  C219 9301   2.546   6.712   3.445
   95SAPC  H19R 9302   2.529   6.692   3.337
   95SAPC  H19S 9303   2.628   6.786   3.457
   95SAPC  C220 9304   2.416   6.771   3.497
   95SAPC  H20R 9305   2.334   6.703   3.465
   95SAPC  H20S 9306   2.406   6.872   3.451
   95SAPC  H20T 9307   2.425   6.795   3.605
   95SAPC   C33 9308   3.472   5.565   2.998
   95SAPC   H3X 9309   3.517   5.518   3.089
   95SAPC   H3Y 9310   3.378   5.513   2.971
   95SAPC   C34 9311   3.445   5.710   3.035
   95SAPC   H4X 9312   3.389   5.749   2.947
   95SAPC   H4Y 9313   3.540   5.766   3.025
   95SAPC   C35 9314   3.384   5.731   3.171
   95SAPC   H5X 9315   3.436   5.675   3.252
   95SAPC   H5Y 9316   3.278   5.701   3.159
   95SAPC   C36 9317   3.367   5.879   3.221
   95SAPC   H6X 9318   3.308   5.927   3.141
   95SAPC   H6Y 9319   3.469   5.922   3.223
   95SAPC   C37 9320   3.281   5.881   3.349
   95SAPC   H7X 9321   3.200   5.805   3.345
   95SAPC   H7Y 9322   3.234   5.981   3.346
   95SAPC   C38 9323   3.353   5.858   3.483
   95SAPC   H8X 9324   3.432   5.935   3.490
   95SAPC   H8Y 9325   3.403   5.759   3.485
   95SAPC   C39 9326   3.261   5.873   3.609
   95SAPC   H9X 9327   3.199   5.962   3.586
   95SAPC   H9Y 9328   3.325   5.893   3.698
   95SAPC  C310 9329   3.181   5.746   3.633
   95SAPC  H10X 9330   3.252   5.661   3.627
   95SAPC  H10Y 9331   3.106   5.732   3.552
   95SAPC  C311 9332   3.112   5.745   3.772
   95SAPC  H11X 9333   3.178   5.796   3.845
   95SAPC  H11Y 9334   3.100   5.636   3.790
   95SAPC  C312 9335   2.969   5.810   3.762
   95SAPC  H12X 9336   2.903   5.747   3.698
   95SAPC  H12Y 9337   2.987   5.909   3.716
   95SAPC  C313 9338   2.894   5.831   3.891
   95SAPC  H13X 9339   2.790   5.866   3.876
   95SAPC  H13Y 9340   2.943   5.901   3.963
   95SAPC  C314 9341   2.893   5.698   3.976
   95SAPC  H14X 9342   3.000   5.673   3.996
   95SAPC  H14Y 9343   2.847   5.612   3.922
   95SAPC  C315 9344   2.822   5.705   4.112
   95SAPC  H15X 9345   2.714   5.711   4.089
   95SAPC  H15Y 9346   2.852   5.795   4.170
   95SAPC  C316 9347   2.854   5.581   4.197
   95SAPC  H16X 9348   2.965   5.581   4.204
   95SAPC  H16Y 9349   2.822   5.492   4.140
   95SAPC  C317 9350   2.797   5.572   4.339
   95SAPC  H17X 9351   2.688   5.559   4.320
   95SAPC  H17Y 9352   2.808   5.667   4.395
   95SAPC  C318 9353   2.849   5.452   4.411
   95SAPC  H18X 9354   2.806   5.452   4.514
   95SAPC  H18Y 9355   2.958   5.473   4.416
   95SAPC  H18Z 9356   2.832   5.359   4.353
   96SAPC     N 9357   4.296   1.502   2.165
   96SAPC   C12 9358   4.285   1.611   2.275
   96SAPC  H12A 9359   4.359   1.587   2.350
   96SAPC  H12B 9360   4.192   1.597   2.328
   96SAPC   C13 9361   4.255   1.372   2.228
   96SAPC  H13A 9362   4.314   1.358   2.318
   96SAPC  H13B 9363   4.149   1.360   2.244
   96SAPC  H13C 9364   4.294   1.290   2.169
   96SAPC   C14 9365   4.209   1.518   2.043
   96SAPC  H14A 9366   4.227   1.438   1.973
   96SAPC  H14B 9367   4.109   1.491   2.074
   96SAPC  H14C 9368   4.203   1.620   2.007
   96SAPC   C15 9369   4.440   1.493   2.120
   96SAPC  H15A 9370   4.460   1.396   2.078
   96SAPC  H15B 9371   4.466   1.585   2.069
   96SAPC  H15C 9372   4.499   1.490   2.210
   96SAPC   C11 9373   4.325   1.758   2.234
   96SAPC  H11A 9374   4.428   1.767   2.194
   96SAPC  H11B 9375   4.318   1.822   2.324
   96SAPC     P 9376   4.108   1.878   2.161
   96SAPC   O13 9377   4.138   2.010   2.212
   96SAPC   O14 9378   4.017   1.876   2.045
   96SAPC   O12 9379   4.237   1.803   2.133
   96SAPC   O11 9380   4.046   1.795   2.275
   96SAPC    C1 9381   3.900   1.783   2.288
   96SAPC    HA 9382   3.854   1.718   2.210
   96SAPC    HB 9383   3.872   1.735   2.384
   96SAPC    C2 9384   3.820   1.918   2.287
   96SAPC    HS 9385   3.840   1.950   2.182
   96SAPC   O21 9386   3.871   2.014   2.386
   96SAPC   C21 9387   3.874   2.137   2.331
   96SAPC   O22 9388   3.840   2.160   2.217
   96SAPC   C22 9389   3.913   2.244   2.434
   96SAPC   H2R 9390   4.019   2.218   2.456
   96SAPC   H2S 9391   3.911   2.339   2.376
   96SAPC    C3 9392   3.668   1.891   2.307
   96SAPC    HX 9393   3.657   1.784   2.332
   96SAPC    HY 9394   3.610   1.889   2.212
   96SAPC   O31 9395   3.612   1.978   2.401
   96SAPC   C31 9396   3.626   1.947   2.531
   96SAPC   O32 9397   3.710   1.868   2.578
   96SAPC   C32 9398   3.528   2.020   2.613
   96SAPC   H2X 9399   3.426   1.986   2.585
   96SAPC   H2Y 9400   3.529   2.127   2.585
   96SAPC   C23 9401   3.832   2.246   2.569
   96SAPC   H3R 9402   3.807   2.139   2.587
   96SAPC   H3S 9403   3.736   2.303   2.568
   96SAPC   C24 9404   3.925   2.300   2.681
   96SAPC   H4R 9405   3.951   2.403   2.647
   96SAPC   H4S 9406   4.014   2.233   2.680
   96SAPC   C25 9407   3.864   2.288   2.821
   96SAPC   H5R 9408   3.783   2.361   2.830
   96SAPC   C26 9409   3.906   2.208   2.926
   96SAPC   H6R 9410   3.858   2.218   3.025
   96SAPC   C27 9411   4.028   2.118   2.922
   96SAPC   H7R 9412   4.036   2.087   2.815
   96SAPC   H7S 9413   4.009   2.018   2.968
   96SAPC   C28 9414   4.151   2.188   2.976
   96SAPC   H8R 9415   4.231   2.204   2.902
   96SAPC   C29 9416   4.171   2.221   3.103
   96SAPC   H9R 9417   4.258   2.280   3.134
   96SAPC  C210 9418   4.079   2.202   3.209
   96SAPC  H10R 9419   4.137   2.160   3.295
   96SAPC  H10S 9420   4.001   2.126   3.186
   96SAPC  C211 9421   4.013   2.330   3.257
   96SAPC  H11R 9422   4.014   2.415   3.188
   96SAPC  C212 9423   3.942   2.356   3.366
   96SAPC  H12R 9424   3.889   2.452   3.371
   96SAPC  C213 9425   3.924   2.268   3.490
   96SAPC  H13R 9426   3.914   2.167   3.444
   96SAPC  H13S 9427   3.830   2.297   3.543
   96SAPC  C214 9428   4.038   2.263   3.589
   96SAPC  H14R 9429   4.096   2.171   3.573
   96SAPC  C215 9430   4.052   2.340   3.699
   96SAPC  H15R 9431   4.137   2.330   3.767
   96SAPC  C216 9432   3.972   2.466   3.728
   96SAPC  H16R 9433   3.869   2.441   3.762
   96SAPC  H16S 9434   3.958   2.516   3.630
   96SAPC  C217 9435   4.035   2.555   3.843
   96SAPC  H17R 9436   4.131   2.606   3.821
   96SAPC  H17S 9437   4.058   2.479   3.921
   96SAPC  C218 9438   3.943   2.668   3.898
   96SAPC  H18R 9439   3.842   2.625   3.915
   96SAPC  H18S 9440   3.923   2.741   3.817
   96SAPC  C219 9441   4.001   2.737   4.027
   96SAPC  H19R 9442   4.036   2.651   4.088
   96SAPC  H19S 9443   3.927   2.797   4.084
   96SAPC  C220 9444   4.123   2.826   3.994
   96SAPC  H20R 9445   4.199   2.758   3.951
   96SAPC  H20S 9446   4.166   2.884   4.078
   96SAPC  H20T 9447   4.089   2.905   3.924
   96SAPC   C33 9448   3.548   2.015   2.765
   96SAPC   H3X 9449   3.498   2.101   2.814
   96SAPC   H3Y 9450   3.655   2.031   2.790
   96SAPC   C34 9451   3.502   1.884   2.824
   96SAPC   H4X 9452   3.550   1.794   2.781
   96SAPC   H4Y 9453   3.394   1.882   2.797
   96SAPC   C35 9454   3.509   1.877   2.978
   96SAPC   H5X 9455   3.616   1.884   3.008
   96SAPC   H5Y 9456   3.461   1.788   3.023
   96SAPC   C36 9457   3.454   2.010   3.048
   96SAPC   H6X 9458   3.354   2.027   3.002
   96SAPC   H6Y 9459   3.515   2.100   3.029
   96SAPC   C37 9460   3.414   1.986   3.202
   96SAPC   H7X 9461   3.375   1.883   3.213
   96SAPC   H7Y 9462   3.320   2.045   3.217
   96SAPC   C38 9463   3.520   2.016   3.304
   96SAPC   H8X 9464   3.553   2.121   3.294
   96SAPC   H8Y 9465   3.606   1.949   3.284
   96SAPC   C39 9466   3.468   2.004   3.448
   96SAPC   H9X 9467   3.441   1.899   3.469
   96SAPC   H9Y 9468   3.371   2.059   3.454
   96SAPC  C310 9469   3.574   2.059   3.542
   96SAPC  H10X 9470   3.597   2.159   3.498
   96SAPC  H10Y 9471   3.663   1.998   3.517
   96SAPC  C311 9472   3.536   2.064   3.690
   96SAPC  H11X 9473   3.506   1.963   3.725
   96SAPC  H11Y 9474   3.448   2.131   3.698
   96SAPC  C312 9475   3.655   2.115   3.781
   96SAPC  H12X 9476   3.737   2.145   3.714
   96SAPC  H12Y 9477   3.684   2.022   3.836
   96SAPC  C313 9478   3.609   2.231   3.869
   96SAPC  H13X 9479   3.523   2.187   3.923
   96SAPC  H13Y 9480   3.572   2.322   3.816
   96SAPC  C314 9481   3.712   2.267   3.974
   96SAPC  H14X 9482   3.801   2.310   3.924
   96SAPC  H14Y 9483   3.758   2.176   4.018
   96SAPC  C315 9484   3.675   2.365   4.088
   96SAPC  H15X 9485   3.586   2.315   4.132
   96SAPC  H15Y 9486   3.642   2.459   4.040
   96SAPC  C316 9487   3.780   2.373   4.198
   96SAPC  H16X 9488   3.875   2.409   4.154
   96SAPC  H16Y 9489   3.785   2.266   4.226
   96SAPC  C317 9490   3.738   2.457   4.313
   96SAPC  H17X 9491   3.817   2.450   4.390
   96SAPC  H17Y 9492   3.644   2.418   4.356
   96SAPC  C318 9493   3.713   2.604   4.277
   96SAPC  H18X 9494   3.806   2.649   4.237
   96SAPC  H18Y 9495   3.695   2.658   4.372
   96SAPC  H18Z 9496   3.626   2.617   4.209
   97SAPC     N 9497   2.794   0.678   2.276
   97SAPC   C12 9498   2.914   0.761   2.318
   97SAPC  H12A 9499   2.878   0.851   2.364
   97SAPC  H12B 9500   2.955   0.803   2.227
   97SAPC   C13 9501   2.700   0.757   2.185
   97SAPC  H13A 9502   2.631   0.689   2.138
   97SAPC  H13B 9503   2.648   0.834   2.241
   97SAPC  H13C 9504   2.761   0.802   2.109
   97SAPC   C14 9505   2.844   0.554   2.196
   97SAPC  H14A 9506   2.765   0.497   2.152
   97SAPC  H14B 9507   2.922   0.572   2.124
   97SAPC  H14C 9508   2.880   0.482   2.268
   97SAPC   C15 9509   2.713   0.639   2.396
   97SAPC  H15A 9510   2.768   0.561   2.446
   97SAPC  H15B 9511   2.690   0.720   2.465
   97SAPC  H15C 9512   2.615   0.596   2.379
   97SAPC   C11 9513   3.024   0.684   2.405
   97SAPC  H11A 9514   2.966   0.658   2.496
   97SAPC  H11B 9515   3.093   0.769   2.425
   97SAPC     P 9516   3.158   0.457   2.418
   97SAPC   O13 9517   3.128   0.320   2.364
   97SAPC   O14 9518   3.303   0.495   2.409
   97SAPC   O12 9519   3.090   0.578   2.344
   97SAPC   O11 9520   3.105   0.469   2.566
   97SAPC    C1 9521   3.178   0.542   2.665
   97SAPC    HA 9522   3.252   0.615   2.626
   97SAPC    HB 9523   3.104   0.608   2.715
   97SAPC    C2 9524   3.237   0.441   2.761
   97SAPC    HS 9525   3.283   0.357   2.704
   97SAPC   O21 9526   3.126   0.396   2.847
   97SAPC   C21 9527   3.150   0.288   2.920
   97SAPC   O22 9528   3.247   0.213   2.909
   97SAPC   C22 9529   3.042   0.283   3.028
   97SAPC   H2R 9530   3.034   0.383   3.074
   97SAPC   H2S 9531   2.952   0.261   2.966
   97SAPC    C3 9532   3.339   0.511   2.852
   97SAPC    HX 9533   3.378   0.593   2.789
   97SAPC    HY 9534   3.415   0.431   2.864
   97SAPC   O31 9535   3.285   0.565   2.975
   97SAPC   C31 9536   3.356   0.564   3.082
   97SAPC   O32 9537   3.464   0.506   3.098
   97SAPC   C32 9538   3.302   0.648   3.199
   97SAPC   H2X 9539   3.223   0.716   3.163
   97SAPC   H2Y 9540   3.384   0.717   3.227
   97SAPC   C23 9541   3.072   0.165   3.130
   97SAPC   H3R 9542   3.157   0.181   3.200
   97SAPC   H3S 9543   3.099   0.072   3.075
   97SAPC   C24 9544   2.946   0.160   3.218
   97SAPC   H4R 9545   2.856   0.153   3.154
   97SAPC   H4S 9546   2.934   0.250   3.282
   97SAPC   C25 9547   2.943   0.036   3.303
   97SAPC   H5R 9548   2.965   6.823   3.252
   97SAPC   C26 9549   2.934   0.036   3.437
   97SAPC   H6R 9550   2.916   6.825   3.492
   97SAPC   C27 9551   2.928   0.159   3.523
   97SAPC   H7R 9552   2.832   0.211   3.500
   97SAPC   H7S 9553   3.005   0.234   3.495
   97SAPC   C28 9554   2.945   0.137   3.671
   97SAPC   H8R 9555   3.048   0.116   3.703
   97SAPC   C29 9556   2.855   0.116   3.769
   97SAPC   H9R 9557   2.894   0.087   3.867
   97SAPC  C210 9558   2.705   0.121   3.754
   97SAPC  H10R 9559   2.679   0.096   3.649
   97SAPC  H10S 9560   2.668   0.226   3.752
   97SAPC  C211 9561   2.631   0.028   3.847
   97SAPC  H11R 9562   2.634   6.809   3.807
   97SAPC  C212 9563   2.554   0.053   3.961
   97SAPC  H12R 9564   2.501   6.851   4.007
   97SAPC  C213 9565   2.544   0.185   4.029
   97SAPC  H13R 9566   2.437   0.206   4.047
   97SAPC  H13S 9567   2.573   0.272   3.965
   97SAPC  C214 9568   2.623   0.191   4.160
   97SAPC  H14R 9569   2.707   0.124   4.180
   97SAPC  C215 9570   2.586   0.266   4.262
   97SAPC  H15R 9571   2.627   0.242   4.361
   97SAPC  C216 9572   2.484   0.374   4.248
   97SAPC  H16R 9573   2.395   0.327   4.295
   97SAPC  H16S 9574   2.459   0.416   4.148
   97SAPC  C217 9575   2.515   0.495   4.330
   97SAPC  H17R 9576   2.431   0.562   4.301
   97SAPC  H17S 9577   2.607   0.542   4.289
   97SAPC  C218 9578   2.508   0.473   4.487
   97SAPC  H18R 9579   2.569   0.383   4.513
   97SAPC  H18S 9580   2.403   0.443   4.506
   97SAPC  C219 9581   2.545   0.595   4.564
   97SAPC  H19R 9582   2.484   0.677   4.523
   97SAPC  H19S 9583   2.648   0.626   4.537
   97SAPC  C220 9584   2.532   0.588   4.718
   97SAPC  H20R 9585   2.559   0.684   4.768
   97SAPC  H20S 9586   2.597   0.510   4.764
   97SAPC  H20T 9587   2.425   0.561   4.732
   97SAPC   C33 9588   3.270   0.566   3.324
   97SAPC   H3X 9589   3.211   0.475   3.302
   97SAPC   H3Y 9590   3.209   0.629   3.392
   97SAPC   C34 9591   3.387   0.520   3.409
   97SAPC   H4X 9592   3.446   0.609   3.442
   97SAPC   H4Y 9593   3.459   0.471   3.340
   97SAPC   C35 9594   3.336   0.418   3.515
   97SAPC   H5X 9595   3.266   0.343   3.473
   97SAPC   H5Y 9596   3.284   0.468   3.600
   97SAPC   C36 9597   3.461   0.343   3.573
   97SAPC   H6X 9598   3.528   0.429   3.595
   97SAPC   H6Y 9599   3.507   0.282   3.493
   97SAPC   C37 9600   3.436   0.250   3.690
   97SAPC   H7X 9601   3.538   0.210   3.711
   97SAPC   H7Y 9602   3.385   0.155   3.662
   97SAPC   C38 9603   3.353   0.296   3.810
   97SAPC   H8X 9604   3.250   0.300   3.767
   97SAPC   H8Y 9605   3.382   0.397   3.845
   97SAPC   C39 9606   3.374   0.204   3.925
   97SAPC   H9X 9607   3.482   0.191   3.947
   97SAPC   H9Y 9608   3.337   0.103   3.897
   97SAPC  C310 9609   3.296   0.237   4.049
   97SAPC  H10X 9610   3.192   0.255   4.014
   97SAPC  H10Y 9611   3.336   0.330   4.095
   97SAPC  C311 9612   3.302   0.117   4.141
   97SAPC  H11X 9613   3.405   0.074   4.137
   97SAPC  H11Y 9614   3.216   0.055   4.106
   97SAPC  C312 9615   3.281   0.137   4.295
   97SAPC  H12X 9616   3.176   0.165   4.318
   97SAPC  H12Y 9617   3.356   0.210   4.333
   97SAPC  C313 9618   3.292   0.006   4.381
   97SAPC  H13X 9619   3.374   6.820   4.352
   97SAPC  H13Y 9620   3.201   6.825   4.369
   97SAPC  C314 9621   3.290   0.046   4.535
   97SAPC  H14X 9622   3.191   0.094   4.549
   97SAPC  H14Y 9623   3.364   0.122   4.566
   97SAPC  C315 9624   3.290   6.805   4.622
   97SAPC  H15X 9625   3.363   6.733   4.580
   97SAPC  H15Y 9626   3.186   6.768   4.608
   97SAPC  C316 9627   3.299   6.825   4.776
   97SAPC  H16X 9628   3.263   6.735   4.831
   97SAPC  H16Y 9629   3.230   0.018   4.819
   97SAPC  C317 9630   3.446   6.849   4.808
   97SAPC  H17X 9631   3.474   0.055   4.746
   97SAPC  H17Y 9632   3.504   6.758   4.782
   97SAPC  C318 9633   3.471   6.871   4.950
   97SAPC  H18X 9634   3.580   6.881   4.971
   97SAPC  H18Y 9635   3.428   6.783   5.004
   97SAPC  H18Z 9636   3.437   0.083   4.997
   98SAPC     N 9637   6.330   1.558   2.023
   98SAPC   C12 9638   6.304   1.433   2.096
   98SAPC  H12A 9639   6.319   1.447   2.202
   98SAPC  H12B 9640   6.387   1.367   2.073
   98SAPC   C13 9641   6.251   1.665   2.087
   98SAPC  H13A 9642   6.263   1.669   2.194
   98SAPC  H13B 9643   6.278   1.759   2.042
   98SAPC  H13C 9644   6.144   1.645   2.082
   98SAPC   C14 9645   6.471   1.596   2.053
   98SAPC  H14A 9646   6.504   1.689   2.007
   98SAPC  H14B 9647   6.484   1.615   2.158
   98SAPC  H14C 9648   6.541   1.519   2.023
   98SAPC   C15 9649   6.311   1.536   1.875
   98SAPC  H15A 9650   6.381   1.464   1.835
   98SAPC  H15B 9651   6.208   1.513   1.851
   98SAPC  H15C 9652   6.334   1.629   1.824
   98SAPC   C11 9653   6.172   1.351   2.078
   98SAPC  H11A 9654   6.185   1.248   2.119
   98SAPC  H11B 9655   6.163   1.331   1.969
   98SAPC     P 9656   5.994   1.388   2.264
   98SAPC   O13 9657   5.922   1.512   2.316
   98SAPC   O14 9658   5.916   1.259   2.260
   98SAPC   O12 9659   6.056   1.411   2.125
   98SAPC   O11 9660   6.120   1.370   2.357
   98SAPC    C1 9661   6.158   1.238   2.406
   98SAPC    HA 9662   6.133   1.162   2.329
   98SAPC    HB 9663   6.267   1.219   2.421
   98SAPC    C2 9664   6.076   1.195   2.537
   98SAPC    HS 9665   5.982   1.252   2.551
   98SAPC   O21 9666   6.171   1.219   2.642
   98SAPC   C21 9667   6.154   1.329   2.710
   98SAPC   O22 9668   6.089   1.424   2.676
   98SAPC   C22 9669   6.230   1.304   2.840
   98SAPC   H2R 9670   6.169   1.238   2.905
   98SAPC   H2S 9671   6.321   1.244   2.822
   98SAPC    C3 9672   6.052   1.042   2.534
   98SAPC    HX 9673   6.149   0.988   2.525
   98SAPC    HY 9674   6.002   1.020   2.437
   98SAPC   O31 9675   5.976   0.989   2.646
   98SAPC   C31 9676   5.892   0.889   2.620
   98SAPC   O32 9677   5.888   0.826   2.514
   98SAPC   C32 9678   5.789   0.862   2.736
   98SAPC   H2X 9679   5.751   0.759   2.721
   98SAPC   H2Y 9680   5.697   0.924   2.732
   98SAPC   C23 9681   6.277   1.438   2.913
   98SAPC   H3R 9682   6.192   1.508   2.927
   98SAPC   H3S 9683   6.355   1.481   2.847
   98SAPC   C24 9684   6.354   1.420   3.051
   98SAPC   H4R 9685   6.283   1.372   3.121
   98SAPC   H4S 9686   6.376   1.513   3.106
   98SAPC   C25 9687   6.477   1.331   3.029
   98SAPC   H5R 9688   6.464   1.242   2.966
   98SAPC   C26 9689   6.604   1.371   3.062
   98SAPC   H6R 9690   6.672   1.285   3.060
   98SAPC   C27 9691   6.649   1.488   3.149
   98SAPC   H7R 9692   6.651   1.437   3.248
   98SAPC   H7S 9693   6.576   1.570   3.165
   98SAPC   C28 9694   6.784   1.541   3.108
   98SAPC   H8R 9695   6.815   1.547   3.002
   98SAPC   C29 9696   6.861   1.619   3.189
   98SAPC   H9R 9697   0.074   1.656   3.149
   98SAPC  C210 9698   6.844   1.654   3.332
   98SAPC  H10R 9699   6.762   1.598   3.382
   98SAPC  H10S 9700   6.827   1.761   3.357
   98SAPC  C211 9701   0.094   1.633   3.395
   98SAPC  H11R 9702   0.180   1.591   3.341
   98SAPC  C212 9703   0.115   1.640   3.523
   98SAPC  H12R 9704   0.218   1.630   3.559
   98SAPC  C213 9705   0.009   1.683   3.621
   98SAPC  H13R 9706   6.809   1.609   3.610
   98SAPC  H13S 9707   6.854   1.785   3.598
   98SAPC  C214 9708   0.064   1.671   3.760
   98SAPC  H14R 9709   0.172   1.695   3.767
   98SAPC  C215 9710   0.014   1.616   3.870
   98SAPC  H15R 9711   0.066   1.628   3.966
   98SAPC  C216 9712   6.762   1.551   3.881
   98SAPC  H16R 9713   6.783   1.446   3.912
   98SAPC  H16S 9714   6.710   1.542   3.784
   98SAPC  C217 9715   6.666   1.618   3.982
   98SAPC  H17R 9716   6.663   1.728   3.969
   98SAPC  H17S 9717   6.713   1.602   4.081
   98SAPC  C218 9718   6.528   1.562   3.979
   98SAPC  H18R 9719   6.537   1.453   3.999
   98SAPC  H18S 9720   6.479   1.566   3.880
   98SAPC  C219 9721   6.426   1.634   4.068
   98SAPC  H19R 9722   6.326   1.597   4.037
   98SAPC  H19S 9723   6.437   1.743   4.050
   98SAPC  C220 9724   6.446   1.603   4.211
   98SAPC  H20R 9725   6.434   1.494   4.228
   98SAPC  H20S 9726   6.369   1.653   4.275
   98SAPC  H20T 9727   6.550   1.630   4.237
   98SAPC   C33 9728   5.854   0.869   2.881
   98SAPC   H3X 9729   5.903   0.967   2.896
   98SAPC   H3Y 9730   5.936   0.795   2.892
   98SAPC   C34 9731   5.744   0.864   2.984
   98SAPC   H4X 9732   5.681   0.776   2.958
   98SAPC   H4Y 9733   5.682   0.955   2.997
   98SAPC   C35 9734   5.810   0.845   3.123
   98SAPC   H5X 9735   5.740   0.863   3.208
   98SAPC   H5Y 9736   5.891   0.920   3.129
   98SAPC   C36 9737   5.885   0.709   3.140
   98SAPC   H6X 9738   5.966   0.688   3.068
   98SAPC   H6Y 9739   5.808   0.630   3.130
   98SAPC   C37 9740   5.961   0.700   3.278
   98SAPC   H7X 9741   5.962   0.793   3.339
   98SAPC   H7Y 9742   6.069   0.689   3.254
   98SAPC   C38 9743   5.932   0.568   3.351
   98SAPC   H8X 9744   5.924   0.499   3.265
   98SAPC   H8Y 9745   5.835   0.591   3.402
   98SAPC   C39 9746   6.027   0.521   3.459
   98SAPC   H9X 9747   6.124   0.491   3.414
   98SAPC   H9Y 9748   6.003   0.431   3.520
   98SAPC  C310 9749   6.047   0.630   3.568
   98SAPC  H10X 9750   5.948   0.676   3.589
   98SAPC  H10Y 9751   6.116   0.709   3.532
   98SAPC  C311 9752   6.110   0.572   3.698
   98SAPC  H11X 9753   6.209   0.526   3.678
   98SAPC  H11Y 9754   6.039   0.496   3.737
   98SAPC  C312 9755   6.119   0.673   3.809
   98SAPC  H12X 9756   6.030   0.738   3.820
   98SAPC  H12Y 9757   6.204   0.738   3.779
   98SAPC  C313 9758   6.146   0.613   3.943
   98SAPC  H13X 9759   6.207   0.520   3.941
   98SAPC  H13Y 9760   6.046   0.583   3.982
   98SAPC  C314 9761   6.197   0.715   4.040
   98SAPC  H14X 9762   6.139   0.810   4.037
   98SAPC  H14Y 9763   6.302   0.735   4.010
   98SAPC  C315 9764   6.189   0.663   4.188
   98SAPC  H15X 9765   6.242   0.566   4.188
   98SAPC  H15Y 9766   6.082   0.641   4.208
   98SAPC  C316 9767   6.231   0.763   4.296
   98SAPC  H16X 9768   6.170   0.855   4.308
   98SAPC  H16Y 9769   6.333   0.793   4.263
   98SAPC  C317 9770   6.240   0.695   4.429
   98SAPC  H17X 9771   6.324   0.733   4.491
   98SAPC  H17Y 9772   6.277   0.592   4.410
   98SAPC  C318 9773   6.102   0.695   4.502
   98SAPC  H18X 9774   6.124   0.676   4.609
   98SAPC  H18Y 9775   6.038   0.618   4.454
   98SAPC  H18Z 9776   6.058   0.797   4.495
   99SAPC     N 9777   3.604   4.772   1.616
   99SAPC   C12 9778   3.639   4.883   1.714
   99SAPC  H12A 9779   3.614   4.976   1.665
   99SAPC  H12B 9780   3.744   4.877   1.739
   99SAPC   C13 9781   3.637   4.641   1.674
   99SAPC  H13A 9782   3.604   4.562   1.608
   99SAPC  H13B 9783   3.743   4.627   1.688
   99SAPC  H13C 9784   3.588   4.622   1.768
   99SAPC   C14 9785   3.460   4.779   1.583
   99SAPC  H14A 9786   3.431   4.705   1.510
   99SAPC  H14B 9787   3.401   4.762   1.672
   99SAPC  H14C 9788   3.437   4.880   1.551
   99SAPC   C15 9789   3.690   4.790   1.494
   99SAPC  H15A 9790   3.791   4.773   1.530
   99SAPC  H15B 9791   3.675   4.709   1.425
   99SAPC  H15C 9792   3.665   4.890   1.461
   99SAPC   C11 9793   3.572   4.884   1.852
   99SAPC  H11A 9794   3.629   4.939   1.930
   99SAPC  H11B 9795   3.569   4.783   1.897
   99SAPC     P 9796   3.335   4.967   1.950
   99SAPC   O13 9797   3.299   5.109   1.940
   99SAPC   O14 9798   3.224   4.866   1.936
   99SAPC   O12 9799   3.439   4.939   1.839
   99SAPC   O11 9800   3.415   4.956   2.094
   99SAPC    C1 9801   3.385   4.848   2.181
   99SAPC    HA 9802   3.403   4.747   2.139
   99SAPC    HB 9803   3.466   4.841   2.258
   99SAPC    C2 9804   3.261   4.867   2.275
   99SAPC    HS 9805   3.173   4.867   2.208
   99SAPC   O21 9806   3.275   4.997   2.345
   99SAPC   C21 9807   3.253   5.107   2.281
   99SAPC   O22 9808   3.170   5.114   2.191
   99SAPC   C22 9809   3.334   5.217   2.344
   99SAPC   H2R 9810   3.336   5.209   2.455
   99SAPC   H2S 9811   3.441   5.201   2.320
   99SAPC    C3 9812   3.242   4.755   2.382
   99SAPC    HX 9813   3.232   4.655   2.336
   99SAPC    HY 9814   3.145   4.776   2.431
   99SAPC   O31 9815   3.347   4.755   2.476
   99SAPC   C31 9816   3.333   4.826   2.588
   99SAPC   O32 9817   3.229   4.876   2.630
   99SAPC   C32 9818   3.469   4.847   2.666
   99SAPC   H2X 9819   3.545   4.887   2.595
   99SAPC   H2Y 9820   3.504   4.747   2.698
   99SAPC   C23 9821   3.294   5.359   2.286
   99SAPC   H3R 9822   3.250   5.355   2.184
   99SAPC   H3S 9823   3.391   5.402   2.253
   99SAPC   C24 9824   3.218   5.446   2.372
   99SAPC   H4R 9825   3.210   5.540   2.314
   99SAPC   H4S 9826   3.271   5.479   2.465
   99SAPC   C25 9827   3.076   5.400   2.383
   99SAPC   H5R 9828   3.016   5.397   2.291
   99SAPC   C26 9829   3.023   5.357   2.499
   99SAPC   H6R 9830   2.913   5.350   2.499
   99SAPC   C27 9831   3.080   5.337   2.638
   99SAPC   H7R 9832   3.058   5.428   2.697
   99SAPC   H7S 9833   3.191   5.331   2.628
   99SAPC   C28 9834   3.033   5.215   2.707
   99SAPC   H8R 9835   3.022   5.127   2.641
   99SAPC   C29 9836   3.030   5.193   2.842
   99SAPC   H9R 9837   2.982   5.095   2.852
   99SAPC  C210 9838   3.060   5.283   2.952
   99SAPC  H10R 9839   3.067   5.386   2.910
   99SAPC  H10S 9840   3.165   5.262   2.984
   99SAPC  C211 9841   2.950   5.283   3.058
   99SAPC  H11R 9842   2.847   5.265   3.024
   99SAPC  C212 9843   2.970   5.254   3.188
   99SAPC  H12R 9844   2.887   5.264   3.259
   99SAPC  C213 9845   3.105   5.249   3.259
   99SAPC  H13R 9846   3.174   5.208   3.183
   99SAPC  H13S 9847   3.106   5.167   3.334
   99SAPC  C214 9848   3.155   5.379   3.309
   99SAPC  H14R 9849   3.194   5.440   3.226
   99SAPC  C215 9850   3.160   5.416   3.433
   99SAPC  H15R 9851   3.196   5.516   3.459
   99SAPC  C216 9852   3.100   5.337   3.543
   99SAPC  H16R 9853   3.161   5.341   3.635
   99SAPC  H16S 9854   3.092   5.229   3.518
   99SAPC  C217 9855   2.962   5.386   3.588
   99SAPC  H17R 9856   2.903   5.404   3.496
   99SAPC  H17S 9857   2.972   5.476   3.653
   99SAPC  C218 9858   2.881   5.278   3.667
   99SAPC  H18R 9859   2.869   5.202   3.587
   99SAPC  H18S 9860   2.784   5.313   3.707
   99SAPC  C219 9861   2.954   5.214   3.788
   99SAPC  H19R 9862   3.060   5.192   3.762
   99SAPC  H19S 9863   2.893   5.125   3.813
   99SAPC  C220 9864   2.956   5.315   3.902
   99SAPC  H20R 9865   3.046   5.378   3.885
   99SAPC  H20S 9866   2.976   5.262   3.998
   99SAPC  H20T 9867   2.870   5.385   3.908
   99SAPC   C33 9868   3.448   4.952   2.780
   99SAPC   H3X 9869   3.421   5.051   2.738
   99SAPC   H3Y 9870   3.546   4.956   2.833
   99SAPC   C34 9871   3.364   4.917   2.906
   99SAPC   H4X 9872   3.375   4.810   2.933
   99SAPC   H4Y 9873   3.256   4.936   2.893
   99SAPC   C35 9874   3.420   4.989   3.029
   99SAPC   H5X 9875   3.412   5.097   3.006
   99SAPC   H5Y 9876   3.528   4.969   3.048
   99SAPC   C36 9877   3.340   4.944   3.156
   99SAPC   H6X 9878   3.341   4.833   3.149
   99SAPC   H6Y 9879   3.233   4.974   3.153
   99SAPC   C37 9880   3.396   4.997   3.281
   99SAPC   H7X 9881   3.390   5.108   3.288
   99SAPC   H7Y 9882   3.505   4.972   3.275
   99SAPC   C38 9883   3.341   4.939   3.414
   99SAPC   H8X 9884   3.360   4.831   3.427
   99SAPC   H8Y 9885   3.230   4.941   3.408
   99SAPC   C39 9886   3.381   5.022   3.534
   99SAPC   H9X 9887   3.340   5.123   3.512
   99SAPC   H9Y 9888   3.491   5.035   3.542
   99SAPC  C310 9889   3.313   4.974   3.669
   99SAPC  H10X 9890   3.359   4.878   3.699
   99SAPC  H10Y 9891   3.203   4.968   3.655
   99SAPC  C311 9892   3.324   5.080   3.781
   99SAPC  H11X 9893   3.291   5.178   3.742
   99SAPC  H11Y 9894   3.432   5.093   3.805
   99SAPC  C312 9895   3.247   5.029   3.910
   99SAPC  H12X 9896   3.299   4.933   3.931
   99SAPC  H12Y 9897   3.141   5.012   3.881
   99SAPC  C313 9898   3.255   5.112   4.039
   99SAPC  H13X 9899   3.214   5.211   4.010
   99SAPC  H13Y 9900   3.361   5.139   4.059
   99SAPC  C314 9901   3.180   5.048   4.157
   99SAPC  H14X 9902   3.236   4.967   4.207
   99SAPC  H14Y 9903   3.089   4.997   4.120
   99SAPC  C315 9904   3.149   5.143   4.276
   99SAPC  H15X 9905   3.069   5.091   4.334
   99SAPC  H15Y 9906   3.105   5.238   4.240
   99SAPC  C316 9907   3.254   5.151   4.382
   99SAPC  H16X 9908   3.287   5.049   4.409
   99SAPC  H16Y 9909   3.217   5.205   4.472
   99SAPC  C317 9910   3.380   5.218   4.346
   99SAPC  H17X 9911   3.343   5.320   4.319
   99SAPC  H17Y 9912   3.432   5.167   4.262
   99SAPC  C318 9913   3.485   5.242   4.451
   99SAPC  H18X 9914   3.439   5.294   4.539
   99SAPC  H18Y 9915   3.568   5.306   4.415
   99SAPC  H18Z 9916   3.534   5.148   4.483
  100SAPC     N 9917   1.729   4.502   1.952
  100SAPC   C12 9918   1.586   4.560   1.968
  100SAPC  H12A 9919   1.565   4.619   1.880
  100SAPC  H12B 9920   1.589   4.627   2.053
  100SAPC   C13 9921   1.834   4.613   1.950
  100SAPC  H13A 9922   1.817   4.677   1.865
  100SAPC  H13B 9923   1.854   4.664   2.043
  100SAPC  H13C 9924   1.924   4.561   1.921
  100SAPC   C14 9925   1.767   4.412   2.069
  100SAPC  H14A 9926   1.862   4.361   2.075
  100SAPC  H14B 9927   1.761   4.473   2.158
  100SAPC  H14C 9928   1.690   4.337   2.079
  100SAPC   C15 9929   1.741   4.416   1.828
  100SAPC  H15A 9930   1.842   4.377   1.820
  100SAPC  H15B 9931   1.659   4.346   1.824
  100SAPC  H15C 9932   1.741   4.475   1.738
  100SAPC   C11 9933   1.470   4.456   1.994
  100SAPC  H11A 9934   1.378   4.517   1.982
  100SAPC  H11B 9935   1.466   4.433   2.102
  100SAPC     P 9936   1.429   4.204   1.952
  100SAPC   O13 9937   1.315   4.208   2.056
  100SAPC   O14 9938   1.412   4.119   1.833
  100SAPC   O12 9939   1.461   4.348   1.903
  100SAPC   O11 9940   1.563   4.161   2.027
  100SAPC    C1 9941   1.602   4.030   2.065
  100SAPC    HA 9942   1.516   3.979   2.112
  100SAPC    HB 9943   1.616   3.966   1.975
  100SAPC    C2 9944   1.733   4.032   2.152
  100SAPC    HS 9945   1.738   3.930   2.196
  100SAPC   O21 9946   1.723   4.130   2.254
  100SAPC   C21 9947   1.613   4.117   2.323
  100SAPC   O22 9948   1.553   4.011   2.349
  100SAPC   C22 9949   1.550   4.259   2.359
  100SAPC   H2R 9950   1.591   4.326   2.280
  100SAPC   H2S 9951   1.440   4.244   2.354
  100SAPC    C3 9952   1.864   4.046   2.071
  100SAPC    HX 9953   1.852   4.139   2.012
  100SAPC    HY 9954   1.877   3.966   1.994
  100SAPC   O31 9955   1.989   4.048   2.153
  100SAPC   C31 9956   2.055   4.156   2.166
  100SAPC   O32 9957   2.015   4.267   2.142
  100SAPC   C32 9958   2.193   4.113   2.219
  100SAPC   H2X 9959   2.245   4.194   2.275
  100SAPC   H2Y 9960   2.250   4.091   2.127
  100SAPC   C23 9961   1.581   4.300   2.504
  100SAPC   H3R 9962   1.577   4.209   2.567
  100SAPC   H3S 9963   1.507   4.376   2.539
  100SAPC   C24 9964   1.720   4.346   2.524
  100SAPC   H4R 9965   1.727   4.393   2.625
  100SAPC   H4S 9966   1.726   4.434   2.457
  100SAPC   C25 9967   1.840   4.258   2.494
  100SAPC   H5R 9968   1.849   4.244   2.386
  100SAPC   C26 9969   1.923   4.210   2.588
  100SAPC   H6R 9970   2.004   4.141   2.561
  100SAPC   C27 9971   1.913   4.221   2.740
  100SAPC   H7R 9972   1.893   4.120   2.780
  100SAPC   H7S 9973   1.814   4.261   2.768
  100SAPC   C28 9974   2.033   4.275   2.813
  100SAPC   H8R 9975   2.118   4.306   2.751
  100SAPC   C29 9976   2.047   4.300   2.945
  100SAPC   H9R 9977   2.141   4.351   2.970
  100SAPC  C210 9978   1.943   4.279   3.057
  100SAPC  H10R 9979   1.849   4.237   3.017
  100SAPC  H10S 9980   1.929   4.374   3.114
  100SAPC  C211 9981   1.987   4.169   3.153
  100SAPC  H11R 9982   2.011   4.077   3.099
  100SAPC  C212 9983   1.992   4.173   3.289
  100SAPC  H12R 9984   2.006   4.080   3.346
  100SAPC  C213 9985   1.972   4.289   3.371
  100SAPC  H13R 9986   1.998   4.381   3.314
  100SAPC  H13S 9987   2.046   4.277   3.453
  100SAPC  C214 9988   1.822   4.301   3.404
  100SAPC  H14R 9989   1.759   4.329   3.318
  100SAPC  C215 9990   1.752   4.274   3.515
  100SAPC  H15R 9991   1.645   4.295   3.521
  100SAPC  C216 9992   1.815   4.216   3.642
  100SAPC  H16R 9993   1.924   4.193   3.632
  100SAPC  H16S 9994   1.763   4.125   3.679
  100SAPC  C217 9995   1.802   4.322   3.758
  100SAPC  H17R 9996   1.854   4.418   3.739
  100SAPC  H17S 9997   1.863   4.279   3.840
  100SAPC  C218 9998   1.659   4.351   3.787
  100SAPC  H18R 9999   1.603   4.255   3.791
  100SAPC  H18S10000   1.614   4.419   3.712
  100SAPC  C21910001   1.647   4.416   3.925
  100SAPC  H19R10002   1.706   4.510   3.936
  100SAPC  H19S10003   1.690   4.341   3.994
  100SAPC  C22010004   1.508   4.440   3.972
  100SAPC  H20R10005   1.447   4.476   3.887
  100SAPC  H20S10006   1.504   4.505   4.063
  100SAPC  H20T10007   1.455   4.345   3.992
  100SAPC   C3310008   2.182   3.998   2.322
  100SAPC   H3X10009   2.156   3.901   2.275
  100SAPC   H3Y10010   2.092   4.018   2.384
  100SAPC   C3410011   2.313   3.982   2.396
  100SAPC   H4X10012   2.323   4.072   2.461
  100SAPC   H4Y10013   2.395   3.960   2.324
  100SAPC   C3510014   2.293   3.868   2.497
  100SAPC   H5X10015   2.385   3.843   2.555
  100SAPC   H5Y10016   2.267   3.777   2.440
  100SAPC   C3610017   2.188   3.902   2.613
  100SAPC   H6X10018   2.083   3.915   2.578
  100SAPC   H6Y10019   2.228   3.998   2.650
  100SAPC   C3710020   2.195   3.789   2.718
  100SAPC   H7X10021   2.302   3.758   2.722
  100SAPC   H7Y10022   2.139   3.696   2.693
  100SAPC   C3810023   2.161   3.846   2.860
  100SAPC   H8X10024   2.052   3.865   2.868
  100SAPC   H8Y10025   2.218   3.937   2.892
  100SAPC   C3910026   2.185   3.744   2.968
  100SAPC   H9X10027   2.289   3.706   2.973
  100SAPC   H9Y10028   2.130   3.648   2.960
  100SAPC  C31010029   2.143   3.799   3.110
  100SAPC  H10X10030   2.034   3.821   3.103
  100SAPC  H10Y10031   2.195   3.897   3.119
  100SAPC  C31110032   2.181   3.696   3.219
  100SAPC  H11X10033   2.290   3.686   3.240
  100SAPC  H11Y10034   2.155   3.595   3.179
  100SAPC  C31210035   2.099   3.705   3.347
  100SAPC  H12X10036   2.106   3.601   3.385
  100SAPC  H12Y10037   1.997   3.741   3.327
  100SAPC  C31310038   2.141   3.796   3.455
  100SAPC  H13X10039   2.171   3.887   3.399
  100SAPC  H13Y10040   2.233   3.757   3.503
  100SAPC  C31410041   2.033   3.817   3.562
  100SAPC  H14X10042   2.002   3.714   3.592
  100SAPC  H14Y10043   1.947   3.874   3.522
  100SAPC  C31510044   2.077   3.902   3.692
  100SAPC  H15X10045   2.090   4.008   3.661
  100SAPC  H15Y10046   2.168   3.857   3.737
  100SAPC  C31610047   1.964   3.889   3.800
  100SAPC  H16X10048   1.959   3.782   3.829
  100SAPC  H16Y10049   1.865   3.911   3.754
  100SAPC  C31710050   1.977   3.968   3.932
  100SAPC  H17X10051   1.924   3.928   4.021
  100SAPC  H17Y10052   1.925   4.064   3.912
  100SAPC  C31810053   2.120   3.975   3.981
  100SAPC  H18X10054   2.196   4.019   3.912
  100SAPC  H18Y10055   2.160   3.875   4.006
  100SAPC  H18Z10056   2.130   4.033   4.075
  101OSM      N10057   4.215   2.981   6.795
  101OSM    C1510058   4.358   3.018   6.842
  101OSM   H15A10059   4.351   3.044   6.947
  101OSM   H15B10060   4.402   3.109   6.804
  101OSM   H15C10061   4.417   2.930   6.824
  101OSM    C1410062   4.185   2.850   6.865
  101OSM   H14A10063   4.080   2.827   6.858
  101OSM   H14B10064   4.222   2.857   6.966
  101OSM   H14C10065   4.247   2.773   6.821
  101OSM    C1310066   4.124   3.085   6.851
  101OSM   H13A10067   4.024   3.050   6.829
  101OSM   H13B10068   4.139   3.183   6.807
  101OSM   H13C10069   4.130   3.080   6.959
  101OSM    C1210070   4.207   2.975   6.652
  101OSM   H12A10071   4.260   3.062   6.617
  101OSM   H12B10072   4.103   2.977   6.621
  101OSM    C1110073   4.261   2.841   6.589
  101OSM   H11A10074   4.249   2.848   6.479
  101OSM   H11B10075   4.204   2.750   6.613
  101OSM      P10076   4.473   2.689   6.635
  101OSM    O1310077   4.619   2.720   6.650
  101OSM    O1410078   4.421   2.601   6.740
  101OSM    O1110079   4.462   2.621   6.494
  101OSM    O1210080   4.401   2.826   6.630
  101OSM    C1S10081   4.482   2.686   6.365
  101OSM    H1S10082   4.585   2.685   6.324
  101OSM    H1T10083   4.449   2.792   6.367
  101OSM     NF10084   4.393   2.682   6.136
  101OSM    HNF10085   4.319   2.749   6.135
  101OSM    C2S10086   4.388   2.606   6.264
  101OSM    H2S10087   4.431   2.504   6.260
  101OSM    C3S10088   4.240   2.584   6.327
  101OSM    H3S10089   4.197   2.684   6.353
  101OSM     O310090   4.234   2.498   6.439
  101OSM    HO310091   4.323   2.504   6.476
  101OSM    C4S10092   4.155   2.516   6.224
  101OSM    H4S10093   4.189   2.419   6.186
  101OSM    C5S10094   4.043   2.571   6.173
  101OSM    H5S10095   3.989   2.663   6.199
  101OSM    C6S10096   3.958   2.504   6.066
  101OSM    H6S10097   3.854   2.477   6.095
  101OSM    H6T10098   4.010   2.414   6.026
  101OSM    C7S10099   3.947   2.606   5.946
  101OSM    H7S10100   4.049   2.630   5.910
  101OSM    H7T10101   3.904   2.700   5.988
  101OSM    C8S10102   3.865   2.549   5.833
  101OSM    H8S10103   3.766   2.512   5.867
  101OSM    H8T10104   3.914   2.467   5.777
  101OSM    C9S10105   3.834   2.671   5.736
  101OSM    H9S10106   3.918   2.726   5.688
  101OSM    H9T10107   3.779   2.747   5.795
  101OSM   C10S10108   3.734   2.619   5.623
  101OSM   H10S10109   3.632   2.660   5.638
  101OSM   H10T10110   3.722   2.510   5.633
  101OSM   C11S10111   3.769   2.657   5.477
  101OSM   H11S10112   3.869   2.614   5.451
  101OSM   H11T10113   3.785   2.766   5.472
  101OSM   C12S10114   3.667   2.618   5.375
  101OSM   H12S10115   3.565   2.619   5.419
  101OSM   H12T10116   3.692   2.514   5.346
  101OSM   C13S10117   3.683   2.709   5.252
  101OSM   H13S10118   3.776   2.770   5.253
  101OSM   H13T10119   3.605   2.787   5.247
  101OSM   C14S10120   3.657   2.626   5.123
  101OSM   H14S10121   3.582   2.549   5.150
  101OSM   H14T10122   3.752   2.573   5.102
  101OSM   C15S10123   3.598   2.711   5.010
  101OSM   H15S10124   3.650   2.809   5.007
  101OSM   H15T10125   3.491   2.734   5.029
  101OSM   C16S10126   3.590   2.645   4.871
  101OSM   H16S10127   3.515   2.702   4.812
  101OSM   H16T10128   3.562   2.538   4.882
  101OSM   C17S10129   3.732   2.664   4.804
  101OSM   H17S10130   3.812   2.620   4.868
  101OSM   H17T10131   3.733   2.775   4.807
  101OSM   C18S10132   3.747   2.609   4.669
  101OSM   H18S10133   3.753   2.499   4.665
  101OSM   H18T10134   3.843   2.640   4.621
  101OSM   H18U10135   3.657   2.640   4.612
  101OSM    C1F10136   4.494   2.691   6.048
  101OSM     OF10137   4.603   2.636   6.063
  101OSM    C2F10138   4.467   2.775   5.927
  101OSM    H2F10139   4.392   2.852   5.955
  101OSM    H2G10140   4.434   2.702   5.850
  101OSM    C3F10141   4.594   2.844   5.887
  101OSM    H3F10142   4.678   2.773   5.873
  101OSM    H3G10143   4.619   2.913   5.971
  101OSM    C4F10144   4.584   2.925   5.755
  101OSM    H4F10145   4.691   2.943   5.729
  101OSM    H4G10146   4.534   3.020   5.783
  101OSM    C5F10147   4.526   2.857   5.636
  101OSM    H5F10148   4.417   2.841   5.650
  101OSM    H5G10149   4.578   2.758   5.633
  101OSM    C6F10150   4.550   2.935   5.507
  101OSM    H6F10151   4.659   2.942   5.487
  101OSM    H6G10152   4.509   3.038   5.508
  101OSM    C7F10153   4.484   2.859   5.388
  101OSM    H7F10154   4.376   2.847   5.413
  101OSM    H7G10155   4.522   2.754   5.390
  101OSM    C8F10156   4.498   2.930   5.254
  101OSM    H8F10157   4.457   3.033   5.250
  101OSM    H8G10158   4.425   2.882   5.185
  101OSM    C9F10159   4.639   2.936   5.202
  101OSM    H9F10160   4.711   2.985   5.269
  101OSM   C10F10161   4.673   2.894   5.076
  101OSM   H10F10162   4.777   2.898   5.039
  101OSM   C11F10163   4.573   2.847   4.971
  101OSM   H11F10164   4.488   2.792   5.016
  101OSM   H11G10165   4.611   2.762   4.910
  101OSM   C12F10166   4.524   2.965   4.883
  101OSM   H12F10167   4.616   3.020   4.854
  101OSM   H12G10168   4.475   3.030   4.959
  101OSM   C13F10169   4.440   2.940   4.762
  101OSM   H13F10170   4.346   2.894   4.797
  101OSM   H13G10171   4.500   2.855   4.721
  101OSM   C14F10172   4.419   3.047   4.660
  101OSM   H14F10173   4.341   3.113   4.704
  101OSM   H14G10174   4.366   3.002   4.573
  101OSM   C15F10175   4.538   3.135   4.635
  101OSM   H15F10176   4.623   3.070   4.607
  101OSM   H15G10177   4.558   3.192   4.728
  101OSM   C16F10178   4.511   3.225   4.515
  101OSM   H16F10179   4.572   3.316   4.536
  101OSM   H16G10180   4.407   3.263   4.516
  101OSM   C17F10181   4.541   3.152   4.372
  101OSM   H17F10182   4.490   3.054   4.373
  101OSM   H17G10183   4.648   3.135   4.348
  101OSM   C18F10184   4.483   3.233   4.248
  101OSM   H18F10185   4.534   3.331   4.243
  101OSM   H18G10186   4.375   3.258   4.259
  101OSM   H18H10187   4.498   3.169   4.159
  102OSM      N10188   4.674   2.315   6.661
  102OSM    C1510189   4.728   2.418   6.764
  102OSM   H15A10190   4.833   2.443   6.759
  102OSM   H15B10191   4.694   2.384   6.860
  102OSM   H15C10192   4.670   2.506   6.742
  102OSM    C1410193   4.782   2.207   6.643
  102OSM   H14A10194   4.750   2.148   6.559
  102OSM   H14B10195   4.798   2.141   6.728
  102OSM   H14C10196   4.878   2.246   6.612
  102OSM    C1310197   4.548   2.256   6.710
  102OSM   H13A10198   4.479   2.333   6.743
  102OSM   H13B10199   4.574   2.203   6.801
  102OSM   H13C10200   4.505   2.191   6.636
  102OSM    C1210201   4.659   2.378   6.526
  102OSM   H12A10202   4.758   2.415   6.502
  102OSM   H12B10203   4.614   2.475   6.538
  102OSM    C1110204   4.594   2.297   6.410
  102OSM   H11A10205   4.601   2.353   6.314
  102OSM   H11B10206   4.486   2.296   6.435
  102OSM      P10207   4.587   2.042   6.342
  102OSM    O1310208   4.700   1.939   6.337
  102OSM    O1410209   4.476   2.026   6.442
  102OSM    O1110210   4.531   2.066   6.196
  102OSM    O1210211   4.661   2.182   6.383
  102OSM    C1S10212   4.611   2.138   6.102
  102OSM    H1S10213   4.694   2.072   6.068
  102OSM    H1T10214   4.647   2.235   6.144
  102OSM     NF10215   4.601   2.209   5.866
  102OSM    HNF10216   4.616   2.307   5.853
  102OSM    C2S10217   4.520   2.167   5.976
  102OSM    H2S10218   4.474   2.071   5.945
  102OSM    C3S10219   4.405   2.267   6.023
  102OSM    H3S10220   4.451   2.361   6.062
  102OSM     O310221   4.326   2.223   6.132
  102OSM    HO310222   4.379   2.153   6.171
  102OSM    C4S10223   4.312   2.296   5.906
  102OSM    H4S10224   4.232   2.220   5.903
  102OSM    C5S10225   4.323   2.395   5.820
  102OSM    H5S10226   4.394   2.479   5.828
  102OSM    C6S10227   4.223   2.418   5.707
  102OSM    H6S10228   4.166   2.512   5.725
  102OSM    H6T10229   4.147   2.339   5.690
  102OSM    C7S10230   4.301   2.439   5.573
  102OSM    H7S10231   4.370   2.354   5.556
  102OSM    H7T10232   4.361   2.531   5.589
  102OSM    C8S10233   4.202   2.448   5.449
  102OSM    H8S10234   4.131   2.531   5.472
  102OSM    H8T10235   4.128   2.366   5.460
  102OSM    C9S10236   4.276   2.495   5.324
  102OSM    H9S10237   4.364   2.430   5.309
  102OSM    H9T10238   4.317   2.598   5.335
  102OSM   C10S10239   4.184   2.477   5.208
  102OSM   H10S10240   4.101   2.550   5.219
  102OSM   H10T10241   4.139   2.375   5.211
  102OSM   C11S10242   4.261   2.500   5.074
  102OSM   H11S10243   4.311   2.403   5.053
  102OSM   H11T10244   4.337   2.581   5.078
  102OSM   C12S10245   4.168   2.517   4.953
  102OSM   H12S10246   4.109   2.607   4.978
  102OSM   H12T10247   4.097   2.431   4.941
  102OSM   C13S10248   4.252   2.539   4.824
  102OSM   H13S10249   4.289   2.436   4.800
  102OSM   H13T10250   4.335   2.611   4.837
  102OSM   C14S10251   4.157   2.577   4.714
  102OSM   H14S10252   4.082   2.651   4.747
  102OSM   H14T10253   4.110   2.478   4.693
  102OSM   C15S10254   4.230   2.621   4.589
  102OSM   H15S10255   4.312   2.551   4.563
  102OSM   H15T10256   4.288   2.713   4.613
  102OSM   C16S10257   4.128   2.658   4.477
  102OSM   H16S10258   4.075   2.751   4.506
  102OSM   H16T10259   4.051   2.579   4.463
  102OSM   C17S10260   4.179   2.695   4.340
  102OSM   H17S10261   4.086   2.723   4.287
  102OSM   H17T10262   4.230   2.610   4.290
  102OSM   C18S10263   4.273   2.824   4.354
  102OSM   H18S10264   4.372   2.797   4.396
  102OSM   H18T10265   4.228   2.911   4.407
  102OSM   H18U10266   4.291   2.874   4.257
  102OSM    C1F10267   4.672   2.120   5.789
  102OSM     OF10268   4.665   1.998   5.812
  102OSM    C2F10269   4.745   2.167   5.663
  102OSM    H2F10270   4.852   2.140   5.672
  102OSM    H2G10271   4.730   2.277   5.662
  102OSM    C3F10272   4.678   2.095   5.549
  102OSM    H3F10273   4.570   2.121   5.547
  102OSM    H3G10274   4.676   1.984   5.546
  102OSM    C4F10275   4.732   2.146   5.411
  102OSM    H4F10276   4.687   2.080   5.334
  102OSM    H4G10277   4.841   2.128   5.422
  102OSM    C5F10278   4.704   2.292   5.370
  102OSM    H5F10279   4.764   2.355   5.439
  102OSM    H5G10280   4.596   2.314   5.382
  102OSM    C6F10281   4.757   2.304   5.225
  102OSM    H6F10282   4.699   2.230   5.166
  102OSM    H6G10283   4.866   2.282   5.223
  102OSM    C7F10284   4.723   2.449   5.182
  102OSM    H7F10285   4.773   2.526   5.245
  102OSM    H7G10286   4.615   2.466   5.200
  102OSM    C8F10287   4.756   2.482   5.038
  102OSM    H8F10288   4.864   2.469   5.014
  102OSM    H8G10289   4.742   2.593   5.038
  102OSM    C9F10290   4.655   2.426   4.943
  102OSM    H9F10291   4.569   2.386   4.999
  102OSM   C10F10292   4.644   2.434   4.807
  102OSM   H10F10293   4.559   2.377   4.765
  102OSM   C11F10294   4.746   2.495   4.713
  102OSM   H11F10295   4.773   2.428   4.629
  102OSM   H11G10296   4.828   2.538   4.774
  102OSM   C12F10297   4.686   2.619   4.640
  102OSM   H12F10298   4.663   2.696   4.717
  102OSM   H12G10299   4.590   2.599   4.588
  102OSM   C13F10300   4.773   2.672   4.531
  102OSM   H13F10301   4.792   2.590   4.459
  102OSM   H13G10302   4.875   2.677   4.575
  102OSM   C14F10303   4.722   2.808   4.472
  102OSM   H14F10304   4.715   2.876   4.560
  102OSM   H14G10305   4.623   2.807   4.423
  102OSM   C15F10306   4.828   2.860   4.365
  102OSM   H15F10307   4.930   2.822   4.383
  102OSM   H15G10308   4.824   2.971   4.368
  102OSM   C16F10309   4.797   2.810   4.222
  102OSM   H16F10310   4.769   2.704   4.239
  102OSM   H16G10311   4.880   2.818   4.149
  102OSM   C17F10312   4.674   2.888   4.161
  102OSM   H17F10313   4.701   2.988   4.120
  102OSM   H17G10314   4.591   2.894   4.235
  102OSM   C18F10315   4.614   2.806   4.050
  102OSM   H18F10316   4.562   2.714   4.085
  102OSM   H18G10317   4.690   2.773   3.976
  102OSM   H18H10318   4.538   2.856   3.986
  103OSM      N10319   4.573   4.525   6.964
  103OSM    C1510320   4.634   4.416   6.881
  103OSM   H15A10321   4.708   4.455   6.813
  103OSM   H15B10322   4.560   4.366   6.820
  103OSM   H15C10323   4.669   4.344   6.954
  103OSM    C1410324   4.674   4.585   7.050
  103OSM   H14A10325   4.631   4.672   7.098
  103OSM   H14B10326   4.761   4.619   6.997
  103OSM   H14C10327   4.700   4.516   7.128
  103OSM    C1310328   4.528   4.638   6.869
  103OSM   H13A10329   4.608   4.677   6.808
  103OSM   H13B10330   4.470   4.717   6.913
  103OSM   H13C10331   4.462   4.592   6.796
  103OSM    C1210332   4.458   4.479   7.053
  103OSM   H12A10333   4.434   4.559   7.123
  103OSM   H12B10334   4.485   4.402   7.123
  103OSM    C1110335   4.334   4.435   6.978
  103OSM   H11A10336   4.264   4.394   7.054
  103OSM   H11B10337   4.341   4.356   6.900
  103OSM      P10338   4.184   4.554   6.797
  103OSM    O1310339   4.073   4.459   6.800
  103OSM    O1410340   4.142   4.693   6.788
  103OSM    O1110341   4.285   4.519   6.680
  103OSM    O1210342   4.275   4.556   6.922
  103OSM    C1S10343   4.286   4.385   6.626
  103OSM    H1S10344   4.194   4.325   6.641
  103OSM    H1T10345   4.358   4.329   6.689
  103OSM     NF10346   4.294   4.232   6.423
  103OSM    HNF10347   4.364   4.164   6.438
  103OSM    C2S10348   4.326   4.368   6.474
  103OSM    H2S10349   4.272   4.438   6.407
  103OSM    C3S10350   4.481   4.400   6.458
  103OSM    H3S10351   4.534   4.319   6.512
  103OSM     O310352   4.520   4.512   6.537
  103OSM    HO310353   4.453   4.531   6.602
  103OSM    C4S10354   4.537   4.386   6.318
  103OSM    H4S10355   4.551   4.285   6.279
  103OSM    C5S10356   4.568   4.482   6.231
  103OSM    H5S10357   4.561   4.591   6.247
  103OSM    C6S10358   4.630   4.447   6.101
  103OSM    H6S10359   4.642   4.338   6.085
  103OSM    H6T10360   4.729   4.498   6.093
  103OSM    C7S10361   4.558   4.504   5.987
  103OSM    H7S10362   4.540   4.613   5.998
  103OSM    H7T10363   4.468   4.441   5.971
  103OSM    C8S10364   4.646   4.482   5.860
  103OSM    H8S10365   4.676   4.376   5.868
  103OSM    H8T10366   4.743   4.535   5.848
  103OSM    C9S10367   4.575   4.507   5.723
  103OSM    H9S10368   4.534   4.610   5.731
  103OSM    H9T10369   4.485   4.442   5.719
  103OSM   C10S10370   4.666   4.496   5.603
  103OSM   H10S10371   4.689   4.387   5.600
  103OSM   H10T10372   4.756   4.558   5.618
  103OSM   C11S10373   4.600   4.550   5.467
  103OSM   H11S10374   4.554   4.647   5.496
  103OSM   H11T10375   4.515   4.483   5.444
  103OSM   C12S10376   4.694   4.571   5.353
  103OSM   H12S10377   4.706   4.468   5.313
  103OSM   H12T10378   4.794   4.605   5.389
  103OSM   C13S10379   4.658   4.675   5.244
  103OSM   H13S10380   4.658   4.764   5.310
  103OSM   H13T10381   4.556   4.658   5.204
  103OSM   C14S10382   4.768   4.695   5.135
  103OSM   H14S10383   4.865   4.707   5.188
  103OSM   H14T10384   4.744   4.789   5.081
  103OSM   C15S10385   4.771   4.583   5.024
  103OSM   H15S10386   4.671   4.569   4.979
  103OSM   H15T10387   4.787   4.486   5.075
  103OSM   C16S10388   4.876   4.614   4.911
  103OSM   H16S10389   4.973   4.633   4.962
  103OSM   H16T10390   4.840   4.710   4.870
  103OSM   C17S10391   4.878   4.511   4.798
  103OSM   H17S10392   4.782   4.519   4.744
  103OSM   H17T10393   4.900   4.405   4.825
  103OSM   C18S10394   4.990   4.548   4.696
  103OSM   H18S10395   5.091   4.537   4.741
  103OSM   H18T10396   4.977   4.651   4.656
  103OSM   H18U10397   4.979   4.468   4.619
  103OSM    C1F10398   4.163   4.202   6.391
  103OSM     OF10399   4.076   4.284   6.397
  103OSM    C2F10400   4.126   4.066   6.341
  103OSM    H2F10401   4.021   4.074   6.305
  103OSM    H2G10402   4.138   3.996   6.426
  103OSM    C3F10403   4.222   4.023   6.226
  103OSM    H3F10404   4.212   3.914   6.204
  103OSM    H3G10405   4.323   4.033   6.272
  103OSM    C4F10406   4.215   4.120   6.110
  103OSM    H4F10407   4.292   4.199   6.117
  103OSM    H4G10408   4.120   4.177   6.109
  103OSM    C5F10409   4.240   4.048   5.973
  103OSM    H5F10410   4.146   3.994   5.947
  103OSM    H5G10411   4.330   3.987   5.991
  103OSM    C6F10412   4.289   4.142   5.860
  103OSM    H6F10413   4.374   4.201   5.901
  103OSM    H6G10414   4.216   4.224   5.843
  103OSM    C7F10415   4.309   4.073   5.727
  103OSM    H7F10416   4.210   4.038   5.691
  103OSM    H7G10417   4.365   3.979   5.750
  103OSM    C8F10418   4.369   4.160   5.619
  103OSM    H8F10419   4.479   4.160   5.631
  103OSM    H8G10420   4.330   4.264   5.624
  103OSM    C9F10421   4.360   4.090   5.487
  103OSM    H9F10422   4.381   3.983   5.498
  103OSM   C10F10423   4.312   4.146   5.375
  103OSM   H10F10424   4.314   4.085   5.284
  103OSM   C11F10425   4.266   4.290   5.350
  103OSM   H11F10426   4.258   4.354   5.440
  103OSM   H11G10427   4.165   4.297   5.304
  103OSM   C12F10428   4.367   4.370   5.256
  103OSM   H12F10429   4.473   4.349   5.282
  103OSM   H12G10430   4.367   4.476   5.287
  103OSM   C13F10431   4.337   4.362   5.107
  103OSM   H13F10432   4.237   4.402   5.083
  103OSM   H13G10433   4.333   4.254   5.082
  103OSM   C14F10434   4.437   4.430   5.012
  103OSM   H14F10435   4.530   4.370   5.026
  103OSM   H14G10436   4.448   4.538   5.033
  103OSM   C15F10437   4.387   4.418   4.863
  103OSM   H15F10438   4.293   4.476   4.857
  103OSM   H15G10439   4.374   4.313   4.827
  103OSM   C16F10440   4.490   4.475   4.759
  103OSM   H16F10441   4.583   4.413   4.758
  103OSM   H16G10442   4.520   4.576   4.792
  103OSM   C17F10443   4.428   4.478   4.618
  103OSM   H17F10444   4.400   4.374   4.592
  103OSM   H17G10445   4.513   4.513   4.555
  103OSM   C18F10446   4.310   4.567   4.576
  103OSM   H18F10447   4.211   4.528   4.606
  103OSM   H18G10448   4.310   4.569   4.465
  103OSM   H18H10449   4.323   4.672   4.609
  104OSM      N10450   5.256   3.583   6.771
  104OSM    C1510451   5.162   3.653   6.674
  104OSM   H15A10452   5.150   3.588   6.589
  104OSM   H15B10453   5.196   3.751   6.644
  104OSM   H15C10454   5.062   3.674   6.709
  104OSM    C1410455   5.281   3.673   6.889
  104OSM   H14A10456   5.194   3.688   6.950
  104OSM   H14B10457   5.314   3.772   6.862
  104OSM   H14C10458   5.356   3.629   6.953
  104OSM    C1310459   5.190   3.463   6.828
  104OSM   H13A10460   5.265   3.410   6.884
  104OSM   H13B10461   5.139   3.393   6.763
  104OSM   H13C10462   5.122   3.502   6.902
  104OSM    C1210463   5.385   3.549   6.713
  104OSM   H12A10464   5.433   3.634   6.668
  104OSM   H12B10465   5.357   3.484   6.631
  104OSM    C1110466   5.499   3.491   6.797
  104OSM   H11A10467   5.521   3.552   6.888
  104OSM   H11B10468   5.589   3.481   6.732
  104OSM      P10469   5.545   3.265   6.913
  104OSM    O1310470   5.656   3.332   6.982
  104OSM    O1410471   5.462   3.172   7.000
  104OSM    O1110472   5.600   3.168   6.799
  104OSM    O1210473   5.452   3.364   6.839
  104OSM    C1S10474   5.542   3.173   6.672
  104OSM    H1S10475   5.584   3.255   6.610
  104OSM    H1T10476   5.432   3.184   6.685
  104OSM     NF10477   5.508   3.064   6.444
  104OSM    HNF10478   5.422   3.014   6.433
  104OSM    C2S10479   5.568   3.049   6.582
  104OSM    H2S10480   5.678   3.051   6.566
  104OSM    C3S10481   5.544   2.906   6.641
  104OSM    H3S10482   5.436   2.887   6.660
  104OSM     O310483   5.590   2.893   6.776
  104OSM    HO310484   5.622   2.981   6.799
  104OSM    C4S10485   5.593   2.791   6.561
  104OSM    H4S10486   5.523   2.764   6.481
  104OSM    C5S10487   5.712   2.726   6.567
  104OSM    H5S10488   5.776   2.750   6.654
  104OSM    C6S10489   5.763   2.629   6.462
  104OSM    H6S10490   5.691   2.593   6.385
  104OSM    H6T10491   5.789   2.546   6.530
  104OSM    C7S10492   5.891   2.670   6.403
  104OSM    H7S10493   5.973   2.670   6.478
  104OSM    H7T10494   5.881   2.765   6.348
  104OSM    C8S10495   5.934   2.553   6.313
  104OSM    H8S10496   5.855   2.540   6.236
  104OSM    H8T10497   5.948   2.459   6.370
  104OSM    C9S10498   6.073   2.576   6.249
  104OSM    H9S10499   6.113   2.479   6.211
  104OSM    H9T10500   6.144   2.616   6.324
  104OSM   C10S10501   6.064   2.673   6.121
  104OSM   H10S10502   6.023   2.773   6.143
  104OSM   H10T10503   5.995   2.630   6.045
  104OSM   C11S10504   6.204   2.692   6.049
  104OSM   H11S10505   6.226   2.590   6.011
  104OSM   H11T10506   6.288   2.715   6.119
  104OSM   C12S10507   6.197   2.794   5.940
  104OSM   H12S10508   6.292   2.833   5.896
  104OSM   H12T10509   6.142   2.884   5.972
  104OSM   C13S10510   6.124   2.733   5.820
  104OSM   H13S10511   6.041   2.673   5.862
  104OSM   H13T10512   6.191   2.661   5.767
  104OSM   C14S10513   6.084   2.831   5.707
  104OSM   H14S10514   6.173   2.889   5.675
  104OSM   H14T10515   6.009   2.903   5.745
  104OSM   C15S10516   6.004   2.758   5.591
  104OSM   H15S10517   5.911   2.705   5.621
  104OSM   H15T10518   6.055   2.676   5.536
  104OSM   C16S10519   5.968   2.848   5.478
  104OSM   H16S10520   6.061   2.895   5.438
  104OSM   H16T10521   5.910   2.933   5.519
  104OSM   C17S10522   5.890   2.774   5.364
  104OSM   H17S10523   5.785   2.771   5.399
  104OSM   H17T10524   5.926   2.672   5.341
  104OSM   C18S10525   5.884   2.852   5.230
  104OSM   H18S10526   5.976   2.836   5.170
  104OSM   H18T10527   5.866   2.961   5.246
  104OSM   H18U10528   5.792   2.822   5.176
  104OSM    C1F10529   5.547   3.151   6.354
  104OSM     OF10530   5.653   3.206   6.372
  104OSM    C2F10531   5.455   3.188   6.246
  104OSM    H2F10532   5.377   3.262   6.275
  104OSM    H2G10533   5.407   3.093   6.216
  104OSM    C3F10534   5.526   3.248   6.123
  104OSM    H3F10535   5.595   3.165   6.096
  104OSM    H3G10536   5.583   3.337   6.157
  104OSM    C4F10537   5.444   3.306   6.003
  104OSM    H4F10538   5.392   3.399   6.034
  104OSM    H4G10539   5.372   3.226   5.975
  104OSM    C5F10540   5.546   3.341   5.894
  104OSM    H5F10541   5.625   3.264   5.886
  104OSM    H5G10542   5.598   3.432   5.931
  104OSM    C6F10543   5.492   3.374   5.755
  104OSM    H6F10544   5.575   3.412   5.692
  104OSM    H6G10545   5.421   3.457   5.776
  104OSM    C7F10546   5.430   3.259   5.667
  104OSM    H7F10547   5.361   3.208   5.736
  104OSM    H7G10548   5.513   3.192   5.633
  104OSM    C8F10549   5.362   3.312   5.539
  104OSM    H8F10550   5.330   3.228   5.474
  104OSM    H8G10551   5.439   3.361   5.476
  104OSM    C9F10552   5.239   3.405   5.546
  104OSM    H9F10553   5.172   3.379   5.629
  104OSM   C10F10554   5.220   3.520   5.486
  104OSM   H10F10555   5.128   3.570   5.521
  104OSM   C11F10556   5.307   3.582   5.373
  104OSM   H11F10557   5.392   3.516   5.347
  104OSM   H11G10558   5.361   3.672   5.407
  104OSM   C12F10559   5.231   3.610   5.238
  104OSM   H12F10560   5.140   3.672   5.254
  104OSM   H12G10561   5.202   3.509   5.201
  104OSM   C13F10562   5.317   3.690   5.129
  104OSM   H13F10563   5.408   3.640   5.090
  104OSM   H13G10564   5.345   3.782   5.183
  104OSM   C14F10565   5.237   3.725   4.994
  104OSM   H14F10566   5.144   3.772   5.032
  104OSM   H14G10567   5.204   3.631   4.945
  104OSM   C15F10568   5.291   3.822   4.888
  104OSM   H15F10569   5.308   3.924   4.931
  104OSM   H15G10570   5.225   3.834   4.800
  104OSM   C16F10571   5.439   3.780   4.844
  104OSM   H16F10572   5.431   3.678   4.800
  104OSM   H16G10573   5.507   3.772   4.931
  104OSM   C17F10574   5.499   3.881   4.749
  104OSM   H17F10575   5.603   3.858   4.721
  104OSM   H17G10576   5.497   3.984   4.791
  104OSM   C18F10577   5.430   3.883   4.611
  104OSM   H18F10578   5.326   3.922   4.613
  104OSM   H18G10579   5.423   3.777   4.578
  104OSM   H18H10580   5.486   3.944   4.536
  105OSM      N10581   6.474   4.064   6.905
  105OSM    C1510582   6.391   3.978   6.998
  105OSM   H15A10583   6.289   4.013   7.006
  105OSM   H15B10584   6.431   3.976   7.098
  105OSM   H15C10585   6.393   3.881   6.950
  105OSM    C1410586   6.500   4.197   6.963
  105OSM   H14A10587   6.553   4.189   7.057
  105OSM   H14B10588   6.409   4.252   6.983
  105OSM   H14C10589   6.554   4.258   6.892
  105OSM    C1310590   6.604   3.992   6.894
  105OSM   H13A10591   6.670   4.040   6.822
  105OSM   H13B10592   6.587   3.895   6.851
  105OSM   H13C10593   6.660   3.988   6.986
  105OSM    C1210594   6.403   4.076   6.771
  105OSM   H12A10595   6.394   3.981   6.721
  105OSM   H12B10596   6.468   4.142   6.715
  105OSM    C1110597   6.262   4.142   6.764
  105OSM   H11A10598   6.242   4.162   6.657
  105OSM   H11B10599   6.259   4.237   6.821
  105OSM      P10600   6.078   3.943   6.737
  105OSM    O1310601   6.114   3.801   6.756
  105OSM    O1410602   5.944   3.974   6.783
  105OSM    O1110603   6.103   3.980   6.588
  105OSM    O1210604   6.176   4.041   6.816
  105OSM    C1S10605   6.190   3.896   6.508
  105OSM    H1S10606   6.161   3.791   6.526
  105OSM    H1T10607   6.297   3.898   6.537
  105OSM     NF10608   6.269   3.852   6.283
  105OSM    HNF10609   6.353   3.901   6.259
  105OSM    C2S10610   6.178   3.932   6.357
  105OSM    H2S10611   6.072   3.906   6.335
  105OSM    C3S10612   6.182   4.085   6.328
  105OSM    H3S10613   6.281   4.130   6.352
  105OSM     O310614   6.082   4.161   6.398
  105OSM    HO310615   6.054   4.092   6.459
  105OSM    C4S10616   6.178   4.120   6.181
  105OSM    H4S10617   6.260   4.076   6.123
  105OSM    C5S10618   6.087   4.190   6.115
  105OSM    H5S10619   5.997   4.225   6.167
  105OSM    C6S10620   6.085   4.217   5.962
  105OSM    H6S10621   6.070   4.325   5.942
  105OSM    H6T10622   5.999   4.164   5.916
  105OSM    C7S10623   6.216   4.184   5.881
  105OSM    H7S10624   6.217   4.074   5.865
  105OSM    H7T10625   6.302   4.214   5.944
  105OSM    C8S10626   6.226   4.248   5.739
  105OSM    H8S10627   6.289   4.174   5.685
  105OSM    H8T10628   6.277   4.347   5.735
  105OSM    C9S10629   6.093   4.246   5.660
  105OSM    H9S10630   6.037   4.338   5.685
  105OSM    H9T10631   6.041   4.150   5.684
  105OSM   C10S10632   6.105   4.243   5.508
  105OSM   H10S10633   6.005   4.231   5.462
  105OSM   H10T10634   6.176   4.159   5.488
  105OSM   C11S10635   6.177   4.370   5.447
  105OSM   H11S10636   6.286   4.361   5.465
  105OSM   H11T10637   6.132   4.454   5.503
  105OSM   C12S10638   6.159   4.386   5.295
  105OSM   H12S10639   6.196   4.482   5.251
  105OSM   H12T10640   6.049   4.385   5.278
  105OSM   C13S10641   6.226   4.267   5.218
  105OSM   H13S10642   6.228   4.174   5.279
  105OSM   H13T10643   6.332   4.297   5.205
  105OSM   C14S10644   6.168   4.239   5.081
  105OSM   H14S10645   6.112   4.333   5.064
  105OSM   H14T10646   6.081   4.171   5.095
  105OSM   C15S10647   6.261   4.208   4.969
  105OSM   H15S10648   6.289   4.103   4.992
  105OSM   H15T10649   6.345   4.277   4.944
  105OSM   C16S10650   6.187   4.183   4.839
  105OSM   H16S10651   6.152   4.278   4.794
  105OSM   H16T10652   6.089   4.137   4.862
  105OSM   C17S10653   6.269   4.107   4.733
  105OSM   H17S10654   6.290   4.001   4.759
  105OSM   H17T10655   6.368   4.157   4.724
  105OSM   C18S10656   6.201   4.102   4.592
  105OSM   H18S10657   6.272   4.054   4.520
  105OSM   H18T10658   6.153   4.199   4.570
  105OSM   H18U10659   6.113   4.036   4.611
  105OSM    C1F10660   6.260   3.724   6.264
  105OSM     OF10661   6.156   3.666   6.300
  105OSM    C2F10662   6.368   3.647   6.183
  105OSM    H2F10663   6.411   3.583   6.263
  105OSM    H2G10664   6.446   3.707   6.134
  105OSM    C3F10665   6.309   3.553   6.083
  105OSM    H3F10666   6.230   3.493   6.133
  105OSM    H3G10667   6.392   3.480   6.072
  105OSM    C4F10668   6.256   3.604   5.950
  105OSM    H4F10669   6.163   3.664   5.950
  105OSM    H4G10670   6.220   3.521   5.886
  105OSM    C5F10671   6.363   3.689   5.878
  105OSM    H5F10672   6.451   3.624   5.862
  105OSM    H5G10673   6.388   3.778   5.940
  105OSM    C6F10674   6.302   3.741   5.748
  105OSM    H6F10675   6.207   3.797   5.758
  105OSM    H6G10676   6.267   3.653   5.689
  105OSM    C7F10677   6.398   3.809   5.652
  105OSM    H7F10678   6.483   3.738   5.637
  105OSM    H7G10679   6.426   3.908   5.694
  105OSM    C8F10680   6.327   3.833   5.522
  105OSM    H8F10681   6.239   3.899   5.541
  105OSM    H8G10682   6.286   3.739   5.480
  105OSM    C9F10683   6.414   3.901   5.416
  105OSM    H9F10684   6.414   4.011   5.415
  105OSM   C10F10685   6.483   3.839   5.323
  105OSM   H10F10686   6.547   3.908   5.266
  105OSM   C11F10687   6.488   3.686   5.308
  105OSM   H11F10688   6.398   3.659   5.250
  105OSM   H11G10689   6.494   3.644   5.411
  105OSM   C12F10690   6.613   3.638   5.234
  105OSM   H12F10691   6.633   3.530   5.253
  105OSM   H12G10692   6.705   3.686   5.274
  105OSM   C13F10693   6.607   3.659   5.081
  105OSM   H13F10694   6.701   3.624   5.035
  105OSM   H13G10695   6.576   3.762   5.053
  105OSM   C14F10696   6.502   3.566   5.011
  105OSM   H14F10697   6.411   3.571   5.075
  105OSM   H14G10698   6.518   3.457   5.022
  105OSM   C15F10699   6.470   3.621   4.865
  105OSM   H15F10700   6.564   3.621   4.806
  105OSM   H15G10701   6.428   3.724   4.867
  105OSM   C16F10702   6.378   3.516   4.799
  105OSM   H16F10703   6.300   3.486   4.872
  105OSM   H16G10704   6.437   3.424   4.781
  105OSM   C17F10705   6.314   3.570   4.674
  105OSM   H17F10706   6.254   3.660   4.697
  105OSM   H17G10707   6.247   3.501   4.617
  105OSM   C18F10708   6.403   3.627   4.563
  105OSM   H18F10709   6.448   3.544   4.504
  105OSM   H18G10710   6.486   3.686   4.606
  105OSM   H18H10711   6.344   3.694   4.497
  106OSM      N10712   4.246   1.758   6.550
  106OSM    C1510713   4.344   1.689   6.631
  106OSM   H15A10714   4.432   1.750   6.648
  106OSM   H15B10715   4.377   1.598   6.583
  106OSM   H15C10716   4.305   1.656   6.726
  106OSM    C1410717   4.118   1.688   6.556
  106OSM   H14A10718   4.077   1.692   6.656
  106OSM   H14B10719   4.112   1.585   6.525
  106OSM   H14C10720   4.047   1.735   6.489
  106OSM    C1310721   4.223   1.903   6.608
  106OSM   H13A10722   4.317   1.956   6.596
  106OSM   H13B10723   4.181   1.902   6.707
  106OSM   H13C10724   4.151   1.946   6.541
  106OSM    C1210725   4.297   1.776   6.413
  106OSM   H12A10726   4.391   1.828   6.421
  106OSM   H12B10727   4.219   1.830   6.361
  106OSM    C1110728   4.331   1.651   6.325
  106OSM   H11A10729   4.317   1.666   6.216
  106OSM   H11B10730   4.257   1.572   6.348
  106OSM      P10731   4.522   1.474   6.284
  106OSM    O1310732   4.661   1.461   6.331
  106OSM    O1410733   4.432   1.355   6.282
  106OSM    O1110734   4.526   1.514   6.133
  106OSM    O1210735   4.458   1.597   6.357
  106OSM    C1S10736   4.621   1.607   6.076
  106OSM    H1S10737   4.721   1.564   6.097
  106OSM    H1T10738   4.610   1.699   6.138
  106OSM     NF10739   4.708   1.719   5.872
  106OSM    HNF10740   4.697   1.816   5.850
  106OSM    C2S10741   4.594   1.637   5.923
  106OSM    H2S10742   4.605   1.539   5.871
  106OSM    C3S10743   4.457   1.692   5.887
  106OSM    H3S10744   4.443   1.798   5.915
  106OSM     O310745   4.358   1.617   5.964
  106OSM    HO310746   4.408   1.569   6.030
  106OSM    C4S10747   4.427   1.683   5.738
  106OSM    H4S10748   4.365   1.594   5.718
  106OSM    C5S10749   4.476   1.768   5.648
  106OSM    H5S10750   4.530   1.860   5.675
  106OSM    C6S10751   4.478   1.741   5.497
  106OSM    H6S10752   4.460   1.837   5.444
  106OSM    H6T10753   4.399   1.665   5.478
  106OSM    C7S10754   4.614   1.684   5.455
  106OSM    H7S10755   4.632   1.595   5.519
  106OSM    H7T10756   4.698   1.753   5.478
  106OSM    C8S10757   4.626   1.649   5.307
  106OSM    H8S10758   4.524   1.623   5.274
  106OSM    H8T10759   4.690   1.560   5.292
  106OSM    C9S10760   4.677   1.776   5.235
  106OSM    H9S10761   4.781   1.792   5.269
  106OSM    H9T10762   4.625   1.869   5.266
  106OSM   C10S10763   4.670   1.756   5.083
  106OSM   H10S10764   4.577   1.800   5.040
  106OSM   H10T10765   4.669   1.646   5.067
  106OSM   C11S10766   4.786   1.834   5.019
  106OSM   H11S10767   4.880   1.806   5.072
  106OSM   H11T10768   4.765   1.941   5.040
  106OSM   C12S10769   4.794   1.826   4.869
  106OSM   H12S10770   4.703   1.876   4.830
  106OSM   H12T10771   4.792   1.717   4.848
  106OSM   C13S10772   4.914   1.896   4.808
  106OSM   H13S10773   4.997   1.900   4.881
  106OSM   H13T10774   4.886   2.001   4.783
  106OSM   C14S10775   4.963   1.831   4.676
  106OSM   H14S10776   4.960   1.721   4.691
  106OSM   H14T10777   5.069   1.861   4.668
  106OSM   C15S10778   4.891   1.874   4.551
  106OSM   H15S10779   4.857   1.979   4.561
  106OSM   H15T10780   4.806   1.804   4.534
  106OSM   C16S10781   4.981   1.851   4.424
  106OSM   H16S10782   4.915   1.842   4.335
  106OSM   H16T10783   5.031   1.752   4.435
  106OSM   C17S10784   5.080   1.963   4.405
  106OSM   H17S10785   5.157   1.966   4.485
  106OSM   H17T10786   5.022   2.059   4.405
  106OSM   C18S10787   5.159   1.941   4.272
  106OSM   H18S10788   5.237   2.018   4.257
  106OSM   H18T10789   5.090   1.936   4.185
  106OSM   H18U10790   5.201   1.838   4.275
  106OSM    C1F10791   4.833   1.671   5.860
  106OSM     OF10792   4.852   1.551   5.872
  106OSM    C2F10793   4.941   1.772   5.833
  106OSM    H2F10794   5.031   1.729   5.882
  106OSM    H2G10795   4.924   1.872   5.880
  106OSM    C3F10796   4.971   1.795   5.680
  106OSM    H3F10797   4.881   1.845   5.639
  106OSM    H3G10798   4.987   1.700   5.626
  106OSM    C4F10799   5.093   1.894   5.681
  106OSM    H4F10800   5.172   1.855   5.749
  106OSM    H4G10801   5.077   1.998   5.719
  106OSM    C5F10802   5.160   1.899   5.536
  106OSM    H5F10803   5.185   1.795   5.504
  106OSM    H5G10804   5.254   1.958   5.543
  106OSM    C6F10805   5.066   1.964   5.440
  106OSM    H6F10806   4.992   2.035   5.483
  106OSM    H6G10807   5.000   1.879   5.409
  106OSM    C7F10808   5.132   2.027   5.311
  106OSM    H7F10809   5.178   2.124   5.338
  106OSM    H7G10810   5.051   2.054   5.241
  106OSM    C8F10811   5.235   1.936   5.231
  106OSM    H8F10812   5.202   1.830   5.218
  106OSM    H8G10813   5.325   1.937   5.296
  106OSM    C9F10814   5.256   1.992   5.096
  106OSM    H9F10815   5.246   2.101   5.088
  106OSM   C10F10816   5.299   1.928   4.982
  106OSM   H10F10817   5.316   1.986   4.891
  106OSM   C11F10818   5.317   1.775   4.968
  106OSM   H11F10819   5.221   1.737   4.925
  106OSM   H11G10820   5.337   1.714   5.058
  106OSM   C12F10821   5.423   1.738   4.865
  106OSM   H12F10822   5.446   1.629   4.870
  106OSM   H12G10823   5.525   1.773   4.890
  106OSM   C13F10824   5.386   1.780   4.718
  106OSM   H13F10825   5.392   1.890   4.727
  106OSM   H13G10826   5.280   1.758   4.694
  106OSM   C14F10827   5.494   1.737   4.613
  106OSM   H14F10828   5.498   1.627   4.608
  106OSM   H14G10829   5.591   1.781   4.646
  106OSM   C15F10830   5.462   1.798   4.470
  106OSM   H15F10831   5.458   1.909   4.480
  106OSM   H15G10832   5.363   1.758   4.439
  106OSM   C16F10833   5.572   1.765   4.372
  106OSM   H16F10834   5.589   1.657   4.358
  106OSM   H16G10835   5.663   1.804   4.422
  106OSM   C17F10836   5.555   1.837   4.240
  106OSM   H17F10837   5.562   1.948   4.248
  106OSM   H17G10838   5.448   1.822   4.213
  106OSM   C18F10839   5.648   1.790   4.132
  106OSM   H18F10840   5.635   1.848   4.039
  106OSM   H18G10841   5.636   1.682   4.110
  106OSM   H18H10842   5.756   1.801   4.159
  107OSM      N10843   3.290   0.173   6.467
  107OSM    C1510844   3.288   0.041   6.393
  107OSM   H15A10845   3.297   0.069   6.289
  107OSM   H15B10846   3.192   6.877   6.402
  107OSM   H15C10847   3.364   6.854   6.426
  107OSM    C1410848   3.177   0.258   6.419
  107OSM   H14A10849   3.204   0.302   6.324
  107OSM   H14B10850   3.154   0.335   6.491
  107OSM   H14C10851   3.094   0.189   6.413
  107OSM    C1310852   3.265   0.153   6.609
  107OSM   H13A10853   3.342   0.085   6.642
  107OSM   H13B10854   3.166   0.121   6.637
  107OSM   H13C10855   3.283   0.245   6.663
  107OSM    C1210856   3.426   0.246   6.450
  107OSM   H12A10857   3.416   0.353   6.463
  107OSM   H12B10858   3.455   0.242   6.346
  107OSM    C1110859   3.554   0.187   6.516
  107OSM   H11A10860   3.543   0.191   6.627
  107OSM   H11B10861   3.636   0.257   6.490
  107OSM      P10862   3.623   6.827   6.553
  107OSM    O1310863   3.747   6.859   6.629
  107OSM    O1410864   3.518   6.771   6.640
  107OSM    O1110865   3.652   6.717   6.444
  107OSM    O1210866   3.575   0.061   6.462
  107OSM    C1S10867   3.539   6.665   6.372
  107OSM    H1S10868   3.541   6.725   6.279
  107OSM    H1T10869   3.446   6.674   6.432
  107OSM     NF10870   3.469   6.477   6.236
  107OSM    HNF10871   3.405   6.412   6.276
  107OSM    C2S10872   3.573   6.527   6.318
  107OSM    H2S10873   3.666   6.538   6.259
  107OSM    C3S10874   3.605   6.429   6.432
  107OSM    H3S10875   3.517   6.433   6.498
  107OSM     O310876   3.712   6.472   6.513
  107OSM    HO310877   3.716   6.566   6.493
  107OSM    C4S10878   3.645   6.294   6.379
  107OSM    H4S10879   3.733   6.300   6.315
  107OSM    C5S10880   3.596   6.174   6.404
  107OSM    H5S10881   3.507   6.165   6.468
  107OSM    C6S10882   3.656   6.047   6.341
  107OSM    H6S10883   3.711   5.986   6.417
  107OSM    H6T10884   3.733   6.067   6.264
  107OSM    C7S10885   3.545   5.956   6.284
  107OSM    H7S10886   3.478   5.933   6.369
  107OSM    H7T10887   3.596   5.863   6.252
  107OSM    C8S10888   3.466   6.018   6.172
  107OSM    H8S10889   3.413   6.111   6.205
  107OSM    H8T10890   3.392   5.941   6.142
  107OSM    C9S10891   3.539   6.047   6.043
  107OSM    H9S10892   3.582   5.952   6.004
  107OSM    H9T10893   3.618   6.121   6.068
  107OSM   C10S10894   3.447   6.096   5.935
  107OSM   H10S10895   3.378   6.174   5.972
  107OSM   H10T10896   3.385   6.016   5.889
  107OSM   C11S10897   3.533   6.166   5.822
  107OSM   H11S10898   3.593   6.239   5.882
  107OSM   H11T10899   3.448   6.199   5.759
  107OSM   C12S10900   3.617   6.063   5.740
  107OSM   H12S10901   3.543   5.999   5.687
  107OSM   H12T10902   3.672   5.997   5.809
  107OSM   C13S10903   3.707   6.127   5.642
  107OSM   H13S10904   3.798   6.071   5.613
  107OSM   H13T10905   3.747   6.219   5.690
  107OSM   C14S10906   3.628   6.179   5.518
  107OSM   H14S10907   3.555   6.250   5.564
  107OSM   H14T10908   3.577   6.097   5.463
  107OSM   C15S10909   3.728   6.237   5.411
  107OSM   H15S10910   3.805   6.164   5.376
  107OSM   H15T10911   3.792   6.316   5.455
  107OSM   C16S10912   3.657   6.306   5.293
  107OSM   H16S10913   3.582   6.241   5.242
  107OSM   H16T10914   3.735   6.334   5.220
  107OSM   C17S10915   3.565   6.429   5.334
  107OSM   H17S10916   3.631   6.508   5.375
  107OSM   H17T10917   3.494   6.397   5.412
  107OSM   C18S10918   3.493   6.500   5.213
  107OSM   H18S10919   3.573   6.550   5.154
  107OSM   H18T10920   3.428   6.576   5.260
  107OSM   H18U10921   3.432   6.426   5.156
  107OSM    C1F10922   3.434   6.525   6.123
  107OSM     OF10923   3.509   6.599   6.065
  107OSM    C2F10924   3.304   6.483   6.073
  107OSM    H2F10925   3.227   6.506   6.149
  107OSM    H2G10926   3.299   6.377   6.042
  107OSM    C3F10927   3.264   6.563   5.942
  107OSM    H3F10928   3.337   6.541   5.861
  107OSM    H3G10929   3.260   6.671   5.967
  107OSM    C4F10930   3.127   6.523   5.883
  107OSM    H4F10931   3.047   6.532   5.960
  107OSM    H4G10932   3.151   6.418   5.857
  107OSM    C5F10933   3.086   6.595   5.752
  107OSM    H5F10934   3.053   6.698   5.777
  107OSM    H5G10935   3.008   6.536   5.700
  107OSM    C6F10936   3.196   6.609   5.638
  107OSM    H6F10937   3.282   6.668   5.675
  107OSM    H6G10938   3.148   6.668   5.557
  107OSM    C7F10939   3.241   6.470   5.584
  107OSM    H7F10940   3.249   6.408   5.676
  107OSM    H7G10941   3.342   6.483   5.541
  107OSM    C8F10942   3.133   6.416   5.486
  107OSM    H8F10943   3.099   6.488   5.409
  107OSM    H8G10944   3.040   6.399   5.545
  107OSM    C9F10945   3.179   6.283   5.418
  107OSM    H9F10946   3.285   6.258   5.438
  107OSM   C10F10947   3.104   6.188   5.357
  107OSM   H10F10948   3.154   6.104   5.306
  107OSM   C11F10949   2.952   6.188   5.324
  107OSM   H11F10950   2.900   6.265   5.386
  107OSM   H11G10951   2.905   6.091   5.349
  107OSM   C12F10952   2.925   6.202   5.170
  107OSM   H12F10953   2.825   6.154   5.156
  107OSM   H12G10954   2.989   6.140   5.103
  107OSM   C13F10955   2.915   6.349   5.121
  107OSM   H13F10956   2.872   6.416   5.198
  107OSM   H13G10957   2.855   6.345   5.027
  107OSM   C14F10958   3.060   6.398   5.083
  107OSM   H14F10959   3.110   6.315   5.028
  107OSM   H14G10960   3.111   6.400   5.181
  107OSM   C15F10961   3.083   6.531   5.011
  107OSM   H15F10962   3.191   6.554   5.023
  107OSM   H15G10963   3.021   6.608   5.061
  107OSM   C16F10964   3.039   6.513   4.858
  107OSM   H16F10965   3.055   6.605   4.798
  107OSM   H16G10966   2.931   6.489   4.846
  107OSM   C17F10967   3.131   6.404   4.791
  107OSM   H17F10968   3.070   6.313   4.805
  107OSM   H17G10969   3.230   6.409   4.842
  107OSM   C18F10970   3.162   6.427   4.640
  107OSM   H18F10971   3.195   6.335   4.586
  107OSM   H18G10972   3.249   6.496   4.643
  107OSM   H18H10973   3.074   6.471   4.590
  108OSM      N10974   6.808   5.778   7.079
  108OSM    C1510975   6.706   5.694   7.154
  108OSM   H15A10976   6.634   5.661   7.081
  108OSM   H15B10977   6.657   5.754   7.230
  108OSM   H15C10978   6.735   5.600   7.199
  108OSM    C1410979   0.012   5.853   7.179
  108OSM   H14A10980   0.071   5.926   7.125
  108OSM   H14B10981   0.069   5.785   7.241
  108OSM   H14C10982   6.820   5.901   7.240
  108OSM    C1310983   0.014   5.684   7.000
  108OSM   H13A10984   0.088   5.732   6.937
  108OSM   H13B10985   6.834   5.631   6.930
  108OSM   H13C10986   0.057   5.600   7.052
  108OSM    C1210987   6.747   5.880   6.985
  108OSM   H12A10988   6.674   5.943   7.034
  108OSM   H12B10989   6.699   5.821   6.908
  108OSM    C1110990   6.854   5.977   6.917
  108OSM   H11A10991   0.040   6.009   6.998
  108OSM   H11B10992   6.805   6.065   6.870
  108OSM      P10993   0.154   5.976   6.722
  108OSM    O1310994   0.160   6.120   6.763
  108OSM    O1410995   0.283   5.900   6.727
  108OSM    O1110996   0.095   5.955   6.587
  108OSM    O1210997   0.053   5.906   6.820
  108OSM    C1S10998   6.835   5.929   6.570
  108OSM    H1S10999   6.773   6.012   6.611
  108OSM    H1T11000   6.798   5.836   6.617
  108OSM     NF11001   6.640   5.937   6.395
  108OSM    HNF11002   6.589   5.865   6.349
  108OSM    C2S11003   6.782   5.910   6.415
  108OSM    H2S11004   6.833   5.993   6.361
  108OSM    C3S11005   6.831   5.773   6.361
  108OSM    H3S11006   6.764   5.700   6.410
  108OSM     O311007   0.082   5.737   6.404
  108OSM    HO311008   0.117   5.808   6.459
  108OSM    C4S11009   6.816   5.767   6.211
  108OSM    H4S11010   6.712   5.756   6.179
  108OSM    C5S11011   0.028   5.774   6.110
  108OSM    H5S11012   0.134   5.788   6.135
  108OSM    C6S11013   6.862   5.781   5.971
  108OSM    H6S11014   6.827   5.679   5.944
  108OSM    H6T11015   0.058   5.824   5.905
  108OSM    C7S11016   6.742   5.885   5.946
  108OSM    H7S11017   6.779   5.984   5.980
  108OSM    H7T11018   6.659   5.851   6.011
  108OSM    C8S11019   6.697   5.892   5.798
  108OSM    H8S11020   6.783   5.912   5.731
  108OSM    H8T11021   6.624   5.976   5.798
  108OSM    C9S11022   6.626   5.764   5.754
  108OSM    H9S11023   6.533   5.757   5.815
  108OSM    H9T11024   6.695   5.679   5.767
  108OSM   C10S11025   6.578   5.770   5.610
  108OSM   H10S11026   6.661   5.808   5.547
  108OSM   H10T11027   6.496   5.843   5.592
  108OSM   C11S11028   6.543   5.632   5.555
  108OSM   H11S11029   6.486   5.574   5.631
  108OSM   H11T11030   6.636   5.572   5.548
  108OSM   C12S11031   6.470   5.621   5.427
  108OSM   H12S11032   6.521   5.679   5.348
  108OSM   H12T11033   6.379   5.683   5.440
  108OSM   C13S11034   6.457   5.479   5.379
  108OSM   H13S11035   6.428   5.418   5.468
  108OSM   H13T11036   6.556   5.460   5.333
  108OSM   C14S11037   6.348   5.476   5.275
  108OSM   H14S11038   6.383   5.539   5.190
  108OSM   H14T11039   6.252   5.519   5.312
  108OSM   C15S11040   6.336   5.334   5.216
  108OSM   H15S11041   6.283   5.268   5.289
  108OSM   H15T11042   6.432   5.283   5.191
  108OSM   C16S11043   6.256   5.332   5.084
  108OSM   H16S11044   6.320   5.385   5.009
  108OSM   H16T11045   6.162   5.389   5.096
  108OSM   C17S11046   6.209   5.192   5.041
  108OSM   H17S11047   6.293   5.122   5.062
  108OSM   H17T11048   6.189   5.190   4.932
  108OSM   C18S11049   6.076   5.146   5.109
  108OSM   H18S11050   6.038   5.043   5.095
  108OSM   H18T11051   5.991   5.211   5.079
  108OSM   H18U11052   6.094   5.156   5.218
  108OSM    C1F11053   6.581   6.055   6.422
  108OSM     OF11054   6.643   6.156   6.453
  108OSM    C2F11055   6.432   6.067   6.413
  108OSM    H2F11056   6.397   6.101   6.513
  108OSM    H2G11057   6.385   5.967   6.401
  108OSM    C3F11058   6.385   6.162   6.304
  108OSM    H3F11059   6.432   6.263   6.305
  108OSM    H3G11060   6.276   6.175   6.323
  108OSM    C4F11061   6.407   6.098   6.165
  108OSM    H4F11062   6.345   6.006   6.161
  108OSM    H4G11063   6.514   6.072   6.150
  108OSM    C5F11064   6.371   6.194   6.049
  108OSM    H5F11065   6.437   6.281   6.030
  108OSM    H5G11066   6.267   6.233   6.059
  108OSM    C6F11067   6.395   6.121   5.914
  108OSM    H6F11068   6.319   6.040   5.915
  108OSM    H6G11069   6.499   6.084   5.917
  108OSM    C7F11070   6.362   6.210   5.789
  108OSM    H7F11071   6.422   6.302   5.806
  108OSM    H7G11072   6.253   6.233   5.792
  108OSM    C8F11073   6.397   6.137   5.662
  108OSM    H8F11074   6.447   6.040   5.680
  108OSM    H8G11075   6.478   6.194   5.611
  108OSM    C9F11076   6.275   6.105   5.576
  108OSM    H9F11077   6.186   6.061   5.623
  108OSM   C10F11078   6.267   6.132   5.446
  108OSM   H10F11079   6.174   6.096   5.401
  108OSM   C11F11080   6.379   6.194   5.364
  108OSM   H11F11081   6.475   6.199   5.421
  108OSM   H11G11082   6.337   6.290   5.326
  108OSM   C12F11083   6.407   6.110   5.246
  108OSM   H12F11084   6.468   6.171   5.176
  108OSM   H12G11085   6.319   6.092   5.180
  108OSM   C13F11086   6.480   5.971   5.261
  108OSM   H13F11087   6.432   5.901   5.332
  108OSM   H13G11088   6.574   5.989   5.317
  108OSM   C14F11089   6.500   5.895   5.135
  108OSM   H14F11090   6.554   5.804   5.167
  108OSM   H14G11091   6.561   5.947   5.058
  108OSM   C15F11092   6.369   5.852   5.065
  108OSM   H15F11093   6.315   5.944   5.035
  108OSM   H15G11094   6.301   5.807   5.141
  108OSM   C16F11095   6.389   5.751   4.950
  108OSM   H16F11096   6.468   5.681   4.984
  108OSM   H16G11097   6.415   5.801   4.854
  108OSM   C17F11098   6.247   5.689   4.927
  108OSM   H17F11099   6.167   5.763   4.907
  108OSM   H17G11100   6.220   5.635   5.020
  108OSM   C18F11101   6.257   5.594   4.808
  108OSM   H18F11102   6.274   5.652   4.715
  108OSM   H18G11103   6.168   5.528   4.808
  108OSM   H18H11104   6.349   5.535   4.827
  109OSM      N11105   2.999   3.187   6.617
  109OSM    C1511106   3.116   3.148   6.529
  109OSM   H15A11107   3.113   3.217   6.446
  109OSM   H15B11108   3.111   3.049   6.486
  109OSM   H15C11109   3.207   3.151   6.588
  109OSM    C1411110   3.036   3.301   6.708
  109OSM   H14A11111   3.068   3.380   6.641
  109OSM   H14B11112   3.113   3.274   6.778
  109OSM   H14C11113   2.953   3.344   6.761
  109OSM    C1311114   2.894   3.241   6.521
  109OSM   H13A11115   2.877   3.165   6.445
  109OSM   H13B11116   2.928   3.330   6.471
  109OSM   H13C11117   2.805   3.272   6.574
  109OSM    C1211118   2.939   3.055   6.679
  109OSM   H12A11119   2.940   2.975   6.607
  109OSM   H12B11120   2.838   3.080   6.709
  109OSM    C1111121   3.025   3.004   6.796
  109OSM   H11A11122   3.034   3.079   6.878
  109OSM   H11B11123   3.126   2.986   6.753
  109OSM      P11124   2.979   2.750   6.771
  109OSM    O1311125   3.125   2.708   6.786
  109OSM    O1411126   2.874   2.658   6.813
  109OSM    O1111127   2.969   2.792   6.622
  109OSM    O1211128   2.957   2.892   6.844
  109OSM    C1S11129   2.965   2.691   6.516
  109OSM    H1S11130   2.860   2.679   6.480
  109OSM    H1T11131   2.992   2.589   6.551
  109OSM     NF11132   3.031   2.613   6.287
  109OSM    HNF11133   3.104   2.547   6.266
  109OSM    C2S11134   3.051   2.723   6.383
  109OSM    H2S11135   3.004   2.815   6.343
  109OSM    C3S11136   3.199   2.747   6.416
  109OSM    H3S11137   3.244   2.656   6.461
  109OSM     O311138   3.218   2.846   6.517
  109OSM    HO311139   3.130   2.849   6.554
  109OSM    C4S11140   3.265   2.778   6.289
  109OSM    H4S11141   3.223   2.870   6.244
  109OSM    C5S11142   3.361   2.708   6.228
  109OSM    H5S11143   3.400   2.616   6.273
  109OSM    C6S11144   3.436   2.755   6.106
  109OSM    H6S11145   3.530   2.810   6.126
  109OSM    H6T11146   3.372   2.805   6.030
  109OSM    C7S11147   3.471   2.627   6.020
  109OSM    H7S11148   3.509   2.548   6.088
  109OSM    H7T11149   3.554   2.652   5.950
  109OSM    C8S11150   3.359   2.574   5.925
  109OSM    H8S11151   3.324   2.655   5.858
  109OSM    H8T11152   3.277   2.528   5.983
  109OSM    C9S11153   3.402   2.465   5.833
  109OSM    H9S11154   3.429   2.373   5.889
  109OSM    H9T11155   3.505   2.498   5.808
  109OSM   C10S11156   3.324   2.443   5.702
  109OSM   H10S11157   3.298   2.543   5.661
  109OSM   H10T11158   3.225   2.398   5.726
  109OSM   C11S11159   3.390   2.353   5.601
  109OSM   H11S11160   3.419   2.249   5.627
  109OSM   H11T11161   3.490   2.396   5.577
  109OSM   C12S11162   3.320   2.350   5.466
  109OSM   H12S11163   3.282   2.452   5.441
  109OSM   H12T11164   3.238   2.276   5.469
  109OSM   C13S11165   3.413   2.312   5.346
  109OSM   H13S11166   3.472   2.218   5.352
  109OSM   H13T11167   3.490   2.390   5.328
  109OSM   C14S11168   3.332   2.303   5.217
  109OSM   H14S11169   3.287   2.401   5.192
  109OSM   H14T11170   3.248   2.232   5.232
  109OSM   C15S11171   3.412   2.265   5.096
  109OSM   H15S11172   3.468   2.169   5.096
  109OSM   H15T11173   3.492   2.342   5.092
  109OSM   C16S11174   3.328   2.257   4.969
  109OSM   H16S11175   3.268   2.349   4.950
  109OSM   H16T11176   3.270   2.163   4.975
  109OSM   C17S11177   3.414   2.240   4.842
  109OSM   H17S11178   3.484   2.154   4.854
  109OSM   H17T11179   3.474   2.332   4.826
  109OSM   C18S11180   3.339   2.201   4.716
  109OSM   H18S11181   3.415   2.197   4.635
  109OSM   H18T11182   3.268   2.284   4.697
  109OSM   H18U11183   3.280   2.109   4.739
  109OSM    C1F11184   2.911   2.604   6.224
  109OSM     OF11185   2.820   2.678   6.251
  109OSM    C2F11186   2.881   2.494   6.124
  109OSM    H2F11187   2.771   2.489   6.111
  109OSM    H2G11188   2.901   2.402   6.184
  109OSM    C3F11189   2.967   2.486   6.001
  109OSM    H3F11190   3.072   2.456   6.021
  109OSM    H3G11191   2.965   2.581   5.942
  109OSM    C4F11192   2.916   2.380   5.907
  109OSM    H4F11193   2.808   2.359   5.924
  109OSM    H4G11194   2.983   2.293   5.926
  109OSM    C5F11195   2.939   2.422   5.763
  109OSM    H5F11196   3.044   2.455   5.749
  109OSM    H5G11197   2.885   2.518   5.744
  109OSM    C6F11198   2.912   2.312   5.654
  109OSM    H6F11199   2.820   2.255   5.680
  109OSM    H6G11200   2.994   2.236   5.650
  109OSM    C7F11201   2.883   2.384   5.515
  109OSM    H7F11202   2.978   2.430   5.480
  109OSM    H7G11203   2.818   2.469   5.543
  109OSM    C8F11204   2.820   2.280   5.414
  109OSM    H8F11205   2.716   2.263   5.449
  109OSM    H8G11206   2.883   2.188   5.408
  109OSM    C9F11207   2.813   2.349   5.281
  109OSM    H9F11208   2.745   2.436   5.280
  109OSM   C10F11209   2.867   2.307   5.162
  109OSM   H10F11210   2.856   2.367   5.071
  109OSM   C11F11211   2.941   2.182   5.149
  109OSM   H11F11212   2.872   2.095   5.154
  109OSM   H11G11213   3.020   2.167   5.226
  109OSM   C12F11214   2.985   2.183   5.002
  109OSM   H12F11215   3.056   2.098   4.990
  109OSM   H12G11216   3.059   2.265   4.986
  109OSM   C13F11217   2.881   2.180   4.888
  109OSM   H13F11218   2.822   2.274   4.896
  109OSM   H13G11219   2.811   2.096   4.909
  109OSM   C14F11220   2.953   2.175   4.751
  109OSM   H14F11221   3.003   2.076   4.735
  109OSM   H14G11222   3.034   2.251   4.759
  109OSM   C15F11223   2.857   2.204   4.629
  109OSM   H15F11224   2.812   2.306   4.632
  109OSM   H15G11225   2.775   2.129   4.627
  109OSM   C16F11226   2.935   2.193   4.494
  109OSM   H16F11227   2.962   2.086   4.482
  109OSM   H16G11228   3.023   2.261   4.496
  109OSM   C17F11229   2.850   2.236   4.371
  109OSM   H17F11230   2.756   2.176   4.368
  109OSM   H17G11231   2.915   2.211   4.284
  109OSM   C18F11232   2.806   2.385   4.366
  109OSM   H18F11233   2.752   2.400   4.271
  109OSM   H18G11234   2.895   2.451   4.361
  109OSM   H18H11235   2.741   2.404   4.454
  110OSM      N11236   4.943   6.314   7.023
  110OSM    C1511237   5.085   6.304   7.059
  110OSM   H15A11238   5.088   6.294   7.166
  110OSM   H15B11239   5.137   6.398   7.045
  110OSM   H15C11240   5.142   6.220   7.023
  110OSM    C1411241   4.876   6.190   7.076
  110OSM   H14A11242   4.769   6.204   7.085
  110OSM   H14B11243   4.898   6.159   7.177
  110OSM   H14C11244   4.897   6.105   7.013
  110OSM    C1311245   4.890   6.435   7.097
  110OSM   H13A11246   4.788   6.459   7.071
  110OSM   H13B11247   4.953   6.521   7.082
  110OSM   H13C11248   4.896   6.419   7.204
  110OSM    C1211249   4.925   6.322   6.874
  110OSM   H12A11250   4.974   6.409   6.832
  110OSM   H12B11251   4.823   6.352   6.857
  110OSM    C1111252   4.968   6.199   6.789
  110OSM   H11A11253   4.932   6.221   6.686
  110OSM   H11B11254   4.933   6.104   6.834
  110OSM      P11255   5.199   6.079   6.729
  110OSM    O1311256   5.339   6.119   6.746
  110OSM    O1411257   5.159   5.948   6.782
  110OSM    O1111258   5.164   6.090   6.574
  110OSM    O1211259   5.111   6.195   6.787
  110OSM    C1S11260   5.156   6.221   6.513
  110OSM    H1S11261   5.257   6.266   6.526
  110OSM    H1T11262   5.081   6.290   6.557
  110OSM     NF11263   5.175   6.341   6.289
  110OSM    HNF11264   5.104   6.408   6.267
  110OSM    C2S11265   5.130   6.216   6.355
  110OSM    H2S11266   5.198   6.136   6.321
  110OSM    C3S11267   4.985   6.169   6.332
  110OSM    H3S11268   4.915   6.249   6.365
  110OSM     O311269   4.963   6.044   6.403
  110OSM    HO311270   5.043   6.032   6.455
  110OSM    C4S11271   4.955   6.138   6.185
  110OSM    H4S11272   5.009   6.049   6.148
  110OSM    C5S11273   4.881   6.212   6.094
  110OSM    H5S11274   4.840   6.307   6.132
  110OSM    C6S11275   4.853   6.191   5.953
  110OSM    H6S11276   4.761   6.243   5.919
  110OSM    H6T11277   4.843   6.084   5.922
  110OSM    C7S11278   4.969   6.247   5.868
  110OSM    H7S11279   4.950   6.248   5.758
  110OSM    H7T11280   5.059   6.182   5.874
  110OSM    C8S11281   5.009   6.390   5.909
  110OSM    H8S11282   5.071   6.390   6.001
  110OSM    H8T11283   4.920   6.452   5.931
  110OSM    C9S11284   5.095   6.459   5.805
  110OSM    H9S11285   5.036   6.442   5.712
  110OSM    H9T11286   5.195   6.413   5.801
  110OSM   C10S11287   5.105   6.605   5.835
  110OSM   H10S11288   5.167   6.630   5.924
  110OSM   H10T11289   5.005   6.649   5.857
  110OSM   C11S11290   5.160   6.686   5.718
  110OSM   H11S11291   5.260   6.653   5.684
  110OSM   H11T11292   5.171   6.791   5.751
  110OSM   C12S11293   5.065   6.696   5.596
  110OSM   H12S11294   4.960   6.711   5.629
  110OSM   H12T11295   5.071   6.597   5.546
  110OSM   C13S11296   5.111   6.812   5.505
  110OSM   H13S11297   5.216   6.794   5.476
  110OSM   H13T11298   5.109   0.018   5.572
  110OSM   C14S11299   5.022   6.836   5.386
  110OSM   H14S11300   4.916   6.858   5.411
  110OSM   H14T11301   5.007   6.744   5.325
  110OSM   C15S11302   5.066   0.077   5.305
  110OSM   H15S11303   5.165   0.066   5.256
  110OSM   H15T11304   5.078   0.155   5.382
  110OSM   C16S11305   4.970   0.114   5.189
  110OSM   H16S11306   4.874   0.125   5.244
  110OSM   H16T11307   4.962   0.027   5.120
  110OSM   C17S11308   5.039   0.238   5.127
  110OSM   H17S11309   5.140   0.218   5.086
  110OSM   H17T11310   5.053   0.312   5.208
  110OSM   C18S11311   4.968   0.295   5.003
  110OSM   H18S11312   5.004   0.232   4.919
  110OSM   H18T11313   5.000   0.400   4.991
  110OSM   H18U11314   4.858   0.301   5.014
  110OSM    C1F11315   5.307   6.356   6.258
  110OSM     OF11316   5.382   6.272   6.299
  110OSM    C2F11317   5.352   6.467   6.172
  110OSM    H2F11318   5.353   6.562   6.230
  110OSM    H2G11319   5.277   6.480   6.091
  110OSM    C3F11320   5.493   6.437   6.113
  110OSM    H3F11321   5.493   6.344   6.052
  110OSM    H3G11322   5.567   6.427   6.195
  110OSM    C4F11323   5.550   6.546   6.022
  110OSM    H4F11324   5.659   6.536   6.003
  110OSM    H4G11325   5.539   6.643   6.075
  110OSM    C5F11326   5.476   6.554   5.895
  110OSM    H5F11327   5.366   6.560   5.905
  110OSM    H5G11328   5.500   6.455   5.850
  110OSM    C6F11329   5.522   6.645   5.779
  110OSM    H6F11330   5.487   6.599   5.684
  110OSM    H6G11331   5.632   6.630   5.776
  110OSM    C7F11332   5.497   6.803   5.789
  110OSM    H7F11333   5.582   6.857   5.836
  110OSM    H7G11334   5.407   6.812   5.854
  110OSM    C8F11335   5.473   6.863   5.649
  110OSM    H8F11336   5.436   0.085   5.657
  110OSM    H8G11337   5.389   6.809   5.602
  110OSM    C9F11338   5.604   6.864   5.571
  110OSM    H9F11339   5.692   6.844   5.634
  110OSM   C10F11340   5.617   6.867   5.437
  110OSM   H10F11341   5.716   6.850   5.392
  110OSM   C11F11342   5.503   0.017   5.345
  110OSM   H11F11343   5.494   0.124   5.317
  110OSM   H11G11344   5.404   6.860   5.375
  110OSM   C12F11345   5.525   6.826   5.210
  110OSM   H12F11346   5.515   6.718   5.233
  110OSM   H12G11347   5.627   6.856   5.180
  110OSM   C13F11348   5.426   6.872   5.099
  110OSM   H13F11349   5.421   0.101   5.096
  110OSM   H13G11350   5.323   6.841   5.127
  110OSM   C14F11351   5.466   6.821   4.954
  110OSM   H14F11352   5.464   6.710   4.962
  110OSM   H14G11353   5.558   6.877   4.928
  110OSM   C15F11354   5.358   6.858   4.849
  110OSM   H15F11355   5.401   6.833   4.750
  110OSM   H15G11356   5.333   0.083   4.859
  110OSM   C16F11357   5.232   6.773   4.863
  110OSM   H16F11358   5.175   6.799   4.955
  110OSM   H16G11359   5.266   6.668   4.852
  110OSM   C17F11360   5.135   6.801   4.750
  110OSM   H17F11361   5.085   0.017   4.762
  110OSM   H17G11362   5.054   6.729   4.775
  110OSM   C18F11363   5.179   6.774   4.604
  110OSM   H18F11364   5.222   6.672   4.596
  110OSM   H18G11365   5.258   6.843   4.567
  110OSM   H18H11366   5.102   6.782   4.525
  111OSM      N11367   1.478   3.739   6.550
  111OSM    C1511368   1.608   3.675   6.587
  111OSM   H15A11369   1.683   3.677   6.510
  111OSM   H15B11370   1.600   3.569   6.605
  111OSM   H15C11371   1.642   3.727   6.676
  111OSM    C1411372   1.502   3.878   6.514
  111OSM   H14A11373   1.574   3.918   6.584
  111OSM   H14B11374   1.414   3.940   6.523
  111OSM   H14C11375   1.541   3.888   6.414
  111OSM    C1311376   1.417   3.665   6.435
  111OSM   H13A11377   1.469   3.690   6.344
  111OSM   H13B11378   1.313   3.692   6.426
  111OSM   H13C11379   1.422   3.559   6.455
  111OSM    C1211380   1.388   3.741   6.671
  111OSM   H12A11381   1.437   3.765   6.765
  111OSM   H12B11382   1.367   3.636   6.690
  111OSM    C1111383   1.244   3.807   6.663
  111OSM   H11A11384   1.183   3.769   6.748
  111OSM   H11B11385   1.194   3.763   6.574
  111OSM      P11386   1.263   4.041   6.775
  111OSM    O1311387   1.141   4.037   6.858
  111OSM    O1411388   1.387   3.999   6.843
  111OSM    O1111389   1.286   4.194   6.722
  111OSM    O1211390   1.244   3.953   6.647
  111OSM    C1S11391   1.292   4.216   6.581
  111OSM    H1S11392   1.320   4.128   6.520
  111OSM    H1T11393   1.374   4.290   6.568
  111OSM     NF11394   1.174   4.313   6.393
  111OSM    HNF11395   1.176   4.409   6.365
  111OSM    C2S11396   1.154   4.285   6.533
  111OSM    H2S11397   1.066   4.219   6.549
  111OSM    C3S11398   1.108   4.411   6.614
  111OSM    H3S11399   1.187   4.488   6.615
  111OSM     O311400   1.073   4.391   6.749
  111OSM    HO311401   1.114   4.308   6.774
  111OSM    C4S11402   0.986   4.478   6.551
  111OSM    H4S11403   1.000   4.580   6.511
  111OSM    C5S11404   0.863   4.427   6.545
  111OSM    H5S11405   0.855   4.325   6.588
  111OSM    C6S11406   0.741   4.486   6.472
  111OSM    H6S11407   0.732   4.597   6.476
  111OSM    H6T11408   0.653   4.453   6.532
  111OSM    C7S11409   0.726   4.443   6.325
  111OSM    H7S11410   0.621   4.461   6.293
  111OSM    H7T11411   0.754   4.335   6.322
  111OSM    C8S11412   0.823   4.511   6.227
  111OSM    H8S11413   0.926   4.483   6.256
  111OSM    H8T11414   0.806   4.619   6.248
  111OSM    C9S11415   0.800   4.472   6.083
  111OSM    H9S11416   0.694   4.473   6.050
  111OSM    H9T11417   0.821   4.363   6.085
  111OSM   C10S11418   0.883   4.550   5.981
  111OSM   H10S11419   0.991   4.531   6.001
  111OSM   H10T11420   0.872   4.655   6.015
  111OSM   C11S11421   0.853   4.512   5.834
  111OSM   H11S11422   0.856   4.401   5.840
  111OSM   H11T11423   0.947   4.537   5.780
  111OSM   C12S11424   0.728   4.572   5.774
  111OSM   H12S11425   0.732   4.681   5.792
  111OSM   H12T11426   0.644   4.537   5.837
  111OSM   C13S11427   0.711   4.540   5.624
  111OSM   H13S11428   0.604   4.564   5.603
  111OSM   H13T11429   0.747   4.436   5.607
  111OSM   C14S11430   0.808   4.630   5.542
  111OSM   H14S11431   0.913   4.603   5.565
  111OSM   H14T11432   0.796   4.736   5.574
  111OSM   C15S11433   0.780   4.624   5.394
  111OSM   H15S11434   0.805   4.725   5.356
  111OSM   H15T11435   0.671   4.607   5.378
  111OSM   C16S11436   0.880   4.532   5.312
  111OSM   H16S11437   0.863   4.427   5.343
  111OSM   H16T11438   0.985   4.560   5.337
  111OSM   C17S11439   0.862   4.545   5.159
  111OSM   H17S11440   0.947   4.497   5.107
  111OSM   H17T11441   0.868   4.656   5.157
  111OSM   C18S11442   0.726   4.484   5.106
  111OSM   H18S11443   0.637   4.542   5.142
  111OSM   H18T11444   0.721   4.381   5.146
  111OSM   H18U11445   0.735   4.497   4.996
  111OSM    C1F11446   1.178   4.216   6.301
  111OSM     OF11447   1.146   4.105   6.336
  111OSM    C2F11448   1.206   4.258   6.161
  111OSM    H2F11449   1.307   4.303   6.149
  111OSM    H2G11450   1.130   4.336   6.136
  111OSM    C3F11451   1.185   4.139   6.063
  111OSM    H3F11452   1.079   4.107   6.075
  111OSM    H3G11453   1.263   4.063   6.086
  111OSM    C4F11454   1.194   4.191   5.917
  111OSM    H4F11455   1.280   4.258   5.896
  111OSM    H4G11456   1.106   4.255   5.897
  111OSM    C5F11457   1.183   4.080   5.809
  111OSM    H5F11458   1.086   4.028   5.796
  111OSM    H5G11459   1.257   4.001   5.836
  111OSM    C6F11460   1.222   4.138   5.677
  111OSM    H6F11461   1.307   4.207   5.692
  111OSM    H6G11462   1.136   4.202   5.646
  111OSM    C7F11463   1.243   4.038   5.565
  111OSM    H7F11464   1.170   3.954   5.564
  111OSM    H7G11465   1.342   3.991   5.583
  111OSM    C8F11466   1.275   4.110   5.430
  111OSM    H8F11467   1.319   4.037   5.359
  111OSM    H8G11468   1.352   4.190   5.445
  111OSM    C9F11469   1.155   4.179   5.379
  111OSM    H9F11470   1.082   4.217   5.453
  111OSM   C10F11471   1.127   4.198   5.246
  111OSM   H10F11472   1.030   4.249   5.236
  111OSM   C11F11473   1.224   4.169   5.130
  111OSM   H11F11474   1.213   4.064   5.097
  111OSM   H11G11475   1.329   4.170   5.167
  111OSM   C12F11476   1.233   4.267   5.014
  111OSM   H12F11477   1.268   4.367   5.045
  111OSM   H12G11478   1.130   4.282   4.974
  111OSM   C13F11479   1.324   4.222   4.900
  111OSM   H13F11480   1.306   4.117   4.869
  111OSM   H13G11481   1.425   4.226   4.947
  111OSM   C14F11482   1.321   4.312   4.779
  111OSM   H14F11483   1.350   4.416   4.806
  111OSM   H14G11484   1.217   4.305   4.739
  111OSM   C15F11485   1.410   4.259   4.657
  111OSM   H15F11486   1.447   4.161   4.694
  111OSM   H15G11487   1.495   4.329   4.648
  111OSM   C16F11488   1.341   4.227   4.525
  111OSM   H16F11489   1.260   4.152   4.543
  111OSM   H16G11490   1.415   4.176   4.459
  111OSM   C17F11491   1.280   4.352   4.454
  111OSM   H17F11492   1.359   4.429   4.439
  111OSM   H17G11493   1.199   4.387   4.522
  111OSM   C18F11494   1.231   4.335   4.312
  111OSM   H18F11495   1.156   4.253   4.303
  111OSM   H18G11496   1.312   4.302   4.244
  111OSM   H18H11497   1.196   4.433   4.272
  112OSM      N11498   3.776   1.338   6.764
  112OSM    C1511499   3.698   1.224   6.709
  112OSM   H15A11500   3.704   1.132   6.766
  112OSM   H15B11501   3.740   1.199   6.613
  112OSM   H15C11502   3.593   1.245   6.698
  112OSM    C1411503   3.708   1.376   6.894
  112OSM   H14A11504   3.713   1.284   6.950
  112OSM   H14B11505   3.610   1.419   6.882
  112OSM   H14C11506   3.759   1.454   6.950
  112OSM    C1311507   3.916   1.307   6.811
  112OSM   H13A11508   3.923   1.212   6.863
  112OSM   H13B11509   3.966   1.389   6.860
  112OSM   H13C11510   3.972   1.289   6.721
  112OSM    C1211511   3.779   1.454   6.668
  112OSM   H12A11512   3.822   1.543   6.711
  112OSM   H12B11513   3.674   1.472   6.654
  112OSM    C1111514   3.843   1.446   6.529
  112OSM   H11A11515   3.952   1.433   6.545
  112OSM   H11B11516   3.835   1.537   6.467
  112OSM      P11517   3.660   1.350   6.366
  112OSM    O1311518   3.628   1.209   6.331
  112OSM    O1411519   3.552   1.428   6.430
  112OSM    O1111520   3.702   1.431   6.239
  112OSM    O1211521   3.789   1.337   6.461
  112OSM    C1S11522   3.824   1.391   6.179
  112OSM    H1S11523   3.809   1.298   6.121
  112OSM    H1T11524   3.901   1.360   6.253
  112OSM     NF11525   3.998   1.432   6.027
  112OSM    HNF11526   4.082   1.437   6.080
  112OSM    C2S11527   3.879   1.499   6.086
  112OSM    H2S11528   3.812   1.528   6.003
  112OSM    C3S11529   3.915   1.627   6.164
  112OSM    H3S11530   3.991   1.606   6.242
  112OSM     O311531   3.813   1.672   6.253
  112OSM    HO311532   3.757   1.594   6.258
  112OSM    C4S11533   3.951   1.735   6.074
  112OSM    H4S11534   3.869   1.791   6.026
  112OSM    C5S11535   4.076   1.779   6.054
  112OSM    H5S11536   4.158   1.743   6.119
  112OSM    C6S11537   4.117   1.901   5.977
  112OSM    H6S11538   4.216   1.922   6.022
  112OSM    H6T11539   4.052   1.990   5.991
  112OSM    C7S11540   4.133   1.861   5.825
  112OSM    H7S11541   4.031   1.850   5.784
  112OSM    H7T11542   4.192   1.767   5.814
  112OSM    C8S11543   4.196   1.969   5.739
  112OSM    H8S11544   4.305   1.966   5.758
  112OSM    H8T11545   4.152   2.069   5.759
  112OSM    C9S11546   4.169   1.947   5.589
  112OSM    H9S11547   4.059   1.953   5.575
  112OSM    H9T11548   4.196   1.843   5.562
  112OSM   C10S11549   4.211   2.058   5.498
  112OSM   H10S11550   4.319   2.077   5.512
  112OSM   H10T11551   4.164   2.157   5.518
  112OSM   C11S11552   4.204   2.017   5.350
  112OSM   H11S11553   4.099   2.038   5.320
  112OSM   H11T11554   4.219   1.908   5.335
  112OSM   C12S11555   4.305   2.094   5.274
  112OSM   H12S11556   4.405   2.093   5.324
  112OSM   H12T11557   4.275   2.200   5.281
  112OSM   C13S11558   4.313   2.049   5.134
  112OSM   H13S11559   4.230   2.088   5.071
  112OSM   H13T11560   4.320   1.938   5.127
  112OSM   C14S11561   4.433   2.102   5.057
  112OSM   H14S11562   4.531   2.070   5.099
  112OSM   H14T11563   4.437   2.212   5.075
  112OSM   C15S11564   4.447   2.087   4.905
  112OSM   H15S11565   4.452   1.977   4.886
  112OSM   H15T11566   4.539   2.134   4.865
  112OSM   C16S11567   4.327   2.144   4.826
  112OSM   H16S11568   4.297   2.237   4.879
  112OSM   H16T11569   4.238   2.078   4.836
  112OSM   C17S11570   4.347   2.168   4.665
  112OSM   H17S11571   4.441   2.225   4.651
  112OSM   H17T11572   4.258   2.232   4.645
  112OSM   C18S11573   4.331   2.045   4.583
  112OSM   H18S11574   4.324   2.059   4.474
  112OSM   H18T11575   4.238   1.992   4.613
  112OSM   H18U11576   4.418   1.977   4.597
  112OSM    C1F11577   3.994   1.347   5.924
  112OSM     OF11578   3.888   1.330   5.869
  112OSM    C2F11579   4.124   1.283   5.896
  112OSM    H2F11580   4.098   1.177   5.872
  112OSM    H2G11581   4.196   1.290   5.980
  112OSM    C3F11582   4.181   1.328   5.762
  112OSM    H3F11583   4.279   1.279   5.746
  112OSM    H3G11584   4.191   1.438   5.772
  112OSM    C4F11585   4.096   1.302   5.633
  112OSM    H4F11586   4.129   1.376   5.557
  112OSM    H4G11587   3.989   1.331   5.648
  112OSM    C5F11588   4.108   1.155   5.580
  112OSM    H5F11589   4.063   1.088   5.657
  112OSM    H5G11590   4.214   1.133   5.556
  112OSM    C6F11591   4.029   1.129   5.454
  112OSM    H6F11592   4.034   1.021   5.428
  112OSM    H6G11593   4.066   1.195   5.373
  112OSM    C7F11594   3.875   1.154   5.470
  112OSM    H7F11595   3.870   1.261   5.499
  112OSM    H7G11596   3.843   1.094   5.558
  112OSM    C8F11597   3.795   1.108   5.345
  112OSM    H8F11598   3.686   1.097   5.363
  112OSM    H8G11599   3.813   1.001   5.322
  112OSM    C9F11600   3.817   1.201   5.226
  112OSM    H9F11601   3.790   1.307   5.238
  112OSM   C10F11602   3.893   1.171   5.120
  112OSM   H10F11603   3.907   1.255   5.050
  112OSM   C11F11604   3.971   1.038   5.096
  112OSM   H11F11605   3.914   0.978   5.022
  112OSM   H11G11606   3.978   0.982   5.192
  112OSM   C12F11607   4.120   1.058   5.063
  112OSM   H12F11608   4.172   0.964   5.035
  112OSM   H12G11609   4.175   1.108   5.145
  112OSM   C13F11610   4.138   1.149   4.936
  112OSM   H13F11611   4.101   1.253   4.949
  112OSM   H13G11612   4.079   1.084   4.868
  112OSM   C14F11613   4.286   1.137   4.883
  112OSM   H14F11614   4.288   1.204   4.794
  112OSM   H14G11615   4.310   1.031   4.859
  112OSM   C15F11616   4.390   1.189   4.970
  112OSM   H15F11617   4.386   1.134   5.067
  112OSM   H15G11618   4.379   1.299   4.970
  112OSM   C16F11619   4.538   1.161   4.924
  112OSM   H16F11620   4.559   1.201   4.823
  112OSM   H16G11621   4.550   1.051   4.923
  112OSM   C17F11622   4.651   1.219   5.011
  112OSM   H17F11623   4.750   1.174   4.992
  112OSM   H17G11624   4.621   1.180   5.111
  112OSM   C18F11625   4.674   1.373   5.009
  112OSM   H18F11626   4.686   1.393   4.900
  112OSM   H18G11627   4.763   1.410   5.064
  112OSM   H18H11628   4.594   1.441   5.044
  113OSM      N11629   0.813   1.376   6.816
  113OSM    C1511630   0.685   1.313   6.846
  113OSM   H15A11631   0.702   1.214   6.886
  113OSM   H15B11632   0.624   1.301   6.758
  113OSM   H15C11633   0.636   1.366   6.926
  113OSM    C1411634   0.790   1.529   6.807
  113OSM   H14A11635   0.730   1.569   6.887
  113OSM   H14B11636   0.738   1.554   6.716
  113OSM   H14C11637   0.883   1.583   6.795
  113OSM    C1311638   0.901   1.345   6.930
  113OSM   H13A11639   0.994   1.397   6.919
  113OSM   H13B11640   0.937   1.243   6.924
  113OSM   H13C11641   0.856   1.370   7.025
  113OSM    C1211642   0.865   1.315   6.689
  113OSM   H12A11643   0.863   1.207   6.697
  113OSM   H12B11644   0.968   1.339   6.668
  113OSM    C1111645   0.802   1.360   6.554
  113OSM   H11A11646   0.858   1.322   6.466
  113OSM   H11B11647   0.820   1.470   6.548
  113OSM      P11648   0.605   1.221   6.452
  113OSM    O1311649   0.651   1.086   6.492
  113OSM    O1411650   0.458   1.243   6.445
  113OSM    O1111651   0.669   1.262   6.314
  113OSM    O1211652   0.659   1.326   6.557
  113OSM    C1S11653   0.609   1.230   6.183
  113OSM    H1S11654   0.518   1.167   6.193
  113OSM    H1T11655   0.685   1.175   6.124
  113OSM     NF11656   0.497   1.317   5.979
  113OSM    HNF11657   0.549   1.311   5.893
  113OSM    C2S11658   0.571   1.358   6.098
  113OSM    H2S11659   0.501   1.415   6.162
  113OSM    C3S11660   0.701   1.441   6.073
  113OSM    H3S11661   0.759   1.376   6.003
  113OSM     O311662   0.793   1.456   6.176
  113OSM    HO311663   0.769   1.380   6.229
  113OSM    C4S11664   0.670   1.572   5.997
  113OSM    H4S11665   0.703   1.566   5.892
  113OSM    C5S11666   0.644   1.692   6.046
  113OSM    H5S11667   0.637   1.703   6.156
  113OSM    C6S11668   0.610   1.817   5.966
  113OSM    H6S11669   0.659   1.892   6.032
  113OSM    H6T11670   0.500   1.827   5.964
  113OSM    C7S11671   0.677   1.834   5.825
  113OSM    H7S11672   0.674   1.738   5.769
  113OSM    H7T11673   0.784   1.863   5.834
  113OSM    C8S11674   0.618   1.940   5.725
  113OSM    H8S11675   0.676   1.935   5.630
  113OSM    H8T11676   0.618   2.041   5.770
  113OSM    C9S11677   0.472   1.911   5.668
  113OSM    H9S11678   0.415   1.871   5.755
  113OSM    H9T11679   0.472   1.838   5.584
  113OSM   C10S11680   0.409   2.038   5.612
  113OSM   H10S11681   0.431   2.118   5.686
  113OSM   H10T11682   0.300   2.021   5.628
  113OSM   C11S11683   0.444   2.073   5.471
  113OSM   H11S11684   0.418   1.985   5.407
  113OSM   H11T11685   0.554   2.090   5.464
  113OSM   C12S11686   0.364   2.185   5.414
  113OSM   H12S11687   0.391   2.279   5.466
  113OSM   H12T11688   0.259   2.160   5.436
  113OSM   C13S11689   0.377   2.208   5.260
  113OSM   H13S11690   0.359   2.101   5.235
  113OSM   H13T11691   0.476   2.245   5.228
  113OSM   C14S11692   0.274   2.308   5.210
  113OSM   H14S11693   0.294   2.404   5.260
  113OSM   H14T11694   0.174   2.269   5.241
  113OSM   C15S11695   0.288   2.311   5.057
  113OSM   H15S11696   0.197   2.355   5.011
  113OSM   H15T11697   0.303   2.212   5.009
  113OSM   C16S11698   0.400   2.414   5.014
  113OSM   H16S11699   0.500   2.401   5.061
  113OSM   H16T11700   0.362   2.513   5.045
  113OSM   C17S11701   0.409   2.422   4.860
  113OSM   H17S11702   0.308   2.410   4.814
  113OSM   H17T11703   0.467   2.335   4.824
  113OSM   C18S11704   0.477   2.557   4.828
  113OSM   H18S11705   0.486   2.569   4.717
  113OSM   H18T11706   0.580   2.553   4.870
  113OSM   H18U11707   0.427   2.641   4.879
  113OSM    C1F11708   0.370   1.277   5.984
  113OSM     OF11709   0.307   1.281   6.087
  113OSM    C2F11710   0.302   1.227   5.859
  113OSM    H2F11711   0.378   1.162   5.810
  113OSM    H2G11712   0.281   1.312   5.791
  113OSM    C3F11713   0.165   1.151   5.876
  113OSM    H3F11714   0.100   1.206   5.948
  113OSM    H3G11715   0.172   1.055   5.932
  113OSM    C4F11716   0.086   1.125   5.746
  113OSM    H4F11717   0.066   1.223   5.696
  113OSM    H4G11718   6.876   1.074   5.779
  113OSM    C5F11719   0.174   1.031   5.659
  113OSM    H5F11720   0.207   0.957   5.735
  113OSM    H5G11721   0.244   1.105   5.615
  113OSM    C6F11722   0.096   0.954   5.549
  113OSM    H6F11723   0.019   0.896   5.605
  113OSM    H6G11724   0.167   0.895   5.487
  113OSM    C7F11725   0.035   1.059   5.453
  113OSM    H7F11726   6.839   1.119   5.504
  113OSM    H7G11727   6.862   1.006   5.373
  113OSM    C8F11728   0.129   1.151   5.372
  113OSM    H8F11729   0.218   1.084   5.369
  113OSM    H8G11730   0.150   1.234   5.443
  113OSM    C9F11731   0.076   1.197   5.239
  113OSM    H9F11732   6.860   1.246   5.240
  113OSM   C10F11733   0.129   1.168   5.116
  113OSM   H10F11734   0.065   1.197   5.032
  113OSM   C11F11735   0.260   1.090   5.092
  113OSM   H11F11736   0.235   0.989   5.052
  113OSM   H11G11737   0.325   1.089   5.183
  113OSM   C12F11738   0.339   1.160   4.972
  113OSM   H12F11739   0.447   1.135   4.980
  113OSM   H12G11740   0.330   1.269   4.996
  113OSM   C13F11741   0.295   1.135   4.825
  113OSM   H13F11742   0.188   1.160   4.815
  113OSM   H13G11743   0.299   1.024   4.818
  113OSM   C14F11744   0.379   1.192   4.710
  113OSM   H14F11745   0.486   1.172   4.731
  113OSM   H14G11746   0.368   1.302   4.700
  113OSM   C15F11747   0.353   1.138   4.569
  113OSM   H15F11748   0.250   1.162   4.533
  113OSM   H15G11749   0.370   1.028   4.570
  113OSM   C16F11750   0.448   1.202   4.463
  113OSM   H16F11751   0.546   1.159   4.492
  113OSM   H16G11752   0.442   1.313   4.472
  113OSM   C17F11753   0.413   1.164   4.322
  113OSM   H17F11754   0.308   1.194   4.301
  113OSM   H17G11755   0.407   1.054   4.310
  113OSM   C18F11756   0.503   1.219   4.219
  113OSM   H18F11757   0.460   1.213   4.116
  113OSM   H18G11758   0.609   1.186   4.218
  113OSM   H18H11759   0.497   1.330   4.229
  114OSM      N11760   5.933   6.154   6.781
  114OSM    C1511761   6.048   6.080   6.841
  114OSM   H15A11762   6.015   5.984   6.875
  114OSM   H15B11763   6.103   6.130   6.919
  114OSM   H15C11764   6.129   6.067   6.770
  114OSM    C1411765   5.882   6.075   6.665
  114OSM   H14A11766   5.954   6.056   6.587
  114OSM   H14B11767   5.801   6.117   6.606
  114OSM   H14C11768   5.836   5.982   6.694
  114OSM    C1311769   5.822   6.164   6.881
  114OSM   H13A11770   5.867   6.227   6.956
  114OSM   H13B11771   5.787   6.071   6.923
  114OSM   H13C11772   5.733   6.219   6.852
  114OSM    C1211773   5.977   6.295   6.739
  114OSM   H12A11774   6.019   6.345   6.826
  114OSM   H12B11775   5.891   6.347   6.699
  114OSM    C1111776   6.095   6.304   6.632
  114OSM   H11A11777   6.106   6.405   6.585
  114OSM   H11B11778   6.073   6.240   6.545
  114OSM      P11779   6.299   6.352   6.786
  114OSM    O1311780   6.211   6.424   6.884
  114OSM    O1411781   6.409   6.271   6.841
  114OSM    O1111782   6.357   6.469   6.696
  114OSM    O1211783   6.219   6.259   6.688
  114OSM    C1S11784   6.393   6.454   6.554
  114OSM    H1S11785   6.314   6.409   6.491
  114OSM    H1T11786   6.479   6.385   6.544
  114OSM     NF11787   6.475   6.578   6.358
  114OSM    HNF11788   6.566   6.612   6.336
  114OSM    C2S11789   6.452   6.594   6.498
  114OSM    H2S11790   6.374   6.670   6.521
  114OSM    C3S11791   6.577   6.639   6.577
  114OSM    H3S11792   6.659   6.569   6.549
  114OSM     O311793   6.555   6.631   6.721
  114OSM    HO311794   6.473   6.581   6.722
  114OSM    C4S11795   6.610   6.781   6.532
  114OSM    H4S11796   6.696   6.787   6.464
  114OSM    C5S11797   6.532   0.010   6.548
  114OSM    H5S11798   6.446   0.010   6.617
  114OSM    C6S11799   6.581   0.148   6.504
  114OSM    H6S11800   6.664   0.165   6.577
  114OSM    H6T11801   6.500   0.218   6.532
  114OSM    C7S11802   6.634   0.157   6.358
  114OSM    H7S11803   6.726   0.095   6.349
  114OSM    H7T11804   6.670   0.262   6.347
  114OSM    C8S11805   6.536   0.103   6.251
  114OSM    H8S11806   6.429   0.133   6.257
  114OSM    H8T11807   6.531   6.876   6.268
  114OSM    C9S11808   6.585   0.131   6.107
  114OSM    H9S11809   6.680   0.076   6.089
  114OSM    H9T11810   6.600   0.238   6.079
  114OSM   C10S11811   6.473   0.089   6.011
  114OSM   H10S11812   6.374   0.136   6.029
  114OSM   H10T11813   6.458   6.862   6.022
  114OSM   C11S11814   6.518   0.104   5.863
  114OSM   H11S11815   6.590   0.027   5.829
  114OSM   H11T11816   6.574   0.200   5.860
  114OSM   C12S11817   6.410   0.111   5.756
  114OSM   H12S11818   6.322   0.048   5.782
  114OSM   H12T11819   6.441   0.062   5.661
  114OSM   C13S11820   6.362   0.255   5.737
  114OSM   H13S11821   6.360   0.287   5.843
  114OSM   H13T11822   6.265   0.278   5.689
  114OSM   C14S11823   6.456   0.335   5.648
  114OSM   H14S11824   6.558   0.310   5.685
  114OSM   H14T11825   6.431   0.442   5.664
  114OSM   C15S11826   6.451   0.292   5.502
  114OSM   H15S11827   6.345   0.307   5.473
  114OSM   H15T11828   6.473   0.184   5.504
  114OSM   C16S11829   6.545   0.385   5.430
  114OSM   H16S11830   6.649   0.376   5.467
  114OSM   H16T11831   6.508   0.489   5.442
  114OSM   C17S11832   6.542   0.351   5.273
  114OSM   H17S11833   6.446   0.395   5.238
  114OSM   H17T11834   6.546   0.241   5.255
  114OSM   C18S11835   6.649   0.431   5.194
  114OSM   H18S11836   6.640   0.417   5.084
  114OSM   H18T11837   6.748   0.384   5.212
  114OSM   H18U11838   6.643   0.537   5.228
  114OSM    C1F11839   6.385   6.551   6.259
  114OSM     OF11840   6.265   6.534   6.276
  114OSM    C2F11841   6.449   6.556   6.128
  114OSM    H2F11842   6.521   6.474   6.107
  114OSM    H2G11843   6.504   6.652   6.119
  114OSM    C3F11844   6.346   6.568   6.015
  114OSM    H3F11845   6.287   6.662   6.022
  114OSM    H3G11846   6.278   6.484   5.991
  114OSM    C4F11847   6.416   6.597   5.885
  114OSM    H4F11848   6.495   6.521   5.870
  114OSM    H4G11849   6.463   6.697   5.886
  114OSM    C5F11850   6.318   6.597   5.763
  114OSM    H5F11851   6.241   6.677   5.773
  114OSM    H5G11852   6.260   6.503   5.755
  114OSM    C6F11853   6.398   6.623   5.635
  114OSM    H6F11854   6.453   6.531   5.606
  114OSM    H6G11855   6.478   6.694   5.664
  114OSM    C7F11856   6.309   6.681   5.532
  114OSM    H7F11857   6.255   6.763   5.586
  114OSM    H7G11858   6.246   6.594   5.505
  114OSM    C8F11859   6.388   6.723   5.407
  114OSM    H8F11860   6.466   6.795   5.441
  114OSM    H8G11861   6.317   6.777   5.340
  114OSM    C9F11862   6.463   6.608   5.342
  114OSM    H9F11863   6.545   6.564   5.400
  114OSM   C10F11864   6.423   6.546   5.233
  114OSM   H10F11865   6.497   6.474   5.195
  114OSM   C11F11866   6.310   6.584   5.140
  114OSM   H11F11867   6.280   6.691   5.148
  114OSM   H11G11868   6.219   6.521   5.148
  114OSM   C12F11869   6.360   6.558   4.999
  114OSM   H12F11870   6.458   6.605   4.980
  114OSM   H12G11871   6.282   6.599   4.932
  114OSM   C13F11872   6.359   6.407   4.960
  114OSM   H13F11873   6.266   6.356   4.993
  114OSM   H13G11874   6.438   6.362   5.024
  114OSM   C14F11875   6.395   6.377   4.812
  114OSM   H14F11876   6.346   6.454   4.747
  114OSM   H14G11877   6.356   6.278   4.780
  114OSM   C15F11878   6.546   6.358   4.783
  114OSM   H15F11879   6.572   6.255   4.816
  114OSM   H15G11880   6.608   6.421   4.850
  114OSM   C16F11881   6.595   6.379   4.641
  114OSM   H16F11882   6.644   6.479   4.646
  114OSM   H16G11883   6.516   6.391   4.564
  114OSM   C17F11884   6.682   6.264   4.596
  114OSM   H17F11885   6.631   6.167   4.616
  114OSM   H17G11886   6.778   6.265   4.653
  114OSM   C18F11887   6.717   6.274   4.449
  114OSM   H18F11888   6.631   6.313   4.390
  114OSM   H18G11889   6.751   6.185   4.391
  114OSM   H18H11890   6.795   6.353   4.447
  115OSM      N11891   0.398   2.909   6.722
  115OSM    C1511892   0.294   2.938   6.823
  115OSM   H15A11893   0.318   3.024   6.883
  115OSM   H15B11894   0.282   2.856   6.892
  115OSM   H15C11895   0.205   2.968   6.769
  115OSM    C1411896   0.398   3.019   6.627
  115OSM   H14A11897   0.474   3.014   6.551
  115OSM   H14B11898   0.420   3.110   6.680
  115OSM   H14C11899   0.299   3.017   6.584
  115OSM    C1311900   0.536   2.907   6.792
  115OSM   H13A11901   0.546   2.820   6.856
  115OSM   H13B11902   0.561   2.997   6.845
  115OSM   H13C11903   0.619   2.892   6.725
  115OSM    C1211904   0.380   2.780   6.651
  115OSM   H12A11905   0.459   2.781   6.578
  115OSM   H12B11906   0.286   2.790   6.598
  115OSM    C1111907   0.379   2.645   6.722
  115OSM   H11A11908   0.470   2.632   6.784
  115OSM   H11B11909   0.390   2.569   6.642
  115OSM      P11910   0.120   2.607   6.727
  115OSM    O1311911   0.121   2.478   6.663
  115OSM    O1411912   0.018   2.621   6.830
  115OSM    O1111913   0.117   2.734   6.630
  115OSM    O1211914   0.263   2.625   6.798
  115OSM    C1S11915   0.045   2.724   6.507
  115OSM    H1S11916   0.011   2.623   6.477
  115OSM    H1T11917   0.114   2.748   6.423
  115OSM     NF11918   6.792   2.839   6.332
  115OSM    HNF11919   6.846   2.899   6.273
  115OSM    C2S11920   6.821   2.841   6.482
  115OSM    H2S11921   6.721   2.816   6.522
  115OSM    C3S11922   6.872   2.978   6.540
  115OSM    H3S11923   0.095   2.976   6.506
  115OSM     O311924   6.883   2.967   6.681
  115OSM    HO311925   0.024   2.875   6.693
  115OSM    C4S11926   6.800   3.098   6.508
  115OSM    H4S11927   6.691   3.091   6.507
  115OSM    C5S11928   6.854   3.214   6.468
  115OSM    H5S11929   0.080   3.225   6.473
  115OSM    C6S11930   6.763   3.331   6.424
  115OSM    H6S11931   6.774   3.426   6.481
  115OSM    H6T11932   6.657   3.304   6.446
  115OSM    C7S11933   6.772   3.367   6.285
  115OSM    H7S11934   6.759   3.283   6.213
  115OSM    H7T11935   6.871   3.415   6.271
  115OSM    C8S11936   6.675   3.477   6.244
  115OSM    H8S11937   6.675   3.545   6.332
  115OSM    H8T11938   6.570   3.447   6.221
  115OSM    C9S11939   6.728   3.538   6.117
  115OSM    H9S11940   6.648   3.610   6.092
  115OSM    H9T11941   6.721   3.468   6.031
  115OSM   C10S11942   6.864   3.604   6.117
  115OSM   H10S11943   0.059   3.524   6.118
  115OSM   H10T11944   0.002   3.655   6.214
  115OSM   C11S11945   6.879   3.715   6.016
  115OSM   H11S11946   0.082   3.781   6.040
  115OSM   H11T11947   6.792   3.783   6.029
  115OSM   C12S11948   6.868   3.673   5.869
  115OSM   H12S11949   6.766   3.632   5.851
  115OSM   H12T11950   0.068   3.600   5.855
  115OSM   C13S11951   0.018   3.795   5.781
  115OSM   H13S11952   0.105   3.854   5.818
  115OSM   H13T11953   6.817   3.868   5.785
  115OSM   C14S11954   0.039   3.763   5.633
  115OSM   H14S11955   6.827   3.722   5.592
  115OSM   H14T11956   0.107   3.676   5.633
  115OSM   C15S11957   0.077   3.878   5.542
  115OSM   H15S11958   0.178   3.919   5.562
  115OSM   H15T11959   0.011   3.966   5.560
  115OSM   C16S11960   0.054   3.850   5.398
  115OSM   H16S11961   6.834   3.836   5.358
  115OSM   H16T11962   0.104   3.752   5.388
  115OSM   C17S11963   0.114   3.955   5.301
  115OSM   H17S11964   0.220   3.965   5.335
  115OSM   H17T11965   0.072   4.058   5.305
  115OSM   C18S11966   0.115   3.904   5.153
  115OSM   H18S11967   0.109   3.977   5.070
  115OSM   H18T11968   0.030   3.834   5.142
  115OSM   H18U11969   0.213   3.852   5.146
  115OSM    C1F11970   6.724   2.738   6.282
  115OSM     OF11971   6.687   2.640   6.349
  115OSM    C2F11972   6.707   2.748   6.133
  115OSM    H2F11973   6.796   2.800   6.091
  115OSM    H2G11974   6.614   2.801   6.102
  115OSM    C3F11975   6.704   2.600   6.082
  115OSM    H3F11976   6.614   2.550   6.125
  115OSM    H3G11977   6.782   2.543   6.138
  115OSM    C4F11978   6.702   2.587   5.935
  115OSM    H4F11979   6.685   2.481   5.905
  115OSM    H4G11980   6.796   2.610   5.882
  115OSM    C5F11981   6.585   2.668   5.870
  115OSM    H5F11982   6.610   2.773   5.896
  115OSM    H5G11983   6.481   2.651   5.908
  115OSM    C6F11984   6.578   2.661   5.717
  115OSM    H6F11985   6.545   2.558   5.691
  115OSM    H6G11986   6.679   2.673   5.670
  115OSM    C7F11987   6.479   2.766   5.661
  115OSM    H7F11988   6.518   2.868   5.644
  115OSM    H7G11989   6.395   2.769   5.734
  115OSM    C8F11990   6.414   2.717   5.532
  115OSM    H8F11991   6.326   2.785   5.532
  115OSM    H8G11992   6.381   2.613   5.554
  115OSM    C9F11993   6.506   2.721   5.408
  115OSM    H9F11994   6.586   2.646   5.401
  115OSM   C10F11995   6.490   2.806   5.306
  115OSM   H10F11996   6.571   2.803   5.231
  115OSM   C11F11997   6.387   2.910   5.286
  115OSM   H11F11998   6.426   3.012   5.271
  115OSM   H11G11999   6.329   2.920   5.381
  115OSM   C12F12000   6.287   2.873   5.174
  115OSM   H12F12001   6.216   2.956   5.158
  115OSM   H12G12002   6.223   2.784   5.196
  115OSM   C13F12003   6.358   2.835   5.041
  115OSM   H13F12004   6.283   2.840   4.959
  115OSM   H13G12005   6.429   2.750   5.047
  115OSM   C14F12006   6.439   2.958   4.985
  115OSM   H14F12007   6.519   2.980   5.059
  115OSM   H14G12008   6.370   3.046   4.981
  115OSM   C15F12009   6.482   2.945   4.836
  115OSM   H15F12010   6.387   2.932   4.780
  115OSM   H15G12011   6.556   2.863   4.825
  115OSM   C16F12012   6.563   3.065   4.774
  115OSM   H16F12013   6.668   3.059   4.810
  115OSM   H16G12014   6.519   3.164   4.800
  115OSM   C17F12015   6.574   3.059   4.618
  115OSM   H17F12016   6.612   2.963   4.577
  115OSM   H17G12017   6.646   3.140   4.595
  115OSM   C18F12018   6.439   3.091   4.550
  115OSM   H18F12019   6.452   3.102   4.440
  115OSM   H18G12020   6.397   3.188   4.582
  115OSM   H18H12021   6.360   3.014   4.566
  116OSM      N12022   1.643   1.052   6.825
  116OSM    C1512023   1.734   1.176   6.837
  116OSM   H15A12024   1.797   1.172   6.750
  116OSM   H15B12025   1.783   1.176   6.933
  116OSM   H15C12026   1.673   1.260   6.806
  116OSM    C1412027   1.729   0.932   6.870
  116OSM   H14A12028   1.824   0.934   6.820
  116OSM   H14B12029   1.689   0.836   6.841
  116OSM   H14C12030   1.746   0.938   6.977
  116OSM    C1312031   1.523   1.069   6.911
  116OSM   H13A12032   1.476   0.972   6.917
  116OSM   H13B12033   1.466   1.150   6.868
  116OSM   H13C12034   1.542   1.101   7.012
  116OSM    C1212035   1.604   1.029   6.679
  116OSM   H12A12036   1.551   0.934   6.683
  116OSM   H12B12037   1.687   0.996   6.618
  116OSM    C1112038   1.505   1.131   6.601
  116OSM   H11A12039   1.416   1.149   6.665
  116OSM   H11B12040   1.457   1.095   6.508
  116OSM      P12041   1.659   1.275   6.454
  116OSM    O1312042   1.748   1.393   6.488
  116OSM    O1412043   1.733   1.151   6.420
  116OSM    O1112044   1.559   1.318   6.338
  116OSM    O1212045   1.558   1.258   6.574
  116OSM    C1S12046   1.457   1.415   6.368
  116OSM    H1S12047   1.472   1.466   6.466
  116OSM    H1T12048   1.361   1.358   6.363
  116OSM     NF12049   1.358   1.620   6.270
  116OSM    HNF12050   1.270   1.615   6.224
  116OSM    C2S12051   1.453   1.518   6.243
  116OSM    H2S12052   1.553   1.565   6.232
  116OSM    C3S12053   1.425   1.442   6.108
  116OSM    H3S12054   1.320   1.405   6.111
  116OSM     O312055   1.476   1.312   6.096
  116OSM    HO312056   1.512   1.296   6.184
  116OSM    C4S12057   1.443   1.531   5.991
  116OSM    H4S12058   1.349   1.586   5.974
  116OSM    C5S12059   1.547   1.543   5.903
  116OSM    H5S12060   1.625   1.466   5.909
  116OSM    C6S12061   1.563   1.626   5.779
  116OSM    H6S12062   1.622   1.568   5.705
  116OSM    H6T12063   1.629   1.712   5.803
  116OSM    C7S12064   1.435   1.673   5.721
  116OSM    H7S12065   1.402   1.746   5.797
  116OSM    H7T12066   1.364   1.588   5.709
  116OSM    C8S12067   1.443   1.748   5.589
  116OSM    H8S12068   1.530   1.817   5.594
  116OSM    H8T12069   1.353   1.811   5.576
  116OSM    C9S12070   1.461   1.671   5.449
  116OSM    H9S12071   1.370   1.613   5.425
  116OSM    H9T12072   1.543   1.597   5.457
  116OSM   C10S12073   1.478   1.769   5.333
  116OSM   H10S12074   1.580   1.813   5.340
  116OSM   H10T12075   1.408   1.855   5.345
  116OSM   C11S12076   1.469   1.700   5.194
  116OSM   H11S12077   1.370   1.654   5.174
  116OSM   H11T12078   1.544   1.618   5.199
  116OSM   C12S12079   1.487   1.800   5.079
  116OSM   H12S12080   1.582   1.858   5.083
  116OSM   H12T12081   1.407   1.876   5.089
  116OSM   C13S12082   1.492   1.736   4.939
  116OSM   H13S12083   1.402   1.678   4.909
  116OSM   H13T12084   1.575   1.663   4.954
  116OSM   C14S12085   1.541   1.819   4.819
  116OSM   H14S12086   1.650   1.839   4.805
  116OSM   H14T12087   1.503   1.921   4.836
  116OSM   C15S12088   1.490   1.758   4.687
  116OSM   H15S12089   1.514   1.834   4.611
  116OSM   H15T12090   1.383   1.729   4.681
  116OSM   C16S12091   1.579   1.636   4.648
  116OSM   H16S12092   1.559   1.553   4.719
  116OSM   H16T12093   1.684   1.674   4.651
  116OSM   C17S12094   1.548   1.578   4.506
  116OSM   H17S12095   1.439   1.566   4.494
  116OSM   H17T12096   1.609   1.485   4.495
  116OSM   C18S12097   1.591   1.665   4.387
  116OSM   H18S12098   1.514   1.743   4.370
  116OSM   H18T12099   1.607   1.596   4.302
  116OSM   H18U12100   1.687   1.710   4.419
  116OSM    C1F12101   1.381   1.725   6.359
  116OSM     OF12102   1.481   1.727   6.432
  116OSM    C2F12103   1.268   1.817   6.372
  116OSM    H2F12104   1.250   1.842   6.479
  116OSM    H2G12105   1.172   1.767   6.347
  116OSM    C3F12106   1.290   1.932   6.274
  116OSM    H3F12107   1.293   1.882   6.175
  116OSM    H3G12108   1.379   1.992   6.304
  116OSM    C4F12109   1.175   2.028   6.255
  116OSM    H4F12110   1.211   2.108   6.187
  116OSM    H4G12111   1.140   2.080   6.347
  116OSM    C5F12112   1.052   1.958   6.189
  116OSM    H5F12113   0.960   2.020   6.200
  116OSM    H5G12114   1.020   1.867   6.244
  116OSM    C6F12115   1.062   1.931   6.038
  116OSM    H6F12116   0.954   1.927   6.010
  116OSM    H6G12117   1.121   1.839   6.018
  116OSM    C7F12118   1.107   2.054   5.948
  116OSM    H7F12119   1.212   2.084   5.968
  116OSM    H7G12120   1.036   2.139   5.963
  116OSM    C8F12121   1.113   2.015   5.792
  116OSM    H8F12122   1.028   1.947   5.770
  116OSM    H8G12123   1.201   1.948   5.785
  116OSM    C9F12124   1.126   2.138   5.700
  116OSM    H9F12125   1.168   2.227   5.750
  116OSM   C10F12126   1.088   2.151   5.573
  116OSM   H10F12127   1.092   2.249   5.523
  116OSM   C11F12128   1.031   2.032   5.501
  116OSM   H11F12129   0.977   1.952   5.557
  116OSM   H11G12130   1.112   1.983   5.443
  116OSM   C12F12131   0.928   2.070   5.399
  116OSM   H12F12132   0.848   2.125   5.453
  116OSM   H12G12133   0.887   1.981   5.346
  116OSM   C13F12134   0.974   2.163   5.288
  116OSM   H13F12135   1.055   2.111   5.233
  116OSM   H13G12136   1.030   2.252   5.325
  116OSM   C14F12137   0.860   2.198   5.186
  116OSM   H14F12138   0.776   2.255   5.230
  116OSM   H14G12139   0.806   2.111   5.144
  116OSM   C15F12140   0.911   2.278   5.067
  116OSM   H15F12141   1.004   2.224   5.038
  116OSM   H15G12142   0.931   2.382   5.101
  116OSM   C16F12143   0.798   2.286   4.962
  116OSM   H16F12144   0.710   2.318   5.022
  116OSM   H16G12145   0.776   2.187   4.917
  116OSM   C17F12146   0.833   2.399   4.860
  116OSM   H17F12147   0.871   2.492   4.907
  116OSM   H17G12148   0.740   2.415   4.801
  116OSM   C18F12149   0.939   2.352   4.759
  116OSM   H18F12150   0.919   2.243   4.744
  116OSM   H18G12151   1.042   2.362   4.799
  116OSM   H18H12152   0.935   2.417   4.669
  117OSM      N12153   0.616   4.690   7.011
  117OSM    C1512154   0.634   4.815   7.088
  117OSM   H15A12155   0.546   4.876   7.075
  117OSM   H15B12156   0.715   4.880   7.060
  117OSM   H15C12157   0.631   4.784   7.191
  117OSM    C1412158   0.736   4.616   7.041
  117OSM   H14A12159   0.716   4.514   7.012
  117OSM   H14B12160   0.759   4.614   7.146
  117OSM   H14C12161   0.829   4.649   6.998
  117OSM    C1312162   0.499   4.615   7.070
  117OSM   H13A12163   0.518   4.620   7.177
  117OSM   H13B12164   0.492   4.513   7.035
  117OSM   H13C12165   0.399   4.654   7.062
  117OSM    C1212166   0.587   4.703   6.867
  117OSM   H12A12167   0.493   4.755   6.853
  117OSM   H12B12168   0.561   4.603   6.835
  117OSM    C1112169   0.687   4.765   6.764
  117OSM   H11A12170   0.639   4.773   6.664
  117OSM   H11B12171   0.768   4.690   6.764
  117OSM      P12172   0.899   4.925   6.748
  117OSM    O1312173   0.949   5.028   6.845
  117OSM    O1412174   0.969   4.796   6.723
  117OSM    O1112175   0.872   4.982   6.611
  117OSM    O1212176   0.751   4.886   6.799
  117OSM    C1S12177   0.950   4.970   6.497
  117OSM    H1S12178   1.048   4.921   6.512
  117OSM    H1T12179   0.978   5.072   6.463
  117OSM     NF12180   0.969   4.888   6.272
  117OSM    HNF12181   0.937   4.936   6.191
  117OSM    C2S12182   0.885   4.881   6.385
  117OSM    H2S12183   0.875   4.779   6.428
  117OSM    C3S12184   0.743   4.940   6.349
  117OSM    H3S12185   0.770   5.038   6.303
  117OSM     O312186   0.663   4.984   6.459
  117OSM    HO312187   0.721   4.987   6.536
  117OSM    C4S12188   0.670   4.864   6.248
  117OSM    H4S12189   0.702   4.882   6.144
  117OSM    C5S12190   0.562   4.784   6.267
  117OSM    H5S12191   0.528   4.774   6.371
  117OSM    C6S12192   0.488   4.703   6.161
  117OSM    H6S12193   0.378   4.712   6.173
  117OSM    H6T12194   0.516   4.598   6.183
  117OSM    C7S12195   0.523   4.737   6.011
  117OSM    H7S12196   0.486   4.646   5.958
  117OSM    H7T12197   0.632   4.742   5.993
  117OSM    C8S12198   0.443   4.856   5.957
  117OSM    H8S12199   0.486   4.953   5.990
  117OSM    H8T12200   0.338   4.847   5.992
  117OSM    C9S12201   0.443   4.866   5.806
  117OSM    H9S12202   0.385   4.776   5.778
  117OSM    H9T12203   0.553   4.863   5.786
  117OSM   C10S12204   0.379   4.993   5.744
  117OSM   H10S12205   0.428   5.075   5.802
  117OSM   H10T12206   0.273   5.010   5.772
  117OSM   C11S12207   0.404   5.010   5.589
  117OSM   H11S12208   0.505   4.969   5.567
  117OSM   H11T12209   0.403   5.118   5.564
  117OSM   C12S12210   0.299   4.934   5.520
  117OSM   H12S12211   0.204   4.989   5.503
  117OSM   H12T12212   0.266   4.846   5.580
  117OSM   C13S12213   0.343   4.881   5.391
  117OSM   H13S12214   0.258   4.823   5.350
  117OSM   H13T12215   0.431   4.817   5.409
  117OSM   C14S12216   0.386   4.991   5.284
  117OSM   H14S12217   0.422   4.949   5.188
  117OSM   H14T12218   0.471   5.051   5.324
  117OSM   C15S12219   0.270   5.092   5.263
  117OSM   H15S12220   0.251   5.147   5.358
  117OSM   H15T12221   0.181   5.028   5.248
  117OSM   C16S12222   0.302   5.186   5.144
  117OSM   H16S12223   0.214   5.214   5.081
  117OSM   H16T12224   0.367   5.137   5.069
  117OSM   C17S12225   0.381   5.316   5.188
  117OSM   H17S12226   0.481   5.287   5.226
  117OSM   H17T12227   0.322   5.365   5.270
  117OSM   C18S12228   0.393   5.425   5.081
  117OSM   H18S12229   0.449   5.513   5.120
  117OSM   H18T12230   0.293   5.443   5.037
  117OSM   H18U12231   0.466   5.396   5.002
  117OSM    C1F12232   1.087   4.822   6.262
  117OSM     OF12233   1.134   4.747   6.353
  117OSM    C2F12234   1.142   4.831   6.128
  117OSM    H2F12235   1.189   4.930   6.107
  117OSM    H2G12236   1.070   4.812   6.046
  117OSM    C3F12237   1.246   4.715   6.123
  117OSM    H3F12238   1.184   4.623   6.115
  117OSM    H3G12239   1.318   4.708   6.207
  117OSM    C4F12240   1.336   4.704   5.996
  117OSM    H4F12241   1.438   4.731   6.030
  117OSM    H4G12242   1.308   4.765   5.907
  117OSM    C5F12243   1.346   4.559   5.944
  117OSM    H5F12244   1.246   4.510   5.944
  117OSM    H5G12245   1.405   4.513   6.026
  117OSM    C6F12246   1.415   4.544   5.812
  117OSM    H6F12247   1.398   4.438   5.786
  117OSM    H6G12248   1.525   4.557   5.827
  117OSM    C7F12249   1.341   4.616   5.702
  117OSM    H7F12250   1.378   4.721   5.700
  117OSM    H7G12251   1.232   4.627   5.725
  117OSM    C8F12252   1.376   4.539   5.573
  117OSM    H8F12253   1.367   4.430   5.587
  117OSM    H8G12254   1.484   4.564   5.562
  117OSM    C9F12255   1.299   4.573   5.447
  117OSM    H9F12256   1.189   4.585   5.451
  117OSM   C10F12257   1.350   4.590   5.328
  117OSM   H10F12258   1.277   4.605   5.247
  117OSM   C11F12259   1.498   4.569   5.287
  117OSM   H11F12260   1.558   4.530   5.372
  117OSM   H11G12261   1.546   4.660   5.246
  117OSM   C12F12262   1.506   4.462   5.175
  117OSM   H12F12263   1.440   4.489   5.090
  117OSM   H12G12264   1.468   4.367   5.218
  117OSM   C13F12265   1.647   4.420   5.129
  117OSM   H13F12266   1.625   4.318   5.091
  117OSM   H13G12267   1.707   4.414   5.222
  117OSM   C14F12268   1.694   4.511   5.019
  117OSM   H14F12269   1.690   4.613   5.062
  117OSM   H14G12270   1.616   4.502   4.939
  117OSM   C15F12271   1.825   4.475   4.958
  117OSM   H15F12272   1.839   4.367   4.937
  117OSM   H15G12273   1.914   4.492   5.022
  117OSM   C16F12274   1.865   4.545   4.833
  117OSM   H16F12275   1.817   4.646   4.830
  117OSM   H16G12276   1.840   4.501   4.734
  117OSM   C17F12277   2.026   4.576   4.827
  117OSM   H17F12278   2.076   4.484   4.791
  117OSM   H17G12279   2.057   4.608   4.929
  117OSM   C18F12280   2.059   4.684   4.721
  117OSM   H18F12281   2.170   4.690   4.717
  117OSM   H18G12282   2.018   4.785   4.740
  117OSM   H18H12283   2.035   4.658   4.616
  118OSM      N12284   0.593   3.703   6.685
  118OSM    C1512285   0.713   3.677   6.771
  118OSM   H15A12286   0.715   3.733   6.864
  118OSM   H15B12287   0.797   3.715   6.715
  118OSM   H15C12288   0.724   3.573   6.795
  118OSM    C1412289   0.592   3.849   6.633
  118OSM   H14A12290   0.567   3.911   6.718
  118OSM   H14B12291   0.528   3.864   6.548
  118OSM   H14C12292   0.695   3.873   6.610
  118OSM    C1312293   0.583   3.601   6.574
  118OSM   H13A12294   0.592   3.502   6.615
  118OSM   H13B12295   0.658   3.624   6.500
  118OSM   H13C12296   0.489   3.601   6.522
  118OSM    C1212297   0.463   3.685   6.779
  118OSM   H12A12298   0.379   3.721   6.722
  118OSM   H12B12299   0.482   3.751   6.862
  118OSM    C1112300   0.421   3.538   6.835
  118OSM   H11A12301   0.331   3.540   6.900
  118OSM   H11B12302   0.504   3.514   6.905
  118OSM      P12303   0.271   3.427   6.656
  118OSM    O1312304   0.217   3.297   6.704
  118OSM    O1412305   0.189   3.545   6.682
  118OSM    O1112306   0.304   3.421   6.494
  118OSM    O1212307   0.413   3.444   6.728
  118OSM    C1S12308   0.397   3.328   6.440
  118OSM    H1S12309   0.362   3.224   6.458
  118OSM    H1T12310   0.498   3.330   6.487
  118OSM     NF12311   0.492   3.230   6.243
  118OSM    HNF12312   0.574   3.249   6.190
  118OSM    C2S12313   0.408   3.334   6.290
  118OSM    H2S12314   0.304   3.338   6.249
  118OSM    C3S12315   0.460   3.479   6.268
  118OSM    H3S12316   0.562   3.493   6.311
  118OSM     O312317   0.382   3.581   6.336
  118OSM    HO312318   0.326   3.530   6.395
  118OSM    C4S12319   0.460   3.509   6.125
  118OSM    H4S12320   0.562   3.496   6.086
  118OSM    C5S12321   0.358   3.556   6.045
  118OSM    H5S12322   0.265   3.582   6.097
  118OSM    C6S12323   0.382   3.596   5.900
  118OSM    H6S12324   0.347   3.699   5.880
  118OSM    H6T12325   0.320   3.538   5.829
  118OSM    C7S12326   0.521   3.581   5.840
  118OSM    H7S12327   0.557   3.476   5.844
  118OSM    H7T12328   0.584   3.649   5.900
  118OSM    C8S12329   0.520   3.626   5.692
  118OSM    H8S12330   0.623   3.644   5.656
  118OSM    H8T12331   0.465   3.723   5.690
  118OSM    C9S12332   0.450   3.525   5.599
  118OSM    H9S12333   0.348   3.509   5.639
  118OSM    H9T12334   0.512   3.433   5.601
  118OSM   C10S12335   0.444   3.583   5.456
  118OSM   H10S12336   0.399   3.684   5.467
  118OSM   H10T12337   0.364   3.524   5.406
  118OSM   C11S12338   0.572   3.583   5.376
  118OSM   H11S12339   0.606   3.477   5.379
  118OSM   H11T12340   0.653   3.645   5.420
  118OSM   C12S12341   0.560   3.635   5.232
  118OSM   H12S12342   0.660   3.625   5.185
  118OSM   H12T12343   0.524   3.740   5.227
  118OSM   C13S12344   0.448   3.552   5.163
  118OSM   H13S12345   0.353   3.582   5.212
  118OSM   H13T12346   0.461   3.442   5.163
  118OSM   C14S12347   0.431   3.605   5.018
  118OSM   H14S12348   0.413   3.714   5.024
  118OSM   H14T12349   0.346   3.560   4.962
  118OSM   C15S12350   0.556   3.586   4.924
  118OSM   H15S12351   0.601   3.486   4.936
  118OSM   H15T12352   0.630   3.664   4.952
  118OSM   C16S12353   0.512   3.604   4.780
  118OSM   H16S12354   0.467   3.706   4.778
  118OSM   H16T12355   0.432   3.534   4.749
  118OSM   C17S12356   0.624   3.594   4.678
  118OSM   H17S12357   0.657   3.489   4.662
  118OSM   H17T12358   0.693   3.667   4.726
  118OSM   C18S12359   0.568   3.662   4.549
  118OSM   H18S12360   0.558   3.771   4.565
  118OSM   H18T12361   0.463   3.632   4.527
  118OSM   H18U12362   0.619   3.636   4.454
  118OSM    C1F12363   0.462   3.094   6.244
  118OSM     OF12364   0.353   3.043   6.276
  118OSM    C2F12365   0.583   3.019   6.201
  118OSM    H2F12366   0.611   2.946   6.281
  118OSM    H2G12367   0.667   3.092   6.203
  118OSM    C3F12368   0.570   2.944   6.069
  118OSM    H3F12369   0.485   2.874   6.078
  118OSM    H3G12370   0.662   2.894   6.034
  118OSM    C4F12371   0.541   3.039   5.943
  118OSM    H4F12372   0.441   3.085   5.961
  118OSM    H4G12373   0.534   2.963   5.863
  118OSM    C5F12374   0.641   3.153   5.919
  118OSM    H5F12375   0.739   3.116   5.956
  118OSM    H5G12376   0.604   3.234   5.985
  118OSM    C6F12377   0.675   3.194   5.782
  118OSM    H6F12378   0.763   3.262   5.791
  118OSM    H6G12379   0.592   3.258   5.743
  118OSM    C7F12380   0.712   3.075   5.685
  118OSM    H7F12381   0.627   3.004   5.684
  118OSM    H7G12382   0.801   3.020   5.721
  118OSM    C8F12383   0.744   3.120   5.545
  118OSM    H8F12384   0.797   3.036   5.495
  118OSM    H8G12385   0.827   3.194   5.555
  118OSM    C9F12386   0.628   3.173   5.464
  118OSM    H9F12387   0.543   3.209   5.523
  118OSM   C10F12388   0.629   3.182   5.335
  118OSM   H10F12389   0.530   3.211   5.297
  118OSM   C11F12390   0.743   3.148   5.239
  118OSM   H11F12391   0.751   3.043   5.203
  118OSM   H11G12392   0.844   3.173   5.278
  118OSM   C12F12393   0.723   3.232   5.112
  118OSM   H12F12394   0.716   3.341   5.131
  118OSM   H12G12395   0.621   3.211   5.072
  118OSM   C13F12396   0.826   3.209   5.004
  118OSM   H13F12397   0.828   3.099   4.986
  118OSM   H13G12398   0.924   3.235   5.049
  118OSM   C14F12399   0.802   3.278   4.876
  118OSM   H14F12400   0.781   3.387   4.881
  118OSM   H14G12401   0.710   3.228   4.838
  118OSM   C15F12402   0.915   3.262   4.770
  118OSM   H15F12403   0.968   3.169   4.799
  118OSM   H15G12404   0.983   3.343   4.806
  118OSM   C16F12405   0.879   3.264   4.621
  118OSM   H16F12406   0.838   3.366   4.602
  118OSM   H16G12407   0.805   3.188   4.589
  118OSM   C17F12408   1.003   3.258   4.525
  118OSM   H17F12409   1.025   3.149   4.528
  118OSM   H17G12410   1.087   3.317   4.568
  118OSM   C18F12411   0.963   3.293   4.382
  118OSM   H18F12412   0.938   3.401   4.375
  118OSM   H18G12413   0.871   3.233   4.363
  118OSM   H18H12414   1.053   3.268   4.322
  119OSM      N12415   2.833   1.434   6.930
  119OSM    C1512416   2.899   1.296   6.934
  119OSM   H15A12417   2.875   1.245   6.843
  119OSM   H15B12418   2.858   1.240   7.017
  119OSM   H15C12419   3.007   1.289   6.942
  119OSM    C1412420   2.688   1.415   6.906
  119OSM   H14A12421   2.635   1.372   6.989
  119OSM   H14B12422   2.667   1.358   6.817
  119OSM   H14C12423   2.642   1.510   6.882
  119OSM    C1312424   2.853   1.489   7.069
  119OSM   H13A12425   2.959   1.492   7.093
  119OSM   H13B12426   2.795   1.438   7.144
  119OSM   H13C12427   2.815   1.590   7.076
  119OSM    C1212428   2.896   1.523   6.823
  119OSM   H12A12429   2.993   1.554   6.860
  119OSM   H12B12430   2.833   1.610   6.819
  119OSM    C1112431   2.923   1.469   6.679
  119OSM   H11A12432   3.003   1.396   6.654
  119OSM   H11B12433   2.944   1.559   6.617
  119OSM      P12434   2.678   1.487   6.566
  119OSM    O1312435   2.574   1.385   6.577
  119OSM    O1412436   2.662   1.622   6.640
  119OSM    O1112437   2.720   1.512   6.413
  119OSM    O1212438   2.801   1.415   6.634
  119OSM    C1S12439   2.811   1.418   6.353
  119OSM    H1S12440   2.793   1.312   6.379
  119OSM    H1T12441   2.914   1.434   6.391
  119OSM     NF12442   2.854   1.326   6.126
  119OSM    HNF12443   2.944   1.329   6.083
  119OSM    C2S12444   2.816   1.439   6.204
  119OSM    H2S12445   2.712   1.463   6.175
  119OSM    C3S12446   2.894   1.567   6.159
  119OSM    H3S12447   2.995   1.567   6.206
  119OSM     O312448   2.832   1.677   6.222
  119OSM    HO312449   2.767   1.636   6.279
  119OSM    C4S12450   2.896   1.588   6.007
  119OSM    H4S12451   2.967   1.517   5.962
  119OSM    C5S12452   2.816   1.674   5.941
  119OSM    H5S12453   2.743   1.734   5.999
  119OSM    C6S12454   2.814   1.698   5.793
  119OSM    H6S12455   2.874   1.790   5.772
  119OSM    H6T12456   2.709   1.691   5.757
  119OSM    C7S12457   2.888   1.595   5.704
  119OSM    H7S12458   2.828   1.502   5.708
  119OSM    H7T12459   2.987   1.581   5.753
  119OSM    C8S12460   2.887   1.646   5.564
  119OSM    H8S12461   2.987   1.686   5.538
  119OSM    H8T12462   2.808   1.724   5.548
  119OSM    C9S12463   2.850   1.541   5.463
  119OSM    H9S12464   2.764   1.479   5.495
  119OSM    H9T12465   2.938   1.473   5.452
  119OSM   C10S12466   2.826   1.605   5.320
  119OSM   H10S12467   2.918   1.656   5.286
  119OSM   H10T12468   2.749   1.684   5.335
  119OSM   C11S12469   2.798   1.498   5.222
  119OSM   H11S12470   2.699   1.451   5.240
  119OSM   H11T12471   2.870   1.414   5.231
  119OSM   C12S12472   2.792   1.541   5.080
  119OSM   H12S12473   2.896   1.577   5.064
  119OSM   H12T12474   2.731   1.632   5.064
  119OSM   C13S12475   2.748   1.421   4.988
  119OSM   H13S12476   2.638   1.424   4.971
  119OSM   H13T12477   2.762   1.323   5.039
  119OSM   C14S12478   2.818   1.424   4.854
  119OSM   H14S12479   2.928   1.417   4.863
  119OSM   H14T12480   2.802   1.523   4.805
  119OSM   C15S12481   2.760   1.310   4.774
  119OSM   H15S12482   2.654   1.331   4.750
  119OSM   H15T12483   2.773   1.218   4.834
  119OSM   C16S12484   2.828   1.284   4.641
  119OSM   H16S12485   2.937   1.265   4.643
  119OSM   H16T12486   2.816   1.378   4.584
  119OSM   C17S12487   2.761   1.168   4.558
  119OSM   H17S12488   2.827   1.157   4.470
  119OSM   H17T12489   2.659   1.195   4.523
  119OSM   C18S12490   2.742   1.033   4.627
  119OSM   H18S12491   2.822   1.028   4.704
  119OSM   H18T12492   2.746   0.952   4.552
  119OSM   H18U12493   2.646   1.016   4.679
  119OSM    C1F12494   2.782   1.211   6.119
  119OSM     OF12495   2.667   1.197   6.168
  119OSM    C2F12496   2.848   1.100   6.059
  119OSM    H2F12497   2.832   1.009   6.121
  119OSM    H2G12498   2.959   1.098   6.052
  119OSM    C3F12499   2.791   1.067   5.920
  119OSM    H3F12500   2.693   1.015   5.930
  119OSM    H3G12501   2.853   0.981   5.887
  119OSM    C4F12502   2.805   1.181   5.819
  119OSM    H4F12503   2.907   1.223   5.805
  119OSM    H4G12504   2.754   1.269   5.864
  119OSM    C5F12505   2.747   1.129   5.680
  119OSM    H5F12506   2.646   1.170   5.657
  119OSM    H5G12507   2.749   1.019   5.694
  119OSM    C6F12508   2.825   1.183   5.572
  119OSM    H6F12509   2.869   1.285   5.583
  119OSM    H6G12510   2.749   1.189   5.491
  119OSM    C7F12511   2.944   1.103   5.510
  119OSM    H7F12512   2.908   0.999   5.494
  119OSM    H7G12513   3.026   1.104   5.586
  119OSM    C8F12514   2.989   1.164   5.377
  119OSM    H8F12515   3.026   1.268   5.391
  119OSM    H8G12516   2.898   1.180   5.316
  119OSM    C9F12517   3.099   1.093   5.306
  119OSM    H9F12518   3.202   1.128   5.327
  119OSM   C10F12519   3.088   0.987   5.217
  119OSM   H10F12520   3.185   0.956   5.178
  119OSM   C11F12521   2.964   0.914   5.176
  119OSM   H11F12522   2.915   0.880   5.270
  119OSM   H11G12523   3.001   0.823   5.124
  119OSM   C12F12524   2.866   0.992   5.082
  119OSM   H12F12525   2.914   1.045   4.997
  119OSM   H12G12526   2.827   1.072   5.149
  119OSM   C13F12527   2.755   0.908   5.021
  119OSM   H13F12528   2.799   0.841   4.944
  119OSM   H13G12529   2.680   0.970   4.968
  119OSM   C14F12530   2.679   0.825   5.121
  119OSM   H14F12531   2.669   0.891   5.209
  119OSM   H14G12532   2.746   0.741   5.149
  119OSM   C15F12533   2.540   0.780   5.078
  119OSM   H15F12534   2.546   0.681   5.027
  119OSM   H15G12535   2.504   0.854   5.004
  119OSM   C16F12536   2.425   0.768   5.183
  119OSM   H16F12537   2.448   0.842   5.262
  119OSM   H16G12538   2.432   0.675   5.243
  119OSM   C17F12539   2.284   0.796   5.121
  119OSM   H17F12540   2.280   0.903   5.092
  119OSM   H17G12541   2.204   0.779   5.196
  119OSM   C18F12542   2.261   0.718   4.997
  119OSM   H18F12543   2.155   0.735   4.967
  119OSM   H18G12544   2.295   0.614   5.010
  119OSM   H18H12545   2.327   0.749   4.913
  120OSM      N12546   5.949   4.443   6.532
  120OSM    C1512547   5.993   4.350   6.644
  120OSM   H15A12548   6.043   4.260   6.611
  120OSM   H15B12549   5.902   4.317   6.693
  120OSM   H15C12550   6.054   4.398   6.719
  120OSM    C1412551   6.065   4.467   6.442
  120OSM   H14A12552   6.152   4.488   6.504
  120OSM   H14B12553   6.049   4.549   6.374
  120OSM   H14C12554   6.085   4.374   6.390
  120OSM    C1312555   5.846   4.378   6.445
  120OSM   H13A12556   5.747   4.367   6.487
  120OSM   H13B12557   5.881   4.283   6.406
  120OSM   H13C12558   5.836   4.438   6.355
  120OSM    C1212559   5.877   4.562   6.594
  120OSM   H12A12560   5.940   4.604   6.671
  120OSM   H12B12561   5.792   4.519   6.645
  120OSM    C1112562   5.841   4.667   6.493
  120OSM   H11A12563   5.744   4.712   6.525
  120OSM   H11B12564   5.829   4.629   6.390
  120OSM      P12565   5.937   4.886   6.594
  120OSM    O1312566   5.892   4.828   6.724
  120OSM    O1412567   6.064   4.958   6.600
  120OSM    O1112568   5.825   4.988   6.545
  120OSM    O1212569   5.941   4.766   6.491
  120OSM    C1S12570   5.833   5.043   6.414
  120OSM    H1S12571   5.895   4.985   6.343
  120OSM    H1T12572   5.867   5.148   6.428
  120OSM     NF12573   5.702   5.120   6.215
  120OSM    HNF12574   5.655   5.207   6.199
  120OSM    C2S12575   5.691   5.055   6.343
  120OSM    H2S12576   5.650   4.953   6.328
  120OSM    C3S12577   5.585   5.122   6.437
  120OSM    H3S12578   5.627   5.224   6.449
  120OSM     O312579   5.568   5.072   6.569
  120OSM    HO312580   5.641   5.010   6.579
  120OSM    C4S12581   5.450   5.142   6.363
  120OSM    H4S12582   5.440   5.236   6.307
  120OSM    C5S12583   5.338   5.060   6.372
  120OSM    H5S12584   5.354   4.978   6.443
  120OSM    C6S12585   5.206   5.077   6.301
  120OSM    H6S12586   5.123   5.076   6.375
  120OSM    H6T12587   5.187   4.989   6.236
  120OSM    C7S12588   5.181   5.200   6.206
  120OSM    H7S12589   5.214   5.290   6.262
  120OSM    H7T12590   5.075   5.203   6.174
  120OSM    C8S12591   5.260   5.183   6.075
  120OSM    H8S12592   5.232   5.090   6.021
  120OSM    H8T12593   5.368   5.180   6.100
  120OSM    C9S12594   5.242   5.299   5.974
  120OSM    H9S12595   5.313   5.266   5.895
  120OSM    H9T12596   5.282   5.400   6.000
  120OSM   C10S12597   5.102   5.311   5.904
  120OSM   H10S12598   5.026   5.363   5.966
  120OSM   H10T12599   5.072   5.204   5.893
  120OSM   C11S12600   5.112   5.369   5.765
  120OSM   H11S12601   5.190   5.310   5.712
  120OSM   H11T12602   5.149   5.474   5.767
  120OSM   C12S12603   4.975   5.366   5.696
  120OSM   H12S12604   4.909   5.442   5.741
  120OSM   H12T12605   4.935   5.264   5.716
  120OSM   C13S12606   4.979   5.394   5.543
  120OSM   H13S12607   4.876   5.386   5.503
  120OSM   H13T12608   5.033   5.317   5.485
  120OSM   C14S12609   5.027   5.530   5.516
  120OSM   H14S12610   5.128   5.545   5.559
  120OSM   H14T12611   4.968   5.602   5.577
  120OSM   C15S12612   5.020   5.576   5.372
  120OSM   H15S12613   5.033   5.686   5.359
  120OSM   H15T12614   4.920   5.562   5.326
  120OSM   C16S12615   5.119   5.500   5.284
  120OSM   H16S12616   5.092   5.393   5.293
  120OSM   H16T12617   5.224   5.517   5.318
  120OSM   C17S12618   5.126   5.538   5.138
  120OSM   H17S12619   5.115   5.649   5.133
  120OSM   H17T12620   5.032   5.501   5.091
  120OSM   C18S12621   5.240   5.481   5.055
  120OSM   H18S12622   5.211   5.375   5.035
  120OSM   H18T12623   5.340   5.482   5.104
  120OSM   H18U12624   5.246   5.543   4.964
  120OSM    C1F12625   5.771   5.066   6.121
  120OSM     OF12626   5.795   4.950   6.109
  120OSM    C2F12627   5.821   5.170   6.019
  120OSM    H2F12628   5.915   5.127   5.977
  120OSM    H2G12629   5.851   5.260   6.076
  120OSM    C3F12630   5.720   5.175   5.912
  120OSM    H3F12631   5.623   5.207   5.955
  120OSM    H3G12632   5.701   5.071   5.878
  120OSM    C4F12633   5.750   5.273   5.792
  120OSM    H4F12634   5.844   5.241   5.742
  120OSM    H4G12635   5.772   5.374   5.833
  120OSM    C5F12636   5.637   5.286   5.693
  120OSM    H5F12637   5.537   5.323   5.725
  120OSM    H5G12638   5.615   5.186   5.650
  120OSM    C6F12639   5.678   5.370   5.567
  120OSM    H6F12640   5.780   5.339   5.535
  120OSM    H6G12641   5.692   5.473   5.606
  120OSM    C7F12642   5.573   5.382   5.459
  120OSM    H7F12643   5.486   5.428   5.511
  120OSM    H7G12644   5.548   5.280   5.421
  120OSM    C8F12645   5.617   5.464   5.337
  120OSM    H8F12646   5.634   5.567   5.374
  120OSM    H8G12647   5.528   5.443   5.274
  120OSM    C9F12648   5.750   5.416   5.280
  120OSM    H9F12649   5.824   5.363   5.342
  120OSM   C10F12650   5.785   5.414   5.150
  120OSM   H10F12651   5.882   5.368   5.124
  120OSM   C11F12652   5.708   5.480   5.040
  120OSM   H11F12653   5.774   5.531   4.967
  120OSM   H11G12654   5.641   5.559   5.080
  120OSM   C12F12655   5.609   5.369   4.991
  120OSM   H12F12656   5.535   5.349   5.071
  120OSM   H12G12657   5.662   5.275   4.961
  120OSM   C13F12658   5.529   5.385   4.861
  120OSM   H13F12659   5.594   5.409   4.775
  120OSM   H13G12660   5.466   5.473   4.885
  120OSM   C14F12661   5.436   5.266   4.821
  120OSM   H14F12662   5.372   5.230   4.904
  120OSM   H14G12663   5.509   5.185   4.799
  120OSM   C15F12664   5.347   5.290   4.703
  120OSM   H15F12665   5.348   5.201   4.637
  120OSM   H15G12666   5.389   5.369   4.637
  120OSM   C16F12667   5.202   5.325   4.733
  120OSM   H16F12668   5.202   5.424   4.784
  120OSM   H16G12669   5.157   5.242   4.792
  120OSM   C17F12670   5.116   5.337   4.599
  120OSM   H17F12671   5.143   5.257   4.527
  120OSM   H17G12672   5.155   5.422   4.538
  120OSM   C18F12673   4.963   5.340   4.611
  120OSM   H18F12674   4.917   5.348   4.510
  120OSM   H18G12675   4.922   5.434   4.656
  120OSM   H18H12676   4.914   5.251   4.656
  121OSM      N12677   0.001   1.986   6.909
  121OSM    C1512678   0.078   2.097   6.962
  121OSM   H15A12679   0.018   2.148   7.036
  121OSM   H15B12680   0.080   2.169   6.881
  121OSM   H15C12681   0.178   2.076   6.997
  121OSM    C1412682   6.876   1.881   7.021
  121OSM   H14A12683   0.089   1.864   7.067
  121OSM   H14B12684   6.849   1.782   6.985
  121OSM   H14C12685   6.796   1.911   7.087
  121OSM    C1312686   6.752   2.038   6.876
  121OSM   H13A12687   6.756   2.101   6.788
  121OSM   H13B12688   6.712   2.089   6.962
  121OSM   H13C12689   6.684   1.955   6.861
  121OSM    C1212690   0.068   1.922   6.785
  121OSM   H12A12691   0.156   1.867   6.814
  121OSM   H12B12692   0.086   2.000   6.712
  121OSM    C1112693   6.868   1.817   6.706
  121OSM   H11A12694   0.045   1.788   6.617
  121OSM   H11B12695   6.770   1.855   6.672
  121OSM      P12696   0.077   1.605   6.826
  121OSM    O1312697   0.205   1.653   6.766
  121OSM    O1412698   0.070   1.584   6.971
  121OSM    O1112699   0.030   1.476   6.749
  121OSM    O1212700   6.841   1.706   6.790
  121OSM    C1S12701   6.801   1.482   6.652
  121OSM    H1S12702   6.763   1.586   6.638
  121OSM    H1T12703   6.719   1.418   6.690
  121OSM     NF12704   6.740   1.436   6.407
  121OSM    HNF12705   6.685   1.357   6.380
  121OSM    C2S12706   6.836   1.411   6.513
  121OSM    H2S12707   0.049   1.455   6.477
  121OSM    C3S12708   6.853   1.259   6.543
  121OSM    H3S12709   6.757   1.227   6.590
  121OSM     O312710   0.080   1.231   6.633
  121OSM    HO312711   0.092   1.315   6.678
  121OSM    C4S12712   0.001   1.184   6.413
  121OSM    H4S12713   0.099   1.195   6.363
  121OSM    C5S12714   6.815   1.088   6.347
  121OSM    H5S12715   6.717   1.055   6.384
  121OSM    C6S12716   6.841   1.011   6.217
  121OSM    H6S12717   6.832   0.901   6.236
  121OSM    H6T12718   0.059   1.030   6.175
  121OSM    C7S12719   6.743   1.035   6.108
  121OSM    H7S12720   6.743   1.145   6.087
  121OSM    H7T12721   6.637   1.017   6.132
  121OSM    C8S12722   6.772   0.943   5.993
  121OSM    H8S12723   6.771   0.843   6.040
  121OSM    H8T12724   6.865   0.954   5.934
  121OSM    C9S12725   6.653   0.950   5.895
  121OSM    H9S12726   6.639   1.052   5.854
  121OSM    H9T12727   6.561   0.938   5.955
  121OSM   C10S12728   6.646   0.835   5.793
  121OSM   H10S12729   6.662   0.735   5.840
  121OSM   H10T12730   6.731   0.854   5.724
  121OSM   C11S12731   6.522   0.834   5.709
  121OSM   H11S12732   6.511   0.929   5.653
  121OSM   H11T12733   6.429   0.816   5.768
  121OSM   C12S12734   6.537   0.732   5.592
  121OSM   H12S12735   6.437   0.687   5.579
  121OSM   H12T12736   6.595   0.649   5.636
  121OSM   C13S12737   6.596   0.784   5.466
  121OSM   H13S12738   6.578   0.712   5.383
  121OSM   H13T12739   6.706   0.799   5.473
  121OSM   C14S12740   6.533   0.912   5.408
  121OSM   H14S12741   6.552   1.003   5.470
  121OSM   H14T12742   6.422   0.910   5.402
  121OSM   C15S12743   6.593   0.947   5.272
  121OSM   H15S12744   6.562   0.874   5.194
  121OSM   H15T12745   6.704   0.949   5.280
  121OSM   C16S12746   6.534   1.085   5.228
  121OSM   H16S12747   6.562   1.164   5.301
  121OSM   H16T12748   6.426   1.078   5.203
  121OSM   C17S12749   6.600   1.143   5.097
  121OSM   H17S12750   6.710   1.150   5.116
  121OSM   H17T12751   6.556   1.244   5.084
  121OSM   C18S12752   6.570   1.054   4.983
  121OSM   H18S12753   6.639   1.079   4.899
  121OSM   H18T12754   6.465   1.076   4.954
  121OSM   H18U12755   6.581   0.947   5.012
  121OSM    C1F12756   6.731   1.557   6.343
  121OSM     OF12757   6.784   1.654   6.389
  121OSM    C2F12758   6.673   1.561   6.198
  121OSM    H2F12759   6.701   1.658   6.150
  121OSM    H2G12760   6.564   1.559   6.218
  121OSM    C3F12761   6.707   1.441   6.105
  121OSM    H3F12762   6.702   1.343   6.158
  121OSM    H3G12763   6.810   1.453   6.064
  121OSM    C4F12764   6.630   1.450   5.971
  121OSM    H4F12765   6.670   1.536   5.913
  121OSM    H4G12766   6.520   1.466   5.977
  121OSM    C5F12767   6.646   1.322   5.882
  121OSM    H5F12768   6.601   1.238   5.938
  121OSM    H5G12769   6.753   1.294   5.870
  121OSM    C6F12770   6.568   1.322   5.752
  121OSM    H6F12771   6.465   1.357   5.776
  121OSM    H6G12772   6.566   1.223   5.701
  121OSM    C7F12773   6.627   1.431   5.656
  121OSM    H7F12774   6.728   1.389   5.642
  121OSM    H7G12775   6.636   1.525   5.714
  121OSM    C8F12776   6.555   1.452   5.518
  121OSM    H8F12777   6.546   1.349   5.479
  121OSM    H8G12778   6.612   1.514   5.445
  121OSM    C9F12779   6.421   1.519   5.538
  121OSM    H9F12780   6.384   1.542   5.639
  121OSM   C10F12781   6.365   1.577   5.439
  121OSM   H10F12782   6.271   1.633   5.457
  121OSM   C11F12783   6.413   1.574   5.294
  121OSM   H11F12784   6.465   1.478   5.272
  121OSM   H11G12785   6.471   1.664   5.265
  121OSM   C12F12786   6.287   1.568   5.202
  121OSM   H12F12787   6.231   1.664   5.209
  121OSM   H12G12788   6.220   1.487   5.238
  121OSM   C13F12789   6.318   1.541   5.047
  121OSM   H13F12790   6.221   1.516   4.999
  121OSM   H13G12791   6.389   1.457   5.032
  121OSM   C14F12792   6.361   1.674   4.986
  121OSM   H14F12793   6.450   1.709   5.041
  121OSM   H14G12794   6.277   1.745   5.005
  121OSM   C15F12795   6.391   1.657   4.828
  121OSM   H15F12796   6.300   1.617   4.779
  121OSM   H15G12797   6.465   1.575   4.823
  121OSM   C16F12798   6.443   1.787   4.770
  121OSM   H16F12799   6.533   1.791   4.836
  121OSM   H16G12800   6.375   1.870   4.798
  121OSM   C17F12801   6.475   1.770   4.624
  121OSM   H17F12802   6.379   1.747   4.573
  121OSM   H17G12803   6.544   1.684   4.608
  121OSM   C18F12804   6.541   1.893   4.566
  121OSM   H18F12805   6.572   1.870   4.462
  121OSM   H18G12806   6.636   1.907   4.621
  121OSM   H18H12807   6.480   1.986   4.567
  122OSM      N12808   6.214   3.468   6.620
  122OSM    C1512809   6.072   3.508   6.636
  122OSM   H15A12810   6.067   3.582   6.715
  122OSM   H15B12811   6.010   3.424   6.663
  122OSM   H15C12812   6.028   3.556   6.549
  122OSM    C1412813   6.267   3.421   6.753
  122OSM   H14A12814   6.290   3.504   6.817
  122OSM   H14B12815   6.365   3.383   6.727
  122OSM   H14C12816   6.210   3.346   6.806
  122OSM    C1312817   6.225   3.365   6.521
  122OSM   H13A12818   6.324   3.323   6.523
  122OSM   H13B12819   6.199   3.390   6.419
  122OSM   H13C12820   6.162   3.281   6.546
  122OSM    C1212821   6.306   3.584   6.575
  122OSM   H12A12822   6.310   3.660   6.652
  122OSM   H12B12823   6.265   3.624   6.483
  122OSM    C1112824   6.453   3.542   6.542
  122OSM   H11A12825   6.458   3.468   6.460
  122OSM   H11B12826   6.502   3.488   6.626
  122OSM      P12827   6.583   3.755   6.609
  122OSM    O1312828   6.482   3.763   6.717
  122OSM    O1412829   6.718   3.713   6.642
  122OSM    O1112830   6.576   3.890   6.531
  122OSM    O1212831   6.530   3.653   6.510
  122OSM    C1S12832   6.635   3.915   6.407
  122OSM    H1S12833   6.572   3.858   6.335
  122OSM    H1T12834   6.743   3.889   6.408
  122OSM     NF12835   6.663   4.076   6.218
  122OSM    HNF12836   6.758   4.105   6.204
  122OSM    C2S12837   6.618   4.065   6.361
  122OSM    H2S12838   6.511   4.097   6.368
  122OSM    C3S12839   6.688   4.153   6.474
  122OSM    H3S12840   6.793   4.117   6.475
  122OSM     O312841   6.638   4.139   6.609
  122OSM    HO312842   6.590   4.056   6.614
  122OSM    C4S12843   6.679   4.299   6.432
  122OSM    H4S12844   6.766   4.337   6.375
  122OSM    C5S12845   6.589   4.395   6.463
  122OSM    H5S12846   6.499   4.368   6.520
  122OSM    C6S12847   6.595   4.536   6.408
  122OSM    H6S12848   6.699   4.566   6.382
  122OSM    H6T12849   6.554   4.612   6.478
  122OSM    C7S12850   6.510   4.553   6.278
  122OSM    H7S12851   6.528   4.659   6.249
  122OSM    H7T12852   6.404   4.546   6.309
  122OSM    C8S12853   6.550   4.460   6.163
  122OSM    H8S12854   6.483   4.372   6.157
  122OSM    H8T12855   6.657   4.431   6.172
  122OSM    C9S12856   6.520   4.529   6.030
  122OSM    H9S12857   6.547   4.454   5.953
  122OSM    H9T12858   6.588   4.611   5.996
  122OSM   C10S12859   6.375   4.565   6.029
  122OSM   H10S12860   6.355   4.653   6.094
  122OSM   H10T12861   6.313   4.482   6.071
  122OSM   C11S12862   6.320   4.596   5.890
  122OSM   H11S12863   6.344   4.513   5.820
  122OSM   H11T12864   6.370   4.688   5.851
  122OSM   C12S12865   6.164   4.626   5.891
  122OSM   H12S12866   6.152   4.683   5.985
  122OSM   H12T12867   6.105   4.534   5.911
  122OSM   C13S12868   6.116   4.692   5.761
  122OSM   H13S12869   6.130   4.624   5.675
  122OSM   H13T12870   6.179   4.781   5.739
  122OSM   C14S12871   5.968   4.734   5.758
  122OSM   H14S12872   5.942   4.789   5.664
  122OSM   H14T12873   5.946   4.808   5.838
  122OSM   C15S12874   5.877   4.609   5.764
  122OSM   H15S12875   5.869   4.547   5.856
  122OSM   H15T12876   5.917   4.549   5.680
  122OSM   C16S12877   5.735   4.631   5.708
  122OSM   H16S12878   5.705   4.732   5.743
  122OSM   H16T12879   5.674   4.550   5.753
  122OSM   C17S12880   5.710   4.631   5.555
  122OSM   H17S12881   5.780   4.557   5.511
  122OSM   H17T12882   5.752   4.727   5.520
  122OSM   C18S12883   5.570   4.612   5.498
  122OSM   H18S12884   5.502   4.548   5.559
  122OSM   H18T12885   5.564   4.569   5.396
  122OSM   H18U12886   5.512   4.706   5.499
  122OSM    C1F12887   6.591   4.015   6.119
  122OSM     OF12888   6.474   3.976   6.145
  122OSM    C2F12889   6.650   3.996   5.981
  122OSM    H2F12890   6.607   3.901   5.944
  122OSM    H2G12891   6.760   3.993   5.998
  122OSM    C3F12892   6.627   4.126   5.884
  122OSM    H3F12893   6.696   4.205   5.921
  122OSM    H3G12894   6.519   4.152   5.892
  122OSM    C4F12895   6.667   4.095   5.742
  122OSM    H4F12896   6.647   3.988   5.725
  122OSM    H4G12897   6.777   4.113   5.733
  122OSM    C5F12898   6.608   4.190   5.628
  122OSM    H5F12899   6.649   4.291   5.648
  122OSM    H5G12900   6.498   4.197   5.642
  122OSM    C6F12901   6.662   4.153   5.490
  122OSM    H6F12902   6.626   4.050   5.470
  122OSM    H6G12903   6.773   4.155   5.485
  122OSM    C7F12904   6.605   4.250   5.386
  122OSM    H7F12905   6.629   4.354   5.417
  122OSM    H7G12906   6.496   4.232   5.378
  122OSM    C8F12907   6.673   4.235   5.247
  122OSM    H8F12908   6.646   4.137   5.204
  122OSM    H8G12909   6.783   4.230   5.261
  122OSM    C9F12910   6.647   4.348   5.161
  122OSM    H9F12911   6.606   4.439   5.208
  122OSM   C10F12912   6.687   4.362   5.035
  122OSM   H10F12913   6.691   4.456   4.977
  122OSM   C11F12914   6.752   4.251   4.967
  122OSM   H11F12915   6.796   4.184   5.044
  122OSM   H11G12916   6.836   4.287   4.904
  122OSM   C12F12917   6.664   4.171   4.872
  122OSM   H12F12918   6.643   4.241   4.788
  122OSM   H12G12919   6.571   4.127   4.915
  122OSM   C13F12920   6.734   4.051   4.813
  122OSM   H13F12921   6.774   3.981   4.890
  122OSM   H13G12922   6.826   4.071   4.755
  122OSM   C14F12923   6.642   3.958   4.734
  122OSM   H14F12924   6.545   3.938   4.786
  122OSM   H14G12925   6.699   3.864   4.723
  122OSM   C15F12926   6.612   4.017   4.598
  122OSM   H15F12927   6.581   4.123   4.612
  122OSM   H15G12928   6.521   3.973   4.553
  122OSM   C16F12929   6.724   3.986   4.502
  122OSM   H16F12930   6.709   3.884   4.462
  122OSM   H16G12931   6.826   4.001   4.543
  122OSM   C17F12932   6.711   4.075   4.369
  122OSM   H17F12933   6.603   4.070   4.343
  122OSM   H17G12934   6.767   4.023   4.289
  122OSM   C18F12935   6.753   4.217   4.385
  122OSM   H18F12936   6.849   4.238   4.437
  122OSM   H18G12937   6.680   4.268   4.451
  122OSM   H18H12938   6.747   4.278   4.292
  123OSM      N12939   2.685   2.244   1.609
  123OSM    C1512940   2.716   2.192   1.468
  123OSM   H15A12941   2.769   2.269   1.415
  123OSM   H15B12942   2.629   2.160   1.412
  123OSM   H15C12943   2.779   2.106   1.485
  123OSM    C1412944   2.808   2.311   1.669
  123OSM   H14A12945   2.821   2.409   1.625
  123OSM   H14B12946   2.904   2.264   1.650
  123OSM   H14C12947   2.788   2.348   1.768
  123OSM    C1312948   2.577   2.349   1.590
  123OSM   H13A12949   2.567   2.411   1.678
  123OSM   H13B12950   2.484   2.298   1.571
  123OSM   H13C12951   2.610   2.416   1.512
  123OSM    C1212952   2.648   2.126   1.696
  123OSM   H12A12953   2.734   2.061   1.702
  123OSM   H12B12954   2.568   2.069   1.651
  123OSM    C1112955   2.608   2.142   1.849
  123OSM   H11A12956   2.566   2.045   1.884
  123OSM   H11B12957   2.532   2.224   1.852
  123OSM      P12958   2.783   2.109   2.043
  123OSM    O1312959   2.727   1.974   2.043
  123OSM    O1412960   2.929   2.129   2.053
  123OSM    O1112961   2.724   2.192   2.158
  123OSM    O1212962   2.731   2.182   1.911
  123OSM    C1S12963   2.583   2.203   2.167
  123OSM    H1S12964   2.527   2.111   2.140
  123OSM    H1T12965   2.543   2.282   2.100
  123OSM     NF12966   2.399   2.233   2.344
  123OSM    HNF12967   2.343   2.315   2.337
  123OSM    C2S12968   2.540   2.250   2.313
  123OSM    H2S12969   2.590   2.181   2.385
  123OSM    C3S12970   2.585   2.388   2.335
  123OSM    H3S12971   2.549   2.461   2.260
  123OSM     O312972   2.725   2.397   2.332
  123OSM    HO312973   2.746   2.324   2.274
  123OSM    C4S12974   2.539   2.422   2.472
  123OSM    H4S12975   2.464   2.502   2.470
  123OSM    C5S12976   2.590   2.388   2.590
  123OSM    H5S12977   2.671   2.313   2.590
  123OSM    C6S12978   2.563   2.453   2.720
  123OSM    H6S12979   2.626   2.545   2.726
  123OSM    H6T12980   2.613   2.393   2.799
  123OSM    C7S12981   2.412   2.486   2.741
  123OSM    H7S12982   2.348   2.400   2.712
  123OSM    H7T12983   2.400   2.580   2.683
  123OSM    C8S12984   2.376   2.533   2.887
  123OSM    H8S12985   2.272   2.571   2.888
  123OSM    H8T12986   2.438   2.622   2.911
  123OSM    C9S12987   2.406   2.429   2.998
  123OSM    H9S12988   2.515   2.412   3.003
  123OSM    H9T12989   2.368   2.328   2.973
  123OSM   C10S12990   2.356   2.480   3.133
  123OSM   H10S12991   2.339   2.385   3.187
  123OSM   H10T12992   2.258   2.534   3.131
  123OSM   C11S12993   2.458   2.549   3.224
  123OSM   H11S12994   2.499   2.639   3.174
  123OSM   H11T12995   2.537   2.475   3.246
  123OSM   C12S12996   2.387   2.595   3.352
  123OSM   H12S12997   2.393   2.506   3.418
  123OSM   H12T12998   2.285   2.628   3.322
  123OSM   C13S12999   2.465   2.703   3.424
  123OSM   H13S13000   2.438   2.795   3.370
  123OSM   H13T13001   2.573   2.681   3.418
  123OSM   C14S13002   2.436   2.711   3.576
  123OSM   H14S13003   2.327   2.719   3.598
  123OSM   H14T13004   2.483   2.808   3.604
  123OSM   C15S13005   2.496   2.596   3.656
  123OSM   H15S13006   2.604   2.617   3.673
  123OSM   H15T13007   2.473   2.494   3.618
  123OSM   C16S13008   2.437   2.603   3.800
  123OSM   H16S13009   2.328   2.582   3.795
  123OSM   H16T13010   2.453   2.706   3.838
  123OSM   C17S13011   2.493   2.489   3.886
  123OSM   H17S13012   2.599   2.522   3.896
  123OSM   H17T13013   2.478   2.391   3.835
  123OSM   C18S13014   2.419   2.480   4.024
  123OSM   H18S13015   2.310   2.465   4.013
  123OSM   H18T13016   2.428   2.568   4.092
  123OSM   H18U13017   2.469   2.398   4.079
  123OSM    C1F13018   2.352   2.113   2.369
  123OSM     OF13019   2.431   2.022   2.390
  123OSM    C2F13020   2.204   2.082   2.367
  123OSM    H2F13021   2.179   2.029   2.272
  123OSM    H2G13022   2.147   2.177   2.371
  123OSM    C3F13023   2.164   1.996   2.489
  123OSM    H3F13024   2.233   1.909   2.499
  123OSM    H3G13025   2.060   1.963   2.467
  123OSM    C4F13026   2.167   2.077   2.626
  123OSM    H4F13027   2.101   2.166   2.634
  123OSM    H4G13028   2.268   2.115   2.652
  123OSM    C5F13029   2.120   1.993   2.749
  123OSM    H5F13030   2.178   1.898   2.753
  123OSM    H5G13031   2.013   1.981   2.724
  123OSM    C6F13032   2.133   2.068   2.881
  123OSM    H6F13033   2.061   2.152   2.878
  123OSM    H6G13034   2.236   2.108   2.890
  123OSM    C7F13035   2.081   1.979   2.994
  123OSM    H7F13036   2.140   1.886   3.009
  123OSM    H7G13037   1.977   1.948   2.972
  123OSM    C8F13038   2.065   2.046   3.133
  123OSM    H8F13039   2.023   1.960   3.190
  123OSM    H8G13040   1.985   2.124   3.131
  123OSM    C9F13041   2.198   2.103   3.193
  123OSM    H9F13042   2.256   2.182   3.143
  123OSM   C10F13043   2.245   2.056   3.309
  123OSM   H10F13044   2.333   2.108   3.350
  123OSM   C11F13045   2.182   1.954   3.399
  123OSM   H11F13046   2.252   1.873   3.431
  123OSM   H11G13047   2.090   1.911   3.353
  123OSM   C12F13048   2.122   2.022   3.523
  123OSM   H12F13049   2.064   2.114   3.498
  123OSM   H12G13050   2.207   2.058   3.585
  123OSM   C13F13051   2.037   1.922   3.601
  123OSM   H13F13052   2.093   1.829   3.622
  123OSM   H13G13053   1.953   1.886   3.538
  123OSM   C14F13054   1.983   1.979   3.729
  123OSM   H14F13055   1.932   2.077   3.714
  123OSM   H14G13056   2.060   2.016   3.799
  123OSM   C15F13057   1.878   1.888   3.797
  123OSM   H15F13058   1.932   1.794   3.821
  123OSM   H15G13059   1.790   1.871   3.731
  123OSM   C16F13060   1.812   1.942   3.927
  123OSM   H16F13061   1.897   1.948   3.999
  123OSM   H16G13062   1.736   1.875   3.972
  123OSM   C17F13063   1.756   2.081   3.909
  123OSM   H17F13064   1.833   2.154   3.877
  123OSM   H17G13065   1.710   2.109   4.006
  123OSM   C18F13066   1.661   2.107   3.793
  123OSM   H18F13067   1.694   2.069   3.694
  123OSM   H18G13068   1.648   2.214   3.768
  123OSM   H18H13069   1.561   2.064   3.816
  124OSM      N13070   2.194   3.694   1.925
  124OSM    C1513071   2.075   3.787   1.947
  124OSM   H15A13072   2.018   3.747   2.030
  124OSM   H15B13073   2.011   3.769   1.862
  124OSM   H15C13074   2.095   3.892   1.954
  124OSM    C1413075   2.135   3.563   1.889
  124OSM   H14A13076   2.200   3.483   1.858
  124OSM   H14B13077   2.058   3.584   1.817
  124OSM   H14C13078   2.090   3.526   1.980
  124OSM    C1313079   2.272   3.755   1.814
  124OSM   H13A13080   2.344   3.682   1.779
  124OSM   H13B13081   2.317   3.851   1.836
  124OSM   H13C13082   2.206   3.781   1.733
  124OSM    C1213083   2.282   3.692   2.048
  124OSM   H12A13084   2.210   3.689   2.129
  124OSM   H12B13085   2.335   3.786   2.048
  124OSM    C1113086   2.384   3.577   2.057
  124OSM   H11A13087   2.329   3.481   2.048
  124OSM   H11B13088   2.427   3.581   2.160
  124OSM      P13089   2.522   3.459   1.879
  124OSM    O1313090   2.397   3.422   1.809
  124OSM    O1413091   2.648   3.489   1.802
  124OSM    O1113092   2.545   3.348   1.985
  124OSM    O1213093   2.496   3.585   1.969
  124OSM    C1S13094   2.668   3.332   2.057
  124OSM    H1S13095   2.759   3.374   2.010
  124OSM    H1T13096   2.675   3.222   2.061
  124OSM     NF13097   2.776   3.357   2.275
  124OSM    HNF13098   2.787   3.286   2.345
  124OSM    C2S13099   2.655   3.381   2.204
  124OSM    H2S13100   2.632   3.489   2.210
  124OSM    C3S13101   2.533   3.304   2.278
  124OSM    H3S13102   2.572   3.203   2.301
  124OSM     O313103   2.414   3.281   2.199
  124OSM    HO313104   2.435   3.325   2.117
  124OSM    C4S13105   2.498   3.371   2.406
  124OSM    H4S13106   2.569   3.341   2.484
  124OSM    C5S13107   2.386   3.448   2.433
  124OSM    H5S13108   2.311   3.466   2.355
  124OSM    C6S13109   2.361   3.495   2.573
  124OSM    H6S13110   2.253   3.522   2.583
  124OSM    H6T13111   2.405   3.594   2.599
  124OSM    C7S13112   2.396   3.397   2.687
  124OSM    H7S13113   2.504   3.372   2.694
  124OSM    H7T13114   2.336   3.305   2.671
  124OSM    C8S13115   2.362   3.459   2.825
  124OSM    H8S13116   2.261   3.506   2.822
  124OSM    H8T13117   2.432   3.541   2.852
  124OSM    C9S13118   2.357   3.350   2.930
  124OSM    H9S13119   2.436   3.271   2.930
  124OSM    H9T13120   2.265   3.291   2.911
  124OSM   C10S13121   2.359   3.405   3.076
  124OSM   H10S13122   2.277   3.479   3.085
  124OSM   H10T13123   2.457   3.456   3.090
  124OSM   C11S13124   2.343   3.284   3.173
  124OSM   H11S13125   2.441   3.240   3.199
  124OSM   H11T13126   2.286   3.204   3.120
  124OSM   C12S13127   2.280   3.324   3.305
  124OSM   H12S13128   2.170   3.334   3.295
  124OSM   H12T13129   2.318   3.418   3.350
  124OSM   C13S13130   2.291   3.207   3.403
  124OSM   H13S13131   2.395   3.170   3.419
  124OSM   H13T13132   2.229   3.126   3.358
  124OSM   C14S13133   2.242   3.244   3.546
  124OSM   H14S13134   2.133   3.267   3.549
  124OSM   H14T13135   2.301   3.331   3.582
  124OSM   C15S13136   2.278   3.130   3.644
  124OSM   H15S13137   2.387   3.109   3.642
  124OSM   H15T13138   2.226   3.037   3.613
  124OSM   C16S13139   2.230   3.174   3.786
  124OSM   H16S13140   2.124   3.203   3.769
  124OSM   H16T13141   2.288   3.263   3.818
  124OSM   C17S13142   2.247   3.068   3.894
  124OSM   H17S13143   2.354   3.049   3.918
  124OSM   H17T13144   2.208   2.966   3.875
  124OSM   C18S13145   2.185   3.114   4.027
  124OSM   H18S13146   2.231   3.211   4.055
  124OSM   H18T13147   2.208   3.047   4.114
  124OSM   H18U13148   2.077   3.130   4.009
  124OSM    C1F13149   2.888   3.416   2.249
  124OSM     OF13150   2.881   3.518   2.177
  124OSM    C2F13151   3.010   3.359   2.320
  124OSM    H2F13152   3.093   3.372   2.247
  124OSM    H2G13153   3.003   3.250   2.335
  124OSM    C3F13154   3.034   3.431   2.451
  124OSM    H3F13155   2.948   3.437   2.521
  124OSM    H3G13156   3.053   3.537   2.424
  124OSM    C4F13157   3.163   3.390   2.524
  124OSM    H4F13158   3.236   3.383   2.440
  124OSM    H4G13159   3.151   3.291   2.574
  124OSM    C5F13160   3.222   3.499   2.621
  124OSM    H5F13161   3.225   3.595   2.565
  124OSM    H5G13162   3.331   3.479   2.630
  124OSM    C6F13163   3.144   3.510   2.758
  124OSM    H6F13164   3.137   3.411   2.810
  124OSM    H6G13165   3.038   3.537   2.736
  124OSM    C7F13166   3.206   3.614   2.858
  124OSM    H7F13167   3.221   3.713   2.812
  124OSM    H7G13168   3.306   3.569   2.873
  124OSM    C8F13169   3.130   3.639   2.989
  124OSM    H8F13170   3.025   3.629   2.954
  124OSM    H8G13171   3.141   3.745   3.022
  124OSM    C9F13172   3.171   3.536   3.093
  124OSM    H9F13173   3.163   3.431   3.060
  124OSM   C10F13174   3.214   3.572   3.217
  124OSM   H10F13175   3.251   3.496   3.287
  124OSM   C11F13176   3.234   3.714   3.266
  124OSM   H11F13177   3.171   3.794   3.222
  124OSM   H11G13178   3.341   3.741   3.270
  124OSM   C12F13179   3.181   3.726   3.415
  124OSM   H12F13180   3.196   3.829   3.453
  124OSM   H12G13181   3.244   3.661   3.480
  124OSM   C13F13182   3.025   3.700   3.429
  124OSM   H13F13183   2.986   3.596   3.418
  124OSM   H13G13184   2.973   3.761   3.352
  124OSM   C14F13185   2.973   3.737   3.570
  124OSM   H14F13186   2.869   3.700   3.576
  124OSM   H14G13187   2.984   3.846   3.592
  124OSM   C15F13188   3.043   3.661   3.680
  124OSM   H15F13189   3.147   3.693   3.698
  124OSM   H15G13190   3.036   3.552   3.661
  124OSM   C16F13191   2.967   3.664   3.818
  124OSM   H16F13192   3.029   3.611   3.894
  124OSM   H16G13193   2.885   3.591   3.804
  124OSM   C17F13194   2.925   3.796   3.874
  124OSM   H17F13195   2.869   3.862   3.805
  124OSM   H17G13196   3.019   3.853   3.888
  124OSM   C18F13197   2.853   3.797   4.006
  124OSM   H18F13198   2.826   3.898   4.046
  124OSM   H18G13199   2.925   3.765   4.084
  124OSM   H18H13200   2.763   3.732   4.003
  125OSM      N13201   4.246   6.163   2.363
  125OSM    C1513202   4.305   6.158   2.222
  125OSM   H15A13203   4.246   6.108   2.147
  125OSM   H15B13204   4.401   6.107   2.220
  125OSM   H15C13205   4.327   6.260   2.194
  125OSM    C1413206   4.110   6.228   2.358
  125OSM   H14A13207   4.043   6.189   2.284
  125OSM   H14B13208   4.114   6.332   2.328
  125OSM   H14C13209   4.061   6.220   2.454
  125OSM    C1313210   4.222   6.023   2.402
  125OSM   H13A13211   4.130   6.001   2.350
  125OSM   H13B13212   4.201   6.012   2.507
  125OSM   H13C13213   4.299   5.959   2.362
  125OSM    C1213214   4.327   6.228   2.469
  125OSM   H12A13215   4.411   6.164   2.495
  125OSM   H12B13216   4.267   6.238   2.559
  125OSM    C1113217   4.386   6.358   2.428
  125OSM   H11A13218   4.460   6.341   2.347
  125OSM   H11B13219   4.446   6.398   2.513
  125OSM      P13220   4.314   6.595   2.349
  125OSM    O1313221   4.455   6.609   2.386
  125OSM    O1413222   4.279   6.609   2.205
  125OSM    O1113223   4.232   6.684   2.441
  125OSM    O1213224   4.276   6.449   2.394
  125OSM    C1S13225   4.196   6.648   2.573
  125OSM    H1S13226   4.227   6.547   2.608
  125OSM    H1T13227   4.086   6.646   2.586
  125OSM     NF13228   4.178   6.728   2.810
  125OSM    HNF13229   4.112   6.792   2.848
  125OSM    C2S13230   4.251   6.745   2.685
  125OSM    H2S13231   4.358   6.722   2.701
  125OSM    C3S13232   4.245   0.016   2.627
  125OSM    H3S13233   4.140   0.033   2.594
  125OSM     O313234   4.339   0.047   2.523
  125OSM    HO313235   4.363   6.846   2.482
  125OSM    C4S13236   4.282   0.104   2.740
  125OSM    H4S13237   4.383   0.086   2.778
  125OSM    C5S13238   4.195   0.189   2.795
  125OSM    H5S13239   4.089   0.187   2.768
  125OSM    C6S13240   4.224   0.264   2.921
  125OSM    H6S13241   4.214   0.374   2.907
  125OSM    H6T13242   4.331   0.247   2.948
  125OSM    C7S13243   4.139   0.233   3.043
  125OSM    H7S13244   4.033   0.239   3.012
  125OSM    H7T13245   4.154   0.321   3.110
  125OSM    C8S13246   4.171   0.103   3.107
  125OSM    H8S13247   4.279   0.112   3.132
  125OSM    H8T13248   4.153   0.014   3.043
  125OSM    C9S13249   4.094   0.067   3.231
  125OSM    H9S13250   4.128   0.142   3.306
  125OSM    H9T13251   4.115   6.846   3.266
  125OSM   C10S13252   3.944   0.065   3.232
  125OSM   H10S13253   3.896   6.850   3.208
  125OSM   H10T13254   3.911   0.139   3.156
  125OSM   C11S13255   3.883   0.123   3.360
  125OSM   H11S13256   3.782   0.156   3.329
  125OSM   H11T13257   3.933   0.217   3.392
  125OSM   C12S13258   3.869   0.030   3.480
  125OSM   H12S13259   3.973   6.876   3.485
  125OSM   H12T13260   3.804   6.825   3.460
  125OSM   C13S13261   3.844   0.107   3.611
  125OSM   H13S13262   3.744   0.153   3.600
  125OSM   H13T13263   3.933   0.174   3.613
  125OSM   C14S13264   3.839   0.017   3.734
  125OSM   H14S13265   3.933   6.842   3.734
  125OSM   H14T13266   3.759   6.827   3.709
  125OSM   C15S13267   3.821   0.099   3.858
  125OSM   H15S13268   3.738   0.174   3.856
  125OSM   H15T13269   3.918   0.152   3.870
  125OSM   C16S13270   3.806   6.882   3.977
  125OSM   H16S13271   3.810   0.047   4.077
  125OSM   H16T13272   3.884   6.804   3.994
  125OSM   C17S13273   3.669   6.819   3.966
  125OSM   H17S13274   3.652   6.746   3.884
  125OSM   H17T13275   3.590   0.014   3.962
  125OSM   C18S13276   3.653   6.731   4.093
  125OSM   H18S13277   3.729   6.650   4.091
  125OSM   H18T13278   3.553   6.687   4.113
  125OSM   H18U13279   3.681   6.795   4.179
  125OSM    C1F13280   4.192   6.616   2.884
  125OSM     OF13281   4.275   6.527   2.857
  125OSM    C2F13282   4.104   6.601   3.006
  125OSM    H2F13283   4.017   6.533   2.994
  125OSM    H2G13284   4.067   6.700   3.039
  125OSM    C3F13285   4.192   6.545   3.127
  125OSM    H3F13286   4.284   6.606   3.142
  125OSM    H3G13287   4.224   6.443   3.098
  125OSM    C4F13288   4.113   6.540   3.259
  125OSM    H4F13289   4.047   6.450   3.257
  125OSM    H4G13290   4.051   6.631   3.274
  125OSM    C5F13291   4.204   6.544   3.376
  125OSM    H5F13292   4.243   6.648   3.378
  125OSM    H5G13293   4.285   6.472   3.349
  125OSM    C6F13294   4.129   6.508   3.504
  125OSM    H6F13295   4.111   6.398   3.501
  125OSM    H6G13296   4.035   6.565   3.521
  125OSM    C7F13297   4.215   6.540   3.631
  125OSM    H7F13298   4.221   6.651   3.635
  125OSM    H7G13299   4.321   6.511   3.617
  125OSM    C8F13300   4.159   6.480   3.750
  125OSM    H8F13301   4.148   6.371   3.731
  125OSM    H8G13302   4.062   6.530   3.770
  125OSM    C9F13303   4.262   6.503   3.852
  125OSM    H9F13304   4.364   6.468   3.829
  125OSM   C10F13305   4.248   6.571   3.971
  125OSM   H10F13306   4.335   6.586   4.037
  125OSM   C11F13307   4.120   6.618   4.031
  125OSM   H11F13308   4.037   6.621   3.957
  125OSM   H11G13309   4.137   6.727   4.046
  125OSM   C12F13310   4.067   6.539   4.151
  125OSM   H12F13311   4.011   6.450   4.112
  125OSM   H12G13312   4.001   6.609   4.206
  125OSM   C13F13313   4.176   6.489   4.247
  125OSM   H13F13314   4.247   6.573   4.264
  125OSM   H13G13315   4.235   6.414   4.190
  125OSM   C14F13316   4.107   6.442   4.371
  125OSM   H14F13317   4.182   6.400   4.441
  125OSM   H14G13318   4.040   6.354   4.361
  125OSM   C15F13319   4.047   6.549   4.461
  125OSM   H15F13320   3.965   6.611   4.419
  125OSM   H15G13321   4.128   6.624   4.475
  125OSM   C16F13322   3.991   6.496   4.598
  125OSM   H16F13323   4.078   6.462   4.658
  125OSM   H16G13324   3.934   6.406   4.569
  125OSM   C17F13325   3.918   6.605   4.676
  125OSM   H17F13326   3.842   6.647   4.608
  125OSM   H17G13327   3.991   6.689   4.679
  125OSM   C18F13328   3.873   6.574   4.815
  125OSM   H18F13329   3.831   6.665   4.862
  125OSM   H18G13330   3.954   6.530   4.876
  125OSM   H18H13331   3.802   6.488   4.812
  126OSM      N13332   2.945   1.654   2.261
  126OSM    C1513333   2.911   1.797   2.233
  126OSM   H15A13334   2.942   1.865   2.311
  126OSM   H15B13335   2.806   1.812   2.218
  126OSM   H15C13336   2.955   1.823   2.138
  126OSM    C1413337   2.902   1.623   2.396
  126OSM   H14A13338   2.935   1.703   2.460
  126OSM   H14B13339   2.944   1.533   2.439
  126OSM   H14C13340   2.796   1.604   2.406
  126OSM    C1313341   2.878   1.561   2.163
  126OSM   H13A13342   2.905   1.588   2.062
  126OSM   H13B13343   2.771   1.572   2.170
  126OSM   H13C13344   2.902   1.457   2.178
  126OSM    C1213345   3.100   1.636   2.254
  126OSM   H12A13346   3.132   1.553   2.315
  126OSM   H12B13347   3.149   1.721   2.299
  126OSM    C1113348   3.177   1.620   2.117
  126OSM   H11A13349   3.283   1.651   2.129
  126OSM   H11B13350   3.136   1.707   2.061
  126OSM      P13351   3.245   1.371   2.076
  126OSM    O1313352   3.226   1.281   1.965
  126OSM    O1413353   3.382   1.400   2.119
  126OSM    O1113354   3.167   1.311   2.197
  126OSM    O1213355   3.161   1.495   2.048
  126OSM    C1S13356   3.232   1.325   2.327
  126OSM    H1S13357   3.267   1.430   2.339
  126OSM    H1T13358   3.330   1.274   2.332
  126OSM     NF13359   3.213   1.302   2.568
  126OSM    HNF13360   3.254   1.221   2.608
  126OSM    C2S13361   3.145   1.278   2.444
  126OSM    H2S13362   3.046   1.329   2.442
  126OSM    C3S13363   3.096   1.125   2.420
  126OSM    H3S13364   3.191   1.068   2.426
  126OSM     O313365   3.029   1.113   2.291
  126OSM    HO313366   3.068   1.177   2.231
  126OSM    C4S13367   3.005   1.080   2.523
  126OSM    H4S13368   2.915   1.140   2.544
  126OSM    C5S13369   3.031   0.984   2.618
  126OSM    H5S13370   3.130   0.939   2.607
  126OSM    C6S13371   2.944   0.963   2.743
  126OSM    H6S13372   2.924   0.854   2.744
  126OSM    H6T13373   2.852   1.025   2.733
  126OSM    C7S13374   3.002   1.013   2.872
  126OSM    H7S13375   2.922   1.009   2.950
  126OSM    H7T13376   3.017   1.122   2.854
  126OSM    C8S13377   3.124   0.932   2.918
  126OSM    H8S13378   3.194   0.937   2.831
  126OSM    H8T13379   3.083   0.835   2.952
  126OSM    C9S13380   3.199   0.995   3.041
  126OSM    H9S13381   3.250   1.087   3.009
  126OSM    H9T13382   3.280   0.928   3.076
  126OSM   C10S13383   3.104   1.010   3.165
  126OSM   H10S13384   3.052   0.917   3.196
  126OSM   H10T13385   3.029   1.087   3.135
  126OSM   C11S13386   3.171   1.053   3.290
  126OSM   H11S13387   3.203   1.158   3.276
  126OSM   H11T13388   3.264   1.003   3.325
  126OSM   C12S13389   3.072   1.052   3.409
  126OSM   H12S13390   3.046   0.945   3.424
  126OSM   H12T13391   2.978   1.102   3.377
  126OSM   C13S13392   3.138   1.109   3.542
  126OSM   H13S13393   3.226   1.048   3.572
  126OSM   H13T13394   3.053   1.107   3.614
  126OSM   C14S13395   3.203   1.247   3.526
  126OSM   H14S13396   3.129   1.317   3.479
  126OSM   H14T13397   3.289   1.230   3.457
  126OSM   C15S13398   3.243   1.294   3.658
  126OSM   H15S13399   3.343   1.250   3.681
  126OSM   H15T13400   3.172   1.260   3.736
  126OSM   C16S13401   3.238   1.445   3.674
  126OSM   H16S13402   3.140   1.465   3.625
  126OSM   H16T13403   3.309   1.507   3.615
  126OSM   C17S13404   3.255   1.482   3.825
  126OSM   H17S13405   3.363   1.471   3.848
  126OSM   H17T13406   3.202   1.416   3.896
  126OSM   C18S13407   3.215   1.627   3.869
  126OSM   H18S13408   3.105   1.634   3.855
  126OSM   H18T13409   3.261   1.694   3.792
  126OSM   H18U13410   3.258   1.642   3.970
  126OSM    C1F13411   3.235   1.427   2.612
  126OSM     OF13412   3.178   1.522   2.564
  126OSM    C2F13413   3.335   1.443   2.721
  126OSM    H2F13414   3.430   1.394   2.692
  126OSM    H2G13415   3.291   1.375   2.797
  126OSM    C3F13416   3.363   1.579   2.777
  126OSM    H3F13417   3.380   1.644   2.689
  126OSM    H3G13418   3.461   1.572   2.831
  126OSM    C4F13419   3.259   1.617   2.880
  126OSM    H4F13420   3.158   1.629   2.834
  126OSM    H4G13421   3.279   1.719   2.917
  126OSM    C5F13422   3.248   1.525   3.002
  126OSM    H5F13423   3.345   1.506   3.051
  126OSM    H5G13424   3.188   1.432   2.984
  126OSM    C6F13425   3.162   1.590   3.116
  126OSM    H6F13426   3.068   1.628   3.069
  126OSM    H6G13427   3.211   1.687   3.139
  126OSM    C7F13428   3.133   1.501   3.229
  126OSM    H7F13429   3.228   1.454   3.264
  126OSM    H7G13430   3.075   1.415   3.188
  126OSM    C8F13431   3.074   1.586   3.341
  126OSM    H8F13432   3.029   1.515   3.414
  126OSM    H8G13433   3.002   1.663   3.305
  126OSM    C9F13434   3.184   1.656   3.418
  126OSM    H9F13435   3.277   1.599   3.433
  126OSM   C10F13436   3.181   1.776   3.479
  126OSM   H10F13437   3.265   1.812   3.539
  126OSM   C11F13438   3.060   1.869   3.494
  126OSM   H11F13439   2.963   1.841   3.448
  126OSM   H11G13440   3.082   1.966   3.445
  126OSM   C12F13441   3.032   1.909   3.643
  126OSM   H12F13442   3.049   1.816   3.702
  126OSM   H12G13443   2.925   1.930   3.662
  126OSM   C13F13444   3.121   2.020   3.702
  126OSM   H13F13445   3.082   2.111   3.652
  126OSM   H13G13446   3.226   2.008   3.669
  126OSM   C14F13447   3.113   2.041   3.848
  126OSM   H14F13448   3.112   1.943   3.901
  126OSM   H14G13449   3.017   2.092   3.872
  126OSM   C15F13450   3.216   2.140   3.913
  126OSM   H15F13451   3.226   2.233   3.854
  126OSM   H15G13452   3.317   2.094   3.913
  126OSM   C16F13453   3.171   2.200   4.047
  126OSM   H16F13454   3.153   2.120   4.121
  126OSM   H16G13455   3.080   2.263   4.045
  126OSM   C17F13456   3.286   2.283   4.108
  126OSM   H17F13457   3.331   2.345   4.027
  126OSM   H17G13458   3.368   2.214   4.136
  126OSM   C18F13459   3.231   2.368   4.223
  126OSM   H18F13460   3.310   2.438   4.260
  126OSM   H18G13461   3.194   2.300   4.302
  126OSM   H18H13462   3.145   2.433   4.198
  127OSM      N13463   2.567   2.934   1.775
  127OSM    C1513464   2.654   2.815   1.766
  127OSM   H15A13465   2.612   2.740   1.701
  127OSM   H15B13466   2.663   2.772   1.864
  127OSM   H15C13467   2.756   2.831   1.733
  127OSM    C1413468   2.625   3.026   1.879
  127OSM   H14A13469   2.731   3.038   1.860
  127OSM   H14B13470   2.609   2.999   1.982
  127OSM   H14C13471   2.579   3.123   1.868
  127OSM    C1313472   2.552   2.999   1.643
  127OSM   H13A13473   2.509   2.933   1.570
  127OSM   H13B13474   2.649   3.033   1.611
  127OSM   H13C13475   2.485   3.083   1.652
  127OSM    C1213476   2.427   2.892   1.827
  127OSM   H12A13477   2.374   2.983   1.851
  127OSM   H12B13478   2.429   2.847   1.926
  127OSM    C1113479   2.342   2.791   1.745
  127OSM   H11A13480   2.332   2.839   1.646
  127OSM   H11B13481   2.241   2.772   1.787
  127OSM      P13482   2.414   2.563   1.861
  127OSM    O1313483   2.290   2.483   1.863
  127OSM    O1413484   2.544   2.488   1.871
  127OSM    O1113485   2.416   2.657   1.984
  127OSM    O1213486   2.405   2.659   1.738
  127OSM    C1S13487   2.301   2.642   2.071
  127OSM    H1S13488   2.286   2.535   2.095
  127OSM    H1T13489   2.210   2.679   2.019
  127OSM     NF13490   2.188   2.700   2.269
  127OSM    HNF13491   2.130   2.780   2.283
  127OSM    C2S13492   2.314   2.718   2.203
  127OSM    H2S13493   2.385   2.660   2.266
  127OSM    C3S13494   2.363   2.864   2.182
  127OSM    H3S13495   2.302   2.910   2.101
  127OSM     O313496   2.498   2.865   2.134
  127OSM    HO313497   2.533   2.776   2.138
  127OSM    C4S13498   2.350   2.959   2.302
  127OSM    H4S13499   2.305   3.058   2.282
  127OSM    C5S13500   2.405   2.931   2.425
  127OSM    H5S13501   2.472   2.845   2.432
  127OSM    C6S13502   2.394   3.024   2.543
  127OSM    H6S13503   2.338   3.118   2.521
  127OSM    H6T13504   2.490   3.055   2.589
  127OSM    C7S13505   2.309   2.951   2.648
  127OSM    H7S13506   2.385   2.875   2.677
  127OSM    H7T13507   2.219   2.901   2.606
  127OSM    C8S13508   2.275   3.023   2.783
  127OSM    H8S13509   2.198   3.102   2.773
  127OSM    H8T13510   2.371   3.071   2.813
  127OSM    C9S13511   2.238   2.927   2.900
  127OSM    H9S13512   2.244   2.987   2.993
  127OSM    H9T13513   2.304   2.839   2.913
  127OSM   C10S13514   2.100   2.863   2.890
  127OSM   H10S13515   2.103   2.783   2.813
  127OSM   H10T13516   2.029   2.945   2.864
  127OSM   C11S13517   2.061   2.801   3.024
  127OSM   H11S13518   2.140   2.728   3.051
  127OSM   H11T13519   1.964   2.746   3.018
  127OSM   C12S13520   2.036   2.887   3.147
  127OSM   H12S13521   1.962   2.963   3.112
  127OSM   H12T13522   2.127   2.942   3.180
  127OSM   C13S13523   1.984   2.819   3.277
  127OSM   H13S13524   2.044   2.728   3.301
  127OSM   H13T13525   1.878   2.789   3.271
  127OSM   C14S13526   2.011   2.911   3.398
  127OSM   H14S13527   1.987   3.016   3.370
  127OSM   H14T13528   2.116   2.909   3.435
  127OSM   C15S13529   1.912   2.884   3.512
  127OSM   H15S13530   1.897   2.775   3.523
  127OSM   H15T13531   1.813   2.925   3.484
  127OSM   C16S13532   1.946   2.939   3.653
  127OSM   H16S13533   1.922   3.047   3.661
  127OSM   H16T13534   2.054   2.935   3.677
  127OSM   C17S13535   1.865   2.859   3.764
  127OSM   H17S13536   1.792   2.789   3.718
  127OSM   H17T13537   1.796   2.925   3.822
  127OSM   C18S13538   1.962   2.780   3.855
  127OSM   H18S13539   2.028   2.718   3.791
  127OSM   H18T13540   1.908   2.720   3.931
  127OSM   H18U13541   2.021   2.857   3.910
  127OSM    C1F13542   2.155   2.576   2.321
  127OSM     OF13543   2.226   2.480   2.307
  127OSM    C2F13544   2.024   2.566   2.396
  127OSM    H2F13545   1.942   2.530   2.331
  127OSM    H2G13546   1.993   2.670   2.419
  127OSM    C3F13547   2.034   2.478   2.522
  127OSM    H3F13548   2.139   2.480   2.560
  127OSM    H3G13549   2.021   2.371   2.494
  127OSM    C4F13550   1.929   2.516   2.634
  127OSM    H4F13551   1.836   2.516   2.573
  127OSM    H4G13552   1.942   2.616   2.680
  127OSM    C5F13553   1.938   2.420   2.761
  127OSM    H5F13554   2.040   2.419   2.805
  127OSM    H5G13555   1.927   2.316   2.722
  127OSM    C6F13556   1.837   2.454   2.878
  127OSM    H6F13557   1.734   2.460   2.837
  127OSM    H6G13558   1.873   2.554   2.909
  127OSM    C7F13559   1.825   2.344   2.989
  127OSM    H7F13560   1.924   2.295   3.002
  127OSM    H7G13561   1.736   2.282   2.965
  127OSM    C8F13562   1.784   2.406   3.127
  127OSM    H8F13563   1.683   2.451   3.116
  127OSM    H8G13564   1.865   2.477   3.155
  127OSM    C9F13565   1.770   2.304   3.236
  127OSM    H9F13566   1.679   2.242   3.238
  127OSM   C10F13567   1.853   2.296   3.346
  127OSM   H10F13568   1.830   2.222   3.425
  127OSM   C11F13569   1.979   2.373   3.362
  127OSM   H11F13570   2.025   2.400   3.265
  127OSM   H11G13571   2.061   2.316   3.411
  127OSM   C12F13572   1.960   2.501   3.442
  127OSM   H12F13573   1.879   2.558   3.392
  127OSM   H12G13574   2.064   2.538   3.437
  127OSM   C13F13575   1.923   2.477   3.589
  127OSM   H13F13576   1.828   2.418   3.594
  127OSM   H13G13577   1.898   2.575   3.635
  127OSM   C14F13578   2.033   2.413   3.676
  127OSM   H14F13579   2.117   2.487   3.671
  127OSM   H14G13580   2.070   2.313   3.647
  127OSM   C15F13581   1.988   2.398   3.824
  127OSM   H15F13582   1.886   2.354   3.831
  127OSM   H15G13583   1.982   2.498   3.872
  127OSM   C16F13584   2.071   2.296   3.901
  127OSM   H16F13585   2.177   2.325   3.886
  127OSM   H16G13586   2.049   2.200   3.850
  127OSM   C17F13587   2.040   2.288   4.057
  127OSM   H17F13588   1.931   2.272   4.070
  127OSM   H17G13589   2.062   2.387   4.102
  127OSM   C18F13590   2.113   2.180   4.131
  127OSM   H18F13591   2.223   2.173   4.121
  127OSM   H18G13592   2.080   2.084   4.086
  127OSM   H18H13593   2.086   2.168   4.238
  128OSM      N13594   1.622   0.679   1.927
  128OSM    C1513595   1.489   0.616   1.898
  128OSM   H15A13596   1.493   0.510   1.915
  128OSM   H15B13597   1.461   0.637   1.796
  128OSM   H15C13598   1.412   0.643   1.968
  128OSM    C1413599   1.602   0.827   1.931
  128OSM   H14A13600   1.595   0.869   1.832
  128OSM   H14B13601   1.686   0.879   1.974
  128OSM   H14C13602   1.512   0.847   1.986
  128OSM    C1313603   1.690   0.628   2.050
  128OSM   H13A13604   1.796   0.650   2.046
  128OSM   H13B13605   1.675   0.521   2.048
  128OSM   H13C13606   1.649   0.669   2.141
  128OSM    C1213607   1.717   0.650   1.811
  128OSM   H12A13608   1.668   0.693   1.725
  128OSM   H12B13609   1.731   0.546   1.787
  128OSM    C1113610   1.865   0.708   1.824
  128OSM   H11A13611   1.862   0.813   1.862
  128OSM   H11B13612   1.899   0.713   1.719
  128OSM      P13613   2.096   0.623   1.904
  128OSM    O1313614   2.132   0.483   1.926
  128OSM    O1413615   2.128   0.680   1.771
  128OSM    O1113616   2.147   0.714   2.020
  128OSM    O1213617   1.940   0.628   1.907
  128OSM    C1S13618   2.121   0.673   2.159
  128OSM    H1S13619   2.197   0.604   2.200
  128OSM    H1T13620   2.019   0.628   2.167
  128OSM     NF13621   2.106   0.741   2.382
  128OSM    HNF13622   2.010   0.716   2.394
  128OSM    C2S13623   2.120   0.800   2.253
  128OSM    H2S13624   2.219   0.851   2.243
  128OSM    C3S13625   2.004   0.889   2.214
  128OSM    H3S13626   1.914   0.826   2.229
  128OSM     O313627   2.004   0.932   2.083
  128OSM    HO313628   2.056   0.863   2.040
  128OSM    C4S13629   1.986   1.011   2.299
  128OSM    H4S13630   2.072   1.075   2.324
  128OSM    C5S13631   1.864   1.046   2.352
  128OSM    H5S13632   1.777   0.982   2.331
  128OSM    C6S13633   1.864   1.169   2.443
  128OSM    H6S13634   1.818   1.254   2.388
  128OSM    H6T13635   1.963   1.207   2.477
  128OSM    C7S13636   1.774   1.138   2.563
  128OSM    H7S13637   1.684   1.074   2.548
  128OSM    H7T13638   1.735   1.235   2.600
  128OSM    C8S13639   1.853   1.073   2.672
  128OSM    H8S13640   1.958   1.105   2.656
  128OSM    H8T13641   1.864   0.963   2.656
  128OSM    C9S13642   1.791   1.094   2.820
  128OSM    H9S13643   1.808   1.202   2.840
  128OSM    H9T13644   1.845   1.026   2.890
  128OSM   C10S13645   1.638   1.059   2.831
  128OSM   H10S13646   1.625   0.952   2.806
  128OSM   H10T13647   1.580   1.119   2.757
  128OSM   C11S13648   1.580   1.088   2.970
  128OSM   H11S13649   1.472   1.062   2.974
  128OSM   H11T13650   1.574   1.199   2.978
  128OSM   C12S13651   1.649   1.032   3.089
  128OSM   H12S13652   1.755   1.065   3.094
  128OSM   H12T13653   1.652   0.921   3.084
  128OSM   C13S13654   1.578   1.083   3.215
  128OSM   H13S13655   1.467   1.077   3.213
  128OSM   H13T13656   1.599   1.190   3.235
  128OSM   C14S13657   1.612   1.000   3.345
  128OSM   H14S13658   1.718   0.999   3.376
  128OSM   H14T13659   1.582   0.895   3.326
  128OSM   C15S13660   1.542   1.050   3.476
  128OSM   H15S13661   1.518   0.956   3.531
  128OSM   H15T13662   1.439   1.081   3.448
  128OSM   C16S13663   1.605   1.156   3.563
  128OSM   H16S13664   1.604   1.242   3.492
  128OSM   H16T13665   1.709   1.127   3.587
  128OSM   C17S13666   1.520   1.185   3.689
  128OSM   H17S13667   1.412   1.164   3.673
  128OSM   H17T13668   1.521   1.290   3.724
  128OSM   C18S13669   1.568   1.126   3.817
  128OSM   H18S13670   1.592   1.020   3.796
  128OSM   H18T13671   1.485   1.122   3.891
  128OSM   H18U13672   1.654   1.186   3.853
  128OSM    C1F13673   2.199   0.685   2.459
  128OSM     OF13674   2.310   0.664   2.419
  128OSM    C2F13675   2.155   0.641   2.593
  128OSM    H2F13676   2.048   0.667   2.600
  128OSM    H2G13677   2.203   0.703   2.673
  128OSM    C3F13678   2.191   0.490   2.613
  128OSM    H3F13679   2.298   0.477   2.585
  128OSM    H3G13680   2.121   0.424   2.556
  128OSM    C4F13681   2.186   0.435   2.757
  128OSM    H4F13682   2.232   0.504   2.831
  128OSM    H4G13683   2.229   0.335   2.777
  128OSM    C5F13684   2.033   0.427   2.807
  128OSM    H5F13685   1.972   0.362   2.741
  128OSM    H5G13686   1.979   0.524   2.804
  128OSM    C6F13687   2.018   0.364   2.947
  128OSM    H6F13688   2.055   0.259   2.952
  128OSM    H6G13689   1.908   0.359   2.956
  128OSM    C7F13690   2.072   0.437   3.064
  128OSM    H7F13691   2.031   0.540   3.068
  128OSM    H7G13692   2.183   0.436   3.064
  128OSM    C8F13693   2.027   0.379   3.199
  128OSM    H8F13694   2.070   0.278   3.218
  128OSM    H8G13695   1.917   0.369   3.207
  128OSM    C9F13696   2.083   0.468   3.304
  128OSM    H9F13697   2.055   0.571   3.279
  128OSM   C10F13698   2.167   0.442   3.403
  128OSM   H10F13699   2.197   0.521   3.472
  128OSM   C11F13700   2.224   0.315   3.462
  128OSM   H11F13701   2.335   0.316   3.459
  128OSM   H11G13702   2.182   0.227   3.409
  128OSM   C12F13703   2.186   0.296   3.611
  128OSM   H12F13704   2.228   0.197   3.638
  128OSM   H12G13705   2.076   0.306   3.610
  128OSM   C13F13706   2.247   0.402   3.701
  128OSM   H13F13707   2.214   0.504   3.672
  128OSM   H13G13708   2.358   0.393   3.709
  128OSM   C14F13709   2.191   0.391   3.850
  128OSM   H14F13710   2.222   0.286   3.868
  128OSM   H14G13711   2.083   0.414   3.861
  128OSM   C15F13712   2.263   0.488   3.950
  128OSM   H15F13713   2.367   0.496   3.914
  128OSM   H15G13714   2.254   0.437   4.049
  128OSM   C16F13715   2.210   0.633   3.962
  128OSM   H16F13716   2.099   0.638   3.961
  128OSM   H16G13717   2.255   0.687   3.875
  128OSM   C17F13718   2.262   0.715   4.079
  128OSM   H17F13719   2.249   0.655   4.172
  128OSM   H17G13720   2.205   0.810   4.084
  128OSM   C18F13721   2.412   0.752   4.079
  128OSM   H18F13722   2.434   0.838   4.013
  128OSM   H18G13723   2.488   0.676   4.051
  128OSM   H18H13724   2.439   0.780   4.183
  129OSM      N13725   3.906   6.783   2.327
  129OSM    C1513726   3.848   6.803   2.194
  129OSM   H15A13727   3.762   6.739   2.188
  129OSM   H15B13728   3.924   6.796   2.118
  129OSM   H15C13729   3.817   0.023   2.185
  129OSM    C1413730   3.942   6.640   2.339
  129OSM   H14A13731   3.860   6.569   2.337
  129OSM   H14B13732   3.994   6.608   2.428
  129OSM   H14C13733   4.011   6.615   2.260
  129OSM    C1313734   4.014   6.879   2.348
  129OSM   H13A13735   4.081   6.848   2.428
  129OSM   H13B13736   3.969   0.091   2.373
  129OSM   H13C13737   4.067   0.017   2.257
  129OSM    C1213738   3.797   6.801   2.433
  129OSM   H12A13739   3.827   6.747   2.522
  129OSM   H12B13740   3.715   6.743   2.395
  129OSM    C1113741   3.745   0.055   2.467
  129OSM   H11A13742   3.652   0.040   2.526
  129OSM   H11B13743   3.719   0.113   2.376
  129OSM      P13744   3.838   0.293   2.532
  129OSM    O1313745   3.970   0.346   2.480
  129OSM    O1413746   3.720   0.339   2.454
  129OSM    O1113747   3.817   0.330   2.682
  129OSM    O1213748   3.841   0.133   2.536
  129OSM    C1S13749   3.723   0.279   2.777
  129OSM    H1S13750   3.745   0.171   2.789
  129OSM    H1T13751   3.618   0.291   2.742
  129OSM     NF13752   3.627   0.309   3.002
  129OSM    HNF13753   3.552   0.373   3.018
  129OSM    C2S13754   3.730   0.363   2.912
  129OSM    H2S13755   3.827   0.327   2.951
  129OSM    C3S13756   3.744   0.521   2.893
  129OSM    H3S13757   3.649   0.562   2.852
  129OSM     O313758   3.842   0.559   2.801
  129OSM    HO313759   3.860   0.476   2.754
  129OSM    C4S13760   3.758   0.594   3.018
  129OSM    H4S13761   3.665   0.613   3.075
  129OSM    C5S13762   3.874   0.636   3.075
  129OSM    H5S13763   3.965   0.605   3.023
  129OSM    C6S13764   3.893   0.699   3.210
  129OSM    H6S13765   3.916   0.807   3.206
  129OSM    H6T13766   3.986   0.666   3.261
  129OSM    C7S13767   3.777   0.672   3.308
  129OSM    H7S13768   3.741   0.568   3.300
  129OSM    H7T13769   3.699   0.743   3.273
  129OSM    C8S13770   3.823   0.712   3.449
  129OSM    H8S13771   3.833   0.823   3.454
  129OSM    H8T13772   3.919   0.665   3.479
  129OSM    C9S13773   3.730   0.647   3.549
  129OSM    H9S13774   3.730   0.539   3.522
  129OSM    H9T13775   3.625   0.682   3.538
  129OSM   C10S13776   3.784   0.651   3.690
  129OSM   H10S13777   3.786   0.755   3.730
  129OSM   H10T13778   3.888   0.611   3.698
  129OSM   C11S13779   3.698   0.572   3.784
  129OSM   H11S13780   3.680   0.474   3.735
  129OSM   H11T13781   3.598   0.615   3.805
  129OSM   C12S13782   3.758   0.559   3.925
  129OSM   H12S13783   3.793   0.652   3.974
  129OSM   H12T13784   3.845   0.490   3.925
  129OSM   C13S13785   3.656   0.485   4.017
  129OSM   H13S13786   3.609   0.398   3.966
  129OSM   H13T13787   3.580   0.565   4.032
  129OSM   C14S13788   3.713   0.424   4.144
  129OSM   H14S13789   3.779   0.504   4.185
  129OSM   H14T13790   3.773   0.335   4.118
  129OSM   C15S13791   3.612   0.392   4.253
  129OSM   H15S13792   3.545   0.321   4.199
  129OSM   H15T13793   3.575   0.488   4.295
  129OSM   C16S13794   3.665   0.301   4.370
  129OSM   H16S13795   3.601   0.315   4.459
  129OSM   H16T13796   3.768   0.332   4.398
  129OSM   C17S13797   3.668   0.153   4.322
  129OSM   H17S13798   3.716   0.141   4.223
  129OSM   H17T13799   3.566   0.120   4.293
  129OSM   C18S13800   3.743   0.057   4.421
  129OSM   H18S13801   3.739   6.834   4.388
  129OSM   H18T13802   3.701   0.068   4.523
  129OSM   H18U13803   3.849   0.089   4.428
  129OSM    C1F13804   3.611   0.180   3.032
  129OSM     OF13805   3.689   0.093   2.994
  129OSM    C2F13806   3.488   0.145   3.104
  129OSM    H2F13807   3.421   0.083   3.041
  129OSM    H2G13808   3.440   0.237   3.146
  129OSM    C3F13809   3.514   0.044   3.218
  129OSM    H3F13810   3.597   0.087   3.279
  129OSM    H3G13811   3.545   6.829   3.176
  129OSM    C4F13812   3.388   0.006   3.297
  129OSM    H4F13813   3.309   6.841   3.235
  129OSM    H4G13814   3.336   0.093   3.343
  129OSM    C5F13815   3.423   6.802   3.419
  129OSM    H5F13816   3.498   6.863   3.473
  129OSM    H5G13817   3.462   6.707   3.375
  129OSM    C6F13818   3.303   6.779   3.504
  129OSM    H6F13819   3.228   6.711   3.457
  129OSM    H6G13820   3.251   6.875   3.523
  129OSM    C7F13821   3.331   6.708   3.641
  129OSM    H7F13822   3.426   6.755   3.674
  129OSM    H7G13823   3.335   6.598   3.628
  129OSM    C8F13824   3.225   6.730   3.751
  129OSM    H8F13825   3.210   6.838   3.770
  129OSM    H8G13826   3.261   6.687   3.847
  129OSM    C9F13827   3.094   6.663   3.721
  129OSM    H9F13828   3.076   6.621   3.621
  129OSM   C10F13829   3.002   6.648   3.815
  129OSM   H10F13830   2.912   6.599   3.775
  129OSM   C11F13831   3.000   6.698   3.961
  129OSM   H11F13832   2.982   6.806   3.981
  129OSM   H11G13833   3.103   6.685   4.001
  129OSM   C12F13834   2.908   6.614   4.046
  129OSM   H12F13835   2.921   6.506   4.023
  129OSM   H12G13836   2.800   6.632   4.023
  129OSM   C13F13837   2.914   6.637   4.201
  129OSM   H13F13838   3.003   6.586   4.244
  129OSM   H13G13839   2.843   6.581   4.266
  129OSM   C14F13840   2.913   6.781   4.258
  129OSM   H14F13841   2.812   6.805   4.219
  129OSM   H14G13842   2.991   6.846   4.214
  129OSM   C15F13843   2.907   6.783   4.410
  129OSM   H15F13844   3.011   6.765   4.447
  129OSM   H15G13845   2.839   6.704   4.449
  129OSM   C16F13846   2.861   0.030   4.473
  129OSM   H16F13847   2.768   0.077   4.433
  129OSM   H16G13848   2.940   0.106   4.457
  129OSM   C17F13849   2.837   0.027   4.632
  129OSM   H17F13850   2.920   6.868   4.693
  129OSM   H17G13851   2.748   6.850   4.660
  129OSM   C18F13852   2.837   0.168   4.680
  129OSM   H18F13853   2.939   0.212   4.682
  129OSM   H18G13854   2.807   0.169   4.787
  129OSM   H18H13855   2.775   0.241   4.623
  130OSM      N13856   3.445   4.187   2.109
  130OSM    C1513857   3.343   4.232   2.005
  130OSM   H15A13858   3.243   4.212   2.041
  130OSM   H15B13859   3.363   4.182   1.912
  130OSM   H15C13860   3.345   4.338   1.985
  130OSM    C1413861   3.573   4.205   2.049
  130OSM   H14A13862   3.601   4.132   1.975
  130OSM   H14B13863   3.657   4.209   2.117
  130OSM   H14C13864   3.582   4.295   1.989
  130OSM    C1313865   3.440   4.268   2.236
  130OSM   H13A13866   3.516   4.234   2.305
  130OSM   H13B13867   3.345   4.251   2.285
  130OSM   H13C13868   3.456   4.374   2.229
  130OSM    C1213869   3.414   4.044   2.150
  130OSM   H12A13870   3.330   4.045   2.218
  130OSM   H12B13871   3.492   4.005   2.213
  130OSM    C1113872   3.390   3.946   2.034
  130OSM   H11A13873   3.315   3.975   1.957
  130OSM   H11B13874   3.347   3.856   2.083
  130OSM      P13875   3.610   3.807   2.006
  130OSM    O1313876   3.563   3.669   1.978
  130OSM    O1413877   3.746   3.861   1.968
  130OSM    O1113878   3.606   3.824   2.165
  130OSM    O1213879   3.503   3.918   1.959
  130OSM    C1S13880   3.706   3.898   2.228
  130OSM    H1S13881   3.694   4.007   2.210
  130OSM    H1T13882   3.814   3.886   2.206
  130OSM     NF13883   3.786   3.972   2.451
  130OSM    HNF13884   3.878   3.951   2.483
  130OSM    C2S13885   3.706   3.872   2.381
  130OSM    H2S13886   3.600   3.887   2.411
  130OSM    C3S13887   3.745   3.724   2.415
  130OSM    H3S13888   3.855   3.735   2.404
  130OSM     O313889   3.701   3.624   2.318
  130OSM    HO313890   3.669   3.673   2.243
  130OSM    C4S13891   3.740   3.683   2.552
  130OSM    H4S13892   3.815   3.729   2.620
  130OSM    C5S13893   3.647   3.613   2.610
  130OSM    H5S13894   3.553   3.584   2.561
  130OSM    C6S13895   3.644   3.565   2.753
  130OSM    H6S13896   3.723   3.487   2.762
  130OSM    H6T13897   3.547   3.513   2.765
  130OSM    C7S13898   3.662   3.683   2.855
  130OSM    H7S13899   3.584   3.759   2.831
  130OSM    H7T13900   3.761   3.732   2.846
  130OSM    C8S13901   3.657   3.640   2.999
  130OSM    H8S13902   3.745   3.573   3.009
  130OSM    H8T13903   3.569   3.577   3.021
  130OSM    C9S13904   3.658   3.756   3.101
  130OSM    H9S13905   3.575   3.821   3.066
  130OSM    H9T13906   3.752   3.813   3.090
  130OSM   C10S13907   3.633   3.702   3.238
  130OSM   H10S13908   3.713   3.640   3.285
  130OSM   H10T13909   3.542   3.639   3.246
  130OSM   C11S13910   3.615   3.813   3.342
  130OSM   H11S13911   3.518   3.866   3.332
  130OSM   H11T13912   3.705   3.878   3.331
  130OSM   C12S13913   3.619   3.755   3.486
  130OSM   H12S13914   3.715   3.700   3.488
  130OSM   H12T13915   3.539   3.681   3.506
  130OSM   C13S13916   3.622   3.862   3.593
  130OSM   H13S13917   3.524   3.915   3.597
  130OSM   H13T13918   3.698   3.941   3.575
  130OSM   C14S13919   3.634   3.803   3.733
  130OSM   H14S13920   3.534   3.758   3.747
  130OSM   H14T13921   3.643   3.888   3.803
  130OSM   C15S13922   3.741   3.695   3.774
  130OSM   H15S13923   3.739   3.614   3.698
  130OSM   H15T13924   3.717   3.653   3.874
  130OSM   C16S13925   3.892   3.739   3.775
  130OSM   H16S13926   3.905   3.810   3.859
  130OSM   H16T13927   3.915   3.796   3.683
  130OSM   C17S13928   3.993   3.628   3.804
  130OSM   H17S13929   3.969   3.569   3.895
  130OSM   H17T13930   4.097   3.661   3.827
  130OSM   C18S13931   3.996   3.533   3.679
  130OSM   H18S13932   4.016   3.601   3.592
  130OSM   H18T13933   3.908   3.466   3.674
  130OSM   H18U13934   4.090   3.473   3.684
  130OSM    C1F13935   3.750   4.099   2.455
  130OSM     OF13936   3.635   4.139   2.436
  130OSM    C2F13937   3.857   4.199   2.489
  130OSM    H2F13938   3.904   4.236   2.396
  130OSM    H2G13939   3.935   4.146   2.546
  130OSM    C3F13940   3.808   4.317   2.581
  130OSM    H3F13941   3.749   4.273   2.664
  130OSM    H3G13942   3.735   4.378   2.524
  130OSM    C4F13943   3.909   4.412   2.636
  130OSM    H4F13944   3.967   4.448   2.549
  130OSM    H4G13945   3.972   4.369   2.717
  130OSM    C5F13946   3.849   4.545   2.682
  130OSM    H5F13947   3.796   4.591   2.596
  130OSM    H5G13948   3.926   4.621   2.707
  130OSM    C6F13949   3.751   4.545   2.806
  130OSM    H6F13950   3.667   4.476   2.783
  130OSM    H6G13951   3.718   4.650   2.821
  130OSM    C7F13952   3.815   4.492   2.935
  130OSM    H7F13953   3.924   4.517   2.936
  130OSM    H7G13954   3.801   4.383   2.956
  130OSM    C8F13955   3.757   4.565   3.059
  130OSM    H8F13956   3.646   4.558   3.047
  130OSM    H8G13957   3.784   4.671   3.043
  130OSM    C9F13958   3.798   4.520   3.192
  130OSM    H9F13959   3.773   4.413   3.199
  130OSM   C10F13960   3.829   4.581   3.310
  130OSM   H10F13961   3.854   4.519   3.398
  130OSM   C11F13962   3.824   4.725   3.345
  130OSM   H11F13963   3.810   4.791   3.256
  130OSM   H11G13964   3.922   4.755   3.388
  130OSM   C12F13965   3.717   4.783   3.442
  130OSM   H12F13966   3.611   4.788   3.410
  130OSM   H12G13967   3.762   4.884   3.454
  130OSM   C13F13968   3.729   4.709   3.569
  130OSM   H13F13969   3.836   4.699   3.598
  130OSM   H13G13970   3.688   4.606   3.557
  130OSM   C14F13971   3.655   4.785   3.684
  130OSM   H14F13972   3.546   4.773   3.667
  130OSM   H14G13973   3.690   4.890   3.675
  130OSM   C15F13974   3.694   4.740   3.824
  130OSM   H15F13975   3.800   4.766   3.843
  130OSM   H15G13976   3.681   4.629   3.826
  130OSM   C16F13977   3.610   4.799   3.946
  130OSM   H16F13978   3.501   4.779   3.932
  130OSM   H16G13979   3.622   4.909   3.946
  130OSM   C17F13980   3.639   4.752   4.086
  130OSM   H17F13981   3.643   4.642   4.097
  130OSM   H17G13982   3.558   4.792   4.150
  130OSM   C18F13983   3.775   4.821   4.136
  130OSM   H18F13984   3.779   4.796   4.244
  130OSM   H18G13985   3.754   4.929   4.125
  130OSM   H18H13986   3.867   4.788   4.083
  131OSM      N13987   0.811   0.252   2.018
  131OSM    C1513988   0.859   0.113   2.050
  131OSM   H15A13989   0.967   0.117   2.051
  131OSM   H15B13990   0.833   0.041   1.974
  131OSM   H15C13991   0.820   0.081   2.145
  131OSM    C1413992   0.855   0.288   1.882
  131OSM   H14A13993   0.962   0.286   1.876
  131OSM   H14B13994   0.818   0.385   1.853
  131OSM   H14C13995   0.813   0.223   1.807
  131OSM    C1313996   0.665   0.274   2.033
  131OSM   H13A13997   0.623   0.213   2.111
  131OSM   H13B13998   0.607   0.243   1.947
  131OSM   H13C13999   0.656   0.381   2.042
  131OSM    C1214000   0.872   0.348   2.127
  131OSM   H12A14001   0.976   0.323   2.140
  131OSM   H12B14002   0.810   0.330   2.214
  131OSM    C1114003   0.872   0.503   2.096
  131OSM   H11A14004   0.877   0.570   2.184
  131OSM   H11B14005   0.769   0.525   2.061
  131OSM      P14006   1.122   0.502   1.993
  131OSM    O1314007   1.134   0.405   1.882
  131OSM    O1414008   1.198   0.630   1.983
  131OSM    O1114009   1.147   0.425   2.129
  131OSM    O1214010   0.964   0.535   1.998
  131OSM    C1S14011   1.173   0.507   2.238
  131OSM    H1S14012   1.092   0.583   2.246
  131OSM    H1T14013   1.264   0.571   2.239
  131OSM     NF14014   1.175   0.496   2.492
  131OSM    HNF14015   1.265   0.510   2.533
  131OSM    C2S14016   1.177   0.419   2.368
  131OSM    H2S14017   1.081   0.364   2.362
  131OSM    C3S14018   1.296   0.315   2.354
  131OSM    H3S14019   1.392   0.369   2.362
  131OSM     O314020   1.303   0.261   2.223
  131OSM    HO314021   1.250   0.323   2.173
  131OSM    C4S14022   1.300   0.207   2.463
  131OSM    H4S14023   1.364   0.231   2.550
  131OSM    C5S14024   1.226   0.099   2.463
  131OSM    H5S14025   1.165   0.073   2.375
  131OSM    C6S14026   1.213   6.877   2.572
  131OSM    H6S14027   1.243   6.777   2.532
  131OSM    H6T14028   1.107   6.873   2.605
  131OSM    C7S14029   1.297   0.023   2.697
  131OSM    H7S14030   1.271   0.124   2.736
  131OSM    H7T14031   1.405   0.028   2.673
  131OSM    C8S14032   1.270   6.814   2.818
  131OSM    H8S14033   1.301   6.709   2.799
  131OSM    H8T14034   1.161   6.812   2.839
  131OSM    C9S14035   1.330   0.005   2.945
  131OSM    H9S14036   1.298   0.112   2.938
  131OSM    H9T14037   1.440   0.004   2.930
  131OSM   C10S14038   1.288   6.821   3.076
  131OSM   H10S14039   1.324   6.716   3.086
  131OSM   H10T14040   1.177   6.822   3.080
  131OSM   C11S14041   1.336   0.015   3.201
  131OSM   H11S14042   1.266   0.100   3.216
  131OSM   H11T14043   1.431   0.067   3.175
  131OSM   C12S14044   1.351   6.814   3.328
  131OSM   H12S14045   1.420   6.734   3.294
  131OSM   H12T14046   1.257   6.758   3.349
  131OSM   C13S14047   1.389   0.020   3.452
  131OSM   H13S14048   1.312   0.099   3.467
  131OSM   H13T14049   1.475   0.075   3.408
  131OSM   C14S14050   1.435   6.818   3.572
  131OSM   H14S14051   1.517   6.753   3.536
  131OSM   H14T14052   1.354   6.751   3.608
  131OSM   C15S14053   1.482   0.018   3.691
  131OSM   H15S14054   1.401   0.090   3.719
  131OSM   H15T14055   1.566   0.085   3.662
  131OSM   C16S14056   1.531   6.827   3.814
  131OSM   H16S14057   1.628   6.787   3.779
  131OSM   H16T14058   1.463   6.739   3.823
  131OSM   C17S14059   1.533   0.034   3.942
  131OSM   H17S14060   1.440   0.094   3.943
  131OSM   H17T14061   1.616   0.107   3.931
  131OSM   C18S14062   1.557   6.843   4.072
  131OSM   H18S14063   1.493   6.752   4.075
  131OSM   H18T14064   1.519   0.024   4.155
  131OSM   H18U14065   1.661   6.808   4.085
  131OSM    C1F14066   1.075   0.579   2.522
  131OSM     OF14067   0.976   0.595   2.450
  131OSM    C2F14068   1.082   0.645   2.660
  131OSM    H2F14069   1.185   0.687   2.668
  131OSM    H2G14070   1.065   0.559   2.728
  131OSM    C3F14071   0.984   0.754   2.691
  131OSM    H3F14072   0.881   0.727   2.659
  131OSM    H3G14073   1.011   0.851   2.644
  131OSM    C4F14074   0.990   0.786   2.850
  131OSM    H4F14075   0.939   0.696   2.892
  131OSM    H4G14076   0.927   0.876   2.867
  131OSM    C5F14077   1.126   0.796   2.909
  131OSM    H5F14078   1.180   0.879   2.858
  131OSM    H5G14079   1.182   0.701   2.894
  131OSM    C6F14080   1.124   0.832   3.063
  131OSM    H6F14081   1.054   0.765   3.119
  131OSM    H6G14082   1.091   0.938   3.072
  131OSM    C7F14083   1.264   0.808   3.121
  131OSM    H7F14084   1.320   0.887   3.067
  131OSM    H7G14085   1.281   0.702   3.094
  131OSM    C8F14086   1.273   0.817   3.274
  131OSM    H8F14087   1.377   0.797   3.308
  131OSM    H8G14088   1.213   0.729   3.305
  131OSM    C9F14089   1.229   0.941   3.343
  131OSM    H9F14090   1.257   1.035   3.294
  131OSM   C10F14091   1.180   0.945   3.472
  131OSM   H10F14092   1.140   1.044   3.498
  131OSM   C11F14093   1.145   0.835   3.573
  131OSM   H11F14094   1.129   0.738   3.520
  131OSM   H11G14095   1.046   0.844   3.623
  131OSM   C12F14096   1.246   0.801   3.689
  131OSM   H12F14097   1.346   0.787   3.642
  131OSM   H12G14098   1.232   0.699   3.729
  131OSM   C13F14099   1.245   0.889   3.815
  131OSM   H13F14100   1.145   0.882   3.864
  131OSM   H13G14101   1.263   0.990   3.773
  131OSM   C14F14102   1.352   0.849   3.912
  131OSM   H14F14103   1.452   0.871   3.871
  131OSM   H14G14104   1.353   0.739   3.931
  131OSM   C15F14105   1.340   0.908   4.053
  131OSM   H15F14106   1.234   0.889   4.083
  131OSM   H15G14107   1.355   1.017   4.049
  131OSM   C16F14108   1.427   0.853   4.164
  131OSM   H16F14109   1.534   0.878   4.147
  131OSM   H16G14110   1.418   0.743   4.170
  131OSM   C17F14111   1.388   0.896   4.308
  131OSM   H17F14112   1.279   0.874   4.318
  131OSM   H17G14113   1.396   1.006   4.320
  131OSM   C18F14114   1.437   0.803   4.419
  131OSM   H18F14115   1.548   0.798   4.427
  131OSM   H18G14116   1.399   0.700   4.405
  131OSM   H18H14117   1.400   0.836   4.518
  132OSM      N14118   6.651   0.031   1.759
  132OSM    C1514119   6.683   0.146   1.673
  132OSM   H15A14120   6.789   0.154   1.654
  132OSM   H15B14121   6.650   0.230   1.732
  132OSM   H15C14122   6.635   0.136   1.577
  132OSM    C1414123   6.695   6.785   1.692
  132OSM   H14A14124   6.685   6.704   1.764
  132OSM   H14B14125   6.792   6.791   1.646
  132OSM   H14C14126   6.622   6.773   1.613
  132OSM    C1314127   6.731   0.064   1.882
  132OSM   H13A14128   6.721   6.863   1.949
  132OSM   H13B14129   6.692   0.155   1.925
  132OSM   H13C14130   6.837   0.078   1.861
  132OSM    C1214131   6.496   0.036   1.786
  132OSM   H12A14132   6.445   0.057   1.693
  132OSM   H12B14133   6.482   0.124   1.847
  132OSM    C1114134   6.423   6.798   1.863
  132OSM   H11A14135   6.429   6.707   1.799
  132OSM   H11B14136   6.316   6.830   1.868
  132OSM      P14137   6.457   6.870   2.119
  132OSM    O1314138   6.580   6.872   2.201
  132OSM    O1414139   6.397   0.116   2.081
  132OSM    O1114140   6.351   6.778   2.195
  132OSM    O1214141   6.479   6.779   1.990
  132OSM    C1S14142   6.382   6.657   2.267
  132OSM    H1S14143   6.472   6.611   2.221
  132OSM    H1T14144   6.300   6.585   2.250
  132OSM     NF14145   6.441   6.556   2.492
  132OSM    HNF14146   6.370   6.534   2.559
  132OSM    C2S14147   6.427   6.679   2.421
  132OSM    H2S14148   6.525   6.732   2.426
  132OSM    C3S14149   6.323   6.784   2.487
  132OSM    H3S14150   6.230   6.727   2.506
  132OSM     O314151   6.292   0.021   2.416
  132OSM    HO314152   6.311   0.003   2.324
  132OSM    C4S14153   6.378   6.809   2.622
  132OSM    H4S14154   6.369   6.718   2.683
  132OSM    C5S14155   6.445   0.035   2.675
  132OSM    H5S14156   6.471   0.123   2.614
  132OSM    C6S14157   6.506   0.032   2.815
  132OSM    H6S14158   6.479   0.134   2.852
  132OSM    H6T14159   6.614   0.032   2.790
  132OSM    C7S14160   6.468   6.819   2.927
  132OSM    H7S14161   6.506   6.719   2.896
  132OSM    H7T14162   6.360   6.804   2.950
  132OSM    C8S14163   6.528   6.865   3.061
  132OSM    H8S14164   6.509   0.091   3.073
  132OSM    H8T14165   6.638   6.851   3.061
  132OSM    C9S14166   6.474   6.792   3.178
  132OSM    H9S14167   6.452   6.686   3.151
  132OSM    H9T14168   6.370   6.830   3.193
  132OSM   C10S14169   6.545   6.811   3.314
  132OSM   H10S14170   6.476   6.766   3.389
  132OSM   H10T14171   6.553   0.037   3.332
  132OSM   C11S14172   6.688   6.754   3.325
  132OSM   H11S14173   6.751   6.846   3.322
  132OSM   H11T14174   6.715   6.695   3.235
  132OSM   C12S14175   6.715   6.662   3.446
  132OSM   H12S14176   6.803   6.601   3.417
  132OSM   H12T14177   6.623   6.599   3.451
  132OSM   C13S14178   6.745   6.750   3.575
  132OSM   H13S14179   6.664   6.824   3.590
  132OSM   H13T14180   6.840   6.802   3.552
  132OSM   C14S14181   6.762   6.662   3.704
  132OSM   H14S14182   6.834   6.578   3.696
  132OSM   H14T14183   6.662   6.617   3.718
  132OSM   C15S14184   6.810   6.735   3.832
  132OSM   H15S14185   6.756   6.832   3.826
  132OSM   H15T14186   0.033   6.767   3.826
  132OSM   C16S14187   6.771   6.654   3.953
  132OSM   H16S14188   6.664   6.625   3.942
  132OSM   H16T14189   6.759   6.718   4.044
  132OSM   C17S14190   6.861   6.536   3.981
  132OSM   H17S14191   0.084   6.557   4.007
  132OSM   H17T14192   6.864   6.471   3.890
  132OSM   C18S14193   6.804   6.448   4.089
  132OSM   H18S14194   6.696   6.434   4.067
  132OSM   H18T14195   6.821   6.485   4.192
  132OSM   H18U14196   6.861   6.352   4.088
  132OSM    C1F14197   6.524   6.449   2.461
  132OSM     OF14198   6.607   6.459   2.368
  132OSM    C2F14199   6.514   6.329   2.551
  132OSM    H2F14200   6.532   6.236   2.493
  132OSM    H2G14201   6.417   6.322   2.603
  132OSM    C3F14202   6.622   6.334   2.667
  132OSM    H3F14203   6.726   6.355   2.637
  132OSM    H3G14204   6.619   6.231   2.709
  132OSM    C4F14205   6.596   6.429   2.789
  132OSM    H4F14206   6.488   6.441   2.810
  132OSM    H4G14207   6.635   6.526   2.753
  132OSM    C5F14208   6.644   6.384   2.924
  132OSM    H5F14209   6.624   6.275   2.936
  132OSM    H5G14210   6.592   6.438   3.005
  132OSM    C6F14211   6.792   6.402   2.952
  132OSM    H6F14212   6.821   6.509   2.951
  132OSM    H6G14213   6.839   6.366   2.858
  132OSM    C7F14214   6.855   6.333   3.070
  132OSM    H7F14215   0.082   6.345   3.060
  132OSM    H7G14216   6.832   6.226   3.053
  132OSM    C8F14217   6.804   6.373   3.212
  132OSM    H8F14218   6.832   6.478   3.233
  132OSM    H8G14219   6.861   6.311   3.284
  132OSM    C9F14220   6.664   6.349   3.252
  132OSM    H9F14221   6.587   6.345   3.174
  132OSM   C10F14222   6.623   6.319   3.376
  132OSM   H10F14223   6.517   6.295   3.393
  132OSM   C11F14224   6.702   6.321   3.502
  132OSM   H11F14225   6.677   6.392   3.584
  132OSM   H11G14226   6.801   6.367   3.481
  132OSM   C12F14227   6.742   6.179   3.538
  132OSM   H12F14228   6.799   6.145   3.449
  132OSM   H12G14229   6.653   6.113   3.548
  132OSM   C13F14230   6.843   6.171   3.655
  132OSM   H13F14231   6.834   6.262   3.718
  132OSM   H13G14232   0.059   6.179   3.606
  132OSM   C14F14233   6.833   6.041   3.730
  132OSM   H14F14234   0.029   6.047   3.808
  132OSM   H14G14235   6.850   5.950   3.668
  132OSM   C15F14236   6.706   6.009   3.814
  132OSM   H15F14237   6.736   5.923   3.878
  132OSM   H15G14238   6.626   5.986   3.740
  132OSM   C16F14239   6.651   6.113   3.914
  132OSM   H16F14240   6.730   6.137   3.989
  132OSM   H16G14241   6.584   6.060   3.985
  132OSM   C17F14242   6.581   6.250   3.860
  132OSM   H17F14243   6.641   6.314   3.793
  132OSM   H17G14244   6.551   6.319   3.941
  132OSM   C18F14245   6.455   6.222   3.773
  132OSM   H18F14246   6.487   6.164   3.684
  132OSM   H18G14247   6.413   6.317   3.735
  132OSM   H18H14248   6.389   6.162   3.840
  133OSM      N14249   4.918   3.391   2.171
  133OSM    C1514250   4.920   3.507   2.069
  133OSM   H15A14251   4.974   3.592   2.109
  133OSM   H15B14252   4.819   3.530   2.040
  133OSM   H15C14253   4.971   3.480   1.978
  133OSM    C1414254   4.835   3.427   2.294
  133OSM   H14A14255   4.739   3.466   2.264
  133OSM   H14B14256   4.878   3.515   2.339
  133OSM   H14C14257   4.825   3.345   2.363
  133OSM    C1314258   4.856   3.264   2.120
  133OSM   H13A14259   4.751   3.271   2.145
  133OSM   H13B14260   4.895   3.184   2.181
  133OSM   H13C14261   4.871   3.234   2.018
  133OSM    C1214262   5.066   3.362   2.208
  133OSM   H12A14263   5.108   3.452   2.252
  133OSM   H12B14264   5.118   3.339   2.116
  133OSM    C1114265   5.109   3.252   2.314
  133OSM   H11A14266   5.089   3.303   2.411
  133OSM   H11B14267   5.220   3.249   2.317
  133OSM      P14268   5.124   3.021   2.228
  133OSM    O1314269   5.038   2.914   2.178
  133OSM    O1414270   5.212   3.086   2.131
  133OSM    O1114271   5.205   2.967   2.352
  133OSM    O1214272   5.041   3.124   2.306
  133OSM    C1S14273   5.171   2.848   2.436
  133OSM    H1S14274   5.224   2.765   2.384
  133OSM    H1T14275   5.062   2.829   2.444
  133OSM     NF14276   5.198   2.769   2.676
  133OSM    HNF14277   5.117   2.783   2.733
  133OSM    C2S14278   5.220   2.874   2.578
  133OSM    H2S14279   5.331   2.885   2.577
  133OSM    C3S14280   5.159   3.011   2.644
  133OSM    H3S14281   5.050   2.990   2.645
  133OSM     O314282   5.182   3.127   2.571
  133OSM    HO314283   5.198   3.105   2.479
  133OSM    C4S14284   5.213   3.033   2.784
  133OSM    H4S14285   5.323   3.031   2.787
  133OSM    C5S14286   5.144   3.048   2.895
  133OSM    H5S14287   5.034   3.042   2.896
  133OSM    C6S14288   5.181   3.091   3.032
  133OSM    H6S14289   5.117   3.176   3.066
  133OSM    H6T14290   5.283   3.135   3.035
  133OSM    C7S14291   5.176   2.975   3.131
  133OSM    H7S14292   5.080   2.923   3.106
  133OSM    H7T14293   5.157   3.009   3.235
  133OSM    C8S14294   5.296   2.883   3.139
  133OSM    H8S14295   5.385   2.937   3.177
  133OSM    H8T14296   5.324   2.845   3.038
  133OSM    C9S14297   5.272   2.765   3.232
  133OSM    H9S14298   5.177   2.716   3.203
  133OSM    H9T14299   5.263   2.812   3.333
  133OSM   C10S14300   5.383   2.664   3.236
  133OSM   H10S14301   5.478   2.717   3.259
  133OSM   H10T14302   5.405   2.626   3.134
  133OSM   C11S14303   5.366   2.545   3.331
  133OSM   H11S14304   5.461   2.487   3.338
  133OSM   H11T14305   5.290   2.474   3.292
  133OSM   C12S14306   5.343   2.588   3.480
  133OSM   H12S14307   5.282   2.516   3.537
  133OSM   H12T14308   5.280   2.680   3.486
  133OSM   C13S14309   5.465   2.621   3.564
  133OSM   H13S14310   5.522   2.695   3.504
  133OSM   H13T14311   5.531   2.532   3.567
  133OSM   C14S14312   5.430   2.682   3.697
  133OSM   H14S14313   5.385   2.596   3.752
  133OSM   H14T14314   5.380   2.780   3.685
  133OSM   C15S14315   5.559   2.721   3.787
  133OSM   H15S14316   5.613   2.791   3.720
  133OSM   H15T14317   5.626   2.631   3.782
  133OSM   C16S14318   5.528   2.764   3.930
  133OSM   H16S14319   5.496   2.677   3.991
  133OSM   H16T14320   5.448   2.840   3.923
  133OSM   C17S14321   5.645   2.836   4.001
  133OSM   H17S14322   5.653   2.934   3.948
  133OSM   H17T14323   5.738   2.775   3.997
  133OSM   C18S14324   5.611   2.865   4.143
  133OSM   H18S14325   5.685   2.922   4.203
  133OSM   H18T14326   5.584   2.773   4.198
  133OSM   H18U14327   5.520   2.927   4.129
  133OSM    C1F14328   5.263   2.652   2.669
  133OSM     OF14329   5.361   2.631   2.590
  133OSM    C2F14330   5.199   2.543   2.751
  133OSM    H2F14331   5.148   2.476   2.679
  133OSM    H2G14332   5.125   2.593   2.817
  133OSM    C3F14333   5.287   2.444   2.831
  133OSM    H3F14334   5.341   2.509   2.903
  133OSM    H3G14335   5.369   2.411   2.763
  133OSM    C4F14336   5.217   2.338   2.911
  133OSM    H4F14337   5.295   2.268   2.948
  133OSM    H4G14338   5.156   2.282   2.836
  133OSM    C5F14339   5.131   2.394   3.023
  133OSM    H5F14340   5.053   2.454   2.970
  133OSM    H5G14341   5.176   2.457   3.103
  133OSM    C6F14342   5.072   2.277   3.105
  133OSM    H6F14343   5.152   2.207   3.138
  133OSM    H6G14344   5.011   2.212   3.039
  133OSM    C7F14345   4.993   2.318   3.233
  133OSM    H7F14346   4.916   2.388   3.193
  133OSM    H7G14347   5.051   2.378   3.306
  133OSM    C8F14348   4.935   2.195   3.298
  133OSM    H8F14349   5.027   2.138   3.325
  133OSM    H8G14350   4.884   2.136   3.218
  133OSM    C9F14351   4.831   2.213   3.408
  133OSM    H9F14352   4.758   2.292   3.385
  133OSM   C10F14353   4.831   2.154   3.528
  133OSM   H10F14354   4.747   2.185   3.593
  133OSM   C11F14355   4.921   2.051   3.582
  133OSM   H11F14356   5.020   2.059   3.531
  133OSM   H11G14357   4.886   1.948   3.562
  133OSM   C12F14358   4.965   2.074   3.728
  133OSM   H12F14359   5.030   1.992   3.763
  133OSM   H12G14360   4.883   2.074   3.802
  133OSM   C13F14361   5.038   2.211   3.755
  133OSM   H13F14362   4.966   2.289   3.724
  133OSM   H13G14363   5.123   2.239   3.690
  133OSM   C14F14364   5.071   2.219   3.913
  133OSM   H14F14365   4.989   2.174   3.972
  133OSM   H14G14366   5.063   2.326   3.942
  133OSM   C15F14367   5.216   2.172   3.949
  133OSM   H15F14368   5.240   2.071   3.912
  133OSM   H15G14369   5.222   2.168   4.060
  133OSM   C16F14370   5.318   2.265   3.888
  133OSM   H16F14371   5.299   2.372   3.910
  133OSM   H16G14372   5.317   2.260   3.777
  133OSM   C17F14373   5.462   2.223   3.927
  133OSM   H17F14374   5.477   2.125   3.877
  133OSM   H17G14375   5.460   2.199   4.035
  133OSM   C18F14376   5.574   2.319   3.908
  133OSM   H18F14377   5.669   2.268   3.936
  133OSM   H18G14378   5.567   2.407   3.975
  133OSM   H18H14379   5.573   2.359   3.804
  134OSM      N14380   5.021   6.059   1.925
  134OSM    C1514381   4.871   6.047   1.903
  134OSM   H15A14382   4.846   6.029   1.799
  134OSM   H15B14383   4.823   6.143   1.919
  134OSM   H15C14384   4.821   5.987   1.978
  134OSM    C1414385   5.093   5.940   1.878
  134OSM   H14A14386   5.069   5.922   1.775
  134OSM   H14B14387   5.081   5.849   1.934
  134OSM   H14C14388   5.200   5.953   1.888
  134OSM    C1314389   5.065   6.182   1.852
  134OSM   H13A14390   5.074   6.162   1.746
  134OSM   H13B14391   5.162   6.216   1.884
  134OSM   H13C14392   4.998   6.266   1.859
  134OSM    C1214393   5.045   6.088   2.073
  134OSM   H12A14394   5.005   6.184   2.101
  134OSM   H12B14395   5.147   6.107   2.103
  134OSM    C1114396   5.008   5.972   2.174
  134OSM   H11A14397   4.900   5.945   2.180
  134OSM   H11B14398   5.025   6.026   2.270
  134OSM      P14399   5.229   5.834   2.174
  134OSM    O1314400   5.268   5.736   2.068
  134OSM    O1414401   5.297   5.964   2.176
  134OSM    O1114402   5.247   5.776   2.318
  134OSM    O1214403   5.078   5.848   2.164
  134OSM    C1S14404   5.203   5.835   2.441
  134OSM    H1S14405   5.092   5.836   2.435
  134OSM    H1T14406   5.241   5.937   2.464
  134OSM     NF14407   5.182   5.770   2.685
  134OSM    HNF14408   5.242   5.820   2.747
  134OSM    C2S14409   5.247   5.739   2.565
  134OSM    H2S14410   5.208   5.637   2.546
  134OSM    C3S14411   5.397   5.742   2.575
  134OSM    H3S14412   5.432   5.844   2.603
  134OSM     O314413   5.469   5.725   2.451
  134OSM    HO314414   5.398   5.718   2.387
  134OSM    C4S14415   5.440   5.635   2.671
  134OSM    H4S14416   5.461   5.674   2.772
  134OSM    C5S14417   5.463   5.505   2.648
  134OSM    H5S14418   5.442   5.472   2.544
  134OSM    C6S14419   5.507   5.404   2.746
  134OSM    H6S14420   5.594   5.348   2.704
  134OSM    H6T14421   5.429   5.324   2.743
  134OSM    C7S14422   5.521   5.450   2.888
  134OSM    H7S14423   5.434   5.513   2.919
  134OSM    H7T14424   5.610   5.512   2.912
  134OSM    C8S14425   5.528   5.337   2.993
  134OSM    H8S14426   5.598   5.260   2.955
  134OSM    H8T14427   5.428   5.292   3.008
  134OSM    C9S14428   5.577   5.376   3.145
  134OSM    H9S14429   5.496   5.448   3.169
  134OSM    H9T14430   5.671   5.436   3.144
  134OSM   C10S14431   5.597   5.264   3.238
  134OSM   H10S14432   5.699   5.220   3.230
  134OSM   H10T14433   5.519   5.186   3.223
  134OSM   C11S14434   5.568   5.311   3.381
  134OSM   H11S14435   5.459   5.331   3.376
  134OSM   H11T14436   5.626   5.395   3.424
  134OSM   C12S14437   5.571   5.195   3.487
  134OSM   H12S14438   5.672   5.150   3.477
  134OSM   H12T14439   5.493   5.119   3.465
  134OSM   C13S14440   5.553   5.242   3.630
  134OSM   H13S14441   5.637   5.310   3.656
  134OSM   H13T14442   5.579   5.153   3.691
  134OSM   C14S14443   5.410   5.300   3.664
  134OSM   H14S14444   5.342   5.215   3.639
  134OSM   H14T14445   5.376   5.379   3.594
  134OSM   C15S14446   5.396   5.330   3.814
  134OSM   H15S14447   5.435   5.432   3.832
  134OSM   H15T14448   5.457   5.248   3.858
  134OSM   C16S14449   5.252   5.333   3.857
  134OSM   H16S14450   5.201   5.240   3.825
  134OSM   H16T14451   5.204   5.416   3.802
  134OSM   C17S14452   5.233   5.358   4.013
  134OSM   H17S14453   5.306   5.433   4.052
  134OSM   H17T14454   5.243   5.262   4.068
  134OSM   C18S14455   5.095   5.425   4.054
  134OSM   H18S14456   5.017   5.371   3.995
  134OSM   H18T14457   5.094   5.532   4.023
  134OSM   H18U14458   5.081   5.424   4.164
  134OSM    C1F14459   5.056   5.756   2.703
  134OSM     OF14460   4.982   5.746   2.607
  134OSM    C2F14461   5.012   5.765   2.840
  134OSM    H2F14462   5.044   5.863   2.882
  134OSM    H2G14463   5.066   5.687   2.898
  134OSM    C3F14464   4.864   5.739   2.853
  134OSM    H3F14465   4.830   5.644   2.807
  134OSM    H3G14466   4.812   5.816   2.793
  134OSM    C4F14467   4.810   5.747   2.996
  134OSM    H4F14468   4.876   5.688   3.063
  134OSM    H4G14469   4.718   5.686   3.006
  134OSM    C5F14470   4.793   5.889   3.046
  134OSM    H5F14471   4.744   5.961   2.978
  134OSM    H5G14472   4.894   5.929   3.070
  134OSM    C6F14473   4.724   5.885   3.188
  134OSM    H6F14474   4.618   5.854   3.187
  134OSM    H6G14475   4.725   5.990   3.224
  134OSM    C7F14476   4.809   5.806   3.293
  134OSM    H7F14477   4.913   5.822   3.260
  134OSM    H7G14478   4.790   5.697   3.282
  134OSM    C8F14479   4.786   5.855   3.432
  134OSM    H8F14480   4.696   5.815   3.483
  134OSM    H8G14481   4.768   5.964   3.425
  134OSM    C9F14482   4.909   5.832   3.518
  134OSM    H9F14483   4.967   5.741   3.499
  134OSM   C10F14484   4.962   5.912   3.609
  134OSM   H10F14485   5.056   5.888   3.661
  134OSM   C11F14486   4.911   6.047   3.643
  134OSM   H11F14487   4.803   6.060   3.617
  134OSM   H11G14488   4.968   6.119   3.581
  134OSM   C12F14489   4.919   6.072   3.794
  134OSM   H12F14490   5.024   6.057   3.827
  134OSM   H12G14491   4.853   5.999   3.846
  134OSM   C13F14492   4.886   6.214   3.840
  134OSM   H13F14493   4.780   6.232   3.812
  134OSM   H13G14494   4.944   6.280   3.772
  134OSM   C14F14495   4.920   6.239   3.989
  134OSM   H14F14496   4.887   6.151   4.049
  134OSM   H14G14497   4.868   6.321   4.043
  134OSM   C15F14498   5.066   6.260   4.015
  134OSM   H15F14499   5.101   6.351   3.962
  134OSM   H15G14500   5.117   6.173   3.969
  134OSM   C16F14501   5.102   6.272   4.167
  134OSM   H16F14502   5.074   6.181   4.224
  134OSM   H16G14503   5.046   6.353   4.218
  134OSM   C17F14504   5.255   6.303   4.192
  134OSM   H17F14505   5.285   6.254   4.287
  134OSM   H17G14506   5.274   6.412   4.198
  134OSM   C18F14507   5.356   6.248   4.091
  134OSM   H18F14508   5.324   6.145   4.062
  134OSM   H18G14509   5.451   6.254   4.148
  134OSM   H18H14510   5.346   6.311   4.000
  135OSM      N14511   6.670   1.142   1.566
  135OSM    C1514512   6.538   1.205   1.543
  135OSM   H15A14513   6.545   1.294   1.482
  135OSM   H15B14514   6.511   1.246   1.639
  135OSM   H15C14515   6.468   1.130   1.512
  135OSM    C1414516   6.649   1.021   1.657
  135OSM   H14A14517   6.579   0.949   1.616
  135OSM   H14B14518   6.613   1.047   1.755
  135OSM   H14C14519   6.743   0.970   1.666
  135OSM    C1314520   6.739   1.086   1.441
  135OSM   H13A14521   6.781   1.167   1.383
  135OSM   H13B14522   6.678   1.024   1.377
  135OSM   H13C14523   6.822   1.028   1.476
  135OSM    C1214524   6.763   1.237   1.634
  135OSM   H12A14525   6.794   1.318   1.570
  135OSM   H12B14526   6.853   1.181   1.652
  135OSM    C1114527   6.723   1.295   1.769
  135OSM   H11A14528   6.619   1.331   1.754
  135OSM   H11B14529   6.784   1.381   1.803
  135OSM      P14530   6.860   1.142   1.936
  135OSM    O1314531   6.837   1.014   2.003
  135OSM    O1414532   0.083   1.152   1.832
  135OSM    O1114533   0.001   1.260   2.041
  135OSM    O1214534   6.726   1.186   1.867
  135OSM    C1S14535   6.795   1.288   2.154
  135OSM    H1S14536   6.699   1.234   2.144
  135OSM    H1T14537   6.770   1.397   2.155
  135OSM     NF14538   6.779   1.276   2.400
  135OSM    HNF14539   6.805   1.362   2.442
  135OSM    C2S14540   6.870   1.254   2.290
  135OSM    H2S14541   0.016   1.147   2.287
  135OSM    C3S14542   0.118   1.329   2.300
  135OSM    H3S14543   0.092   1.436   2.288
  135OSM     O314544   0.206   1.295   2.195
  135OSM    HO314545   0.149   1.265   2.124
  135OSM    C4S14546   0.190   1.300   2.436
  135OSM    H4S14547   0.185   1.380   2.511
  135OSM    C5S14548   0.257   1.188   2.472
  135OSM    H5S14549   0.267   1.108   2.397
  135OSM    C6S14550   0.341   1.169   2.594
  135OSM    H6S14551   0.445   1.157   2.558
  135OSM    H6T14552   0.318   1.068   2.634
  135OSM    C7S14553   0.323   1.279   2.705
  135OSM    H7S14554   0.217   1.289   2.739
  135OSM    H7T14555   0.333   1.379   2.657
  135OSM    C8S14556   0.422   1.266   2.824
  135OSM    H8S14557   0.526   1.279   2.788
  135OSM    H8T14558   0.402   1.172   2.880
  135OSM    C9S14559   0.408   1.369   2.945
  135OSM    H9S14560   0.300   1.393   2.959
  135OSM    H9T14561   0.469   1.460   2.932
  135OSM   C10S14562   0.441   1.313   3.085
  135OSM   H10S14563   0.551   1.292   3.088
  135OSM   H10T14564   0.383   1.221   3.106
  135OSM   C11S14565   0.390   1.409   3.190
  135OSM   H11S14566   0.280   1.403   3.179
  135OSM   H11T14567   0.429   1.512   3.173
  135OSM   C12S14568   0.426   1.352   3.327
  135OSM   H12S14569   0.426   1.446   3.387
  135OSM   H12T14570   0.524   1.301   3.333
  135OSM   C13S14571   0.328   1.249   3.376
  135OSM   H13S14572   0.319   1.166   3.302
  135OSM   H13T14573   0.228   1.294   3.393
  135OSM   C14S14574   0.383   1.174   3.503
  135OSM   H14S14575   0.471   1.109   3.488
  135OSM   H14T14576   0.297   1.125   3.554
  135OSM   C15S14577   0.435   1.273   3.617
  135OSM   H15S14578   0.366   1.360   3.627
  135OSM   H15T14579   0.528   1.319   3.578
  135OSM   C16S14580   0.466   1.212   3.753
  135OSM   H16S14581   0.550   1.141   3.743
  135OSM   H16T14582   0.376   1.158   3.792
  135OSM   C17S14583   0.533   1.315   3.851
  135OSM   H17S14584   0.612   1.351   3.782
  135OSM   H17T14585   0.579   1.270   3.942
  135OSM   C18S14586   0.440   1.420   3.901
  135OSM   H18S14587   0.489   1.486   3.976
  135OSM   H18T14588   0.358   1.372   3.958
  135OSM   H18U14589   0.404   1.494   3.827
  135OSM    C1F14590   6.678   1.201   2.428
  135OSM     OF14591   6.667   1.097   2.369
  135OSM    C2F14592   6.574   1.248   2.521
  135OSM    H2F14593   6.476   1.264   2.472
  135OSM    H2G14594   6.602   1.347   2.563
  135OSM    C3F14595   6.552   1.143   2.638
  135OSM    H3F14596   6.529   1.043   2.594
  135OSM    H3G14597   6.459   1.158   2.697
  135OSM    C4F14598   6.681   1.131   2.724
  135OSM    H4F14599   6.723   1.230   2.754
  135OSM    H4G14600   6.752   1.067   2.666
  135OSM    C5F14601   6.655   1.043   2.846
  135OSM    H5F14602   6.587   0.958   2.824
  135OSM    H5G14603   6.599   1.106   2.919
  135OSM    C6F14604   6.772   0.984   2.910
  135OSM    H6F14605   6.843   1.062   2.946
  135OSM    H6G14606   6.836   0.918   2.847
  135OSM    C7F14607   6.731   0.896   3.027
  135OSM    H7F14608   6.692   0.799   2.988
  135OSM    H7G14609   6.649   0.948   3.082
  135OSM    C8F14610   6.851   0.875   3.122
  135OSM    H8F14611   6.818   0.806   3.202
  135OSM    H8G14612   6.863   0.977   3.166
  135OSM    C9F14613   0.087   0.810   3.055
  135OSM    H9F14614   0.133   0.878   2.982
  135OSM   C10F14615   0.161   0.714   3.102
  135OSM   H10F14616   0.249   0.678   3.046
  135OSM   C11F14617   0.130   0.630   3.226
  135OSM   H11F14618   0.159   0.524   3.215
  135OSM   H11G14619   0.020   0.628   3.241
  135OSM   C12F14620   0.185   0.689   3.364
  135OSM   H12F14621   0.124   0.637   3.440
  135OSM   H12G14622   0.158   0.796   3.379
  135OSM   C13F14623   0.337   0.662   3.377
  135OSM   H13F14624   0.388   0.682   3.280
  135OSM   H13G14625   0.356   0.557   3.410
  135OSM   C14F14626   0.402   0.747   3.485
  135OSM   H14F14627   0.362   0.850   3.468
  135OSM   H14G14628   0.503   0.758   3.440
  135OSM   C15F14629   0.384   0.700   3.626
  135OSM   H15F14630   0.455   0.618   3.650
  135OSM   H15G14631   0.284   0.659   3.648
  135OSM   C16F14632   0.411   0.822   3.725
  135OSM   H16F14633   0.341   0.906   3.706
  135OSM   H16G14634   0.514   0.857   3.705
  135OSM   C17F14635   0.426   0.798   3.878
  135OSM   H17F14636   0.489   0.706   3.882
  135OSM   H17G14637   0.324   0.785   3.920
  135OSM   C18F14638   0.489   0.903   3.959
  135OSM   H18F14639   0.572   0.955   3.906
  135OSM   H18G14640   0.538   0.872   4.054
  135OSM   H18H14641   0.417   0.981   3.994
  136OSM      N14642   2.702   4.697   1.660
  136OSM    C1514643   2.660   4.834   1.715
  136OSM   H15A14644   2.676   4.913   1.642
  136OSM   H15B14645   2.733   4.855   1.792
  136OSM   H15C14646   2.560   4.832   1.755
  136OSM    C1414647   2.622   4.677   1.534
  136OSM   H14A14648   2.518   4.666   1.559
  136OSM   H14B14649   2.658   4.596   1.471
  136OSM   H14C14650   2.624   4.768   1.475
  136OSM    C1314651   2.846   4.681   1.628
  136OSM   H13A14652   2.861   4.756   1.552
  136OSM   H13B14653   2.886   4.588   1.592
  136OSM   H13C14654   2.902   4.691   1.719
  136OSM    C1214655   2.668   4.594   1.765
  136OSM   H12A14656   2.699   4.498   1.727
  136OSM   H12B14657   2.561   4.584   1.773
  136OSM    C1114658   2.731   4.613   1.909
  136OSM   H11A14659   2.692   4.525   1.965
  136OSM   H11B14660   2.698   4.702   1.966
  136OSM      P14661   2.955   4.477   1.932
  136OSM    O1314662   2.868   4.358   1.931
  136OSM    O1414663   3.064   4.488   1.834
  136OSM    O1114664   3.010   4.492   2.080
  136OSM    O1214665   2.867   4.602   1.906
  136OSM    C1S14666   2.945   4.567   2.181
  136OSM    H1S14667   2.850   4.619   2.157
  136OSM    H1T14668   3.015   4.648   2.212
  136OSM     NF14669   2.848   4.543   2.404
  136OSM    HNF14670   2.890   4.543   2.495
  136OSM    C2S14671   2.925   4.477   2.300
  136OSM    H2S14672   2.866   4.389   2.266
  136OSM    C3S14673   3.050   4.409   2.354
  136OSM    H3S14674   3.124   4.488   2.376
  136OSM     O314675   3.125   4.340   2.255
  136OSM    HO314676   3.108   4.392   2.176
  136OSM    C4S14677   3.023   4.322   2.472
  136OSM    H4S14678   3.027   4.374   2.569
  136OSM    C5S14679   2.983   4.189   2.473
  136OSM    H5S14680   2.964   4.142   2.375
  136OSM    C6S14681   2.942   4.096   2.582
  136OSM    H6S14682   3.019   4.016   2.589
  136OSM    H6T14683   2.842   4.052   2.568
  136OSM    C7S14684   2.928   4.170   2.720
  136OSM    H7S14685   2.858   4.256   2.719
  136OSM    H7T14686   3.029   4.207   2.749
  136OSM    C8S14687   2.900   4.085   2.841
  136OSM    H8S14688   2.968   3.998   2.850
  136OSM    H8T14689   2.795   4.048   2.849
  136OSM    C9S14690   2.921   4.170   2.967
  136OSM    H9S14691   2.867   4.267   2.957
  136OSM    H9T14692   3.026   4.197   2.992
  136OSM   C10S14693   2.887   4.099   3.105
  136OSM   H10S14694   2.968   4.029   3.134
  136OSM   H10T14695   2.801   4.032   3.086
  136OSM   C11S14696   2.872   4.185   3.232
  136OSM   H11S14697   2.776   4.242   3.235
  136OSM   H11T14698   2.960   4.252   3.238
  136OSM   C12S14699   2.865   4.112   3.373
  136OSM   H12S14700   2.947   4.037   3.362
  136OSM   H12T14701   2.772   4.052   3.382
  136OSM   C13S14702   2.878   4.207   3.492
  136OSM   H13S14703   2.788   4.273   3.493
  136OSM   H13T14704   2.958   4.283   3.479
  136OSM   C14S14705   2.901   4.124   3.619
  136OSM   H14S14706   2.988   4.059   3.598
  136OSM   H14T14707   2.813   4.059   3.639
  136OSM   C15S14708   2.929   4.219   3.745
  136OSM   H15S14709   2.836   4.280   3.736
  136OSM   H15T14710   3.018   4.280   3.719
  136OSM   C16S14711   2.948   4.132   3.872
  136OSM   H16S14712   3.024   4.057   3.843
  136OSM   H16T14713   2.859   4.071   3.900
  136OSM   C17S14714   2.980   4.220   3.990
  136OSM   H17S14715   2.897   4.293   4.005
  136OSM   H17T14716   3.069   4.285   3.975
  136OSM   C18S14717   2.987   4.146   4.127
  136OSM   H18S14718   3.067   4.070   4.123
  136OSM   H18T14719   2.888   4.097   4.138
  136OSM   H18U14720   3.011   4.221   4.206
  136OSM    C1F14721   2.722   4.586   2.384
  136OSM     OF14722   2.667   4.570   2.274
  136OSM    C2F14723   2.654   4.648   2.506
  136OSM    H2F14724   2.711   4.742   2.524
  136OSM    H2G14725   2.666   4.575   2.588
  136OSM    C3F14726   2.508   4.675   2.479
  136OSM    H3F14727   2.460   4.588   2.430
  136OSM    H3G14728   2.492   4.760   2.409
  136OSM    C4F14729   2.430   4.719   2.600
  136OSM    H4F14730   2.339   4.775   2.568
  136OSM    H4G14731   2.497   4.792   2.650
  136OSM    C5F14732   2.405   4.609   2.705
  136OSM    H5F14733   2.503   4.561   2.727
  136OSM    H5G14734   2.347   4.519   2.673
  136OSM    C6F14735   2.347   4.657   2.840
  136OSM    H6F14736   2.240   4.686   2.841
  136OSM    H6G14737   2.398   4.752   2.869
  136OSM    C7F14738   2.373   4.567   2.957
  136OSM    H7F14739   2.481   4.544   2.954
  136OSM    H7G14740   2.319   4.470   2.952
  136OSM    C8F14741   2.332   4.617   3.093
  136OSM    H8F14742   2.225   4.646   3.097
  136OSM    H8G14743   2.386   4.711   3.115
  136OSM    C9F14744   2.342   4.512   3.199
  136OSM    H9F14745   2.377   4.420   3.151
  136OSM   C10F14746   2.328   4.537   3.328
  136OSM   H10F14747   2.340   4.452   3.397
  136OSM   C11F14748   2.304   4.655   3.413
  136OSM   H11F14749   2.254   4.728   3.345
  136OSM   H11G14750   2.399   4.703   3.445
  136OSM   C12F14751   2.215   4.632   3.526
  136OSM   H12F14752   2.127   4.573   3.495
  136OSM   H12G14753   2.174   4.726   3.568
  136OSM   C13F14754   2.276   4.566   3.649
  136OSM   H13F14755   2.338   4.643   3.700
  136OSM   H13G14756   2.349   4.486   3.625
  136OSM   C14F14757   2.173   4.504   3.746
  136OSM   H14F14758   2.147   4.398   3.725
  136OSM   H14G14759   2.081   4.563   3.729
  136OSM   C15F14760   2.211   4.508   3.899
  136OSM   H15F14761   2.226   4.616   3.921
  136OSM   H15G14762   2.297   4.442   3.923
  136OSM   C16F14763   2.094   4.468   3.987
  136OSM   H16F14764   2.002   4.461   3.925
  136OSM   H16G14765   2.085   4.541   4.069
  136OSM   C17F14766   2.118   4.334   4.061
  136OSM   H17F14767   2.221   4.326   4.102
  136OSM   H17G14768   2.108   4.249   3.990
  136OSM   C18F14769   2.022   4.310   4.177
  136OSM   H18F14770   1.915   4.304   4.147
  136OSM   H18G14771   2.029   4.382   4.261
  136OSM   H18H14772   2.040   4.208   4.215
  137OSM      N14773   0.990   1.667   1.726
  137OSM    C1514774   0.841   1.698   1.737
  137OSM   H15A14775   0.800   1.721   1.640
  137OSM   H15B14776   0.835   1.781   1.806
  137OSM   H15C14777   0.786   1.619   1.787
  137OSM    C1414778   1.043   1.595   1.843
  137OSM   H14A14779   1.147   1.570   1.851
  137OSM   H14B14780   0.992   1.500   1.857
  137OSM   H14C14781   1.015   1.653   1.930
  137OSM    C1314782   1.006   1.584   1.603
  137OSM   H13A14783   1.110   1.580   1.573
  137OSM   H13B14784   0.946   1.618   1.519
  137OSM   H13C14785   0.970   1.484   1.620
  137OSM    C1214786   1.052   1.806   1.707
  137OSM   H12A14787   1.029   1.848   1.610
  137OSM   H12B14788   1.158   1.794   1.693
  137OSM    C1114789   1.042   1.901   1.829
  137OSM   H11A14790   1.138   1.957   1.831
  137OSM   H11B14791   1.036   1.859   1.931
  137OSM      P14792   0.938   2.140   1.807
  137OSM    O1314793   1.060   2.180   1.734
  137OSM    O1414794   0.802   2.183   1.768
  137OSM    O1114795   0.962   2.173   1.957
  137OSM    O1214796   0.933   1.989   1.813
  137OSM    C1S14797   0.867   2.168   2.062
  137OSM    H1S14798   0.801   2.079   2.061
  137OSM    H1T14799   0.796   2.253   2.064
  137OSM     NF14800   0.859   2.102   2.302
  137OSM    HNF14801   0.803   2.171   2.349
  137OSM    C2S14802   0.944   2.162   2.199
  137OSM    H2S14803   1.023   2.085   2.185
  137OSM    C3S14804   1.002   2.302   2.229
  137OSM    H3S14805   0.912   2.367   2.229
  137OSM     O314806   1.079   2.339   2.116
  137OSM    HO314807   1.051   2.275   2.050
  137OSM    C4S14808   1.086   2.317   2.356
  137OSM    H4S14809   1.031   2.336   2.449
  137OSM    C5S14810   1.215   2.333   2.374
  137OSM    H5S14811   1.285   2.327   2.289
  137OSM    C6S14812   1.298   2.374   2.491
  137OSM    H6S14813   1.342   2.475   2.476
  137OSM    H6T14814   1.383   2.305   2.507
  137OSM    C7S14815   1.225   2.370   2.622
  137OSM    H7S14816   1.165   2.277   2.633
  137OSM    H7T14817   1.146   2.447   2.621
  137OSM    C8S14818   1.327   2.388   2.731
  137OSM    H8S14819   1.368   2.491   2.721
  137OSM    H8T14820   1.412   2.318   2.717
  137OSM    C9S14821   1.274   2.382   2.879
  137OSM    H9S14822   1.217   2.290   2.900
  137OSM    H9T14823   1.212   2.471   2.900
  137OSM   C10S14824   1.377   2.388   2.991
  137OSM   H10S14825   1.421   2.489   2.979
  137OSM   H10T14826   1.453   2.310   2.971
  137OSM   C11S14827   1.313   2.383   3.126
  137OSM   H11S14828   1.257   2.477   3.143
  137OSM   H11T14829   1.393   2.402   3.201
  137OSM   C12S14830   1.238   2.259   3.173
  137OSM   H12S14831   1.297   2.166   3.181
  137OSM   H12T14832   1.155   2.244   3.100
  137OSM   C13S14833   1.166   2.273   3.309
  137OSM   H13S14834   1.100   2.184   3.317
  137OSM   H13T14835   1.103   2.364   3.303
  137OSM   C14S14836   1.269   2.303   3.423
  137OSM   H14S14837   1.325   2.399   3.419
  137OSM   H14T14838   1.340   2.219   3.441
  137OSM   C15S14839   1.180   2.323   3.551
  137OSM   H15S14840   1.112   2.235   3.560
  137OSM   H15T14841   1.130   2.421   3.542
  137OSM   C16S14842   1.256   2.347   3.691
  137OSM   H16S14843   1.352   2.402   3.682
  137OSM   H16T14844   1.270   2.242   3.722
  137OSM   C17S14845   1.171   2.418   3.796
  137OSM   H17S14846   1.077   2.363   3.816
  137OSM   H17T14847   1.155   2.522   3.760
  137OSM   C18S14848   1.249   2.428   3.929
  137OSM   H18S14849   1.330   2.504   3.932
  137OSM   H18T14850   1.303   2.337   3.963
  137OSM   H18U14851   1.172   2.461   4.002
  137OSM    C1F14852   0.814   1.979   2.303
  137OSM     OF14853   0.872   1.888   2.245
  137OSM    C2F14854   0.676   1.970   2.365
  137OSM    H2F14855   0.607   1.948   2.281
  137OSM    H2G14856   0.652   2.070   2.408
  137OSM    C3F14857   0.667   1.858   2.464
  137OSM    H3F14858   0.690   1.753   2.436
  137OSM    H3G14859   0.567   1.863   2.510
  137OSM    C4F14860   0.765   1.885   2.583
  137OSM    H4F14861   0.875   1.870   2.574
  137OSM    H4G14862   0.727   1.809   2.655
  137OSM    C5F14863   0.756   2.018   2.658
  137OSM    H5F14864   0.655   2.038   2.701
  137OSM    H5G14865   0.771   2.094   2.578
  137OSM    C6F14866   0.858   2.040   2.771
  137OSM    H6F14867   0.960   2.035   2.727
  137OSM    H6G14868   0.843   1.966   2.852
  137OSM    C7F14869   0.844   2.179   2.831
  137OSM    H7F14870   0.754   2.232   2.793
  137OSM    H7G14871   0.930   2.238   2.794
  137OSM    C8F14872   0.842   2.176   2.986
  137OSM    H8F14873   0.829   2.278   3.029
  137OSM    H8G14874   0.943   2.137   3.006
  137OSM    C9F14875   0.719   2.097   3.036
  137OSM    H9F14876   0.632   2.078   2.972
  137OSM   C10F14877   0.695   2.086   3.167
  137OSM   H10F14878   0.605   2.031   3.197
  137OSM   C11F14879   0.789   2.124   3.274
  137OSM   H11F14880   0.820   2.228   3.252
  137OSM   H11G14881   0.880   2.060   3.263
  137OSM   C12F14882   0.741   2.117   3.416
  137OSM   H12F14883   0.734   2.007   3.429
  137OSM   H12G14884   0.640   2.161   3.425
  137OSM   C13F14885   0.815   2.185   3.532
  137OSM   H13F14886   0.848   2.287   3.504
  137OSM   H13G14887   0.913   2.136   3.548
  137OSM   C14F14888   0.731   2.180   3.661
  137OSM   H14F14889   0.694   2.076   3.675
  137OSM   H14G14890   0.642   2.244   3.640
  137OSM   C15F14891   0.794   2.227   3.792
  137OSM   H15F14892   0.708   2.254   3.856
  137OSM   H15G14893   0.852   2.322   3.789
  137OSM   C16F14894   0.885   2.120   3.849
  137OSM   H16F14895   0.975   2.114   3.784
  137OSM   H16G14896   0.826   2.026   3.839
  137OSM   C17F14897   0.920   2.146   3.998
  137OSM   H17F14898   0.826   2.164   4.054
  137OSM   H17G14899   0.976   2.242   4.004
  137OSM   C18F14900   0.996   2.030   4.063
  137OSM   H18F14901   1.026   2.048   4.169
  137OSM   H18G14902   1.081   2.028   3.992
  137OSM   H18H14903   0.946   1.932   4.048
  138OSM      N14904   5.873   6.268   2.055
  138OSM    C1514905   5.879   6.213   1.913
  138OSM   H15A14906   5.977   6.192   1.874
  138OSM   H15B14907   5.823   6.274   1.844
  138OSM   H15C14908   5.821   6.122   1.903
  138OSM    C1414909   5.749   6.357   2.067
  138OSM   H14A14910   5.737   6.390   2.169
  138OSM   H14B14911   5.662   6.296   2.046
  138OSM   H14C14912   5.766   6.439   1.999
  138OSM    C1314913   5.875   6.154   2.149
  138OSM   H13A14914   5.964   6.093   2.157
  138OSM   H13B14915   5.793   6.087   2.126
  138OSM   H13C14916   5.842   6.187   2.246
  138OSM    C1214917   5.985   6.367   2.088
  138OSM   H12A14918   5.971   6.457   2.031
  138OSM   H12B14919   6.081   6.321   2.068
  138OSM    C1114920   5.986   6.438   2.224
  138OSM   H11A14921   5.896   6.502   2.211
  138OSM   H11B14922   6.078   6.500   2.218
  138OSM      P14923   6.101   6.335   2.435
  138OSM    O1314924   6.082   6.253   2.556
  138OSM    O1414925   6.229   6.310   2.363
  138OSM    O1114926   6.102   6.481   2.499
  138OSM    O1214927   5.975   6.346   2.333
  138OSM    C1S14928   5.996   6.532   2.574
  138OSM    H1S14929   5.899   6.493   2.539
  138OSM    H1T14930   5.989   6.642   2.554
  138OSM     NF14931   5.881   6.552   2.786
  138OSM    HNF14932   5.869   6.642   2.828
  138OSM    C2S14933   6.008   6.521   2.733
  138OSM    H2S14934   6.018   6.412   2.750
  138OSM    C3S14935   6.141   6.592   2.782
  138OSM    H3S14936   6.144   6.697   2.748
  138OSM     O314937   6.256   6.523   2.736
  138OSM    HO314938   6.221   6.481   2.657
  138OSM    C4S14939   6.135   6.597   2.932
  138OSM    H4S14940   6.192   6.519   2.984
  138OSM    C5S14941   6.080   6.695   3.010
  138OSM    H5S14942   6.039   6.784   2.961
  138OSM    C6S14943   6.082   6.716   3.161
  138OSM    H6S14944   5.979   6.739   3.195
  138OSM    H6T14945   6.144   6.806   3.180
  138OSM    C7S14946   6.155   6.607   3.229
  138OSM    H7S14947   6.256   6.598   3.184
  138OSM    H7T14948   6.098   6.512   3.215
  138OSM    C8S14949   6.176   6.634   3.377
  138OSM    H8S14950   6.077   6.646   3.426
  138OSM    H8T14951   6.237   6.727   3.378
  138OSM    C9S14952   6.271   6.521   3.437
  138OSM    H9S14953   6.337   6.493   3.353
  138OSM    H9T14954   6.209   6.430   3.456
  138OSM   C10S14955   6.353   6.553   3.563
  138OSM   H10S14956   6.408   6.649   3.552
  138OSM   H10T14957   6.420   6.466   3.578
  138OSM   C11S14958   6.260   6.544   3.682
  138OSM   H11S14959   6.233   6.438   3.703
  138OSM   H11T14960   6.164   6.596   3.660
  138OSM   C12S14961   6.311   6.599   3.814
  138OSM   H12S14962   6.275   6.704   3.806
  138OSM   H12T14963   6.421   6.591   3.829
  138OSM   C13S14964   6.237   6.546   3.934
  138OSM   H13S14965   6.275   6.443   3.954
  138OSM   H13T14966   6.128   6.531   3.918
  138OSM   C14S14967   6.254   6.648   4.048
  138OSM   H14S14968   6.196   6.737   4.014
  138OSM   H14T14969   6.357   6.671   4.083
  138OSM   C15S14970   6.176   6.584   4.170
  138OSM   H15S14971   6.212   6.488   4.211
  138OSM   H15T14972   6.072   6.569   4.133
  138OSM   C16S14973   6.168   6.675   4.290
  138OSM   H16S14974   6.083   6.745   4.275
  138OSM   H16T14975   6.260   6.735   4.305
  138OSM   C17S14976   6.147   6.603   4.421
  138OSM   H17S14977   6.225   6.525   4.433
  138OSM   H17T14978   6.050   6.550   4.416
  138OSM   C18S14979   6.146   6.699   4.541
  138OSM   H18S14980   6.062   6.771   4.532
  138OSM   H18T14981   6.238   6.757   4.565
  138OSM   H18U14982   6.121   6.633   4.626
  138OSM    C1F14983   5.780   6.463   2.782
  138OSM     OF14984   5.794   6.347   2.743
  138OSM    C2F14985   5.642   6.518   2.830
  138OSM    H2F14986   5.584   6.524   2.735
  138OSM    H2G14987   5.660   6.618   2.874
  138OSM    C3F14988   5.558   6.434   2.929
  138OSM    H3F14989   5.566   6.335   2.880
  138OSM    H3G14990   5.452   6.462   2.945
  138OSM    C4F14991   5.610   6.419   3.070
  138OSM    H4F14992   5.717   6.390   3.074
  138OSM    H4G14993   5.555   6.345   3.131
  138OSM    C5F14994   5.609   6.557   3.148
  138OSM    H5F14995   5.503   6.571   3.176
  138OSM    H5G14996   5.637   6.651   3.094
  138OSM    C6F14997   5.709   6.542   3.278
  138OSM    H6F14998   5.812   6.543   3.236
  138OSM    H6G14999   5.675   6.440   3.306
  138OSM    C7F15000   5.697   6.659   3.372
  138OSM    H7F15001   5.587   6.674   3.381
  138OSM    H7G15002   5.740   6.748   3.322
  138OSM    C8F15003   5.768   6.627   3.507
  138OSM    H8F15004   5.780   6.726   3.556
  138OSM    H8G15005   5.871   6.600   3.477
  138OSM    C9F15006   5.703   6.530   3.598
  138OSM    H9F15007   5.603   6.496   3.568
  138OSM   C10F15008   5.753   6.475   3.709
  138OSM   H10F15009   5.700   6.400   3.769
  138OSM   C11F15010   5.880   6.524   3.776
  138OSM   H11F15011   5.951   6.577   3.707
  138OSM   H11G15012   5.942   6.440   3.812
  138OSM   C12F15013   5.848   6.612   3.898
  138OSM   H12F15014   5.771   6.684   3.862
  138OSM   H12G15015   5.945   6.656   3.927
  138OSM   C13F15016   5.788   6.533   4.009
  138OSM   H13F15017   5.862   6.461   4.051
  138OSM   H13G15018   5.692   6.480   3.992
  138OSM   C14F15019   5.755   6.620   4.129
  138OSM   H14F15020   5.697   6.710   4.100
  138OSM   H14G15021   5.852   6.662   4.161
  138OSM   C15F15022   5.691   6.537   4.246
  138OSM   H15F15023   5.767   6.462   4.275
  138OSM   H15G15024   5.603   6.479   4.208
  138OSM   C16F15025   5.651   6.617   4.366
  138OSM   H16F15026   5.572   6.555   4.413
  138OSM   H16G15027   5.591   6.708   4.341
  138OSM   C17F15028   5.768   6.671   4.458
  138OSM   H17F15029   5.848   6.717   4.398
  138OSM   H17G15030   5.813   6.573   4.486
  138OSM   C18F15031   5.724   6.730   4.588
  138OSM   H18F15032   5.678   6.830   4.574
  138OSM   H18G15033   5.804   6.735   4.664
  138OSM   H18H15034   5.651   6.665   4.641
  139OSM      N15035   0.579   1.049   1.958
  139OSM    C1515036   0.482   1.158   1.988
  139OSM   H15A15037   0.516   1.231   2.061
  139OSM   H15B15038   0.391   1.114   2.027
  139OSM   H15C15039   0.449   1.213   1.901
  139OSM    C1415040   0.619   0.990   2.090
  139OSM   H14A15041   0.696   0.915   2.079
  139OSM   H14B15042   0.538   0.948   2.147
  139OSM   H14C15043   0.653   1.069   2.156
  139OSM    C1315044   0.517   0.943   1.863
  139OSM   H13A15045   0.451   0.886   1.927
  139OSM   H13B15046   0.588   0.875   1.818
  139OSM   H13C15047   0.461   0.986   1.782
  139OSM    C1215048   0.693   1.119   1.893
  139OSM   H12A15049   0.725   1.198   1.959
  139OSM   H12B15050   0.653   1.177   1.811
  139OSM    C1115051   0.806   1.031   1.847
  139OSM   H11A15052   0.877   1.098   1.795
  139OSM   H11B15053   0.765   0.951   1.782
  139OSM      P15054   1.002   1.034   2.024
  139OSM    O1315055   0.998   0.981   2.163
  139OSM    O1415056   1.134   1.006   1.954
  139OSM    O1115057   0.978   1.191   2.015
  139OSM    O1215058   0.876   0.968   1.954
  139OSM    C1S15059   0.940   1.283   2.112
  139OSM    H1S15060   0.885   1.226   2.190
  139OSM    H1T15061   0.878   1.370   2.082
  139OSM     NF15062   1.015   1.428   2.306
  139OSM    HNF15063   1.007   1.525   2.285
  139OSM    C2S15064   1.065   1.340   2.197
  139OSM    H2S15065   1.116   1.249   2.235
  139OSM    C3S15066   1.171   1.408   2.109
  139OSM    H3S15067   1.128   1.507   2.082
  139OSM     O315068   1.194   1.343   1.982
  139OSM    HO315069   1.127   1.276   1.972
  139OSM    C4S15070   1.299   1.426   2.181
  139OSM    H4S15071   1.347   1.332   2.214
  139OSM    C5S15072   1.377   1.538   2.199
  139OSM    H5S15073   1.354   1.629   2.142
  139OSM    C6S15074   1.509   1.532   2.270
  139OSM    H6S15075   1.539   1.637   2.288
  139OSM    H6T15076   1.586   1.491   2.201
  139OSM    C7S15077   1.537   1.455   2.409
  139OSM    H7S15078   1.641   1.489   2.432
  139OSM    H7T15079   1.541   1.345   2.398
  139OSM    C8S15080   1.441   1.500   2.519
  139OSM    H8S15081   1.334   1.494   2.489
  139OSM    H8T15082   1.444   1.611   2.530
  139OSM    C9S15083   1.475   1.437   2.651
  139OSM    H9S15084   1.576   1.460   2.691
  139OSM    H9T15085   1.469   1.330   2.621
  139OSM   C10S15086   1.381   1.474   2.763
  139OSM   H10S15087   1.276   1.455   2.733
  139OSM   H10T15088   1.397   1.582   2.780
  139OSM   C11S15089   1.409   1.397   2.892
  139OSM   H11S15090   1.511   1.412   2.932
  139OSM   H11T15091   1.380   1.295   2.860
  139OSM   C12S15092   1.320   1.440   3.011
  139OSM   H12S15093   1.215   1.458   2.977
  139OSM   H12T15094   1.346   1.540   3.051
  139OSM   C13S15095   1.317   1.343   3.129
  139OSM   H13S15096   1.423   1.321   3.154
  139OSM   H13T15097   1.264   1.251   3.096
  139OSM   C14S15098   1.254   1.414   3.248
  139OSM   H14S15099   1.146   1.429   3.226
  139OSM   H14T15100   1.295   1.517   3.256
  139OSM   C15S15101   1.277   1.344   3.378
  139OSM   H15S15102   1.382   1.342   3.416
  139OSM   H15T15103   1.264   1.238   3.351
  139OSM   C16S15104   1.178   1.387   3.487
  139OSM   H16S15105   1.073   1.362   3.461
  139OSM   H16T15106   1.180   1.497   3.495
  139OSM   C17S15107   1.200   1.341   3.629
  139OSM   H17S15108   1.300   1.381   3.657
  139OSM   H17T15109   1.194   1.230   3.627
  139OSM   C18S15110   1.097   1.396   3.726
  139OSM   H18S15111   1.000   1.413   3.675
  139OSM   H18T15112   1.138   1.496   3.755
  139OSM   H18U15113   1.081   1.320   3.806
  139OSM    C1F15114   0.936   1.390   2.404
  139OSM     OF15115   0.906   1.275   2.407
  139OSM    C2F15116   0.884   1.485   2.509
  139OSM    H2F15117   0.781   1.507   2.475
  139OSM    H2G15118   0.947   1.576   2.511
  139OSM    C3F15119   0.872   1.417   2.648
  139OSM    H3F15120   0.975   1.391   2.682
  139OSM    H3G15121   0.826   1.317   2.642
  139OSM    C4F15122   0.828   1.517   2.746
  139OSM    H4F15123   0.729   1.564   2.731
  139OSM    H4G15124   0.899   1.601   2.736
  139OSM    C5F15125   0.822   1.467   2.881
  139OSM    H5F15126   0.926   1.430   2.899
  139OSM    H5G15127   0.774   1.367   2.883
  139OSM    C6F15128   0.764   1.553   2.992
  139OSM    H6F15129   0.655   1.577   2.987
  139OSM    H6G15130   0.807   1.655   2.977
  139OSM    C7F15131   0.785   1.500   3.140
  139OSM    H7F15132   0.894   1.481   3.145
  139OSM    H7G15133   0.737   1.399   3.149
  139OSM    C8F15134   0.732   1.589   3.252
  139OSM    H8F15135   0.627   1.615   3.230
  139OSM    H8G15136   0.790   1.682   3.236
  139OSM    C9F15137   0.748   1.518   3.382
  139OSM    H9F15138   0.757   1.409   3.374
  139OSM   C10F15139   0.744   1.560   3.512
  139OSM   H10F15140   0.752   1.481   3.589
  139OSM   C11F15141   0.722   1.702   3.555
  139OSM   H11F15142   0.645   1.754   3.495
  139OSM   H11G15143   0.818   1.758   3.556
  139OSM   C12F15144   0.674   1.713   3.704
  139OSM   H12F15145   0.607   1.628   3.730
  139OSM   H12G15146   0.614   1.804   3.724
  139OSM   C13F15147   0.803   1.716   3.789
  139OSM   H13F15148   0.862   1.805   3.756
  139OSM   H13G15149   0.861   1.625   3.764
  139OSM   C14F15150   0.771   1.707   3.930
  139OSM   H14F15151   0.684   1.638   3.928
  139OSM   H14G15152   0.733   1.804   3.970
  139OSM   C15F15153   0.882   1.658   4.014
  139OSM   H15F15154   0.978   1.712   3.998
  139OSM   H15G15155   0.905   1.551   3.993
  139OSM   C16F15156   0.840   1.678   4.159
  139OSM   H16F15157   0.730   1.684   4.167
  139OSM   H16G15158   0.872   1.774   4.205
  139OSM   C17F15159   0.893   1.573   4.257
  139OSM   H17F15160   0.999   1.586   4.287
  139OSM   H17G15161   0.887   1.482   4.194
  139OSM   C18F15162   0.812   1.555   4.381
  139OSM   H18F15163   0.709   1.526   4.352
  139OSM   H18G15164   0.807   1.654   4.432
  139OSM   H18H15165   0.854   1.468   4.436
  140OSM      N15166   4.880   0.444   1.861
  140OSM    C1515167   4.818   0.379   1.742
  140OSM   H15A15168   4.713   0.377   1.765
  140OSM   H15B15169   4.859   0.279   1.735
  140OSM   H15C15170   4.827   0.421   1.642
  140OSM    C1415171   5.030   0.458   1.848
  140OSM   H14A15172   5.075   0.360   1.846
  140OSM   H14B15173   5.077   0.501   1.935
  140OSM   H14C15174   5.044   0.518   1.759
  140OSM    C1315175   4.831   0.584   1.853
  140OSM   H13A15176   4.868   0.633   1.764
  140OSM   H13B15177   4.876   0.639   1.934
  140OSM   H13C15178   4.726   0.608   1.842
  140OSM    C1215179   4.841   0.384   1.993
  140OSM   H12A15180   4.862   0.279   1.994
  140OSM   H12B15181   4.734   0.382   2.006
  140OSM    C1115182   4.914   0.448   2.110
  140OSM   H11A15183   4.858   0.431   2.205
  140OSM   H11B15184   4.922   0.558   2.099
  140OSM      P15185   5.087   0.253   2.162
  140OSM    O1315186   4.974   0.157   2.136
  140OSM    O1415187   5.216   0.221   2.097
  140OSM    O1115188   5.112   0.267   2.316
  140OSM    O1215189   5.047   0.396   2.131
  140OSM    C1S15190   5.096   0.142   2.392
  140OSM    H1S15191   5.166   0.068   2.349
  140OSM    H1T15192   4.995   0.101   2.372
  140OSM     NF15193   5.103   0.014   2.591
  140OSM    HNF15194   5.009   6.866   2.600
  140OSM    C2S15195   5.104   0.149   2.544
  140OSM    H2S15196   5.206   0.186   2.567
  140OSM    C3S15197   5.003   0.248   2.605
  140OSM    H3S15198   4.903   0.206   2.582
  140OSM     O315199   5.005   0.375   2.540
  140OSM    HO315200   5.041   0.347   2.455
  140OSM    C4S15201   5.016   0.280   2.746
  140OSM    H4S15202   5.112   0.324   2.777
  140OSM    C5S15203   4.917   0.268   2.829
  140OSM    H5S15204   4.814   0.236   2.810
  140OSM    C6S15205   4.927   0.312   2.979
  140OSM    H6S15206   4.831   0.305   3.035
  140OSM    H6T15207   4.942   0.420   2.996
  140OSM    C7S15208   5.027   0.229   3.053
  140OSM    H7S15209   5.125   0.212   3.004
  140OSM    H7T15210   4.991   0.125   3.072
  140OSM    C8S15211   5.055   0.275   3.197
  140OSM    H8S15212   5.097   0.378   3.198
  140OSM    H8T15213   5.146   0.219   3.226
  140OSM    C9S15214   4.941   0.263   3.291
  140OSM    H9S15215   4.894   0.164   3.274
  140OSM    H9T15216   4.865   0.337   3.257
  140OSM   C10S15217   4.982   0.279   3.435
  140OSM   H10S15218   5.056   0.360   3.455
  140OSM   H10T15219   5.027   0.189   3.481
  140OSM   C11S15220   4.854   0.303   3.524
  140OSM   H11S15221   4.784   0.221   3.500
  140OSM   H11T15222   4.790   0.386   3.487
  140OSM   C12S15223   4.899   0.319   3.669
  140OSM   H12S15224   4.958   0.410   3.693
  140OSM   H12T15225   4.956   0.225   3.684
  140OSM   C13S15226   4.780   0.329   3.765
  140OSM   H13S15227   4.709   0.249   3.737
  140OSM   H13T15228   4.728   0.427   3.766
  140OSM   C14S15229   4.822   0.296   3.911
  140OSM   H14S15230   4.921   0.246   3.918
  140OSM   H14T15231   4.748   0.227   3.956
  140OSM   C15S15232   4.813   0.415   4.012
  140OSM   H15S15233   4.820   0.369   4.113
  140OSM   H15T15234   4.714   0.463   3.996
  140OSM   C16S15235   4.927   0.524   3.995
  140OSM   H16S15236   4.914   0.570   3.894
  140OSM   H16T15237   5.029   0.482   4.013
  140OSM   C17S15238   4.918   0.635   4.102
  140OSM   H17S15239   4.888   0.595   4.201
  140OSM   H17T15240   4.830   0.691   4.066
  140OSM   C18S15241   5.041   0.720   4.117
  140OSM   H18S15242   5.026   0.822   4.159
  140OSM   H18T15243   5.088   0.744   4.019
  140OSM   H18U15244   5.111   0.676   4.192
  140OSM    C1F15245   5.209   6.817   2.585
  140OSM     OF15246   5.314   6.858   2.534
  140OSM    C2F15247   5.199   6.673   2.630
  140OSM    H2F15248   5.243   6.609   2.550
  140OSM    H2G15249   5.096   6.648   2.663
  140OSM    C3F15250   5.281   6.646   2.756
  140OSM    H3F15251   5.390   6.660   2.743
  140OSM    H3G15252   5.276   6.537   2.776
  140OSM    C4F15253   5.233   6.734   2.876
  140OSM    H4F15254   5.147   6.682   2.923
  140OSM    H4G15255   5.196   6.832   2.841
  140OSM    C5F15256   5.332   6.745   2.988
  140OSM    H5F15257   5.433   6.760   2.943
  140OSM    H5G15258   5.341   6.652   3.046
  140OSM    C6F15259   5.315   6.863   3.085
  140OSM    H6F15260   5.209   0.003   3.110
  140OSM    H6G15261   5.361   0.066   3.032
  140OSM    C7F15262   5.378   6.833   3.221
  140OSM    H7F15263   5.489   6.822   3.214
  140OSM    H7G15264   5.343   6.732   3.250
  140OSM    C8F15265   5.345   0.056   3.335
  140OSM    H8F15266   5.234   0.051   3.339
  140OSM    H8G15267   5.376   0.162   3.321
  140OSM    C9F15268   5.392   0.009   3.468
  140OSM    H9F15269   5.474   6.820   3.475
  140OSM   C10F15270   5.349   0.055   3.588
  140OSM   H10F15271   5.406   0.005   3.668
  140OSM   C11F15272   5.254   0.166   3.622
  140OSM   H11F15273   5.149   0.133   3.630
  140OSM   H11G15274   5.246   0.244   3.544
  140OSM   C12F15275   5.274   0.246   3.757
  140OSM   H12F15276   5.216   0.339   3.739
  140OSM   H12G15277   5.383   0.263   3.762
  140OSM   C13F15278   5.236   0.177   3.882
  140OSM   H13F15279   5.280   0.075   3.890
  140OSM   H13G15280   5.126   0.163   3.879
  140OSM   C14F15281   5.268   0.256   4.008
  140OSM   H14F15282   5.220   0.356   4.007
  140OSM   H14G15283   5.376   0.281   4.012
  140OSM   C15F15284   5.217   0.180   4.134
  140OSM   H15F15285   5.210   0.072   4.112
  140OSM   H15G15286   5.113   0.218   4.147
  140OSM   C16F15287   5.313   0.198   4.251
  140OSM   H16F15288   5.248   0.156   4.331
  140OSM   H16G15289   5.346   0.303   4.266
  140OSM   C17F15290   5.443   0.114   4.244
  140OSM   H17F15291   5.504   0.156   4.162
  140OSM   H17G15292   5.425   0.007   4.219
  140OSM   C18F15293   5.511   0.114   4.375
  140OSM   H18F15294   5.609   0.063   4.364
  140OSM   H18G15295   5.448   0.070   4.455
  140OSM   H18H15296   5.544   0.214   4.410
  141OSM      N15297   0.170   4.353   1.986
  141OSM    C1515298   0.150   4.203   1.996
  141OSM   H15A15299   0.246   4.160   2.020
  141OSM   H15B15300   0.107   4.167   1.903
  141OSM   H15C15301   0.092   4.170   2.080
  141OSM    C1415302   0.247   4.393   1.870
  141OSM   H14A15303   0.331   4.327   1.872
  141OSM   H14B15304   0.293   4.490   1.880
  141OSM   H14C15305   0.197   4.377   1.776
  141OSM    C1315306   0.027   4.411   1.973
  141OSM   H13A15307   6.847   4.376   2.053
  141OSM   H13B15308   6.859   4.365   1.890
  141OSM   H13C15309   0.023   4.519   1.976
  141OSM    C1215310   0.232   4.406   2.116
  141OSM   H12A15311   0.151   4.413   2.187
  141OSM   H12B15312   0.261   4.510   2.105
  141OSM    C1115313   0.340   4.318   2.184
  141OSM   H11A15314   0.292   4.233   2.238
  141OSM   H11B15315   0.386   4.381   2.262
  141OSM      P15316   0.520   4.145   2.094
  141OSM    O1315317   0.424   4.035   2.069
  141OSM    O1415318   0.627   4.147   1.998
  141OSM    O1115319   0.573   4.140   2.241
  141OSM    O1215320   0.447   4.285   2.091
  141OSM    C1S15321   0.607   4.018   2.304
  141OSM    H1S15322   0.681   3.964   2.240
  141OSM    H1T15323   0.518   3.954   2.322
  141OSM     NF15324   0.678   3.903   2.513
  141OSM    HNF15325   0.613   3.873   2.583
  141OSM    C2S15326   0.659   4.040   2.453
  141OSM    H2S15327   0.759   4.087   2.440
  141OSM    C3S15328   0.577   4.121   2.552
  141OSM    H3S15329   0.487   4.062   2.578
  141OSM     O315330   0.511   4.236   2.498
  141OSM    HO315331   0.509   4.223   2.403
  141OSM    C4S15332   0.657   4.148   2.680
  141OSM    H4S15333   0.634   4.075   2.759
  141OSM    C5S15334   0.747   4.245   2.691
  141OSM    H5S15335   0.764   4.317   2.609
  141OSM    C6S15336   0.831   4.268   2.814
  141OSM    H6S15337   0.832   4.370   2.859
  141OSM    H6T15338   0.937   4.248   2.786
  141OSM    C7S15339   0.823   4.162   2.923
  141OSM    H7S15340   0.917   4.167   2.982
  141OSM    H7T15341   0.824   4.059   2.880
  141OSM    C8S15342   0.702   4.158   3.017
  141OSM    H8S15343   0.605   4.151   2.964
  141OSM    H8T15344   0.702   4.257   3.067
  141OSM    C9S15345   0.692   4.050   3.127
  141OSM    H9S15346   0.787   4.051   3.184
  141OSM    H9T15347   0.682   3.954   3.071
  141OSM   C10S15348   0.573   4.069   3.222
  141OSM   H10S15349   0.482   4.050   3.162
  141OSM   H10T15350   0.573   4.177   3.249
  141OSM   C11S15351   0.571   3.979   3.346
  141OSM   H11S15352   0.657   3.994   3.415
  141OSM   H11T15353   0.565   3.871   3.318
  141OSM   C12S15354   0.447   4.006   3.429
  141OSM   H12S15355   0.358   3.988   3.364
  141OSM   H12T15356   0.445   4.112   3.462
  141OSM   C13S15357   0.444   3.918   3.563
  141OSM   H13S15358   0.478   3.815   3.536
  141OSM   H13T15359   0.341   3.908   3.605
  141OSM   C14S15360   0.529   3.964   3.672
  141OSM   H14S15361   0.499   4.071   3.683
  141OSM   H14T15362   0.637   3.982   3.651
  141OSM   C15S15363   0.521   3.876   3.794
  141OSM   H15S15364   0.556   3.771   3.780
  141OSM   H15T15365   0.411   3.865   3.802
  141OSM   C16S15366   0.587   3.931   3.930
  141OSM   H16S15367   0.536   4.022   3.968
  141OSM   H16T15368   0.689   3.968   3.904
  141OSM   C17S15369   0.595   3.828   4.048
  141OSM   H17S15370   0.673   3.753   4.024
  141OSM   H17T15371   0.494   3.782   4.051
  141OSM   C18S15372   0.621   3.887   4.184
  141OSM   H18S15373   0.712   3.951   4.183
  141OSM   H18T15374   0.637   3.813   4.265
  141OSM   H18U15375   0.533   3.942   4.225
  141OSM    C1F15376   0.761   3.810   2.476
  141OSM     OF15377   0.851   3.841   2.400
  141OSM    C2F15378   0.744   3.671   2.522
  141OSM    H2F15379   0.765   3.610   2.431
  141OSM    H2G15380   0.644   3.649   2.563
  141OSM    C3F15381   0.851   3.623   2.627
  141OSM    H3F15382   0.950   3.650   2.584
  141OSM    H3G15383   0.846   3.513   2.643
  141OSM    C4F15384   0.835   3.696   2.766
  141OSM    H4F15385   0.734   3.682   2.810
  141OSM    H4G15386   0.851   3.804   2.749
  141OSM    C5F15387   0.948   3.664   2.864
  141OSM    H5F15388   1.046   3.674   2.814
  141OSM    H5G15389   0.939   3.558   2.894
  141OSM    C6F15390   0.944   3.757   2.980
  141OSM    H6F15391   0.848   3.745   3.034
  141OSM    H6G15392   0.951   3.863   2.944
  141OSM    C7F15393   1.057   3.730   3.080
  141OSM    H7F15394   1.161   3.744   3.043
  141OSM    H7G15395   1.049   3.624   3.110
  141OSM    C8F15396   1.046   3.813   3.203
  141OSM    H8F15397   0.938   3.824   3.229
  141OSM    H8G15398   1.076   3.909   3.155
  141OSM    C9F15399   1.150   3.783   3.309
  141OSM    H9F15400   1.251   3.784   3.265
  141OSM   C10F15401   1.127   3.763   3.438
  141OSM   H10F15402   1.205   3.741   3.512
  141OSM   C11F15403   0.998   3.753   3.502
  141OSM   H11F15404   0.979   3.647   3.528
  141OSM   H11G15405   0.915   3.779   3.433
  141OSM   C12F15406   0.969   3.827   3.641
  141OSM   H12F15407   0.866   3.798   3.670
  141OSM   H12G15408   0.976   3.937   3.626
  141OSM   C13F15409   1.062   3.780   3.761
  141OSM   H13F15410   1.170   3.792   3.742
  141OSM   H13G15411   1.035   3.673   3.769
  141OSM   C14F15412   1.030   3.852   3.889
  141OSM   H14F15413   0.920   3.857   3.905
  141OSM   H14G15414   1.044   3.961   3.874
  141OSM   C15F15415   1.097   3.806   4.014
  141OSM   H15F15416   1.202   3.780   3.989
  141OSM   H15G15417   1.052   3.714   4.057
  141OSM   C16F15418   1.095   3.911   4.128
  141OSM   H16F15419   0.988   3.943   4.133
  141OSM   H16G15420   1.150   4.003   4.097
  141OSM   C17F15421   1.138   3.856   4.267
  141OSM   H17F15422   1.191   3.937   4.321
  141OSM   H17G15423   1.200   3.765   4.253
  141OSM   C18F15424   1.010   3.822   4.341
  141OSM   H18F15425   0.943   3.911   4.346
  141OSM   H18G15426   1.039   3.789   4.443
  141OSM   H18H15427   0.951   3.747   4.286
  142OSM      N15428   1.586   5.912   1.886
  142OSM    C1515429   1.466   5.847   1.822
  142OSM   H15A15430   1.504   5.781   1.746
  142OSM   H15B15431   1.418   5.927   1.768
  142OSM   H15C15432   1.402   5.797   1.894
  142OSM    C1415433   1.684   5.946   1.777
  142OSM   H14A15434   1.646   5.993   1.687
  142OSM   H14B15435   1.731   5.851   1.756
  142OSM   H14C15436   1.760   6.007   1.822
  142OSM    C1315437   1.546   6.048   1.935
  142OSM   H13A15438   1.492   6.108   1.863
  142OSM   H13B15439   1.626   6.097   1.988
  142OSM   H13C15440   1.466   6.027   2.004
  142OSM    C1215441   1.647   5.823   1.991
  142OSM   H12A15442   1.746   5.857   2.019
  142OSM   H12B15443   1.670   5.723   1.956
  142OSM    C1115444   1.554   5.805   2.120
  142OSM   H11A15445   1.497   5.900   2.133
  142OSM   H11B15446   1.613   5.799   2.214
  142OSM      P15447   1.501   5.547   2.092
  142OSM    O1315448   1.395   5.474   2.023
  142OSM    O1415449   1.638   5.531   2.049
  142OSM    O1115450   1.480   5.508   2.245
  142OSM    O1215451   1.463   5.700   2.096
  142OSM    C1S15452   1.589   5.476   2.327
  142OSM    H1S15453   1.686   5.524   2.300
  142OSM    H1T15454   1.609   5.367   2.319
  142OSM     NF15455   1.680   5.518   2.555
  142OSM    HNF15456   1.712   5.433   2.596
  142OSM    C2S15457   1.558   5.503   2.482
  142OSM    H2S15458   1.505   5.600   2.476
  142OSM    C3S15459   1.448   5.409   2.544
  142OSM    H3S15460   1.494   5.308   2.552
  142OSM     O315461   1.335   5.389   2.456
  142OSM    HO315462   1.352   5.415   2.365
  142OSM    C4S15463   1.414   5.446   2.692
  142OSM    H4S15464   1.442   5.372   2.769
  142OSM    C5S15465   1.335   5.548   2.728
  142OSM    H5S15466   1.288   5.611   2.651
  142OSM    C6S15467   1.301   5.570   2.874
  142OSM    H6S15468   1.196   5.608   2.870
  142OSM    H6T15469   1.364   5.657   2.901
  142OSM    C7S15470   1.311   5.471   2.981
  142OSM    H7S15471   1.402   5.409   2.972
  142OSM    H7T15472   1.231   5.397   2.961
  142OSM    C8S15473   1.311   5.541   3.117
  142OSM    H8S15474   1.232   5.619   3.115
  142OSM    H8T15475   1.402   5.605   3.119
  142OSM    C9S15476   1.281   5.448   3.233
  142OSM    H9S15477   1.362   5.372   3.228
  142OSM    H9T15478   1.185   5.394   3.221
  142OSM   C10S15479   1.271   5.511   3.373
  142OSM   H10S15480   1.366   5.563   3.396
  142OSM   H10T15481   1.271   5.425   3.444
  142OSM   C11S15482   1.150   5.610   3.391
  142OSM   H11S15483   1.050   5.562   3.385
  142OSM   H11T15484   1.161   5.687   3.312
  142OSM   C12S15485   1.164   5.689   3.525
  142OSM   H12S15486   1.082   5.764   3.532
  142OSM   H12T15487   1.264   5.734   3.514
  142OSM   C13S15488   1.165   5.605   3.653
  142OSM   H13S15489   1.270   5.572   3.666
  142OSM   H13T15490   1.103   5.514   3.642
  142OSM   C14S15491   1.129   5.664   3.793
  142OSM   H14S15492   1.018   5.660   3.799
  142OSM   H14T15493   1.158   5.771   3.805
  142OSM   C15S15494   1.197   5.587   3.907
  142OSM   H15S15495   1.308   5.583   3.913
  142OSM   H15T15496   1.173   5.481   3.883
  142OSM   C16S15497   1.146   5.630   4.050
  142OSM   H16S15498   1.036   5.624   4.066
  142OSM   H16T15499   1.170   5.737   4.064
  142OSM   C17S15500   1.222   5.547   4.158
  142OSM   H17S15501   1.326   5.587   4.148
  142OSM   H17T15502   1.228   5.438   4.139
  142OSM   C18S15503   1.166   5.554   4.301
  142OSM   H18S15504   1.248   5.513   4.364
  142OSM   H18T15505   1.078   5.486   4.302
  142OSM   H18U15506   1.149   5.661   4.325
  142OSM    C1F15507   1.772   5.619   2.543
  142OSM     OF15508   1.750   5.710   2.470
  142OSM    C2F15509   1.891   5.617   2.630
  142OSM    H2F15510   1.989   5.592   2.585
  142OSM    H2G15511   1.875   5.528   2.695
  142OSM    C3F15512   1.902   5.746   2.713
  142OSM    H3F15513   1.807   5.764   2.768
  142OSM    H3G15514   1.902   5.831   2.642
  142OSM    C4F15515   2.015   5.752   2.806
  142OSM    H4F15516   2.111   5.751   2.749
  142OSM    H4G15517   2.017   5.660   2.869
  142OSM    C5F15518   2.018   5.877   2.900
  142OSM    H5F15519   1.935   5.869   2.974
  142OSM    H5G15520   1.991   5.961   2.832
  142OSM    C6F15521   2.151   5.904   2.971
  142OSM    H6F15522   2.125   5.984   3.044
  142OSM    H6G15523   2.223   5.953   2.902
  142OSM    C7F15524   2.214   5.788   3.040
  142OSM    H7F15525   2.313   5.817   3.082
  142OSM    H7G15526   2.234   5.723   2.953
  142OSM    C8F15527   2.128   5.708   3.140
  142OSM    H8F15528   2.176   5.612   3.170
  142OSM    H8G15529   2.036   5.673   3.088
  142OSM    C9F15530   2.111   5.793   3.267
  142OSM    H9F15531   2.190   5.863   3.298
  142OSM   C10F15532   2.003   5.803   3.344
  142OSM   H10F15533   2.002   5.889   3.412
  142OSM   C11F15534   1.867   5.742   3.331
  142OSM   H11F15535   1.845   5.683   3.422
  142OSM   H11G15536   1.884   5.659   3.258
  142OSM   C12F15537   1.764   5.832   3.284
  142OSM   H12F15538   1.673   5.775   3.257
  142OSM   H12G15539   1.786   5.879   3.186
  142OSM   C13F15540   1.725   5.945   3.388
  142OSM   H13F15541   1.628   5.988   3.356
  142OSM   H13G15542   1.807   6.019   3.395
  142OSM   C14F15543   1.710   5.888   3.534
  142OSM   H14F15544   1.718   5.963   3.616
  142OSM   H14G15545   1.795   5.821   3.559
  142OSM   C15F15546   1.579   5.815   3.557
  142OSM   H15F15547   1.590   5.719   3.501
  142OSM   H15G15548   1.501   5.871   3.502
  142OSM   C16F15549   1.544   5.796   3.704
  142OSM   H16F15550   1.440   5.759   3.711
  142OSM   H16G15551   1.559   5.896   3.750
  142OSM   C17F15552   1.635   5.689   3.770
  142OSM   H17F15553   1.639   5.715   3.877
  142OSM   H17G15554   1.730   5.708   3.715
  142OSM   C18F15555   1.584   5.544   3.750
  142OSM   H18F15556   1.486   5.526   3.799
  142OSM   H18G15557   1.651   5.471   3.801
  142OSM   H18H15558   1.593   5.518   3.642
  143OSM      N15559   0.960   4.313   2.174
  143OSM    C1515560   0.916   4.247   2.050
  143OSM   H15A15561   0.991   4.178   2.013
  143OSM   H15B15562   0.909   4.327   1.978
  143OSM   H15C15563   0.817   4.208   2.065
  143OSM    C1415564   0.850   4.406   2.214
  143OSM   H14A15565   0.874   4.467   2.300
  143OSM   H14B15566   0.764   4.347   2.244
  143OSM   H14C15567   0.832   4.478   2.135
  143OSM    C1315568   0.972   4.207   2.280
  143OSM   H13A15569   1.027   4.121   2.246
  143OSM   H13B15570   0.875   4.170   2.309
  143OSM   H13C15571   1.028   4.243   2.365
  143OSM    C1215572   1.095   4.379   2.148
  143OSM   H12A15573   1.078   4.457   2.076
  143OSM   H12B15574   1.153   4.295   2.111
  143OSM    C1115575   1.165   4.457   2.271
  143OSM   H11A15576   1.275   4.465   2.259
  143OSM   H11B15577   1.145   4.396   2.362
  143OSM      P15578   1.132   4.704   2.204
  143OSM    O1315579   1.236   4.670   2.101
  143OSM    O1415580   1.004   4.764   2.160
  143OSM    O1115581   1.201   4.802   2.306
  143OSM    O1215582   1.093   4.580   2.293
  143OSM    C1S15583   1.143   4.840   2.429
  143OSM    H1S15584   1.047   4.787   2.443
  143OSM    H1T15585   1.134   4.950   2.443
  143OSM     NF15586   1.178   4.785   2.673
  143OSM    HNF15587   1.220   4.844   2.741
  143OSM    C2S15588   1.239   4.790   2.543
  143OSM    H2S15589   1.271   4.687   2.516
  143OSM    C3S15590   1.373   4.873   2.538
  143OSM    H3S15591   1.365   4.977   2.578
  143OSM     O315592   1.428   4.891   2.403
  143OSM    HO315593   1.352   4.863   2.351
  143OSM    C4S15594   1.476   4.815   2.637
  143OSM    H4S15595   1.463   4.844   2.742
  143OSM    C5S15596   1.564   4.714   2.618
  143OSM    H5S15597   1.562   4.654   2.526
  143OSM    C6S15598   1.645   4.649   2.726
  143OSM    H6S15599   1.749   4.623   2.696
  143OSM    H6T15600   1.600   4.550   2.748
  143OSM    C7S15601   1.642   4.723   2.857
  143OSM    H7S15602   1.536   4.728   2.890
  143OSM    H7T15603   1.675   4.829   2.850
  143OSM    C8S15604   1.727   4.656   2.967
  143OSM    H8S15605   1.836   4.678   2.964
  143OSM    H8T15606   1.703   4.548   2.969
  143OSM    C9S15607   1.685   4.711   3.110
  143OSM    H9S15608   1.579   4.683   3.127
  143OSM    H9T15609   1.695   4.822   3.113
  143OSM   C10S15610   1.753   4.643   3.233
  143OSM   H10S15611   1.862   4.660   3.227
  143OSM   H10T15612   1.739   4.533   3.218
  143OSM   C11S15613   1.693   4.694   3.360
  143OSM   H11S15614   1.585   4.672   3.349
  143OSM   H11T15615   1.698   4.805   3.358
  143OSM   C12S15616   1.779   4.670   3.490
  143OSM   H12S15617   1.878   4.688   3.442
  143OSM   H12T15618   1.781   4.559   3.503
  143OSM   C13S15619   1.732   4.749   3.608
  143OSM   H13S15620   1.628   4.727   3.640
  143OSM   H13T15621   1.733   4.858   3.586
  143OSM   C14S15622   1.816   4.735   3.737
  143OSM   H14S15623   1.924   4.742   3.714
  143OSM   H14T15624   1.798   4.633   3.777
  143OSM   C15S15625   1.787   4.835   3.851
  143OSM   H15S15626   1.688   4.820   3.901
  143OSM   H15T15627   1.782   4.936   3.805
  143OSM   C16S15628   1.895   4.840   3.955
  143OSM   H16S15629   1.998   4.846   3.912
  143OSM   H16T15630   1.880   4.745   4.011
  143OSM   C17S15631   1.876   4.960   4.048
  143OSM   H17S15632   1.882   5.053   3.987
  143OSM   H17T15633   1.967   4.962   4.112
  143OSM   C18S15634   1.753   4.968   4.146
  143OSM   H18S15635   1.653   4.974   4.098
  143OSM   H18T15636   1.768   5.066   4.196
  143OSM   H18U15637   1.749   4.881   4.215
  143OSM    C1F15638   1.064   4.730   2.706
  143OSM     OF15639   0.991   4.678   2.624
  143OSM    C2F15640   1.019   4.744   2.844
  143OSM    H2F15641   0.950   4.831   2.850
  143OSM    H2G15642   1.104   4.765   2.912
  143OSM    C3F15643   0.949   4.607   2.878
  143OSM    H3F15644   1.015   4.520   2.857
  143OSM    H3G15645   0.857   4.605   2.817
  143OSM    C4F15646   0.878   4.596   3.016
  143OSM    H4F15647   0.806   4.512   3.016
  143OSM    H4G15648   0.808   4.683   3.020
  143OSM    C5F15649   0.979   4.599   3.131
  143OSM    H5F15650   1.042   4.690   3.141
  143OSM    H5G15651   1.045   4.510   3.124
  143OSM    C6F15652   0.911   4.577   3.266
  143OSM    H6F15653   0.832   4.652   3.288
  143OSM    H6G15654   0.990   4.569   3.344
  143OSM    C7F15655   0.840   4.440   3.278
  143OSM    H7F15656   0.895   4.352   3.238
  143OSM    H7G15657   0.743   4.446   3.224
  143OSM    C8F15658   0.806   4.414   3.437
  143OSM    H8F15659   0.730   4.488   3.468
  143OSM    H8G15660   0.900   4.430   3.494
  143OSM    C9F15661   0.749   4.279   3.482
  143OSM    H9F15662   0.665   4.234   3.428
  143OSM   C10F15663   0.787   4.213   3.588
  143OSM   H10F15664   0.759   4.107   3.592
  143OSM   C11F15665   0.883   4.247   3.700
  143OSM   H11F15666   0.974   4.300   3.664
  143OSM   H11G15667   0.927   4.155   3.745
  143OSM   C12F15668   0.826   4.341   3.811
  143OSM   H12F15669   0.741   4.299   3.870
  143OSM   H12G15670   0.781   4.434   3.769
  143OSM   C13F15671   0.925   4.374   3.930
  143OSM   H13F15672   0.886   4.463   3.984
  143OSM   H13G15673   1.018   4.409   3.880
  143OSM   C14F15674   0.954   4.255   4.031
  143OSM   H14F15675   1.063   4.258   4.052
  143OSM   H14G15676   0.939   4.152   3.991
  143OSM   C15F15677   0.879   4.277   4.165
  143OSM   H15F15678   0.918   4.362   4.225
  143OSM   H15G15679   0.890   4.191   4.234
  143OSM   C16F15680   0.724   4.279   4.164
  143OSM   H16F15681   0.683   4.184   4.124
  143OSM   H16G15682   0.693   4.357   4.091
  143OSM   C17F15683   0.657   4.293   4.303
  143OSM   H17F15684   0.686   4.212   4.374
  143OSM   H17G15685   0.547   4.281   4.294
  143OSM   C18F15686   0.676   4.424   4.380
  143OSM   H18F15687   0.783   4.452   4.384
  143OSM   H18G15688   0.638   4.407   4.483
  143OSM   H18H15689   0.622   4.508   4.331
  144OSM      N15690   0.752   5.628   1.960
  144OSM    C1515691   0.714   5.772   1.959
  144OSM   H15A15692   0.691   5.812   1.861
  144OSM   H15B15693   0.781   5.851   1.989
  144OSM   H15C15694   0.618   5.781   2.008
  144OSM    C1415695   0.654   5.534   1.892
  144OSM   H14A15696   0.608   5.589   1.812
  144OSM   H14B15697   0.577   5.495   1.957
  144OSM   H14C15698   0.704   5.446   1.853
  144OSM    C1315699   0.878   5.619   1.886
  144OSM   H13A15700   0.917   5.518   1.878
  144OSM   H13B15701   0.945   5.678   1.948
  144OSM   H13C15702   0.892   5.664   1.789
  144OSM    C1215703   0.780   5.580   2.104
  144OSM   H12A15704   0.699   5.568   2.173
  144OSM   H12B15705   0.843   5.654   2.153
  144OSM    C1115706   0.845   5.445   2.117
  144OSM   H11A15707   0.952   5.448   2.089
  144OSM   H11B15708   0.798   5.367   2.054
  144OSM      P15709   0.752   5.310   2.327
  144OSM    O1315710   0.612   5.325   2.270
  144OSM    O1415711   0.818   5.177   2.323
  144OSM    O1115712   0.755   5.361   2.473
  144OSM    O1215713   0.847   5.413   2.257
  144OSM    C1S15714   0.753   5.492   2.521
  144OSM    H1S15715   0.661   5.544   2.487
  144OSM    H1T15716   0.823   5.555   2.463
  144OSM     NF15717   0.762   5.633   2.731
  144OSM    HNF15718   0.842   5.687   2.753
  144OSM    C2S15719   0.784   5.500   2.667
  144OSM    H2S15720   0.714   5.425   2.711
  144OSM    C3S15721   0.924   5.450   2.705
  144OSM    H3S15722   1.001   5.508   2.651
  144OSM     O315723   0.945   5.317   2.655
  144OSM    HO315724   0.882   5.314   2.582
  144OSM    C4S15725   0.945   5.460   2.855
  144OSM    H4S15726   0.989   5.555   2.889
  144OSM    C5S15727   0.909   5.365   2.945
  144OSM    H5S15728   0.843   5.281   2.915
  144OSM    C6S15729   0.912   5.395   3.090
  144OSM    H6S15730   0.978   5.477   3.124
  144OSM    H6T15731   0.952   5.306   3.144
  144OSM    C7S15732   0.771   5.429   3.146
  144OSM    H7S15733   0.710   5.339   3.126
  144OSM    H7T15734   0.719   5.502   3.080
  144OSM    C8S15735   0.775   5.468   3.293
  144OSM    H8S15736   0.668   5.490   3.311
  144OSM    H8T15737   0.848   5.550   3.310
  144OSM    C9S15738   0.799   5.347   3.383
  144OSM    H9S15739   0.903   5.314   3.362
  144OSM    H9T15740   0.727   5.275   3.338
  144OSM   C10S15741   0.781   5.369   3.531
  144OSM   H10S15742   0.678   5.409   3.539
  144OSM   H10T15743   0.849   5.450   3.565
  144OSM   C11S15744   0.802   5.238   3.603
  144OSM   H11S15745   0.906   5.201   3.588
  144OSM   H11T15746   0.746   5.154   3.558
  144OSM   C12S15747   0.774   5.254   3.751
  144OSM   H12S15748   0.666   5.235   3.770
  144OSM   H12T15749   0.802   5.352   3.796
  144OSM   C13S15750   0.837   5.146   3.825
  144OSM   H13S15751   0.944   5.129   3.802
  144OSM   H13T15752   0.787   5.053   3.791
  144OSM   C14S15753   0.806   5.147   3.975
  144OSM   H14S15754   0.872   5.070   4.021
  144OSM   H14T15755   0.700   5.118   3.992
  144OSM   C15S15756   0.838   5.282   4.038
  144OSM   H15S15757   0.766   5.363   4.014
  144OSM   H15T15758   0.935   5.327   4.007
  144OSM   C16S15759   0.852   5.272   4.191
  144OSM   H16S15760   0.859   5.374   4.233
  144OSM   H16T15761   0.954   5.229   4.195
  144OSM   C17S15762   0.764   5.172   4.265
  144OSM   H17S15763   0.763   5.073   4.215
  144OSM   H17T15764   0.658   5.203   4.255
  144OSM   C18S15765   0.788   5.152   4.412
  144OSM   H18S15766   0.707   5.086   4.452
  144OSM   H18T15767   0.778   5.246   4.470
  144OSM   H18U15768   0.892   5.117   4.427
  144OSM    C1F15769   0.629   5.677   2.743
  144OSM     OF15770   0.536   5.614   2.695
  144OSM    C2F15771   0.616   5.817   2.796
  144OSM    H2F15772   0.572   5.890   2.725
  144OSM    H2G15773   0.715   5.865   2.809
  144OSM    C3F15774   0.532   5.811   2.923
  144OSM    H3F15775   0.573   5.740   2.999
  144OSM    H3G15776   0.429   5.779   2.895
  144OSM    C4F15777   0.518   5.953   2.988
  144OSM    H4F15778   0.512   6.030   2.908
  144OSM    H4G15779   0.608   5.984   3.046
  144OSM    C5F15780   0.397   5.964   3.085
  144OSM    H5F15781   0.318   5.892   3.057
  144OSM    H5G15782   0.354   6.062   3.057
  144OSM    C6F15783   0.432   5.972   3.234
  144OSM    H6F15784   0.523   6.034   3.249
  144OSM    H6G15785   0.455   5.870   3.272
  144OSM    C7F15786   0.314   6.018   3.323
  144OSM    H7F15787   0.228   5.949   3.305
  144OSM    H7G15788   0.268   6.116   3.298
  144OSM    C8F15789   0.354   6.019   3.472
  144OSM    H8F15790   0.418   5.930   3.495
  144OSM    H8G15791   0.265   6.007   3.537
  144OSM    C9F15792   0.419   6.146   3.513
  144OSM    H9F15793   0.440   6.219   3.433
  144OSM   C10F15794   0.437   6.197   3.637
  144OSM   H10F15795   0.486   6.295   3.643
  144OSM   C11F15796   0.413   6.133   3.772
  144OSM   H11F15797   0.509   6.086   3.800
  144OSM   H11G15798   0.339   6.051   3.766
  144OSM   C12F15799   0.377   6.242   3.885
  144OSM   H12F15800   0.291   6.299   3.844
  144OSM   H12G15801   0.455   6.319   3.902
  144OSM   C13F15802   0.334   6.183   4.020
  144OSM   H13F15803   0.415   6.123   4.067
  144OSM   H13G15804   0.249   6.113   4.003
  144OSM   C14F15805   0.301   6.288   4.123
  144OSM   H14F15806   0.208   6.340   4.093
  144OSM   H14G15807   0.377   6.369   4.117
  144OSM   C15F15808   0.292   6.251   4.274
  144OSM   H15F15809   0.381   6.202   4.319
  144OSM   H15G15810   0.209   6.179   4.290
  144OSM   C16F15811   0.266   6.382   4.346
  144OSM   H16F15812   0.186   6.441   4.296
  144OSM   H16G15813   0.357   6.446   4.344
  144OSM   C17F15814   0.233   6.365   4.498
  144OSM   H17F15815   0.314   6.320   4.560
  144OSM   H17G15816   0.149   6.292   4.504
  144OSM   C18F15817   0.173   6.490   4.576
  144OSM   H18F15818   0.238   6.579   4.591
  144OSM   H18G15819   0.161   6.464   4.684
  144OSM   H18H15820   0.073   6.514   4.534
  145SAPE     N15821   1.829   0.925   6.348
  145SAPE   HN115822   1.820   0.853   6.423
  145SAPE   HN215823   1.928   0.936   6.318
  145SAPE   HN315824   1.794   1.018   6.381
  145SAPE   C1215825   1.737   0.900   6.231
  145SAPE  H12A15826   1.740   0.792   6.204
  145SAPE  H12B15827   1.764   0.956   6.139
  145SAPE   C1115828   1.588   0.923   6.259
  145SAPE  H11A15829   1.525   0.890   6.174
  145SAPE  H11B15830   1.573   1.033   6.271
  145SAPE     P15831   1.484   0.717   6.378
  145SAPE   O1315832   1.577   0.617   6.317
  145SAPE   O1415833   1.441   0.685   6.515
  145SAPE   O1215834   1.555   0.856   6.383
  145SAPE   O1115835   1.356   0.739   6.289
  145SAPE    C115836   1.235   0.799   6.343
  145SAPE    HA15837   1.186   0.744   6.427
  145SAPE    HB15838   1.254   0.902   6.378
  145SAPE    C215839   1.128   0.817   6.229
  145SAPE    HS15840   1.031   0.848   6.274
  145SAPE   O2115841   1.120   0.705   6.142
  145SAPE   C2115842   1.098   0.591   6.197
  145SAPE   O2215843   1.052   0.567   6.309
  145SAPE   C2215844   1.130   0.483   6.096
  145SAPE   H2R15845   1.164   0.523   5.998
  145SAPE   H2S15846   1.219   0.432   6.137
  145SAPE    C315847   1.167   0.932   6.140
  145SAPE    HX15848   1.268   0.906   6.099
  145SAPE    HY15849   1.176   1.020   6.207
  145SAPE   O3115850   1.086   0.964   6.021
  145SAPE   C3115851   0.973   1.031   6.046
  145SAPE   O3215852   0.931   1.068   6.158
  145SAPE   C3215853   0.905   1.054   5.908
  145SAPE   H2X15854   0.797   1.053   5.934
  145SAPE   H2Y15855   0.922   0.967   5.841
  145SAPE   C2315856   1.018   0.381   6.064
  145SAPE   H3R15857   0.983   0.341   6.161
  145SAPE   H3S15858   1.067   0.298   6.008
  145SAPE   C2415859   0.899   0.434   5.984
  145SAPE   H4R15860   0.833   0.354   5.944
  145SAPE   H4S15861   0.937   0.484   5.893
  145SAPE   C2515862   0.819   0.526   6.064
  145SAPE   H5R15863   0.820   0.517   6.173
  145SAPE   C2615864   0.731   0.616   6.014
  145SAPE   H6R15865   0.670   0.678   6.083
  145SAPE   C2715866   0.700   0.655   5.871
  145SAPE   H7R15867   0.781   0.626   5.800
  145SAPE   H7S15868   0.691   0.766   5.865
  145SAPE   C2815869   0.573   0.579   5.839
  145SAPE   H8R15870   0.510   0.535   5.918
  145SAPE   C2915871   0.516   0.565   5.721
  145SAPE   H9R15872   0.430   0.497   5.717
  145SAPE  C21015873   0.554   0.615   5.580
  145SAPE  H10R15874   0.521   0.535   5.511
  145SAPE  H10S15875   0.663   0.633   5.568
  145SAPE  C21115876   0.467   0.734   5.558
  145SAPE  H11R15877   0.369   0.730   5.607
  145SAPE  C21215878   0.500   0.848   5.497
  145SAPE  H12R15879   0.424   0.927   5.487
  145SAPE  C21315880   0.633   0.874   5.426
  145SAPE  H13R15881   0.725   0.890   5.487
  145SAPE  H13S15882   0.614   0.972   5.378
  145SAPE  C21415883   0.671   0.772   5.317
  145SAPE  H14R15884   0.744   0.698   5.353
  145SAPE  C21515885   0.615   0.761   5.196
  145SAPE  H15R15886   0.628   0.672   5.132
  145SAPE  C21615887   0.504   0.844   5.145
  145SAPE  H16R15888   0.528   0.952   5.141
  145SAPE  H16S15889   0.416   0.830   5.211
  145SAPE  C21715890   0.471   0.806   5.005
  145SAPE  H17R15891   0.369   0.841   4.979
  145SAPE  H17S15892   0.458   0.696   4.994
  145SAPE  C21815893   0.582   0.852   4.911
  145SAPE  H18R15894   0.679   0.811   4.946
  145SAPE  H18S15895   0.583   0.963   4.920
  145SAPE  C21915896   0.562   0.806   4.767
  145SAPE  H19R15897   0.459   0.843   4.746
  145SAPE  H19S15898   0.557   0.696   4.754
  145SAPE  C22015899   0.666   0.874   4.675
  145SAPE  H20R15900   0.749   0.800   4.667
  145SAPE  H20S15901   0.716   0.968   4.705
  145SAPE  H20T15902   0.622   0.892   4.575
  145SAPE   C3315903   0.950   1.193   5.848
  145SAPE   H3X15904   0.922   1.263   5.929
  145SAPE   H3Y15905   0.895   1.223   5.756
  145SAPE   C3415906   1.098   1.219   5.822
  145SAPE   H4X15907   1.135   1.184   5.723
  145SAPE   H4Y15908   1.162   1.173   5.900
  145SAPE   C3515909   1.147   1.366   5.840
  145SAPE   H5X15910   1.257   1.364   5.824
  145SAPE   H5Y15911   1.128   1.397   5.945
  145SAPE   C3615912   1.086   1.473   5.748
  145SAPE   H6X15913   1.146   1.562   5.778
  145SAPE   H6Y15914   0.984   1.488   5.787
  145SAPE   C3715915   1.089   1.434   5.601
  145SAPE   H7X15916   1.035   1.340   5.578
  145SAPE   H7Y15917   1.195   1.420   5.569
  145SAPE   C3815918   1.036   1.557   5.529
  145SAPE   H8X15919   1.092   1.646   5.563
  145SAPE   H8Y15920   0.928   1.572   5.551
  145SAPE   C3915921   1.060   1.542   5.375
  145SAPE   H9X15922   0.970   1.487   5.340
  145SAPE   H9Y15923   1.157   1.490   5.360
  145SAPE  C31015924   1.062   1.684   5.309
  145SAPE  H10X15925   1.154   1.734   5.346
  145SAPE  H10Y15926   0.977   1.749   5.341
  145SAPE  C31115927   1.056   1.698   5.154
  145SAPE  H11X15928   0.963   1.648   5.119
  145SAPE  H11Y15929   1.135   1.633   5.111
  145SAPE  C31215930   1.059   1.844   5.104
  145SAPE  H12X15931   1.152   1.886   5.148
  145SAPE  H12Y15932   0.976   1.908   5.142
  145SAPE  C31315933   1.073   1.851   4.955
  145SAPE  H13X15934   1.179   1.830   4.929
  145SAPE  H13Y15935   1.058   1.956   4.922
  145SAPE  C31415936   0.973   1.767   4.871
  145SAPE  H14X15937   0.871   1.774   4.916
  145SAPE  H14Y15938   0.999   1.660   4.883
  145SAPE  C31515939   0.953   1.819   4.726
  145SAPE  H15X15940   0.914   1.923   4.720
  145SAPE  H15Y15941   0.878   1.753   4.676
  145SAPE  C31615942   1.093   1.820   4.656
  145SAPE  H16X15943   1.161   1.732   4.664
  145SAPE  H16Y15944   1.143   1.913   4.690
  145SAPE  C31715945   1.081   1.843   4.504
  145SAPE  H17X15946   1.028   1.940   4.491
  145SAPE  H17Y15947   1.009   1.767   4.465
  145SAPE  C31815948   1.205   1.832   4.421
  145SAPE  H18X15949   1.292   1.888   4.460
  145SAPE  H18Y15950   1.187   1.864   4.316
  145SAPE  H18Z15951   1.237   1.725   4.422
  146SAPE     N15952   4.200   0.173   6.312
  146SAPE   HN115953   4.194   0.168   6.416
  146SAPE   HN215954   4.131   0.112   6.264
  146SAPE   HN315955   4.298   0.153   6.285
  146SAPE   C1215956   4.171   0.314   6.278
  146SAPE  H12A15957   4.119   0.325   6.181
  146SAPE  H12B15958   4.259   0.382   6.273
  146SAPE   C1115959   4.070   0.378   6.380
  146SAPE  H11A15960   4.111   0.375   6.483
  146SAPE  H11B15961   3.983   0.309   6.387
  146SAPE     P15962   3.921   0.561   6.277
  146SAPE   O1315963   3.803   0.516   6.356
  146SAPE   O1415964   3.930   0.706   6.247
  146SAPE   O1215965   4.047   0.516   6.355
  146SAPE   O1115966   3.922   0.478   6.144
  146SAPE    C115967   3.861   0.541   6.032
  146SAPE    HA15968   3.755   0.558   6.059
  146SAPE    HB15969   3.907   0.639   6.009
  146SAPE    C215970   3.877   0.455   5.908
  146SAPE    HS15971   3.981   0.454   5.867
  146SAPE   O2115972   3.785   0.501   5.805
  146SAPE   C2115973   3.805   0.620   5.753
  146SAPE   O2215974   3.902   0.695   5.760
  146SAPE   C2215975   3.677   0.662   5.678
  146SAPE   H2R15976   3.646   0.571   5.621
  146SAPE   H2S15977   3.599   0.684   5.754
  146SAPE    C315978   3.854   0.299   5.933
  146SAPE    HX15979   3.745   0.298   5.953
  146SAPE    HY15980   3.917   0.271   6.020
  146SAPE   O3115981   3.876   0.219   5.816
  146SAPE   C3115982   3.888   0.089   5.827
  146SAPE   O3215983   3.884   0.026   5.931
  146SAPE   C3215984   3.935   0.019   5.697
  146SAPE   H2X15985   3.897   0.088   5.617
  146SAPE   H2Y15986   3.886   6.802   5.693
  146SAPE   C2315987   3.685   0.781   5.577
  146SAPE   H3R15988   3.742   0.760   5.484
  146SAPE   H3S15989   3.734   0.870   5.621
  146SAPE   C2415990   3.542   0.822   5.534
  146SAPE   H4R15991   3.564   0.912   5.472
  146SAPE   H4S15992   3.493   0.842   5.632
  146SAPE   C2515993   3.470   0.718   5.459
  146SAPE   H5R15994   3.405   0.655   5.521
  146SAPE   C2615995   3.488   0.693   5.327
  146SAPE   H6R15996   3.428   0.619   5.273
  146SAPE   C2715997   3.578   0.770   5.235
  146SAPE   H7R15998   3.632   0.703   5.165
  146SAPE   H7S15999   3.642   0.837   5.296
  146SAPE   C2816000   3.490   0.868   5.155
  146SAPE   H8R16001   3.487   0.965   5.206
  146SAPE   C2916002   3.426   0.840   5.043
  146SAPE   H9R16003   3.361   0.917   5.000
  146SAPE  C21016004   3.416   0.700   4.978
  146SAPE  H10R16005   3.306   0.688   4.965
  146SAPE  H10S16006   3.451   0.619   5.046
  146SAPE  C21116007   3.494   0.689   4.849
  146SAPE  H11R16008   3.603   0.681   4.864
  146SAPE  C21216009   3.443   0.693   4.725
  146SAPE  H12R16010   3.510   0.682   4.639
  146SAPE  C21316011   3.290   0.695   4.693
  146SAPE  H13R16012   3.247   0.604   4.739
  146SAPE  H13S16013   3.269   0.675   4.586
  146SAPE  C21416014   3.205   0.817   4.722
  146SAPE  H14R16015   3.124   0.805   4.796
  146SAPE  C21516016   3.218   0.945   4.672
  146SAPE  H15R16017   3.142   1.023   4.692
  146SAPE  C21616018   3.321   0.982   4.560
  146SAPE  H16R16019   3.366   0.887   4.524
  146SAPE  H16S16020   3.404   1.043   4.601
  146SAPE  C21716021   3.264   1.060   4.436
  146SAPE  H17R16022   3.168   1.011   4.409
  146SAPE  H17S16023   3.329   1.043   4.348
  146SAPE  C21816024   3.237   1.211   4.459
  146SAPE  H18R16025   3.318   1.266   4.512
  146SAPE  H18S16026   3.149   1.239   4.521
  146SAPE  C21916027   3.215   1.278   4.323
  146SAPE  H19R16028   3.143   1.209   4.274
  146SAPE  H19S16029   3.308   1.264   4.264
  146SAPE  C22016030   3.170   1.427   4.332
  146SAPE  H20R16031   3.230   1.473   4.412
  146SAPE  H20S16032   3.067   1.430   4.374
  146SAPE  H20T16033   3.170   1.481   4.235
  146SAPE   C3316034   4.083   6.882   5.687
  146SAPE   H3X16035   4.119   6.847   5.786
  146SAPE   H3Y16036   4.133   0.098   5.673
  146SAPE   C3416037   4.122   6.783   5.579
  146SAPE   H4X16038   4.075   6.806   5.481
  146SAPE   H4Y16039   4.085   6.680   5.600
  146SAPE   C3516040   4.273   6.764   5.566
  146SAPE   H5X16041   4.292   6.682   5.493
  146SAPE   H5Y16042   4.319   6.740   5.664
  146SAPE   C3616043   4.342   0.014   5.517
  146SAPE   H6X16044   4.451   6.878   5.517
  146SAPE   H6Y16045   4.339   0.094   5.594
  146SAPE   C3716046   4.297   0.056   5.380
  146SAPE   H7X16047   4.189   0.077   5.391
  146SAPE   H7Y16048   4.302   6.853   5.310
  146SAPE   C3816049   4.378   0.174   5.334
  146SAPE   H8X16050   4.485   0.145   5.330
  146SAPE   H8Y16051   4.361   0.252   5.411
  146SAPE   C3916052   4.344   0.232   5.198
  146SAPE   H9X16053   4.378   0.338   5.201
  146SAPE   H9Y16054   4.233   0.243   5.194
  146SAPE  C31016055   4.413   0.157   5.087
  146SAPE  H10X16056   4.363   0.062   5.058
  146SAPE  H10Y16057   4.512   0.121   5.120
  146SAPE  C31116058   4.429   0.226   4.946
  146SAPE  H11X16059   4.336   0.239   4.887
  146SAPE  H11Y16060   4.500   0.157   4.894
  146SAPE  C31216061   4.498   0.363   4.956
  146SAPE  H12X16062   4.600   0.351   4.998
  146SAPE  H12Y16063   4.434   0.427   5.019
  146SAPE  C31316064   4.482   0.440   4.822
  146SAPE  H13X16065   4.461   0.544   4.853
  146SAPE  H13Y16066   4.391   0.398   4.773
  146SAPE  C31416067   4.603   0.426   4.723
  146SAPE  H14X16068   4.604   0.321   4.686
  146SAPE  H14Y16069   4.692   0.434   4.788
  146SAPE  C31516070   4.603   0.523   4.604
  146SAPE  H15X16071   4.709   0.521   4.570
  146SAPE  H15Y16072   4.572   0.629   4.622
  146SAPE  C31616073   4.520   0.466   4.490
  146SAPE  H16X16074   4.412   0.486   4.510
  146SAPE  H16Y16075   4.528   0.356   4.485
  146SAPE  C31716076   4.566   0.513   4.355
  146SAPE  H17X16077   4.673   0.486   4.352
  146SAPE  H17Y16078   4.562   0.624   4.350
  146SAPE  C31816079   4.487   0.460   4.236
  146SAPE  H18X16080   4.489   0.350   4.229
  146SAPE  H18Y16081   4.505   0.510   4.138
  146SAPE  H18Z16082   4.381   0.473   4.267
  147SAPE     N16083   5.265   5.026   6.884
  147SAPE   HN116084   5.183   4.982   6.930
  147SAPE   HN216085   5.347   4.965   6.903
  147SAPE   HN316086   5.300   5.109   6.935
  147SAPE   C1216087   5.238   5.050   6.736
  147SAPE  H12A16088   5.195   4.956   6.694
  147SAPE  H12B16089   5.334   5.069   6.684
  147SAPE   C1116090   5.137   5.163   6.715
  147SAPE  H11A16091   5.105   5.168   6.609
  147SAPE  H11B16092   5.189   5.257   6.744
  147SAPE     P16093   4.907   5.237   6.828
  147SAPE   O1316094   4.795   5.140   6.858
  147SAPE   O1416095   4.931   5.350   6.923
  147SAPE   O1216096   5.034   5.150   6.814
  147SAPE   O1116097   4.896   5.290   6.680
  147SAPE    C116098   4.942   5.422   6.631
  147SAPE    HA16099   4.880   5.508   6.664
  147SAPE    HB16100   5.042   5.455   6.668
  147SAPE    C216101   4.953   5.426   6.477
  147SAPE    HS16102   5.006   5.332   6.451
  147SAPE   O2116103   5.013   5.545   6.423
  147SAPE   C2116104   5.146   5.549   6.433
  147SAPE   O2216105   5.223   5.457   6.460
  147SAPE   C2216106   5.195   5.682   6.392
  147SAPE   H2R16107   5.113   5.754   6.413
  147SAPE   H2S16108   5.280   5.724   6.450
  147SAPE    C316109   4.815   5.410   6.414
  147SAPE    HX16110   4.756   5.501   6.438
  147SAPE    HY16111   4.765   5.329   6.470
  147SAPE   O3116112   4.831   5.378   6.270
  147SAPE   C3116113   4.720   5.391   6.201
  147SAPE   O3216114   4.608   5.409   6.243
  147SAPE   C3216115   4.747   5.394   6.049
  147SAPE   H2X16116   4.806   5.306   6.018
  147SAPE   H2Y16117   4.812   5.481   6.028
  147SAPE   C2316118   5.235   5.673   6.245
  147SAPE   H3R16119   5.315   5.597   6.233
  147SAPE   H3S16120   5.286   5.768   6.217
  147SAPE   C2416121   5.129   5.637   6.134
  147SAPE   H4R16122   5.087   5.536   6.155
  147SAPE   H4S16123   5.188   5.615   6.042
  147SAPE   C2516124   5.034   5.753   6.124
  147SAPE   H5R16125   5.017   5.802   6.221
  147SAPE   C2616126   4.993   5.809   6.008
  147SAPE   H6R16127   4.928   5.897   6.016
  147SAPE   C2716128   5.018   5.757   5.871
  147SAPE   H7R16129   5.063   5.657   5.857
  147SAPE   H7S16130   5.090   5.833   5.835
  147SAPE   C2816131   4.887   5.763   5.798
  147SAPE   H8R16132   4.825   5.681   5.834
  147SAPE   C2916133   4.835   5.860   5.714
  147SAPE   H9R16134   4.732   5.850   5.678
  147SAPE  C21016135   4.910   5.983   5.672
  147SAPE  H10R16136   4.994   6.005   5.740
  147SAPE  H10S16137   4.842   6.071   5.679
  147SAPE  C21116138   4.971   5.966   5.531
  147SAPE  H11R16139   5.022   5.869   5.524
  147SAPE  C21216140   4.965   6.060   5.429
  147SAPE  H12R16141   5.004   6.042   5.328
  147SAPE  C21316142   4.907   6.199   5.441
  147SAPE  H13R16143   4.873   6.211   5.545
  147SAPE  H13S16144   4.814   6.206   5.380
  147SAPE  C21416145   5.015   6.301   5.395
  147SAPE  H14R16146   5.089   6.326   5.473
  147SAPE  C21516147   5.017   6.364   5.277
  147SAPE  H15R16148   5.087   6.446   5.255
  147SAPE  C21616149   4.928   6.328   5.161
  147SAPE  H16R16150   4.877   6.424   5.136
  147SAPE  H16S16151   4.851   6.250   5.175
  147SAPE  C21716152   5.004   6.294   5.035
  147SAPE  H17R16153   5.048   6.193   5.048
  147SAPE  H17S16154   5.086   6.366   5.018
  147SAPE  C21816155   4.906   6.303   4.912
  147SAPE  H18R16156   4.852   6.399   4.919
  147SAPE  H18S16157   4.833   6.221   4.932
  147SAPE  C21916158   4.949   6.296   4.771
  147SAPE  H19R16159   4.862   6.314   4.704
  147SAPE  H19S16160   4.994   6.201   4.733
  147SAPE  C22016161   5.046   6.409   4.730
  147SAPE  H20R16162   5.137   6.409   4.794
  147SAPE  H20S16163   4.988   6.502   4.752
  147SAPE  H20T16164   5.079   6.415   4.625
  147SAPE   C3316165   4.618   5.385   5.967
  147SAPE   H3X16166   4.549   5.464   6.003
  147SAPE   H3Y16167   4.572   5.284   5.973
  147SAPE   C3416168   4.636   5.425   5.824
  147SAPE   H4X16169   4.705   5.356   5.771
  147SAPE   H4Y16170   4.671   5.530   5.818
  147SAPE   C3516171   4.498   5.420   5.755
  147SAPE   H5X16172   4.436   5.505   5.793
  147SAPE   H5Y16173   4.445   5.326   5.784
  147SAPE   C3616174   4.519   5.431   5.605
  147SAPE   H6X16175   4.423   5.401   5.559
  147SAPE   H6Y16176   4.593   5.359   5.564
  147SAPE   C3716177   4.550   5.574   5.560
  147SAPE   H7X16178   4.633   5.611   5.624
  147SAPE   H7Y16179   4.462   5.640   5.566
  147SAPE   C3816180   4.597   5.562   5.419
  147SAPE   H8X16181   4.525   5.520   5.346
  147SAPE   H8Y16182   4.687   5.497   5.430
  147SAPE   C3916183   4.637   5.700   5.362
  147SAPE   H9X16184   4.720   5.744   5.421
  147SAPE   H9Y16185   4.550   5.769   5.371
  147SAPE  C31016186   4.678   5.686   5.217
  147SAPE  H10X16187   4.582   5.670   5.164
  147SAPE  H10Y16188   4.745   5.598   5.199
  147SAPE  C31116189   4.746   5.810   5.160
  147SAPE  H11X16190   4.836   5.830   5.222
  147SAPE  H11Y16191   4.684   5.902   5.164
  147SAPE  C31216192   4.788   5.790   5.008
  147SAPE  H12X16193   4.686   5.783   4.966
  147SAPE  H12Y16194   4.844   5.694   5.000
  147SAPE  C31316195   4.865   5.910   4.943
  147SAPE  H13X16196   4.962   5.911   4.997
  147SAPE  H13Y16197   4.814   6.007   4.960
  147SAPE  C31416198   4.912   5.880   4.805
  147SAPE  H14X16199   4.948   5.776   4.794
  147SAPE  H14Y16200   4.996   5.950   4.785
  147SAPE  C31516201   4.802   5.910   4.706
  147SAPE  H15X16202   4.760   6.007   4.740
  147SAPE  H15Y16203   4.728   5.828   4.722
  147SAPE  C31616204   4.850   5.935   4.569
  147SAPE  H16X16205   4.935   5.869   4.541
  147SAPE  H16Y16206   4.894   6.036   4.554
  147SAPE  C31716207   4.745   5.922   4.457
  147SAPE  H17X16208   4.682   5.831   4.470
  147SAPE  H17Y16209   4.792   5.905   4.358
  147SAPE  C31816210   4.646   6.037   4.443
  147SAPE  H18X16211   4.576   6.035   4.357
  147SAPE  H18Y16212   4.687   6.140   4.441
  147SAPE  H18Z16213   4.581   6.032   4.534
  148SAPE     N16214   1.782   0.503   6.462
  148SAPE   HN116215   1.708   0.527   6.394
  148SAPE   HN216216   1.737   0.469   6.550
  148SAPE   HN316217   1.843   0.581   6.493
  148SAPE   C1216218   1.880   0.397   6.397
  148SAPE  H12A16219   1.932   0.437   6.307
  148SAPE  H12B16220   1.821   0.305   6.376
  148SAPE   C1116221   1.991   0.373   6.504
  148SAPE  H11A16222   2.041   0.467   6.535
  148SAPE  H11B16223   2.066   0.302   6.463
  148SAPE     P16224   1.920   0.150   6.644
  148SAPE   O1316225   2.033   0.113   6.735
  148SAPE   O1416226   1.781   0.118   6.685
  148SAPE   O1216227   1.926   0.314   6.620
  148SAPE   O1116228   1.960   0.092   6.498
  148SAPE    C116229   1.865   0.021   6.431
  148SAPE    HA16230   1.836   6.810   6.481
  148SAPE    HB16231   1.779   0.088   6.409
  148SAPE    C216232   1.907   6.857   6.292
  148SAPE    HS16233   2.001   6.800   6.308
  148SAPE   O2116234   1.936   0.100   6.227
  148SAPE   C2116235   2.058   0.122   6.193
  148SAPE   O2216236   2.148   0.048   6.207
  148SAPE   C2216237   2.067   0.257   6.115
  148SAPE   H2R16238   1.967   0.295   6.087
  148SAPE   H2S16239   2.108   0.338   6.180
  148SAPE    C316240   1.805   6.768   6.222
  148SAPE    HX16241   1.717   6.834   6.203
  148SAPE    HY16242   1.760   6.699   6.296
  148SAPE   O3116243   1.848   6.717   6.095
  148SAPE   C3116244   1.835   6.788   5.987
  148SAPE   O3216245   1.785   0.017   5.975
  148SAPE   C3216246   1.869   6.703   5.867
  148SAPE   H2X16247   1.806   6.612   5.877
  148SAPE   H2Y16248   1.974   6.668   5.873
  148SAPE   C2316249   2.145   0.251   5.975
  148SAPE   H3R16250   2.249   0.228   6.003
  148SAPE   H3S16251   2.142   0.356   5.936
  148SAPE   C2416252   2.088   0.145   5.886
  148SAPE   H4R16253   1.977   0.158   5.881
  148SAPE   H4S16254   2.103   0.041   5.920
  148SAPE   C2516255   2.155   0.149   5.753
  148SAPE   H5R16256   2.261   0.122   5.744
  148SAPE   C2616257   2.099   0.209   5.648
  148SAPE   H6R16258   2.146   0.195   5.549
  148SAPE   C2716259   1.961   0.263   5.635
  148SAPE   H7R16260   1.968   0.374   5.634
  148SAPE   H7S16261   1.899   0.239   5.725
  148SAPE   C2816262   1.881   0.211   5.517
  148SAPE   H8R16263   1.943   0.138   5.462
  148SAPE   C2916264   1.764   0.264   5.480
  148SAPE   H9R16265   1.703   0.222   5.399
  148SAPE  C21016266   1.690   0.382   5.539
  148SAPE  H10R16267   1.721   0.479   5.495
  148SAPE  H10S16268   1.742   0.382   5.638
  148SAPE  C21116269   1.539   0.354   5.548
  148SAPE  H11R16270   1.503   0.275   5.614
  148SAPE  C21216271   1.447   0.413   5.472
  148SAPE  H12R16272   1.342   0.381   5.479
  148SAPE  C21316273   1.473   0.495   5.347
  148SAPE  H13R16274   1.510   0.426   5.268
  148SAPE  H13S16275   1.567   0.551   5.367
  148SAPE  C21416276   1.359   0.575   5.302
  148SAPE  H14R16277   1.339   0.666   5.361
  148SAPE  C21516278   1.285   0.563   5.191
  148SAPE  H15R16279   1.204   0.637   5.183
  148SAPE  C21616280   1.292   0.453   5.091
  148SAPE  H16R16281   1.189   0.411   5.080
  148SAPE  H16S16282   1.358   0.373   5.130
  148SAPE  C21716283   1.329   0.500   4.951
  148SAPE  H17R16284   1.276   0.592   4.919
  148SAPE  H17S16285   1.307   0.419   4.878
  148SAPE  C21816286   1.477   0.542   4.935
  148SAPE  H18R16287   1.540   0.451   4.947
  148SAPE  H18S16288   1.519   0.619   5.003
  148SAPE  C21916289   1.522   0.583   4.791
  148SAPE  H19R16290   1.621   0.632   4.788
  148SAPE  H19S16291   1.447   0.644   4.736
  148SAPE  C22016292   1.548   0.457   4.709
  148SAPE  H20R16293   1.451   0.410   4.681
  148SAPE  H20S16294   1.609   0.385   4.768
  148SAPE  H20T16295   1.601   0.489   4.616
  148SAPE   C3316296   1.851   6.776   5.731
  148SAPE   H3X16297   1.932   6.756   5.658
  148SAPE   H3Y16298   1.860   0.004   5.745
  148SAPE   C3416299   1.722   6.739   5.655
  148SAPE   H4X16300   1.628   6.782   5.695
  148SAPE   H4Y16301   1.709   6.630   5.675
  148SAPE   C3516302   1.730   6.746   5.502
  148SAPE   H5X16303   1.833   6.717   5.473
  148SAPE   H5Y16304   1.696   6.846   5.467
  148SAPE   C3616305   1.632   6.648   5.435
  148SAPE   H6X16306   1.525   6.667   5.461
  148SAPE   H6Y16307   1.660   6.551   5.481
  148SAPE   C3716308   1.652   6.627   5.285
  148SAPE   H7X16309   1.604   6.533   5.251
  148SAPE   H7Y16310   1.759   6.612   5.257
  148SAPE   C3816311   1.593   6.728   5.192
  148SAPE   H8X16312   1.493   6.763   5.225
  148SAPE   H8Y16313   1.577   6.679   5.094
  148SAPE   C3916314   1.694   6.839   5.152
  148SAPE   H9X16315   1.789   6.796   5.115
  148SAPE   H9Y16316   1.723   0.021   5.237
  148SAPE  C31016317   1.633   0.043   5.040
  148SAPE  H10X16318   1.534   0.074   5.078
  148SAPE  H10Y16319   1.608   6.865   4.951
  148SAPE  C31116320   1.711   0.176   4.998
  148SAPE  H11X16321   1.718   0.241   5.087
  148SAPE  H11Y16322   1.646   0.236   4.930
  148SAPE  C31216323   1.843   0.145   4.929
  148SAPE  H12X16324   1.833   0.049   4.873
  148SAPE  H12Y16325   1.927   0.125   4.999
  148SAPE  C31316326   1.882   0.255   4.833
  148SAPE  H13X16327   1.894   0.347   4.895
  148SAPE  H13Y16328   1.807   0.266   4.751
  148SAPE  C31416329   2.016   0.239   4.760
  148SAPE  H14X16330   2.005   0.153   4.690
  148SAPE  H14Y16331   2.099   0.224   4.832
  148SAPE  C31516332   2.063   0.363   4.680
  148SAPE  H15X16333   2.168   0.349   4.648
  148SAPE  H15Y16334   2.066   0.448   4.751
  148SAPE  C31616335   1.990   0.396   4.546
  148SAPE  H16X16336   1.890   0.438   4.567
  148SAPE  H16Y16337   1.971   0.297   4.499
  148SAPE  C31716338   2.072   0.488   4.460
  148SAPE  H17X16339   2.171   0.515   4.503
  148SAPE  H17Y16340   2.021   0.587   4.454
  148SAPE  C31816341   2.088   0.441   4.313
  148SAPE  H18X16342   1.988   0.408   4.278
  148SAPE  H18Y16343   2.165   0.361   4.320
  148SAPE  H18Z16344   2.125   0.515   4.240
  149SAPE     N16345   2.433   2.348   6.400
  149SAPE   HN116346   2.481   2.259   6.374
  149SAPE   HN216347   2.343   2.338   6.348
  149SAPE   HN316348   2.475   2.429   6.352
  149SAPE   C1216349   2.428   2.348   6.553
  149SAPE  H12A16350   2.352   2.423   6.581
  149SAPE  H12B16351   2.529   2.377   6.589
  149SAPE   C1116352   2.388   2.214   6.607
  149SAPE  H11A16353   2.382   2.218   6.717
  149SAPE  H11B16354   2.475   2.147   6.593
  149SAPE     P16355   2.115   2.207   6.593
  149SAPE   O1316356   2.096   2.183   6.738
  149SAPE   O1416357   2.082   2.346   6.545
  149SAPE   O1216358   2.266   2.167   6.555
  149SAPE   O1116359   2.019   2.102   6.525
  149SAPE    C116360   2.070   2.000   6.439
  149SAPE    HA16361   2.145   2.050   6.374
  149SAPE    HB16362   2.122   1.927   6.504
  149SAPE    C216363   1.969   1.939   6.342
  149SAPE    HS16364   1.880   1.901   6.398
  149SAPE   O2116365   2.039   1.842   6.263
  149SAPE   C2116366   1.969   1.727   6.246
  149SAPE   O2216367   1.864   1.700   6.300
  149SAPE   C2216368   2.054   1.640   6.160
  149SAPE   H2R16369   2.050   1.687   6.060
  149SAPE   H2S16370   2.160   1.652   6.191
  149SAPE    C316371   1.922   2.046   6.241
  149SAPE    HX16372   2.016   2.078   6.190
  149SAPE    HY16373   1.879   2.140   6.283
  149SAPE   O3116374   1.830   1.987   6.142
  149SAPE   C3116375   1.707   1.955   6.194
  149SAPE   O3216376   1.673   1.990   6.311
  149SAPE   C3216377   1.618   1.871   6.102
  149SAPE   H2X16378   1.565   1.803   6.172
  149SAPE   H2Y16379   1.677   1.805   6.034
  149SAPE   C2316380   2.014   1.490   6.166
  149SAPE   H3R16381   2.000   1.457   6.271
  149SAPE   H3S16382   2.097   1.423   6.137
  149SAPE   C2416383   1.882   1.467   6.087
  149SAPE   H4R16384   1.901   1.527   5.995
  149SAPE   H4S16385   1.802   1.518   6.145
  149SAPE   C2516386   1.850   1.322   6.055
  149SAPE   H5R16387   1.838   1.254   6.140
  149SAPE   C2616388   1.866   1.266   5.929
  149SAPE   H6R16389   1.865   1.157   5.911
  149SAPE   C2716390   1.894   1.334   5.797
  149SAPE   H7R16391   1.809   1.404   5.789
  149SAPE   H7S16392   1.884   1.271   5.706
  149SAPE   C2816393   2.030   1.408   5.784
  149SAPE   H8R16394   2.097   1.414   5.871
  149SAPE   C2916395   2.082   1.478   5.677
  149SAPE   H9R16396   2.183   1.522   5.685
  149SAPE  C21016397   2.016   1.493   5.541
  149SAPE  H10R16398   1.995   1.390   5.503
  149SAPE  H10S16399   2.098   1.523   5.473
  149SAPE  C21116400   1.889   1.572   5.531
  149SAPE  H11R16401   1.830   1.573   5.623
  149SAPE  C21216402   1.845   1.635   5.425
  149SAPE  H12R16403   1.751   1.692   5.426
  149SAPE  C21316404   1.897   1.618   5.280
  149SAPE  H13R16405   2.006   1.598   5.271
  149SAPE  H13S16406   1.892   1.717   5.230
  149SAPE  C21416407   1.832   1.494   5.204
  149SAPE  H14R16408   1.779   1.415   5.259
  149SAPE  C21516409   1.853   1.479   5.076
  149SAPE  H15R16410   1.793   1.401   5.026
  149SAPE  C21616411   1.926   1.563   4.980
  149SAPE  H16R16412   1.971   1.491   4.908
  149SAPE  H16S16413   2.002   1.631   5.023
  149SAPE  C21716414   1.847   1.653   4.884
  149SAPE  H17R16415   1.783   1.727   4.937
  149SAPE  H17S16416   1.781   1.593   4.820
  149SAPE  C21816417   1.922   1.743   4.787
  149SAPE  H18R16418   1.977   1.808   4.858
  149SAPE  H18S16419   1.865   1.803   4.712
  149SAPE  C21916420   2.024   1.675   4.696
  149SAPE  H19R16421   2.084   1.612   4.765
  149SAPE  H19S16422   2.093   1.745   4.644
  149SAPE  C22016423   1.969   1.583   4.589
  149SAPE  H20R16424   1.901   1.502   4.623
  149SAPE  H20S16425   2.051   1.521   4.547
  149SAPE  H20T16426   1.918   1.648   4.514
  149SAPE   C3316427   1.532   1.951   6.007
  149SAPE   H3X16428   1.469   2.029   6.057
  149SAPE   H3Y16429   1.459   1.879   5.966
  149SAPE   C3416430   1.613   2.014   5.888
  149SAPE   H4X16431   1.662   1.926   5.842
  149SAPE   H4Y16432   1.696   2.075   5.929
  149SAPE   C3516433   1.516   2.082   5.792
  149SAPE   H5X16434   1.467   2.166   5.847
  149SAPE   H5Y16435   1.433   2.023   5.750
  149SAPE   C3616436   1.588   2.136   5.667
  149SAPE   H6X16437   1.645   2.058   5.613
  149SAPE   H6Y16438   1.668   2.210   5.691
  149SAPE   C3716439   1.488   2.194   5.568
  149SAPE   H7X16440   1.443   2.285   5.613
  149SAPE   H7Y16441   1.411   2.118   5.543
  149SAPE   C3816442   1.558   2.227   5.443
  149SAPE   H8X16443   1.615   2.137   5.413
  149SAPE   H8Y16444   1.624   2.316   5.452
  149SAPE   C3916445   1.453   2.266   5.334
  149SAPE   H9X16446   1.501   2.327   5.254
  149SAPE   H9Y16447   1.370   2.327   5.377
  149SAPE  C31016448   1.395   2.144   5.267
  149SAPE  H10X16449   1.340   2.083   5.342
  149SAPE  H10Y16450   1.471   2.078   5.220
  149SAPE  C31116451   1.293   2.178   5.158
  149SAPE  H11X16452   1.223   2.257   5.192
  149SAPE  H11Y16453   1.242   2.090   5.113
  149SAPE  C31216454   1.345   2.249   5.030
  149SAPE  H12X16455   1.455   2.261   5.021
  149SAPE  H12Y16456   1.307   2.353   5.021
  149SAPE  C31316457   1.295   2.179   4.904
  149SAPE  H13X16458   1.187   2.185   4.878
  149SAPE  H13Y16459   1.315   2.070   4.912
  149SAPE  C31416460   1.365   2.237   4.769
  149SAPE  H14X16461   1.473   2.258   4.781
  149SAPE  H14Y16462   1.311   2.333   4.751
  149SAPE  C31516463   1.339   2.150   4.647
  149SAPE  H15X16464   1.249   2.090   4.672
  149SAPE  H15Y16465   1.423   2.078   4.649
  149SAPE  C31616466   1.323   2.230   4.513
  149SAPE  H16X16467   1.357   2.180   4.420
  149SAPE  H16Y16468   1.381   2.324   4.523
  149SAPE  C31716469   1.179   2.250   4.476
  149SAPE  H17X16470   1.132   2.321   4.547
  149SAPE  H17Y16471   1.127   2.154   4.497
  149SAPE  C31816472   1.159   2.305   4.329
  149SAPE  H18X16473   1.145   2.218   4.261
  149SAPE  H18Y16474   1.249   2.360   4.293
  149SAPE  H18Z16475   1.070   2.370   4.323
  150SAPE     N16476   4.673   2.972   6.540
  150SAPE   HN116477   4.605   3.048   6.561
  150SAPE   HN216478   4.637   2.879   6.567
  150SAPE   HN316479   4.760   2.992   6.593
  150SAPE   C1216480   4.719   2.964   6.392
  150SAPE  H12A16481   4.739   3.069   6.362
  150SAPE  H12B16482   4.645   2.916   6.326
  150SAPE   C1116483   4.849   2.878   6.376
  150SAPE  H11A16484   4.930   2.920   6.440
  150SAPE  H11B16485   4.894   2.890   6.275
  150SAPE     P16486   4.959   2.647   6.433
  150SAPE   O1316487   5.074   2.734   6.473
  150SAPE   O1416488   4.915   2.537   6.522
  150SAPE   O1216489   4.833   2.736   6.400
  150SAPE   O1116490   4.983   2.598   6.289
  150SAPE    C116491   5.073   2.659   6.196
  150SAPE    HA16492   5.031   2.637   6.095
  150SAPE    HB16493   5.080   2.768   6.213
  150SAPE    C216494   5.216   2.595   6.209
  150SAPE    HS16495   5.230   2.567   6.315
  150SAPE   O2116496   5.305   2.695   6.154
  150SAPE   C2116497   5.426   2.687   6.201
  150SAPE   O2216498   5.466   2.616   6.289
  150SAPE   C2216499   5.517   2.790   6.128
  150SAPE   H2R16500   5.533   2.759   6.022
  150SAPE   H2S16501   5.459   2.885   6.120
  150SAPE    C316502   5.235   2.461   6.138
  150SAPE    HX16503   5.168   2.385   6.183
  150SAPE    HY16504   5.339   2.428   6.154
  150SAPE   O3116505   5.209   2.473   5.998
  150SAPE   C3116506   5.252   2.373   5.912
  150SAPE   O3216507   5.294   2.268   5.952
  150SAPE   C3216508   5.251   2.429   5.768
  150SAPE   H2X16509   5.349   2.405   5.721
  150SAPE   H2Y16510   5.226   2.537   5.772
  150SAPE   C2316511   5.652   2.781   6.184
  150SAPE   H3R16512   5.696   2.680   6.165
  150SAPE   H3S16513   5.648   2.807   6.292
  150SAPE   C2416514   5.747   2.882   6.106
  150SAPE   H4R16515   5.842   2.889   6.165
  150SAPE   H4S16516   5.700   2.982   6.108
  150SAPE   C2516517   5.780   2.844   5.965
  150SAPE   H5R16518   5.873   2.788   5.950
  150SAPE   C2616519   5.707   2.867   5.852
  150SAPE   H6R16520   5.740   2.820   5.758
  150SAPE   C2716521   5.577   2.938   5.828
  150SAPE   H7R16522   5.599   3.028   5.766
  150SAPE   H7S16523   5.544   2.976   5.927
  150SAPE   C2816524   5.464   2.851   5.783
  150SAPE   H8R16525   5.418   2.799   5.869
  150SAPE   C2916526   5.419   2.833   5.661
  150SAPE   H9R16527   5.329   2.771   5.652
  150SAPE  C21016528   5.480   2.887   5.538
  150SAPE  H10R16529   5.588   2.912   5.552
  150SAPE  H10S16530   5.424   2.981   5.523
  150SAPE  C21116531   5.472   2.788   5.431
  150SAPE  H11R16532   5.454   2.683   5.461
  150SAPE  C21216533   5.487   2.812   5.300
  150SAPE  H12R16534   5.493   2.723   5.236
  150SAPE  C21316535   5.514   2.949   5.238
  150SAPE  H13R16536   5.615   2.967   5.195
  150SAPE  H13S16537   5.508   3.021   5.323
  150SAPE  C21416538   5.416   2.996   5.131
  150SAPE  H14R16539   5.326   3.050   5.162
  150SAPE  C21516540   5.440   2.982   5.003
  150SAPE  H15R16541   5.361   3.013   4.933
  150SAPE  C21616542   5.559   2.910   4.947
  150SAPE  H16R16543   5.608   2.852   5.028
  150SAPE  H16S16544   5.643   2.969   4.903
  150SAPE  C21716545   5.529   2.812   4.829
  150SAPE  H17R16546   5.495   2.870   4.741
  150SAPE  H17S16547   5.443   2.747   4.858
  150SAPE  C21816548   5.652   2.730   4.787
  150SAPE  H18R16549   5.670   2.644   4.855
  150SAPE  H18S16550   5.749   2.783   4.786
  150SAPE  C21916551   5.650   2.685   4.642
  150SAPE  H19R16552   5.552   2.634   4.633
  150SAPE  H19S16553   5.733   2.612   4.629
  150SAPE  C22016554   5.672   2.808   4.548
  150SAPE  H20R16555   5.781   2.827   4.538
  150SAPE  H20S16556   5.627   2.896   4.598
  150SAPE  H20T16557   5.625   2.787   4.450
  150SAPE   C3316558   5.148   2.349   5.698
  150SAPE   H3X16559   5.053   2.395   5.732
  150SAPE   H3Y16560   5.142   2.239   5.712
  150SAPE   C3416561   5.165   2.371   5.548
  150SAPE   H4X16562   5.116   2.288   5.493
  150SAPE   H4Y16563   5.269   2.373   5.511
  150SAPE   C3516564   5.103   2.495   5.497
  150SAPE   H5X16565   5.162   2.585   5.524
  150SAPE   H5Y16566   5.015   2.515   5.563
  150SAPE   C3616567   5.075   2.505   5.344
  150SAPE   H6X16568   5.038   2.609   5.326
  150SAPE   H6Y16569   4.992   2.437   5.316
  150SAPE   C3716570   5.197   2.475   5.261
  150SAPE   H7X16571   5.205   2.367   5.282
  150SAPE   H7Y16572   5.284   2.533   5.300
  150SAPE   C3816573   5.171   2.500   5.110
  150SAPE   H8X16574   5.072   2.458   5.084
  150SAPE   H8Y16575   5.248   2.435   5.063
  150SAPE   C3916576   5.181   2.645   5.072
  150SAPE   H9X16577   5.279   2.682   5.110
  150SAPE   H9Y16578   5.107   2.691   5.142
  150SAPE  C31016579   5.143   2.678   4.926
  150SAPE  H10X16580   5.065   2.605   4.897
  150SAPE  H10Y16581   5.232   2.660   4.861
  150SAPE  C31116582   5.088   2.825   4.913
  150SAPE  H11X16583   5.174   2.893   4.926
  150SAPE  H11Y16584   5.018   2.838   4.998
  150SAPE  C31216585   5.020   2.862   4.781
  150SAPE  H12X16586   4.977   2.965   4.779
  150SAPE  H12Y16587   4.947   2.781   4.760
  150SAPE  C31316588   5.116   2.855   4.653
  150SAPE  H13X16589   5.058   2.859   4.559
  150SAPE  H13Y16590   5.167   2.758   4.669
  150SAPE  C31416591   5.222   2.965   4.655
  150SAPE  H14X16592   5.294   2.975   4.740
  150SAPE  H14Y16593   5.167   3.061   4.651
  150SAPE  C31516594   5.305   2.968   4.528
  150SAPE  H15X16595   5.356   2.873   4.502
  150SAPE  H15Y16596   5.376   3.054   4.532
  150SAPE  C31616597   5.220   3.021   4.402
  150SAPE  H16X16598   5.181   3.123   4.421
  150SAPE  H16Y16599   5.129   2.958   4.396
  150SAPE  C31716600   5.301   3.015   4.270
  150SAPE  H17X16601   5.323   2.907   4.253
  150SAPE  H17Y16602   5.400   3.062   4.285
  150SAPE  C31816603   5.234   3.084   4.153
  150SAPE  H18X16604   5.302   3.082   4.065
  150SAPE  H18Y16605   5.220   3.189   4.187
  150SAPE  H18Z16606   5.141   3.029   4.128
  151SAPE     N16607   4.167   6.636   6.312
  151SAPE   HN116608   4.118   6.653   6.222
  151SAPE   HN216609   4.106   6.584   6.378
  151SAPE   HN316610   4.201   6.720   6.363
  151SAPE   C1216611   4.289   6.556   6.280
  151SAPE  H12A16612   4.252   6.473   6.216
  151SAPE  H12B16613   4.338   6.518   6.372
  151SAPE   C1116614   4.383   6.646   6.205
  151SAPE  H11A16615   4.339   6.684   6.110
  151SAPE  H11B16616   4.479   6.594   6.181
  151SAPE     P16617   4.519   6.862   6.248
  151SAPE   O1316618   4.453   0.110   6.235
  151SAPE   O1416619   4.634   6.856   6.334
  151SAPE   O1216620   4.412   6.755   6.287
  151SAPE   O1116621   4.572   6.811   6.106
  151SAPE    C116622   4.708   6.826   6.067
  151SAPE    HA16623   4.741   0.048   6.077
  151SAPE    HB16624   4.770   6.759   6.131
  151SAPE    C216625   4.734   6.768   5.930
  151SAPE    HS16626   4.841   6.788   5.906
  151SAPE   O2116627   4.655   6.836   5.833
  151SAPE   C2116628   4.705   0.078   5.816
  151SAPE   O2216629   4.814   0.117   5.848
  151SAPE   C2216630   4.603   0.162   5.735
  151SAPE   H2R16631   4.508   0.107   5.719
  151SAPE   H2S16632   4.584   0.245   5.807
  151SAPE    C316633   4.701   6.617   5.924
  151SAPE    HX16634   4.594   6.612   5.953
  151SAPE    HY16635   4.760   6.571   6.006
  151SAPE   O3116636   4.733   6.547   5.799
  151SAPE   C3116637   4.643   6.540   5.703
  151SAPE   O3216638   4.521   6.555   5.724
  151SAPE   C3216639   4.699   6.518   5.560
  151SAPE   H2X16640   4.687   6.410   5.537
  151SAPE   H2Y16641   4.804   6.551   5.569
  151SAPE   C2316642   4.645   0.234   5.609
  151SAPE   H3R16643   4.582   0.325   5.594
  151SAPE   H3S16644   4.632   0.160   5.528
  151SAPE   C2416645   4.792   0.292   5.606
  151SAPE   H4R16646   4.856   0.201   5.610
  151SAPE   H4S16647   4.805   0.358   5.694
  151SAPE   C2516648   4.819   0.363   5.482
  151SAPE   H5R16649   4.868   0.305   5.402
  151SAPE   C2616650   4.811   0.500   5.457
  151SAPE   H6R16651   4.847   0.543   5.362
  151SAPE   C2716652   4.774   0.606   5.560
  151SAPE   H7R16653   4.716   0.559   5.643
  151SAPE   H7S16654   4.711   0.684   5.512
  151SAPE   C2816655   4.896   0.661   5.625
  151SAPE   H8R16656   4.914   0.642   5.731
  151SAPE   C2916657   4.976   0.760   5.570
  151SAPE   H9R16658   5.068   0.785   5.624
  151SAPE  C21016659   4.957   0.825   5.435
  151SAPE  H10R16660   4.860   0.789   5.394
  151SAPE  H10S16661   5.040   0.789   5.370
  151SAPE  C21116662   4.968   0.973   5.440
  151SAPE  H11R16663   4.962   1.026   5.536
  151SAPE  C21216664   4.987   1.049   5.329
  151SAPE  H12R16665   5.016   1.154   5.345
  151SAPE  C21316666   5.003   0.989   5.197
  151SAPE  H13R16667   4.980   1.059   5.113
  151SAPE  H13S16668   4.939   0.899   5.184
  151SAPE  C21416669   5.147   0.945   5.181
  151SAPE  H14R16670   5.195   0.900   5.269
  151SAPE  C21516671   5.228   0.984   5.081
  151SAPE  H15R16672   5.333   0.952   5.087
  151SAPE  C21616673   5.198   1.056   4.952
  151SAPE  H16R16674   5.265   1.144   4.953
  151SAPE  H16S16675   5.103   1.113   4.945
  151SAPE  C21716676   5.225   0.965   4.825
  151SAPE  H17R16677   5.161   0.874   4.829
  151SAPE  H17S16678   5.332   0.935   4.834
  151SAPE  C21816679   5.176   1.035   4.699
  151SAPE  H18R16680   5.231   1.130   4.681
  151SAPE  H18S16681   5.067   1.047   4.711
  151SAPE  C21916682   5.198   0.949   4.566
  151SAPE  H19R16683   5.159   0.848   4.592
  151SAPE  H19S16684   5.304   0.930   4.539
  151SAPE  C22016685   5.123   1.000   4.450
  151SAPE  H20R16686   5.181   1.087   4.412
  151SAPE  H20S16687   5.018   1.019   4.482
  151SAPE  H20T16688   5.116   0.923   4.370
  151SAPE   C3316689   4.634   6.601   5.453
  151SAPE   H3X16690   4.655   6.707   5.480
  151SAPE   H3Y16691   4.526   6.582   5.438
  151SAPE   C3416692   4.692   6.577   5.324
  151SAPE   H4X16693   4.669   6.474   5.290
  151SAPE   H4Y16694   4.803   6.584   5.326
  151SAPE   C3516695   4.647   6.683   5.224
  151SAPE   H5X16696   4.665   6.781   5.272
  151SAPE   H5Y16697   4.539   6.662   5.203
  151SAPE   C3616698   4.725   6.682   5.090
  151SAPE   H6X16699   4.695   6.593   5.030
  151SAPE   H6Y16700   4.834   6.686   5.110
  151SAPE   C3716701   4.685   6.809   5.005
  151SAPE   H7X16702   4.727   0.017   5.054
  151SAPE   H7Y16703   4.574   6.811   5.008
  151SAPE   C3816704   4.726   6.792   4.860
  151SAPE   H8X16705   4.668   6.710   4.812
  151SAPE   H8Y16706   4.835   6.783   4.873
  151SAPE   C3916707   4.699   0.026   4.752
  151SAPE   H9X16708   4.741   0.122   4.788
  151SAPE   H9Y16709   4.589   0.043   4.742
  151SAPE  C31016710   4.763   6.868   4.620
  151SAPE  H10X16711   4.718   6.774   4.584
  151SAPE  H10Y16712   4.866   6.839   4.652
  151SAPE  C31116713   4.784   0.090   4.512
  151SAPE  H11X16714   4.685   0.139   4.508
  151SAPE  H11Y16715   4.785   0.031   4.417
  151SAPE  C31216716   4.913   0.161   4.530
  151SAPE  H12X16717   4.992   0.085   4.542
  151SAPE  H12Y16718   4.894   0.216   4.624
  151SAPE  C31316719   4.963   0.252   4.417
  151SAPE  H13X16720   4.880   0.306   4.368
  151SAPE  H13Y16721   5.014   0.180   4.349
  151SAPE  C31416722   5.067   0.349   4.476
  151SAPE  H14X16723   5.131   0.391   4.395
  151SAPE  H14Y16724   5.132   0.301   4.552
  151SAPE  C31516725   4.991   0.472   4.534
  151SAPE  H15X16726   4.915   0.436   4.607
  151SAPE  H15Y16727   4.937   0.520   4.450
  151SAPE  C31616728   5.093   0.561   4.609
  151SAPE  H16X16729   5.041   0.657   4.631
  151SAPE  H16Y16730   5.187   0.579   4.553
  151SAPE  C31716731   5.146   0.507   4.744
  151SAPE  H17X16732   5.235   0.443   4.727
  151SAPE  H17Y16733   5.068   0.445   4.792
  151SAPE  C31816734   5.210   0.622   4.829
  151SAPE  H18X16735   5.294   0.664   4.770
  151SAPE  H18Y16736   5.245   0.589   4.929
  151SAPE  H18Z16737   5.130   0.697   4.849
  152SAPE     N16738   0.311   1.708   6.528
  152SAPE   HN116739   0.386   1.637   6.513
  152SAPE   HN216740   0.362   1.789   6.568
  152SAPE   HN316741   0.248   1.666   6.600
  152SAPE   C1216742   0.233   1.744   6.403
  152SAPE  H12A16743   0.159   1.821   6.431
  152SAPE  H12B16744   0.186   1.652   6.362
  152SAPE   C1116745   0.321   1.804   6.290
  152SAPE  H11A16746   0.259   1.828   6.201
  152SAPE  H11B16747   0.405   1.736   6.262
  152SAPE     P16748   0.328   2.068   6.297
  152SAPE   O1316749   0.225   2.124   6.388
  152SAPE   O1416750   0.446   2.152   6.285
  152SAPE   O1216751   0.375   1.924   6.346
  152SAPE   O1116752   0.263   2.048   6.158
  152SAPE    C116753   0.211   2.163   6.091
  152SAPE    HA16754   0.240   2.257   6.142
  152SAPE    HB16755   0.260   2.165   5.991
  152SAPE    C216756   0.063   2.147   6.065
  152SAPE    HS16757   0.011   2.128   6.161
  152SAPE   O2116758   0.049   2.040   5.965
  152SAPE   C2116759   0.027   1.921   6.003
  152SAPE   O2216760   6.875   1.882   6.115
  152SAPE   C2216761   0.072   1.831   5.890
  152SAPE   H2R16762   0.010   1.855   5.801
  152SAPE   H2S16763   0.178   1.859   5.870
  152SAPE    C316764   0.015   2.281   6.006
  152SAPE    HX16765   0.038   2.367   6.073
  152SAPE    HY16766   6.787   2.278   5.992
  152SAPE   O3116767   0.065   2.298   5.872
  152SAPE   C3116768   0.149   2.399   5.848
  152SAPE   O3216769   0.203   2.470   5.934
  152SAPE   C3216770   0.162   2.412   5.692
  152SAPE   H2X16771   0.175   2.307   5.660
  152SAPE   H2Y16772   0.266   2.451   5.681
  152SAPE   C2316773   0.058   1.680   5.917
  152SAPE   H3R16774   6.836   1.667   5.953
  152SAPE   H3S16775   0.129   1.659   6.000
  152SAPE   C2416776   0.078   1.582   5.797
  152SAPE   H4R16777   6.881   1.600   5.722
  152SAPE   H4S16778   0.053   1.482   5.839
  152SAPE   C2516779   0.217   1.590   5.745
  152SAPE   H5R16780   0.296   1.535   5.798
  152SAPE   C2616781   0.255   1.656   5.632
  152SAPE   H6R16782   0.360   1.643   5.601
  152SAPE   C2716783   0.164   1.729   5.545
  152SAPE   H7R16784   0.163   1.833   5.585
  152SAPE   H7S16785   0.064   1.683   5.551
  152SAPE   C2816786   0.208   1.747   5.402
  152SAPE   H8R16787   0.316   1.739   5.385
  152SAPE   C2916788   0.127   1.777   5.301
  152SAPE   H9R16789   0.178   1.779   5.204
  152SAPE  C21016790   6.867   1.819   5.298
  152SAPE  H10R16791   6.848   1.918   5.346
  152SAPE  H10S16792   6.800   1.752   5.357
  152SAPE  C21116793   6.825   1.822   5.157
  152SAPE  H11R16794   6.818   1.925   5.117
  152SAPE  C21216795   6.776   1.731   5.075
  152SAPE  H12R16796   6.758   1.765   4.972
  152SAPE  C21316797   6.774   1.586   5.104
  152SAPE  H13R16798   6.683   1.539   5.064
  152SAPE  H13S16799   6.772   1.563   5.213
  152SAPE  C21416800   0.015   1.514   5.053
  152SAPE  H14R16801   0.090   1.509   5.134
  152SAPE  C21516802   0.043   1.459   4.929
  152SAPE  H15R16803   0.128   1.391   4.911
  152SAPE  C21616804   6.833   1.463   4.810
  152SAPE  H16R16805   6.733   1.500   4.842
  152SAPE  H16S16806   6.822   1.361   4.769
  152SAPE  C21716807   6.869   1.563   4.702
  152SAPE  H17R16808   0.006   1.667   4.737
  152SAPE  H17S16809   6.780   1.580   4.638
  152SAPE  C21816810   0.093   1.504   4.608
  152SAPE  H18R16811   0.057   1.410   4.561
  152SAPE  H18S16812   0.183   1.494   4.673
  152SAPE  C21916813   0.131   1.597   4.489
  152SAPE  H19R16814   0.197   1.536   4.424
  152SAPE  H19S16815   0.192   1.681   4.529
  152SAPE  C22016816   0.016   1.639   4.406
  152SAPE  H20R16817   6.843   1.548   4.375
  152SAPE  H20S16818   0.047   1.704   4.321
  152SAPE  H20T16819   6.834   1.702   4.471
  152SAPE   C3316820   0.063   2.498   5.618
  152SAPE   H3X16821   0.058   2.605   5.646
  152SAPE   H3Y16822   6.842   2.463   5.634
  152SAPE   C3416823   0.086   2.492   5.467
  152SAPE   H4X16824   0.073   2.386   5.437
  152SAPE   H4Y16825   0.194   2.519   5.457
  152SAPE   C3516826   0.011   2.591   5.372
  152SAPE   H5X16827   0.034   2.696   5.403
  152SAPE   H5Y16828   6.784   2.581   5.383
  152SAPE   C3616829   0.048   2.565   5.226
  152SAPE   H6X16830   0.036   2.458   5.199
  152SAPE   H6Y16831   0.157   2.582   5.215
  152SAPE   C3716832   6.862   2.666   5.132
  152SAPE   H7X16833   6.864   2.767   5.180
  152SAPE   H7Y16834   6.753   2.646   5.126
  152SAPE   C3816835   0.035   2.666   4.987
  152SAPE   H8X16836   0.012   2.570   4.936
  152SAPE   H8Y16837   0.145   2.669   4.977
  152SAPE   C3916838   6.851   2.757   4.891
  152SAPE   H9X16839   0.003   2.861   4.908
  152SAPE   H9Y16840   6.741   2.757   4.899
  152SAPE  C31016841   6.879   2.706   4.746
  152SAPE  H10X16842   6.812   2.764   4.680
  152SAPE  H10Y16843   6.837   2.603   4.734
  152SAPE  C31116844   0.139   2.732   4.707
  152SAPE  H11X16845   0.214   2.680   4.771
  152SAPE  H11Y16846   0.152   2.841   4.727
  152SAPE  C31216847   0.174   2.686   4.567
  152SAPE  H12X16848   0.284   2.698   4.555
  152SAPE  H12Y16849   0.120   2.760   4.503
  152SAPE  C31316850   0.138   2.539   4.540
  152SAPE  H13X16851   0.030   2.523   4.555
  152SAPE  H13Y16852   0.189   2.466   4.606
  152SAPE  C31416853   0.168   2.500   4.393
  152SAPE  H14X16854   0.113   2.570   4.327
  152SAPE  H14Y16855   0.130   2.397   4.373
  152SAPE  C31516856   0.313   2.506   4.377
  152SAPE  H15X16857   0.351   2.425   4.443
  152SAPE  H15Y16858   0.363   2.605   4.388
  152SAPE  C31616859   0.350   2.477   4.232
  152SAPE  H16X16860   0.311   2.558   4.168
  152SAPE  H16Y16861   0.304   2.381   4.201
  152SAPE  C31716862   0.498   2.460   4.205
  152SAPE  H17X16863   0.539   2.397   4.287
  152SAPE  H17Y16864   0.551   2.558   4.215
  152SAPE  C31816865   0.529   2.404   4.064
  152SAPE  H18X16866   0.489   2.301   4.063
  152SAPE  H18Y16867   0.640   2.403   4.071
  152SAPE  H18Z16868   0.488   2.477   3.992
  153SAPE     N16869   6.335   1.708   6.749
  153SAPE   HN116870   6.267   1.674   6.820
  153SAPE   HN216871   6.428   1.711   6.797
  153SAPE   HN316872   6.308   1.805   6.721
  153SAPE   C1216873   6.327   1.630   6.624
  153SAPE  H12A16874   6.354   1.701   6.543
  153SAPE  H12B16875   6.221   1.602   6.606
  153SAPE   C1116876   6.424   1.514   6.624
  153SAPE  H11A16877   6.529   1.543   6.647
  153SAPE  H11B16878   6.425   1.466   6.523
  153SAPE     P16879   6.466   1.353   6.827
  153SAPE   O1316880   6.557   1.448   6.896
  153SAPE   O1416881   6.379   1.267   6.918
  153SAPE   O1216882   6.376   1.430   6.727
  153SAPE   O1116883   6.547   1.260   6.726
  153SAPE    C116884   6.484   1.132   6.706
  153SAPE    HA16885   6.555   1.063   6.756
  153SAPE    HB16886   6.379   1.121   6.738
  153SAPE    C216887   6.480   1.088   6.557
  153SAPE    HS16888   6.580   1.111   6.515
  153SAPE   O2116889   6.365   1.154   6.489
  153SAPE   C2116890   6.403   1.223   6.381
  153SAPE   O2216891   6.520   1.242   6.348
  153SAPE   C2216892   6.283   1.271   6.302
  153SAPE   H2R16893   6.208   1.190   6.307
  153SAPE   H2S16894   6.237   1.355   6.358
  153SAPE    C316895   6.462   0.942   6.540
  153SAPE    HX16896   6.361   0.907   6.572
  153SAPE    HY16897   6.530   0.897   6.616
  153SAPE   O3116898   6.493   0.897   6.404
  153SAPE   C3116899   6.476   0.768   6.391
  153SAPE   O3216900   6.437   0.698   6.484
  153SAPE   C3216901   6.505   0.722   6.243
  153SAPE   H2X16902   6.595   0.781   6.214
  153SAPE   H2Y16903   6.427   0.753   6.172
  153SAPE   C2316904   6.306   1.325   6.159
  153SAPE   H3R16905   6.347   1.234   6.110
  153SAPE   H3S16906   6.374   1.411   6.140
  153SAPE   C2416907   6.181   1.367   6.088
  153SAPE   H4R16908   6.142   1.450   6.151
  153SAPE   H4S16909   6.106   1.287   6.104
  153SAPE   C2516910   6.198   1.393   5.943
  153SAPE   H5R16911   6.228   1.307   5.882
  153SAPE   C2616912   6.187   1.520   5.885
  153SAPE   H6R16913   6.198   1.537   5.777
  153SAPE   C2716914   6.149   1.645   5.961
  153SAPE   H7R16915   6.173   1.637   6.069
  153SAPE   H7S16916   6.039   1.652   5.944
  153SAPE   C2816917   6.217   1.764   5.900
  153SAPE   H8R16918   6.317   1.773   5.944
  153SAPE   C2916919   6.156   1.847   5.815
  153SAPE   H9R16920   6.209   1.924   5.757
  153SAPE  C21016921   6.016   1.838   5.757
  153SAPE  H10R16922   5.995   1.944   5.728
  153SAPE  H10S16923   5.947   1.806   5.837
  153SAPE  C21116924   6.008   1.741   5.648
  153SAPE  H11R16925   6.000   1.633   5.670
  153SAPE  C21216926   5.999   1.770   5.517
  153SAPE  H12R16927   5.987   1.693   5.439
  153SAPE  C21316928   5.977   1.913   5.463
  153SAPE  H13R16929   5.953   1.990   5.539
  153SAPE  H13S16930   5.886   1.905   5.401
  153SAPE  C21416931   6.104   1.968   5.395
  153SAPE  H14R16932   6.170   2.018   5.468
  153SAPE  C21516933   6.120   1.979   5.261
  153SAPE  H15R16934   6.220   2.017   5.236
  153SAPE  C21616935   6.044   1.934   5.147
  153SAPE  H16R16936   5.942   1.900   5.177
  153SAPE  H16S16937   6.092   1.851   5.092
  153SAPE  C21716938   6.013   2.043   5.043
  153SAPE  H17R16939   5.991   2.134   5.102
  153SAPE  H17S16940   5.932   2.009   4.975
  153SAPE  C21816941   6.138   2.068   4.954
  153SAPE  H18R16942   6.182   1.971   4.923
  153SAPE  H18S16943   6.207   2.125   5.020
  153SAPE  C21916944   6.102   2.156   4.831
  153SAPE  H19R16945   6.186   2.227   4.811
  153SAPE  H19S16946   6.003   2.206   4.841
  153SAPE  C22016947   6.083   2.075   4.698
  153SAPE  H20R16948   6.178   2.028   4.666
  153SAPE  H20S16949   6.046   2.147   4.622
  153SAPE  H20T16950   5.999   2.004   4.713
  153SAPE   C3316951   6.519   0.571   6.235
  153SAPE   H3X16952   6.593   0.538   6.310
  153SAPE   H3Y16953   6.564   0.539   6.138
  153SAPE   C3416954   6.382   0.490   6.237
  153SAPE   H4X16955   6.349   0.483   6.343
  153SAPE   H4Y16956   6.396   0.386   6.199
  153SAPE   C3516957   6.266   0.547   6.155
  153SAPE   H5X16958   6.311   0.573   6.057
  153SAPE   H5Y16959   6.237   0.647   6.194
  153SAPE   C3616960   6.148   0.444   6.143
  153SAPE   H6X16961   6.089   0.452   6.236
  153SAPE   H6Y16962   6.193   0.342   6.138
  153SAPE   C3716963   6.057   0.466   6.021
  153SAPE   H7X16964   6.004   0.563   6.035
  153SAPE   H7Y16965   5.981   0.385   6.018
  153SAPE   C3816966   6.118   0.462   5.880
  153SAPE   H8X16967   6.159   0.363   5.851
  153SAPE   H8Y16968   6.199   0.537   5.890
  153SAPE   C3916969   6.027   0.517   5.766
  153SAPE   H9X16970   5.968   0.598   5.815
  153SAPE   H9Y16971   5.960   0.436   5.729
  153SAPE  C31016972   6.118   0.576   5.653
  153SAPE  H10X16973   6.180   0.493   5.612
  153SAPE  H10Y16974   6.187   0.649   5.700
  153SAPE  C31116975   6.038   0.629   5.535
  153SAPE  H11X16976   5.989   0.722   5.573
  153SAPE  H11Y16977   5.956   0.562   5.502
  153SAPE  C31216978   6.131   0.667   5.425
  153SAPE  H12X16979   6.162   0.570   5.383
  153SAPE  H12Y16980   6.221   0.716   5.469
  153SAPE  C31316981   6.075   0.757   5.308
  153SAPE  H13X16982   6.023   0.841   5.358
  153SAPE  H13Y16983   5.997   0.700   5.252
  153SAPE  C31416984   6.184   0.798   5.206
  153SAPE  H14X16985   6.256   0.859   5.264
  153SAPE  H14Y16986   6.144   0.868   5.129
  153SAPE  C31516987   6.246   0.674   5.142
  153SAPE  H15X16988   6.164   0.606   5.113
  153SAPE  H15Y16989   6.298   0.615   5.220
  153SAPE  C31616990   6.344   0.713   5.041
  153SAPE  H16X16991   6.423   0.775   5.089
  153SAPE  H16Y16992   6.303   0.781   4.963
  153SAPE  C31716993   6.407   0.595   4.965
  153SAPE  H17X16994   6.427   0.505   5.027
  153SAPE  H17Y16995   6.508   0.629   4.933
  153SAPE  C31816996   6.326   0.560   4.846
  153SAPE  H18X16997   6.332   0.642   4.772
  153SAPE  H18Y16998   6.222   0.532   4.872
  153SAPE  H18Z16999   6.379   0.474   4.800
  154SAPE     N17000   3.944   0.907   6.087
  154SAPE   HN117001   4.028   0.960   6.118
  154SAPE   HN217002   3.931   0.821   6.144
  154SAPE   HN317003   3.978   0.880   5.992
  154SAPE   C1217004   3.821   1.001   6.090
  154SAPE  H12A17005   3.854   1.097   6.045
  154SAPE  H12B17006   3.798   1.016   6.198
  154SAPE   C1117007   3.704   0.943   6.010
  154SAPE  H11A17008   3.730   0.948   5.902
  154SAPE  H11B17009   3.616   1.006   6.037
  154SAPE     P17010   3.539   0.768   6.127
  154SAPE   O1317011   3.534   0.622   6.115
  154SAPE   O1417012   3.544   0.820   6.266
  154SAPE   O1217013   3.673   0.810   6.052
  154SAPE   O1117014   3.410   0.834   6.057
  154SAPE    C117015   3.375   0.788   5.925
  154SAPE    HA17016   3.459   0.808   5.857
  154SAPE    HB17017   3.359   0.678   5.921
  154SAPE    C217018   3.243   0.851   5.874
  154SAPE    HS17019   3.154   0.821   5.934
  154SAPE   O2117020   3.226   0.804   5.732
  154SAPE   C2117021   3.103   0.806   5.698
  154SAPE   O2217022   3.005   0.827   5.766
  154SAPE   C2217023   3.100   0.758   5.553
  154SAPE   H2R17024   3.083   0.849   5.492
  154SAPE   H2S17025   3.197   0.710   5.529
  154SAPE    C317026   3.252   1.005   5.880
  154SAPE    HX17027   3.280   1.032   5.984
  154SAPE    HY17028   3.152   1.048   5.857
  154SAPE   O3117029   3.359   1.052   5.801
  154SAPE   C3117030   3.362   1.192   5.795
  154SAPE   O3217031   3.277   1.257   5.852
  154SAPE   C3217032   3.456   1.229   5.680
  154SAPE   H2X17033   3.490   1.134   5.634
  154SAPE   H2Y17034   3.551   1.273   5.716
  154SAPE   C2317035   2.992   0.652   5.518
  154SAPE   H3R17036   2.970   0.647   5.409
  154SAPE   H3S17037   2.891   0.669   5.562
  154SAPE   C2417038   3.043   0.509   5.549
  154SAPE   H4R17039   3.145   0.495   5.506
  154SAPE   H4S17040   2.990   0.428   5.494
  154SAPE   C2517041   3.049   0.479   5.693
  154SAPE   H5R17042   2.954   0.499   5.745
  154SAPE   C2617043   3.162   0.449   5.760
  154SAPE   H6R17044   3.155   0.415   5.865
  154SAPE   C2717045   3.297   0.429   5.691
  154SAPE   H7R17046   3.329   0.533   5.665
  154SAPE   H7S17047   3.298   0.370   5.598
  154SAPE   C2817048   3.406   0.372   5.780
  154SAPE   H8R17049   3.412   0.407   5.885
  154SAPE   C2917050   3.513   0.299   5.739
  154SAPE   H9R17051   3.579   0.272   5.823
  154SAPE  C21017052   3.539   0.232   5.606
  154SAPE  H10R17053   3.647   0.207   5.601
  154SAPE  H10S17054   3.510   0.310   5.532
  154SAPE  C21117055   3.435   0.119   5.596
  154SAPE  H11R17056   3.350   0.130   5.666
  154SAPE  C21217057   3.460   0.003   5.534
  154SAPE  H12R17058   3.397   6.799   5.559
  154SAPE  C21317059   3.575   6.842   5.442
  154SAPE  H13R17060   3.553   6.742   5.400
  154SAPE  H13S17061   3.675   6.849   5.491
  154SAPE  C21417062   3.585   0.038   5.315
  154SAPE  H14R17063   3.486   0.033   5.268
  154SAPE  C21517064   3.683   0.108   5.256
  154SAPE  H15R17065   3.666   0.179   5.173
  154SAPE  C21617066   3.824   0.102   5.304
  154SAPE  H16R17067   3.860   6.883   5.328
  154SAPE  H16S17068   3.830   0.157   5.401
  154SAPE  C21717069   3.924   0.154   5.207
  154SAPE  H17R17070   3.999   0.182   5.283
  154SAPE  H17S17071   3.872   0.236   5.152
  154SAPE  C21817072   3.982   0.045   5.113
  154SAPE  H18R17073   3.894   6.868   5.080
  154SAPE  H18S17074   4.062   6.876   5.170
  154SAPE  C21917075   4.047   0.104   4.988
  154SAPE  H19R17076   4.097   0.030   4.921
  154SAPE  H19S17077   4.124   0.183   5.000
  154SAPE  C22017078   3.944   0.169   4.893
  154SAPE  H20R17079   3.875   0.089   4.857
  154SAPE  H20S17080   3.994   0.222   4.809
  154SAPE  H20T17081   3.888   0.242   4.954
  154SAPE   C3317082   3.382   1.315   5.573
  154SAPE   H3X17083   3.326   1.394   5.628
  154SAPE   H3Y17084   3.312   1.247   5.520
  154SAPE   C3417085   3.467   1.380   5.463
  154SAPE   H4X17086   3.504   1.294   5.403
  154SAPE   H4Y17087   3.553   1.428   5.516
  154SAPE   C3517088   3.394   1.477   5.369
  154SAPE   H5X17089   3.469   1.527   5.304
  154SAPE   H5Y17090   3.333   1.546   5.432
  154SAPE   C3617091   3.298   1.410   5.270
  154SAPE   H6X17092   3.208   1.370   5.321
  154SAPE   H6Y17093   3.359   1.321   5.242
  154SAPE   C3717094   3.254   1.494   5.158
  154SAPE   H7X17095   3.343   1.540   5.108
  154SAPE   H7Y17096   3.191   1.573   5.204
  154SAPE   C3817097   3.175   1.409   5.061
  154SAPE   H8X17098   3.140   1.477   4.981
  154SAPE   H8Y17099   3.089   1.360   5.112
  154SAPE   C3917100   3.260   1.302   4.986
  154SAPE   H9X17101   3.194   1.234   4.929
  154SAPE   H9Y17102   3.307   1.239   5.065
  154SAPE  C31017103   3.377   1.359   4.889
  154SAPE  H10X17104   3.452   1.417   4.947
  154SAPE  H10Y17105   3.333   1.421   4.808
  154SAPE  C31117106   3.454   1.246   4.814
  154SAPE  H11X17107   3.515   1.288   4.731
  154SAPE  H11Y17108   3.383   1.170   4.778
  154SAPE  C31217109   3.559   1.174   4.906
  154SAPE  H12X17110   3.505   1.130   4.992
  154SAPE  H12Y17111   3.624   1.247   4.958
  154SAPE  C31317112   3.645   1.062   4.833
  154SAPE  H13X17113   3.568   0.994   4.791
  154SAPE  H13Y17114   3.702   1.004   4.910
  154SAPE  C31417115   3.746   1.110   4.727
  154SAPE  H14X17116   3.837   1.140   4.783
  154SAPE  H14Y17117   3.706   1.203   4.682
  154SAPE  C31517118   3.793   1.012   4.612
  154SAPE  H15X17119   3.826   0.926   4.675
  154SAPE  H15Y17120   3.879   1.050   4.554
  154SAPE  C31617121   3.682   0.960   4.518
  154SAPE  H16X17122   3.640   1.047   4.463
  154SAPE  H16Y17123   3.606   0.905   4.576
  154SAPE  C31717124   3.748   0.845   4.432
  154SAPE  H17X17125   3.791   0.764   4.495
  154SAPE  H17Y17126   3.830   0.880   4.365
  154SAPE  C31817127   3.652   0.762   4.343
  154SAPE  H18X17128   3.558   0.734   4.395
  154SAPE  H18Y17129   3.704   0.676   4.296
  154SAPE  H18Z17130   3.640   0.818   4.249
  155SAPE     N17131   5.343   5.610   7.101
  155SAPE   HN117132   5.316   5.618   7.201
  155SAPE   HN217133   5.282   5.545   7.049
  155SAPE   HN317134   5.440   5.573   7.109
  155SAPE   C1217135   5.345   5.742   7.034
  155SAPE  H12A17136   5.404   5.813   7.096
  155SAPE  H12B17137   5.241   5.781   7.036
  155SAPE   C1117138   5.408   5.740   6.887
  155SAPE  H11A17139   5.402   5.845   6.850
  155SAPE  H11B17140   5.337   5.682   6.825
  155SAPE     P17141   5.673   5.769   6.832
  155SAPE   O1317142   5.693   5.884   6.922
  155SAPE   O1417143   5.787   5.678   6.805
  155SAPE   O1217144   5.544   5.689   6.881
  155SAPE   O1117145   5.619   5.813   6.698
  155SAPE    C117146   5.574   5.711   6.602
  155SAPE    HA17147   5.602   5.608   6.630
  155SAPE    HB17148   5.468   5.717   6.569
  155SAPE    C217149   5.636   5.737   6.462
  155SAPE    HS17150   5.744   5.763   6.471
  155SAPE   O2117151   5.567   5.850   6.406
  155SAPE   C2117152   5.614   5.907   6.291
  155SAPE   O2217153   5.725   5.889   6.249
  155SAPE   C2217154   5.505   5.976   6.215
  155SAPE   H2R17155   5.403   5.955   6.253
  155SAPE   H2S17156   5.533   6.084   6.216
  155SAPE    C317157   5.620   5.601   6.376
  155SAPE    HX17158   5.515   5.568   6.384
  155SAPE    HY17159   5.682   5.525   6.428
  155SAPE   O3117160   5.662   5.624   6.235
  155SAPE   C3117161   5.629   5.528   6.153
  155SAPE   O3217162   5.580   5.417   6.180
  155SAPE   C3217163   5.658   5.575   6.014
  155SAPE   H2X17164   5.742   5.516   5.972
  155SAPE   H2Y17165   5.709   5.674   6.006
  155SAPE   C2317166   5.507   5.916   6.066
  155SAPE   H3R17167   5.511   5.807   6.084
  155SAPE   H3S17168   5.594   5.955   6.008
  155SAPE   C2417169   5.371   5.943   5.993
  155SAPE   H4R17170   5.292   5.908   6.063
  155SAPE   H4S17171   5.353   5.887   5.899
  155SAPE   C2517172   5.358   6.093   5.976
  155SAPE   H5R17173   5.287   6.137   6.047
  155SAPE   C2617174   5.395   6.156   5.864
  155SAPE   H6R17175   5.390   6.266   5.860
  155SAPE   C2717176   5.479   6.107   5.752
  155SAPE   H7R17177   5.412   6.047   5.686
  155SAPE   H7S17178   5.545   6.027   5.793
  155SAPE   C2817179   5.568   6.211   5.683
  155SAPE   H8R17180   5.657   6.238   5.742
  155SAPE   C2917181   5.549   6.281   5.569
  155SAPE   H9R17182   5.638   6.338   5.537
  155SAPE  C21017183   5.431   6.264   5.482
  155SAPE  H10R17184   5.345   6.235   5.545
  155SAPE  H10S17185   5.456   6.184   5.409
  155SAPE  C21117186   5.392   6.397   5.418
  155SAPE  H11R17187   5.343   6.469   5.485
  155SAPE  C21217188   5.426   6.436   5.290
  155SAPE  H12R17189   5.381   6.530   5.256
  155SAPE  C21317190   5.497   6.356   5.184
  155SAPE  H13R17191   5.549   6.269   5.228
  155SAPE  H13S17192   5.572   6.412   5.125
  155SAPE  C21417193   5.377   6.301   5.097
  155SAPE  H14R17194   5.314   6.227   5.147
  155SAPE  C21517195   5.370   6.318   4.960
  155SAPE  H15R17196   5.287   6.263   4.912
  155SAPE  C21617197   5.454   6.405   4.868
  155SAPE  H16R17198   5.532   6.449   4.933
  155SAPE  H16S17199   5.388   6.480   4.819
  155SAPE  C21717200   5.508   6.314   4.758
  155SAPE  H17R17201   5.563   6.230   4.804
  155SAPE  H17S17202   5.579   6.365   4.688
  155SAPE  C21817203   5.398   6.253   4.663
  155SAPE  H18R17204   5.323   6.322   4.619
  155SAPE  H18S17205   5.325   6.191   4.719
  155SAPE  C21917206   5.459   6.182   4.542
  155SAPE  H19R17207   5.390   6.113   4.488
  155SAPE  H19S17208   5.543   6.129   4.591
  155SAPE  C22017209   5.524   6.271   4.435
  155SAPE  H20R17210   5.462   6.356   4.398
  155SAPE  H20S17211   5.556   6.195   4.360
  155SAPE  H20T17212   5.613   6.317   4.483
  155SAPE   C3317213   5.540   5.567   5.927
  155SAPE   H3X17214   5.457   5.610   5.985
  155SAPE   H3Y17215   5.499   5.465   5.909
  155SAPE   C3417216   5.563   5.655   5.807
  155SAPE   H4X17217   5.651   5.611   5.755
  155SAPE   H4Y17218   5.570   5.759   5.844
  155SAPE   C3517219   5.434   5.659   5.721
  155SAPE   H5X17220   5.350   5.696   5.784
  155SAPE   H5Y17221   5.422   5.553   5.694
  155SAPE   C3617222   5.443   5.757   5.603
  155SAPE   H6X17223   5.519   5.710   5.537
  155SAPE   H6Y17224   5.475   5.857   5.639
  155SAPE   C3717225   5.317   5.773   5.520
  155SAPE   H7X17226   5.243   5.823   5.587
  155SAPE   H7Y17227   5.281   5.671   5.496
  155SAPE   C3817228   5.336   5.859   5.392
  155SAPE   H8X17229   5.409   5.935   5.429
  155SAPE   H8Y17230   5.235   5.901   5.378
  155SAPE   C3917231   5.383   5.794   5.260
  155SAPE   H9X17232   5.317   5.708   5.234
  155SAPE   H9Y17233   5.488   5.758   5.267
  155SAPE  C31017234   5.366   5.883   5.139
  155SAPE  H10X17235   5.390   5.989   5.162
  155SAPE  H10Y17236   5.255   5.896   5.134
  155SAPE  C31117237   5.418   5.831   5.007
  155SAPE  H11X17238   5.391   5.725   4.987
  155SAPE  H11Y17239   5.528   5.835   5.002
  155SAPE  C31217240   5.368   5.908   4.889
  155SAPE  H12X17241   5.385   6.016   4.910
  155SAPE  H12Y17242   5.258   5.896   4.876
  155SAPE  C31317243   5.443   5.881   4.751
  155SAPE  H13X17244   5.541   5.933   4.751
  155SAPE  H13Y17245   5.377   5.915   4.669
  155SAPE  C31417246   5.467   5.731   4.728
  155SAPE  H14X17247   5.368   5.681   4.721
  155SAPE  H14Y17248   5.527   5.683   4.808
  155SAPE  C31517249   5.546   5.704   4.593
  155SAPE  H15X17250   5.494   5.749   4.506
  155SAPE  H15Y17251   5.536   5.598   4.563
  155SAPE  C31617252   5.694   5.757   4.585
  155SAPE  H16X17253   5.689   5.867   4.599
  155SAPE  H16Y17254   5.728   5.741   4.480
  155SAPE  C31717255   5.780   5.685   4.686
  155SAPE  H17X17256   5.780   5.576   4.663
  155SAPE  H17Y17257   5.743   5.710   4.788
  155SAPE  C31817258   5.925   5.737   4.665
  155SAPE  H18X17259   5.999   5.680   4.724
  155SAPE  H18Y17260   5.939   5.846   4.680
  155SAPE  H18Z17261   5.949   5.733   4.557
  156SAPE     N17262   0.133   0.165   6.807
  156SAPE   HN117263   0.145   0.143   6.908
  156SAPE   HN217264   0.059   0.097   6.779
  156SAPE   HN317265   0.214   0.147   6.744
  156SAPE   C1217266   0.082   0.305   6.778
  156SAPE  H12A17267   0.158   0.381   6.806
  156SAPE  H12B17268   6.877   0.328   6.841
  156SAPE   C1117269   0.045   0.320   6.631
  156SAPE  H11A17270   0.019   0.426   6.611
  156SAPE  H11B17271   6.836   0.260   6.611
  156SAPE     P17272   0.243   0.383   6.463
  156SAPE   O1317273   0.285   0.488   6.557
  156SAPE   O1417274   0.345   0.300   6.398
  156SAPE   O1217275   0.152   0.278   6.545
  156SAPE   O1117276   0.147   0.451   6.351
  156SAPE    C117277   0.065   0.362   6.266
  156SAPE    HA17278   0.055   0.259   6.306
  156SAPE    HB17279   6.846   0.406   6.255
  156SAPE    C217280   0.124   0.359   6.125
  156SAPE    HS17281   0.230   0.330   6.143
  156SAPE   O2117282   0.107   0.486   6.063
  156SAPE   C2117283   0.196   0.521   5.973
  156SAPE   O2217284   0.290   0.449   5.946
  156SAPE   C2217285   0.166   0.656   5.905
  156SAPE   H2R17286   0.119   0.717   5.985
  156SAPE   H2S17287   0.269   0.689   5.878
  156SAPE    C317288   0.048   0.250   6.041
  156SAPE    HX17289   6.828   0.293   6.035
  156SAPE    HY17290   0.041   0.156   6.098
  156SAPE   O3117291   0.089   0.231   5.907
  156SAPE   C3117292   0.043   0.125   5.850
  156SAPE   O3217293   6.856   0.037   5.905
  156SAPE   C3217294   0.065   0.129   5.692
  156SAPE   H2X17295   0.172   0.156   5.678
  156SAPE   H2Y17296   0.000   0.215   5.663
  156SAPE   C2317297   0.083   0.647   5.769
  156SAPE   H3R17298   0.158   0.689   5.698
  156SAPE   H3S17299   0.006   0.726   5.753
  156SAPE   C2417300   0.046   0.504   5.725
  156SAPE   H4R17301   6.852   0.481   5.802
  156SAPE   H4S17302   0.128   0.432   5.740
  156SAPE   C2517303   6.866   0.501   5.591
  156SAPE   H5R17304   6.759   0.527   5.591
  156SAPE   C2617305   0.042   0.470   5.474
  156SAPE   H6R17306   6.853   0.467   5.391
  156SAPE   C2717307   0.180   0.413   5.441
  156SAPE   H7R17308   0.167   0.325   5.374
  156SAPE   H7S17309   0.231   0.388   5.537
  156SAPE   C2817310   0.257   0.518   5.373
  156SAPE   H8R17311   0.261   0.616   5.423
  156SAPE   C2917312   0.305   0.514   5.243
  156SAPE   H9R17313   0.357   0.606   5.213
  156SAPE  C21017314   0.296   0.401   5.144
  156SAPE  H10R17315   0.330   0.311   5.200
  156SAPE  H10S17316   0.371   0.428   5.067
  156SAPE  C21117317   0.157   0.379   5.087
  156SAPE  H11R17318   0.119   0.279   5.115
  156SAPE  C21217319   0.087   0.471   5.014
  156SAPE  H12R17320   6.871   0.443   4.976
  156SAPE  C21317321   0.143   0.606   4.981
  156SAPE  H13R17322   0.125   0.624   4.873
  156SAPE  H13S17323   0.252   0.602   4.999
  156SAPE  C21417324   0.090   0.714   5.065
  156SAPE  H14R17325   0.132   0.736   5.164
  156SAPE  C21517326   6.863   0.792   5.035
  156SAPE  H15R17327   6.819   0.864   5.107
  156SAPE  C21617328   6.770   0.777   4.920
  156SAPE  H16R17329   6.664   0.788   4.951
  156SAPE  H16S17330   6.767   0.675   4.877
  156SAPE  C21717331   6.816   0.867   4.804
  156SAPE  H17R17332   0.038   0.839   4.779
  156SAPE  H17S17333   6.833   0.974   4.831
  156SAPE  C21817334   6.715   0.868   4.688
  156SAPE  H18R17335   6.635   0.934   4.729
  156SAPE  H18S17336   6.672   0.768   4.667
  156SAPE  C21917337   6.775   0.921   4.551
  156SAPE  H19R17338   6.806   1.026   4.568
  156SAPE  H19S17339   6.691   0.927   4.478
  156SAPE  C22017340   0.023   0.850   4.511
  156SAPE  H20R17341   6.878   0.743   4.497
  156SAPE  H20S17342   0.105   0.878   4.580
  156SAPE  H20T17343   0.047   0.880   4.407
  156SAPE   C3317344   0.022   0.000   5.616
  156SAPE   H3X17345   6.821   6.842   5.677
  156SAPE   H3Y17346   0.105   6.810   5.618
  156SAPE   C3417347   6.849   0.039   5.478
  156SAPE   H4X17348   0.042   0.103   5.428
  156SAPE   H4Y17349   6.757   0.100   5.494
  156SAPE   C3517350   6.831   6.804   5.383
  156SAPE   H5X17351   6.777   6.730   5.446
  156SAPE   H5Y17352   0.048   6.760   5.366
  156SAPE   C3617353   6.751   6.839   5.255
  156SAPE   H6X17354   6.656   0.007   5.281
  156SAPE   H6Y17355   6.721   6.749   5.198
  156SAPE   C3717356   6.834   0.035   5.156
  156SAPE   H7X17357   0.048   6.866   5.138
  156SAPE   H7Y17358   6.876   0.124   5.209
  156SAPE   C3817359   6.755   0.078   5.027
  156SAPE   H8X17360   6.816   0.159   4.981
  156SAPE   H8Y17361   6.657   0.127   5.044
  156SAPE   C3917362   6.741   6.839   4.933
  156SAPE   H9X17363   6.675   6.763   4.980
  156SAPE   H9Y17364   6.843   6.795   4.924
  156SAPE  C31017365   6.666   6.868   4.799
  156SAPE  H10X17366   6.597   0.070   4.815
  156SAPE  H10Y17367   6.600   6.781   4.778
  156SAPE  C31117368   6.758   0.007   4.670
  156SAPE  H11X17369   6.821   6.798   4.670
  156SAPE  H11Y17370   6.818   0.100   4.678
  156SAPE  C31217371   6.671   0.021   4.543
  156SAPE  H12X17372   6.598   0.104   4.554
  156SAPE  H12Y17373   6.616   6.811   4.517
  156SAPE  C31317374   6.756   0.071   4.424
  156SAPE  H13X17375   6.826   0.154   4.446
  156SAPE  H13Y17376   6.699   0.093   4.331
  156SAPE  C31417377   6.855   6.839   4.387
  156SAPE  H14X17378   6.799   6.749   4.353
  156SAPE  H14Y17379   0.029   6.795   4.472
  156SAPE  C31517380   0.086   0.008   4.294
  156SAPE  H15X17381   0.152   0.084   4.341
  156SAPE  H15Y17382   0.044   0.050   4.200
  156SAPE  C31617383   0.178   6.785   4.236
  156SAPE  H16X17384   0.118   6.715   4.174
  156SAPE  H16Y17385   0.219   6.717   4.314
  156SAPE  C31717386   0.296   6.834   4.155
  156SAPE  H17X17387   0.269   0.018   4.071
  156SAPE  H17Y17388   0.335   6.740   4.110
  156SAPE  C31817389   0.406   0.009   4.249
  156SAPE  H18X17390   0.374   0.096   4.310
  156SAPE  H18Y17391   0.506   0.020   4.203
  156SAPE  H18Z17392   0.428   6.809   4.319
  157SAPE     N17393   0.004   6.330   6.759
  157SAPE   HN117394   6.799   6.275   6.765
  157SAPE   HN217395   0.024   6.351   6.659
  157SAPE   HN317396   0.077   6.262   6.788
  157SAPE   C1217397   0.007   6.460   6.839
  157SAPE  H12A17398   6.876   6.437   6.947
  157SAPE  H12B17399   6.806   6.527   6.809
  157SAPE   C1117400   0.134   6.532   6.810
  157SAPE  H11A17401   0.220   6.463   6.819
  157SAPE  H11B17402   0.146   6.613   6.886
  157SAPE     P17403   0.260   6.617   6.595
  157SAPE   O1317404   0.247   6.758   6.551
  157SAPE   O1417405   0.378   6.583   6.676
  157SAPE   O1217406   0.128   6.583   6.677
  157SAPE   O1117407   0.249   6.523   6.472
  157SAPE    C117408   0.278   6.575   6.336
  157SAPE    HA17409   0.308   6.682   6.326
  157SAPE    HB17410   0.353   6.510   6.287
  157SAPE    C217411   0.144   6.584   6.246
  157SAPE    HS17412   0.074   6.639   6.312
  157SAPE   O2117413   0.105   6.448   6.228
  157SAPE   C2117414   6.855   6.435   6.195
  157SAPE   O2217415   6.783   6.532   6.173
  157SAPE   C2217416   6.806   6.293   6.169
  157SAPE   H2R17417   6.842   6.226   6.250
  157SAPE   H2S17418   6.696   6.276   6.172
  157SAPE    C317419   0.159   6.667   6.114
  157SAPE    HX17420   0.169   6.773   6.147
  157SAPE    HY17421   0.063   6.654   6.059
  157SAPE   O3117422   0.272   6.615   6.042
  157SAPE   C3117423   0.307   6.694   5.942
  157SAPE   O3217424   0.268   6.808   5.920
  157SAPE   C3217425   0.416   6.615   5.859
  157SAPE   H2X17426   0.364   6.532   5.806
  157SAPE   H2Y17427   0.489   6.567   5.928
  157SAPE   C2317428   6.857   6.245   6.032
  157SAPE   H3R17429   6.880   6.137   6.038
  157SAPE   H3S17430   0.079   6.283   6.021
  157SAPE   C2417431   6.781   6.280   5.905
  157SAPE   H4R17432   6.683   6.230   5.891
  157SAPE   H4S17433   6.847   6.233   5.829
  157SAPE   C2517434   6.769   6.428   5.865
  157SAPE   H5R17435   6.713   6.482   5.943
  157SAPE   C2617436   6.806   6.484   5.751
  157SAPE   H6R17437   6.807   6.594   5.745
  157SAPE   C2717438   6.878   6.414   5.639
  157SAPE   H7R17439   0.062   6.347   5.697
  157SAPE   H7S17440   0.058   6.481   5.577
  157SAPE   C2817441   6.809   6.315   5.551
  157SAPE   H8R17442   6.774   6.228   5.609
  157SAPE   C2917443   6.822   6.312   5.417
  157SAPE   H9R17444   6.764   6.233   5.368
  157SAPE  C21017445   0.000   6.414   5.321
  157SAPE  H10R17446   0.111   6.408   5.329
  157SAPE  H10S17447   6.858   6.518   5.351
  157SAPE  C21117448   6.825   6.392   5.178
  157SAPE  H11R17449   6.715   6.394   5.166
  157SAPE  C21217450   0.015   6.357   5.067
  157SAPE  H12R17451   6.841   6.348   4.973
  157SAPE  C21317452   0.164   6.319   5.069
  157SAPE  H13R17453   0.175   6.209   5.080
  157SAPE  H13S17454   0.213   6.372   5.153
  157SAPE  C21417455   0.240   6.383   4.955
  157SAPE  H14R17456   0.218   6.490   4.943
  157SAPE  C21517457   0.336   6.336   4.875
  157SAPE  H15R17458   0.392   6.407   4.812
  157SAPE  C21617459   0.385   6.193   4.873
  157SAPE  H16R17460   0.324   6.130   4.940
  157SAPE  H16S17461   0.483   6.184   4.924
  157SAPE  C21717462   0.390   6.131   4.733
  157SAPE  H17R17463   0.477   6.174   4.679
  157SAPE  H17S17464   0.290   6.148   4.685
  157SAPE  C21817465   0.419   5.979   4.733
  157SAPE  H18R17466   0.391   5.934   4.635
  157SAPE  H18S17467   0.358   5.923   4.806
  157SAPE  C21917468   0.562   5.942   4.762
  157SAPE  H19R17469   0.570   5.913   4.869
  157SAPE  H19S17470   0.637   6.022   4.744
  157SAPE  C22017471   0.598   5.814   4.679
  157SAPE  H20R17472   0.534   5.725   4.698
  157SAPE  H20S17473   0.705   5.787   4.698
  157SAPE  H20T17474   0.587   5.839   4.572
  157SAPE   C3317475   0.484   6.715   5.762
  157SAPE   H3X17476   0.588   6.680   5.742
  157SAPE   H3Y17477   0.501   6.814   5.810
  157SAPE   C3417478   0.410   6.733   5.629
  157SAPE   H4X17479   0.447   6.829   5.588
  157SAPE   H4Y17480   0.303   6.744   5.655
  157SAPE   C3517481   0.448   6.624   5.540
  157SAPE   H5X17482   0.456   6.533   5.603
  157SAPE   H5Y17483   0.549   6.642   5.498
  157SAPE   C3617484   0.348   6.605   5.429
  157SAPE   H6X17485   0.242   6.595   5.460
  157SAPE   H6Y17486   0.355   6.506   5.378
  157SAPE   C3717487   0.368   6.723   5.336
  157SAPE   H7X17488   0.479   6.736   5.329
  157SAPE   H7Y17489   0.321   6.817   5.371
  157SAPE   C3817490   0.314   6.694   5.200
  157SAPE   H8X17491   0.204   6.683   5.201
  157SAPE   H8Y17492   0.351   6.601   5.152
  157SAPE   C3917493   0.346   6.813   5.109
  157SAPE   H9X17494   0.453   6.834   5.086
  157SAPE   H9Y17495   0.302   0.022   5.154
  157SAPE  C31017496   0.285   6.796   4.970
  157SAPE  H10X17497   0.174   6.786   4.971
  157SAPE  H10Y17498   0.315   6.700   4.924
  157SAPE  C31117499   0.331   0.029   4.882
  157SAPE  H11X17500   0.442   0.030   4.867
  157SAPE  H11Y17501   0.308   0.129   4.922
  157SAPE  C31217502   0.277   0.029   4.737
  157SAPE  H12X17503   0.167   0.035   4.741
  157SAPE  H12Y17504   0.293   6.808   4.700
  157SAPE  C31317505   0.348   0.129   4.645
  157SAPE  H13X17506   0.312   0.095   4.545
  157SAPE  H13Y17507   0.459   0.126   4.643
  157SAPE  C31417508   0.306   0.272   4.664
  157SAPE  H14X17509   0.341   0.292   4.768
  157SAPE  H14Y17510   0.196   0.285   4.655
  157SAPE  C31517511   0.374   0.354   4.560
  157SAPE  H15X17512   0.375   0.293   4.467
  157SAPE  H15Y17513   0.474   0.378   4.602
  157SAPE  C31617514   0.311   0.493   4.538
  157SAPE  H16X17515   0.283   0.543   4.633
  157SAPE  H16Y17516   0.214   0.491   4.483
  157SAPE  C31717517   0.408   0.593   4.484
  157SAPE  H17X17518   0.506   0.569   4.530
  157SAPE  H17Y17519   0.391   0.695   4.523
  157SAPE  C31817520   0.416   0.610   4.332
  157SAPE  H18X17521   0.511   0.653   4.293
  157SAPE  H18Y17522   0.326   0.667   4.299
  157SAPE  H18Z17523   0.417   0.511   4.282
  158SAPE     N17524   2.690   5.499   7.081
  158SAPE   HN117525   2.740   5.408   7.079
  158SAPE   HN217526   2.739   5.577   7.129
  158SAPE   HN317527   2.601   5.488   7.133
  158SAPE   C1217528   2.677   5.554   6.942
  158SAPE  H12A17529   2.666   5.468   6.873
  158SAPE  H12B17530   2.763   5.618   6.913
  158SAPE   C1117531   2.543   5.629   6.926
  158SAPE  H11A17532   2.531   5.673   6.824
  158SAPE  H11B17533   2.543   5.721   6.988
  158SAPE     P17534   2.356   5.444   6.889
  158SAPE   O1317535   2.360   5.314   6.960
  158SAPE   O1417536   2.222   5.509   6.881
  158SAPE   O1217537   2.445   5.543   6.969
  158SAPE   O1117538   2.435   5.433   6.751
  158SAPE    C117539   2.428   5.323   6.665
  158SAPE    HA17540   2.406   5.226   6.714
  158SAPE    HB17541   2.342   5.346   6.600
  158SAPE    C217542   2.551   5.325   6.566
  158SAPE    HS17543   2.647   5.342   6.620
  158SAPE   O2117544   2.526   5.417   6.456
  158SAPE   C2117545   2.632   5.502   6.430
  158SAPE   O2217546   2.741   5.495   6.480
  158SAPE   C2217547   2.586   5.605   6.326
  158SAPE   H2R17548   2.644   5.602   6.231
  158SAPE   H2S17549   2.479   5.580   6.310
  158SAPE    C317550   2.571   5.186   6.501
  158SAPE    HX17551   2.476   5.167   6.446
  158SAPE    HY17552   2.571   5.091   6.559
  158SAPE   O3117553   2.686   5.185   6.415
  158SAPE   C3117554   2.797   5.130   6.467
  158SAPE   O3217555   2.802   5.080   6.580
  158SAPE   C3217556   2.912   5.139   6.366
  158SAPE   H2X17557   2.965   5.234   6.391
  158SAPE   H2Y17558   2.875   5.142   6.262
  158SAPE   C2317559   2.608   5.744   6.385
  158SAPE   H3R17560   2.678   5.754   6.471
  158SAPE   H3S17561   2.509   5.779   6.424
  158SAPE   C2417562   2.651   5.843   6.280
  158SAPE   H4R17563   2.745   5.802   6.238
  158SAPE   H4S17564   2.672   5.940   6.329
  158SAPE   C2517565   2.540   5.860   6.178
  158SAPE   H5R17566   2.447   5.902   6.220
  158SAPE   C2617567   2.559   5.862   6.042
  158SAPE   H6R17568   2.472   5.898   5.984
  158SAPE   C2717569   2.683   5.833   5.965
  158SAPE   H7R17570   2.757   5.784   6.033
  158SAPE   H7S17571   2.722   5.929   5.926
  158SAPE   C2817572   2.657   5.742   5.848
  158SAPE   H8R17573   2.640   5.636   5.876
  158SAPE   C2917574   2.658   5.771   5.717
  158SAPE   H9R17575   2.629   5.691   5.648
  158SAPE  C21017576   2.689   5.899   5.643
  158SAPE  H10R17577   2.716   5.862   5.542
  158SAPE  H10S17578   2.781   5.952   5.678
  158SAPE  C21117579   2.560   5.983   5.636
  158SAPE  H11R17580   2.519   6.004   5.736
  158SAPE  C21217581   2.507   6.030   5.522
  158SAPE  H12R17582   2.406   6.070   5.534
  158SAPE  C21317583   2.547   6.005   5.379
  158SAPE  H13R17584   2.523   5.900   5.354
  158SAPE  H13S17585   2.653   6.029   5.357
  158SAPE  C21417586   2.467   6.099   5.287
  158SAPE  H14R17587   2.409   6.182   5.330
  158SAPE  C21517588   2.452   6.092   5.159
  158SAPE  H15R17589   2.385   6.158   5.103
  158SAPE  C21617590   2.510   5.986   5.066
  158SAPE  H16R17591   2.425   5.942   5.011
  158SAPE  H16S17592   2.551   5.896   5.116
  158SAPE  C21717593   2.599   6.056   4.964
  158SAPE  H17R17594   2.698   6.085   5.006
  158SAPE  H17S17595   2.549   6.146   4.922
  158SAPE  C21817596   2.632   5.959   4.850
  158SAPE  H18R17597   2.535   5.927   4.805
  158SAPE  H18S17598   2.693   5.877   4.893
  158SAPE  C21917599   2.724   6.035   4.748
  158SAPE  H19R17600   2.723   6.142   4.777
  158SAPE  H19S17601   2.677   6.011   4.651
  158SAPE  C22017602   2.876   5.996   4.760
  158SAPE  H20R17603   2.882   5.888   4.738
  158SAPE  H20S17604   2.914   6.009   4.864
  158SAPE  H20T17605   2.945   6.051   4.693
  158SAPE   C3317606   3.011   5.020   6.381
  158SAPE   H3X17607   2.962   4.930   6.336
  158SAPE   H3Y17608   3.046   4.997   6.484
  158SAPE   C3417609   3.134   5.050   6.288
  158SAPE   H4X17610   3.190   5.135   6.334
  158SAPE   H4Y17611   3.094   5.075   6.188
  158SAPE   C3517612   3.207   4.920   6.288
  158SAPE   H5X17613   3.148   4.830   6.259
  158SAPE   H5Y17614   3.246   4.904   6.391
  158SAPE   C3617615   3.327   4.916   6.189
  158SAPE   H6X17616   3.316   4.875   6.086
  158SAPE   H6Y17617   3.406   4.854   6.237
  158SAPE   C3717618   3.397   5.057   6.170
  158SAPE   H7X17619   3.425   5.086   6.274
  158SAPE   H7Y17620   3.342   5.146   6.133
  158SAPE   C3817621   3.525   5.051   6.079
  158SAPE   H8X17622   3.607   4.986   6.118
  158SAPE   H8Y17623   3.581   5.147   6.076
  158SAPE   C3917624   3.482   4.995   5.943
  158SAPE   H9X17625   3.381   5.036   5.925
  158SAPE   H9Y17626   3.474   4.886   5.964
  158SAPE  C31017627   3.566   5.032   5.815
  158SAPE  H10X17628   3.668   4.995   5.839
  158SAPE  H10Y17629   3.566   5.143   5.814
  158SAPE  C31117630   3.511   4.985   5.682
  158SAPE  H11X17631   3.400   4.985   5.680
  158SAPE  H11Y17632   3.531   4.879   5.655
  158SAPE  C31217633   3.574   5.075   5.572
  158SAPE  H12X17634   3.683   5.069   5.593
  158SAPE  H12Y17635   3.539   5.179   5.586
  158SAPE  C31317636   3.539   5.028   5.429
  158SAPE  H13X17637   3.429   5.025   5.417
  158SAPE  H13Y17638   3.560   4.921   5.408
  158SAPE  C31417639   3.597   5.115   5.318
  158SAPE  H14X17640   3.707   5.120   5.334
  158SAPE  H14Y17641   3.572   5.223   5.324
  158SAPE  C31517642   3.565   5.053   5.179
  158SAPE  H15X17643   3.458   5.025   5.170
  158SAPE  H15Y17644   3.636   4.968   5.169
  158SAPE  C31617645   3.579   5.163   5.073
  158SAPE  H16X17646   3.649   5.242   5.109
  158SAPE  H16Y17647   3.484   5.220   5.067
  158SAPE  C31717648   3.584   5.109   4.933
  158SAPE  H17X17649   3.551   5.184   4.859
  158SAPE  H17Y17650   3.522   5.018   4.922
  158SAPE  C31817651   3.730   5.070   4.898
  158SAPE  H18X17652   3.791   5.162   4.907
  158SAPE  H18Y17653   3.736   5.028   4.795
  158SAPE  H18Z17654   3.767   5.005   4.981
  159SAPE     N17655   5.903   2.684   1.937
  159SAPE   HN117656   5.970   2.642   1.870
  159SAPE   HN217657   5.809   2.709   1.899
  159SAPE   HN317658   5.942   2.769   1.982
  159SAPE   C1217659   5.866   2.590   2.045
  159SAPE  H12A17660   5.955   2.551   2.098
  159SAPE  H12B17661   5.814   2.504   1.998
  159SAPE   C1117662   5.785   2.669   2.150
  159SAPE  H11A17663   5.838   2.755   2.196
  159SAPE  H11B17664   5.770   2.593   2.230
  159SAPE     P17665   5.563   2.806   2.158
  159SAPE   O1317666   5.540   2.911   2.059
  159SAPE   O1417667   5.437   2.732   2.194
  159SAPE   O1217668   5.663   2.700   2.090
  159SAPE   O1117669   5.631   2.864   2.280
  159SAPE    C117670   5.629   2.811   2.410
  159SAPE    HA17671   5.527   2.780   2.440
  159SAPE    HB17672   5.692   2.721   2.424
  159SAPE    C217673   5.685   2.916   2.506
  159SAPE    HS17674   5.795   2.908   2.521
  159SAPE   O2117675   5.626   2.899   2.643
  159SAPE   C2117676   5.669   2.797   2.713
  159SAPE   O2217677   5.742   2.709   2.675
  159SAPE   C2217678   5.610   2.803   2.854
  159SAPE   H2R17679   5.525   2.873   2.865
  159SAPE   H2S17680   5.572   2.701   2.874
  159SAPE    C317681   5.665   3.059   2.455
  159SAPE    HX17682   5.557   3.071   2.432
  159SAPE    HY17683   5.714   3.074   2.356
  159SAPE   O3117684   5.708   3.158   2.552
  159SAPE   C3117685   5.831   3.193   2.534
  159SAPE   O3217686   5.913   3.145   2.460
  159SAPE   C3217687   5.860   3.294   2.641
  159SAPE   H2X17688   5.788   3.285   2.726
  159SAPE   H2Y17689   5.829   3.388   2.592
  159SAPE   C2317690   5.726   2.818   2.951
  159SAPE   H3R17691   5.811   2.752   2.921
  159SAPE   H3S17692   5.688   2.787   3.050
  159SAPE   C2417693   5.783   2.960   2.976
  159SAPE   H4R17694   5.832   2.998   2.884
  159SAPE   H4S17695   5.857   2.953   3.058
  159SAPE   C2517696   5.667   3.057   3.020
  159SAPE   H5R17697   5.606   3.079   2.931
  159SAPE   C2617698   5.641   3.100   3.143
  159SAPE   H6R17699   5.547   3.156   3.159
  159SAPE   C2717700   5.718   3.075   3.273
  159SAPE   H7R17701   5.776   3.163   3.307
  159SAPE   H7S17702   5.799   3.000   3.253
  159SAPE   C2817703   5.635   3.010   3.379
  159SAPE   H8R17704   5.526   3.011   3.363
  159SAPE   C2917705   5.672   2.984   3.513
  159SAPE   H9R17706   5.600   2.930   3.577
  159SAPE  C21017707   5.811   3.002   3.568
  159SAPE  H10R17708   5.866   3.063   3.494
  159SAPE  H10S17709   5.864   2.905   3.576
  159SAPE  C21117710   5.801   3.073   3.707
  159SAPE  H11R17711   5.702   3.119   3.713
  159SAPE  C21217712   5.901   3.084   3.801
  159SAPE  H12R17713   5.891   3.142   3.893
  159SAPE  C21317714   6.037   3.025   3.786
  159SAPE  H13R17715   6.115   3.081   3.843
  159SAPE  H13S17716   6.075   3.033   3.682
  159SAPE  C21417717   6.032   2.883   3.837
  159SAPE  H14R17718   5.993   2.799   3.779
  159SAPE  C21517719   6.057   2.854   3.965
  159SAPE  H15R17720   6.058   2.751   4.003
  159SAPE  C21617721   6.098   2.958   4.070
  159SAPE  H16R17722   6.029   2.957   4.157
  159SAPE  H16S17723   6.095   3.064   4.035
  159SAPE  C21717724   6.241   2.942   4.127
  159SAPE  H17R17725   6.253   2.843   4.176
  159SAPE  H17S17726   6.252   3.023   4.202
  159SAPE  C21817727   6.351   2.970   4.020
  159SAPE  H18R17728   6.342   3.072   3.978
  159SAPE  H18S17729   6.323   2.916   3.927
  159SAPE  C21917730   6.494   2.937   4.058
  159SAPE  H19R17731   6.564   2.979   3.982
  159SAPE  H19S17732   6.515   2.828   4.052
  159SAPE  C22017733   6.530   2.980   4.206
  159SAPE  H20R17734   6.461   2.935   4.280
  159SAPE  H20S17735   6.531   3.091   4.217
  159SAPE  H20T17736   6.634   2.943   4.216
  159SAPE   C3317737   6.010   3.297   2.689
  159SAPE   H3X17738   6.039   3.404   2.700
  159SAPE   H3Y17739   6.078   3.249   2.615
  159SAPE   C3417740   6.041   3.218   2.824
  159SAPE   H4X17741   6.062   3.112   2.799
  159SAPE   H4Y17742   5.952   3.225   2.890
  159SAPE   C3517743   6.158   3.279   2.902
  159SAPE   H5X17744   6.155   3.390   2.896
  159SAPE   H5Y17745   6.253   3.263   2.847
  159SAPE   C3617746   6.162   3.242   3.049
  159SAPE   H6X17747   6.261   3.267   3.094
  159SAPE   H6Y17748   6.154   3.131   3.060
  159SAPE   C3717749   6.062   3.312   3.142
  159SAPE   H7X17750   5.962   3.267   3.122
  159SAPE   H7Y17751   6.057   3.422   3.125
  159SAPE   C3817752   6.111   3.293   3.293
  159SAPE   H8X17753   6.202   3.355   3.306
  159SAPE   H8Y17754   6.147   3.189   3.305
  159SAPE   C3917755   6.014   3.344   3.406
  159SAPE   H9X17756   5.924   3.280   3.415
  159SAPE   H9Y17757   5.980   3.446   3.378
  159SAPE  C31017758   6.086   3.368   3.540
  159SAPE  H10X17759   6.160   3.450   3.528
  159SAPE  H10Y17760   6.130   3.268   3.564
  159SAPE  C31117761   5.993   3.409   3.658
  159SAPE  H11X17762   5.919   3.328   3.674
  159SAPE  H11Y17763   5.943   3.502   3.623
  159SAPE  C31217764   6.075   3.453   3.776
  159SAPE  H12X17765   6.158   3.522   3.749
  159SAPE  H12Y17766   6.112   3.361   3.826
  159SAPE  C31317767   5.991   3.523   3.884
  159SAPE  H13X17768   5.904   3.461   3.914
  159SAPE  H13Y17769   5.947   3.621   3.854
  159SAPE  C31417770   6.070   3.553   4.011
  159SAPE  H14X17771   6.130   3.462   4.032
  159SAPE  H14Y17772   5.988   3.573   4.084
  159SAPE  C31517773   6.150   3.684   4.015
  159SAPE  H15X17774   6.087   3.775   4.003
  159SAPE  H15Y17775   6.206   3.676   3.919
  159SAPE  C31617776   6.256   3.679   4.130
  159SAPE  H16X17777   6.309   3.582   4.117
  159SAPE  H16Y17778   6.190   3.682   4.219
  159SAPE  C31717779   6.361   3.801   4.126
  159SAPE  H17X17780   6.422   3.787   4.034
  159SAPE  H17Y17781   6.416   3.788   4.222
  159SAPE  C31817782   6.293   3.943   4.122
  159SAPE  H18X17783   6.212   3.940   4.047
  159SAPE  H18Y17784   6.374   4.011   4.087
  159SAPE  H18Z17785   6.245   3.984   4.213
  160SAPE     N17786   5.076   2.186   2.185
  160SAPE   HN117787   5.080   2.280   2.230
  160SAPE   HN217788   4.973   2.169   2.181
  160SAPE   HN317789   5.119   2.114   2.246
  160SAPE   C1217790   5.134   2.195   2.044
  160SAPE  H12A17791   5.225   2.258   2.055
  160SAPE  H12B17792   5.063   2.246   1.976
  160SAPE   C1117793   5.175   2.059   1.994
  160SAPE  H11A17794   5.219   2.072   1.893
  160SAPE  H11B17795   5.080   2.001   1.988
  160SAPE     P17796   5.254   1.898   2.192
  160SAPE   O1317797   5.135   1.817   2.160
  160SAPE   O1417798   5.376   1.824   2.222
  160SAPE   O1217799   5.281   2.006   2.083
  160SAPE   O1117800   5.212   1.988   2.318
  160SAPE    C117801   5.312   2.053   2.396
  160SAPE    HA17802   5.416   2.024   2.368
  160SAPE    HB17803   5.307   2.162   2.379
  160SAPE    C217804   5.299   2.017   2.545
  160SAPE    HS17805   5.378   2.073   2.600
  160SAPE   O2117806   5.318   1.871   2.562
  160SAPE   C2117807   5.441   1.824   2.544
  160SAPE   O2217808   5.538   1.890   2.520
  160SAPE   C2217809   5.440   1.666   2.556
  160SAPE   H2R17810   5.397   1.638   2.457
  160SAPE   H2S17811   5.550   1.649   2.566
  160SAPE    C317812   5.156   2.049   2.597
  160SAPE    HX17813   5.079   2.000   2.534
  160SAPE    HY17814   5.135   2.156   2.575
  160SAPE   O3117815   5.149   2.033   2.739
  160SAPE   C3117816   5.099   1.920   2.776
  160SAPE   O3217817   5.104   1.811   2.720
  160SAPE   C3217818   5.051   1.943   2.923
  160SAPE   H2X17819   4.975   2.023   2.932
  160SAPE   H2Y17820   5.141   1.989   2.970
  160SAPE   C2317821   5.372   1.603   2.672
  160SAPE   H3R17822   5.410   1.500   2.689
  160SAPE   H3S17823   5.262   1.598   2.655
  160SAPE   C2417824   5.383   1.683   2.809
  160SAPE   H4R17825   5.329   1.626   2.887
  160SAPE   H4S17826   5.338   1.785   2.804
  160SAPE   C2517827   5.533   1.694   2.844
  160SAPE   H5R17828   5.597   1.723   2.759
  160SAPE   C2617829   5.583   1.674   2.969
  160SAPE   H6R17830   5.693   1.677   2.977
  160SAPE   C2717831   5.492   1.662   3.091
  160SAPE   H7R17832   5.389   1.699   3.076
  160SAPE   H7S17833   5.533   1.718   3.178
  160SAPE   C2817834   5.482   1.513   3.116
  160SAPE   H8R17835   5.490   1.446   3.029
  160SAPE   C2917836   5.457   1.448   3.232
  160SAPE   H9R17837   5.453   1.338   3.237
  160SAPE  C21017838   5.424   1.502   3.365
  160SAPE  H10R17839   5.315   1.487   3.378
  160SAPE  H10S17840   5.437   1.612   3.355
  160SAPE  C21117841   5.522   1.443   3.474
  160SAPE  H11R17842   5.624   1.478   3.452
  160SAPE  C21217843   5.482   1.373   3.582
  160SAPE  H12R17844   5.559   1.341   3.652
  160SAPE  C21317845   5.344   1.335   3.614
  160SAPE  H13R17846   5.266   1.394   3.561
  160SAPE  H13S17847   5.330   1.363   3.721
  160SAPE  C21417848   5.310   1.184   3.600
  160SAPE  H14R17849   5.387   1.116   3.561
  160SAPE  C21517850   5.191   1.122   3.629
  160SAPE  H15R17851   5.172   1.024   3.581
  160SAPE  C21617852   5.067   1.190   3.692
  160SAPE  H16R17853   4.973   1.156   3.644
  160SAPE  H16S17854   5.086   1.298   3.676
  160SAPE  C21717855   5.048   1.142   3.837
  160SAPE  H17R17856   5.136   1.186   3.889
  160SAPE  H17S17857   5.042   1.031   3.841
  160SAPE  C21817858   4.919   1.200   3.905
  160SAPE  H18R17859   4.831   1.180   3.840
  160SAPE  H18S17860   4.927   1.311   3.903
  160SAPE  C21917861   4.912   1.149   4.046
  160SAPE  H19R17862   4.926   1.038   4.051
  160SAPE  H19S17863   4.808   1.172   4.078
  160SAPE  C22017864   5.016   1.222   4.138
  160SAPE  H20R17865   5.014   1.160   4.230
  160SAPE  H20S17866   4.979   1.323   4.166
  160SAPE  H20T17867   5.115   1.213   4.089
  160SAPE   C3317868   5.014   1.813   2.998
  160SAPE   H3X17869   5.084   1.727   2.986
  160SAPE   H3Y17870   4.920   1.767   2.961
  160SAPE   C3417871   4.984   1.843   3.150
  160SAPE   H4X17872   4.915   1.930   3.155
  160SAPE   H4Y17873   5.085   1.873   3.186
  160SAPE   C3517874   4.925   1.733   3.231
  160SAPE   H5X17875   4.867   1.669   3.161
  160SAPE   H5Y17876   4.854   1.770   3.308
  160SAPE   C3617877   5.025   1.633   3.293
  160SAPE   H6X17878   5.079   1.699   3.364
  160SAPE   H6Y17879   5.100   1.611   3.214
  160SAPE   C3717880   4.963   1.506   3.342
  160SAPE   H7X17881   5.046   1.436   3.367
  160SAPE   H7Y17882   4.898   1.461   3.264
  160SAPE   C3817883   4.879   1.516   3.466
  160SAPE   H8X17884   4.826   1.614   3.468
  160SAPE   H8Y17885   4.950   1.511   3.552
  160SAPE   C3917886   4.774   1.398   3.477
  160SAPE   H9X17887   4.830   1.304   3.458
  160SAPE   H9Y17888   4.696   1.408   3.398
  160SAPE  C31017889   4.706   1.399   3.615
  160SAPE  H10X17890   4.667   1.504   3.618
  160SAPE  H10Y17891   4.793   1.389   3.683
  160SAPE  C31117892   4.598   1.289   3.630
  160SAPE  H11X17893   4.656   1.195   3.623
  160SAPE  H11Y17894   4.524   1.292   3.547
  160SAPE  C31217895   4.498   1.303   3.756
  160SAPE  H12X17896   4.466   1.197   3.770
  160SAPE  H12Y17897   4.417   1.362   3.708
  160SAPE  C31317898   4.561   1.356   3.884
  160SAPE  H13X17899   4.544   1.463   3.905
  160SAPE  H13Y17900   4.670   1.332   3.885
  160SAPE  C31417901   4.512   1.273   4.001
  160SAPE  H14X17902   4.580   1.282   4.088
  160SAPE  H14Y17903   4.520   1.166   3.970
  160SAPE  C31517904   4.369   1.316   4.047
  160SAPE  H15X17905   4.294   1.327   3.966
  160SAPE  H15Y17906   4.372   1.415   4.097
  160SAPE  C31617907   4.315   1.215   4.147
  160SAPE  H16X17908   4.330   1.112   4.108
  160SAPE  H16Y17909   4.205   1.224   4.155
  160SAPE  C31717910   4.377   1.226   4.286
  160SAPE  H17X17911   4.359   1.328   4.328
  160SAPE  H17Y17912   4.486   1.205   4.286
  160SAPE  C31817913   4.301   1.138   4.388
  160SAPE  H18X17914   4.256   1.043   4.351
  160SAPE  H18Y17915   4.221   1.199   4.435
  160SAPE  H18Z17916   4.373   1.102   4.464
  161SAPE     N17917   2.251   4.698   2.056
  161SAPE   HN117918   2.283   4.673   1.960
  161SAPE   HN217919   2.176   4.770   2.048
  161SAPE   HN317920   2.329   4.741   2.110
  161SAPE   C1217921   2.223   4.574   2.125
  161SAPE  H12A17922   2.158   4.508   2.064
  161SAPE  H12B17923   2.176   4.606   2.220
  161SAPE   C1117924   2.356   4.503   2.150
  161SAPE  H11A17925   2.333   4.406   2.199
  161SAPE  H11B17926   2.415   4.557   2.227
  161SAPE     P17927   2.426   4.342   1.956
  161SAPE   O1317928   2.284   4.314   1.944
  161SAPE   O1417929   2.510   4.328   1.837
  161SAPE   O1217930   2.431   4.484   2.029
  161SAPE   O1117931   2.487   4.242   2.056
  161SAPE    C117932   2.626   4.230   2.080
  161SAPE    HA17933   2.670   4.168   1.998
  161SAPE    HB17934   2.661   4.335   2.083
  161SAPE    C217935   2.654   4.165   2.217
  161SAPE    HS17936   2.757   4.188   2.251
  161SAPE   O2117937   2.622   4.026   2.215
  161SAPE   C2117938   2.705   3.942   2.155
  161SAPE   O2217939   2.795   3.970   2.077
  161SAPE   C2217940   2.662   3.808   2.212
  161SAPE   H2R17941   2.558   3.812   2.250
  161SAPE   H2S17942   2.687   3.731   2.136
  161SAPE    C317943   2.565   4.241   2.325
  161SAPE    HX17944   2.461   4.204   2.310
  161SAPE    HY17945   2.577   4.347   2.294
  161SAPE   O3117946   2.615   4.216   2.455
  161SAPE   C3117947   2.534   4.283   2.541
  161SAPE   O3217948   2.432   4.345   2.518
  161SAPE   C3217949   2.577   4.253   2.687
  161SAPE   H2X17950   2.633   4.343   2.718
  161SAPE   H2Y17951   2.641   4.162   2.682
  161SAPE   C2317952   2.758   3.770   2.332
  161SAPE   H3R17953   2.860   3.797   2.296
  161SAPE   H3S17954   2.747   3.663   2.361
  161SAPE   C2417955   2.728   3.840   2.462
  161SAPE   H4R17956   2.623   3.829   2.496
  161SAPE   H4S17957   2.743   3.949   2.442
  161SAPE   C2517958   2.832   3.786   2.559
  161SAPE   H5R17959   2.932   3.807   2.519
  161SAPE   C2617960   2.809   3.727   2.680
  161SAPE   H6R17961   2.895   3.688   2.736
  161SAPE   C2717962   2.672   3.697   2.739
  161SAPE   H7R17963   2.688   3.609   2.804
  161SAPE   H7S17964   2.600   3.675   2.657
  161SAPE   C2817965   2.612   3.803   2.820
  161SAPE   H8R17966   2.599   3.897   2.764
  161SAPE   C2917967   2.583   3.804   2.950
  161SAPE   H9R17968   2.522   3.886   2.992
  161SAPE  C21017969   2.587   3.696   3.049
  161SAPE  H10R17970   2.612   3.602   2.997
  161SAPE  H10S17971   2.485   3.686   3.090
  161SAPE  C21117972   2.698   3.726   3.152
  161SAPE  H11R17973   2.797   3.724   3.104
  161SAPE  C21217974   2.693   3.753   3.291
  161SAPE  H12R17975   2.782   3.783   3.346
  161SAPE  C21317976   2.567   3.758   3.373
  161SAPE  H13R17977   2.501   3.826   3.315
  161SAPE  H13S17978   2.594   3.809   3.468
  161SAPE  C21417979   2.506   3.622   3.393
  161SAPE  H14R17980   2.484   3.569   3.299
  161SAPE  C21517981   2.483   3.556   3.507
  161SAPE  H15R17982   2.460   3.449   3.492
  161SAPE  C21617983   2.509   3.597   3.651
  161SAPE  H16R17984   2.609   3.644   3.659
  161SAPE  H16S17985   2.500   3.512   3.722
  161SAPE  C21717986   2.398   3.691   3.713
  161SAPE  H17R17987   2.296   3.649   3.699
  161SAPE  H17S17988   2.406   3.787   3.658
  161SAPE  C21817989   2.410   3.726   3.857
  161SAPE  H18R17990   2.386   3.834   3.874
  161SAPE  H18S17991   2.517   3.715   3.882
  161SAPE  C21917992   2.322   3.641   3.952
  161SAPE  H19R17993   2.344   3.533   3.938
  161SAPE  H19S17994   2.214   3.662   3.934
  161SAPE  C22017995   2.360   3.664   4.099
  161SAPE  H20R17996   2.338   3.770   4.121
  161SAPE  H20S17997   2.468   3.646   4.118
  161SAPE  H20T17998   2.301   3.603   4.171
  161SAPE   C3317999   2.460   4.217   2.782
  161SAPE   H3X18000   2.399   4.132   2.745
  161SAPE   H3Y18001   2.398   4.310   2.785
  161SAPE   C3418002   2.510   4.180   2.925
  161SAPE   H4X18003   2.577   4.260   2.963
  161SAPE   H4Y18004   2.570   4.087   2.929
  161SAPE   C3518005   2.405   4.161   3.027
  161SAPE   H5X18006   2.342   4.072   3.004
  161SAPE   H5Y18007   2.341   4.251   3.025
  161SAPE   C3618008   2.467   4.157   3.168
  161SAPE   H6X18009   2.530   4.247   3.187
  161SAPE   H6Y18010   2.540   4.073   3.165
  161SAPE   C3718011   2.361   4.123   3.276
  161SAPE   H7X18012   2.326   4.020   3.254
  161SAPE   H7Y18013   2.267   4.182   3.265
  161SAPE   C3818014   2.436   4.121   3.413
  161SAPE   H8X18015   2.505   4.205   3.436
  161SAPE   H8Y18016   2.494   4.027   3.424
  161SAPE   C3918017   2.336   4.132   3.531
  161SAPE   H9X18018   2.266   4.053   3.498
  161SAPE   H9Y18019   2.285   4.231   3.539
  161SAPE  C31018020   2.399   4.097   3.670
  161SAPE  H10X18021   2.468   4.010   3.665
  161SAPE  H10Y18022   2.322   4.073   3.747
  161SAPE  C31118023   2.483   4.224   3.712
  161SAPE  H11X18024   2.417   4.313   3.722
  161SAPE  H11Y18025   2.550   4.245   3.627
  161SAPE  C31218026   2.560   4.210   3.844
  161SAPE  H12X18027   2.614   4.304   3.866
  161SAPE  H12Y18028   2.641   4.137   3.820
  161SAPE  C31318029   2.484   4.166   3.968
  161SAPE  H13X18030   2.494   4.056   3.970
  161SAPE  H13Y18031   2.378   4.190   3.944
  161SAPE  C31418032   2.551   4.223   4.098
  161SAPE  H14X18033   2.549   4.335   4.099
  161SAPE  H14Y18034   2.654   4.188   4.079
  161SAPE  C31518035   2.472   4.167   4.215
  161SAPE  H15X18036   2.474   4.058   4.237
  161SAPE  H15Y18037   2.367   4.203   4.208
  161SAPE  C31618038   2.528   4.223   4.351
  161SAPE  H16X18039   2.464   4.190   4.435
  161SAPE  H16Y18040   2.513   4.333   4.356
  161SAPE  C31718041   2.671   4.181   4.380
  161SAPE  H17X18042   2.703   4.085   4.333
  161SAPE  H17Y18043   2.682   4.161   4.488
  161SAPE  C31818044   2.774   4.297   4.342
  161SAPE  H18X18045   2.877   4.268   4.372
  161SAPE  H18Y18046   2.736   4.390   4.389
  161SAPE  H18Z18047   2.791   4.308   4.233
  162SAPE     N18048   2.297   0.203   2.290
  162SAPE   HN118049   2.290   0.194   2.393
  162SAPE   HN218050   2.209   0.153   2.266
  162SAPE   HN318051   2.376   0.144   2.258
  162SAPE   C1218052   2.311   0.345   2.240
  162SAPE  H12A18053   2.234   0.408   2.289
  162SAPE  H12B18054   2.307   0.352   2.129
  162SAPE   C1118055   2.452   0.408   2.279
  162SAPE  H11A18056   2.466   0.411   2.389
  162SAPE  H11B18057   2.458   0.518   2.266
  162SAPE     P18058   2.643   0.237   2.246
  162SAPE   O1318059   2.549   0.122   2.239
  162SAPE   O1418060   2.769   0.233   2.162
  162SAPE   O1218061   2.562   0.361   2.202
  162SAPE   O1118062   2.679   0.260   2.399
  162SAPE    C118063   2.809   0.263   2.459
  162SAPE    HA18064   2.897   0.249   2.393
  162SAPE    HB18065   2.821   0.361   2.511
  162SAPE    C218066   2.824   0.150   2.568
  162SAPE    HS18067   2.844   0.054   2.515
  162SAPE   O2118068   2.700   0.144   2.640
  162SAPE   C2118069   2.674   0.032   2.709
  162SAPE   O2218070   2.730   6.808   2.686
  162SAPE   C2218071   2.573   0.067   2.829
  162SAPE   H2R18072   2.520   0.160   2.798
  162SAPE   H2S18073   2.492   6.874   2.831
  162SAPE    C318074   2.940   0.180   2.670
  162SAPE    HX18075   2.907   0.274   2.717
  162SAPE    HY18076   3.033   0.199   2.614
  162SAPE   O3118077   2.960   0.076   2.766
  162SAPE   C3118078   3.014   6.859   2.716
  162SAPE   O3218079   3.064   6.852   2.604
  162SAPE   C3218080   3.023   6.753   2.816
  162SAPE   H2X18081   2.989   6.658   2.768
  162SAPE   H2Y18082   2.967   6.776   2.909
  162SAPE   C2318083   2.644   0.070   2.973
  162SAPE   H3R18084   2.711   0.159   2.971
  162SAPE   H3S18085   2.710   6.864   2.987
  162SAPE   C2418086   2.540   0.067   3.082
  162SAPE   H4R18087   2.595   0.066   3.179
  162SAPE   H4S18088   2.495   6.850   3.064
  162SAPE   C2518089   2.442   0.181   3.076
  162SAPE   H5R18090   2.488   0.277   3.048
  162SAPE   C2618091   2.305   0.175   3.099
  162SAPE   H6R18092   2.247   0.268   3.101
  162SAPE   C2718093   2.231   0.054   3.145
  162SAPE   H7R18094   2.154   0.086   3.218
  162SAPE   H7S18095   2.297   6.874   3.208
  162SAPE   C2818096   2.165   6.872   3.026
  162SAPE   H8R18097   2.073   0.043   2.996
  162SAPE   C2918098   2.199   6.750   2.970
  162SAPE   H9R18099   2.130   6.714   2.893
  162SAPE  C21018100   2.305   6.653   3.015
  162SAPE  H10R18101   2.318   6.670   3.124
  162SAPE  H10S18102   2.399   6.677   2.960
  162SAPE  C21118103   2.277   6.507   2.996
  162SAPE  H11R18104   2.313   6.470   2.899
  162SAPE  C21218105   2.198   6.438   3.077
  162SAPE  H12R18106   2.202   6.331   3.055
  162SAPE  C21318107   2.134   6.480   3.210
  162SAPE  H13R18108   2.069   6.569   3.193
  162SAPE  H13S18109   2.219   6.516   3.272
  162SAPE  C21418110   2.047   6.371   3.269
  162SAPE  H14R18111   1.977   6.325   3.197
  162SAPE  C21518112   2.065   6.310   3.385
  162SAPE  H15R18113   1.987   6.241   3.419
  162SAPE  C21618114   2.172   6.337   3.490
  162SAPE  H16R18115   2.113   6.349   3.583
  162SAPE  H16S18116   2.233   6.426   3.463
  162SAPE  C21718117   2.260   6.218   3.515
  162SAPE  H17R18118   2.352   6.252   3.566
  162SAPE  H17S18119   2.302   6.180   3.420
  162SAPE  C21818120   2.191   6.112   3.600
  162SAPE  H18R18121   2.097   6.084   3.547
  162SAPE  H18S18122   2.162   6.143   3.703
  162SAPE  C21918123   2.283   5.996   3.609
  162SAPE  H19R18124   2.364   6.032   3.677
  162SAPE  H19S18125   2.331   5.970   3.513
  162SAPE  C22018126   2.232   5.878   3.691
  162SAPE  H20R18127   2.170   5.916   3.775
  162SAPE  H20S18128   2.312   5.812   3.730
  162SAPE  H20T18129   2.163   5.819   3.627
  162SAPE   C3318130   3.171   6.728   2.857
  162SAPE   H3X18131   3.220   6.822   2.892
  162SAPE   H3Y18132   3.228   6.690   2.769
  162SAPE   C3418133   3.165   6.624   2.974
  162SAPE   H4X18134   3.105   6.534   2.949
  162SAPE   H4Y18135   3.117   6.672   3.062
  162SAPE   C3518136   3.298   6.572   3.029
  162SAPE   H5X18137   3.364   6.659   3.048
  162SAPE   H5Y18138   3.352   6.520   2.946
  162SAPE   C3618139   3.281   6.496   3.156
  162SAPE   H6X18140   3.250   6.567   3.235
  162SAPE   H6Y18141   3.375   6.447   3.189
  162SAPE   C3718142   3.174   6.385   3.148
  162SAPE   H7X18143   3.189   6.340   3.048
  162SAPE   H7Y18144   3.072   6.429   3.148
  162SAPE   C3818145   3.189   6.286   3.263
  162SAPE   H8X18146   3.296   6.274   3.289
  162SAPE   H8Y18147   3.152   6.185   3.235
  162SAPE   C3918148   3.135   6.351   3.392
  162SAPE   H9X18149   3.028   6.377   3.377
  162SAPE   H9Y18150   3.192   6.443   3.416
  162SAPE  C31018151   3.143   6.252   3.507
  162SAPE  H10X18152   3.250   6.223   3.509
  162SAPE  H10Y18153   3.086   6.161   3.476
  162SAPE  C31118154   3.110   6.317   3.640
  162SAPE  H11X18155   3.009   6.363   3.637
  162SAPE  H11Y18156   3.183   6.400   3.654
  162SAPE  C31218157   3.134   6.228   3.764
  162SAPE  H12X18158   3.229   6.176   3.741
  162SAPE  H12Y18159   3.055   6.151   3.776
  162SAPE  C31318160   3.137   6.312   3.895
  162SAPE  H13X18161   3.066   6.397   3.888
  162SAPE  H13Y18162   3.236   6.358   3.914
  162SAPE  C31418163   3.103   6.227   4.021
  162SAPE  H14X18164   2.996   6.199   4.031
  162SAPE  H14Y18165   3.116   6.301   4.103
  162SAPE  C31518166   3.187   6.103   4.043
  162SAPE  H15X18167   3.294   6.130   4.031
  162SAPE  H15Y18168   3.173   6.018   3.972
  162SAPE  C31618169   3.179   6.049   4.185
  162SAPE  H16X18170   3.170   6.135   4.254
  162SAPE  H16Y18171   3.274   6.000   4.217
  162SAPE  C31718172   3.058   5.962   4.207
  162SAPE  H17X18173   3.068   5.871   4.144
  162SAPE  H17Y18174   2.968   6.023   4.183
  162SAPE  C31818175   3.036   5.919   4.360
  162SAPE  H18X18176   3.125   5.858   4.387
  162SAPE  H18Y18177   2.948   5.855   4.378
  162SAPE  H18Z18178   3.031   6.012   4.421
  163SAPE     N18179   1.218   3.690   1.865
  163SAPE   HN118180   1.214   3.604   1.806
  163SAPE   HN218181   1.145   3.692   1.939
  163SAPE   HN318182   1.211   3.780   1.814
  163SAPE   C1218183   1.356   3.695   1.938
  163SAPE  H12A18184   1.363   3.788   1.998
  163SAPE  H12B18185   1.429   3.684   1.856
  163SAPE   C1118186   1.373   3.588   2.044
  163SAPE  H11A18187   1.306   3.583   2.133
  163SAPE  H11B18188   1.464   3.621   2.098
  163SAPE     P18189   1.526   3.389   1.965
  163SAPE   O1318190   1.498   3.255   1.910
  163SAPE   O1418191   1.610   3.489   1.898
  163SAPE   O1218192   1.380   3.454   1.987
  163SAPE   O1118193   1.591   3.376   2.107
  163SAPE    C118194   1.512   3.331   2.216
  163SAPE    HA18195   1.432   3.402   2.245
  163SAPE    HB18196   1.456   3.242   2.179
  163SAPE    C218197   1.600   3.295   2.340
  163SAPE    HS18198   1.537   3.242   2.416
  163SAPE   O2118199   1.663   3.408   2.396
  163SAPE   C2118200   1.578   3.484   2.465
  163SAPE   O2218201   1.464   3.456   2.500
  163SAPE   C2218202   1.665   3.616   2.504
  163SAPE   H2R18203   1.766   3.577   2.525
  163SAPE   H2S18204   1.666   3.688   2.419
  163SAPE    C318205   1.711   3.197   2.303
  163SAPE    HX18206   1.774   3.253   2.230
  163SAPE    HY18207   1.664   3.115   2.244
  163SAPE   O3118208   1.779   3.156   2.427
  163SAPE   C3118209   1.907   3.207   2.445
  163SAPE   O3218210   1.968   3.268   2.361
  163SAPE   C3218211   1.967   3.181   2.574
  163SAPE   H2X18212   2.068   3.135   2.582
  163SAPE   H2Y18213   1.911   3.100   2.625
  163SAPE   C2318214   1.608   3.665   2.641
  163SAPE   H3R18215   1.587   3.579   2.708
  163SAPE   H3S18216   1.517   3.724   2.615
  163SAPE   C2418217   1.716   3.755   2.712
  163SAPE   H4R18218   1.657   3.830   2.768
  163SAPE   H4S18219   1.780   3.807   2.637
  163SAPE   C2518220   1.808   3.689   2.808
  163SAPE   H5R18221   1.877   3.616   2.763
  163SAPE   C2618222   1.818   3.726   2.941
  163SAPE   H6R18223   1.893   3.664   2.992
  163SAPE   C2718224   1.744   3.835   3.014
  163SAPE   H7R18225   1.715   3.922   2.951
  163SAPE   H7S18226   1.819   3.875   3.086
  163SAPE   C2818227   1.614   3.786   3.081
  163SAPE   H8R18228   1.525   3.772   3.017
  163SAPE   C2918229   1.605   3.771   3.214
  163SAPE   H9R18230   1.510   3.722   3.242
  163SAPE  C21018231   1.697   3.813   3.326
  163SAPE  H10R18232   1.789   3.857   3.281
  163SAPE  H10S18233   1.714   3.718   3.381
  163SAPE  C21118234   1.640   3.926   3.406
  163SAPE  H11R18235   1.668   4.026   3.369
  163SAPE  C21218236   1.563   3.914   3.518
  163SAPE  H12R18237   1.545   4.005   3.577
  163SAPE  C21318238   1.512   3.782   3.579
  163SAPE  H13R18239   1.489   3.703   3.504
  163SAPE  H13S18240   1.411   3.805   3.620
  163SAPE  C21418241   1.616   3.746   3.690
  163SAPE  H14R18242   1.711   3.713   3.646
  163SAPE  C21518243   1.597   3.758   3.819
  163SAPE  H15R18244   1.673   3.723   3.890
  163SAPE  C21618245   1.472   3.807   3.890
  163SAPE  H16R18246   1.420   3.733   3.955
  163SAPE  H16S18247   1.401   3.838   3.811
  163SAPE  C21718248   1.508   3.929   3.982
  163SAPE  H17R18249   1.404   3.968   3.988
  163SAPE  H17S18250   1.566   4.011   3.936
  163SAPE  C21818251   1.584   3.890   4.113
  163SAPE  H18R18252   1.682   3.844   4.087
  163SAPE  H18S18253   1.530   3.804   4.157
  163SAPE  C21918254   1.609   4.000   4.209
  163SAPE  H19R18255   1.633   3.952   4.306
  163SAPE  H19S18256   1.510   4.043   4.234
  163SAPE  C22018257   1.721   4.099   4.171
  163SAPE  H20R18258   1.719   4.126   4.063
  163SAPE  H20S18259   1.821   4.062   4.200
  163SAPE  H20T18260   1.720   4.192   4.233
  163SAPE   C3318261   1.961   3.316   2.656
  163SAPE   H3X18262   1.882   3.384   2.616
  163SAPE   H3Y18263   2.062   3.356   2.636
  163SAPE   C3418264   1.944   3.299   2.806
  163SAPE   H4X18265   1.994   3.375   2.869
  163SAPE   H4Y18266   1.993   3.207   2.845
  163SAPE   C3518267   1.802   3.281   2.844
  163SAPE   H5X18268   1.759   3.206   2.774
  163SAPE   H5Y18269   1.748   3.376   2.821
  163SAPE   C3618270   1.787   3.243   2.985
  163SAPE   H6X18271   1.849   3.157   3.017
  163SAPE   H6Y18272   1.688   3.193   2.993
  163SAPE   C3718273   1.800   3.351   3.095
  163SAPE   H7X18274   1.723   3.430   3.077
  163SAPE   H7Y18275   1.897   3.402   3.081
  163SAPE   C3818276   1.815   3.297   3.241
  163SAPE   H8X18277   1.909   3.238   3.239
  163SAPE   H8Y18278   1.734   3.225   3.263
  163SAPE   C3918279   1.799   3.401   3.347
  163SAPE   H9X18280   1.696   3.441   3.359
  163SAPE   H9Y18281   1.866   3.489   3.340
  163SAPE  C31018282   1.833   3.347   3.491
  163SAPE  H10X18283   1.933   3.300   3.491
  163SAPE  H10Y18284   1.766   3.260   3.507
  163SAPE  C31118285   1.787   3.439   3.610
  163SAPE  H11X18286   1.681   3.468   3.591
  163SAPE  H11Y18287   1.846   3.533   3.605
  163SAPE  C31218288   1.811   3.358   3.741
  163SAPE  H12X18289   1.915   3.318   3.740
  163SAPE  H12Y18290   1.740   3.273   3.747
  163SAPE  C31318291   1.820   3.445   3.869
  163SAPE  H13X18292   1.726   3.496   3.898
  163SAPE  H13Y18293   1.895   3.523   3.844
  163SAPE  C31418294   1.869   3.359   3.988
  163SAPE  H14X18295   1.973   3.324   3.975
  163SAPE  H14Y18296   1.799   3.273   3.983
  163SAPE  C31518297   1.859   3.439   4.122
  163SAPE  H15X18298   1.904   3.365   4.192
  163SAPE  H15Y18299   1.751   3.446   4.143
  163SAPE  C31618300   1.932   3.568   4.131
  163SAPE  H16X18301   1.865   3.644   4.083
  163SAPE  H16Y18302   2.034   3.566   4.088
  163SAPE  C31718303   1.938   3.628   4.270
  163SAPE  H17X18304   2.007   3.562   4.326
  163SAPE  H17Y18305   1.834   3.624   4.311
  163SAPE  C31818306   1.985   3.776   4.284
  163SAPE  H18X18307   1.986   3.798   4.393
  163SAPE  H18Y18308   1.924   3.849   4.226
  163SAPE  H18Z18309   2.089   3.778   4.244
  164SAPE     N18310   6.416   4.126   2.477
  164SAPE   HN118311   6.326   4.075   2.470
  164SAPE   HN218312   6.436   4.178   2.389
  164SAPE   HN318313   6.487   4.049   2.478
  164SAPE   C1218314   6.419   4.206   2.603
  164SAPE  H12A18315   6.512   4.267   2.600
  164SAPE  H12B18316   6.423   4.142   2.693
  164SAPE   C1118317   6.286   4.276   2.612
  164SAPE  H11A18318   6.279   4.320   2.713
  164SAPE  H11B18319   6.195   4.213   2.599
  164SAPE     P18320   6.311   4.520   2.523
  164SAPE   O1318321   6.444   4.547   2.467
  164SAPE   O1418322   6.190   4.594   2.478
  164SAPE   O1218323   6.273   4.370   2.509
  164SAPE   O1118324   6.322   4.540   2.677
  164SAPE    C118325   6.419   4.612   2.748
  164SAPE    HA18326   6.521   4.585   2.714
  164SAPE    HB18327   6.403   4.720   2.728
  164SAPE    C218328   6.410   4.572   2.898
  164SAPE    HS18329   6.441   4.659   2.959
  164SAPE   O2118330   6.502   4.468   2.912
  164SAPE   C2118331   6.580   4.466   3.025
  164SAPE   O2218332   6.580   4.545   3.118
  164SAPE   C2218333   6.676   4.352   3.008
  164SAPE   H2R18334   6.732   4.364   2.913
  164SAPE   H2S18335   6.739   4.347   3.099
  164SAPE    C318336   6.271   4.532   2.942
  164SAPE    HX18337   6.242   4.435   2.896
  164SAPE    HY18338   6.198   4.597   2.888
  164SAPE   O3118339   6.253   4.532   3.078
  164SAPE   C3118340   6.240   4.658   3.135
  164SAPE   O3218341   6.232   4.758   3.063
  164SAPE   C3218342   6.217   4.649   3.285
  164SAPE   H2X18343   6.107   4.654   3.305
  164SAPE   H2Y18344   6.274   4.731   3.333
  164SAPE   C2318345   6.606   4.212   2.998
  164SAPE   H3R18346   6.675   4.138   2.950
  164SAPE   H3S18347   6.519   4.209   2.930
  164SAPE   C2418348   6.553   4.153   3.131
  164SAPE   H4R18349   6.486   4.067   3.111
  164SAPE   H4S18350   6.493   4.236   3.173
  164SAPE   C2518351   6.665   4.116   3.222
  164SAPE   H5R18352   6.756   4.077   3.176
  164SAPE   C2618353   6.666   4.141   3.358
  164SAPE   H6R18354   6.759   4.110   3.409
  164SAPE   C2718355   6.559   4.199   3.452
  164SAPE   H7R18356   6.545   4.139   3.545
  164SAPE   H7S18357   6.461   4.179   3.404
  164SAPE   C2818358   6.579   4.343   3.484
  164SAPE   H8R18359   6.589   4.403   3.392
  164SAPE   C2918360   6.591   4.400   3.604
  164SAPE   H9R18361   6.626   4.503   3.620
  164SAPE  C21018362   6.582   4.330   3.731
  164SAPE  H10R18363   6.676   4.314   3.789
  164SAPE  H10S18364   6.543   4.227   3.715
  164SAPE  C21118365   6.483   4.403   3.822
  164SAPE  H11R18366   6.390   4.420   3.765
  164SAPE  C21218367   6.501   4.465   3.941
  164SAPE  H12R18368   6.430   4.533   3.989
  164SAPE  C21318369   6.632   4.452   4.013
  164SAPE  H13R18370   6.687   4.357   3.999
  164SAPE  H13S18371   6.603   4.446   4.120
  164SAPE  C21418372   6.739   4.562   4.005
  164SAPE  H14R18373   6.788   4.567   3.907
  164SAPE  C21518374   6.775   4.659   4.089
  164SAPE  H15R18375   6.853   4.732   4.060
  164SAPE  C21618376   6.726   4.668   4.229
  164SAPE  H16R18377   6.624   4.625   4.239
  164SAPE  H16S18378   6.717   4.777   4.249
  164SAPE  C21718379   6.826   4.628   4.340
  164SAPE  H17R18380   0.039   4.685   4.346
  164SAPE  H17S18381   6.856   4.522   4.325
  164SAPE  C21818382   6.776   4.632   4.493
  164SAPE  H18R18383   6.678   4.578   4.492
  164SAPE  H18S18384   6.756   4.738   4.518
  164SAPE  C21918385   6.865   4.565   4.594
  164SAPE  H19R18386   0.077   4.623   4.589
  164SAPE  H19S18387   6.880   4.462   4.557
  164SAPE  C22018388   6.807   4.551   4.735
  164SAPE  H20R18389   6.722   4.480   4.747
  164SAPE  H20S18390   6.753   4.645   4.762
  164SAPE  H20T18391   0.002   4.536   4.813
  164SAPE   C3318392   6.272   4.516   3.340
  164SAPE   H3X18393   6.376   4.497   3.306
  164SAPE   H3Y18394   6.204   4.439   3.299
  164SAPE   C3418395   6.263   4.494   3.490
  164SAPE   H4X18396   6.331   4.572   3.530
  164SAPE   H4Y18397   6.300   4.391   3.506
  164SAPE   C3518398   6.121   4.497   3.567
  164SAPE   H5X18399   6.047   4.442   3.505
  164SAPE   H5Y18400   6.091   4.604   3.567
  164SAPE   C3618401   6.122   4.458   3.712
  164SAPE   H6X18402   6.168   4.532   3.781
  164SAPE   H6Y18403   6.180   4.363   3.706
  164SAPE   C3718404   5.981   4.422   3.762
  164SAPE   H7X18405   5.936   4.347   3.694
  164SAPE   H7Y18406   5.924   4.515   3.738
  164SAPE   C3818407   5.980   4.374   3.902
  164SAPE   H8X18408   6.006   4.266   3.900
  164SAPE   H8Y18409   5.874   4.372   3.934
  164SAPE   C3918410   6.070   4.450   4.017
  164SAPE   H9X18411   6.064   4.557   3.989
  164SAPE   H9Y18412   6.178   4.425   4.009
  164SAPE  C31018413   6.007   4.435   4.154
  164SAPE  H10X18414   5.908   4.486   4.146
  164SAPE  H10Y18415   6.073   4.483   4.229
  164SAPE  C31118416   5.980   4.295   4.207
  164SAPE  H11X18417   6.080   4.251   4.187
  164SAPE  H11Y18418   5.906   4.234   4.151
  164SAPE  C31218419   5.950   4.294   4.356
  164SAPE  H12X18420   5.997   4.369   4.423
  164SAPE  H12Y18421   5.986   4.196   4.395
  164SAPE  C31318422   5.800   4.285   4.394
  164SAPE  H13X18423   5.741   4.259   4.304
  164SAPE  H13Y18424   5.762   4.389   4.397
  164SAPE  C31418425   5.790   4.218   4.528
  164SAPE  H14X18426   5.844   4.121   4.538
  164SAPE  H14Y18427   5.683   4.208   4.556
  164SAPE  C31518428   5.856   4.299   4.635
  164SAPE  H15X18429   5.849   4.404   4.601
  164SAPE  H15Y18430   5.965   4.278   4.633
  164SAPE  C31618431   5.784   4.268   4.764
  164SAPE  H16X18432   5.800   4.160   4.787
  164SAPE  H16Y18433   5.674   4.278   4.762
  164SAPE  C31718434   5.856   4.346   4.866
  164SAPE  H17X18435   5.827   4.450   4.838
  164SAPE  H17Y18436   5.965   4.324   4.868
  164SAPE  C31818437   5.804   4.326   5.012
  164SAPE  H18X18438   5.803   4.220   5.043
  164SAPE  H18Y18439   5.694   4.342   5.004
  164SAPE  H18Z18440   5.844   4.401   5.084
  165SAPE     N18441   6.001   0.640   2.257
  165SAPE   HN118442   6.069   0.714   2.282
  165SAPE   HN218443   5.901   0.665   2.273
  165SAPE   HN318444   6.012   0.549   2.306
  165SAPE   C1218445   6.025   0.599   2.121
  165SAPE  H12A18446   6.126   0.554   2.106
  165SAPE  H12B18447   6.011   0.686   2.053
  165SAPE   C1118448   5.923   0.492   2.073
  165SAPE  H11A18449   5.965   0.447   1.981
  165SAPE  H11B18450   5.834   0.551   2.042
  165SAPE     P18451   5.961   0.272   2.204
  165SAPE   O1318452   5.938   0.173   2.096
  165SAPE   O1418453   6.102   0.311   2.222
  165SAPE   O1218454   5.885   0.402   2.177
  165SAPE   O1118455   5.902   0.218   2.338
  165SAPE    C118456   5.766   0.231   2.376
  165SAPE    HA18457   5.700   0.226   2.287
  165SAPE    HB18458   5.749   0.137   2.433
  165SAPE    C218459   5.742   0.358   2.465
  165SAPE    HS18460   5.765   0.447   2.402
  165SAPE   O2118461   5.813   0.347   2.588
  165SAPE   C2118462   5.936   0.397   2.580
  165SAPE   O2218463   5.977   0.462   2.491
  165SAPE   C2218464   6.007   0.369   2.718
  165SAPE   H2R18465   5.993   0.464   2.775
  165SAPE   H2S18466   5.950   0.294   2.777
  165SAPE    C318467   5.585   0.362   2.483
  165SAPE    HX18468   5.535   0.330   2.389
  165SAPE    HY18469   5.552   0.462   2.516
  165SAPE   O3118470   5.566   0.262   2.594
  165SAPE   C3118471   5.456   0.274   2.657
  165SAPE   O3218472   5.359   0.338   2.631
  165SAPE   C3218473   5.476   0.194   2.792
  165SAPE   H2X18474   5.471   0.084   2.780
  165SAPE   H2Y18475   5.393   0.227   2.858
  165SAPE   C2318476   6.150   0.345   2.678
  165SAPE   H3R18477   6.195   0.439   2.640
  165SAPE   H3S18478   6.160   0.274   2.594
  165SAPE   C2418479   6.247   0.295   2.788
  165SAPE   H4R18480   6.267   0.390   2.843
  165SAPE   H4S18481   6.334   0.262   2.728
  165SAPE   C2518482   6.188   0.183   2.869
  165SAPE   H5R18483   6.170   0.096   2.804
  165SAPE   C2618484   6.146   0.193   2.997
  165SAPE   H6R18485   6.119   0.098   3.046
  165SAPE   C2718486   6.158   0.310   3.094
  165SAPE   H7R18487   6.079   0.331   3.169
  165SAPE   H7S18488   6.146   0.404   3.036
  165SAPE   C2818489   6.293   0.301   3.159
  165SAPE   H8R18490   6.382   0.320   3.096
  165SAPE   C2918491   6.322   0.272   3.286
  165SAPE   H9R18492   6.427   0.287   3.315
  165SAPE  C21018493   6.220   0.257   3.396
  165SAPE  H10R18494   6.116   0.254   3.358
  165SAPE  H10S18495   6.240   0.335   3.472
  165SAPE  C21118496   6.248   0.128   3.473
  165SAPE  H11R18497   6.278   0.042   3.411
  165SAPE  C21218498   6.239   0.092   3.603
  165SAPE  H12R18499   6.246   6.869   3.630
  165SAPE  C21318500   6.199   0.178   3.725
  165SAPE  H13R18501   6.231   0.283   3.707
  165SAPE  H13S18502   6.255   0.147   3.815
  165SAPE  C21418503   6.053   0.184   3.741
  165SAPE  H14R18504   5.996   0.198   3.647
  165SAPE  C21518505   5.987   0.170   3.858
  165SAPE  H15R18506   5.878   0.163   3.840
  165SAPE  C21618507   6.044   0.150   3.995
  165SAPE  H16R18508   6.151   0.180   4.001
  165SAPE  H16S18509   6.042   0.042   4.020
  165SAPE  C21718510   5.976   0.242   4.095
  165SAPE  H17R18511   5.872   0.277   4.076
  165SAPE  H17S18512   6.034   0.335   4.111
  165SAPE  C21818513   5.978   0.178   4.237
  165SAPE  H18R18514   6.083   0.150   4.257
  165SAPE  H18S18515   5.909   0.091   4.244
  165SAPE  C21918516   5.939   0.273   4.345
  165SAPE  H19R18517   5.840   0.320   4.333
  165SAPE  H19S18518   6.017   0.353   4.347
  165SAPE  C22018519   5.944   0.204   4.485
  165SAPE  H20R18520   5.963   0.273   4.570
  165SAPE  H20S18521   6.025   0.128   4.480
  165SAPE  H20T18522   5.842   0.172   4.515
  165SAPE   C3318523   5.619   0.221   2.845
  165SAPE   H3X18524   5.638   0.330   2.836
  165SAPE   H3Y18525   5.697   0.166   2.787
  165SAPE   C3418526   5.633   0.176   2.994
  165SAPE   H4X18527   5.635   0.065   2.998
  165SAPE   H4Y18528   5.543   0.214   3.048
  165SAPE   C3518529   5.761   0.228   3.055
  165SAPE   H5X18530   5.765   0.337   3.037
  165SAPE   H5Y18531   5.858   0.204   3.005
  165SAPE   C3618532   5.772   0.195   3.206
  165SAPE   H6X18533   5.876   0.226   3.228
  165SAPE   H6Y18534   5.769   0.084   3.213
  165SAPE   C3718535   5.666   0.260   3.299
  165SAPE   H7X18536   5.563   0.224   3.278
  165SAPE   H7Y18537   5.678   0.366   3.270
  165SAPE   C3818538   5.703   0.245   3.446
  165SAPE   H8X18539   5.813   0.250   3.458
  165SAPE   H8Y18540   5.669   0.144   3.479
  165SAPE   C3918541   5.641   0.351   3.542
  165SAPE   H9X18542   5.532   0.336   3.558
  165SAPE   H9Y18543   5.658   0.451   3.499
  165SAPE  C31018544   5.707   0.347   3.683
  165SAPE  H10X18545   5.816   0.361   3.668
  165SAPE  H10Y18546   5.702   0.245   3.726
  165SAPE  C31118547   5.649   0.443   3.784
  165SAPE  H11X18548   5.538   0.432   3.789
  165SAPE  H11Y18549   5.681   0.546   3.757
  165SAPE  C31218550   5.688   0.421   3.928
  165SAPE  H12X18551   5.798   0.433   3.932
  165SAPE  H12Y18552   5.660   0.323   3.974
  165SAPE  C31318553   5.633   0.532   4.018
  165SAPE  H13X18554   5.523   0.528   4.028
  165SAPE  H13Y18555   5.662   0.632   3.979
  165SAPE  C31418556   5.710   0.532   4.149
  165SAPE  H14X18557   5.821   0.541   4.147
  165SAPE  H14Y18558   5.681   0.433   4.190
  165SAPE  C31518559   5.657   0.644   4.242
  165SAPE  H15X18560   5.557   0.611   4.279
  165SAPE  H15Y18561   5.642   0.743   4.193
  165SAPE  C31618562   5.755   0.664   4.359
  165SAPE  H16X18563   5.840   0.709   4.304
  165SAPE  H16Y18564   5.778   0.562   4.398
  165SAPE  C31718565   5.706   0.747   4.483
  165SAPE  H17X18566   5.789   0.733   4.555
  165SAPE  H17Y18567   5.618   0.693   4.524
  165SAPE  C31818568   5.681   0.890   4.452
  165SAPE  H18X18569   5.590   0.906   4.390
  165SAPE  H18Y18570   5.772   0.923   4.397
  165SAPE  H18Z18571   5.671   0.957   4.541
  166SAPE     N18572   0.333   5.464   2.599
  166SAPE   HN118573   0.360   5.371   2.636
  166SAPE   HN218574   0.411   5.526   2.630
  166SAPE   HN318575   0.244   5.495   2.643
  166SAPE   C1218576   0.316   5.455   2.445
  166SAPE  H12A18577   0.416   5.471   2.400
  166SAPE  H12B18578   0.249   5.537   2.411
  166SAPE   C1118579   0.243   5.327   2.408
  166SAPE  H11A18580   0.302   5.235   2.425
  166SAPE  H11B18581   0.212   5.338   2.302
  166SAPE     P18582   6.864   5.336   2.448
  166SAPE   O1318583   6.843   5.482   2.451
  166SAPE   O1418584   6.837   5.258   2.326
  166SAPE   O1218585   0.128   5.306   2.484
  166SAPE   O1118586   6.792   5.270   2.563
  166SAPE    C118587   6.822   5.260   2.696
  166SAPE    HA18588   6.755   5.175   2.725
  166SAPE    HB18589   0.045   5.231   2.716
  166SAPE    C218590   6.782   5.390   2.770
  166SAPE    HS18591   6.780   5.476   2.699
  166SAPE   O2118592   6.856   5.414   2.888
  166SAPE   C2118593   0.087   5.469   2.871
  166SAPE   O2218594   0.135   5.506   2.762
  166SAPE   C2218595   0.173   5.481   2.998
  166SAPE   H2R18596   0.169   5.589   3.026
  166SAPE   H2S18597   0.121   5.427   3.080
  166SAPE    C318598   6.625   5.390   2.813
  166SAPE    HX18599   6.606   5.281   2.825
  166SAPE    HY18600   6.560   5.427   2.731
  166SAPE   O3118601   6.590   5.449   2.942
  166SAPE   C3118602   6.564   5.577   2.934
  166SAPE   O3218603   6.570   5.641   2.832
  166SAPE   C3218604   6.517   5.638   3.065
  166SAPE   H2X18605   6.508   5.748   3.055
  166SAPE   H2Y18606   6.600   5.634   3.138
  166SAPE   C2318607   0.322   5.437   2.979
  166SAPE   H3R18608   0.364   5.504   2.901
  166SAPE   H3S18609   0.341   5.331   2.954
  166SAPE   C2418610   0.397   5.463   3.112
  166SAPE   H4R18611   0.341   5.542   3.167
  166SAPE   H4S18612   0.493   5.504   3.073
  166SAPE   C2518613   0.428   5.353   3.203
  166SAPE   H5R18614   0.456   5.261   3.148
  166SAPE   C2618615   0.430   5.352   3.340
  166SAPE   H6R18616   0.439   5.256   3.394
  166SAPE   C2718617   0.390   5.474   3.429
  166SAPE   H7R18618   0.320   5.535   3.368
  166SAPE   H7S18619   0.489   5.523   3.436
  166SAPE   C2818620   0.326   5.442   3.561
  166SAPE   H8R18621   0.387   5.378   3.627
  166SAPE   C2918622   0.214   5.500   3.615
  166SAPE   H9R18623   0.177   5.468   3.713
  166SAPE  C21018624   0.116   5.608   3.553
  166SAPE  H10R18625   0.180   5.686   3.507
  166SAPE  H10S18626   0.064   5.662   3.635
  166SAPE  C21118627   0.021   5.560   3.442
  166SAPE  H11R18628   0.020   5.452   3.422
  166SAPE  C21218629   6.803   5.640   3.407
  166SAPE  H12R18630   6.747   5.602   3.320
  166SAPE  C21318631   6.790   5.781   3.450
  166SAPE  H13R18632   0.001   5.840   3.460
  166SAPE  H13S18633   6.749   5.786   3.553
  166SAPE  C21418634   6.697   5.857   3.365
  166SAPE  H14R18635   6.599   5.853   3.415
  166SAPE  C21518636   6.717   5.902   3.246
  166SAPE  H15R18637   6.642   5.961   3.190
  166SAPE  C21618638   6.850   5.891   3.185
  166SAPE  H16R18639   0.024   5.799   3.214
  166SAPE  H16S18640   0.031   5.979   3.209
  166SAPE  C21718641   6.834   5.931   3.034
  166SAPE  H17R18642   6.771   6.022   3.025
  166SAPE  H17S18643   6.794   5.838   2.987
  166SAPE  C21818644   0.079   5.969   2.965
  166SAPE  H18R18645   0.127   5.869   2.956
  166SAPE  H18S18646   0.140   6.032   3.032
  166SAPE  C21918647   0.050   6.040   2.831
  166SAPE  H19R18648   0.025   6.147   2.850
  166SAPE  H19S18649   6.839   6.010   2.780
  166SAPE  C22018650   0.178   6.022   2.748
  166SAPE  H20R18651   0.180   6.074   2.650
  166SAPE  H20S18652   0.191   5.912   2.733
  166SAPE  H20T18653   0.263   6.050   2.814
  166SAPE   C3318654   6.380   5.587   3.111
  166SAPE   H3X18655   6.377   5.476   3.109
  166SAPE   H3Y18656   6.307   5.627   3.037
  166SAPE   C3418657   6.340   5.636   3.245
  166SAPE   H4X18658   6.236   5.600   3.258
  166SAPE   H4Y18659   6.357   5.746   3.250
  166SAPE   C3518660   6.420   5.567   3.363
  166SAPE   H5X18661   6.531   5.567   3.357
  166SAPE   H5Y18662   6.377   5.465   3.366
  166SAPE   C3618663   6.388   5.637   3.499
  166SAPE   H6X18664   6.289   5.603   3.537
  166SAPE   H6Y18665   6.389   5.745   3.473
  166SAPE   C3718666   6.485   5.605   3.613
  166SAPE   H7X18667   6.584   5.637   3.575
  166SAPE   H7Y18668   6.495   5.500   3.646
  166SAPE   C3818669   6.448   5.678   3.740
  166SAPE   H8X18670   6.352   5.635   3.776
  166SAPE   H8Y18671   6.438   5.788   3.735
  166SAPE   C3918672   6.548   5.657   3.849
  166SAPE   H9X18673   6.649   5.672   3.807
  166SAPE   H9Y18674   6.551   5.552   3.885
  166SAPE  C31018675   6.515   5.748   3.977
  166SAPE  H10X18676   6.416   5.724   4.021
  166SAPE  H10Y18677   6.506   5.853   3.941
  166SAPE  C31118678   6.610   5.733   4.092
  166SAPE  H11X18679   6.716   5.751   4.065
  166SAPE  H11Y18680   6.608   5.626   4.120
  166SAPE  C31218681   6.568   5.817   4.214
  166SAPE  H12X18682   6.464   5.788   4.242
  166SAPE  H12Y18683   6.567   5.926   4.192
  166SAPE  C31318684   6.661   5.805   4.337
  166SAPE  H13X18685   6.756   5.861   4.322
  166SAPE  H13Y18686   6.694   5.699   4.347
  166SAPE  C31418687   6.595   5.854   4.468
  166SAPE  H14X18688   6.493   5.813   4.483
  166SAPE  H14Y18689   6.588   5.965   4.463
  166SAPE  C31518690   6.674   5.809   4.591
  166SAPE  H15X18691   6.670   5.699   4.580
  166SAPE  H15Y18692   6.614   5.821   4.684
  166SAPE  C31618693   6.817   5.866   4.601
  166SAPE  H16X18694   6.805   5.976   4.589
  166SAPE  H16Y18695   6.870   5.850   4.505
  166SAPE  C31718696   0.020   5.829   4.720
  166SAPE  H17X18697   0.122   5.871   4.704
  166SAPE  H17Y18698   0.046   5.722   4.731
  166SAPE  C31818699   6.845   5.883   4.850
  166SAPE  H18X18700   6.838   5.993   4.835
  166SAPE  H18Y18701   0.022   5.849   4.937
  166SAPE  H18Z18702   6.739   5.853   4.871
  167SAPE     N18703   5.983   3.429   2.214
  167SAPE   HN118704   6.011   3.461   2.308
  167SAPE   HN218705   5.994   3.507   2.146
  167SAPE   HN318706   5.882   3.403   2.221
  167SAPE   C1218707   6.062   3.307   2.167
  167SAPE  H12A18708   6.045   3.291   2.059
  167SAPE  H12B18709   6.029   3.217   2.224
  167SAPE   C1118710   6.221   3.325   2.186
  167SAPE  H11A18711   6.284   3.251   2.131
  167SAPE  H11B18712   6.230   3.320   2.296
  167SAPE     P18713   6.409   3.508   2.184
  167SAPE   O1318714   6.516   3.420   2.128
  167SAPE   O1418715   6.414   3.655   2.158
  167SAPE   O1218716   6.261   3.454   2.136
  167SAPE   O1118717   6.395   3.489   2.338
  167SAPE    C118718   6.307   3.554   2.432
  167SAPE    HA18719   6.209   3.557   2.380
  167SAPE    HB18720   6.302   3.491   2.524
  167SAPE    C218721   6.367   3.696   2.475
  167SAPE    HS18722   6.357   3.749   2.378
  167SAPE   O2118723   6.506   3.669   2.512
  167SAPE   C2118724   6.569   3.781   2.543
  167SAPE   O2218725   6.531   3.893   2.523
  167SAPE   C2218726   6.700   3.741   2.607
  167SAPE   H2R18727   6.772   3.702   2.532
  167SAPE   H2S18728   6.746   3.837   2.641
  167SAPE    C318729   6.288   3.759   2.592
  167SAPE    HX18730   6.183   3.756   2.555
  167SAPE    HY18731   6.310   3.865   2.617
  167SAPE   O3118732   6.299   3.669   2.707
  167SAPE   C3118733   6.345   3.732   2.815
  167SAPE   O3218734   6.394   3.841   2.829
  167SAPE   C3218735   6.338   3.632   2.926
  167SAPE   H2X18736   6.397   3.544   2.893
  167SAPE   H2Y18737   6.231   3.603   2.939
  167SAPE   C2318738   6.702   3.669   2.741
  167SAPE   H3R18739   6.656   3.570   2.716
  167SAPE   H3S18740   6.634   3.715   2.815
  167SAPE   C2418741   6.846   3.642   2.790
  167SAPE   H4R18742   0.035   3.726   2.778
  167SAPE   H4S18743   6.882   3.565   2.720
  167SAPE   C2518744   6.861   3.564   2.916
  167SAPE   H5R18745   6.881   3.457   2.902
  167SAPE   C2618746   6.855   3.607   3.047
  167SAPE   H6R18747   6.863   3.533   3.128
  167SAPE   C2718748   6.805   3.743   3.098
  167SAPE   H7R18749   6.719   3.716   3.163
  167SAPE   H7S18750   6.758   3.799   3.014
  167SAPE   C2818751   0.029   3.834   3.153
  167SAPE   H8R18752   0.090   3.887   3.077
  167SAPE   C2918753   0.069   3.838   3.280
  167SAPE   H9R18754   0.141   3.914   3.315
  167SAPE  C21018755   0.010   3.768   3.401
  167SAPE  H10R18756   0.003   3.658   3.383
  167SAPE  H10S18757   6.786   3.798   3.400
  167SAPE  C21118758   0.072   3.780   3.540
  167SAPE  H11R18759   0.181   3.766   3.541
  167SAPE  C21218760   0.006   3.803   3.652
  167SAPE  H12R18761   0.066   3.823   3.743
  167SAPE  C21318762   6.741   3.844   3.657
  167SAPE  H13R18763   6.666   3.765   3.639
  167SAPE  H13S18764   6.726   3.931   3.590
  167SAPE  C21418765   6.689   3.913   3.783
  167SAPE  H14R18766   6.763   3.930   3.862
  167SAPE  C21518767   6.563   3.948   3.801
  167SAPE  H15R18768   6.537   3.989   3.900
  167SAPE  C21618769   6.454   3.920   3.703
  167SAPE  H16R18770   6.435   3.810   3.700
  167SAPE  H16S18771   6.493   3.933   3.599
  167SAPE  C21718772   6.326   3.991   3.736
  167SAPE  H17R18773   6.344   4.090   3.783
  167SAPE  H17S18774   6.281   3.938   3.823
  167SAPE  C21818775   6.237   4.004   3.611
  167SAPE  H18R18776   6.292   4.069   3.540
  167SAPE  H18S18777   6.145   4.061   3.636
  167SAPE  C21918778   6.198   3.868   3.535
  167SAPE  H19R18779   6.292   3.835   3.486
  167SAPE  H19S18780   6.121   3.891   3.458
  167SAPE  C22018781   6.145   3.753   3.629
  167SAPE  H20R18782   6.222   3.735   3.707
  167SAPE  H20S18783   6.101   3.663   3.581
  167SAPE  H20T18784   6.065   3.797   3.692
  167SAPE   C3318785   6.395   3.693   3.051
  167SAPE   H3X18786   6.360   3.796   3.077
  167SAPE   H3Y18787   6.503   3.715   3.038
  167SAPE   C3418788   6.376   3.601   3.167
  167SAPE   H4X18789   6.435   3.511   3.141
  167SAPE   H4Y18790   6.272   3.562   3.177
  167SAPE   C3518791   6.421   3.657   3.301
  167SAPE   H5X18792   6.346   3.734   3.327
  167SAPE   H5Y18793   6.516   3.715   3.295
  167SAPE   C3618794   6.426   3.544   3.409
  167SAPE   H6X18795   6.460   3.457   3.349
  167SAPE   H6Y18796   6.323   3.521   3.441
  167SAPE   C3718797   6.521   3.562   3.524
  167SAPE   H7X18798   6.477   3.642   3.587
  167SAPE   H7Y18799   6.614   3.598   3.474
  167SAPE   C3818800   6.557   3.442   3.618
  167SAPE   H8X18801   6.617   3.492   3.698
  167SAPE   H8Y18802   6.636   3.377   3.574
  167SAPE   C3918803   6.442   3.370   3.687
  167SAPE   H9X18804   6.389   3.317   3.605
  167SAPE   H9Y18805   6.368   3.440   3.731
  167SAPE  C31018806   6.487   3.260   3.790
  167SAPE  H10X18807   6.536   3.184   3.724
  167SAPE  H10Y18808   6.397   3.215   3.835
  167SAPE  C31118809   6.588   3.318   3.896
  167SAPE  H11X18810   6.673   3.357   3.836
  167SAPE  H11Y18811   6.629   3.224   3.939
  167SAPE  C31218812   6.517   3.411   3.993
  167SAPE  H12X18813   6.440   3.362   4.057
  167SAPE  H12Y18814   6.459   3.483   3.931
  167SAPE  C31318815   6.620   3.492   4.075
  167SAPE  H13X18816   6.657   3.427   4.158
  167SAPE  H13Y18817   6.560   3.576   4.115
  167SAPE  C31418818   6.734   3.553   3.998
  167SAPE  H14X18819   6.695   3.582   3.898
  167SAPE  H14Y18820   6.810   3.474   3.978
  167SAPE  C31518821   6.805   3.669   4.063
  167SAPE  H15X18822   6.814   3.641   4.171
  167SAPE  H15Y18823   6.744   3.761   4.052
  167SAPE  C31618824   0.068   3.691   4.020
  167SAPE  H16X18825   0.058   3.712   3.912
  167SAPE  H16Y18826   0.121   3.594   4.031
  167SAPE  C31718827   0.126   3.822   4.084
  167SAPE  H17X18828   0.071   3.909   4.041
  167SAPE  H17Y18829   0.231   3.841   4.054
  167SAPE  C31818830   0.113   3.822   4.231
  167SAPE  H18X18831   0.143   3.920   4.274
  167SAPE  H18Y18832   0.181   3.742   4.267
  167SAPE  H18Z18833   0.013   3.807   4.277
  168SAPE     N18834   3.016   6.005   1.944
  168SAPE   HN118835   3.063   6.055   1.867
  168SAPE   HN218836   2.952   5.939   1.896
  168SAPE   HN318837   2.961   6.073   2.001
  168SAPE   C1218838   3.107   5.928   2.030
  168SAPE  H12A18839   3.155   5.993   2.106
  168SAPE  H12B18840   3.189   5.895   1.963
  168SAPE   C1118841   3.028   5.824   2.100
  168SAPE  H11A18842   2.967   5.878   2.175
  168SAPE  H11B18843   3.100   5.763   2.160
  168SAPE     P18844   2.939   5.586   2.044
  168SAPE   O1318845   2.863   5.524   1.933
  168SAPE   O1418846   3.075   5.536   2.069
  168SAPE   O1218847   2.943   5.746   2.011
  168SAPE   O1118848   2.860   5.575   2.181
  168SAPE    C118849   2.729   5.637   2.202
  168SAPE    HA18850   2.735   5.748   2.204
  168SAPE    HB18851   2.656   5.611   2.122
  168SAPE    C218852   2.670   5.585   2.335
  168SAPE    HS18853   2.568   5.621   2.363
  168SAPE   O2118854   2.758   5.598   2.449
  168SAPE   C2118855   2.775   5.719   2.495
  168SAPE   O2218856   2.715   5.821   2.472
  168SAPE   C2218857   2.891   5.707   2.593
  168SAPE   H2R18858   2.899   5.604   2.633
  168SAPE   H2S18859   2.984   5.738   2.541
  168SAPE    C318860   2.651   5.433   2.317
  168SAPE    HX18861   2.748   5.383   2.295
  168SAPE    HY18862   2.585   5.418   2.228
  168SAPE   O3118863   2.599   5.372   2.439
  168SAPE   C3118864   2.639   5.247   2.476
  168SAPE   O3218865   2.727   5.185   2.423
  168SAPE   C3218866   2.576   5.211   2.609
  168SAPE   H2X18867   2.465   5.203   2.601
  168SAPE   H2Y18868   2.608   5.284   2.687
  168SAPE   C2318869   2.873   5.795   2.722
  168SAPE   H3R18870   2.794   5.753   2.788
  168SAPE   H3S18871   2.842   5.897   2.688
  168SAPE   C2418872   3.002   5.822   2.802
  168SAPE   H4R18873   2.989   5.902   2.877
  168SAPE   H4S18874   3.075   5.867   2.732
  168SAPE   C2518875   3.049   5.695   2.868
  168SAPE   H5R18876   3.102   5.633   2.795
  168SAPE   C2618877   3.037   5.657   2.998
  168SAPE   H6R18878   3.065   5.561   3.044
  168SAPE   C2718879   2.957   5.746   3.093
  168SAPE   H7R18880   2.868   5.784   3.040
  168SAPE   H7S18881   3.012   5.839   3.119
  168SAPE   C2818882   2.911   5.674   3.214
  168SAPE   H8R18883   2.925   5.566   3.228
  168SAPE   C2918884   2.863   5.744   3.321
  168SAPE   H9R18885   2.839   5.692   3.415
  168SAPE  C21018886   2.846   5.898   3.332
  168SAPE  H10R18887   2.893   5.959   3.252
  168SAPE  H10S18888   2.901   5.928   3.424
  168SAPE  C21118889   2.702   5.936   3.347
  168SAPE  H11R18890   2.633   5.906   3.267
  168SAPE  C21218891   2.638   5.994   3.452
  168SAPE  H12R18892   2.528   6.001   3.449
  168SAPE  C21318893   2.699   6.040   3.579
  168SAPE  H13R18894   2.780   5.967   3.599
  168SAPE  H13S18895   2.628   6.022   3.663
  168SAPE  C21418896   2.739   6.184   3.591
  168SAPE  H14R18897   2.738   6.226   3.490
  168SAPE  C21518898   2.739   6.253   3.703
  168SAPE  H15R18899   2.746   6.361   3.687
  168SAPE  C21618900   2.719   6.200   3.842
  168SAPE  H16R18901   2.771   6.259   3.921
  168SAPE  H16S18902   2.759   6.096   3.835
  168SAPE  C21718903   2.564   6.200   3.867
  168SAPE  H17R18904   2.514   6.113   3.819
  168SAPE  H17S18905   2.518   6.297   3.838
  168SAPE  C21818906   2.543   6.191   4.019
  168SAPE  H18R18907   2.599   6.267   4.077
  168SAPE  H18S18908   2.593   6.097   4.051
  168SAPE  C21918909   2.393   6.192   4.058
  168SAPE  H19R18910   2.347   6.259   3.983
  168SAPE  H19S18911   2.392   6.242   4.157
  168SAPE  C22018912   2.323   6.055   4.052
  168SAPE  H20R18913   2.356   6.006   3.958
  168SAPE  H20S18914   2.213   6.066   4.056
  168SAPE  H20T18915   2.368   5.993   4.133
  168SAPE   C3318916   2.634   5.073   2.650
  168SAPE   H3X18917   2.744   5.067   2.666
  168SAPE   H3Y18918   2.596   4.995   2.581
  168SAPE   C3418919   2.588   5.026   2.790
  168SAPE   H4X18920   2.609   4.917   2.795
  168SAPE   H4Y18921   2.477   5.035   2.798
  168SAPE   C3518922   2.662   5.108   2.898
  168SAPE   H5X18923   2.685   5.208   2.856
  168SAPE   H5Y18924   2.759   5.055   2.908
  168SAPE   C3618925   2.604   5.121   3.041
  168SAPE   H6X18926   2.513   5.184   3.031
  168SAPE   H6Y18927   2.674   5.185   3.097
  168SAPE   C3718928   2.566   4.987   3.104
  168SAPE   H7X18929   2.658   4.925   3.115
  168SAPE   H7Y18930   2.504   4.941   3.025
  168SAPE   C3818931   2.480   4.995   3.233
  168SAPE   H8X18932   2.412   4.907   3.242
  168SAPE   H8Y18933   2.419   5.087   3.226
  168SAPE   C3918934   2.559   5.011   3.367
  168SAPE   H9X18935   2.641   5.084   3.349
  168SAPE   H9Y18936   2.605   4.910   3.382
  168SAPE  C31018937   2.468   5.040   3.484
  168SAPE  H10X18938   2.372   4.985   3.476
  168SAPE  H10Y18939   2.437   5.146   3.475
  168SAPE  C31118940   2.524   5.005   3.625
  168SAPE  H11X18941   2.614   5.067   3.645
  168SAPE  H11Y18942   2.539   4.895   3.616
  168SAPE  C31218943   2.420   5.039   3.733
  168SAPE  H12X18944   2.321   4.996   3.706
  168SAPE  H12Y18945   2.405   5.149   3.736
  168SAPE  C31318946   2.446   4.987   3.872
  168SAPE  H13X18947   2.432   4.878   3.888
  168SAPE  H13Y18948   2.378   5.026   3.951
  168SAPE  C31418949   2.589   5.022   3.937
  168SAPE  H14X18950   2.588   5.133   3.936
  168SAPE  H14Y18951   2.671   4.989   3.868
  168SAPE  C31518952   2.618   4.952   4.076
  168SAPE  H15X18953   2.716   4.901   4.067
  168SAPE  H15Y18954   2.530   4.888   4.098
  168SAPE  C31618955   2.639   5.058   4.188
  168SAPE  H16X18956   2.713   5.135   4.157
  168SAPE  H16Y18957   2.673   5.008   4.281
  168SAPE  C31718958   2.515   5.135   4.240
  168SAPE  H17X18959   2.428   5.075   4.204
  168SAPE  H17Y18960   2.502   5.238   4.200
  168SAPE  C31818961   2.520   5.143   4.396
  168SAPE  H18X18962   2.432   5.193   4.440
  168SAPE  H18Y18963   2.616   5.190   4.423
  168SAPE  H18Z18964   2.521   5.041   4.441
  169SAPE     N18965   6.617   3.352   1.774
  169SAPE   HN118966   6.653   3.407   1.693
  169SAPE   HN218967   6.668   3.399   1.852
  169SAPE   HN318968   6.667   3.262   1.761
  169SAPE   C1218969   6.474   3.335   1.774
  169SAPE  H12A18970   6.441   3.321   1.669
  169SAPE  H12B18971   6.422   3.421   1.821
  169SAPE   C1118972   6.432   3.207   1.853
  169SAPE  H11A18973   6.323   3.183   1.850
  169SAPE  H11B18974   6.455   3.228   1.959
  169SAPE     P18975   6.514   2.958   1.905
  169SAPE   O1318976   6.394   2.885   1.883
  169SAPE   O1418977   6.634   2.892   1.854
  169SAPE   O1218978   6.511   3.089   1.815
  169SAPE   O1118979   6.514   3.018   2.054
  169SAPE    C118980   6.424   2.981   2.158
  169SAPE    HA18981   6.365   3.070   2.189
  169SAPE    HB18982   6.345   2.908   2.130
  169SAPE    C218983   6.490   2.926   2.284
  169SAPE    HS18984   6.412   2.870   2.340
  169SAPE   O2118985   6.542   3.045   2.361
  169SAPE   C2118986   6.450   3.091   2.445
  169SAPE   O2218987   6.339   3.042   2.462
  169SAPE   C2218988   6.505   3.217   2.503
  169SAPE   H2R18989   6.550   3.276   2.420
  169SAPE   H2S18990   6.430   3.282   2.554
  169SAPE    C318991   6.603   2.823   2.254
  169SAPE    HX18992   6.697   2.874   2.222
  169SAPE    HY18993   6.584   2.764   2.162
  169SAPE   O3118994   6.616   2.751   2.379
  169SAPE   C3118995   6.717   2.672   2.400
  169SAPE   O3218996   6.789   2.638   2.308
  169SAPE   C3218997   6.728   2.646   2.543
  169SAPE   H2X18998   6.641   2.674   2.606
  169SAPE   H2Y18999   6.817   2.707   2.571
  169SAPE   C2319000   6.613   3.188   2.605
  169SAPE   H3R19001   6.647   3.287   2.644
  169SAPE   H3S19002   6.698   3.134   2.559
  169SAPE   C2419003   6.566   3.100   2.723
  169SAPE   H4R19004   6.542   3.000   2.681
  169SAPE   H4S19005   6.483   3.148   2.779
  169SAPE   C2519006   6.685   3.087   2.814
  169SAPE   H5R19007   6.782   3.047   2.781
  169SAPE   C2619008   6.684   3.134   2.940
  169SAPE   H6R19009   6.776   3.116   2.997
  169SAPE   C2719010   6.570   3.197   3.007
  169SAPE   H7R19011   6.501   3.115   3.036
  169SAPE   H7S19012   6.522   3.273   2.942
  169SAPE   C2819013   6.599   3.263   3.136
  169SAPE   H8R19014   6.661   3.350   3.112
  169SAPE   C2919015   6.561   3.229   3.262
  169SAPE   H9R19016   6.601   3.274   3.354
  169SAPE  C21019017   6.484   3.096   3.293
  169SAPE  H10R19018   6.553   3.010   3.297
  169SAPE  H10S19019   6.412   3.074   3.212
  169SAPE  C21119020   6.398   3.109   3.415
  169SAPE  H11R19021   6.346   3.205   3.424
  169SAPE  C21219022   6.383   3.027   3.520
  169SAPE  H12R19023   6.321   3.057   3.605
  169SAPE  C21319024   6.446   2.890   3.532
  169SAPE  H13R19025   6.538   2.871   3.473
  169SAPE  H13S19026   6.367   2.815   3.513
  169SAPE  C21419027   6.491   2.861   3.680
  169SAPE  H14R19028   6.413   2.878   3.756
  169SAPE  C21519029   6.618   2.845   3.722
  169SAPE  H15R19030   6.635   2.813   3.825
  169SAPE  C21619031   6.742   2.823   3.641
  169SAPE  H16R19032   6.712   2.804   3.536
  169SAPE  H16S19033   6.806   2.738   3.672
  169SAPE  C21719034   6.824   2.950   3.644
  169SAPE  H17R19035   6.764   3.028   3.593
  169SAPE  H17S19036   0.035   2.930   3.587
  169SAPE  C21819037   6.851   2.995   3.791
  169SAPE  H18R19038   0.051   2.926   3.820
  169SAPE  H18S19039   6.771   2.981   3.866
  169SAPE  C21919040   0.007   3.143   3.815
  169SAPE  H19R19041   6.804   3.204   3.779
  169SAPE  H19S19042   0.094   3.173   3.754
  169SAPE  C22019043   0.030   3.167   3.966
  169SAPE  H20R19044   6.825   3.148   4.031
  169SAPE  H20S19045   0.046   3.276   3.980
  169SAPE  H20T19046   0.115   3.103   3.998
  169SAPE   C3319047   6.778   2.497   2.556
  169SAPE   H3X19048   6.872   2.477   2.501
  169SAPE   H3Y19049   6.704   2.425   2.516
  169SAPE   C3419050   6.787   2.452   2.703
  169SAPE   H4X19051   6.710   2.495   2.771
  169SAPE   H4Y19052   0.002   2.495   2.730
  169SAPE   C3519053   6.795   2.302   2.727
  169SAPE   H5X19054   6.860   2.263   2.646
  169SAPE   H5Y19055   6.700   2.245   2.714
  169SAPE   C3619056   6.857   2.258   2.867
  169SAPE   H6X19057   0.078   2.298   2.870
  169SAPE   H6Y19058   6.871   2.150   2.890
  169SAPE   C3719059   6.782   2.322   2.985
  169SAPE   H7X19060   6.673   2.301   2.992
  169SAPE   H7Y19061   6.787   2.433   2.981
  169SAPE   C3819062   6.828   2.271   3.123
  169SAPE   H8X19063   0.054   2.294   3.128
  169SAPE   H8Y19064   6.807   2.163   3.139
  169SAPE   C3919065   6.764   2.358   3.225
  169SAPE   H9X19066   6.654   2.343   3.224
  169SAPE   H9Y19067   6.789   2.463   3.198
  169SAPE  C31019068   6.807   2.342   3.377
  169SAPE  H10X19069   0.033   2.362   3.372
  169SAPE  H10Y19070   6.771   2.239   3.399
  169SAPE  C31119071   6.731   2.429   3.479
  169SAPE  H11X19072   6.744   2.529   3.433
  169SAPE  H11Y19073   6.781   2.415   3.577
  169SAPE  C31219074   6.578   2.388   3.494
  169SAPE  H12X19075   6.566   2.300   3.560
  169SAPE  H12Y19076   6.540   2.371   3.391
  169SAPE  C31319077   6.496   2.500   3.558
  169SAPE  H13X19078   6.463   2.578   3.485
  169SAPE  H13Y19079   6.554   2.553   3.636
  169SAPE  C31419080   6.364   2.457   3.622
  169SAPE  H14X19081   6.298   2.414   3.543
  169SAPE  H14Y19082   6.300   2.545   3.645
  169SAPE  C31519083   6.367   2.369   3.744
  169SAPE  H15X19084   6.432   2.281   3.721
  169SAPE  H15Y19085   6.271   2.330   3.785
  169SAPE  C31619086   6.423   2.431   3.875
  169SAPE  H16X19087   6.516   2.489   3.856
  169SAPE  H16Y19088   6.440   2.338   3.932
  169SAPE  C31719089   6.321   2.515   3.952
  169SAPE  H17X19090   6.219   2.471   3.947
  169SAPE  H17Y19091   6.322   2.612   3.898
  169SAPE  C31819092   6.361   2.540   4.102
  169SAPE  H18X19093   6.357   2.451   4.167
  169SAPE  H18Y19094   6.285   2.604   4.152
  169SAPE  H18Z19095   6.461   2.588   4.109
  170SAPE     N19096   0.352   3.366   1.934
  170SAPE   HN119097   0.422   3.366   2.011
  170SAPE   HN219098   0.379   3.296   1.862
  170SAPE   HN319099   0.334   3.455   1.883
  170SAPE   C1219100   0.223   3.306   1.979
  170SAPE  H12A19101   0.244   3.204   2.015
  170SAPE  H12B19102   0.144   3.312   1.901
  170SAPE   C1119103   0.158   3.370   2.108
  170SAPE  H11A19104   0.231   3.365   2.191
  170SAPE  H11B19105   0.081   3.297   2.143
  170SAPE     P19106   0.173   3.634   2.138
  170SAPE   O1319107   0.298   3.654   2.063
  170SAPE   O1419108   0.074   3.747   2.137
  170SAPE   O1219109   0.105   3.505   2.089
  170SAPE   O1119110   0.208   3.608   2.285
  170SAPE    C119111   0.338   3.622   2.350
  170SAPE    HA19112   0.376   3.518   2.349
  170SAPE    HB19113   0.411   3.672   2.282
  170SAPE    C219114   0.337   3.659   2.499
  170SAPE    HS19115   0.445   3.668   2.525
  170SAPE   O2119116   0.276   3.560   2.576
  170SAPE   C2119117   0.358   3.460   2.616
  170SAPE   O2219118   0.480   3.460   2.607
  170SAPE   C2219119   0.267   3.361   2.688
  170SAPE   H2R19120   0.296   3.372   2.794
  170SAPE   H2S19121   0.159   3.389   2.686
  170SAPE    C319122   0.259   3.797   2.522
  170SAPE    HX19123   0.159   3.781   2.478
  170SAPE    HY19124   0.311   3.876   2.465
  170SAPE   O3119125   0.242   3.823   2.667
  170SAPE   C3119126   0.349   3.840   2.733
  170SAPE   O3219127   0.466   3.833   2.693
  170SAPE   C3219128   0.301   3.872   2.871
  170SAPE   H2X19129   0.224   3.800   2.904
  170SAPE   H2Y19130   0.252   3.972   2.865
  170SAPE   C2319131   0.285   3.218   2.642
  170SAPE   H3R19132   0.389   3.179   2.657
  170SAPE   H3S19133   0.260   3.202   2.535
  170SAPE   C2419134   0.189   3.119   2.727
  170SAPE   H4R19135   0.087   3.153   2.699
  170SAPE   H4S19136   0.209   3.130   2.836
  170SAPE   C2519137   0.194   2.975   2.674
  170SAPE   H5R19138   0.225   2.963   2.570
  170SAPE   C2619139   0.168   2.864   2.747
  170SAPE   H6R19140   0.177   2.765   2.701
  170SAPE   C2719141   0.114   2.867   2.889
  170SAPE   H7R19142   0.031   2.940   2.894
  170SAPE   H7S19143   0.197   2.889   2.959
  170SAPE   C2819144   0.057   2.738   2.940
  170SAPE   H8R19145   0.068   2.646   2.882
  170SAPE   C2919146   0.020   2.742   3.068
  170SAPE   H9R19147   6.861   2.650   3.112
  170SAPE  C21019148   0.003   2.862   3.163
  170SAPE  H10R19149   6.795   2.842   3.223
  170SAPE  H10S19150   6.858   2.957   3.112
  170SAPE  C21119151   0.118   2.868   3.264
  170SAPE  H11R19152   0.130   2.781   3.330
  170SAPE  C21219153   0.191   2.969   3.298
  170SAPE  H12R19154   0.258   2.954   3.385
  170SAPE  C21319155   0.179   3.103   3.235
  170SAPE  H13R19156   0.184   3.096   3.124
  170SAPE  H13S19157   0.271   3.161   3.255
  170SAPE  C21419158   0.068   3.190   3.269
  170SAPE  H14R19159   6.854   3.138   3.260
  170SAPE  C21519160   0.071   3.311   3.324
  170SAPE  H15R19161   6.860   3.359   3.354
  170SAPE  C21619162   0.191   3.393   3.360
  170SAPE  H16R19163   0.175   3.499   3.333
  170SAPE  H16S19164   0.281   3.355   3.306
  170SAPE  C21719165   0.232   3.380   3.505
  170SAPE  H17R19166   0.328   3.430   3.530
  170SAPE  H17S19167   0.241   3.271   3.527
  170SAPE  C21819168   0.128   3.442   3.597
  170SAPE  H18R19169   0.035   3.382   3.601
  170SAPE  H18S19170   0.101   3.543   3.560
  170SAPE  C21919171   0.183   3.450   3.740
  170SAPE  H19R19172   0.205   3.344   3.764
  170SAPE  H19S19173   0.093   3.472   3.802
  170SAPE  C22019174   0.298   3.546   3.768
  170SAPE  H20R19175   0.340   3.538   3.871
  170SAPE  H20S19176   0.302   3.653   3.737
  170SAPE  H20T19177   0.385   3.509   3.711
  170SAPE   C3319178   0.416   3.861   2.978
  170SAPE   H3X19179   0.362   3.897   3.068
  170SAPE   H3Y19180   0.508   3.921   2.964
  170SAPE   C3419181   0.466   3.725   2.987
  170SAPE   H4X19182   0.544   3.712   2.909
  170SAPE   H4Y19183   0.384   3.652   2.972
  170SAPE   C3519184   0.534   3.696   3.122
  170SAPE   H5X19185   0.457   3.720   3.199
  170SAPE   H5Y19186   0.618   3.768   3.132
  170SAPE   C3619187   0.582   3.552   3.120
  170SAPE   H6X19188   0.623   3.520   3.021
  170SAPE   H6Y19189   0.492   3.492   3.144
  170SAPE   C3719190   0.689   3.533   3.230
  170SAPE   H7X19191   0.779   3.598   3.223
  170SAPE   H7Y19192   0.726   3.428   3.231
  170SAPE   C3819193   0.624   3.534   3.362
  170SAPE   H8X19194   0.542   3.459   3.367
  170SAPE   H8Y19195   0.592   3.639   3.382
  170SAPE   C3919196   0.713   3.484   3.475
  170SAPE   H9X19197   0.817   3.512   3.447
  170SAPE   H9Y19198   0.693   3.375   3.468
  170SAPE  C31019199   0.669   3.537   3.610
  170SAPE  H10X19200   0.565   3.499   3.622
  170SAPE  H10Y19201   0.665   3.647   3.597
  170SAPE  C31119202   0.750   3.503   3.737
  170SAPE  H11X19203   0.706   3.547   3.829
  170SAPE  H11Y19204   0.856   3.532   3.725
  170SAPE  C31219205   0.742   3.353   3.763
  170SAPE  H12X19206   0.773   3.295   3.674
  170SAPE  H12Y19207   0.634   3.331   3.775
  170SAPE  C31319208   0.826   3.311   3.880
  170SAPE  H13X19209   0.935   3.321   3.863
  170SAPE  H13Y19210   0.821   3.202   3.900
  170SAPE  C31419211   0.783   3.377   4.003
  170SAPE  H14X19212   0.797   3.487   4.008
  170SAPE  H14Y19213   0.848   3.332   4.081
  170SAPE  C31519214   0.645   3.346   4.045
  170SAPE  H15X19215   0.606   3.247   4.012
  170SAPE  H15Y19216   0.588   3.427   3.994
  170SAPE  C31619217   0.622   3.342   4.197
  170SAPE  H16X19218   0.659   3.425   4.261
  170SAPE  H16Y19219   0.684   3.254   4.226
  170SAPE  C31719220   0.469   3.334   4.243
  170SAPE  H17X19221   0.459   3.315   4.352
  170SAPE  H17Y19222   0.418   3.245   4.201
  170SAPE  C31819223   0.389   3.464   4.217
  170SAPE  H18X19224   0.415   3.528   4.304
  170SAPE  H18Y19225   0.278   3.463   4.210
  170SAPE  H18Z19226   0.428   3.513   4.126
  171SAPE     N19227   0.444   2.433   1.638
  171SAPE   HN119228   0.398   2.375   1.566
  171SAPE   HN219229   0.539   2.461   1.606
  171SAPE   HN319230   0.464   2.383   1.727
  171SAPE   C1219231   0.364   2.552   1.663
  171SAPE  H12A19232   0.264   2.517   1.695
  171SAPE  H12B19233   0.354   2.614   1.571
  171SAPE   C1119234   0.433   2.625   1.776
  171SAPE  H11A19235   0.369   2.716   1.788
  171SAPE  H11B19236   0.532   2.659   1.739
  171SAPE     P19237   0.332   2.540   1.999
  171SAPE   O1319238   0.278   2.671   2.036
  171SAPE   O1419239   0.227   2.446   1.946
  171SAPE   O1219240   0.446   2.545   1.893
  171SAPE   O1119241   0.400   2.473   2.125
  171SAPE    C119242   0.542   2.485   2.139
  171SAPE    HA19243   0.589   2.386   2.124
  171SAPE    HB19244   0.589   2.554   2.066
  171SAPE    C219245   0.589   2.537   2.279
  171SAPE    HS19246   0.700   2.526   2.278
  171SAPE   O2119247   0.525   2.464   2.386
  171SAPE   C2119248   0.592   2.357   2.429
  171SAPE   O2219249   0.699   2.311   2.392
  171SAPE   C2219250   0.499   2.290   2.528
  171SAPE   H2R19251   0.437   2.228   2.459
  171SAPE   H2S19252   0.566   2.225   2.588
  171SAPE    C319253   0.557   2.690   2.302
  171SAPE    HX19254   0.450   2.716   2.286
  171SAPE    HY19255   0.617   2.742   2.225
  171SAPE   O3119256   0.610   2.739   2.428
  171SAPE   C3119257   0.517   2.772   2.529
  171SAPE   O3219258   0.399   2.739   2.524
  171SAPE   C3219259   0.589   2.860   2.632
  171SAPE   H2X19260   0.562   2.963   2.600
  171SAPE   H2Y19261   0.699   2.844   2.626
  171SAPE   C2319262   0.407   2.372   2.619
  171SAPE   H3R19263   0.337   2.301   2.668
  171SAPE   H3S19264   0.349   2.441   2.555
  171SAPE   C2419265   0.477   2.450   2.730
  171SAPE   H4R19266   0.555   2.515   2.685
  171SAPE   H4S19267   0.535   2.375   2.788
  171SAPE   C2519268   0.371   2.517   2.809
  171SAPE   H5R19269   0.314   2.592   2.753
  171SAPE   C2619270   0.321   2.493   2.930
  171SAPE   H6R19271   0.251   2.565   2.975
  171SAPE   C2719272   0.366   2.388   3.026
  171SAPE   H7R19273   0.393   2.306   2.955
  171SAPE   H7S19274   0.294   2.354   3.104
  171SAPE   C2819275   0.489   2.440   3.094
  171SAPE   H8R19276   0.580   2.386   3.064
  171SAPE   C2919277   0.506   2.527   3.198
  171SAPE   H9R19278   0.611   2.534   3.231
  171SAPE  C21019279   0.391   2.597   3.262
  171SAPE  H10R19280   0.308   2.532   3.298
  171SAPE  H10S19281   0.348   2.667   3.187
  171SAPE  C21119282   0.445   2.675   3.377
  171SAPE  H11R19283   0.498   2.767   3.347
  171SAPE  C21219284   0.437   2.636   3.504
  171SAPE  H12R19285   0.473   2.705   3.582
  171SAPE  C21319286   0.370   2.514   3.558
  171SAPE  H13R19287   0.419   2.483   3.653
  171SAPE  H13S19288   0.384   2.420   3.500
  171SAPE  C21419289   0.220   2.535   3.577
  171SAPE  H14R19290   0.182   2.565   3.478
  171SAPE  C21519291   0.144   2.551   3.686
  171SAPE  H15R19292   0.035   2.565   3.683
  171SAPE  C21619293   0.201   2.547   3.825
  171SAPE  H16R19294   0.170   2.634   3.885
  171SAPE  H16S19295   0.310   2.537   3.844
  171SAPE  C21719296   0.129   2.432   3.903
  171SAPE  H17R19297   0.161   2.436   4.009
  171SAPE  H17S19298   0.142   2.330   3.860
  171SAPE  C21819299   6.854   2.458   3.915
  171SAPE  H18R19300   6.809   2.378   3.977
  171SAPE  H18S19301   6.812   2.438   3.813
  171SAPE  C21919302   6.806   2.596   3.968
  171SAPE  H19R19303   6.695   2.593   3.963
  171SAPE  H19S19304   6.837   2.668   3.889
  171SAPE  C22019305   6.862   2.621   4.106
  171SAPE  H20R19306   0.079   2.671   4.098
  171SAPE  H20S19307   0.002   2.518   4.143
  171SAPE  H20T19308   6.800   2.679   4.177
  171SAPE   C3319309   0.537   2.837   2.776
  171SAPE   H3X19310   0.590   2.755   2.829
  171SAPE   H3Y19311   0.429   2.814   2.772
  171SAPE   C3419312   0.577   2.961   2.863
  171SAPE   H4X19313   0.517   3.045   2.821
  171SAPE   H4Y19314   0.683   2.982   2.839
  171SAPE   C3519315   0.541   2.950   3.012
  171SAPE   H5X19316   0.570   2.853   3.058
  171SAPE   H5Y19317   0.430   2.958   3.015
  171SAPE   C3619318   0.595   3.055   3.099
  171SAPE   H6X19319   0.538   3.150   3.098
  171SAPE   H6Y19320   0.702   3.070   3.076
  171SAPE   C3719321   0.605   3.008   3.244
  171SAPE   H7X19322   0.665   2.916   3.258
  171SAPE   H7Y19323   0.498   2.988   3.267
  171SAPE   C3819324   0.658   3.119   3.337
  171SAPE   H8X19325   0.633   3.226   3.316
  171SAPE   H8Y19326   0.768   3.116   3.323
  171SAPE   C3919327   0.630   3.094   3.481
  171SAPE   H9X19328   0.716   3.132   3.540
  171SAPE   H9Y19329   0.640   2.984   3.493
  171SAPE  C31019330   0.491   3.145   3.533
  171SAPE  H10X19331   0.410   3.094   3.476
  171SAPE  H10Y19332   0.489   3.255   3.522
  171SAPE  C31119333   0.468   3.111   3.684
  171SAPE  H11X19334   0.394   3.184   3.724
  171SAPE  H11Y19335   0.559   3.136   3.742
  171SAPE  C31219336   0.406   2.972   3.702
  171SAPE  H12X19337   0.474   2.893   3.665
  171SAPE  H12Y19338   0.314   2.975   3.639
  171SAPE  C31319339   0.353   2.942   3.847
  171SAPE  H13X19340   0.314   2.839   3.839
  171SAPE  H13Y19341   0.275   3.018   3.868
  171SAPE  C31419342   0.464   2.961   3.952
  171SAPE  H14X19343   0.536   3.046   3.944
  171SAPE  H14Y19344   0.532   2.874   3.938
  171SAPE  C31519345   0.402   2.965   4.093
  171SAPE  H15X19346   0.362   3.065   4.120
  171SAPE  H15Y19347   0.492   2.960   4.158
  171SAPE  C31619348   0.308   2.857   4.134
  171SAPE  H16X19349   0.347   2.756   4.111
  171SAPE  H16Y19350   0.213   2.864   4.078
  171SAPE  C31719351   0.282   2.864   4.286
  171SAPE  H17X19352   0.377   2.839   4.338
  171SAPE  H17Y19353   0.220   2.776   4.312
  171SAPE  C31819354   0.212   2.985   4.339
  171SAPE  H18X19355   0.269   3.080   4.336
  171SAPE  H18Y19356   0.168   2.949   4.435
  171SAPE  H18Z19357   0.119   3.002   4.281
  172SAPE     N19358   0.793   4.924   2.248
  172SAPE   HN119359   0.792   4.876   2.340
  172SAPE   HN219360   0.888   4.909   2.209
  172SAPE   HN319361   0.787   5.024   2.277
  172SAPE   C1219362   0.687   4.877   2.154
  172SAPE  H12A19363   0.699   4.769   2.130
  172SAPE  H12B19364   0.699   4.932   2.058
  172SAPE   C1119365   0.549   4.902   2.206
  172SAPE  H11A19366   0.486   4.862   2.124
  172SAPE  H11B19367   0.541   5.011   2.229
  172SAPE     P19368   0.404   4.847   2.410
  172SAPE   O1319369   0.296   4.855   2.316
  172SAPE   O1419370   0.381   4.735   2.501
  172SAPE   O1219371   0.536   4.824   2.331
  172SAPE   O1119372   0.418   4.991   2.485
  172SAPE    C119373   0.532   5.059   2.532
  172SAPE    HA19374   0.613   5.039   2.459
  172SAPE    HB19375   0.508   5.168   2.534
  172SAPE    C219376   0.576   5.009   2.677
  172SAPE    HS19377   0.613   4.904   2.675
  172SAPE   O2119378   0.465   5.017   2.766
  172SAPE   C2119379   0.383   5.123   2.776
  172SAPE   O2219380   0.391   5.227   2.715
  172SAPE   C2219381   0.271   5.078   2.869
  172SAPE   H2R19382   0.213   5.172   2.885
  172SAPE   H2S19383   0.208   5.001   2.819
  172SAPE    C319384   0.686   5.100   2.742
  172SAPE    HX19385   0.657   5.207   2.751
  172SAPE    HY19386   0.771   5.107   2.670
  172SAPE   O3119387   0.731   5.052   2.867
  172SAPE   C3119388   0.678   5.099   2.979
  172SAPE   O3219389   0.598   5.190   2.985
  172SAPE   C3219390   0.738   5.012   3.091
  172SAPE   H2X19391   0.838   5.038   3.132
  172SAPE   H2Y19392   0.736   4.911   3.047
  172SAPE   C2319393   0.319   5.006   2.996
  172SAPE   H3R19394   0.385   5.079   3.049
  172SAPE   H3S19395   0.385   4.923   2.963
  172SAPE   C2419396   0.207   4.966   3.094
  172SAPE   H4R19397   0.238   4.881   3.158
  172SAPE   H4S19398   0.116   4.933   3.039
  172SAPE   C2519399   0.172   5.084   3.184
  172SAPE   H5R19400   0.141   5.170   3.123
  172SAPE   C2619401   0.178   5.088   3.321
  172SAPE   H6R19402   0.152   5.181   3.375
  172SAPE   C2719403   0.215   4.974   3.413
  172SAPE   H7R19404   0.270   5.019   3.498
  172SAPE   H7S19405   0.282   4.898   3.366
  172SAPE   C2819406   0.088   4.910   3.460
  172SAPE   H8R19407   0.018   4.887   3.378
  172SAPE   C2919408   0.057   4.890   3.591
  172SAPE   H9R19409   6.845   4.838   3.613
  172SAPE  C21019410   0.147   4.926   3.706
  172SAPE  H10R19411   0.252   4.901   3.678
  172SAPE  H10S19412   0.121   4.851   3.783
  172SAPE  C21119413   0.122   5.063   3.757
  172SAPE  H11R19414   0.020   5.104   3.753
  172SAPE  C21219415   0.206   5.155   3.808
  172SAPE  H12R19416   0.173   5.256   3.837
  172SAPE  C21319417   0.357   5.122   3.832
  172SAPE  H13R19418   0.419   5.153   3.746
  172SAPE  H13S19419   0.370   5.013   3.849
  172SAPE  C21419420   0.411   5.198   3.950
  172SAPE  H14R19421   0.422   5.307   3.941
  172SAPE  C21519422   0.451   5.152   4.069
  172SAPE  H15R19423   0.477   5.232   4.141
  172SAPE  C21619424   0.426   5.014   4.123
  172SAPE  H16R19425   0.525   4.981   4.159
  172SAPE  H16S19426   0.402   4.953   4.033
  172SAPE  C21719427   0.326   5.003   4.241
  172SAPE  H17R19428   0.379   5.050   4.326
  172SAPE  H17S19429   0.298   4.902   4.275
  172SAPE  C21819430   0.187   5.068   4.219
  172SAPE  H18R19431   0.153   5.046   4.115
  172SAPE  H18S19432   0.201   5.178   4.215
  172SAPE  C21919433   0.073   5.023   4.310
  172SAPE  H19R19434   0.064   4.913   4.313
  172SAPE  H19S19435   6.859   5.056   4.266
  172SAPE  C22019436   0.087   5.076   4.455
  172SAPE  H20R19437   0.086   5.187   4.445
  172SAPE  H20S19438   0.194   5.052   4.477
  172SAPE  H20T19439   0.016   5.044   4.534
  172SAPE   C3319440   0.637   5.006   3.211
  172SAPE   H3X19441   0.539   4.965   3.178
  172SAPE   H3Y19442   0.619   5.104   3.261
  172SAPE   C3419443   0.681   4.910   3.321
  172SAPE   H4X19444   0.776   4.939   3.371
  172SAPE   H4Y19445   0.702   4.807   3.285
  172SAPE   C3519446   0.573   4.890   3.429
  172SAPE   H5X19447   0.483   4.857   3.373
  172SAPE   H5Y19448   0.549   4.991   3.470
  172SAPE   C3619449   0.610   4.791   3.539
  172SAPE   H6X19450   0.700   4.842   3.581
  172SAPE   H6Y19451   0.637   4.691   3.499
  172SAPE   C3719452   0.518   4.765   3.652
  172SAPE   H7X19453   0.432   4.701   3.622
  172SAPE   H7Y19454   0.487   4.869   3.680
  172SAPE   C3819455   0.595   4.725   3.782
  172SAPE   H8X19456   0.678   4.791   3.816
  172SAPE   H8Y19457   0.654   4.633   3.763
  172SAPE   C3919458   0.504   4.679   3.905
  172SAPE   H9X19459   0.428   4.602   3.881
  172SAPE   H9Y19460   0.441   4.767   3.932
  172SAPE  C31019461   0.598   4.625   4.015
  172SAPE  H10X19462   0.667   4.551   3.969
  172SAPE  H10Y19463   0.539   4.570   4.091
  172SAPE  C31119464   0.675   4.734   4.089
  172SAPE  H11X19465   0.606   4.783   4.161
  172SAPE  H11Y19466   0.714   4.812   4.021
  172SAPE  C31219467   0.786   4.673   4.167
  172SAPE  H12X19468   0.871   4.658   4.096
  172SAPE  H12Y19469   0.756   4.569   4.192
  172SAPE  C31319470   0.837   4.757   4.276
  172SAPE  H13X19471   0.760   4.768   4.356
  172SAPE  H13Y19472   0.863   4.858   4.236
  172SAPE  C31419473   0.966   4.693   4.340
  172SAPE  H14X19474   1.062   4.704   4.286
  172SAPE  H14Y19475   0.956   4.583   4.351
  172SAPE  C31519476   0.985   4.758   4.477
  172SAPE  H15X19477   0.901   4.824   4.506
  172SAPE  H15Y19478   1.077   4.820   4.469
  172SAPE  C31619479   1.020   4.664   4.589
  172SAPE  H16X19480   1.058   4.719   4.678
  172SAPE  H16Y19481   1.104   4.600   4.552
  172SAPE  C31719482   0.913   4.565   4.628
  172SAPE  H17X19483   0.914   4.490   4.546
  172SAPE  H17Y19484   0.818   4.622   4.621
  172SAPE  C31819485   0.931   4.502   4.770
  172SAPE  H18X19486   0.859   4.417   4.773
  172SAPE  H18Y19487   0.907   4.583   4.842
  172SAPE  H18Z19488   1.031   4.459   4.786
  173SLPC     N19489   5.393   6.561   6.676
  173SLPC   C1319490   5.400   6.705   6.722
  173SLPC  H13A19491   5.397   6.718   6.829
  173SLPC  H13B19492   5.495   6.752   6.704
  173SLPC  H13C19493   5.322   6.764   6.676
  173SLPC   C1419494   5.385   6.558   6.530
  173SLPC  H14A19495   5.448   6.638   6.496
  173SLPC  H14B19496   5.411   6.463   6.485
  173SLPC  H14C19497   5.284   6.587   6.506
  173SLPC   C1519498   5.272   6.497   6.734
  173SLPC  H15A19499   5.264   6.497   6.842
  173SLPC  H15B19500   5.185   6.554   6.703
  173SLPC  H15C19501   5.257   6.392   6.717
  173SLPC   C1219502   5.516   6.484   6.725
  173SLPC  H12A19503   5.601   6.549   6.709
  173SLPC  H12B19504   5.524   6.397   6.661
  173SLPC   C1119505   5.529   6.440   6.873
  173SLPC  H11A19506   5.610   6.364   6.877
  173SLPC  H11B19507   5.436   6.384   6.901
  173SLPC     P19508   5.680   6.640   6.959
  173SLPC   O1319509   5.645   6.781   6.930
  173SLPC   O1419510   5.762   6.626   7.079
  173SLPC   O1219511   5.553   6.549   6.965
  173SLPC   O1119512   5.757   6.584   6.833
  173SLPC    C119513   5.893   6.629   6.806
  173SLPC    HA19514   5.910   6.729   6.851
  173SLPC    HB19515   5.968   6.566   6.858
  173SLPC    C219516   5.909   6.647   6.654
  173SLPC    HS19517   5.843   6.732   6.628
  173SLPC   O2119518   5.875   6.518   6.594
  173SLPC   C2119519   5.820   6.537   6.468
  173SLPC   O2219520   5.775   6.647   6.437
  173SLPC   C2219521   5.828   6.403   6.389
  173SLPC   H2R19522   5.844   6.322   6.463
  173SLPC   H2S19523   5.723   6.393   6.354
  173SLPC    C319524   6.058   6.693   6.613
  173SLPC    HX19525   6.128   6.613   6.643
  173SLPC    HY19526   6.083   6.784   6.673
  173SLPC   O3119527   6.069   6.710   6.469
  173SLPC   C3119528   6.048   6.830   6.424
  173SLPC   O3219529   6.008   0.044   6.489
  173SLPC   C3219530   6.071   6.821   6.277
  173SLPC   H2X19531   6.030   6.726   6.237
  173SLPC   H2Y19532   6.181   6.823   6.262
  173SLPC   C2319533   5.933   6.405   6.279
  173SLPC   H3R19534   6.034   6.381   6.319
  173SLPC   H3S19535   5.926   6.489   6.208
  173SLPC   C2419536   5.930   6.273   6.190
  173SLPC   H4R19537   5.824   6.257   6.160
  173SLPC   H4S19538   5.963   6.192   6.259
  173SLPC   C2519539   6.009   6.280   6.060
  173SLPC   H5R19540   6.044   6.181   6.025
  173SLPC   H5S19541   6.098   6.344   6.080
  173SLPC   C2619542   5.925   6.346   5.946
  173SLPC   H6R19543   5.910   6.452   5.973
  173SLPC   H6S19544   5.833   6.285   5.932
  173SLPC   C2719545   5.996   6.350   5.810
  173SLPC   H7R19546   6.034   6.250   5.781
  173SLPC   H7S19547   6.085   6.414   5.828
  173SLPC   C2819548   5.900   6.386   5.694
  173SLPC   H8R19549   5.843   6.481   5.703
  173SLPC   H8S19550   5.835   6.296   5.696
  173SLPC   C2919551   5.972   6.378   5.559
  173SLPC   H9R19552   6.068   6.325   5.565
  173SLPC  C21019553   5.944   6.450   5.450
  173SLPC  H10R19554   5.992   6.412   5.359
  173SLPC  C21119555   5.851   6.564   5.422
  173SLPC  H11R19556   5.897   6.664   5.425
  173SLPC  H11S19557   5.774   6.556   5.502
  173SLPC  C21219558   5.783   6.532   5.289
  173SLPC  H12R19559   5.723   6.440   5.295
  173SLPC  C21319560   5.790   6.593   5.165
  173SLPC  H13R19561   5.721   6.562   5.085
  173SLPC  C21419562   5.879   6.713   5.140
  173SLPC  H14R19563   5.955   6.720   5.220
  173SLPC  H14S19564   5.814   6.803   5.147
  173SLPC  C21519565   5.939   6.711   5.000
  173SLPC  H15R19566   5.865   6.685   4.922
  173SLPC  H15S19567   6.020   6.634   5.003
  173SLPC  C21619568   5.998   6.844   4.955
  173SLPC  H16R19569   6.070   0.002   5.029
  173SLPC  H16S19570   5.917   0.034   4.932
  173SLPC  C21719571   6.087   6.831   4.827
  173SLPC  H17R19572   6.018   6.779   4.758
  173SLPC  H17S19573   6.176   6.765   4.823
  173SLPC  C21819574   6.107   0.087   4.770
  173SLPC  H18R19575   6.172   0.076   4.681
  173SLPC  H18S19576   6.161   0.159   4.835
  173SLPC  H18T19577   6.019   0.145   4.738
  173SLPC   C3319578   6.027   0.065   6.200
  173SLPC   H3X19579   6.088   0.153   6.231
  173SLPC   H3Y19580   5.921   0.095   6.219
  173SLPC   C3419581   6.042   0.047   6.053
  173SLPC   H4X19582   6.141   0.009   6.021
  173SLPC   H4Y19583   6.043   0.152   6.016
  173SLPC   C3519584   5.925   6.858   5.985
  173SLPC   H5X19585   5.830   0.032   5.998
  173SLPC   H5Y19586   5.917   6.754   6.025
  173SLPC   C3619587   5.948   6.860   5.836
  173SLPC   H6X19588   5.910   6.767   5.787
  173SLPC   H6Y19589   6.056   6.835   5.827
  173SLPC   C3719590   5.915   0.103   5.760
  173SLPC   H7X19591   5.978   0.182   5.807
  173SLPC   H7Y19592   5.809   0.132   5.770
  173SLPC   C3819593   5.946   0.093   5.611
  173SLPC   H8X19594   5.908   0.005   5.555
  173SLPC   H8Y19595   6.054   0.067   5.600
  173SLPC   C3919596   5.927   0.222   5.531
  173SLPC   H9X19597   5.989   0.304   5.574
  173SLPC   H9Y19598   5.822   0.258   5.542
  173SLPC  C31019599   5.951   0.192   5.379
  173SLPC  H10X19600   5.893   0.103   5.347
  173SLPC  H10Y19601   6.055   0.156   5.371
  173SLPC  C31119602   5.922   0.309   5.285
  173SLPC  H11X19603   5.985   0.393   5.323
  173SLPC  H11Y19604   5.816   0.340   5.297
  173SLPC  C31219605   5.952   0.286   5.140
  173SLPC  H12X19606   5.895   0.198   5.103
  173SLPC  H12Y19607   6.060   0.263   5.133
  173SLPC  C31319608   5.894   0.402   5.052
  173SLPC  H13X19609   5.975   0.477   5.060
  173SLPC  H13Y19610   5.790   0.430   5.078
  173SLPC  C31419611   5.911   0.382   4.903
  173SLPC  H14X19612   5.856   0.290   4.873
  173SLPC  H14Y19613   6.020   0.389   4.884
  173SLPC  C31519614   5.869   0.495   4.808
  173SLPC  H15X19615   5.909   0.489   4.705
  173SLPC  H15Y19616   5.902   0.596   4.841
  173SLPC  C31619617   5.715   0.503   4.789
  173SLPC  H16X19618   5.679   0.603   4.757
  173SLPC  H16Y19619   5.670   0.477   4.887
  173SLPC  C31719620   5.660   0.395   4.685
  173SLPC  H17X19621   5.716   0.300   4.697
  173SLPC  H17Y19622   5.686   0.434   4.584
  173SLPC  C31819623   5.510   0.370   4.682
  173SLPC  H18X19624   5.475   0.338   4.783
  173SLPC  H18Y19625   5.479   0.290   4.613
  173SLPC  H18Z19626   5.456   0.465   4.662
  174SLPC     N19627   3.486   1.906   7.211
  174SLPC   C1319628   3.545   2.046   7.240
  174SLPC  H13A19629   3.537   2.109   7.153
  174SLPC  H13B19630   3.496   2.100   7.319
  174SLPC  H13C19631   3.651   2.043   7.264
  174SLPC   C1419632   3.340   1.930   7.188
  174SLPC  H14A19633   3.331   2.006   7.112
  174SLPC  H14B19634   3.283   1.844   7.156
  174SLPC  H14C19635   3.301   1.970   7.281
  174SLPC   C1519636   3.483   1.817   7.332
  174SLPC  H15A19637   3.444   1.870   7.418
  174SLPC  H15B19638   3.427   1.725   7.326
  174SLPC  H15C19639   3.580   1.775   7.356
  174SLPC   C1219640   3.550   1.841   7.089
  174SLPC  H12A19641   3.506   1.745   7.067
  174SLPC  H12B19642   3.648   1.818   7.129
  174SLPC   C1119643   3.561   1.929   6.965
  174SLPC  H11A19644   3.609   2.026   6.990
  174SLPC  H11B19645   3.456   1.949   6.935
  174SLPC     P19646   3.568   1.764   6.768
  174SLPC   O1319647   3.654   1.713   6.664
  174SLPC   O1419648   3.488   1.667   6.849
  174SLPC   O1219649   3.641   1.857   6.870
  174SLPC   O1119650   3.466   1.848   6.695
  174SLPC    C119651   3.508   1.970   6.629
  174SLPC    HA19652   3.553   2.042   6.701
  174SLPC    HB19653   3.585   1.942   6.554
  174SLPC    C219654   3.397   2.040   6.552
  174SLPC    HS19655   3.300   2.031   6.605
  174SLPC   O2119656   3.378   1.980   6.419
  174SLPC   C2119657   3.267   2.028   6.360
  174SLPC   O2219658   3.191   2.120   6.399
  174SLPC   C2219659   3.243   1.952   6.232
  174SLPC   H2R19660   3.337   1.935   6.175
  174SLPC   H2S19661   3.224   1.847   6.261
  174SLPC    C319662   3.433   2.190   6.545
  174SLPC    HX19663   3.453   2.226   6.648
  174SLPC    HY19664   3.348   2.248   6.504
  174SLPC   O3119665   3.560   2.210   6.466
  174SLPC   C3119666   3.568   2.306   6.370
  174SLPC   O3219667   3.478   2.393   6.361
  174SLPC   C3219668   3.688   2.307   6.280
  174SLPC   H2X19669   3.756   2.390   6.313
  174SLPC   H2Y19670   3.645   2.342   6.184
  174SLPC   C2319671   3.133   2.018   6.142
  174SLPC   H3R19672   3.137   2.129   6.138
  174SLPC   H3S19673   3.031   2.007   6.186
  174SLPC   C2419674   3.124   1.957   5.999
  174SLPC   H4R19675   3.025   1.973   5.950
  174SLPC   H4S19676   3.118   1.846   5.996
  174SLPC   C2519677   3.238   2.001   5.908
  174SLPC   H5R19678   3.332   1.966   5.955
  174SLPC   H5S19679   3.248   2.108   5.879
  174SLPC   C2619680   3.235   1.929   5.766
  174SLPC   H6R19681   3.146   1.953   5.705
  174SLPC   H6S19682   3.228   1.820   5.787
  174SLPC   C2719683   3.365   1.952   5.685
  174SLPC   H7R19684   3.453   1.937   5.750
  174SLPC   H7S19685   3.367   2.051   5.634
  174SLPC   C2819686   3.391   1.855   5.562
  174SLPC   H8R19687   3.418   1.762   5.618
  174SLPC   H8S19688   3.480   1.893   5.508
  174SLPC   C2919689   3.276   1.818   5.478
  174SLPC   H9R19690   3.205   1.743   5.517
  174SLPC  C21019691   3.261   1.854   5.351
  174SLPC  H10R19692   3.163   1.839   5.304
  174SLPC  C21119693   3.356   1.945   5.276
  174SLPC  H11R19694   3.398   2.023   5.342
  174SLPC  H11S19695   3.293   1.995   5.199
  174SLPC  C21219696   3.471   1.878   5.206
  174SLPC  H12R19697   3.545   1.852   5.283
  174SLPC  C21319698   3.502   1.864   5.078
  174SLPC  H13R19699   3.596   1.809   5.067
  174SLPC  C21419700   3.421   1.893   4.948
  174SLPC  H14R19701   3.497   1.939   4.881
  174SLPC  H14S19702   3.336   1.957   4.981
  174SLPC  C21519703   3.375   1.766   4.872
  174SLPC  H15R19704   3.322   1.708   4.951
  174SLPC  H15S19705   3.462   1.710   4.832
  174SLPC  C21619706   3.270   1.800   4.760
  174SLPC  H16R19707   3.314   1.861   4.678
  174SLPC  H16S19708   3.196   1.864   4.812
  174SLPC  C21719709   3.209   1.680   4.693
  174SLPC  H17R19710   3.184   1.600   4.767
  174SLPC  H17S19711   3.275   1.627   4.621
  174SLPC  C21819712   3.080   1.719   4.615
  174SLPC  H18R19713   3.007   1.747   4.695
  174SLPC  H18S19714   3.036   1.630   4.567
  174SLPC  H18T19715   3.086   1.805   4.545
  174SLPC   C3319716   3.760   2.170   6.272
  174SLPC   H3X19717   3.686   2.088   6.262
  174SLPC   H3Y19718   3.819   2.138   6.360
  174SLPC   C3419719   3.851   2.155   6.153
  174SLPC   H4X19720   3.889   2.051   6.147
  174SLPC   H4Y19721   3.942   2.218   6.163
  174SLPC   C3519722   3.781   2.181   6.014
  174SLPC   H5X19723   3.772   2.291   6.006
  174SLPC   H5Y19724   3.682   2.130   6.019
  174SLPC   C3619725   3.854   2.136   5.885
  174SLPC   H6X19726   3.871   2.028   5.904
  174SLPC   H6Y19727   3.957   2.172   5.865
  174SLPC   C3719728   3.761   2.160   5.767
  174SLPC   H7X19729   3.753   2.270   5.762
  174SLPC   H7Y19730   3.656   2.125   5.781
  174SLPC   C3819731   3.820   2.092   5.635
  174SLPC   H8X19732   3.798   1.983   5.639
  174SLPC   H8Y19733   3.930   2.104   5.626
  174SLPC   C3919734   3.755   2.145   5.509
  174SLPC   H9X19735   3.792   2.249   5.493
  174SLPC   H9Y19736   3.645   2.154   5.522
  174SLPC  C31019737   3.786   2.067   5.378
  174SLPC  H10X19738   3.741   1.966   5.387
  174SLPC  H10Y19739   3.896   2.055   5.371
  174SLPC  C31119740   3.746   2.134   5.251
  174SLPC  H11X19741   3.648   2.183   5.268
  174SLPC  H11Y19742   3.741   2.052   5.176
  174SLPC  C31219743   3.840   2.246   5.214
  174SLPC  H12X19744   3.945   2.211   5.214
  174SLPC  H12Y19745   3.846   2.327   5.289
  174SLPC  C31319746   3.814   2.304   5.075
  174SLPC  H13X19747   3.884   2.388   5.055
  174SLPC  H13Y19748   3.713   2.350   5.066
  174SLPC  C31419749   3.859   2.205   4.964
  174SLPC  H14X19750   3.791   2.117   4.973
  174SLPC  H14Y19751   3.961   2.178   4.998
  174SLPC  C31519752   3.857   2.278   4.829
  174SLPC  H15X19753   3.916   2.370   4.847
  174SLPC  H15Y19754   3.751   2.303   4.808
  174SLPC  C31619755   3.938   2.213   4.712
  174SLPC  H16X19756   3.885   2.118   4.687
  174SLPC  H16Y19757   4.045   2.196   4.736
  174SLPC  C31719758   3.934   2.284   4.577
  174SLPC  H17X19759   3.970   2.388   4.590
  174SLPC  H17Y19760   3.828   2.290   4.545
  174SLPC  C31819761   4.008   2.218   4.463
  174SLPC  H18X19762   4.037   2.289   4.382
  174SLPC  H18Y19763   3.952   2.136   4.413
  174SLPC  H18Z19764   4.105   2.178   4.500
  175SLPC     N19765   5.870   3.062   7.072
  175SLPC   C1319766   5.979   2.967   7.123
  175SLPC  H13A19767   6.071   3.019   7.141
  175SLPC  H13B19768   5.951   2.922   7.217
  175SLPC  H13C19769   5.997   2.898   7.042
  175SLPC   C1419770   5.864   3.180   7.172
  175SLPC  H14A19771   5.775   3.240   7.161
  175SLPC  H14B19772   5.863   3.141   7.273
  175SLPC  H14C19773   5.954   3.240   7.171
  175SLPC   C1519774   5.736   2.990   7.073
  175SLPC  H15A19775   5.732   2.903   7.009
  175SLPC  H15B19776   5.724   2.954   7.174
  175SLPC  H15C19777   5.657   3.059   7.048
  175SLPC   C1219778   5.899   3.113   6.934
  175SLPC  H12A19779   5.977   3.188   6.934
  175SLPC  H12B19780   5.811   3.172   6.910
  175SLPC   C1119781   5.941   3.024   6.814
  175SLPC  H11A19782   5.927   3.082   6.720
  175SLPC  H11B19783   5.874   2.937   6.800
  175SLPC     P19784   6.204   3.047   6.814
  175SLPC   O1319785   6.191   3.169   6.897
  175SLPC   O1419786   6.322   2.956   6.844
  175SLPC   O1219787   6.069   2.968   6.832
  175SLPC   O1119788   6.193   3.084   6.653
  175SLPC    C119789   6.180   2.963   6.574
  175SLPC    HA19790   6.284   2.923   6.572
  175SLPC    HB19791   6.134   2.869   6.613
  175SLPC    C219792   6.134   2.986   6.427
  175SLPC    HS19793   6.115   2.888   6.379
  175SLPC   O2119794   6.237   3.057   6.349
  175SLPC   C2119795   6.340   2.979   6.306
  175SLPC   O2219796   6.350   2.858   6.321
  175SLPC   C2219797   6.434   3.072   6.237
  175SLPC   H2R19798   6.405   3.174   6.270
  175SLPC   H2S19799   6.536   3.045   6.272
  175SLPC    C319800   5.993   3.057   6.424
  175SLPC    HX19801   6.003   3.149   6.486
  175SLPC    HY19802   5.910   2.995   6.464
  175SLPC   O3119803   5.961   3.094   6.287
  175SLPC   C3119804   5.954   3.225   6.256
  175SLPC   O3219805   5.992   3.317   6.328
  175SLPC   C3219806   5.911   3.237   6.113
  175SLPC   H2X19807   5.895   3.345   6.090
  175SLPC   H2Y19808   5.811   3.190   6.108
  175SLPC   C2319809   6.418   3.059   6.082
  175SLPC   H3R19810   6.327   3.118   6.057
  175SLPC   H3S19811   6.397   2.954   6.052
  175SLPC   C2419812   6.550   3.097   6.001
  175SLPC   H4R19813   6.624   3.013   6.000
  175SLPC   H4S19814   6.603   3.182   6.048
  175SLPC   C2519815   6.531   3.144   5.855
  175SLPC   H5R19816   6.478   3.068   5.793
  175SLPC   H5S19817   6.629   3.163   5.805
  175SLPC   C2619818   6.457   3.275   5.824
  175SLPC   H6R19819   6.487   3.335   5.912
  175SLPC   H6S19820   6.346   3.267   5.833
  175SLPC   C2719821   6.496   3.334   5.682
  175SLPC   H7R19822   6.594   3.385   5.692
  175SLPC   H7S19823   6.424   3.416   5.661
  175SLPC   C2819824   6.478   3.239   5.563
  175SLPC   H8R19825   6.388   3.175   5.572
  175SLPC   H8S19826   6.556   3.160   5.563
  175SLPC   C2919827   6.495   3.313   5.435
  175SLPC   H9R19828   6.593   3.363   5.429
  175SLPC  C21019829   6.402   3.328   5.335
  175SLPC  H10R19830   6.418   3.392   5.247
  175SLPC  C21119831   6.260   3.265   5.346
  175SLPC  H11R19832   6.223   3.241   5.448
  175SLPC  H11S19833   6.256   3.164   5.299
  175SLPC  C21219834   6.158   3.365   5.291
  175SLPC  H12R19835   6.141   3.449   5.360
  175SLPC  C21319836   6.076   3.337   5.189
  175SLPC  H13R19837   5.993   3.404   5.160
  175SLPC  C21419838   6.084   3.220   5.093
  175SLPC  H14R19839   5.995   3.156   5.110
  175SLPC  H14S19840   6.168   3.152   5.118
  175SLPC  C21519841   6.077   3.250   4.946
  175SLPC  H15R19842   6.165   3.304   4.903
  175SLPC  H15S19843   5.987   3.310   4.922
  175SLPC  C21619844   6.062   3.118   4.860
  175SLPC  H16R19845   5.961   3.073   4.877
  175SLPC  H16S19846   6.141   3.056   4.906
  175SLPC  C21719847   6.076   3.145   4.709
  175SLPC  H17R19848   6.182   3.135   4.678
  175SLPC  H17S19849   6.049   3.251   4.690
  175SLPC  C21819850   6.006   3.044   4.617
  175SLPC  H18R19851   6.027   3.058   4.509
  175SLPC  H18S19852   5.894   3.045   4.616
  175SLPC  H18T19853   6.037   2.942   4.647
  175SLPC   C3319854   6.019   3.166   6.028
  175SLPC   H3X19855   6.032   3.060   6.058
  175SLPC   H3Y19856   6.111   3.228   6.043
  175SLPC   C3419857   5.990   3.153   5.874
  175SLPC   H4X19858   5.900   3.088   5.876
  175SLPC   H4Y19859   6.073   3.096   5.828
  175SLPC   C3519860   5.984   3.287   5.810
  175SLPC   H5X19861   6.065   3.352   5.850
  175SLPC   H5Y19862   5.893   3.336   5.849
  175SLPC   C3619863   5.987   3.272   5.663
  175SLPC   H6X19864   6.054   3.190   5.628
  175SLPC   H6Y19865   6.025   3.370   5.626
  175SLPC   C3719866   5.849   3.246   5.594
  175SLPC   H7X19867   5.777   3.323   5.629
  175SLPC   H7Y19868   5.813   3.148   5.630
  175SLPC   C3819869   5.856   3.264   5.443
  175SLPC   H8X19870   5.919   3.177   5.413
  175SLPC   H8Y19871   5.903   3.362   5.422
  175SLPC   C3919872   5.716   3.262   5.382
  175SLPC   H9X19873   5.664   3.343   5.437
  175SLPC   H9Y19874   5.667   3.169   5.418
  175SLPC  C31019875   5.720   3.281   5.234
  175SLPC  H10X19876   5.746   3.183   5.188
  175SLPC  H10Y19877   5.794   3.361   5.210
  175SLPC  C31119878   5.587   3.327   5.179
  175SLPC  H11X19879   5.544   3.417   5.229
  175SLPC  H11Y19880   5.523   3.248   5.223
  175SLPC  C31219881   5.576   3.322   5.024
  175SLPC  H12X19882   5.467   3.341   5.011
  175SLPC  H12Y19883   5.599   3.219   4.991
  175SLPC  C31319884   5.667   3.423   4.953
  175SLPC  H13X19885   5.772   3.391   4.946
  175SLPC  H13Y19886   5.665   3.527   4.994
  175SLPC  C31419887   5.639   3.435   4.804
  175SLPC  H14X19888   5.679   3.528   4.760
  175SLPC  H14Y19889   5.532   3.416   4.781
  175SLPC  C31519890   5.720   3.328   4.723
  175SLPC  H15X19891   5.709   3.226   4.765
  175SLPC  H15Y19892   5.828   3.353   4.716
  175SLPC  C31619893   5.661   3.325   4.581
  175SLPC  H16X19894   5.696   3.421   4.536
  175SLPC  H16Y19895   5.551   3.313   4.595
  175SLPC  C31719896   5.709   3.206   4.492
  175SLPC  H17X19897   5.714   3.110   4.549
  175SLPC  H17Y19898   5.816   3.222   4.465
  175SLPC  C31819899   5.641   3.198   4.358
  175SLPC  H18X19900   5.682   3.103   4.318
  175SLPC  H18Y19901   5.662   3.287   4.296
  175SLPC  H18Z19902   5.536   3.177   4.387
  176SLPC     N19903   5.347   0.369   6.619
  176SLPC   C1319904   5.278   0.309   6.499
  176SLPC  H13A19905   5.215   0.232   6.541
  176SLPC  H13B19906   5.231   0.385   6.439
  176SLPC  H13C19907   5.340   0.250   6.433
  176SLPC   C1419908   5.411   0.260   6.702
  176SLPC  H14A19909   5.345   0.188   6.749
  176SLPC  H14B19910   5.467   0.196   6.636
  176SLPC  H14C19911   5.476   0.306   6.774
  176SLPC   C1519912   5.249   0.440   6.695
  176SLPC  H15A19913   5.292   0.483   6.784
  176SLPC  H15B19914   5.206   0.517   6.632
  176SLPC  H15C19915   5.174   0.374   6.734
  176SLPC   C1219916   5.450   0.469   6.570
  176SLPC  H12A19917   5.410   0.528   6.489
  176SLPC  H12B19918   5.535   0.418   6.527
  176SLPC   C1119919   5.503   0.563   6.677
  176SLPC  H11A19920   5.416   0.621   6.714
  176SLPC  H11B19921   5.581   0.633   6.638
  176SLPC     P19922   5.699   0.432   6.790
  176SLPC   O1319923   5.778   0.557   6.821
  176SLPC   O1419924   5.706   0.314   6.879
  176SLPC   O1219925   5.554   0.490   6.788
  176SLPC   O1119926   5.718   0.387   6.638
  176SLPC    C119927   5.825   0.433   6.558
  176SLPC    HA19928   5.849   0.537   6.590
  176SLPC    HB19929   5.918   0.373   6.571
  176SLPC    C219930   5.776   0.417   6.413
  176SLPC    HS19931   5.872   0.413   6.357
  176SLPC   O2119932   5.690   0.523   6.370
  176SLPC   C2119933   5.746   0.637   6.343
  176SLPC   O2219934   5.862   0.668   6.360
  176SLPC   C2219935   5.638   0.723   6.271
  176SLPC   H2R19936   5.584   0.652   6.204
  176SLPC   H2S19937   5.565   0.756   6.348
  176SLPC    C319938   5.707   0.275   6.394
  176SLPC    HX19939   5.608   0.265   6.444
  176SLPC    HY19940   5.778   0.208   6.448
  176SLPC   O3119941   5.711   0.238   6.256
  176SLPC   C3119942   5.605   0.265   6.190
  176SLPC   O3219943   5.505   0.313   6.234
  176SLPC   C3219944   5.623   0.225   6.041
  176SLPC   H2X19945   5.628   0.115   6.025
  176SLPC   H2Y19946   5.719   0.264   6.001
  176SLPC   C2319947   5.714   0.839   6.195
  176SLPC   H3R19948   5.780   0.807   6.112
  176SLPC   H3S19949   5.776   0.906   6.259
  176SLPC   C2419950   5.604   0.927   6.140
  176SLPC   H4R19951   5.536   0.940   6.227
  176SLPC   H4S19952   5.554   0.858   6.069
  176SLPC   C2519953   5.650   1.058   6.081
  176SLPC   H5R19954   5.729   1.103   6.144
  176SLPC   H5S19955   5.560   1.124   6.079
  176SLPC   C2619956   5.710   1.045   5.939
  176SLPC   H6R19957   5.625   1.024   5.870
  176SLPC   H6S19958   5.780   0.961   5.922
  176SLPC   C2719959   5.768   1.179   5.897
  176SLPC   H7R19960   5.865   1.192   5.949
  176SLPC   H7S19961   5.696   1.262   5.914
  176SLPC   C2819962   5.800   1.190   5.745
  176SLPC   H8R19963   5.709   1.204   5.683
  176SLPC   H8S19964   5.858   1.101   5.716
  176SLPC   C2919965   5.890   1.308   5.721
  176SLPC   H9R19966   5.895   1.379   5.805
  176SLPC  C21019967   5.991   1.308   5.631
  176SLPC  H10R19968   6.051   1.399   5.618
  176SLPC  C21119969   6.015   1.211   5.525
  176SLPC  H11R19970   5.970   1.254   5.433
  176SLPC  H11S19971   5.956   1.121   5.550
  176SLPC  C21219972   6.159   1.180   5.501
  176SLPC  H12R19973   6.212   1.264   5.453
  176SLPC  C21319974   6.228   1.074   5.538
  176SLPC  H13R19975   6.333   1.056   5.510
  176SLPC  C21419976   6.164   0.969   5.620
  176SLPC  H14R19977   6.213   0.871   5.599
  176SLPC  H14S19978   6.061   0.954   5.582
  176SLPC  C21519979   6.182   0.994   5.778
  176SLPC  H15R19980   6.132   1.090   5.801
  176SLPC  H15S19981   6.290   1.006   5.800
  176SLPC  C21619982   6.119   0.889   5.870
  176SLPC  H16R19983   6.100   0.794   5.817
  176SLPC  H16S19984   6.015   0.922   5.892
  176SLPC  C21719985   6.182   0.852   6.012
  176SLPC  H17R19986   6.262   0.776   5.997
  176SLPC  H17S19987   6.104   0.796   6.067
  176SLPC  C21819988   6.224   0.972   6.101
  176SLPC  H18R19989   6.231   0.949   6.210
  176SLPC  H18S19990   6.149   1.054   6.097
  176SLPC  H18T19991   6.318   1.018   6.064
  176SLPC   C3319992   5.509   0.271   5.947
  176SLPC   H3X19993   5.408   0.246   5.984
  176SLPC   H3Y19994   5.522   0.218   5.850
  176SLPC   C3419995   5.504   0.420   5.905
  176SLPC   H4X19996   5.476   0.478   5.995
  176SLPC   H4Y19997   5.426   0.448   5.830
  176SLPC   C3519998   5.638   0.470   5.858
  176SLPC   H5X19999   5.678   0.407   5.775
  176SLPC   H5Y20000   5.711   0.469   5.942
  176SLPC   C3620001   5.632   0.620   5.818
  176SLPC   H6X20002   5.738   0.649   5.798
  176SLPC   H6Y20003   5.585   0.685   5.895
  176SLPC   C3720004   5.563   0.665   5.688
  176SLPC   H7X20005   5.455   0.642   5.701
  176SLPC   H7Y20006   5.606   0.600   5.609
  176SLPC   C3820007   5.588   0.811   5.662
  176SLPC   H8X20008   5.697   0.824   5.647
  176SLPC   H8Y20009   5.558   0.863   5.756
  176SLPC   C3920010   5.509   0.879   5.549
  176SLPC   H9X20011   5.400   0.879   5.571
  176SLPC   H9Y20012   5.521   0.822   5.454
  176SLPC  C31020013   5.576   1.016   5.517
  176SLPC  H10X20014   5.687   1.008   5.525
  176SLPC  H10Y20015   5.539   1.085   5.596
  176SLPC  C31120016   5.553   1.065   5.377
  176SLPC  H11X20017   5.445   1.085   5.356
  176SLPC  H11Y20018   5.582   0.989   5.302
  176SLPC  C31220019   5.636   1.197   5.348
  176SLPC  H12X20020   5.742   1.168   5.360
  176SLPC  H12Y20021   5.613   1.281   5.416
  176SLPC  C31320022   5.613   1.241   5.203
  176SLPC  H13X20023   5.666   1.163   5.143
  176SLPC  H13Y20024   5.671   1.334   5.186
  176SLPC  C31420025   5.468   1.288   5.161
  176SLPC  H14X20026   5.425   1.368   5.226
  176SLPC  H14Y20027   5.404   1.197   5.166
  176SLPC  C31520028   5.460   1.356   5.020
  176SLPC  H15X20029   5.503   1.456   5.044
  176SLPC  H15Y20030   5.355   1.370   4.988
  176SLPC  C31620031   5.551   1.281   4.914
  176SLPC  H16X20032   5.538   1.172   4.932
  176SLPC  H16Y20033   5.656   1.309   4.937
  176SLPC  C31720034   5.516   1.312   4.762
  176SLPC  H17X20035   5.507   1.422   4.757
  176SLPC  H17Y20036   5.414   1.269   4.751
  176SLPC  C31820037   5.615   1.250   4.668
  176SLPC  H18X20038   5.587   1.278   4.565
  176SLPC  H18Y20039   5.601   1.140   4.672
  176SLPC  H18Z20040   5.717   1.268   4.709
  177SLPC     N20041   6.079   1.034   6.862
  177SLPC   C1320042   5.936   0.996   6.859
  177SLPC  H13A20043   5.912   0.985   6.754
  177SLPC  H13B20044   5.922   0.909   6.923
  177SLPC  H13C20045   5.876   1.075   6.901
  177SLPC   C1420046   6.160   0.921   6.800
  177SLPC  H14A20047   6.158   0.932   6.692
  177SLPC  H14B20048   6.263   0.922   6.832
  177SLPC  H14C20049   6.123   0.822   6.818
  177SLPC   C1520050   6.120   1.042   7.004
  177SLPC  H15A20051   6.078   0.967   7.070
  177SLPC  H15B20052   6.227   1.038   7.018
  177SLPC  H15C20053   6.080   1.130   7.052
  177SLPC   C1220054   6.109   1.166   6.796
  177SLPC  H12A20055   6.209   1.189   6.827
  177SLPC  H12B20056   6.046   1.237   6.849
  177SLPC   C1120057   6.078   1.198   6.640
  177SLPC  H11A20058   6.127   1.121   6.576
  177SLPC  H11B20059   6.120   1.299   6.620
  177SLPC     P20060   5.838   1.293   6.691
  177SLPC   O1320061   5.719   1.216   6.733
  177SLPC   O1420062   5.914   1.366   6.795
  177SLPC   O1220063   5.934   1.191   6.619
  177SLPC   O1120064   5.796   1.400   6.579
  177SLPC    C120065   5.911   1.466   6.522
  177SLPC    HA20066   5.982   1.495   6.602
  177SLPC    HB20067   5.967   1.397   6.454
  177SLPC    C220068   5.872   1.588   6.432
  177SLPC    HS20069   5.835   1.676   6.489
  177SLPC   O2120070   5.773   1.547   6.331
  177SLPC   C2120071   5.721   1.647   6.267
  177SLPC   O2220072   5.721   1.764   6.299
  177SLPC   C2220073   5.655   1.592   6.135
  177SLPC   H2R20074   5.710   1.504   6.097
  177SLPC   H2S20075   5.552   1.558   6.157
  177SLPC    C320076   6.010   1.631   6.358
  177SLPC    HX20077   6.032   1.536   6.304
  177SLPC    HY20078   6.101   1.651   6.418
  177SLPC   O3120079   5.997   1.728   6.250
  177SLPC   C3120080   6.050   1.850   6.273
  177SLPC   O3220081   6.123   1.875   6.368
  177SLPC   C3220082   6.004   1.953   6.167
  177SLPC   H2X20083   5.893   1.958   6.175
  177SLPC   H2Y20084   6.035   1.920   6.066
  177SLPC   C2320085   5.656   1.692   6.016
  177SLPC   H3R20086   5.758   1.730   5.992
  177SLPC   H3S20087   5.598   1.783   6.041
  177SLPC   C2420088   5.579   1.622   5.900
  177SLPC   H4R20089   5.476   1.593   5.928
  177SLPC   H4S20090   5.644   1.533   5.885
  177SLPC   C2520091   5.583   1.704   5.768
  177SLPC   H5R20092   5.676   1.764   5.772
  177SLPC   H5S20093   5.504   1.781   5.776
  177SLPC   C2620094   5.574   1.632   5.631
  177SLPC   H6R20095   5.469   1.596   5.637
  177SLPC   H6S20096   5.644   1.548   5.613
  177SLPC   C2720097   5.591   1.734   5.509
  177SLPC   H7R20098   5.697   1.767   5.504
  177SLPC   H7S20099   5.539   1.832   5.511
  177SLPC   C2820100   5.554   1.656   5.381
  177SLPC   H8R20101   5.444   1.642   5.374
  177SLPC   H8S20102   5.616   1.564   5.388
  177SLPC   C2920103   5.573   1.747   5.260
  177SLPC   H9R20104   5.499   1.829   5.263
  177SLPC  C21020105   5.657   1.731   5.152
  177SLPC  H10R20106   5.654   1.820   5.088
  177SLPC  C21120107   5.748   1.608   5.135
  177SLPC  H11R20108   5.703   1.551   5.051
  177SLPC  H11S20109   5.759   1.542   5.224
  177SLPC  C21220110   5.881   1.659   5.098
  177SLPC  H12R20111   5.953   1.676   5.179
  177SLPC  C21320112   5.917   1.688   4.970
  177SLPC  H13R20113   6.024   1.713   4.963
  177SLPC  C21420114   5.839   1.695   4.845
  177SLPC  H14R20115   5.877   1.776   4.778
  177SLPC  H14S20116   5.739   1.726   4.880
  177SLPC  C21520117   5.813   1.564   4.776
  177SLPC  H15R20118   5.744   1.580   4.691
  177SLPC  H15S20119   5.749   1.500   4.840
  177SLPC  C21620120   5.936   1.492   4.724
  177SLPC  H16R20121   5.903   1.399   4.675
  177SLPC  H16S20122   6.001   1.473   4.812
  177SLPC  C21720123   6.001   1.577   4.613
  177SLPC  H17R20124   6.020   1.683   4.641
  177SLPC  H17S20125   5.933   1.576   4.525
  177SLPC  C21820126   6.137   1.525   4.571
  177SLPC  H18R20127   6.180   1.592   4.493
  177SLPC  H18S20128   6.120   1.427   4.522
  177SLPC  H18T20129   6.214   1.505   4.649
  177SLPC   C3320130   6.076   2.086   6.196
  177SLPC   H3X20131   6.184   2.062   6.190
  177SLPC   H3Y20132   6.051   2.128   6.296
  177SLPC   C3420133   6.059   2.191   6.077
  177SLPC   H4X20134   6.115   2.286   6.093
  177SLPC   H4Y20135   5.953   2.219   6.091
  177SLPC   C3520136   6.094   2.146   5.934
  177SLPC   H5X20137   6.017   2.071   5.906
  177SLPC   H5Y20138   6.194   2.098   5.942
  177SLPC   C3620139   6.096   2.264   5.845
  177SLPC   H6X20140   6.181   2.329   5.876
  177SLPC   H6Y20141   6.010   2.334   5.843
  177SLPC   C3720142   6.114   2.239   5.696
  177SLPC   H7X20143   6.020   2.212   5.644
  177SLPC   H7Y20144   6.195   2.165   5.680
  177SLPC   C3820145   6.160   2.369   5.619
  177SLPC   H8X20146   6.259   2.396   5.662
  177SLPC   H8Y20147   6.091   2.455   5.633
  177SLPC   C3920148   6.178   2.333   5.465
  177SLPC   H9X20149   6.088   2.276   5.432
  177SLPC   H9Y20150   6.268   2.271   5.445
  177SLPC  C31020151   6.172   2.458   5.363
  177SLPC  H10X20152   6.266   2.517   5.370
  177SLPC  H10Y20153   6.096   2.526   5.405
  177SLPC  C31120154   6.140   2.408   5.224
  177SLPC  H11X20155   6.043   2.355   5.220
  177SLPC  H11Y20156   6.227   2.344   5.200
  177SLPC  C31220157   6.128   2.517   5.114
  177SLPC  H12X20158   6.230   2.562   5.117
  177SLPC  H12Y20159   6.059   2.597   5.149
  177SLPC  C31320160   6.115   2.467   4.969
  177SLPC  H13X20161   6.027   2.399   4.961
  177SLPC  H13Y20162   6.205   2.402   4.958
  177SLPC  C31420163   6.108   2.580   4.864
  177SLPC  H14X20164   6.194   2.650   4.871
  177SLPC  H14Y20165   6.021   2.646   4.885
  177SLPC  C31520166   6.095   2.526   4.716
  177SLPC  H15X20167   6.042   2.429   4.716
  177SLPC  H15Y20168   6.203   2.500   4.703
  177SLPC  C31620169   6.050   2.635   4.615
  177SLPC  H16X20170   6.123   2.717   4.635
  177SLPC  H16Y20171   5.950   2.679   4.633
  177SLPC  C31720172   6.054   2.587   4.468
  177SLPC  H17X20173   5.989   2.498   4.463
  177SLPC  H17Y20174   6.158   2.560   4.441
  177SLPC  C31820175   6.020   2.695   4.367
  177SLPC  H18X20176   6.002   2.649   4.268
  177SLPC  H18Y20177   6.099   2.774   4.362
  177SLPC  H18Z20178   5.926   2.744   4.398
  178SLPC     N20179   2.375   0.056   6.515
  178SLPC   C1320180   2.265   0.147   6.536
  178SLPC  H13A20181   2.199   0.095   6.605
  178SLPC  H13B20182   2.303   0.237   6.580
  178SLPC  H13C20183   2.216   0.176   6.444
  178SLPC   C1420184   2.442   0.036   6.643
  178SLPC  H14A20185   2.474   0.130   6.685
  178SLPC  H14B20186   2.388   6.861   6.717
  178SLPC  H14C20187   2.534   6.868   6.617
  178SLPC   C1520188   2.472   0.124   6.420
  178SLPC  H15A20189   2.545   0.053   6.384
  178SLPC  H15B20190   2.422   0.161   6.331
  178SLPC  H15C20191   2.520   0.207   6.467
  178SLPC   C1220192   2.328   6.805   6.457
  178SLPC  H12A20193   2.415   6.745   6.436
  178SLPC  H12B20194   2.283   6.814   6.359
  178SLPC   C1120195   2.226   6.725   6.547
  178SLPC  H11A20196   2.177   6.643   6.490
  178SLPC  H11B20197   2.141   6.790   6.577
  178SLPC     P20198   2.365   6.538   6.687
  178SLPC   O1320199   2.493   6.550   6.612
  178SLPC   O1420200   2.374   6.502   6.828
  178SLPC   O1220201   2.290   6.681   6.669
  178SLPC   O1120202   2.262   6.432   6.618
  178SLPC    C120203   2.309   6.317   6.551
  178SLPC    HA20204   2.390   6.269   6.610
  178SLPC    HB20205   2.222   6.248   6.548
  178SLPC    C220206   2.360   6.345   6.411
  178SLPC    HS20207   2.443   6.416   6.433
  178SLPC   O2120208   2.254   6.408   6.337
  178SLPC   C2120209   2.280   6.512   6.270
  178SLPC   O2220210   2.389   6.568   6.273
  178SLPC   C2220211   2.169   6.547   6.172
  178SLPC   H2R20212   2.141   6.456   6.116
  178SLPC   H2S20213   2.081   6.582   6.229
  178SLPC    C320214   2.410   6.221   6.344
  178SLPC    HX20215   2.328   6.146   6.346
  178SLPC    HY20216   2.481   6.180   6.419
  178SLPC   O3120217   2.465   6.245   6.214
  178SLPC   C3120218   2.594   6.280   6.208
  178SLPC   O3220219   2.666   6.303   6.309
  178SLPC   C3220220   2.639   6.281   6.065
  178SLPC   H2X20221   2.703   6.191   6.058
  178SLPC   H2Y20222   2.698   6.373   6.044
  178SLPC   C2320223   2.189   6.658   6.065
  178SLPC   H3R20224   2.243   6.739   6.119
  178SLPC   H3S20225   2.094   6.706   6.035
  178SLPC   C2420226   2.270   6.595   5.952
  178SLPC   H4R20227   2.232   6.495   5.925
  178SLPC   H4S20228   2.380   6.588   5.966
  178SLPC   C2520229   2.257   6.694   5.828
  178SLPC   H5R20230   2.302   6.792   5.855
  178SLPC   H5S20231   2.151   6.710   5.799
  178SLPC   C2620232   2.337   6.648   5.710
  178SLPC   H6R20233   2.302   6.551   5.670
  178SLPC   H6S20234   2.437   6.629   5.755
  178SLPC   C2720235   2.367   6.766   5.613
  178SLPC   H7R20236   2.456   6.735   5.554
  178SLPC   H7S20237   2.406   6.857   5.663
  178SLPC   C2820238   2.271   6.815   5.500
  178SLPC   H8R20239   2.319   0.008   5.434
  178SLPC   H8S20240   2.176   6.856   5.541
  178SLPC   C2920241   2.244   6.701   5.410
  178SLPC   H9R20242   2.286   6.605   5.443
  178SLPC  C21020243   2.168   6.716   5.295
  178SLPC  H10R20244   2.158   6.637   5.220
  178SLPC  C21120245   2.116   6.852   5.245
  178SLPC  H11R20246   2.076   0.026   5.332
  178SLPC  H11S20247   2.024   6.829   5.186
  178SLPC  C21220248   2.202   0.050   5.158
  178SLPC  H12R20249   2.280   6.879   5.102
  178SLPC  C21320250   2.197   0.187   5.150
  178SLPC  H13R20251   2.278   0.237   5.095
  178SLPC  C21420252   2.099   0.279   5.223
  178SLPC  H14R20253   2.124   0.302   5.329
  178SLPC  H14S20254   2.001   0.226   5.220
  178SLPC  C21520255   2.065   0.402   5.145
  178SLPC  H15R20256   2.051   0.365   5.041
  178SLPC  H15S20257   2.149   0.475   5.138
  178SLPC  C21620258   1.935   0.462   5.192
  178SLPC  H16R20259   1.940   0.499   5.297
  178SLPC  H16S20260   1.867   0.376   5.176
  178SLPC  C21720261   1.899   0.575   5.102
  178SLPC  H17R20262   1.900   0.550   4.994
  178SLPC  H17S20263   1.980   0.651   5.098
  178SLPC  C21820264   1.775   0.648   5.139
  178SLPC  H18R20265   1.793   0.683   5.243
  178SLPC  H18S20266   1.679   0.593   5.140
  178SLPC  H18T20267   1.763   0.743   5.083
  178SLPC   C3320268   2.524   6.265   5.967
  178SLPC   H3X20269   2.446   6.344   5.970
  178SLPC   H3Y20270   2.470   6.171   5.990
  178SLPC   C3420271   2.583   6.257   5.826
  178SLPC   H4X20272   2.497   6.233   5.760
  178SLPC   H4Y20273   2.662   6.178   5.821
  178SLPC   C3520274   2.654   6.384   5.767
  178SLPC   H5X20275   2.764   6.377   5.784
  178SLPC   H5Y20276   2.627   6.473   5.828
  178SLPC   C3620277   2.600   6.412   5.619
  178SLPC   H6X20278   2.497   6.453   5.621
  178SLPC   H6Y20279   2.612   6.317   5.564
  178SLPC   C3720280   2.693   6.515   5.541
  178SLPC   H7X20281   2.794   6.470   5.547
  178SLPC   H7Y20282   2.686   6.608   5.601
  178SLPC   C3820283   2.668   6.527   5.392
  178SLPC   H8X20284   2.560   6.533   5.369
  178SLPC   H8Y20285   2.708   6.442   5.333
  178SLPC   C3920286   2.727   6.660   5.338
  178SLPC   H9X20287   2.837   6.655   5.322
  178SLPC   H9Y20288   2.700   6.732   5.418
  178SLPC  C31020289   2.666   6.706   5.212
  178SLPC  H10X20290   2.691   6.814   5.204
  178SLPC  H10Y20291   2.558   6.714   5.237
  178SLPC  C31120292   2.685   6.630   5.084
  178SLPC  H11X20293   2.662   6.521   5.091
  178SLPC  H11Y20294   2.793   6.631   5.058
  178SLPC  C31220295   2.602   6.677   4.967
  178SLPC  H12X20296   2.623   6.785   4.951
  178SLPC  H12Y20297   2.497   6.680   5.001
  178SLPC  C31320298   2.625   6.608   4.828
  178SLPC  H13X20299   2.728   6.640   4.802
  178SLPC  H13Y20300   2.560   6.651   4.749
  178SLPC  C31420301   2.615   6.455   4.832
  178SLPC  H14X20302   2.517   6.423   4.874
  178SLPC  H14Y20303   2.698   6.400   4.882
  178SLPC  C31520304   2.604   6.410   4.685
  178SLPC  H15X20305   2.527   6.464   4.627
  178SLPC  H15Y20306   2.566   6.306   4.690
  178SLPC  C31620307   2.741   6.407   4.618
  178SLPC  H16X20308   2.811   6.356   4.687
  178SLPC  H16Y20309   2.788   6.508   4.611
  178SLPC  C31720310   2.740   6.335   4.483
  178SLPC  H17X20311   2.687   6.401   4.411
  178SLPC  H17Y20312   2.684   6.241   4.504
  178SLPC  C31820313   2.882   6.305   4.438
  178SLPC  H18X20314   2.933   6.401   4.461
  178SLPC  H18Y20315   2.880   6.272   4.332
  178SLPC  H18Z20316   2.921   6.215   4.490
  179SLPC     N20317   3.833   0.828   2.140
  179SLPC   C1320318   3.776   0.726   2.045
  179SLPC  H13A20319   3.695   0.771   1.990
  179SLPC  H13B20320   3.851   0.705   1.970
  179SLPC  H13C20321   3.758   0.637   2.104
  179SLPC   C1420322   3.810   0.966   2.079
  179SLPC  H14A20323   3.866   0.971   1.987
  179SLPC  H14B20324   3.707   0.992   2.055
  179SLPC  H14C20325   3.830   1.044   2.152
  179SLPC   C1520326   3.981   0.814   2.173
  179SLPC  H15A20327   4.042   0.815   2.084
  179SLPC  H15B20328   4.015   0.904   2.224
  179SLPC  H15C20329   4.002   0.723   2.227
  179SLPC   C1220330   3.759   0.822   2.269
  179SLPC  H12A20331   3.762   0.719   2.301
  179SLPC  H12B20332   3.654   0.830   2.242
  179SLPC   C1120333   3.793   0.915   2.383
  179SLPC  H11A20334   3.902   0.903   2.400
  179SLPC  H11B20335   3.742   0.894   2.480
  179SLPC     P20336   3.612   1.088   2.327
  179SLPC   O1320337   3.596   1.196   2.230
  179SLPC   O1420338   3.529   0.973   2.296
  179SLPC   O1220339   3.762   1.048   2.344
  179SLPC   O1120340   3.585   1.145   2.475
  179SLPC    C120341   3.689   1.218   2.535
  179SLPC    HA20342   3.759   1.264   2.462
  179SLPC    HB20343   3.643   1.306   2.586
  179SLPC    C220344   3.761   1.147   2.657
  179SLPC    HS20345   3.836   1.078   2.614
  179SLPC   O2120346   3.667   1.070   2.731
  179SLPC   C2120347   3.721   0.974   2.807
  179SLPC   O2220348   3.836   0.931   2.800
  179SLPC   C2220349   3.609   0.906   2.890
  179SLPC   H2R20350   3.512   0.955   2.866
  179SLPC   H2S20351   3.602   0.803   2.848
  179SLPC    C320352   3.844   1.240   2.748
  179SLPC    HX20353   3.781   1.289   2.824
  179SLPC    HY20354   3.892   1.318   2.685
  179SLPC   O3120355   3.944   1.163   2.810
  179SLPC   C3120356   4.030   1.241   2.880
  179SLPC   O3220357   4.013   1.355   2.907
  179SLPC   C3220358   4.155   1.152   2.902
  179SLPC   H2X20359   4.248   1.199   2.940
  179SLPC   H2Y20360   4.178   1.116   2.799
  179SLPC   C2320361   3.646   0.916   3.040
  179SLPC   H3R20362   3.740   0.869   3.075
  179SLPC   H3S20363   3.559   0.869   3.090
  179SLPC   C2420364   3.647   1.057   3.093
  179SLPC   H4R20365   3.564   1.113   3.044
  179SLPC   H4S20366   3.750   1.099   3.083
  179SLPC   C2520367   3.618   1.059   3.243
  179SLPC   H5R20368   3.705   1.009   3.289
  179SLPC   H5S20369   3.533   0.996   3.279
  179SLPC   C2620370   3.600   1.204   3.298
  179SLPC   H6R20371   3.518   1.247   3.236
  179SLPC   H6S20372   3.689   1.268   3.279
  179SLPC   C2720373   3.571   1.209   3.445
  179SLPC   H7R20374   3.471   1.164   3.464
  179SLPC   H7S20375   3.562   1.313   3.485
  179SLPC   C2820376   3.677   1.140   3.536
  179SLPC   H8R20377   3.778   1.172   3.503
  179SLPC   H8S20378   3.666   1.032   3.516
  179SLPC   C2920379   3.666   1.177   3.687
  179SLPC   H9R20380   3.704   1.279   3.701
  179SLPC  C21020381   3.596   1.113   3.787
  179SLPC  H10R20382   3.588   1.151   3.890
  179SLPC  C21120383   3.541   0.973   3.763
  179SLPC  H11R20384   3.628   0.927   3.711
  179SLPC  H11S20385   3.455   0.972   3.693
  179SLPC  C21220386   3.519   0.893   3.893
  179SLPC  H12R20387   3.590   0.814   3.920
  179SLPC  C21320388   3.415   0.911   3.972
  179SLPC  H13R20389   3.405   0.874   4.075
  179SLPC  C21420390   3.284   0.985   3.937
  179SLPC  H14R20391   3.245   0.961   3.836
  179SLPC  H14S20392   3.300   1.094   3.948
  179SLPC  C21520393   3.172   0.939   4.028
  179SLPC  H15R20394   3.214   0.925   4.130
  179SLPC  H15S20395   3.142   0.839   3.989
  179SLPC  C21620396   3.047   1.025   4.012
  179SLPC  H16R20397   3.016   1.034   3.906
  179SLPC  H16S20398   3.079   1.127   4.041
  179SLPC  C21720399   2.932   0.984   4.099
  179SLPC  H17R20400   2.952   0.998   4.207
  179SLPC  H17S20401   2.915   0.874   4.102
  179SLPC  C21820402   2.798   1.053   4.073
  179SLPC  H18R20403   2.721   1.008   4.139
  179SLPC  H18S20404   2.759   1.042   3.969
  179SLPC  H18T20405   2.818   1.160   4.097
  179SLPC   C3320406   4.123   1.022   2.983
  179SLPC   H3X20407   4.203   0.947   2.968
  179SLPC   H3Y20408   4.028   0.974   2.951
  179SLPC   C3420409   4.104   1.043   3.137
  179SLPC   H4X20410   4.089   0.944   3.185
  179SLPC   H4Y20411   4.019   1.109   3.166
  179SLPC   C3520412   4.227   1.094   3.206
  179SLPC   H5X20413   4.310   1.023   3.193
  179SLPC   H5Y20414   4.266   1.190   3.165
  179SLPC   C3620415   4.203   1.125   3.351
  179SLPC   H6X20416   4.116   1.193   3.364
  179SLPC   H6Y20417   4.288   1.185   3.389
  179SLPC   C3720418   4.200   1.004   3.446
  179SLPC   H7X20419   4.298   0.955   3.432
  179SLPC   H7Y20420   4.118   0.935   3.416
  179SLPC   C3820421   4.182   1.028   3.602
  179SLPC   H8X20422   4.270   1.088   3.635
  179SLPC   H8Y20423   4.175   0.927   3.647
  179SLPC   C3920424   4.061   1.121   3.624
  179SLPC   H9X20425   3.978   1.072   3.568
  179SLPC   H9Y20426   4.072   1.221   3.576
  179SLPC  C31020427   4.040   1.137   3.776
  179SLPC  H10X20428   3.979   1.228   3.797
  179SLPC  H10Y20429   4.132   1.165   3.830
  179SLPC  C31120430   3.972   1.022   3.849
  179SLPC  H11X20431   4.037   0.933   3.834
  179SLPC  H11Y20432   3.871   0.988   3.816
  179SLPC  C31220433   3.969   1.050   3.998
  179SLPC  H12X20434   4.069   1.042   4.046
  179SLPC  H12Y20435   3.905   0.968   4.039
  179SLPC  C31320436   3.897   1.178   4.037
  179SLPC  H13X20437   3.803   1.203   3.984
  179SLPC  H13Y20438   3.973   1.259   4.031
  179SLPC  C31420439   3.844   1.172   4.179
  179SLPC  H14X20440   3.936   1.153   4.238
  179SLPC  H14Y20441   3.783   1.083   4.205
  179SLPC  C31520442   3.777   1.309   4.220
  179SLPC  H15X20443   3.708   1.340   4.139
  179SLPC  H15Y20444   3.850   1.393   4.223
  179SLPC  C31620445   3.700   1.301   4.361
  179SLPC  H16X20446   3.781   1.294   4.437
  179SLPC  H16Y20447   3.634   1.211   4.365
  179SLPC  C31720448   3.610   1.428   4.385
  179SLPC  H17X20449   3.516   1.384   4.422
  179SLPC  H17Y20450   3.605   1.482   4.288
  179SLPC  C31820451   3.658   1.515   4.500
  179SLPC  H18X20452   3.613   1.615   4.514
  179SLPC  H18Y20453   3.768   1.528   4.495
  179SLPC  H18Z20454   3.642   1.458   4.594
  180SLPC     N20455   2.669   1.196   1.793
  180SLPC   C1320456   2.710   1.149   1.662
  180SLPC  H13A20457   2.681   1.046   1.652
  180SLPC  H13B20458   2.688   1.206   1.573
  180SLPC  H13C20459   2.818   1.148   1.665
  180SLPC   C1420460   2.744   1.321   1.823
  180SLPC  H14A20461   2.731   1.393   1.743
  180SLPC  H14B20462   2.711   1.366   1.915
  180SLPC  H14C20463   2.850   1.303   1.834
  180SLPC   C1520464   2.717   1.087   1.882
  180SLPC  H15A20465   2.683   1.094   1.984
  180SLPC  H15B20466   2.688   0.986   1.857
  180SLPC  H15C20467   2.824   1.078   1.889
  180SLPC   C1220468   2.518   1.210   1.800
  180SLPC  H12A20469   2.474   1.111   1.795
  180SLPC  H12B20470   2.487   1.265   1.712
  180SLPC   C1120471   2.445   1.278   1.909
  180SLPC  H11A20472   2.341   1.298   1.875
  180SLPC  H11B20473   2.476   1.383   1.927
  180SLPC     P20474   2.353   1.079   2.051
  180SLPC   O1320475   2.298   1.034   1.917
  180SLPC   O1420476   2.421   0.974   2.132
  180SLPC   O1220477   2.457   1.202   2.027
  180SLPC   O1120478   2.238   1.139   2.140
  180SLPC    C120479   2.207   1.279   2.160
  180SLPC    HA20480   2.218   1.339   2.068
  180SLPC    HB20481   2.102   1.279   2.197
  180SLPC    C220482   2.293   1.342   2.277
  180SLPC    HS20483   2.400   1.321   2.259
  180SLPC   O2120484   2.245   1.279   2.397
  180SLPC   C2120485   2.332   1.247   2.487
  180SLPC   O2220486   2.454   1.266   2.474
  180SLPC   C2220487   2.255   1.181   2.598
  180SLPC   H2R20488   2.194   1.259   2.647
  180SLPC   H2S20489   2.178   1.118   2.549
  180SLPC    C320490   2.282   1.497   2.287
  180SLPC    HX20491   2.177   1.533   2.281
  180SLPC    HY20492   2.316   1.538   2.189
  180SLPC   O3120493   2.363   1.549   2.396
  180SLPC   C3120494   2.495   1.553   2.378
  180SLPC   O3220495   2.563   1.502   2.290
  180SLPC   C3220496   2.562   1.620   2.501
  180SLPC   H2X20497   2.484   1.673   2.560
  180SLPC   H2Y20498   2.641   1.686   2.460
  180SLPC   C2320499   2.340   1.109   2.705
  180SLPC   H3R20500   2.417   1.181   2.740
  180SLPC   H3S20501   2.383   1.017   2.660
  180SLPC   C2420502   2.238   1.065   2.808
  180SLPC   H4R20503   2.166   0.998   2.756
  180SLPC   H4S20504   2.184   1.154   2.848
  180SLPC   C2520505   2.311   0.989   2.912
  180SLPC   H5R20506   2.388   1.055   2.957
  180SLPC   H5S20507   2.363   0.907   2.857
  180SLPC   C2620508   2.222   0.937   3.026
  180SLPC   H6R20509   2.198   0.830   3.010
  180SLPC   H6S20510   2.123   0.987   3.025
  180SLPC   C2720511   2.293   0.952   3.160
  180SLPC   H7R20512   2.308   1.058   3.190
  180SLPC   H7S20513   2.399   0.920   3.154
  180SLPC   C2820514   2.236   0.871   3.288
  180SLPC   H8R20515   2.244   0.760   3.277
  180SLPC   H8S20516   2.126   0.887   3.277
  180SLPC   C2920517   2.283   0.911   3.426
  180SLPC   H9R20518   2.387   0.947   3.432
  180SLPC  C21020519   2.208   0.900   3.535
  180SLPC  H10R20520   2.253   0.922   3.633
  180SLPC  C21120521   2.063   0.854   3.547
  180SLPC  H11R20522   2.039   0.789   3.461
  180SLPC  H11S20523   1.991   0.939   3.547
  180SLPC  C21220524   2.036   0.770   3.673
  180SLPC  H12R20525   2.076   0.668   3.679
  180SLPC  C21320526   1.955   0.796   3.774
  180SLPC  H13R20527   1.938   0.728   3.859
  180SLPC  C21420528   1.887   0.932   3.794
  180SLPC  H14R20529   1.812   0.950   3.715
  180SLPC  H14S20530   1.962   1.013   3.777
  180SLPC  C21520531   1.834   0.921   3.939
  180SLPC  H15R20532   1.754   0.844   3.945
  180SLPC  H15S20533   1.783   1.016   3.965
  180SLPC  C21620534   1.938   0.907   4.049
  180SLPC  H16R20535   2.009   0.993   4.045
  180SLPC  H16S20536   2.002   0.817   4.037
  180SLPC  C21720537   1.853   0.885   4.180
  180SLPC  H17R20538   1.784   0.798   4.175
  180SLPC  H17S20539   1.781   0.969   4.182
  180SLPC  C21820540   1.934   0.887   4.302
  180SLPC  H18R20541   1.870   0.914   4.389
  180SLPC  H18S20542   2.011   0.966   4.284
  180SLPC  H18T20543   1.987   0.790   4.306
  180SLPC   C3320544   2.637   1.510   2.584
  180SLPC   H3X20545   2.699   1.454   2.512
  180SLPC   H3Y20546   2.562   1.442   2.631
  180SLPC   C3420547   2.740   1.544   2.692
  180SLPC   H4X20548   2.678   1.601   2.765
  180SLPC   H4Y20549   2.832   1.604   2.674
  180SLPC   C3520550   2.807   1.414   2.743
  180SLPC   H5X20551   2.893   1.385   2.677
  180SLPC   H5Y20552   2.738   1.327   2.739
  180SLPC   C3620553   2.840   1.419   2.895
  180SLPC   H6X20554   2.877   1.519   2.926
  180SLPC   H6Y20555   2.911   1.337   2.920
  180SLPC   C3720556   2.716   1.385   2.980
  180SLPC   H7X20557   2.674   1.287   2.949
  180SLPC   H7Y20558   2.627   1.452   2.969
  180SLPC   C3820559   2.753   1.372   3.124
  180SLPC   H8X20560   2.769   1.466   3.180
  180SLPC   H8Y20561   2.848   1.314   3.121
  180SLPC   C3920562   2.656   1.287   3.202
  180SLPC   H9X20563   2.655   1.191   3.146
  180SLPC   H9Y20564   2.554   1.331   3.208
  180SLPC  C31020565   2.712   1.270   3.349
  180SLPC  H10X20566   2.733   1.373   3.384
  180SLPC  H10Y20567   2.807   1.213   3.348
  180SLPC  C31120568   2.611   1.200   3.449
  180SLPC  H11X20569   2.610   1.096   3.412
  180SLPC  H11Y20570   2.511   1.245   3.428
  180SLPC  C31220571   2.656   1.218   3.592
  180SLPC  H12X20572   2.640   1.326   3.607
  180SLPC  H12Y20573   2.765   1.196   3.606
  180SLPC  C31320574   2.582   1.128   3.691
  180SLPC  H13X20575   2.618   1.146   3.795
  180SLPC  H13Y20576   2.595   1.020   3.668
  180SLPC  C31420577   2.430   1.157   3.683
  180SLPC  H14X20578   2.389   1.115   3.589
  180SLPC  H14Y20579   2.403   1.265   3.688
  180SLPC  C31520580   2.338   1.086   3.794
  180SLPC  H15X20581   2.364   0.978   3.796
  180SLPC  H15Y20582   2.233   1.100   3.759
  180SLPC  C31620583   2.340   1.142   3.941
  180SLPC  H16X20584   2.442   1.119   3.979
  180SLPC  H16Y20585   2.273   1.080   4.005
  180SLPC  C31720586   2.317   1.297   3.961
  180SLPC  H17X20587   2.212   1.321   3.934
  180SLPC  H17Y20588   2.384   1.352   3.891
  180SLPC  C31820589   2.345   1.348   4.103
  180SLPC  H18X20590   2.281   1.285   4.169
  180SLPC  H18Y20591   2.312   1.454   4.109
  180SLPC  H18Z20592   2.452   1.330   4.127
  181SLPC     N20593   1.706   6.623   1.495
  181SLPC   C1320594   1.721   6.753   1.419
  181SLPC  H13A20595   1.664   6.746   1.328
  181SLPC  H13B20596   1.678   6.840   1.468
  181SLPC  H13C20597   1.825   6.769   1.395
  181SLPC   C1420598   1.772   6.522   1.402
  181SLPC  H14A20599   1.701   6.509   1.321
  181SLPC  H14B20600   1.871   6.544   1.367
  181SLPC  H14C20601   1.783   6.428   1.453
  181SLPC   C1520602   1.556   6.588   1.500
  181SLPC  H15A20603   1.543   6.501   1.562
  181SLPC  H15B20604   1.507   6.668   1.551
  181SLPC  H15C20605   1.516   6.566   1.402
  181SLPC   C1220606   1.767   6.627   1.633
  181SLPC  H12A20607   1.873   6.645   1.621
  181SLPC  H12B20608   1.781   6.529   1.675
  181SLPC   C1120609   1.699   6.717   1.743
  181SLPC  H11A20610   1.692   6.817   1.694
  181SLPC  H11B20611   1.768   6.718   1.830
  181SLPC     P20612   1.569   6.525   1.863
  181SLPC   O1320613   1.433   6.462   1.876
  181SLPC   O1420614   1.666   6.426   1.804
  181SLPC   O1220615   1.571   6.664   1.784
  181SLPC   O1120616   1.619   6.568   2.008
  181SLPC    C120617   1.579   6.694   2.054
  181SLPC    HA20618   1.633   6.770   1.994
  181SLPC    HB20619   1.469   6.712   2.052
  181SLPC    C220620   1.622   6.716   2.201
  181SLPC    HS20621   1.733   6.711   2.197
  181SLPC   O2120622   1.548   6.613   2.279
  181SLPC   C2120623   1.628   6.584   2.388
  181SLPC   O2220624   1.741   6.624   2.405
  181SLPC   C2220625   1.550   6.481   2.484
  181SLPC   H2R20626   1.530   6.391   2.422
  181SLPC   H2S20627   1.632   6.467   2.558
  181SLPC    C320628   1.578   6.856   2.260
  181SLPC    HX20629   1.470   6.864   2.236
  181SLPC    HY20630   1.640   0.048   2.207
  181SLPC   O3120631   1.597   6.874   2.405
  181SLPC   C3120632   1.686   0.076   2.444
  181SLPC   O3220633   1.754   0.149   2.381
  181SLPC   C3220634   1.710   0.062   2.596
  181SLPC   H2X20635   1.609   0.032   2.631
  181SLPC   H2Y20636   1.735   0.163   2.634
  181SLPC   C2320637   1.426   6.542   2.555
  181SLPC   H3R20638   1.358   6.578   2.476
  181SLPC   H3S20639   1.451   6.624   2.625
  181SLPC   C2420640   1.355   6.439   2.638
  181SLPC   H4R20641   1.329   6.348   2.579
  181SLPC   H4S20642   1.254   6.481   2.656
  181SLPC   C2520643   1.427   6.386   2.766
  181SLPC   H5R20644   1.484   6.471   2.812
  181SLPC   H5S20645   1.501   6.307   2.744
  181SLPC   C2620646   1.325   6.335   2.874
  181SLPC   H6R20647   1.383   6.283   2.953
  181SLPC   H6S20648   1.277   6.250   2.820
  181SLPC   C2720649   1.246   6.444   2.947
  181SLPC   H7R20650   1.158   6.462   2.882
  181SLPC   H7S20651   1.313   6.532   2.962
  181SLPC   C2820652   1.197   6.384   3.084
  181SLPC   H8R20653   1.289   6.356   3.138
  181SLPC   H8S20654   1.149   6.284   3.070
  181SLPC   C2920655   1.115   6.469   3.176
  181SLPC   H9R20656   1.149   6.574   3.172
  181SLPC  C21020657   1.008   6.440   3.257
  181SLPC  H10R20658   0.960   6.524   3.309
  181SLPC  C21120659   0.950   6.310   3.284
  181SLPC  H11R20660   1.006   6.259   3.365
  181SLPC  H11S20661   0.976   6.241   3.201
  181SLPC  C21220662   0.805   6.317   3.310
  181SLPC  H12R20663   0.735   6.339   3.229
  181SLPC  C21320664   0.748   6.292   3.434
  181SLPC  H13R20665   0.639   6.299   3.442
  181SLPC  C21420666   0.812   6.258   3.567
  181SLPC  H14R20667   0.922   6.244   3.557
  181SLPC  H14S20668   0.775   6.161   3.605
  181SLPC  C21520669   0.789   6.369   3.667
  181SLPC  H15R20670   0.685   6.371   3.705
  181SLPC  H15S20671   0.790   6.465   3.610
  181SLPC  C21620672   0.889   6.358   3.789
  181SLPC  H16R20673   0.886   6.449   3.852
  181SLPC  H16S20674   0.994   6.347   3.753
  181SLPC  C21720675   0.845   6.239   3.872
  181SLPC  H17R20676   0.838   6.142   3.819
  181SLPC  H17S20677   0.747   6.260   3.919
  181SLPC  C21820678   0.947   6.213   3.986
  181SLPC  H18R20679   0.936   6.110   4.027
  181SLPC  H18S20680   0.947   6.286   4.069
  181SLPC  H18T20681   1.048   6.229   3.942
  181SLPC   C3320682   1.823   6.853   2.631
  181SLPC   H3X20683   1.923   0.006   2.597
  181SLPC   H3Y20684   1.828   6.751   2.587
  181SLPC   C3420685   1.844   6.841   2.784
  181SLPC   H4X20686   1.841   0.062   2.824
  181SLPC   H4Y20687   1.944   6.797   2.807
  181SLPC   C3520688   1.745   6.748   2.854
  181SLPC   H5X20689   1.724   6.658   2.793
  181SLPC   H5Y20690   1.649   6.804   2.844
  181SLPC   C3620691   1.785   6.719   2.997
  181SLPC   H6X20692   1.887   6.677   2.997
  181SLPC   H6Y20693   1.716   6.651   3.052
  181SLPC   C3720694   1.775   6.849   3.078
  181SLPC   H7X20695   1.670   6.879   3.097
  181SLPC   H7Y20696   1.817   0.062   3.041
  181SLPC   C3820697   1.846   6.830   3.207
  181SLPC   H8X20698   1.953   6.815   3.180
  181SLPC   H8Y20699   1.809   6.744   3.267
  181SLPC   C3920700   1.845   0.073   3.297
  181SLPC   H9X20701   1.777   0.154   3.261
  181SLPC   H9Y20702   1.941   0.128   3.296
  181SLPC  C31020703   1.837   0.031   3.442
  181SLPC  H10X20704   1.748   6.849   3.460
  181SLPC  H10Y20705   1.820   0.123   3.502
  181SLPC  C31120706   1.966   6.848   3.493
  181SLPC  H11X20707   2.049   0.037   3.477
  181SLPC  H11Y20708   1.988   6.757   3.434
  181SLPC  C31220709   1.960   6.811   3.643
  181SLPC  H12X20710   1.875   6.741   3.659
  181SLPC  H12Y20711   1.947   0.017   3.709
  181SLPC  C31320712   2.087   6.738   3.699
  181SLPC  H13X20713   2.162   6.820   3.701
  181SLPC  H13Y20714   2.118   6.658   3.629
  181SLPC  C31420715   2.069   6.665   3.835
  181SLPC  H14X20716   1.985   6.593   3.827
  181SLPC  H14Y20717   2.034   6.745   3.903
  181SLPC  C31520718   2.201   6.607   3.883
  181SLPC  H15X20719   2.281   6.684   3.870
  181SLPC  H15Y20720   2.215   6.525   3.809
  181SLPC  C31620721   2.196   6.562   4.031
  181SLPC  H16X20722   2.176   6.656   4.087
  181SLPC  H16Y20723   2.292   6.523   4.071
  181SLPC  C31720724   2.093   6.453   4.063
  181SLPC  H17X20725   2.108   6.359   4.006
  181SLPC  H17Y20726   1.993   6.491   4.033
  181SLPC  C31820727   2.092   6.425   4.213
  181SLPC  H18X20728   2.070   6.524   4.259
  181SLPC  H18Y20729   2.192   6.389   4.245
  181SLPC  H18Z20730   2.007   6.359   4.241
  182SLPC     N20731   2.385   6.462   1.864
  182SLPC   C1320732   2.521   6.447   1.800
  182SLPC  H13A20733   2.513   6.436   1.693
  182SLPC  H13B20734   2.586   6.533   1.806
  182SLPC  H13C20735   2.584   6.374   1.849
  182SLPC   C1420736   2.304   6.346   1.832
  182SLPC  H14A20737   2.218   6.343   1.898
  182SLPC  H14B20738   2.272   6.354   1.729
  182SLPC  H14C20739   2.373   6.264   1.836
  182SLPC   C1520740   2.316   6.581   1.809
  182SLPC  H15A20741   2.233   6.609   1.874
  182SLPC  H15B20742   2.380   6.668   1.810
  182SLPC  H15C20743   2.289   6.590   1.705
  182SLPC   C1220744   2.404   6.477   2.012
  182SLPC  H12A20745   2.468   6.563   2.028
  182SLPC  H12B20746   2.463   6.395   2.051
  182SLPC   C1120747   2.278   6.478   2.099
  182SLPC  H11A20748   2.208   6.555   2.061
  182SLPC  H11B20749   2.308   6.506   2.202
  182SLPC     P20750   2.104   6.308   2.197
  182SLPC   O1320751   1.990   6.398   2.194
  182SLPC   O1420752   2.082   6.165   2.173
  182SLPC   O1220753   2.211   6.353   2.088
  182SLPC   O1120754   2.182   6.330   2.331
  182SLPC    C120755   2.247   6.226   2.403
  182SLPC    HA20756   2.304   6.158   2.336
  182SLPC    HB20757   2.326   6.271   2.466
  182SLPC    C220758   2.151   6.146   2.490
  182SLPC    HS20759   2.090   6.083   2.421
  182SLPC   O2120760   2.062   6.242   2.549
  182SLPC   C2120761   1.950   6.196   2.606
  182SLPC   O2220762   1.904   6.082   2.597
  182SLPC   C2220763   1.893   6.301   2.697
  182SLPC   H2R20764   1.955   6.393   2.692
  182SLPC   H2S20765   1.799   6.336   2.648
  182SLPC    C320766   2.225   6.059   2.600
  182SLPC    HX20767   2.149   6.002   2.658
  182SLPC    HY20768   2.282   6.131   2.662
  182SLPC   O3120769   2.318   5.967   2.544
  182SLPC   C3120770   2.264   5.847   2.513
  182SLPC   O3220771   2.142   5.826   2.520
  182SLPC   C3220772   2.372   5.748   2.470
  182SLPC   H2X20773   2.473   5.792   2.458
  182SLPC   H2Y20774   2.341   5.708   2.372
  182SLPC   C2320775   1.859   6.253   2.837
  182SLPC   H3R20776   1.938   6.203   2.896
  182SLPC   H3S20777   1.767   6.191   2.833
  182SLPC   C2420778   1.817   6.366   2.934
  182SLPC   H4R20779   1.744   6.437   2.889
  182SLPC   H4S20780   1.910   6.418   2.967
  182SLPC   C2520781   1.744   6.307   3.063
  182SLPC   H5R20782   1.802   6.223   3.106
  182SLPC   H5S20783   1.654   6.254   3.025
  182SLPC   C2620784   1.704   6.397   3.180
  182SLPC   H6R20785   1.616   6.452   3.140
  182SLPC   H6S20786   1.779   6.474   3.207
  182SLPC   C2720787   1.668   6.309   3.298
  182SLPC   H7R20788   1.757   6.257   3.339
  182SLPC   H7S20789   1.585   6.238   3.277
  182SLPC   C2820790   1.611   6.391   3.417
  182SLPC   H8R20791   1.580   6.317   3.494
  182SLPC   H8S20792   1.525   6.457   3.392
  182SLPC   C2920793   1.725   6.478   3.473
  182SLPC   H9R20794   1.727   6.581   3.433
  182SLPC  C21020795   1.814   6.450   3.570
  182SLPC  H10R20796   1.891   6.527   3.587
  182SLPC  C21120797   1.838   6.321   3.643
  182SLPC  H11R20798   1.934   6.352   3.689
  182SLPC  H11S20799   1.852   6.235   3.573
  182SLPC  C21220800   1.732   6.268   3.741
  182SLPC  H12R20801   1.642   6.329   3.755
  182SLPC  C21320802   1.743   6.162   3.817
  182SLPC  H13R20803   1.654   6.133   3.874
  182SLPC  C21420804   1.856   6.065   3.830
  182SLPC  H14R20805   1.932   6.083   3.751
  182SLPC  H14S20806   1.825   5.959   3.819
  182SLPC  C21520807   1.938   6.082   3.959
  182SLPC  H15R20808   1.962   6.191   3.966
  182SLPC  H15S20809   2.038   6.034   3.950
  182SLPC  C21620810   1.856   6.022   4.075
  182SLPC  H16R20811   1.813   5.929   4.032
  182SLPC  H16S20812   1.773   6.086   4.111
  182SLPC  C21720813   1.939   5.990   4.195
  182SLPC  H17R20814   1.999   6.083   4.205
  182SLPC  H17S20815   2.009   5.908   4.169
  182SLPC  C21820816   1.866   5.952   4.323
  182SLPC  H18R20817   1.800   5.868   4.293
  182SLPC  H18S20818   1.798   6.037   4.346
  182SLPC  H18T20819   1.927   5.916   4.408
  182SLPC   C3320820   2.381   5.637   2.577
  182SLPC   H3X20821   2.439   5.553   2.532
  182SLPC   H3Y20822   2.279   5.599   2.601
  182SLPC   C3420823   2.464   5.677   2.702
  182SLPC   H4X20824   2.429   5.773   2.746
  182SLPC   H4Y20825   2.566   5.700   2.665
  182SLPC   C3520826   2.477   5.559   2.796
  182SLPC   H5X20827   2.538   5.484   2.741
  182SLPC   H5Y20828   2.379   5.526   2.835
  182SLPC   C3620829   2.555   5.587   2.920
  182SLPC   H6X20830   2.533   5.688   2.959
  182SLPC   H6Y20831   2.658   5.594   2.879
  182SLPC   C3720832   2.541   5.475   3.027
  182SLPC   H7X20833   2.587   5.388   2.976
  182SLPC   H7Y20834   2.434   5.456   3.053
  182SLPC   C3820835   2.613   5.498   3.160
  182SLPC   H8X20836   2.620   5.605   3.188
  182SLPC   H8Y20837   2.712   5.453   3.137
  182SLPC   C3920838   2.544   5.419   3.271
  182SLPC   H9X20839   2.555   5.310   3.251
  182SLPC   H9Y20840   2.436   5.444   3.280
  182SLPC  C31020841   2.605   5.451   3.413
  182SLPC  H10X20842   2.715   5.462   3.412
  182SLPC  H10Y20843   2.581   5.368   3.483
  182SLPC  C31120844   2.545   5.576   3.489
  182SLPC  H11X20845   2.435   5.579   3.480
  182SLPC  H11Y20846   2.585   5.670   3.445
  182SLPC  C31220847   2.593   5.591   3.634
  182SLPC  H12X20848   2.586   5.698   3.662
  182SLPC  H12Y20849   2.695   5.550   3.652
  182SLPC  C31320850   2.495   5.516   3.726
  182SLPC  H13X20851   2.502   5.406   3.717
  182SLPC  H13Y20852   2.390   5.537   3.695
  182SLPC  C31420853   2.499   5.541   3.872
  182SLPC  H14X20854   2.506   5.649   3.897
  182SLPC  H14Y20855   2.597   5.521   3.920
  182SLPC  C31520856   2.383   5.472   3.949
  182SLPC  H15X20857   2.394   5.362   3.950
  182SLPC  H15Y20858   2.289   5.498   3.896
  182SLPC  C31620859   2.387   5.518   4.095
  182SLPC  H16X20860   2.487   5.508   4.142
  182SLPC  H16Y20861   2.327   5.452   4.160
  182SLPC  C31720862   2.342   5.663   4.121
  182SLPC  H17X20863   2.236   5.667   4.088
  182SLPC  H17Y20864   2.405   5.723   4.052
  182SLPC  C31820865   2.366   5.714   4.270
  182SLPC  H18X20866   2.318   5.814   4.276
  182SLPC  H18Y20867   2.476   5.721   4.285
  182SLPC  H18Z20868   2.301   5.642   4.324
  183SLPC     N20869   6.351   2.662   1.509
  183SLPC   C1320870   6.227   2.749   1.515
  183SLPC  H13A20871   6.255   2.853   1.513
  183SLPC  H13B20872   6.166   2.725   1.430
  183SLPC  H13C20873   6.161   2.718   1.595
  183SLPC   C1420874   6.453   2.720   1.412
  183SLPC  H14A20875   6.491   2.818   1.436
  183SLPC  H14B20876   6.537   2.651   1.412
  183SLPC  H14C20877   6.416   2.723   1.310
  183SLPC   C1520878   6.315   2.526   1.452
  183SLPC  H15A20879   6.406   2.466   1.449
  183SLPC  H15B20880   6.238   2.482   1.513
  183SLPC  H15C20881   6.263   2.550   1.361
  183SLPC   C1220882   6.408   2.655   1.653
  183SLPC  H12A20883   6.323   2.631   1.715
  183SLPC  H12B20884   6.444   2.755   1.669
  183SLPC   C1120885   6.530   2.556   1.671
  183SLPC  H11A20886   6.594   2.591   1.755
  183SLPC  H11B20887   6.594   2.570   1.581
  183SLPC     P20888   6.389   2.378   1.790
  183SLPC   O1320889   6.251   2.367   1.735
  183SLPC   O1420890   6.446   2.262   1.860
  183SLPC   O1220891   6.490   2.422   1.677
  183SLPC   O1120892   6.389   2.498   1.899
  183SLPC    C120893   6.478   2.487   2.009
  183SLPC    HA20894   6.564   2.422   1.982
  183SLPC    HB20895   6.518   2.589   2.029
  183SLPC    C220896   6.421   2.416   2.134
  183SLPC    HS20897   6.356   2.330   2.107
  183SLPC   O2120898   6.365   2.517   2.220
  183SLPC   C2120899   6.239   2.501   2.236
  183SLPC   O2220900   6.170   2.414   2.183
  183SLPC   C2220901   6.183   2.628   2.296
  183SLPC   H2R20902   6.232   2.723   2.266
  183SLPC   H2S20903   6.074   2.626   2.275
  183SLPC    C320904   6.534   2.347   2.207
  183SLPC    HX20905   6.637   2.373   2.174
  183SLPC    HY20906   6.527   2.240   2.179
  183SLPC   O3120907   6.536   2.372   2.352
  183SLPC   C3120908   6.443   2.298   2.408
  183SLPC   O3220909   6.373   2.218   2.354
  183SLPC   C3220910   6.420   2.329   2.562
  183SLPC   H2X20911   6.452   2.434   2.577
  183SLPC   H2Y20912   6.497   2.274   2.621
  183SLPC   C2320913   6.189   2.615   2.455
  183SLPC   H3R20914   6.294   2.634   2.485
  183SLPC   H3S20915   6.163   2.512   2.489
  183SLPC   C2420916   6.089   2.709   2.523
  183SLPC   H4R20917   5.989   2.666   2.501
  183SLPC   H4S20918   6.091   2.813   2.482
  183SLPC   C2520919   6.104   2.713   2.676
  183SLPC   H5R20920   6.155   2.621   2.714
  183SLPC   H5S20921   6.005   2.698   2.724
  183SLPC   C2620922   6.172   2.842   2.728
  183SLPC   H6R20923   6.092   2.914   2.698
  183SLPC   H6S20924   6.262   2.857   2.665
  183SLPC   C2720925   6.203   2.854   2.878
  183SLPC   H7R20926   6.114   2.844   2.944
  183SLPC   H7S20927   6.240   2.959   2.885
  183SLPC   C2820928   6.323   2.758   2.909
  183SLPC   H8R20929   6.403   2.760   2.832
  183SLPC   H8S20930   6.292   2.652   2.917
  183SLPC   C2920931   6.404   2.787   3.029
  183SLPC   H9R20932   6.482   2.861   3.007
  183SLPC  C21020933   6.383   2.757   3.156
  183SLPC  H10R20934   6.460   2.786   3.230
  183SLPC  C21120935   6.267   2.676   3.209
  183SLPC  H11R20936   6.314   2.582   3.245
  183SLPC  H11S20937   6.221   2.639   3.115
  183SLPC  C21220938   6.161   2.741   3.288
  183SLPC  H12R20939   6.187   2.845   3.314
  183SLPC  C21320940   6.057   2.681   3.345
  183SLPC  H13R20941   5.996   2.750   3.405
  183SLPC  C21420942   6.007   2.542   3.322
  183SLPC  H14R20943   6.081   2.500   3.250
  183SLPC  H14S20944   5.913   2.543   3.263
  183SLPC  C21520945   5.981   2.453   3.442
  183SLPC  H15R20946   6.070   2.443   3.508
  183SLPC  H15S20947   5.974   2.354   3.392
  183SLPC  C21620948   5.862   2.502   3.522
  183SLPC  H16R20949   5.770   2.502   3.458
  183SLPC  H16S20950   5.870   2.608   3.554
  183SLPC  C21720951   5.827   2.420   3.644
  183SLPC  H17R20952   5.798   2.318   3.610
  183SLPC  H17S20953   5.747   2.469   3.702
  183SLPC  C21820954   5.944   2.403   3.744
  183SLPC  H18R20955   5.964   2.507   3.778
  183SLPC  H18S20956   6.034   2.347   3.709
  183SLPC  H18T20957   5.908   2.349   3.835
  183SLPC   C3320958   6.285   2.288   2.631
  183SLPC   H3X20959   6.283   2.180   2.658
  183SLPC   H3Y20960   6.203   2.318   2.562
  183SLPC   C3420961   6.271   2.350   2.767
  183SLPC   H4X20962   6.178   2.320   2.820
  183SLPC   H4Y20963   6.255   2.460   2.759
  183SLPC   C3520964   6.378   2.297   2.860
  183SLPC   H5X20965   6.478   2.344   2.846
  183SLPC   H5Y20966   6.399   2.189   2.848
  183SLPC   C3620967   6.350   2.321   3.015
  183SLPC   H6X20968   6.347   2.432   3.021
  183SLPC   H6Y20969   6.444   2.287   3.064
  183SLPC   C3720970   6.236   2.228   3.069
  183SLPC   H7X20971   6.259   2.133   3.017
  183SLPC   H7Y20972   6.136   2.258   3.031
  183SLPC   C3820973   6.240   2.215   3.224
  183SLPC   H8X20974   6.230   2.316   3.268
  183SLPC   H8Y20975   6.344   2.188   3.250
  183SLPC   C3920976   6.137   2.119   3.277
  183SLPC   H9X20977   6.150   2.012   3.249
  183SLPC   H9Y20978   6.033   2.145   3.250
  183SLPC  C31020979   6.138   2.123   3.430
  183SLPC  H10X20980   6.172   2.224   3.462
  183SLPC  H10Y20981   6.213   2.045   3.456
  183SLPC  C31120982   6.006   2.090   3.504
  183SLPC  H11X20983   5.957   2.001   3.459
  183SLPC  H11Y20984   5.937   2.177   3.493
  183SLPC  C31220985   6.032   2.047   3.652
  183SLPC  H12X20986   6.107   2.113   3.702
  183SLPC  H12Y20987   6.084   1.949   3.649
  183SLPC  C31320988   5.912   2.028   3.745
  183SLPC  H13X20989   5.847   1.959   3.687
  183SLPC  H13Y20990   5.847   2.118   3.748
  183SLPC  C31420991   5.929   1.996   3.895
  183SLPC  H14X20992   5.946   1.887   3.900
  183SLPC  H14Y20993   5.842   2.015   3.962
  183SLPC  C31520994   6.048   2.068   3.965
  183SLPC  H15X20995   6.043   2.179   3.971
  183SLPC  H15Y20996   6.139   2.042   3.905
  183SLPC  C31620997   6.069   2.009   4.097
  183SLPC  H16X20998   6.041   1.902   4.089
  183SLPC  H16Y20999   6.000   2.062   4.167
  183SLPC  C31721000   6.207   2.023   4.166
  183SLPC  H17X21001   6.220   2.133   4.171
  183SLPC  H17Y21002   6.284   1.983   4.097
  183SLPC  C31821003   6.225   1.956   4.304
  183SLPC  H18X21004   6.322   1.984   4.350
  183SLPC  H18Y21005   6.214   1.845   4.302
  183SLPC  H18Z21006   6.141   1.985   4.370
  184SLPC     N21007   0.048   1.787   1.850
  184SLPC   C1321008   0.074   1.671   1.937
  184SLPC  H13A21009   6.861   1.629   1.963
  184SLPC  H13B21010   0.131   1.593   1.888
  184SLPC  H13C21011   0.116   1.691   2.035
  184SLPC   C1421012   6.866   1.745   1.718
  184SLPC  H14A21013   6.773   1.696   1.744
  184SLPC  H14B21014   6.841   1.821   1.646
  184SLPC  H14C21015   0.047   1.668   1.678
  184SLPC   C1521016   0.184   1.846   1.811
  184SLPC  H15A21017   0.175   1.911   1.726
  184SLPC  H15B21018   0.233   1.895   1.894
  184SLPC  H15C21019   0.249   1.768   1.773
  184SLPC   C1221020   6.846   1.881   1.933
  184SLPC  H12A21021   6.833   1.968   1.871
  184SLPC  H12B21022   0.019   1.920   2.017
  184SLPC   C1121023   6.715   1.830   1.983
  184SLPC  H11A21024   6.666   1.788   1.892
  184SLPC  H11B21025   6.653   1.914   2.020
  184SLPC     P21026   6.788   1.772   2.237
  184SLPC   O1321027   6.756   1.657   2.330
  184SLPC   O1421028   0.041   1.824   2.240
  184SLPC   O1221029   6.729   1.733   2.090
  184SLPC   O1121030   6.694   1.894   2.267
  184SLPC    C121031   6.730   2.004   2.336
  184SLPC    HA21032   6.828   2.045   2.303
  184SLPC    HB21033   6.668   2.092   2.308
  184SLPC    C221034   6.726   1.995   2.492
  184SLPC    HS21035   6.741   2.100   2.526
  184SLPC   O2121036   6.827   1.909   2.546
  184SLPC   C2121037   0.068   1.948   2.523
  184SLPC   O2221038   0.101   2.061   2.480
  184SLPC   C2221039   0.157   1.836   2.557
  184SLPC   H2R21040   0.107   1.772   2.633
  184SLPC   H2S21041   0.176   1.795   2.456
  184SLPC    C321042   6.593   1.961   2.559
  184SLPC    HX21043   6.563   1.860   2.525
  184SLPC    HY21044   6.520   2.031   2.515
  184SLPC   O3121045   6.602   1.980   2.696
  184SLPC   C3121046   6.634   1.881   2.773
  184SLPC   O3221047   6.646   1.763   2.738
  184SLPC   C3221048   6.664   1.934   2.916
  184SLPC   H2X21049   6.664   2.045   2.926
  184SLPC   H2Y21050   6.765   1.899   2.946
  184SLPC   C2321051   0.288   1.887   2.624
  184SLPC   H3R21052   0.337   1.956   2.551
  184SLPC   H3S21053   0.339   1.791   2.643
  184SLPC   C2421054   0.267   1.957   2.761
  184SLPC   H4R21055   0.159   1.943   2.781
  184SLPC   H4S21056   0.281   2.067   2.748
  184SLPC   C2521057   0.348   1.898   2.876
  184SLPC   H5R21058   0.452   1.937   2.874
  184SLPC   H5S21059   0.341   1.787   2.872
  184SLPC   C2621060   0.280   1.929   3.015
  184SLPC   H6R21061   0.171   1.911   3.025
  184SLPC   H6S21062   0.282   2.040   3.020
  184SLPC   C2721063   0.351   1.867   3.131
  184SLPC   H7R21064   0.460   1.886   3.117
  184SLPC   H7S21065   0.339   1.757   3.128
  184SLPC   C2821066   0.295   1.925   3.267
  184SLPC   H8R21067   0.362   1.872   3.337
  184SLPC   H8S21068   0.193   1.884   3.285
  184SLPC   C2921069   0.311   2.074   3.297
  184SLPC   H9R21070   0.305   2.135   3.205
  184SLPC  C21021071   0.345   2.131   3.414
  184SLPC  H10R21072   0.366   2.239   3.415
  184SLPC  C21121073   0.350   2.056   3.549
  184SLPC  H11R21074   0.443   2.081   3.604
  184SLPC  H11S21075   0.362   1.945   3.542
  184SLPC  C21221076   0.230   2.079   3.640
  184SLPC  H12R21077   0.135   2.113   3.595
  184SLPC  C21321078   0.238   2.035   3.766
  184SLPC  H13R21079   0.154   2.056   3.834
  184SLPC  C21421080   0.366   1.976   3.824
  184SLPC  H14R21081   0.435   2.057   3.857
  184SLPC  H14S21082   0.411   1.908   3.747
  184SLPC  C21521083   0.330   1.895   3.948
  184SLPC  H15R21084   0.264   1.809   3.923
  184SLPC  H15S21085   0.274   1.959   4.019
  184SLPC  C21621086   0.457   1.839   4.020
  184SLPC  H16R21087   0.535   1.918   4.028
  184SLPC  H16S21088   0.494   1.758   3.953
  184SLPC  C21721089   0.425   1.784   4.163
  184SLPC  H17R21090   0.393   1.864   4.233
  184SLPC  H17S21091   0.523   1.757   4.206
  184SLPC  C21821092   0.326   1.672   4.173
  184SLPC  H18R21093   0.344   1.604   4.087
  184SLPC  H18S21094   0.217   1.692   4.182
  184SLPC  H18T21095   0.337   1.606   4.262
  184SLPC   C3321096   6.563   1.889   3.026
  184SLPC   H3X21097   6.567   1.778   3.024
  184SLPC   H3Y21098   6.461   1.925   3.001
  184SLPC   C3421099   6.612   1.951   3.165
  184SLPC   H4X21100   6.596   2.061   3.163
  184SLPC   H4Y21101   6.717   1.922   3.183
  184SLPC   C3521102   6.522   1.902   3.284
  184SLPC   H5X21103   6.516   1.791   3.276
  184SLPC   H5Y21104   6.423   1.943   3.254
  184SLPC   C3621105   6.569   1.937   3.430
  184SLPC   H6X21106   6.579   2.046   3.443
  184SLPC   H6Y21107   6.666   1.885   3.445
  184SLPC   C3721108   6.464   1.877   3.533
  184SLPC   H7X21109   6.465   1.766   3.545
  184SLPC   H7Y21110   6.367   1.908   3.489
  184SLPC   C3821111   6.458   1.936   3.673
  184SLPC   H8X21112   6.390   1.885   3.744
  184SLPC   H8Y21113   6.426   2.042   3.674
  184SLPC   C3921114   6.594   1.942   3.758
  184SLPC   H9X21115   6.684   1.961   3.696
  184SLPC   H9Y21116   6.619   1.841   3.796
  184SLPC  C31021117   6.597   2.045   3.876
  184SLPC  H10X21118   6.504   2.025   3.934
  184SLPC  H10Y21119   6.609   2.143   3.825
  184SLPC  C31121120   6.710   2.042   3.974
  184SLPC  H11X21121   6.803   2.086   3.932
  184SLPC  H11Y21122   6.738   1.934   3.975
  184SLPC  C31221123   6.682   2.090   4.114
  184SLPC  H12X21124   6.595   2.039   4.160
  184SLPC  H12Y21125   6.639   2.192   4.106
  184SLPC  C31321126   6.807   2.066   4.212
  184SLPC  H13X21127   0.012   2.120   4.169
  184SLPC  H13Y21128   6.828   1.958   4.218
  184SLPC  C31421129   6.785   2.128   4.351
  184SLPC  H14X21130   6.676   2.124   4.374
  184SLPC  H14Y21131   6.810   2.236   4.342
  184SLPC  C31521132   6.882   2.074   4.458
  184SLPC  H15X21133   0.103   2.090   4.420
  184SLPC  H15Y21134   6.858   1.966   4.454
  184SLPC  C31621135   6.866   2.134   4.605
  184SLPC  H16X21136   6.764   2.098   4.628
  184SLPC  H16Y21137   6.864   2.245   4.603
  184SLPC  C31721138   0.085   2.079   4.705
  184SLPC  H17X21139   0.088   2.144   4.795
  184SLPC  H17Y21140   0.192   2.095   4.680
  184SLPC  C31821141   0.066   1.938   4.759
  184SLPC  H18X21142   0.071   1.875   4.668
  184SLPC  H18Y21143   6.850   1.919   4.806
  184SLPC  H18Z21144   0.145   1.910   4.832
  185POPC     N21145   1.728   5.374   6.662
  185POPC   C1221146   1.777   5.337   6.523
  185POPC  H12A21147   1.774   5.229   6.514
  185POPC  H12B21148   1.882   5.363   6.527
  185POPC   C1321149   1.828   5.306   6.758
  185POPC  H13A21150   1.786   5.311   6.857
  185POPC  H13B21151   1.838   5.200   6.735
  185POPC  H13C21152   1.923   5.357   6.758
  185POPC   C1421153   1.745   5.525   6.676
  185POPC  H14A21154   1.723   5.560   6.775
  185POPC  H14B21155   1.842   5.552   6.637
  185POPC  H14C21156   1.673   5.571   6.610
  185POPC   C1521157   1.585   5.336   6.682
  185POPC  H15A21158   1.514   5.412   6.653
  185POPC  H15B21159   1.565   5.329   6.788
  185POPC  H15C21160   1.554   5.245   6.633
  185POPC   C1121161   1.707   5.391   6.400
  185POPC  H11A21162   1.600   5.361   6.403
  185POPC  H11B21163   1.768   5.354   6.315
  185POPC     P21164   1.816   5.613   6.321
  185POPC   O1321165   1.955   5.567   6.352
  185POPC   O1421166   1.795   5.755   6.342
  185POPC   O1221167   1.711   5.531   6.405
  185POPC   O1121168   1.780   5.562   6.176
  185POPC    C121169   1.654   5.571   6.117
  185POPC    HA21170   1.608   5.669   6.141
  185POPC    HB21171   1.586   5.490   6.151
  185POPC    C221172   1.656   5.573   5.966
  185POPC    HS21173   1.552   5.587   5.932
  185POPC   O2121174   1.726   5.452   5.916
  185POPC   C2121175   1.699   5.415   5.792
  185POPC   O2221176   1.617   5.468   5.718
  185POPC   C2221177   1.786   5.303   5.746
  185POPC   H2R21178   1.737   5.249   5.662
  185POPC   H2S21179   1.789   5.230   5.829
  185POPC    C321180   1.733   5.698   5.921
  185POPC    HX21181   1.829   5.688   5.976
  185POPC    HY21182   1.689   5.792   5.962
  185POPC   O3121183   1.763   5.708   5.779
  185POPC   C3121184   1.694   5.791   5.709
  185POPC   O3221185   1.612   5.872   5.746
  185POPC   C3221186   1.732   5.775   5.553
  185POPC   H2X21187   1.718   5.666   5.535
  185POPC   H2Y21188   1.839   5.807   5.553
  185POPC   C2321189   1.926   5.339   5.698
  185POPC   H3R21190   1.975   5.245   5.666
  185POPC   H3S21191   1.977   5.381   5.788
  185POPC   C2421192   1.942   5.438   5.583
  185POPC   H4R21193   2.043   5.483   5.583
  185POPC   H4S21194   1.878   5.527   5.599
  185POPC   C2521195   1.917   5.382   5.444
  185POPC   H5R21196   1.817   5.335   5.456
  185POPC   H5S21197   1.994   5.314   5.402
  185POPC   C2621198   1.903   5.491   5.334
  185POPC   H6R21199   1.973   5.576   5.329
  185POPC   H6S21200   1.809   5.550   5.337
  185POPC   C2721201   1.904   5.424   5.198
  185POPC   H7R21202   1.841   5.333   5.202
  185POPC   H7S21203   2.009   5.395   5.175
  185POPC   C2821204   1.853   5.516   5.083
  185POPC   H8R21205   1.914   5.610   5.085
  185POPC   H8S21206   1.751   5.546   5.116
  185POPC   C2921207   1.835   5.440   4.967
  185POPC   H9121208   1.869   5.336   4.978
  185POPC  C21021209   1.804   5.479   4.846
  185POPC  H10121210   1.790   5.413   4.759
  185POPC  C21121211   1.755   5.620   4.819
  185POPC  H11R21212   1.843   5.688   4.816
  185POPC  H11S21213   1.689   5.662   4.897
  185POPC  C21221214   1.676   5.633   4.686
  185POPC  H12R21215   1.732   5.591   4.600
  185POPC  H12S21216   1.658   5.742   4.667
  185POPC  C21321217   1.538   5.558   4.692
  185POPC  H13R21218   1.559   5.466   4.751
  185POPC  H13S21219   1.510   5.536   4.587
  185POPC  C21421220   1.427   5.640   4.765
  185POPC  H14R21221   1.407   5.738   4.716
  185POPC  H14S21222   1.454   5.660   4.871
  185POPC  C21521223   1.285   5.569   4.773
  185POPC  H15R21224   1.243   5.601   4.870
  185POPC  H15S21225   1.306   5.461   4.788
  185POPC  C21621226   1.189   5.583   4.657
  185POPC  H16R21227   1.249   5.574   4.563
  185POPC  H16S21228   1.133   5.677   4.675
  185POPC  C21721229   1.084   5.470   4.652
  185POPC  H17R21230   1.136   5.372   4.652
  185POPC  H17S21231   1.038   5.481   4.552
  185POPC  C21821232   0.982   5.474   4.762
  185POPC  H18R21233   0.891   5.429   4.716
  185POPC  H18S21234   0.953   5.577   4.792
  185POPC  H18T21235   1.014   5.411   4.847
  185POPC   C3321236   1.645   5.868   5.468
  185POPC   H3X21237   1.628   5.969   5.510
  185POPC   H3Y21238   1.540   5.831   5.474
  185POPC   C3421239   1.688   5.868   5.323
  185POPC   H4X21240   1.691   5.760   5.298
  185POPC   H4Y21241   1.790   5.909   5.308
  185POPC   C3521242   1.596   5.938   5.223
  185POPC   H5X21243   1.595   6.046   5.252
  185POPC   H5Y21244   1.489   5.907   5.230
  185POPC   C3621245   1.646   5.934   5.075
  185POPC   H6X21246   1.678   5.830   5.055
  185POPC   H6Y21247   1.742   5.988   5.063
  185POPC   C3721248   1.544   5.986   4.982
  185POPC   H7X21249   1.489   6.074   5.021
  185POPC   H7Y21250   1.478   5.897   4.984
  185POPC   C3821251   1.595   5.999   4.834
  185POPC   H8X21252   1.511   5.976   4.766
  185POPC   H8Y21253   1.669   5.921   4.805
  185POPC   C3921254   1.647   6.144   4.794
  185POPC   H9X21255   1.717   6.195   4.864
  185POPC   H9Y21256   1.555   6.206   4.796
  185POPC  C31021257   1.705   6.139   4.650
  185POPC  H10X21258   1.630   6.099   4.579
  185POPC  H10Y21259   1.786   6.063   4.645
  185POPC  C31121260   1.758   6.275   4.612
  185POPC  H11X21261   1.833   6.287   4.693
  185POPC  H11Y21262   1.675   6.350   4.612
  185POPC  C31221263   1.806   6.292   4.461
  185POPC  H12X21264   1.880   6.214   4.433
  185POPC  H12Y21265   1.863   6.388   4.464
  185POPC  C31321266   1.692   6.315   4.365
  185POPC  H13X21267   1.609   6.354   4.429
  185POPC  H13Y21268   1.658   6.218   4.323
  185POPC  C31421269   1.726   6.415   4.257
  185POPC  H14X21270   1.813   6.372   4.201
  185POPC  H14Y21271   1.771   6.504   4.305
  185POPC  C31521272   1.605   6.428   4.161
  185POPC  H15X21273   1.540   6.500   4.213
  185POPC  H15Y21274   1.563   6.327   4.141
  185POPC  C31621275   1.651   6.492   4.030
  185POPC  H16X21276   1.676   6.598   4.056
  185POPC  H16Y21277   1.573   6.489   3.951
  185POPC  H16Z21278   1.741   6.442   3.988
  186POPC     N21279   3.854   4.965   6.531
  186POPC   C1221280   3.911   5.100   6.483
  186POPC  H12A21281   3.937   5.093   6.378
  186POPC  H12B21282   4.013   5.093   6.517
  186POPC   C1321283   3.708   4.957   6.515
  186POPC  H13A21284   3.651   5.033   6.567
  186POPC  H13B21285   3.680   4.962   6.410
  186POPC  H13C21286   3.679   4.860   6.554
  186POPC   C1421287   3.929   4.854   6.476
  186POPC  H14A21288   3.890   4.814   6.384
  186POPC  H14B21289   4.030   4.884   6.454
  186POPC  H14C21290   3.928   4.764   6.536
  186POPC   C1521291   3.880   4.968   6.681
  186POPC  H15A21292   3.835   5.055   6.728
  186POPC  H15B21293   3.987   4.967   6.693
  186POPC  H15C21294   3.825   4.888   6.727
  186POPC   C1121295   3.848   5.235   6.512
  186POPC  H11A21296   3.766   5.243   6.437
  186POPC  H11B21297   3.925   5.312   6.491
  186POPC     P21298   3.855   5.328   6.762
  186POPC   O1321299   3.991   5.281   6.793
  186POPC   O1421300   3.757   5.323   6.870
  186POPC   O1221301   3.795   5.249   6.641
  186POPC   O1121302   3.870   5.483   6.726
  186POPC    C121303   3.771   5.566   6.677
  186POPC    HA21304   3.766   5.652   6.746
  186POPC    HB21305   3.668   5.524   6.679
  186POPC    C221306   3.789   5.621   6.526
  186POPC    HS21307   3.748   5.723   6.534
  186POPC   O2121308   3.727   5.539   6.425
  186POPC   C2121309   3.605   5.566   6.399
  186POPC   O2221310   3.540   5.661   6.435
  186POPC   C2221311   3.553   5.454   6.309
  186POPC   H2R21312   3.473   5.401   6.364
  186POPC   H2S21313   3.636   5.386   6.282
  186POPC    C321314   3.944   5.626   6.502
  186POPC    HX21315   3.994   5.529   6.519
  186POPC    HY21316   3.985   5.695   6.579
  186POPC   O3121317   3.990   5.674   6.373
  186POPC   C3121318   4.008   5.588   6.271
  186POPC   O3221319   3.998   5.467   6.279
  186POPC   C3221320   4.052   5.665   6.147
  186POPC   H2X21321   4.090   5.584   6.081
  186POPC   H2Y21322   4.132   5.737   6.177
  186POPC   C2321323   3.493   5.516   6.191
  186POPC   H3R21324   3.426   5.600   6.220
  186POPC   H3S21325   3.428   5.446   6.134
  186POPC   C2421326   3.597   5.581   6.098
  186POPC   H4R21327   3.663   5.500   6.060
  186POPC   H4S21328   3.663   5.654   6.151
  186POPC   C2521329   3.534   5.635   5.973
  186POPC   H5R21330   3.485   5.734   5.978
  186POPC   H5S21331   3.446   5.576   5.940
  186POPC   C2621332   3.622   5.647   5.846
  186POPC   H6R21333   3.704   5.720   5.862
  186POPC   H6S21334   3.553   5.675   5.763
  186POPC   C2721335   3.680   5.519   5.788
  186POPC   H7R21336   3.622   5.430   5.821
  186POPC   H7S21337   3.781   5.506   5.831
  186POPC   C2821338   3.678   5.532   5.635
  186POPC   H8R21339   3.574   5.553   5.601
  186POPC   H8S21340   3.726   5.441   5.593
  186POPC   C2921341   3.781   5.632   5.584
  186POPC   H9121342   3.850   5.662   5.664
  186POPC  C21021343   3.775   5.700   5.469
  186POPC  H10121344   3.866   5.760   5.453
  186POPC  C21121345   3.683   5.690   5.354
  186POPC  H11R21346   3.628   5.783   5.327
  186POPC  H11S21347   3.602   5.624   5.392
  186POPC  C21221348   3.752   5.625   5.233
  186POPC  H12R21349   3.779   5.521   5.262
  186POPC  H12S21350   3.851   5.674   5.222
  186POPC  C21321351   3.674   5.603   5.099
  186POPC  H13R21352   3.652   5.696   5.042
  186POPC  H13S21353   3.579   5.547   5.117
  186POPC  C21421354   3.760   5.518   4.999
  186POPC  H14R21355   3.780   5.414   5.032
  186POPC  H14S21356   3.852   5.575   4.977
  186POPC  C21521357   3.686   5.516   4.863
  186POPC  H15R21358   3.660   5.620   4.834
  186POPC  H15S21359   3.587   5.464   4.869
  186POPC  C21621360   3.786   5.453   4.766
  186POPC  H16R21361   3.799   5.344   4.785
  186POPC  H16S21362   3.887   5.496   4.780
  186POPC  C21721363   3.738   5.485   4.628
  186POPC  H17R21364   3.707   5.591   4.612
  186POPC  H17S21365   3.641   5.439   4.600
  186POPC  C21821366   3.842   5.457   4.520
  186POPC  H18R21367   3.799   5.487   4.422
  186POPC  H18S21368   3.874   5.352   4.506
  186POPC  H18T21369   3.936   5.512   4.542
  186POPC   C3321370   3.929   5.728   6.079
  186POPC   H3X21371   3.870   5.800   6.141
  186POPC   H3Y21372   3.860   5.645   6.051
  186POPC   C3421373   3.959   5.811   5.954
  186POPC   H4X21374   4.003   5.909   5.983
  186POPC   H4Y21375   3.862   5.840   5.906
  186POPC   C3521376   4.058   5.748   5.850
  186POPC   H5X21377   4.011   5.652   5.819
  186POPC   H5Y21378   4.159   5.723   5.889
  186POPC   C3621379   4.078   5.835   5.726
  186POPC   H6X21380   4.146   5.920   5.749
  186POPC   H6Y21381   3.972   5.866   5.712
  186POPC   C3721382   4.115   5.767   5.595
  186POPC   H7X21383   4.045   5.685   5.570
  186POPC   H7Y21384   4.207   5.707   5.609
  186POPC   C3821385   4.125   5.872   5.485
  186POPC   H8X21386   4.189   5.955   5.522
  186POPC   H8Y21387   4.025   5.919   5.486
  186POPC   C3921388   4.150   5.834   5.342
  186POPC   H9X21389   4.086   5.745   5.324
  186POPC   H9Y21390   4.255   5.803   5.319
  186POPC  C31021391   4.115   5.942   5.241
  186POPC  H10X21392   4.172   5.920   5.149
  186POPC  H10Y21393   4.136   6.041   5.289
  186POPC  C31121394   3.963   5.953   5.205
  186POPC  H11X21395   3.906   5.954   5.301
  186POPC  H11Y21396   3.935   5.859   5.151
  186POPC  C31221397   3.930   6.063   5.114
  186POPC  H12X21398   4.002   6.140   5.150
  186POPC  H12Y21399   3.822   6.086   5.126
  186POPC  C31321400   3.958   6.038   4.967
  186POPC  H13X21401   3.907   5.941   4.950
  186POPC  H13Y21402   4.067   6.022   4.952
  186POPC  C31421403   3.911   6.130   4.856
  186POPC  H14X21404   3.933   6.237   4.877
  186POPC  H14Y21405   3.800   6.129   4.849
  186POPC  C31521406   3.947   6.096   4.709
  186POPC  H15X21407   4.058   6.099   4.701
  186POPC  H15Y21408   3.902   6.178   4.649
  186POPC  C31621409   3.901   5.956   4.663
  186POPC  H16X21410   3.795   5.928   4.677
  186POPC  H16Y21411   3.962   5.873   4.707
  186POPC  H16Z21412   3.913   5.949   4.553
  187POPC     N21413   6.499   4.960   2.418
  187POPC   C1221414   6.495   5.109   2.396
  187POPC  H12A21415   6.423   5.137   2.321
  187POPC  H12B21416   6.591   5.140   2.357
  187POPC   C1321417   6.544   4.892   2.292
  187POPC  H13A21418   6.482   4.909   2.205
  187POPC  H13B21419   6.644   4.923   2.266
  187POPC  H13C21420   6.551   4.787   2.314
  187POPC   C1421421   6.605   4.925   2.525
  187POPC  H14A21422   6.702   4.959   2.491
  187POPC  H14B21423   6.583   4.991   2.607
  187POPC  H14C21424   6.624   4.821   2.545
  187POPC   C1521425   6.371   4.904   2.457
  187POPC  H15A21426   6.373   4.799   2.482
  187POPC  H15B21427   6.303   4.915   2.374
  187POPC  H15C21428   6.327   4.963   2.536
  187POPC   C1121429   6.466   5.210   2.514
  187POPC  H11A21430   6.484   5.314   2.481
  187POPC  H11B21431   6.534   5.187   2.600
  187POPC     P21432   6.205   5.246   2.503
  187POPC   O1321433   6.113   5.135   2.468
  187POPC   O1421434   6.230   5.339   2.389
  187POPC   O1221435   6.336   5.187   2.562
  187POPC   O1121436   6.154   5.335   2.624
  187POPC    C121437   6.245   5.395   2.710
  187POPC    HA21438   6.323   5.448   2.650
  187POPC    HB21439   6.302   5.316   2.763
  187POPC    C221440   6.181   5.489   2.816
  187POPC    HS21441   6.264   5.516   2.885
  187POPC   O2121442   6.081   5.430   2.900
  187POPC   C2121443   6.121   5.329   2.976
  187POPC   O2221444   6.229   5.275   2.973
  187POPC   C2221445   6.014   5.281   3.072
  187POPC   H2R21446   5.941   5.225   3.010
  187POPC   H2S21447   5.967   5.369   3.122
  187POPC    C321448   6.132   5.622   2.753
  187POPC    HX21449   6.054   5.595   2.679
  187POPC    HY21450   6.208   5.676   2.693
  187POPC   O3121451   6.088   5.706   2.856
  187POPC   C3121452   5.951   5.701   2.879
  187POPC   O3221453   5.877   5.626   2.822
  187POPC   C3221454   5.923   5.809   2.976
  187POPC   H2X21455   5.838   5.864   2.932
  187POPC   H2Y21456   6.013   5.869   3.002
  187POPC   C2321457   6.073   5.186   3.179
  187POPC   H3R21458   6.157   5.231   3.236
  187POPC   H3S21459   6.113   5.096   3.128
  187POPC   C2421460   5.960   5.135   3.278
  187POPC   H4R21461   5.878   5.108   3.207
  187POPC   H4S21462   5.917   5.217   3.340
  187POPC   C2521463   5.980   5.004   3.358
  187POPC   H5R21464   6.016   4.924   3.289
  187POPC   H5S21465   5.886   4.969   3.406
  187POPC   C2621466   6.097   5.020   3.464
  187POPC   H6R21467   6.086   5.118   3.514
  187POPC   H6S21468   6.190   5.018   3.403
  187POPC   C2721469   6.108   4.900   3.560
  187POPC   H7R21470   6.195   4.926   3.625
  187POPC   H7S21471   6.137   4.816   3.494
  187POPC   C2821472   5.993   4.873   3.647
  187POPC   H8R21473   6.008   4.784   3.711
  187POPC   H8S21474   5.899   4.849   3.594
  187POPC   C2921475   5.968   4.998   3.734
  187POPC   H9121476   5.901   5.072   3.689
  187POPC  C21021477   6.020   5.019   3.856
  187POPC  H10121478   5.999   5.117   3.902
  187POPC  C21121479   6.114   4.928   3.933
  187POPC  H11R21480   6.197   4.979   3.986
  187POPC  H11S21481   6.154   4.853   3.862
  187POPC  C21221482   6.042   4.871   4.060
  187POPC  H12R21483   6.114   4.805   4.113
  187POPC  H12S21484   5.953   4.810   4.034
  187POPC  C21321485   6.000   4.966   4.175
  187POPC  H13R21486   5.952   5.052   4.123
  187POPC  H13S21487   6.099   5.003   4.210
  187POPC  C21421488   5.935   4.909   4.301
  187POPC  H14R21489   6.010   4.840   4.344
  187POPC  H14S21490   5.848   4.845   4.275
  187POPC  C21521491   5.897   5.018   4.404
  187POPC  H15R21492   5.815   5.081   4.363
  187POPC  H15S21493   5.991   5.074   4.421
  187POPC  C21621494   5.842   4.971   4.537
  187POPC  H16R21495   5.915   4.903   4.586
  187POPC  H16S21496   5.760   4.904   4.504
  187POPC  C21721497   5.797   5.087   4.629
  187POPC  H17R21498   5.730   5.045   4.708
  187POPC  H17S21499   5.746   5.160   4.563
  187POPC  C21821500   5.913   5.149   4.710
  187POPC  H18R21501   5.971   5.068   4.760
  187POPC  H18S21502   5.867   5.216   4.786
  187POPC  H18T21503   5.987   5.202   4.646
  187POPC   C3321504   5.869   5.754   3.113
  187POPC   H3X21505   5.780   5.688   3.101
  187POPC   H3Y21506   5.850   5.844   3.175
  187POPC   C3421507   5.971   5.680   3.197
  187POPC   H4X21508   6.035   5.751   3.254
  187POPC   H4Y21509   6.030   5.599   3.147
  187POPC   C3521510   5.909   5.616   3.323
  187POPC   H5X21511   5.817   5.561   3.293
  187POPC   H5Y21512   5.875   5.696   3.393
  187POPC   C3621513   6.010   5.533   3.403
  187POPC   H6X21514   6.091   5.605   3.426
  187POPC   H6Y21515   6.066   5.448   3.359
  187POPC   C3721516   5.946   5.477   3.533
  187POPC   H7X21517   5.870   5.400   3.508
  187POPC   H7Y21518   5.901   5.566   3.582
  187POPC   C3821519   6.039   5.421   3.638
  187POPC   H8X21520   6.112   5.501   3.659
  187POPC   H8Y21521   6.096   5.332   3.602
  187POPC   C3921522   5.977   5.372   3.774
  187POPC   H9X21523   6.056   5.331   3.841
  187POPC   H9Y21524   5.911   5.285   3.754
  187POPC  C31021525   5.881   5.468   3.842
  187POPC  H10X21526   5.803   5.495   3.768
  187POPC  H10Y21527   5.939   5.560   3.864
  187POPC  C31121528   5.805   5.419   3.963
  187POPC  H11X21529   5.838   5.321   4.003
  187POPC  H11Y21530   5.699   5.398   3.937
  187POPC  C31221531   5.805   5.523   4.079
  187POPC  H12X21532   5.743   5.612   4.055
  187POPC  H12Y21533   5.911   5.552   4.091
  187POPC  C31321534   5.754   5.462   4.210
  187POPC  H13X21535   5.724   5.547   4.275
  187POPC  H13Y21536   5.821   5.388   4.258
  187POPC  C31421537   5.623   5.384   4.197
  187POPC  H14X21538   5.623   5.290   4.138
  187POPC  H14Y21539   5.544   5.452   4.159
  187POPC  C31521540   5.586   5.332   4.335
  187POPC  H15X21541   5.581   5.413   4.410
  187POPC  H15Y21542   5.667   5.264   4.369
  187POPC  C31621543   5.443   5.277   4.343
  187POPC  H16X21544   5.370   5.359   4.323
  187POPC  H16Y21545   5.422   5.219   4.436
  187POPC  H16Z21546   5.414   5.211   4.259
  188POPC     N21547   5.806   5.547   2.387
  188POPC   C1221548   5.747   5.412   2.428
  188POPC  H12A21549   5.642   5.421   2.451
  188POPC  H12B21550   5.804   5.378   2.513
  188POPC   C1321551   5.722   5.612   2.275
  188POPC  H13A21552   5.633   5.655   2.320
  188POPC  H13B21553   5.779   5.694   2.235
  188POPC  H13C21554   5.693   5.541   2.199
  188POPC   C1421555   5.808   5.638   2.508
  188POPC  H14A21556   5.706   5.661   2.537
  188POPC  H14B21557   5.872   5.604   2.587
  188POPC  H14C21558   5.838   5.738   2.481
  188POPC   C1521559   5.953   5.533   2.349
  188POPC  H15A21560   5.994   5.629   2.321
  188POPC  H15B21561   5.967   5.458   2.273
  188POPC  H15C21562   6.003   5.495   2.436
  188POPC   C1121563   5.749   5.299   2.317
  188POPC  H11A21564   5.678   5.222   2.355
  188POPC  H11B21565   5.855   5.267   2.308
  188POPC     P21566   5.664   5.248   2.073
  188POPC   O1321567   5.780   5.155   2.056
  188POPC   O1421568   5.605   5.311   1.955
  188POPC   O1221569   5.694   5.354   2.191
  188POPC   O1121570   5.542   5.164   2.140
  188POPC    C121571   5.409   5.220   2.166
  188POPC    HA21572   5.335   5.142   2.139
  188POPC    HB21573   5.386   5.311   2.106
  188POPC    C221574   5.380   5.250   2.317
  188POPC    HS21575   5.456   5.315   2.365
  188POPC   O2121576   5.371   5.118   2.374
  188POPC   C2121577   5.430   5.107   2.491
  188POPC   O2221578   5.510   5.180   2.547
  188POPC   C2221579   5.401   4.961   2.543
  188POPC   H2R21580   5.487   4.904   2.503
  188POPC   H2S21581   5.308   4.918   2.498
  188POPC    C321582   5.229   5.314   2.339
  188POPC    HX21583   5.165   5.234   2.296
  188POPC    HY21584   5.233   5.407   2.277
  188POPC   O3121585   5.194   5.330   2.477
  188POPC   C3121586   5.070   5.377   2.480
  188POPC   O3221587   5.002   5.408   2.381
  188POPC   C3221588   5.007   5.385   2.621
  188POPC   H2X21589   4.945   5.296   2.643
  188POPC   H2Y21590   4.941   5.474   2.622
  188POPC   C2321591   5.384   4.952   2.697
  188POPC   H3R21592   5.480   4.989   2.737
  188POPC   H3S21593   5.386   4.846   2.729
  188POPC   C2421594   5.262   5.031   2.758
  188POPC   H4R21595   5.189   5.009   2.678
  188POPC   H4S21596   5.285   5.139   2.771
  188POPC   C2521597   5.219   4.980   2.892
  188POPC   H5R21598   5.197   5.064   2.961
  188POPC   H5S21599   5.305   4.922   2.932
  188POPC   C2621600   5.098   4.894   2.880
  188POPC   H6R21601   5.066   4.847   2.975
  188POPC   H6S21602   5.111   4.814   2.804
  188POPC   C2721603   4.978   4.977   2.847
  188POPC   H7R21604   4.990   5.033   2.752
  188POPC   H7S21605   4.965   5.053   2.927
  188POPC   C2821606   4.850   4.891   2.821
  188POPC   H8R21607   4.852   4.824   2.910
  188POPC   H8S21608   4.844   4.829   2.729
  188POPC   C2921609   4.716   4.974   2.828
  188POPC   H9121610   4.722   5.080   2.802
  188POPC  C21021611   4.611   4.933   2.906
  188POPC  H10121612   4.517   4.990   2.897
  188POPC  C21121613   4.584   4.793   2.963
  188POPC  H11R21614   4.663   4.719   2.940
  188POPC  H11S21615   4.492   4.754   2.915
  188POPC  C21221616   4.549   4.792   3.113
  188POPC  H12R21617   4.513   4.694   3.151
  188POPC  H12S21618   4.478   4.875   3.134
  188POPC  C21321619   4.675   4.813   3.196
  188POPC  H13R21620   4.717   4.913   3.172
  188POPC  H13S21621   4.755   4.739   3.173
  188POPC  C21421622   4.649   4.801   3.354
  188POPC  H14R21623   4.747   4.809   3.406
  188POPC  H14S21624   4.616   4.702   3.392
  188POPC  C21521625   4.542   4.898   3.396
  188POPC  H15R21626   4.439   4.868   3.369
  188POPC  H15S21627   4.568   4.996   3.349
  188POPC  C21621628   4.555   4.941   3.546
  188POPC  H16R21629   4.491   5.029   3.566
  188POPC  H16S21630   4.656   4.978   3.575
  188POPC  C21721631   4.510   4.833   3.644
  188POPC  H17R21632   4.584   4.750   3.632
  188POPC  H17S21633   4.411   4.789   3.620
  188POPC  C21821634   4.508   4.892   3.783
  188POPC  H18R21635   4.576   4.978   3.800
  188POPC  H18S21636   4.519   4.817   3.865
  188POPC  H18T21637   4.407   4.936   3.796
  188POPC   C3321638   5.104   5.375   2.739
  188POPC   H3X21639   5.182   5.455   2.739
  188POPC   H3Y21640   5.166   5.284   2.725
  188POPC   C3421641   5.033   5.387   2.876
  188POPC   H4X21642   4.954   5.311   2.896
  188POPC   H4Y21643   4.977   5.482   2.884
  188POPC   C3521644   5.128   5.374   2.998
  188POPC   H5X21645   5.205   5.453   2.984
  188POPC   H5Y21646   5.187   5.280   2.996
  188POPC   C3621647   5.062   5.386   3.136
  188POPC   H6X21648   5.048   5.287   3.184
  188POPC   H6Y21649   4.960   5.429   3.127
  188POPC   C3721650   5.150   5.472   3.230
  188POPC   H7X21651   5.128   5.576   3.196
  188POPC   H7Y21652   5.258   5.461   3.205
  188POPC   C3821653   5.126   5.441   3.380
  188POPC   H8X21654   5.184   5.513   3.441
  188POPC   H8Y21655   5.167   5.340   3.404
  188POPC   C3921656   4.979   5.457   3.435
  188POPC   H9X21657   4.927   5.369   3.392
  188POPC   H9Y21658   4.943   5.549   3.385
  188POPC  C31021659   4.979   5.468   3.588
  188POPC  H10X21660   5.030   5.558   3.627
  188POPC  H10Y21661   5.012   5.374   3.637
  188POPC  C31121662   4.834   5.485   3.650
  188POPC  H11X21663   4.777   5.390   3.639
  188POPC  H11Y21664   4.775   5.553   3.584
  188POPC  C31221665   4.847   5.546   3.786
  188POPC  H12X21666   4.870   5.654   3.779
  188POPC  H12Y21667   4.935   5.502   3.838
  188POPC  C31321668   4.709   5.548   3.866
  188POPC  H13X21669   4.682   5.440   3.860
  188POPC  H13Y21670   4.640   5.609   3.805
  188POPC  C31421671   4.716   5.595   4.017
  188POPC  H14X21672   4.819   5.628   4.044
  188POPC  H14Y21673   4.686   5.517   4.090
  188POPC  C31521674   4.613   5.710   4.039
  188POPC  H15X21675   4.602   5.709   4.149
  188POPC  H15Y21676   4.519   5.685   3.985
  188POPC  C31621677   4.668   5.841   3.983
  188POPC  H16X21678   4.674   5.846   3.872
  188POPC  H16Y21679   4.766   5.861   4.031
  188POPC  H16Z21680   4.613   5.931   4.017
  189SAPI   C1221681   2.059   4.802   6.656
  189SAPI    H221682   2.144   4.814   6.586
  189SAPI    O221683   1.946   4.745   6.583
  189SAPI   HO221684   1.892   4.819   6.554
  189SAPI   C1321685   2.101   4.705   6.761
  189SAPI    H321686   2.159   4.769   6.832
  189SAPI    O321687   2.184   4.602   6.706
  189SAPI   HO321688   2.231   4.560   6.779
  189SAPI   C1421689   1.983   4.659   6.844
  189SAPI    H421690   1.916   4.599   6.778
  189SAPI    O421691   2.025   4.559   6.946
  189SAPI   HO421692   2.027   4.468   6.916
  189SAPI   C1521693   1.899   4.769   6.906
  189SAPI    H521694   1.947   4.791   7.004
  189SAPI    O521695   1.763   4.711   6.924
  189SAPI   HO521696   1.764   4.649   6.997
  189SAPI   C1621697   1.895   4.908   6.836
  189SAPI    H621698   1.804   4.890   6.774
  189SAPI    O621699   1.864   5.015   6.920
  189SAPI   HO621700   1.908   5.094   6.889
  189SAPI   C1121701   2.014   4.927   6.738
  189SAPI    H121702   2.094   4.961   6.806
  189SAPI     P21703   2.098   5.123   6.580
  189SAPI   O1321704   2.212   5.034   6.544
  189SAPI   O1421705   2.129   5.238   6.673
  189SAPI   O1221706   1.972   5.030   6.647
  189SAPI   O1121707   2.035   5.179   6.445
  189SAPI    C121708   2.027   5.099   6.326
  189SAPI    HA21709   2.058   4.994   6.341
  189SAPI    HB21710   1.918   5.094   6.305
  189SAPI    C221711   2.108   5.162   6.213
  189SAPI    HS21712   2.068   5.130   6.115
  189SAPI   O2121713   2.251   5.122   6.229
  189SAPI   C2121714   2.320   5.134   6.109
  189SAPI   O2221715   2.269   5.158   6.001
  189SAPI   C2221716   2.469   5.129   6.144
  189SAPI   H2R21717   2.492   5.196   6.230
  189SAPI   H2S21718   2.481   5.022   6.172
  189SAPI    C321719   2.094   5.317   6.217
  189SAPI    HX21720   2.169   5.357   6.289
  189SAPI    HY21721   1.993   5.342   6.255
  189SAPI   O3121722   2.088   5.384   6.083
  189SAPI   C3121723   2.189   5.469   6.057
  189SAPI   O3221724   2.271   5.512   6.136
  189SAPI   C3221725   2.166   5.540   5.921
  189SAPI   H2X21726   2.058   5.549   5.895
  189SAPI   H2Y21727   2.214   5.474   5.845
  189SAPI   C2321728   2.578   5.156   6.036
  189SAPI   H3R21729   2.549   5.110   5.939
  189SAPI   H3S21730   2.665   5.096   6.070
  189SAPI   C2421731   2.612   5.308   6.018
  189SAPI   H4R21732   2.720   5.306   5.990
  189SAPI   H4S21733   2.601   5.355   6.117
  189SAPI   C2521734   2.512   5.378   5.928
  189SAPI   H5R21735   2.459   5.466   5.965
  189SAPI   C2621736   2.494   5.359   5.799
  189SAPI   H6R21737   2.421   5.415   5.738
  189SAPI   C2721738   2.554   5.247   5.714
  189SAPI   H7R21739   2.522   5.252   5.607
  189SAPI   H7S21740   2.513   5.147   5.742
  189SAPI   C2821741   2.698   5.223   5.717
  189SAPI   H8R21742   2.729   5.131   5.769
  189SAPI   C2921743   2.791   5.309   5.664
  189SAPI   H9R21744   2.894   5.269   5.664
  189SAPI  C21021745   2.771   5.435   5.583
  189SAPI  H10R21746   2.786   5.529   5.641
  189SAPI  H10S21747   2.671   5.436   5.535
  189SAPI  C21121748   2.880   5.441   5.478
  189SAPI  H11R21749   2.974   5.388   5.501
  189SAPI  C21221750   2.874   5.507   5.364
  189SAPI  H12R21751   2.962   5.502   5.298
  189SAPI  C21321752   2.752   5.574   5.304
  189SAPI  H13R21753   2.730   5.666   5.363
  189SAPI  H13S21754   2.662   5.509   5.299
  189SAPI  C21421755   2.768   5.629   5.165
  189SAPI  H14R21756   2.766   5.738   5.152
  189SAPI  C21521757   2.760   5.549   5.052
  189SAPI  H15R21758   2.779   5.595   4.954
  189SAPI  C21621759   2.745   5.397   5.055
  189SAPI  H16R21760   2.653   5.376   5.112
  189SAPI  H16S21761   2.826   5.344   5.109
  189SAPI  C21721762   2.741   5.355   4.906
  189SAPI  H17R21763   2.845   5.357   4.868
  189SAPI  H17S21764   2.685   5.431   4.848
  189SAPI  C21821765   2.691   5.214   4.882
  189SAPI  H18R21766   2.587   5.206   4.923
  189SAPI  H18S21767   2.759   5.141   4.930
  189SAPI  C21921768   2.690   5.183   4.730
  189SAPI  H19R21769   2.631   5.258   4.673
  189SAPI  H19S21770   2.628   5.093   4.709
  189SAPI  C22021771   2.824   5.167   4.660
  189SAPI  H20R21772   2.883   5.261   4.660
  189SAPI  H20S21773   2.807   5.140   4.554
  189SAPI  H20T21774   2.894   5.090   4.699
  189SAPI   C3321775   2.222   5.688   5.925
  189SAPI   H3X21776   2.333   5.690   5.930
  189SAPI   H3Y21777   2.179   5.747   6.009
  189SAPI   C3421778   2.181   5.774   5.801
  189SAPI   H4X21779   2.214   5.879   5.811
  189SAPI   H4Y21780   2.071   5.789   5.803
  189SAPI   C3521781   2.227   5.731   5.666
  189SAPI   H5X21782   2.190   5.629   5.644
  189SAPI   H5Y21783   2.338   5.720   5.673
  189SAPI   C3621784   2.176   5.818   5.553
  189SAPI   H6X21785   2.203   5.924   5.576
  189SAPI   H6Y21786   2.067   5.799   5.562
  189SAPI   C3721787   2.214   5.779   5.411
  189SAPI   H7X21788   2.214   5.668   5.397
  189SAPI   H7Y21789   2.318   5.808   5.388
  189SAPI   C3821790   2.111   5.830   5.310
  189SAPI   H8X21791   2.094   5.940   5.314
  189SAPI   H8Y21792   2.016   5.776   5.331
  189SAPI   C3921793   2.150   5.814   5.163
  189SAPI   H9X21794   2.143   5.710   5.126
  189SAPI   H9Y21795   2.252   5.855   5.151
  189SAPI  C31021796   2.062   5.893   5.063
  189SAPI  H10X21797   2.082   6.001   5.079
  189SAPI  H10Y21798   1.954   5.876   5.081
  189SAPI  C31121799   2.092   5.863   4.913
  189SAPI  H11X21800   2.090   5.753   4.898
  189SAPI  H11Y21801   2.196   5.899   4.899
  189SAPI  C31221802   1.998   5.924   4.810
  189SAPI  H12X21803   1.994   6.034   4.822
  189SAPI  H12Y21804   1.893   5.888   4.822
  189SAPI  C31321805   2.032   5.899   4.661
  189SAPI  H13X21806   1.996   5.988   4.605
  189SAPI  H13Y21807   1.967   5.811   4.640
  189SAPI  C31421808   2.179   5.890   4.628
  189SAPI  H14X21809   2.197   5.845   4.528
  189SAPI  H14Y21810   2.228   5.820   4.700
  189SAPI  C31521811   2.256   6.024   4.640
  189SAPI  H15X21812   2.365   6.000   4.634
  189SAPI  H15Y21813   2.242   6.070   4.740
  189SAPI  C31621814   2.233   6.100   4.509
  189SAPI  H16X21815   2.125   6.123   4.500
  189SAPI  H16Y21816   2.262   6.029   4.429
  189SAPI  C31721817   2.317   6.229   4.490
  189SAPI  H17X21818   2.314   6.264   4.384
  189SAPI  H17Y21819   2.420   6.212   4.528
  189SAPI  C31821820   2.259   6.352   4.560
  189SAPI  H18X21821   2.280   6.347   4.669
  189SAPI  H18Y21822   2.149   6.359   4.544
  189SAPI  H18Z21823   2.300   6.443   4.511
  190SAPI   C1221824   1.131   3.097   6.715
  190SAPI    H221825   1.123   2.994   6.673
  190SAPI    O221826   1.013   3.121   6.788
  190SAPI   HO221827   0.948   3.061   6.750
  190SAPI   C1321828   1.259   3.117   6.794
  190SAPI    H321829   1.352   3.111   6.732
  190SAPI    O321830   1.274   3.004   6.892
  190SAPI   HO321831   1.311   2.933   6.838
  190SAPI   C1421832   1.265   3.250   6.855
  190SAPI    H421833   1.174   3.267   6.917
  190SAPI    O421834   1.371   3.274   6.949
  190SAPI   HO421835   1.360   3.210   7.020
  190SAPI   C1521836   1.264   3.356   6.741
  190SAPI    H521837   1.362   3.339   6.694
  190SAPI    O521838   1.261   3.491   6.797
  190SAPI   HO521839   1.172   3.526   6.789
  190SAPI   C1621840   1.162   3.334   6.633
  190SAPI    H621841   1.063   3.372   6.663
  190SAPI    O621842   1.193   3.410   6.516
  190SAPI   HO621843   1.273   3.376   6.476
  190SAPI   C1121844   1.138   3.195   6.601
  190SAPI    H121845   1.226   3.162   6.542
  190SAPI     P21846   1.026   3.121   6.359
  190SAPI   O1321847   1.125   3.191   6.267
  190SAPI   O1421848   0.882   3.141   6.318
  190SAPI   O1221849   1.026   3.172   6.519
  190SAPI   O1121850   1.063   2.970   6.359
  190SAPI    C121851   0.973   2.863   6.337
  190SAPI    HA21852   0.986   2.796   6.425
  190SAPI    HB21853   0.867   2.896   6.339
  190SAPI    C221854   1.021   2.787   6.205
  190SAPI    HS21855   1.127   2.754   6.220
  190SAPI   O2121856   0.991   2.877   6.093
  190SAPI   C2121857   1.091   2.875   6.007
  190SAPI   O2221858   1.191   2.802   6.020
  190SAPI   C2221859   1.074   2.971   5.890
  190SAPI   H2R21860   0.985   2.939   5.832
  190SAPI   H2S21861   1.053   3.074   5.927
  190SAPI    C321862   0.945   2.660   6.186
  190SAPI    HX21863   0.837   2.685   6.197
  190SAPI    HY21864   0.956   2.585   6.267
  190SAPI   O3121865   0.973   2.611   6.049
  190SAPI   C3121866   1.067   2.509   6.051
  190SAPI   O3221867   1.122   2.459   6.150
  190SAPI   C3221868   1.085   2.459   5.912
  190SAPI   H2X21869   0.992   2.405   5.884
  190SAPI   H2Y21870   1.156   2.373   5.911
  190SAPI   C2321871   1.198   2.975   5.792
  190SAPI   H3R21872   1.235   2.874   5.765
  190SAPI   H3S21873   1.281   3.019   5.852
  190SAPI   C2421874   1.172   3.062   5.671
  190SAPI   H4R21875   1.260   3.118   5.633
  190SAPI   H4S21876   1.112   3.150   5.703
  190SAPI   C2521877   1.099   2.990   5.562
  190SAPI   H5R21878   1.043   2.902   5.598
  190SAPI   C2621879   1.107   3.014   5.430
  190SAPI   H6R21880   1.059   2.942   5.363
  190SAPI   C2721881   1.180   3.118   5.350
  190SAPI   H7R21882   1.185   3.211   5.411
  190SAPI   H7S21883   1.114   3.146   5.265
  190SAPI   C2821884   1.310   3.064   5.299
  190SAPI   H8R21885   1.369   3.023   5.382
  190SAPI   C2921886   1.363   3.053   5.176
  190SAPI   H9R21887   1.459   3.001   5.164
  190SAPI  C21021888   1.299   3.098   5.046
  190SAPI  H10R21889   1.222   3.172   5.078
  190SAPI  H10S21890   1.250   3.016   4.989
  190SAPI  C21121891   1.383   3.183   4.959
  190SAPI  H11R21892   1.392   3.289   4.988
  190SAPI  C21221893   1.457   3.141   4.858
  190SAPI  H12R21894   1.517   3.214   4.803
  190SAPI  C21321895   1.462   3.008   4.789
  190SAPI  H13R21896   1.427   2.925   4.854
  190SAPI  H13S21897   1.564   2.972   4.767
  190SAPI  C21421898   1.366   3.023   4.675
  190SAPI  H14R21899   1.263   2.998   4.704
  190SAPI  C21521900   1.395   3.066   4.553
  190SAPI  H15R21901   1.320   3.067   4.472
  190SAPI  C21621902   1.532   3.095   4.507
  190SAPI  H16R21903   1.609   3.083   4.587
  190SAPI  H16S21904   1.549   3.200   4.474
  190SAPI  C21721905   1.567   2.997   4.393
  190SAPI  H17R21906   1.490   3.006   4.314
  190SAPI  H17S21907   1.546   2.891   4.418
  190SAPI  C21821908   1.708   3.026   4.338
  190SAPI  H18R21909   1.777   2.985   4.414
  190SAPI  H18S21910   1.732   3.131   4.309
  190SAPI  C21921911   1.735   2.948   4.206
  190SAPI  H19R21912   1.661   2.961   4.124
  190SAPI  H19S21913   1.739   2.842   4.240
  190SAPI  C22021914   1.868   2.988   4.143
  190SAPI  H20R21915   1.955   2.986   4.213
  190SAPI  H20S21916   1.868   3.085   4.089
  190SAPI  H20T21917   1.893   2.922   4.058
  190SAPI   C3321918   1.105   2.573   5.810
  190SAPI   H3X21919   1.210   2.607   5.806
  190SAPI   H3Y21920   1.041   2.661   5.833
  190SAPI   C3421921   1.071   2.514   5.675
  190SAPI   H4X21922   0.975   2.458   5.679
  190SAPI   H4Y21923   1.147   2.441   5.639
  190SAPI   C3521924   1.063   2.612   5.551
  190SAPI   H5X21925   1.159   2.665   5.569
  190SAPI   H5Y21926   0.967   2.667   5.562
  190SAPI   C3621927   1.067   2.544   5.410
  190SAPI   H6X21928   0.978   2.479   5.399
  190SAPI   H6Y21929   1.155   2.477   5.400
  190SAPI   C3721930   1.078   2.668   5.312
  190SAPI   H7X21931   1.166   2.726   5.346
  190SAPI   H7Y21932   0.995   2.739   5.330
  190SAPI   C3821933   1.076   2.633   5.158
  190SAPI   H8X21934   0.978   2.588   5.130
  190SAPI   H8Y21935   1.166   2.569   5.149
  190SAPI   C3921936   1.105   2.750   5.070
  190SAPI   H9X21937   1.139   2.720   4.969
  190SAPI   H9Y21938   1.200   2.794   5.107
  190SAPI  C31021939   1.000   2.860   5.066
  190SAPI  H10X21940   1.047   2.953   5.029
  190SAPI  H10Y21941   0.960   2.869   5.169
  190SAPI  C31121942   0.888   2.823   4.977
  190SAPI  H11X21943   0.803   2.887   5.011
  190SAPI  H11Y21944   0.856   2.717   4.989
  190SAPI  C31221945   0.915   2.820   4.824
  190SAPI  H12X21946   0.989   2.739   4.807
  190SAPI  H12Y21947   0.953   2.919   4.791
  190SAPI  C31321948   0.786   2.796   4.740
  190SAPI  H13X21949   0.705   2.834   4.806
  190SAPI  H13Y21950   0.781   2.686   4.734
  190SAPI  C31421951   0.799   2.860   4.602
  190SAPI  H14X21952   0.902   2.827   4.577
  190SAPI  H14Y21953   0.797   2.970   4.610
  190SAPI  C31521954   0.693   2.806   4.507
  190SAPI  H15X21955   0.592   2.849   4.527
  190SAPI  H15Y21956   0.684   2.696   4.522
  190SAPI  C31621957   0.726   2.816   4.359
  190SAPI  H16X21958   0.634   2.767   4.321
  190SAPI  H16Y21959   0.815   2.760   4.326
  190SAPI  C31721960   0.754   2.959   4.305
  190SAPI  H17X21961   0.840   3.008   4.356
  190SAPI  H17Y21962   0.663   3.021   4.318
  190SAPI  C31821963   0.777   2.959   4.157
  190SAPI  H18X21964   0.786   3.065   4.124
  190SAPI  H18Y21965   0.691   2.912   4.105
  190SAPI  H18Z21966   0.872   2.913   4.122
  191SAPI   C1221967   4.982   4.662   2.413
  191SAPI    H221968   4.991   4.551   2.405
  191SAPI    O221969   5.000   4.686   2.552
  191SAPI   HO221970   4.909   4.707   2.573
  191SAPI   C1321971   5.081   4.733   2.323
  191SAPI    H321972   5.065   4.692   2.221
  191SAPI    O321973   5.214   4.694   2.351
  191SAPI   HO321974   5.217   4.677   2.446
  191SAPI   C1421975   5.062   4.890   2.316
  191SAPI    H421976   5.105   4.934   2.408
  191SAPI    O421977   5.144   4.942   2.213
  191SAPI   HO421978   5.117   5.034   2.204
  191SAPI   C1521979   4.906   4.932   2.300
  191SAPI    H521980   4.886   4.924   2.190
  191SAPI    O521981   4.878   5.068   2.332
  191SAPI   HO521982   4.805   5.107   2.284
  191SAPI   C1621983   4.807   4.844   2.379
  191SAPI    H621984   4.812   4.877   2.485
  191SAPI    O621985   4.672   4.867   2.324
  191SAPI   HO621986   4.611   4.818   2.381
  191SAPI   C1121987   4.839   4.701   2.371
  191SAPI    H121988   4.831   4.678   2.262
  191SAPI     P21989   4.657   4.500   2.413
  191SAPI   O1321990   4.715   4.437   2.298
  191SAPI   O1421991   4.510   4.536   2.404
  191SAPI   O1221992   4.754   4.629   2.455
  191SAPI   O1121993   4.677   4.406   2.536
  191SAPI    C121994   4.805   4.359   2.582
  191SAPI    HA21995   4.878   4.442   2.576
  191SAPI    HB21996   4.812   4.334   2.690
  191SAPI    C221997   4.853   4.231   2.507
  191SAPI    HS21998   4.862   4.251   2.398
  191SAPI   O2121999   4.760   4.130   2.535
  191SAPI   C2122000   4.747   4.029   2.449
  191SAPI   O2222001   4.792   4.028   2.335
  191SAPI   C2222002   4.665   3.917   2.517
  191SAPI   H2R22003   4.568   3.964   2.543
  191SAPI   H2S22004   4.631   3.845   2.440
  191SAPI    C322005   4.991   4.189   2.552
  191SAPI    HX22006   5.068   4.265   2.526
  191SAPI    HY22007   5.021   4.103   2.490
  191SAPI   O3122008   4.985   4.168   2.695
  191SAPI   C3122009   5.044   4.054   2.739
  191SAPI   O3222010   5.083   3.965   2.668
  191SAPI   C3222011   5.049   4.063   2.895
  191SAPI   H2X22012   5.044   4.169   2.929
  191SAPI   H2Y22013   5.145   4.012   2.920
  191SAPI   C2322014   4.746   3.839   2.628
  191SAPI   H3R22015   4.761   3.903   2.718
  191SAPI   H3S22016   4.848   3.806   2.601
  191SAPI   C2422017   4.662   3.717   2.680
  191SAPI   H4R22018   4.659   3.659   2.585
  191SAPI   H4S22019   4.558   3.748   2.703
  191SAPI   C2522020   4.734   3.645   2.788
  191SAPI   H5R22021   4.803   3.571   2.745
  191SAPI   C2622022   4.712   3.649   2.920
  191SAPI   H6R22023   4.772   3.586   2.987
  191SAPI   C2722024   4.604   3.726   2.986
  191SAPI   H7R22025   4.545   3.785   2.913
  191SAPI   H7S22026   4.654   3.801   3.051
  191SAPI   C2822027   4.524   3.627   3.060
  191SAPI   H8R22028   4.514   3.522   3.029
  191SAPI   C2922029   4.460   3.666   3.175
  191SAPI   H9R22030   4.407   3.590   3.234
  191SAPI  C21022031   4.460   3.798   3.235
  191SAPI  H10R22032   4.437   3.874   3.158
  191SAPI  H10S22033   4.562   3.819   3.272
  191SAPI  C21122034   4.358   3.812   3.347
  191SAPI  H11R22035   4.258   3.826   3.303
  191SAPI  C21222036   4.376   3.833   3.476
  191SAPI  H12R22037   4.284   3.842   3.535
  191SAPI  C21322038   4.513   3.833   3.551
  191SAPI  H13R22039   4.576   3.917   3.514
  191SAPI  H13S22040   4.579   3.745   3.536
  191SAPI  C21422041   4.497   3.852   3.698
  191SAPI  H14R22042   4.526   3.952   3.733
  191SAPI  C21522043   4.435   3.770   3.779
  191SAPI  H15R22044   4.439   3.786   3.888
  191SAPI  C21622045   4.373   3.640   3.736
  191SAPI  H16R22046   4.403   3.610   3.634
  191SAPI  H16S22047   4.267   3.656   3.709
  191SAPI  C21722048   4.387   3.543   3.850
  191SAPI  H17R22049   4.300   3.473   3.849
  191SAPI  H17S22050   4.375   3.581   3.954
  191SAPI  C21822051   4.519   3.467   3.839
  191SAPI  H18R22052   4.599   3.534   3.877
  191SAPI  H18S22053   4.537   3.461   3.729
  191SAPI  C21922054   4.516   3.337   3.914
  191SAPI  H19R22055   4.437   3.274   3.869
  191SAPI  H19S22056   4.486   3.365   4.017
  191SAPI  C22022057   4.645   3.267   3.917
  191SAPI  H20R22058   4.661   3.218   4.015
  191SAPI  H20S22059   4.735   3.331   3.933
  191SAPI  H20T22060   4.658   3.204   3.827
  191SAPI   C3322061   4.928   3.991   2.965
  191SAPI   H3X22062   4.924   3.883   2.940
  191SAPI   H3Y22063   4.839   4.040   2.920
  191SAPI   C3422064   4.942   4.008   3.125
  191SAPI   H4X22065   4.966   4.115   3.144
  191SAPI   H4Y22066   5.029   3.951   3.164
  191SAPI   C3522067   4.821   3.975   3.211
  191SAPI   H5X22068   4.805   3.866   3.196
  191SAPI   H5Y22069   4.733   4.034   3.175
  191SAPI   C3622070   4.855   3.984   3.358
  191SAPI   H6X22071   4.947   3.926   3.382
  191SAPI   H6Y22072   4.779   3.932   3.420
  191SAPI   C3722073   4.854   4.124   3.408
  191SAPI   H7X22074   4.753   4.169   3.395
  191SAPI   H7Y22075   4.917   4.192   3.347
  191SAPI   C3822076   4.901   4.142   3.551
  191SAPI   H8X22077   4.924   4.248   3.575
  191SAPI   H8Y22078   4.995   4.084   3.565
  191SAPI   C3922079   4.793   4.094   3.652
  191SAPI   H9X22080   4.784   3.984   3.638
  191SAPI   H9Y22081   4.699   4.153   3.643
  191SAPI  C31022082   4.837   4.100   3.798
  191SAPI  H10X22083   4.879   4.199   3.825
  191SAPI  H10Y22084   4.918   4.024   3.796
  191SAPI  C31122085   4.716   4.055   3.895
  191SAPI  H11X22086   4.686   3.950   3.874
  191SAPI  H11Y22087   4.631   4.123   3.872
  191SAPI  C31222088   4.756   4.045   4.042
  191SAPI  H12X22089   4.665   4.037   4.104
  191SAPI  H12Y22090   4.817   4.132   4.075
  191SAPI  C31322091   4.840   3.909   4.062
  191SAPI  H13X22092   4.882   3.925   4.163
  191SAPI  H13Y22093   4.929   3.897   3.996
  191SAPI  C31422094   4.755   3.790   4.077
  191SAPI  H14X22095   4.698   3.776   3.983
  191SAPI  H14Y22096   4.688   3.819   4.162
  191SAPI  C31522097   4.815   3.658   4.133
  191SAPI  H15X22098   4.747   3.570   4.136
  191SAPI  H15Y22099   4.862   3.678   4.231
  191SAPI  C31622100   4.934   3.614   4.045
  191SAPI  H16X22101   5.003   3.700   4.028
  191SAPI  H16Y22102   4.894   3.583   3.947
  191SAPI  C31722103   5.020   3.503   4.107
  191SAPI  H17X22104   4.954   3.414   4.119
  191SAPI  H17Y22105   5.045   3.524   4.213
  191SAPI  C31822106   5.157   3.465   4.043
  191SAPI  H18X22107   5.229   3.546   4.065
  191SAPI  H18Y22108   5.160   3.456   3.932
  191SAPI  H18Z22109   5.193   3.372   4.091
  192SAPI   C1222110   0.486   6.760   2.155
  192SAPI    H222111   0.583   6.780   2.105
  192SAPI    O222112   0.528   6.701   2.277
  192SAPI   HO222113   0.580   6.622   2.260
  192SAPI   C1322114   0.422   0.006   2.178
  192SAPI    H322115   0.387   0.047   2.081
  192SAPI    O322116   0.518   0.091   2.244
  192SAPI   HO322117   0.527   0.075   2.339
  192SAPI   C1422118   0.296   6.875   2.259
  192SAPI    H422119   0.310   6.847   2.365
  192SAPI    O422120   0.221   0.115   2.271
  192SAPI   HO422121   0.130   0.089   2.285
  192SAPI   C1522122   0.202   6.757   2.205
  192SAPI    H522123   0.145   6.804   2.122
  192SAPI    O522124   0.103   6.718   2.300
  192SAPI   HO522125   0.012   6.728   2.272
  192SAPI   C1622126   0.276   6.633   2.141
  192SAPI    H622127   0.312   6.589   2.236
  192SAPI    O622128   0.188   6.541   2.075
  192SAPI   HO622129   0.240   6.466   2.047
  192SAPI   C1122130   0.396   6.673   2.066
  192SAPI    H122131   0.370   6.734   1.977
  192SAPI     P22132   0.446   6.467   1.901
  192SAPI   O1322133   0.570   6.418   1.831
  192SAPI   O1422134   0.352   6.538   1.811
  192SAPI   O1222135   0.482   6.567   2.031
  192SAPI   O1122136   0.379   6.347   1.970
  192SAPI    C122137   0.445   6.283   2.078
  192SAPI    HA22138   0.507   6.200   2.037
  192SAPI    HB22139   0.504   6.351   2.142
  192SAPI    C222140   0.344   6.211   2.170
  192SAPI    HS22141   0.268   6.167   2.101
  192SAPI   O2122142   0.288   6.321   2.249
  192SAPI   C2122143   0.197   6.279   2.333
  192SAPI   O2222144   0.160   6.165   2.347
  192SAPI   C2222145   0.143   6.394   2.411
  192SAPI   H2R22146   0.183   6.495   2.385
  192SAPI   H2S22147   0.036   6.386   2.380
  192SAPI    C322148   0.413   6.100   2.248
  192SAPI    HX22149   0.449   6.023   2.177
  192SAPI    HY22150   0.342   6.043   2.311
  192SAPI   O3122151   0.531   6.157   2.311
  192SAPI   C3122152   0.537   6.139   2.445
  192SAPI   O3222153   0.467   6.067   2.518
  192SAPI   C3222154   0.659   6.217   2.508
  192SAPI   H2X22155   0.727   6.137   2.544
  192SAPI   H2Y22156   0.614   6.263   2.599
  192SAPI   C2322157   0.151   6.375   2.565
  192SAPI   H3R22158   0.102   6.284   2.607
  192SAPI   H3S22159   0.110   6.466   2.613
  192SAPI   C2422160   0.298   6.364   2.611
  192SAPI   H4R22161   0.346   6.272   2.572
  192SAPI   H4S22162   0.285   6.346   2.720
  192SAPI   C2522163   0.378   6.489   2.594
  192SAPI   H5R22164   0.379   6.527   2.491
  192SAPI   C2622165   0.436   6.558   2.693
  192SAPI   H6R22166   0.472   6.661   2.676
  192SAPI   C2722167   0.430   6.513   2.841
  192SAPI   H7R22168   0.328   6.475   2.867
  192SAPI   H7S22169   0.449   6.603   2.904
  192SAPI   C2822170   0.540   6.427   2.874
  192SAPI   H8R22171   0.616   6.400   2.799
  192SAPI   C2922172   0.560   6.371   2.996
  192SAPI   H9R22173   0.640   6.299   3.016
  192SAPI  C21022174   0.467   6.388   3.117
  192SAPI  H10R22175   0.429   6.287   3.142
  192SAPI  H10S22176   0.373   6.441   3.092
  192SAPI  C21122177   0.510   6.453   3.248
  192SAPI  H11R22178   0.614   6.488   3.247
  192SAPI  C21222179   0.425   6.496   3.338
  192SAPI  H12R22180   0.475   6.542   3.424
  192SAPI  C21322181   0.279   6.459   3.367
  192SAPI  H13R22182   0.268   6.371   3.434
  192SAPI  H13S22183   0.243   6.422   3.269
  192SAPI  C21422184   0.202   6.576   3.434
  192SAPI  H14R22185   0.141   6.639   3.368
  192SAPI  C21522186   0.207   6.616   3.560
  192SAPI  H15R22187   0.148   6.702   3.593
  192SAPI  C21622188   0.272   6.546   3.681
  192SAPI  H16R22189   0.304   6.444   3.651
  192SAPI  H16S22190   0.206   6.542   3.770
  192SAPI  C21722191   0.410   6.609   3.709
  192SAPI  H17R22192   0.459   6.634   3.613
  192SAPI  H17S22193   0.473   6.542   3.772
  192SAPI  C21822194   0.401   6.734   3.799
  192SAPI  H18R22195   0.335   6.709   3.884
  192SAPI  H18S22196   0.348   6.815   3.745
  192SAPI  C21922197   0.537   6.786   3.850
  192SAPI  H19R22198   0.517   6.855   3.935
  192SAPI  H19S22199   0.588   6.844   3.771
  192SAPI  C22022200   0.640   6.690   3.906
  192SAPI  H20R22201   0.665   6.613   3.830
  192SAPI  H20S22202   0.604   6.643   4.000
  192SAPI  H20T22203   0.739   6.733   3.931
  192SAPI   C3322204   0.736   6.313   2.414
  192SAPI   H3X22205   0.666   6.376   2.357
  192SAPI   H3Y22206   0.778   6.239   2.342
  192SAPI   C3422207   0.842   6.398   2.480
  192SAPI   H4X22208   0.892   6.458   2.401
  192SAPI   H4Y22209   0.921   6.337   2.529
  192SAPI   C3522210   0.792   6.503   2.581
  192SAPI   H5X22211   0.764   6.453   2.676
  192SAPI   H5Y22212   0.708   6.563   2.541
  192SAPI   C3622213   0.898   6.605   2.619
  192SAPI   H6X22214   0.943   6.663   2.535
  192SAPI   H6Y22215   0.989   6.563   2.667
  192SAPI   C3722216   0.838   6.702   2.724
  192SAPI   H7X22217   0.747   6.752   2.685
  192SAPI   H7Y22218   0.917   6.779   2.736
  192SAPI   C3822219   0.809   6.644   2.861
  192SAPI   H8X22220   0.856   6.546   2.882
  192SAPI   H8Y22221   0.709   6.599   2.872
  192SAPI   C3922222   0.834   6.738   2.978
  192SAPI   H9X22223   0.778   6.833   2.964
  192SAPI   H9Y22224   0.943   6.756   2.983
  192SAPI  C31022225   0.782   6.684   3.105
  192SAPI  H10X22226   0.836   6.588   3.119
  192SAPI  H10Y22227   0.675   6.662   3.087
  192SAPI  C31122228   0.810   6.767   3.230
  192SAPI  H11X22229   0.772   6.869   3.209
  192SAPI  H11Y22230   0.920   6.776   3.244
  192SAPI  C31222231   0.742   6.721   3.356
  192SAPI  H12X22232   0.777   6.618   3.380
  192SAPI  H12Y22233   0.633   6.720   3.332
  192SAPI  C31322234   0.782   6.806   3.482
  192SAPI  H13X22235   0.718   6.772   3.566
  192SAPI  H13Y22236   0.750   0.024   3.447
  192SAPI  C31422237   0.929   6.809   3.523
  192SAPI  H14X22238   0.996   6.847   3.443
  192SAPI  H14Y22239   0.958   6.704   3.545
  192SAPI  C31522240   0.962   0.015   3.651
  192SAPI  H15X22241   0.883   6.876   3.726
  192SAPI  H15Y22242   0.958   0.123   3.625
  192SAPI  C31622243   1.086   6.866   3.726
  192SAPI  H16X22244   1.172   6.863   3.656
  192SAPI  H16Y22245   1.061   6.767   3.770
  192SAPI  C31722246   1.115   0.081   3.842
  192SAPI  H17X22247   1.205   0.051   3.900
  192SAPI  H17Y22248   1.028   0.074   3.911
  192SAPI  C31822249   1.116   0.230   3.798
  192SAPI  H18X22250   1.192   0.250   3.720
  192SAPI  H18Y22251   1.139   0.298   3.882
  192SAPI  H18Z22252   1.013   0.251   3.761
  193SOD    SOD22253   3.553   0.530   0.185
  194SOD    SOD22254   1.321   5.117   7.637
  195SOD    SOD22255   3.745   6.719   0.935
  196SOD    SOD22256   0.099   0.440   7.702
  197SOD    SOD22257   4.210   2.301   1.985
  198SOD    SOD22258   2.080   6.199   1.419
  199SOD    SOD22259   5.546   2.042   8.507
  200SOD    SOD22260   1.886   3.087   7.143
  201SOD    SOD22261   5.245   5.604   1.555
  202SOD    SOD22262   5.672   4.670   1.954
  203SOD    SOD22263   0.161   3.084   7.922
  204SOD    SOD22264   3.455   4.469   6.963
  205SOD    SOD22265   1.590   1.905   7.417
  206SOD    SOD22266   5.174   3.323   8.469
  207SOD    SOD22267   2.137   5.681   6.774
  208SOD    SOD22268   3.807   1.768   8.056
  209SOD    SOD22269   5.430   3.050   7.621
  210SOD    SOD22270   2.688   5.871   0.056
  211SOD    SOD22271   6.700   1.483   7.353
  212SOD    SOD22272   3.298   4.767   7.084
  213SOD    SOD22273   6.244   2.485   7.817
  214SOD    SOD22274   1.324   3.314   1.526
  215SOD    SOD22275   0.644   5.228   0.420
  216SOD    SOD22276   2.832   1.199   7.488
  217SOD    SOD22277   6.563   2.465   1.044
  218SOD    SOD22278   4.198   3.009   2.099
  219SOD    SOD22279   6.719   5.954   8.504
  220SOD    SOD22280   2.585   4.199   0.457
  221SOD    SOD22281   3.584   1.431   2.191
  222SOD    SOD22282   2.061   1.902   7.099
  223SOD    SOD22283   6.109   4.952   1.350
  224SOD    SOD22284   3.040   5.711   8.375
  225SOD    SOD22285   4.245   3.535   7.317
  226SOD    SOD22286   4.119   0.472   2.396
  227SOD    SOD22287   0.098   2.698   2.185
  228SOD    SOD22288   2.738   0.436   1.513
  229SOD    SOD22289   6.100   6.543   0.761
  230SOD    SOD22290   1.241   4.566   1.484
  231SOD    SOD22291   6.743   3.049   6.880
  232SOD    SOD22292   1.074   0.312   8.048
  233SOD    SOD22293   3.247   2.669   0.151
  234CLA    CLA22294   3.243   6.124   1.761
  235CLA    CLA22295   4.612   4.374   0.398
  236CLA    CLA22296   5.828   3.272   7.835
  237CLA    CLA22297   6.316   2.950   7.708
  238CLA    CLA22298   4.113   6.575   0.034
  239CLA    CLA22299   0.459   5.148   8.532
  240CLA    CLA22300   1.948   4.917   8.500
  241CLA    CLA22301   4.512   2.523   0.355
  242CLA    CLA22302   0.818   1.189   0.387
  243CLA    CLA22303   2.209   1.562   7.682
  244CLA    CLA22304   6.501   0.699   0.108
  245CLA    CLA22305   1.083   4.444   1.057
  246CLA    CLA22306   0.017   2.176   0.503
  247CLA    CLA22307   3.477   2.435   0.552
  248CLA    CLA22308   0.952   1.946   8.592
  249CLA    CLA22309   3.259   1.295   8.207
  250CLA    CLA22310   0.053   2.409   1.212
  251TIP3   OH222311   6.118   0.022   7.243
  251TIP3    H122312   6.131   0.079   7.167
  251TIP3    H222313   6.024   0.015   7.252
  252TIP3   OH222314   1.589   0.845   1.053
  252TIP3    H122315   1.511   0.795   1.030
  252TIP3    H222316   1.641   0.786   1.107
  253TIP3   OH222317   5.722   4.507   0.124
  253TIP3    H122318   5.702   4.423   0.164
  253TIP3    H222319   5.816   4.520   0.139
  254TIP3   OH222320   4.120   1.066   6.219
  254TIP3    H122321   4.100   1.155   6.246
  254TIP3    H222322   4.208   1.049   6.255
  255TIP3   OH222323   2.788   2.264   6.462
  255TIP3    H122324   2.877   2.268   6.429
  255TIP3    H222325   2.779   2.341   6.518
  256TIP3   OH222326   4.598   0.188   7.643
  256TIP3    H122327   4.600   0.223   7.732
  256TIP3    H222328   4.669   0.234   7.598
  257TIP3   OH222329   3.835   1.509   1.342
  257TIP3    H122330   3.845   1.476   1.431
  257TIP3    H222331   3.810   1.601   1.353
  258TIP3   OH222332   4.553   6.477   8.066
  258TIP3    H122333   4.610   6.413   8.024
  258TIP3    H222334   4.538   6.543   7.999
  259TIP3   OH222335   5.001   5.582   0.652
  259TIP3    H122336   5.042   5.496   0.644
  259TIP3    H222337   4.910   5.568   0.627
  260TIP3   OH222338   4.450   5.392   1.623
  260TIP3    H122339   4.364   5.352   1.610
  260TIP3    H222340   4.444   5.436   1.707
  261TIP3   OH222341   0.710   6.840   7.043
  261TIP3    H122342   0.711   6.757   6.995
  261TIP3    H222343   0.802   6.864   7.051
  262TIP3   OH222344   2.699   1.956   7.258
  262TIP3    H122345   2.685   1.893   7.188
  262TIP3    H222346   2.633   2.024   7.244
  263TIP3   OH222347   0.599   1.626   7.871
  263TIP3    H122348   0.517   1.604   7.914
  263TIP3    H222349   0.594   1.720   7.854
  264TIP3   OH222350   0.360   4.668   8.441
  264TIP3    H122351   0.445   4.678   8.398
  264TIP3    H222352   0.376   4.695   8.532
  265TIP3   OH222353   6.252   3.795   1.099
  265TIP3    H122354   6.265   3.701   1.098
  265TIP3    H222355   6.257   3.819   1.191
  266TIP3   OH222356   3.713   6.581   1.347
  266TIP3    H122357   3.628   6.597   1.308
  266TIP3    H222358   3.721   6.486   1.350
  267TIP3   OH222359   5.874   4.618   7.189
  267TIP3    H122360   5.841   4.681   7.253
  267TIP3    H222361   5.808   4.548   7.187
  268TIP3   OH222362   6.749   3.962   8.365
  268TIP3    H122363   6.708   3.963   8.279
  268TIP3    H222364   6.710   3.886   8.409
  269TIP3   OH222365   6.135   3.545   0.816
  269TIP3    H122366   6.121   3.612   0.749
  269TIP3    H222367   6.189   3.479   0.773
  270TIP3   OH222368   0.238   2.592   6.181
  270TIP3    H122369   0.208   2.526   6.243
  270TIP3    H222370   0.224   2.552   6.095
  271TIP3   OH222371   1.457   4.155   7.830
  271TIP3    H122372   1.469   4.077   7.777
  271TIP3    H222373   1.523   4.146   7.899
  272TIP3   OH222374   3.819   5.147   8.564
  272TIP3    H122375   3.772   5.064   8.574
  272TIP3    H222376   3.893   5.125   8.507
  273TIP3   OH222377   6.230   6.009   1.204
  273TIP3    H122378   6.168   5.950   1.246
  273TIP3    H222379   6.210   6.095   1.241
  274TIP3   OH222380   2.387   6.664   1.210
  274TIP3    H122381   2.436   6.747   1.209
  274TIP3    H222382   2.454   6.597   1.194
  275TIP3   OH222383   4.796   2.954   2.074
  275TIP3    H122384   4.723   2.948   2.135
  275TIP3    H222385   4.872   2.924   2.125
  276TIP3   OH222386   2.030   3.954   6.849
  276TIP3    H122387   1.990   4.008   6.780
  276TIP3    H222388   1.985   3.981   6.929
  277TIP3   OH222389   5.195   3.630   2.044
  277TIP3    H122390   5.210   3.626   2.138
  277TIP3    H222391   5.207   3.723   2.021
  278TIP3   OH222392   3.549   4.919   8.245
  278TIP3    H122393   3.462   4.916   8.205
  278TIP3    H222394   3.549   4.998   8.298
  279TIP3   OH222395   6.533   5.300   1.728
  279TIP3    H122396   6.582   5.382   1.723
  279TIP3    H222397   6.561   5.260   1.811
  280TIP3   OH222398   6.408   5.521   0.408
  280TIP3    H122399   6.318   5.489   0.400
  280TIP3    H222400   6.436   5.538   0.317
  281TIP3   OH222401   6.271   1.638   8.391
  281TIP3    H122402   6.339   1.616   8.454
  281TIP3    H222403   6.189   1.616   8.436
  282TIP3   OH222404   0.984   6.122   6.832
  282TIP3    H122405   1.005   6.214   6.848
  282TIP3    H222406   1.069   6.078   6.829
  283TIP3   OH222407   1.979   2.694   8.555
  283TIP3    H122408   1.904   2.739   8.517
  283TIP3    H222409   2.015   2.642   8.484
  284TIP3   OH222410   0.768   1.989   7.571
  284TIP3    H122411   0.797   1.969   7.482
  284TIP3    H222412   0.756   1.903   7.612
  285TIP3   OH222413   3.248   4.833   0.691
  285TIP3    H122414   3.291   4.785   0.762
  285TIP3    H222415   3.216   4.765   0.632
  286TIP3   OH222416   3.947   4.284   8.040
  286TIP3    H122417   3.917   4.325   8.121
  286TIP3    H222418   4.001   4.351   7.998
  287TIP3   OH222419   6.805   4.321   8.176
  287TIP3    H122420   6.775   4.231   8.186
  287TIP3    H222421   6.751   4.371   8.237
  288TIP3   OH222422   1.468   5.587   7.061
  288TIP3    H122423   1.404   5.653   7.088
  288TIP3    H222424   1.415   5.511   7.034
  289TIP3   OH222425   3.767   2.028   1.442
  289TIP3    H122426   3.800   2.116   1.424
  289TIP3    H222427   3.703   2.040   1.512
  290TIP3   OH222428   3.518   1.436   7.534
  290TIP3    H122429   3.589   1.438   7.470
  290TIP3    H222430   3.438   1.425   7.482
  291TIP3   OH222431   1.960   0.249   7.545
  291TIP3    H122432   1.937   0.341   7.533
  291TIP3    H222433   1.967   0.214   7.457
  292TIP3   OH222434   2.968   5.065   0.605
  292TIP3    H122435   3.009   5.097   0.686
  292TIP3    H222436   3.009   5.116   0.536
  293TIP3   OH222437   3.780   6.397   2.239
  293TIP3    H122438   3.810   6.352   2.318
  293TIP3    H222439   3.755   6.328   2.179
  294TIP3   OH222440   1.994   2.061   1.775
  294TIP3    H122441   1.939   2.139   1.790
  294TIP3    H222442   1.997   2.018   1.860
  295TIP3   OH222443   4.561   1.359   1.122
  295TIP3    H122444   4.567   1.301   1.046
  295TIP3    H222445   4.475   1.401   1.113
  296TIP3   OH222446   2.253   2.218   1.860
  296TIP3    H122447   2.264   2.309   1.885
  296TIP3    H222448   2.159   2.202   1.868
  297TIP3   OH222449   4.468   5.034   2.563
  297TIP3    H122450   4.557   5.067   2.572
  297TIP3    H222451   4.476   4.939   2.564
  298TIP3   OH222452   0.182   3.700   7.095
  298TIP3    H122453   0.265   3.743   7.075
  298TIP3    H222454   0.130   3.708   7.014
  299TIP3   OH222455   6.089   4.979   0.841
  299TIP3    H122456   6.092   5.060   0.791
  299TIP3    H222457   6.176   4.971   0.880
  300TIP3   OH222458   2.559   0.797   7.356
  300TIP3    H122459   2.606   0.716   7.372
  300TIP3    H222460   2.512   0.782   7.273
  301TIP3   OH222461   0.089   4.208   2.731
  301TIP3    H122462   0.117   4.182   2.643
  301TIP3    H222463   0.124   4.296   2.741
  302TIP3   OH222464   3.858   6.041   0.873
  302TIP3    H122465   3.769   6.072   0.855
  302TIP3    H222466   3.902   6.116   0.913
  303TIP3   OH222467   2.606   0.139   8.105
  303TIP3    H122468   2.698   0.165   8.113
  303TIP3    H222469   2.559   0.202   8.159
  304TIP3   OH222470   5.538   2.686   6.926
  304TIP3    H122471   5.560   2.770   6.886
  304TIP3    H222472   5.498   2.635   6.855
  305TIP3   OH222473   4.578   4.623   8.273
  305TIP3    H122474   4.611   4.555   8.215
  305TIP3    H222475   4.550   4.693   8.215
  306TIP3   OH222476   5.331   6.486   7.641
  306TIP3    H122477   5.315   6.572   7.681
  306TIP3    H222478   5.375   6.435   7.710
  307TIP3   OH222479   0.514   2.558   8.601
  307TIP3    H122480   0.514   2.500   8.524
  307TIP3    H222481   0.427   2.548   0.007
  308TIP3   OH222482   1.321   1.656   1.497
  308TIP3    H122483   1.348   1.566   1.478
  308TIP3    H222484   1.381   1.685   1.566
  309TIP3   OH222485   1.751   4.717   7.930
  309TIP3    H122486   1.794   4.733   8.014
  309TIP3    H222487   1.689   4.647   7.948
  310TIP3   OH222488   5.655   3.916   7.158
  310TIP3    H122489   5.620   4.003   7.138
  310TIP3    H222490   5.720   3.900   7.089
  311TIP3   OH222491   1.546   0.346   8.358
  311TIP3    H122492   1.457   0.372   8.382
  311TIP3    H222493   1.534   0.281   8.288
  312TIP3   OH222494   2.003   3.852   7.769
  312TIP3    H122495   1.967   3.878   7.684
  312TIP3    H222496   1.989   3.758   7.773
  313TIP3   OH222497   4.824   5.265   0.982
  313TIP3    H122498   4.813   5.311   0.899
  313TIP3    H222499   4.885   5.194   0.963
  314TIP3   OH222500   3.978   1.909   7.970
  314TIP3    H122501   4.048   1.845   7.974
  314TIP3    H222502   3.998   1.971   8.041
  315TIP3   OH222503   5.438   1.820   0.268
  315TIP3    H122504   5.387   1.784   0.196
  315TIP3    H222505   5.499   1.750   0.293
  316TIP3   OH222506   2.858   3.606   1.893
  316TIP3    H122507   2.840   3.576   1.983
  316TIP3    H222508   2.790   3.564   1.840
  317TIP3   OH222509   1.719   6.485   8.056
  317TIP3    H122510   1.653   6.509   7.991
  317TIP3    H222511   1.802   6.490   8.009
  318TIP3   OH222512   1.595   6.732   0.345
  318TIP3    H122513   1.682   6.707   0.315
  318TIP3    H222514   1.610   6.790   0.419
  319TIP3   OH222515   4.101   0.138   7.600
  319TIP3    H122516   4.166   0.074   7.571
  319TIP3    H222517   4.153   0.207   7.642
  320TIP3   OH222518   3.908   1.867   1.637
  320TIP3    H122519   3.921   1.961   1.645
  320TIP3    H222520   3.882   1.854   1.546
  321TIP3   OH222521   1.521   5.038   6.751
  321TIP3    H122522   1.576   4.960   6.756
  321TIP3    H222523   1.433   5.007   6.772
  322TIP3   OH222524   0.856   4.895   1.112
  322TIP3    H122525   0.862   4.873   1.205
  322TIP3    H222526   0.884   4.986   1.106
  323TIP3   OH222527   5.253   4.178   7.978
  323TIP3    H122528   5.223   4.159   7.888
  323TIP3    H222529   5.275   4.092   8.013
  324TIP3   OH222530   1.894   6.473   6.372
  324TIP3    H122531   1.871   6.387   6.407
  324TIP3    H222532   1.825   6.492   6.309
  325TIP3   OH222533   0.465   6.262   7.186
  325TIP3    H122534   0.459   6.169   7.210
  325TIP3    H222535   0.382   6.280   7.141
  326TIP3   OH222536   2.878   0.555   1.644
  326TIP3    H122537   2.904   0.628   1.589
  326TIP3    H222538   2.931   0.564   1.723
  327TIP3   OH222539   5.982   0.543   1.404
  327TIP3    H122540   5.924   0.468   1.413
  327TIP3    H222541   6.019   0.555   1.491
  328TIP3   OH222542   1.657   1.566   7.321
  328TIP3    H122543   1.687   1.638   7.377
  328TIP3    H222544   1.562   1.570   7.326
  329TIP3   OH222545   3.268   5.486   8.405
  329TIP3    H122546   3.236   5.528   8.485
  329TIP3    H222547   3.236   5.396   8.411
  330TIP3   OH222548   3.677   5.851   1.585
  330TIP3    H122549   3.630   5.769   1.567
  330TIP3    H222550   3.677   5.857   1.681
  331TIP3   OH222551   4.493   5.529   8.189
  331TIP3    H122552   4.531   5.593   8.128
  331TIP3    H222553   4.416   5.495   8.144
  332TIP3   OH222554   4.333   4.424   1.282
  332TIP3    H122555   4.323   4.501   1.227
  332TIP3    H222556   4.244   4.400   1.307
  333TIP3   OH222557   1.643   1.766   0.072
  333TIP3    H122558   1.624   1.686   0.122
  333TIP3    H222559   1.606   1.836   0.125
  334TIP3   OH222560   0.550   0.284   6.611
  334TIP3    H122561   0.493   0.318   6.542
  334TIP3    H222562   0.492   0.233   6.667
  335TIP3   OH222563   6.094   2.186   1.577
  335TIP3    H122564   6.123   2.188   1.486
  335TIP3    H222565   6.137   2.260   1.619
  336TIP3   OH222566   4.605   1.645   6.802
  336TIP3    H122567   4.665   1.707   6.761
  336TIP3    H222568   4.536   1.699   6.839
  337TIP3   OH222569   3.012   2.403   0.298
  337TIP3    H122570   3.092   2.367   0.337
  337TIP3    H222571   2.941   2.367   0.351
  338TIP3   OH222572   3.017   0.320   7.147
  338TIP3    H122573   3.004   0.307   7.241
  338TIP3    H222574   3.087   0.386   7.141
  339TIP3   OH222575   3.562   0.442   8.378
  339TIP3    H122576   3.597   0.478   8.459
  339TIP3    H222577   3.594   0.352   8.376
  340TIP3   OH222578   1.030   6.757   8.423
  340TIP3    H122579   1.062   6.759   8.513
  340TIP3    H222580   0.942   6.794   8.428
  341TIP3   OH222581   1.504   3.292   1.372
  341TIP3    H122582   1.466   3.346   1.302
  341TIP3    H222583   1.589   3.332   1.389
  342TIP3   OH222584   0.125   3.982   0.466
  342TIP3    H122585   0.124   3.896   0.424
  342TIP3    H222586   0.083   4.040   0.403
  343TIP3   OH222587   1.374   4.389   0.338
  343TIP3    H122588   1.424   4.325   0.288
  343TIP3    H222589   1.285   4.380   0.305
  344TIP3   OH222590   1.087   2.144   8.123
  344TIP3    H122591   1.138   2.188   8.056
  344TIP3    H222592   1.000   2.133   8.084
  345TIP3   OH222593   2.982   4.005   7.609
  345TIP3    H122594   2.902   3.987   7.560
  345TIP3    H222595   3.032   3.924   7.603
  346TIP3   OH222596   3.885   3.006   8.554
  346TIP3    H122597   3.974   2.985   8.527
  346TIP3    H222598   3.887   2.999   0.018
  347TIP3   OH222599   6.504   6.368   8.444
  347TIP3    H122600   6.574   6.423   8.408
  347TIP3    H222601   6.424   6.417   8.426
  348TIP3   OH222602   0.487   0.089   7.137
  348TIP3    H122603   0.533   0.155   7.188
  348TIP3    H222604   0.547   0.068   7.065
  349TIP3   OH222605   3.477   3.108   6.285
  349TIP3    H122606   3.489   3.119   6.379
  349TIP3    H222607   3.559   3.071   6.254
  350TIP3   OH222608   1.663   5.424   0.679
  350TIP3    H122609   1.739   5.477   0.654
  350TIP3    H222610   1.593   5.488   0.694
  351TIP3   OH222611   2.559   3.488   1.274
  351TIP3    H122612   2.564   3.465   1.366
  351TIP3    H222613   2.608   3.571   1.267
  352TIP3   OH222614   6.482   6.489   1.263
  352TIP3    H122615   6.505   6.497   1.170
  352TIP3    H222616   6.475   6.395   1.277
  353TIP3   OH222617   4.388   3.709   2.024
  353TIP3    H122618   4.349   3.792   1.997
  353TIP3    H222619   4.442   3.731   2.100
  354TIP3   OH222620   0.320   5.372   8.121
  354TIP3    H122621   0.401   5.375   8.173
  354TIP3    H222622   0.253   5.345   8.183
  355TIP3   OH222623   2.294   4.190   0.999
  355TIP3    H122624   2.345   4.109   0.997
  355TIP3    H222625   2.343   4.247   1.058
  356TIP3   OH222626   1.500   6.871   0.760
  356TIP3    H122627   1.428   6.854   0.699
  356TIP3    H222628   1.579   6.859   0.707
  357TIP3   OH222629   3.174   5.443   0.985
  357TIP3    H122630   3.211   5.476   1.067
  357TIP3    H222631   3.164   5.522   0.930
  358TIP3   OH222632   0.573   3.926   7.516
  358TIP3    H122633   0.662   3.908   7.546
  358TIP3    H222634   0.519   3.910   7.594
  359TIP3   OH222635   3.627   2.251   8.141
  359TIP3    H122636   3.693   2.279   8.205
  359TIP3    H222637   3.625   2.322   8.077
  360TIP3   OH222638   4.375   4.376   8.001
  360TIP3    H122639   4.316   4.382   8.075
  360TIP3    H222640   4.391   4.467   7.975
  361TIP3   OH222641   4.078   5.832   8.412
  361TIP3    H122642   4.138   5.758   8.399
  361TIP3    H222643   4.079   5.880   8.329
  362TIP3   OH222644   2.674   2.698   8.442
  362TIP3    H122645   2.683   2.790   8.418
  362TIP3    H222646   2.585   2.690   8.477
  363TIP3   OH222647   2.248   3.359   7.131
  363TIP3    H122648   2.272   3.364   7.038
  363TIP3    H222649   2.235   3.450   7.158
  364TIP3   OH222650   3.455   4.209   8.115
  364TIP3    H122651   3.366   4.175   8.120
  364TIP3    H222652   3.503   4.161   8.183
  365TIP3   OH222653   0.680   2.451   0.903
  365TIP3    H122654   0.726   2.388   0.959
  365TIP3    H222655   0.708   2.429   0.814
  366TIP3   OH222656   6.649   4.832   7.195
  366TIP3    H122657   6.654   4.886   7.117
  366TIP3    H222658   6.572   4.864   7.242
  367TIP3   OH222659   2.691   6.399   0.115
  367TIP3    H122660   2.676   6.376   0.023
  367TIP3    H222661   2.607   6.436   0.143
  368TIP3   OH222662   6.301   5.740   7.899
  368TIP3    H122663   6.279   5.833   7.898
  368TIP3    H222664   6.336   5.724   7.987
  369TIP3   OH222665   4.215   3.455   0.571
  369TIP3    H122666   4.222   3.368   0.609
  369TIP3    H222667   4.164   3.506   0.634
  370TIP3   OH222668   1.794   1.320   8.217
  370TIP3    H122669   1.836   1.329   8.303
  370TIP3    H222670   1.864   1.291   8.159
  371TIP3   OH222671   4.920   1.390   6.256
  371TIP3    H122672   4.837   1.421   6.294
  371TIP3    H222673   4.940   1.453   6.187
  372TIP3   OH222674   1.484   0.146   0.195
  372TIP3    H122675   1.497   0.236   0.163
  372TIP3    H222676   1.432   0.157   0.275
  373TIP3   OH222677   2.879   5.128   6.869
  373TIP3    H122678   2.882   5.186   6.793
  373TIP3    H222679   2.790   5.095   6.872
  374TIP3   OH222680   6.194   6.850   7.891
  374TIP3    H122681   6.256   0.020   7.942
  374TIP3    H222682   6.117   0.023   7.880
  375TIP3   OH222683   0.181   2.120   1.207
  375TIP3    H122684   0.218   2.108   1.119
  375TIP3    H222685   0.132   2.202   1.201
  376TIP3   OH222686   6.691   1.161   8.599
  376TIP3    H122687   6.785   1.179   8.594
  376TIP3    H222688   6.681   1.111   0.048
  377TIP3   OH222689   5.999   3.152   8.557
  377TIP3    H122690   5.973   3.226   8.612
  377TIP3    H222691   6.071   3.185   8.504
  378TIP3   OH222692   2.205   3.399   0.449
  378TIP3    H122693   2.123   3.355   0.430
  378TIP3    H222694   2.259   3.333   0.491
  379TIP3   OH222695   1.919   0.138   7.017
  379TIP3    H122696   1.873   0.057   6.996
  379TIP3    H222697   1.983   0.148   6.947
  380TIP3   OH222698   6.651   6.790   0.671
  380TIP3    H122699   6.614   6.863   0.721
  380TIP3    H222700   6.662   6.824   0.583
  381TIP3   OH222701   6.653   0.815   8.500
  381TIP3    H122702   6.618   0.904   8.494
  381TIP3    H222703   6.610   0.778   8.577
  382TIP3   OH222704   6.830   6.296   1.982
  382TIP3    H122705   6.799   6.234   1.916
  382TIP3    H222706   0.024   6.337   1.942
  383TIP3   OH222707   0.798   5.597   0.951
  383TIP3    H122708   0.811   5.610   0.857
  383TIP3    H222709   0.808   5.684   0.989
  384TIP3   OH222710   6.136   6.722   2.043
  384TIP3    H122711   6.169   6.674   1.968
  384TIP3    H222712   6.211   6.728   2.103
  385TIP3   OH222713   1.545   1.137   2.173
  385TIP3    H122714   1.630   1.181   2.168
  385TIP3    H222715   1.508   1.147   2.085
  386TIP3   OH222716   1.359   0.017   1.354
  386TIP3    H122717   1.439   0.069   1.363
  386TIP3    H222718   1.323   0.011   1.443
  387TIP3   OH222719   5.539   1.755   6.767
  387TIP3    H122720   5.473   1.821   6.746
  387TIP3    H222721   5.490   1.677   6.790
  388TIP3   OH222722   0.630   2.877   0.654
  388TIP3    H122723   0.700   2.830   0.700
  388TIP3    H222724   0.566   2.809   0.632
  389TIP3   OH222725   2.315   6.046   1.832
  389TIP3    H122726   2.304   5.998   1.749
  389TIP3    H222727   2.409   6.066   1.835
  390TIP3   OH222728   1.895   6.183   1.534
  390TIP3    H122729   1.826   6.135   1.489
  390TIP3    H222730   1.857   6.208   1.618
  391TIP3   OH222731   0.728   4.534   0.509
  391TIP3    H122732   0.804   4.513   0.454
  391TIP3    H222733   0.713   4.455   0.560
  392TIP3   OH222734   1.167   6.494   0.410
  392TIP3    H122735   1.088   6.549   0.405
  392TIP3    H222736   1.164   6.457   0.498
  393TIP3   OH222737   0.495   0.881   6.772
  393TIP3    H122738   0.468   0.821   6.703
  393TIP3    H222739   0.416   0.931   6.793
  394TIP3   OH222740   0.233   2.885   0.446
  394TIP3    H122741   0.181   2.867   0.368
  394TIP3    H222742   0.228   2.804   0.496
  395TIP3   OH222743   4.538   3.706   0.267
  395TIP3    H122744   4.542   3.720   0.361
  395TIP3    H222745   4.444   3.710   0.247
  396TIP3   OH222746   3.940   2.566   8.572
  396TIP3    H122747   3.910   2.485   8.613
  396TIP3    H222748   3.889   2.571   8.491
  397TIP3   OH222749   5.453   1.938   0.915
  397TIP3    H122750   5.374   1.988   0.895
  397TIP3    H222751   5.509   2.001   0.960
  398TIP3   OH222752   2.851   0.649   0.505
  398TIP3    H122753   2.762   0.671   0.532
  398TIP3    H222754   2.843   0.628   0.411
  399TIP3   OH222755   6.069   0.614   8.134
  399TIP3    H122756   6.074   0.556   8.210
  399TIP3    H222757   6.150   0.666   8.138
  400TIP3   OH222758   1.129   4.343   1.547
  400TIP3    H122759   1.035   4.352   1.559
  400TIP3    H222760   1.143   4.249   1.539
  401TIP3   OH222761   2.805   4.390   7.939
  401TIP3    H122762   2.798   4.350   7.852
  401TIP3    H222763   2.724   4.365   7.983
  402TIP3   OH222764   1.757   3.989   8.392
  402TIP3    H122765   1.835   3.944   8.423
  402TIP3    H222766   1.767   4.079   8.424
  403TIP3   OH222767   2.131   0.557   1.513
  403TIP3    H122768   2.086   0.580   1.594
  403TIP3    H222769   2.146   0.462   1.520
  404TIP3   OH222770   3.245   5.398   6.570
  404TIP3    H122771   3.196   5.435   6.497
  404TIP3    H222772   3.212   5.445   6.647
  405TIP3   OH222773   4.973   1.052   1.699
  405TIP3    H122774   4.994   0.981   1.759
  405TIP3    H222775   5.025   1.126   1.731
  406TIP3   OH222776   4.211   2.116   6.369
  406TIP3    H122777   4.302   2.102   6.395
  406TIP3    H222778   4.216   2.141   6.277
  407TIP3   OH222779   3.609   2.227   1.603
  407TIP3    H122780   3.572   2.195   1.685
  407TIP3    H222781   3.669   2.298   1.629
  408TIP3   OH222782   6.140   3.368   1.546
  408TIP3    H122783   6.145   3.311   1.622
  408TIP3    H222784   6.214   3.340   1.491
  409TIP3   OH222785   1.867   3.694   1.098
  409TIP3    H122786   1.889   3.669   1.008
  409TIP3    H222787   1.791   3.751   1.090
  410TIP3   OH222788   5.223   6.222   7.544
  410TIP3    H122789   5.204   6.223   7.451
  410TIP3    H222790   5.285   6.293   7.557
  411TIP3   OH222791   5.645   0.442   0.983
  411TIP3    H122792   5.721   0.499   0.968
  411TIP3    H222793   5.684   0.355   0.997
  412TIP3   OH222794   5.678   4.440   2.011
  412TIP3    H122795   5.767   4.404   2.007
  412TIP3    H222796   5.676   4.487   2.095
  413TIP3   OH222797   4.448   0.716   6.608
  413TIP3    H122798   4.418   0.628   6.586
  413TIP3    H222799   4.373   0.773   6.591
  414TIP3   OH222800   3.696   0.354   0.229
  414TIP3    H122801   3.698   0.375   0.322
  414TIP3    H222802   3.780   0.312   0.211
  415TIP3   OH222803   4.399   1.266   8.416
  415TIP3    H122804   4.429   1.182   8.381
  415TIP3    H222805   4.475   1.324   8.409
  416TIP3   OH222806   1.604   5.776   1.522
  416TIP3    H122807   1.510   5.761   1.516
  416TIP3    H222808   1.639   5.697   1.563
  417TIP3   OH222809   2.409   0.482   1.172
  417TIP3    H122810   2.370   0.395   1.187
  417TIP3    H222811   2.334   0.538   1.152
  418TIP3   OH222812   3.191   3.966   1.194
  418TIP3    H122813   3.224   3.931   1.277
  418TIP3    H222814   3.201   3.894   1.132
  419TIP3   OH222815   2.231   5.207   1.227
  419TIP3    H122816   2.222   5.174   1.317
  419TIP3    H222817   2.142   5.226   1.199
  420TIP3   OH222818   1.818   5.374   8.363
  420TIP3    H122819   1.809   5.339   8.451
  420TIP3    H222820   1.866   5.307   8.315
  421TIP3   OH222821   5.308   4.975   8.262
  421TIP3    H122822   5.265   4.957   8.178
  421TIP3    H222823   5.272   5.060   8.289
  422TIP3   OH222824   0.251   1.485   1.144
  422TIP3    H122825   0.172   1.430   1.143
  422TIP3    H222826   0.252   1.526   1.058
  423TIP3   OH222827   6.497   6.781   0.298
  423TIP3    H122828   6.478   6.694   0.335
  423TIP3    H222829   6.433   6.839   0.339
  424TIP3   OH222830   1.568   1.088   0.271
  424TIP3    H122831   1.506   1.017   0.255
  424TIP3    H222832   1.543   1.123   0.357
  425TIP3   OH222833   5.919   1.736   1.100
  425TIP3    H122834   6.010   1.724   1.127
  425TIP3    H222835   5.873   1.758   1.181
  426TIP3   OH222836   1.113   0.657   0.755
  426TIP3    H122837   1.131   0.581   0.699
  426TIP3    H222838   1.063   0.716   0.699
  427TIP3   OH222839   0.767   1.679   0.327
  427TIP3    H122840   0.672   1.672   0.319
  427TIP3    H222841   0.783   1.772   0.344
  428TIP3   OH222842   3.837   2.687   8.058
  428TIP3    H122843   3.811   2.756   8.119
  428TIP3    H222844   3.790   2.707   7.977
  429TIP3   OH222845   5.384   2.170   8.366
  429TIP3    H122846   5.391   2.265   8.373
  429TIP3    H222847   5.410   2.150   8.275
  430TIP3   OH222848   1.012   6.052   1.020
  430TIP3    H122849   0.993   6.145   1.032
  430TIP3    H222850   0.927   6.011   1.007
  431TIP3   OH222851   0.932   3.492   0.621
  431TIP3    H122852   0.885   3.530   0.546
  431TIP3    H222853   0.953   3.567   0.677
  432TIP3   OH222854   4.635   4.809   8.476
  432TIP3    H122855   4.612   4.732   8.422
  432TIP3    H222856   4.642   4.774   8.565
  433TIP3   OH222857   5.037   4.495   6.843
  433TIP3    H122858   5.127   4.462   6.838
  433TIP3    H222859   4.983   4.417   6.856
  434TIP3   OH222860   4.802   0.940   2.349
  434TIP3    H122861   4.863   1.013   2.341
  434TIP3    H222862   4.800   0.922   2.443
  435TIP3   OH222863   6.746   5.201   7.867
  435TIP3    H122864   6.729   5.133   7.803
  435TIP3    H222865   6.731   5.283   7.820
  436TIP3   OH222866   3.573   6.691   8.200
  436TIP3    H122867   3.582   6.611   8.148
  436TIP3    H222868   3.532   6.661   8.282
  437TIP3   OH222869   6.560   3.992   1.295
  437TIP3    H122870   6.549   3.950   1.209
  437TIP3    H222871   6.551   4.085   1.277
  438TIP3   OH222872   0.015   2.175   2.050
  438TIP3    H122873   0.060   2.260   2.049
  438TIP3    H222874   6.862   2.167   1.962
  439TIP3   OH222875   1.382   5.946   8.368
  439TIP3    H122876   1.470   5.912   8.353
  439TIP3    H222877   1.383   5.977   8.459
  440TIP3   OH222878   0.387   0.254   1.873
  440TIP3    H122879   0.372   0.300   1.791
  440TIP3    H222880   0.316   0.283   1.930
  441TIP3   OH222881   2.663   5.654   1.811
  441TIP3    H122882   2.612   5.688   1.884
  441TIP3    H222883   2.739   5.613   1.852
  442TIP3   OH222884   1.861   3.795   7.522
  442TIP3    H122885   1.924   3.723   7.523
  442TIP3    H222886   1.800   3.773   7.452
  443TIP3   OH222887   4.006   6.363   1.191
  443TIP3    H122888   4.013   6.270   1.169
  443TIP3    H222889   4.024   6.408   1.109
  444TIP3   OH222890   4.273   0.090   8.416
  444TIP3    H122891   4.188   0.058   8.387
  444TIP3    H222892   4.315   0.014   8.458
  445TIP3   OH222893   1.998   2.490   1.935
  445TIP3    H122894   1.946   2.570   1.931
  445TIP3    H222895   2.087   2.518   1.914
  446TIP3   OH222896   3.908   0.788   1.000
  446TIP3    H122897   3.860   0.831   1.070
  446TIP3    H222898   4.000   0.808   1.018
  447TIP3   OH222899   0.006   0.655   6.933
  447TIP3    H122900   0.086   0.671   6.984
  447TIP3    H222901   0.032   0.672   6.843
  448TIP3   OH222902   6.247   1.864   7.292
  448TIP3    H122903   6.248   1.817   7.209
  448TIP3    H222904   6.155   1.872   7.315
  449TIP3   OH222905   4.173   4.524   1.926
  449TIP3    H122906   4.200   4.514   1.835
  449TIP3    H222907   4.127   4.442   1.946
  450TIP3   OH222908   5.654   4.325   8.206
  450TIP3    H122909   5.564   4.311   8.179
  450TIP3    H222910   5.649   4.396   8.270
  451TIP3   OH222911   6.242   3.544   7.410
  451TIP3    H122912   6.158   3.499   7.419
  451TIP3    H222913   6.306   3.485   7.449
  452TIP3   OH222914   1.864   2.983   0.331
  452TIP3    H122915   1.785   3.013   0.375
  452TIP3    H222916   1.874   2.892   0.358
  453TIP3   OH222917   3.579   0.141   7.744
  453TIP3    H122918   3.486   0.122   7.760
  453TIP3    H222919   3.621   0.055   7.740
  454TIP3   OH222920   4.372   2.190   0.131
  454TIP3    H122921   4.316   2.176   0.054
  454TIP3    H222922   4.322   2.151   0.203
  455TIP3   OH222923   0.243   2.897   1.614
  455TIP3    H122924   0.242   2.958   1.688
  455TIP3    H222925   0.230   2.953   1.537
  456TIP3   OH222926   3.361   1.962   1.511
  456TIP3    H122927   3.308   1.975   1.590
  456TIP3    H222928   3.414   1.885   1.531
  457TIP3   OH222929   5.957   3.287   8.136
  457TIP3    H122930   5.932   3.215   8.079
  457TIP3    H222931   5.967   3.362   8.077
  458TIP3   OH222932   3.960   6.696   1.444
  458TIP3    H122933   3.940   6.759   1.514
  458TIP3    H222934   3.882   6.697   1.388
  459TIP3   OH222935   6.698   5.483   1.862
  459TIP3    H122936   6.704   5.461   1.954
  459TIP3    H222937   6.668   5.574   1.861
  460TIP3   OH222938   3.935   6.197   8.577
  460TIP3    H122939   3.913   6.279   8.534
  460TIP3    H222940   4.012   6.217   8.631
  461TIP3   OH222941   0.947   5.129   1.157
  461TIP3    H122942   1.005   5.120   1.232
  461TIP3    H222943   0.908   5.216   1.167
  462TIP3   OH222944   0.867   3.840   6.505
  462TIP3    H122945   0.899   3.873   6.590
  462TIP3    H222946   0.920   3.761   6.489
  463TIP3   OH222947   4.541   4.854   7.219
  463TIP3    H122948   4.633   4.882   7.224
  463TIP3    H222949   4.510   4.890   7.136
  464TIP3   OH222950   4.258   5.122   7.567
  464TIP3    H122951   4.330   5.083   7.518
  464TIP3    H222952   4.181   5.074   7.539
  465TIP3   OH222953   5.375   2.459   8.349
  465TIP3    H122954   5.418   2.472   8.433
  465TIP3    H222955   5.438   2.490   8.284
  466TIP3   OH222956   1.585   1.463   8.127
  466TIP3    H122957   1.601   1.556   8.143
  466TIP3    H222958   1.662   1.418   8.162
  467TIP3   OH222959   5.727   1.073   7.090
  467TIP3    H122960   5.755   0.985   7.116
  467TIP3    H222961   5.653   1.058   7.031
  468TIP3   OH222962   0.366   3.042   8.316
  468TIP3    H122963   0.434   3.021   8.253
  468TIP3    H222964   0.412   3.049   8.400
  469TIP3   OH222965   0.777   1.497   0.876
  469TIP3    H122966   0.807   1.564   0.938
  469TIP3    H222967   0.855   1.477   0.823
  470TIP3   OH222968   6.864   0.776   1.719
  470TIP3    H122969   0.029   0.713   1.772
  470TIP3    H222970   0.049   0.821   1.667
  471TIP3   OH222971   4.338   5.134   7.228
  471TIP3    H122972   4.358   5.060   7.286
  471TIP3    H222973   4.252   5.112   7.191
  472TIP3   OH222974   3.699   3.256   6.591
  472TIP3    H122975   3.738   3.177   6.555
  472TIP3    H222976   3.685   3.313   6.515
  473TIP3   OH222977   1.215   1.501   7.492
  473TIP3    H122978   1.193   1.593   7.499
  473TIP3    H222979   1.255   1.479   7.576
  474TIP3   OH222980   3.298   2.073   1.764
  474TIP3    H122981   3.373   2.125   1.792
  474TIP3    H222982   3.287   2.008   1.833
  475TIP3   OH222983   2.731   5.503   1.496
  475TIP3    H122984   2.721   5.464   1.583
  475TIP3    H222985   2.796   5.448   1.453
  476TIP3   OH222986   0.438   3.779   7.713
  476TIP3    H122987   0.371   3.739   7.768
  476TIP3    H222988   0.478   3.706   7.665
  477TIP3   OH222989   6.763   1.854   0.969
  477TIP3    H122990   6.698   1.799   0.925
  477TIP3    H222991   6.781   1.924   0.906
  478TIP3   OH222992   5.862   5.630   7.174
  478TIP3    H122993   5.940   5.589   7.213
  478TIP3    H222994   5.895   5.710   7.133
  479TIP3   OH222995   1.162   6.707   1.808
  479TIP3    H122996   1.249   6.723   1.847
  479TIP3    H222997   1.160   6.613   1.792
  480TIP3   OH222998   2.518   5.336   0.063
  480TIP3    H122999   2.490   5.388   0.138
  480TIP3    H223000   2.437   5.307   0.022
  481TIP3   OH223001   0.346   0.482   1.420
  481TIP3    H123002   0.346   0.407   1.479
  481TIP3    H223003   0.258   0.520   1.429
  482TIP3   OH223004   3.782   2.122   8.421
  482TIP3    H123005   3.762   2.033   8.449
  482TIP3    H223006   3.721   2.138   8.349
  483TIP3   OH223007   1.789   0.496   1.528
  483TIP3    H123008   1.752   0.583   1.517
  483TIP3    H223009   1.848   0.485   1.454
  484TIP3   OH223010   2.174   3.387   1.628
  484TIP3    H123011   2.213   3.379   1.542
  484TIP3    H223012   2.248   3.390   1.689
  485TIP3   OH223013   5.437   0.399   2.205
  485TIP3    H123014   5.385   0.342   2.149
  485TIP3    H223015   5.373   0.435   2.268
  486TIP3   OH223016   2.243   2.177   0.845
  486TIP3    H123017   2.306   2.233   0.890
  486TIP3    H223018   2.189   2.141   0.916
  487TIP3   OH223019   2.593   3.849   7.237
  487TIP3    H123020   2.647   3.874   7.162
  487TIP3    H223021   2.610   3.916   7.302
  488TIP3   OH223022   0.036   2.283   8.418
  488TIP3    H123023   0.112   2.318   8.465
  488TIP3    H223024   0.052   2.188   8.415
  489TIP3   OH223025   5.190   4.311   0.213
  489TIP3    H123026   5.217   4.313   0.304
  489TIP3    H223027   5.264   4.273   0.166
  490TIP3   OH223028   2.090   6.125   0.654
  490TIP3    H123029   2.111   6.034   0.631
  490TIP3    H223030   2.122   6.134   0.744
  491TIP3   OH223031   1.560   2.640   8.253
  491TIP3    H123032   1.566   2.732   8.226
  491TIP3    H223033   1.466   2.623   8.259
  492TIP3   OH223034   3.871   3.875   0.069
  492TIP3    H123035   3.865   3.958   0.116
  492TIP3    H223036   3.816   3.886   8.624
  493TIP3   OH223037   3.310   0.039   8.282
  493TIP3    H123038   3.350   0.120   8.249
  493TIP3    H223039   3.311   6.862   8.207
  494TIP3   OH223040   5.544   2.802   0.960
  494TIP3    H123041   5.502   2.768   1.038
  494TIP3    H223042   5.507   2.750   0.888
  495TIP3   OH223043   4.273   2.851   8.250
  495TIP3    H123044   4.193   2.820   8.207
  495TIP3    H223045   4.337   2.857   8.179
  496TIP3   OH223046   1.678   1.473   0.234
  496TIP3    H123047   1.587   1.475   0.205
  496TIP3    H223048   1.673   1.493   0.328
  497TIP3   OH223049   4.482   2.760   7.103
  497TIP3    H123050   4.455   2.761   7.194
  497TIP3    H223051   4.424   2.696   7.062
  498TIP3   OH223052   0.235   4.480   8.266
  498TIP3    H123053   0.167   4.412   8.265
  498TIP3    H223054   0.266   4.480   8.357
  499TIP3   OH223055   2.847   6.379   1.961
  499TIP3    H123056   2.854   6.405   1.870
  499TIP3    H223057   2.901   6.442   2.009
  500TIP3   OH223058   5.203   3.426   1.534
  500TIP3    H123059   5.187   3.397   1.624
  500TIP3    H223060   5.203   3.521   1.538
  501TIP3   OH223061   5.416   6.537   1.816
  501TIP3    H123062   5.327   6.502   1.816
  501TIP3    H223063   5.404   6.632   1.823
  502TIP3   OH223064   2.585   0.538   1.689
  502TIP3    H123065   2.591   0.510   1.780
  502TIP3    H223066   2.492   0.530   1.667
  503TIP3   OH223067   2.858   5.819   8.249
  503TIP3    H123068   2.892   5.903   8.218
  503TIP3    H223069   2.820   5.778   8.171
  504TIP3   OH223070   1.023   0.736   6.931
  504TIP3    H123071   1.072   0.655   6.949
  504TIP3    H223072   0.994   0.727   6.841
  505TIP3   OH223073   2.814   2.282   0.459
  505TIP3    H123074   2.880   2.243   0.517
  505TIP3    H223075   2.749   2.214   0.448
  506TIP3   OH223076   5.383   2.330   6.964
  506TIP3    H123077   5.312   2.272   6.936
  506TIP3    H223078   5.444   2.272   7.010
  507TIP3   OH223079   1.418   1.652   6.965
  507TIP3    H123080   1.493   1.691   6.921
  507TIP3    H223081   1.453   1.577   7.011
  508TIP3   OH223082   5.640   5.073   8.249
  508TIP3    H123083   5.712   5.047   8.307
  508TIP3    H223084   5.579   5.119   8.307
  509TIP3   OH223085   3.352   6.692   7.124
  509TIP3    H123086   3.411   6.749   7.075
  509TIP3    H223087   3.343   6.734   7.209
  510TIP3   OH223088   3.978   3.898   6.827
  510TIP3    H123089   4.040   3.826   6.812
  510TIP3    H223090   4.025   3.976   6.799
  511TIP3   OH223091   5.401   6.140   7.768
  511TIP3    H123092   5.463   6.068   7.776
  511TIP3    H223093   5.340   6.112   7.700
  512TIP3   OH223094   5.206   6.295   0.121
  512TIP3    H123095   5.203   6.290   0.216
  512TIP3    H223096   5.250   6.213   0.095
  513TIP3   OH223097   1.317   6.383   8.534
  513TIP3    H123098   1.286   6.386   8.625
  513TIP3    H223099   1.306   6.472   8.502
  514TIP3   OH223100   0.070   2.680   1.532
  514TIP3    H123101   0.117   2.685   1.448
  514TIP3    H223102   0.119   2.737   1.590
  515TIP3   OH223103   4.279   4.101   1.271
  515TIP3    H123104   4.245   4.029   1.324
  515TIP3    H223105   4.374   4.089   1.271
  516TIP3   OH223106   2.126   6.322   8.090
  516TIP3    H123107   2.106   6.392   8.151
  516TIP3    H223108   2.154   6.367   8.010
  517TIP3   OH223109   1.320   4.565   0.879
  517TIP3    H123110   1.383   4.572   0.950
  517TIP3    H223111   1.240   4.534   0.922
  518TIP3   OH223112   4.004   2.504   7.212
  518TIP3    H123113   3.965   2.442   7.150
  518TIP3    H223114   3.999   2.459   7.296
  519TIP3   OH223115   0.980   3.032   0.196
  519TIP3    H123116   0.996   2.966   0.263
  519TIP3    H223117   0.947   3.108   0.244
  520TIP3   OH223118   1.021   3.169   8.426
  520TIP3    H123119   1.062   3.252   8.449
  520TIP3    H223120   1.080   3.103   8.462
  521TIP3   OH223121   5.826   6.248   0.429
  521TIP3    H123122   5.780   6.238   0.346
  521TIP3    H223123   5.879   6.169   0.437
  522TIP3   OH223124   4.899   1.654   6.655
  522TIP3    H123125   4.858   1.568   6.666
  522TIP3    H223126   4.834   1.705   6.607
  523TIP3   OH223127   2.976   6.813   7.191
  523TIP3    H123128   3.024   0.006   7.156
  523TIP3    H223129   2.961   6.836   7.283
  524TIP3   OH223130   4.915   4.836   6.602
  524TIP3    H123131   4.907   4.932   6.599
  524TIP3    H223132   4.843   4.804   6.548
  525TIP3   OH223133   5.953   1.018   1.232
  525TIP3    H123134   5.880   1.076   1.210
  525TIP3    H223135   6.031   1.065   1.201
  526TIP3   OH223136   3.692   1.890   8.518
  526TIP3    H123137   3.661   1.921   8.603
  526TIP3    H223138   3.762   1.828   8.540
  527TIP3   OH223139   6.197   4.688   8.174
  527TIP3    H123140   6.224   4.771   8.135
  527TIP3    H223141   6.147   4.713   8.252
  528TIP3   OH223142   2.997   1.526   1.846
  528TIP3    H123143   3.029   1.467   1.778
  528TIP3    H223144   3.061   1.517   1.917
  529TIP3   OH223145   4.343   1.564   0.119
  529TIP3    H123146   4.341   1.573   0.024
  529TIP3    H223147   4.401   1.634   0.149
  530TIP3   OH223148   4.032   2.691   0.947
  530TIP3    H123149   4.073   2.702   1.033
  530TIP3    H223150   4.103   2.709   0.885
  531TIP3   OH223151   5.554   3.493   7.419
  531TIP3    H123152   5.622   3.469   7.356
  531TIP3    H223153   5.530   3.583   7.395
  532TIP3   OH223154   3.243   6.693   0.534
  532TIP3    H123155   3.207   6.744   0.607
  532TIP3    H223156   3.241   6.602   0.566
  533TIP3   OH223157   5.334   6.357   1.301
  533TIP3    H123158   5.368   6.411   1.229
  533TIP3    H223159   5.258   6.313   1.265
  534TIP3   OH223160   4.200   4.091   7.132
  534TIP3    H123161   4.153   4.174   7.141
  534TIP3    H223162   4.182   4.044   7.214
  535TIP3   OH223163   5.436   3.508   7.152
  535TIP3    H123164   5.530   3.525   7.163
  535TIP3    H223165   5.421   3.425   7.198
  536TIP3   OH223166   0.729   4.176   0.911
  536TIP3    H123167   0.748   4.140   0.824
  536TIP3    H223168   0.726   4.099   0.968
  537TIP3   OH223169   5.756   4.069   6.340
  537TIP3    H123170   5.766   3.978   6.312
  537TIP3    H223171   5.750   4.064   6.436
  538TIP3   OH223172   0.885   5.770   7.589
  538TIP3    H123173   0.932   5.802   7.512
  538TIP3    H223174   0.952   5.725   7.641
  539TIP3   OH223175   4.543   6.624   0.107
  539TIP3    H123176   4.639   6.631   0.104
  539TIP3    H223177   4.512   6.691   0.047
  540TIP3   OH223178   5.971   3.141   0.401
  540TIP3    H123179   5.926   3.106   0.324
  540TIP3    H223180   6.050   3.088   0.408
  541TIP3   OH223181   5.583   0.910   0.395
  541TIP3    H123182   5.491   0.905   0.369
  541TIP3    H223183   5.624   0.967   0.330
  542TIP3   OH223184   3.382   2.343   8.390
  542TIP3    H123185   3.448   2.346   8.321
  542TIP3    H223186   3.322   2.274   8.364
  543TIP3   OH223187   0.367   0.899   2.255
  543TIP3    H123188   0.358   0.804   2.263
  543TIP3    H223189   0.331   0.920   2.169
  544TIP3   OH223190   2.032   5.078   0.329
  544TIP3    H123191   1.983   5.037   0.400
  544TIP3    H223192   1.981   5.155   0.304
  545TIP3   OH223193   3.669   4.912   0.017
  545TIP3    H123194   3.588   4.871   8.616
  545TIP3    H223195   3.653   4.923   0.111
  546TIP3   OH223196   6.688   4.743   0.830
  546TIP3    H123197   6.776   4.777   0.812
  546TIP3    H223198   6.663   4.783   0.914
  547TIP3   OH223199   5.674   4.477   8.449
  547TIP3    H123200   5.584   4.466   8.478
  547TIP3    H223201   5.727   4.436   8.517
  548TIP3   OH223202   2.565   2.471   6.964
  548TIP3    H123203   2.592   2.481   7.055
  548TIP3    H223204   2.546   2.560   6.934
  549TIP3   OH223205   6.127   3.315   7.794
  549TIP3    H123206   6.048   3.275   7.832
  549TIP3    H223207   6.156   3.253   7.728
  550TIP3   OH223208   0.135   6.196   1.004
  550TIP3    H123209   0.183   6.153   0.933
  550TIP3    H223210   0.187   6.180   1.082
  551TIP3   OH223211   6.125   6.389   8.050
  551TIP3    H123212   6.033   6.391   8.076
  551TIP3    H223213   6.129   6.324   7.981
  552TIP3   OH223214   0.804   3.491   7.552
  552TIP3    H123215   0.825   3.406   7.589
  552TIP3    H223216   0.843   3.554   7.612
  553TIP3   OH223217   4.819   0.561   0.538
  553TIP3    H123218   4.847   0.648   0.511
  553TIP3    H223219   4.899   0.517   0.566
  554TIP3   OH223220   0.482   4.460   8.162
  554TIP3    H123221   0.394   4.458   8.198
  554TIP3    H223222   0.538   4.488   8.234
  555TIP3   OH223223   3.149   2.154   8.625
  555TIP3    H123224   3.089   2.080   8.622
  555TIP3    H223225   3.125   2.208   8.549
  556TIP3   OH223226   3.249   0.671   6.249
  556TIP3    H123227   3.207   0.721   6.319
  556TIP3    H223228   3.249   0.730   6.174
  557TIP3   OH223229   6.847   6.107   1.237
  557TIP3    H123230   0.055   6.136   1.223
  557TIP3    H223231   6.823   6.066   1.154
  558TIP3   OH223232   6.707   6.417   8.002
  558TIP3    H123233   6.728   6.324   8.003
  558TIP3    H223234   6.772   6.456   7.944
  559TIP3   OH223235   1.086   6.740   0.578
  559TIP3    H123236   1.037   6.713   0.501
  559TIP3    H223237   1.083   6.665   0.637
  560TIP3   OH223238   5.554   6.292   6.491
  560TIP3    H123239   5.491   6.258   6.427
  560TIP3    H223240   5.572   6.217   6.548
  561TIP3   OH223241   1.994   3.229   1.808
  561TIP3    H123242   2.084   3.261   1.805
  561TIP3    H223243   1.987   3.171   1.732
  562TIP3   OH223244   0.534   2.857   7.744
  562TIP3    H123245   0.606   2.839   7.804
  562TIP3    H223246   0.573   2.910   7.675
  563TIP3   OH223247   6.626   4.950   8.275
  563TIP3    H123248   6.605   5.023   8.217
  563TIP3    H223249   6.572   4.964   8.353
  564TIP3   OH223250   1.973   4.307   7.184
  564TIP3    H123251   1.937   4.395   7.185
  564TIP3    H223252   2.067   4.319   7.174
  565TIP3   OH223253   0.526   3.519   7.603
  565TIP3    H123254   0.494   3.494   7.516
  565TIP3    H223255   0.621   3.511   7.597
  566TIP3   OH223256   6.424   0.894   6.933
  566TIP3    H123257   6.392   0.806   6.912
  566TIP3    H223258   6.516   0.893   6.908
  567TIP3   OH223259   3.501   1.620   0.514
  567TIP3    H123260   3.592   1.651   0.506
  567TIP3    H223261   3.449   1.700   0.515
  568TIP3   OH223262   5.920   5.486   7.919
  568TIP3    H123263   5.920   5.390   7.922
  568TIP3    H223264   5.944   5.513   8.008
  569TIP3   OH223265   3.984   6.573   7.970
  569TIP3    H123266   4.019   6.484   7.980
  569TIP3    H223267   4.017   6.620   8.047
  570TIP3   OH223268   6.871   2.917   7.567
  570TIP3    H123269   6.839   2.832   7.538
  570TIP3    H223270   6.875   2.909   7.663
  571TIP3   OH223271   4.250   1.656   1.430
  571TIP3    H123272   4.179   1.660   1.494
  571TIP3    H223273   4.274   1.747   1.415
  572TIP3   OH223274   3.408   1.223   6.192
  572TIP3    H123275   3.423   1.303   6.142
  572TIP3    H223276   3.492   1.204   6.234
  573TIP3   OH223277   2.639   3.136   6.751
  573TIP3    H123278   2.664   3.224   6.723
  573TIP3    H223279   2.582   3.104   6.681
  574TIP3   OH223280   4.283   0.634   2.324
  574TIP3    H123281   4.372   0.637   2.359
  574TIP3    H223282   4.259   0.726   2.310
  575TIP3   OH223283   4.914   2.007   7.814
  575TIP3    H123284   4.996   2.014   7.764
  575TIP3    H223285   4.867   2.088   7.793
  576TIP3   OH223286   5.896   4.437   8.152
  576TIP3    H123287   5.825   4.376   8.135
  576TIP3    H223288   5.929   4.413   8.239
  577TIP3   OH223289   5.845   1.788   0.401
  577TIP3    H123290   5.796   1.843   0.461
  577TIP3    H223291   5.910   1.847   0.363
  578TIP3   OH223292   5.820   5.119   0.325
  578TIP3    H123293   5.785   5.092   0.410
  578TIP3    H223294   5.746   5.110   0.265
  579TIP3   OH223295   1.118   5.192   2.021
  579TIP3    H123296   1.191   5.130   2.027
  579TIP3    H223297   1.106   5.224   2.110
  580TIP3   OH223298   6.152   0.053   8.598
  580TIP3    H123299   6.246   0.070   8.601
  580TIP3    H223300   6.112   0.138   8.615
  581TIP3   OH223301   0.765   1.685   0.001
  581TIP3    H123302   0.832   1.751   8.618
  581TIP3    H223303   0.796   1.608   8.587
  582TIP3   OH223304   1.383   2.292   7.454
  582TIP3    H123305   1.335   2.373   7.468
  582TIP3    H223306   1.431   2.277   7.535
  583TIP3   OH223307   6.841   1.347   7.534
  583TIP3    H123308   6.866   1.261   7.501
  583TIP3    H223309   6.788   1.328   7.612
  584TIP3   OH223310   6.706   2.507   0.556
  584TIP3    H123311   6.657   2.542   0.481
  584TIP3    H223312   6.689   2.413   0.555
  585TIP3   OH223313   0.875   6.048   7.837
  585TIP3    H123314   0.918   5.992   7.773
  585TIP3    H223315   0.880   6.136   7.800
  586TIP3   OH223316   6.425   5.809   7.628
  586TIP3    H123317   6.339   5.814   7.587
  586TIP3    H223318   6.406   5.798   7.721
  587TIP3   OH223319   1.745   0.785   7.650
  587TIP3    H123320   1.669   0.826   7.692
  587TIP3    H223321   1.710   0.743   7.572
  588TIP3   OH223322   3.301   6.477   7.988
  588TIP3    H123323   3.319   6.446   7.899
  588TIP3    H223324   3.248   6.407   8.027
  589TIP3   OH223325   5.752   1.034   2.203
  589TIP3    H123326   5.782   1.116   2.243
  589TIP3    H223327   5.658   1.045   2.193
  590TIP3   OH223328   2.063   5.499   6.632
  590TIP3    H123329   2.033   5.473   6.545
  590TIP3    H223330   2.089   5.417   6.674
  591TIP3   OH223331   5.245   5.285   7.346
  591TIP3    H123332   5.260   5.347   7.417
  591TIP3    H223333   5.189   5.332   7.285
  592TIP3   OH223334   3.256   5.296   1.752
  592TIP3    H123335   3.254   5.226   1.816
  592TIP3    H223336   3.262   5.252   1.667
  593TIP3   OH223337   5.179   0.849   7.030
  593TIP3    H123338   5.136   0.934   7.042
  593TIP3    H223339   5.138   0.813   6.951
  594TIP3   OH223340   1.711   2.230   8.498
  594TIP3    H123341   1.629   2.249   8.453
  594TIP3    H223342   1.690   2.157   8.556
  595TIP3   OH223343   4.865   4.891   1.478
  595TIP3    H123344   4.792   4.848   1.522
  595TIP3    H223345   4.911   4.937   1.549
  596TIP3   OH223346   6.639   6.225   6.728
  596TIP3    H123347   6.561   6.259   6.772
  596TIP3    H223348   6.608   6.202   6.640
  597TIP3   OH223349   4.710   5.629   0.490
  597TIP3    H123350   4.615   5.639   0.496
  597TIP3    H223351   4.723   5.544   0.448
  598TIP3   OH223352   6.328   3.210   1.460
  598TIP3    H123353   6.380   3.145   1.509
  598TIP3    H223354   6.313   3.168   1.375
  599TIP3   OH223355   0.991   2.879   0.848
  599TIP3    H123356   0.913   2.825   0.845
  599TIP3    H223357   1.022   2.872   0.938
  600TIP3   OH223358   3.553   6.656   0.122
  600TIP3    H123359   3.602   6.725   0.166
  600TIP3    H223360   3.619   6.594   0.094
  601TIP3   OH223361   5.189   0.516   8.015
  601TIP3    H123362   5.159   0.492   8.103
  601TIP3    H223363   5.239   0.596   8.027
  602TIP3   OH223364   2.485   3.490   1.540
  602TIP3    H123365   2.491   3.584   1.557
  602TIP3    H223366   2.541   3.450   1.606
  603TIP3   OH223367   2.245   5.283   0.030
  603TIP3    H123368   2.154   5.258   0.017
  603TIP3    H223369   2.269   5.245   0.114
  604TIP3   OH223370   2.437   0.848   0.985
  604TIP3    H123371   2.507   0.862   0.921
  604TIP3    H223372   2.364   0.813   0.934
  605TIP3   OH223373   4.685   1.559   7.892
  605TIP3    H123374   4.741   1.493   7.851
  605TIP3    H223375   4.601   1.515   7.905
  606TIP3   OH223376   4.103   6.196   0.859
  606TIP3    H123377   4.182   6.227   0.814
  606TIP3    H223378   4.119   6.216   0.951
  607TIP3   OH223379   5.117   4.023   0.942
  607TIP3    H123380   5.084   3.976   1.019
  607TIP3    H223381   5.116   4.115   0.968
  608TIP3   OH223382   1.604   4.448   8.199
  608TIP3    H123383   1.510   4.439   8.183
  608TIP3    H223384   1.644   4.382   8.143
  609TIP3   OH223385   1.928   6.589   7.291
  609TIP3    H123386   1.902   6.531   7.362
  609TIP3    H223387   1.970   6.532   7.227
  610TIP3   OH223388   1.855   5.584   0.579
  610TIP3    H123389   1.935   5.535   0.598
  610TIP3    H223390   1.830   5.622   0.663
  611TIP3   OH223391   2.592   2.488   0.169
  611TIP3    H123392   2.621   2.397   0.158
  611TIP3    H223393   2.499   2.481   0.188
  612TIP3   OH223394   1.816   5.927   7.005
  612TIP3    H123395   1.801   6.020   6.986
  612TIP3    H223396   1.896   5.925   7.057
  613TIP3   OH223397   5.189   4.506   8.107
  613TIP3    H123398   5.103   4.477   8.137
  613TIP3    H223399   5.179   4.601   8.095
  614TIP3   OH223400   5.018   5.660   1.491
  614TIP3    H123401   4.946   5.597   1.492
  614TIP3    H223402   5.003   5.714   1.414
  615TIP3   OH223403   1.767   5.500   1.047
  615TIP3    H123404   1.785   5.580   1.096
  615TIP3    H223405   1.808   5.430   1.099
  616TIP3   OH223406   4.554   6.113   0.616
  616TIP3    H123407   4.635   6.109   0.564
  616TIP3    H223408   4.583   6.142   0.702
  617TIP3   OH223409   2.352   5.977   0.832
  617TIP3    H123410   2.355   6.072   0.837
  617TIP3    H223411   2.442   5.949   0.849
  618TIP3   OH223412   1.348   5.844   7.596
  618TIP3    H123413   1.336   5.937   7.578
  618TIP3    H223414   1.391   5.841   7.681
  619TIP3   OH223415   4.334   3.866   1.621
  619TIP3    H123416   4.269   3.915   1.571
  619TIP3    H223417   4.352   3.789   1.568
  620TIP3   OH223418   6.568   2.242   1.117
  620TIP3    H123419   6.487   2.194   1.135
  620TIP3    H223420   6.638   2.177   1.129
  621TIP3   OH223421   3.976   2.681   2.256
  621TIP3    H123422   3.959   2.675   2.163
  621TIP3    H223423   3.895   2.652   2.298
  622TIP3   OH223424   4.278   3.538   1.199
  622TIP3    H123425   4.290   3.482   1.276
  622TIP3    H223426   4.339   3.611   1.212
  623TIP3   OH223427   6.777   0.886   7.265
  623TIP3    H123428   6.851   0.886   7.204
  623TIP3    H223429   6.753   0.794   7.274
  624TIP3   OH223430   2.854   3.346   1.505
  624TIP3    H123431   2.825   3.434   1.479
  624TIP3    H223432   2.945   3.341   1.476
  625TIP3   OH223433   4.589   6.184   7.865
  625TIP3    H123434   4.648   6.222   7.930
  625TIP3    H223435   4.643   6.170   7.788
  626TIP3   OH223436   1.527   2.393   1.118
  626TIP3    H123437   1.455   2.347   1.075
  626TIP3    H223438   1.545   2.340   1.196
  627TIP3   OH223439   5.121   1.139   0.537
  627TIP3    H123440   5.036   1.097   0.554
  627TIP3    H223441   5.101   1.210   0.477
  628TIP3   OH223442   1.848   5.450   1.433
  628TIP3    H123443   1.802   5.474   1.513
  628TIP3    H223444   1.838   5.525   1.376
  629TIP3   OH223445   2.043   4.379   1.851
  629TIP3    H123446   2.079   4.378   1.762
  629TIP3    H223447   2.116   4.353   1.907
  630TIP3   OH223448   4.201   3.036   1.009
  630TIP3    H123449   4.133   3.017   0.944
  630TIP3    H223450   4.157   3.027   1.094
  631TIP3   OH223451   0.004   5.076   8.063
  631TIP3    H123452   6.832   5.141   8.018
  631TIP3    H223453   6.823   5.016   8.103
  632TIP3   OH223454   6.071   1.914   0.952
  632TIP3    H123455   6.020   1.837   0.926
  632TIP3    H223456   6.107   1.891   1.037
  633TIP3   OH223457   6.719   0.468   7.030
  633TIP3    H123458   6.681   0.475   7.118
  633TIP3    H223459   6.765   0.551   7.018
  634TIP3   OH223460   2.399   6.667   0.902
  634TIP3    H123461   2.451   6.729   0.954
  634TIP3    H223462   2.457   6.640   0.831
  635TIP3   OH223463   4.856   5.454   1.397
  635TIP3    H123464   4.848   5.426   1.488
  635TIP3    H223465   4.799   5.394   1.349
  636TIP3   OH223466   5.769   0.850   1.067
  636TIP3    H123467   5.744   0.842   1.159
  636TIP3    H223468   5.810   0.936   1.060
  637TIP3   OH223469   6.418   2.932   7.104
  637TIP3    H123470   6.392   2.936   7.012
  637TIP3    H223471   6.339   2.953   7.153
  638TIP3   OH223472   2.079   4.932   8.105
  638TIP3    H123473   2.084   4.908   8.012
  638TIP3    H223474   2.168   4.916   8.138
  639TIP3   OH223475   1.595   5.996   8.083
  639TIP3    H123476   1.578   5.983   8.176
  639TIP3    H223477   1.606   6.091   8.073
  640TIP3   OH223478   6.480   0.204   7.306
  640TIP3    H123479   6.507   0.159   7.226
  640TIP3    H223480   6.384   0.206   7.300
  641TIP3   OH223481   5.742   0.125   0.769
  641TIP3    H123482   5.820   0.124   0.712
  641TIP3    H223483   5.671   0.154   0.712
  642TIP3   OH223484   4.412   3.030   7.463
  642TIP3    H123485   4.505   3.041   7.481
  642TIP3    H223486   4.401   2.937   7.445
  643TIP3   OH223487   0.590   0.410   1.049
  643TIP3    H123488   0.585   0.316   1.061
  643TIP3    H223489   0.678   0.426   1.014
  644TIP3   OH223490   0.148   0.150   8.604
  644TIP3    H123491   0.162   0.147   8.509
  644TIP3    H223492   0.121   0.060   8.627
  645TIP3   OH223493   2.890   4.622   7.177
  645TIP3    H123494   2.826   4.658   7.239
  645TIP3    H223495   2.841   4.556   7.129
  646TIP3   OH223496   2.998   3.440   7.043
  646TIP3    H123497   2.921   3.483   7.005
  646TIP3    H223498   2.992   3.458   7.136
  647TIP3   OH223499   5.908   0.830   8.019
  647TIP3    H123500   5.949   0.746   8.039
  647TIP3    H223501   5.980   0.886   7.990
  648TIP3   OH223502   0.801   3.779   1.445
  648TIP3    H123503   0.764   3.711   1.502
  648TIP3    H223504   0.772   3.861   1.484
  649TIP3   OH223505   2.919   4.820   6.683
  649TIP3    H123506   2.868   4.784   6.755
  649TIP3    H223507   2.875   4.902   6.660
  650TIP3   OH223508   2.887   3.856   0.555
  650TIP3    H123509   2.930   3.811   0.482
  650TIP3    H223510   2.958   3.899   0.602
  651TIP3   OH223511   4.046   5.583   7.226
  651TIP3    H123512   4.101   5.656   7.252
  651TIP3    H223513   4.085   5.551   7.145
  652TIP3   OH223514   6.727   5.922   7.438
  652TIP3    H123515   6.806   5.868   7.447
  652TIP3    H223516   6.688   5.922   7.525
  653TIP3   OH223517   1.613   5.234   0.467
  653TIP3    H123518   1.539   5.251   0.408
  653TIP3    H223519   1.596   5.290   0.543
  654TIP3   OH223520   6.391   3.176   0.749
  654TIP3    H123521   6.470   3.167   0.695
  654TIP3    H223522   6.343   3.248   0.708
  655TIP3   OH223523   5.956   4.835   0.473
  655TIP3    H123524   5.866   4.844   0.441
  655TIP3    H223525   5.970   4.741   0.479
  656TIP3   OH223526   4.650   6.421   7.672
  656TIP3    H123527   4.579   6.461   7.722
  656TIP3    H223528   4.609   6.387   7.593
  657TIP3   OH223529   5.413   2.937   8.043
  657TIP3    H123530   5.349   2.998   8.078
  657TIP3    H223531   5.493   2.988   8.035
  658TIP3   OH223532   2.172   6.040   6.921
  658TIP3    H123533   2.081   6.011   6.919
  658TIP3    H223534   2.171   6.127   6.883
  659TIP3   OH223535   4.848   3.999   0.798
  659TIP3    H123536   4.904   3.978   0.873
  659TIP3    H223537   4.879   3.940   0.729
  660TIP3   OH223538   3.795   6.606   7.760
  660TIP3    H123539   3.857   6.586   7.831
  660TIP3    H223540   3.790   6.524   7.710
  661TIP3   OH223541   6.270   4.085   1.450
  661TIP3    H123542   6.183   4.069   1.486
  661TIP3    H223543   6.319   4.123   1.523
  662TIP3   OH223544   6.514   3.539   0.955
  662TIP3    H123545   6.516   3.630   0.928
  662TIP3    H223546   6.423   3.522   0.977
  663TIP3   OH223547   3.242   5.804   0.196
  663TIP3    H123548   3.300   5.849   0.258
  663TIP3    H223549   3.281   5.717   0.186
  664TIP3   OH223550   4.911   6.032   1.103
  664TIP3    H123551   4.847   6.012   1.171
  664TIP3    H223552   4.875   5.991   1.024
  665TIP3   OH223553   1.658   1.187   1.405
  665TIP3    H123554   1.730   1.180   1.469
  665TIP3    H223555   1.619   1.100   1.403
  666TIP3   OH223556   0.748   0.943   7.572
  666TIP3    H123557   0.818   0.987   7.523
  666TIP3    H223558   0.697   0.897   7.505
  667TIP3   OH223559   4.067   3.403   7.278
  667TIP3    H123560   4.019   3.452   7.211
  667TIP3    H223561   4.037   3.312   7.267
  668TIP3   OH223562   4.773   3.997   1.144
  668TIP3    H123563   4.731   4.083   1.147
  668TIP3    H223564   4.796   3.978   1.234
  669TIP3   OH223565   2.684   6.427   6.744
  669TIP3    H123566   2.629   6.499   6.714
  669TIP3    H223567   2.726   6.394   6.664
  670TIP3   OH223568   3.484   0.971   6.630
  670TIP3    H123569   3.437   1.027   6.567
  670TIP3    H223570   3.569   0.955   6.588
  671TIP3   OH223571   6.617   6.691   0.938
  671TIP3    H123572   6.647   6.771   0.981
  671TIP3    H223573   6.636   6.705   0.845
  672TIP3   OH223574   5.350   1.849   8.221
  672TIP3    H123575   5.385   1.762   8.203
  672TIP3    H223576   5.348   1.894   8.137
  673TIP3   OH223577   3.101   6.836   1.561
  673TIP3    H123578   3.111   6.805   1.471
  673TIP3    H223579   3.095   6.756   1.613
  674TIP3   OH223580   4.137   1.891   0.809
  674TIP3    H123581   4.078   1.826   0.848
  674TIP3    H223582   4.207   1.902   0.873
  675TIP3   OH223583   2.538   3.176   0.299
  675TIP3    H123584   2.526   3.245   0.364
  675TIP3    H223585   2.558   3.098   0.350
  676TIP3   OH223586   2.675   6.445   2.246
  676TIP3    H123587   2.603   6.398   2.287
  676TIP3    H223588   2.702   6.509   2.311
  677TIP3   OH223589   6.267   1.738   7.653
  677TIP3    H123590   6.350   1.775   7.622
  677TIP3    H223591   6.266   1.649   7.616
  678TIP3   OH223592   0.060   4.257   0.920
  678TIP3    H123593   0.071   4.343   0.880
  678TIP3    H223594   0.076   4.195   0.848
  679TIP3   OH223595   6.497   0.291   0.720
  679TIP3    H123596   6.432   0.352   0.685
  679TIP3    H223597   6.576   0.345   0.731
  680TIP3   OH223598   2.776   4.965   2.168
  680TIP3    H123599   2.775   4.987   2.262
  680TIP3    H223600   2.859   4.919   2.156
  681TIP3   OH223601   0.588   6.779   7.306
  681TIP3    H123602   0.549   6.692   7.298
  681TIP3    H223603   0.559   6.826   7.228
  682TIP3   OH223604   1.892   6.143   6.782
  682TIP3    H123605   1.852   6.065   6.745
  682TIP3    H223606   1.824   6.182   6.838
  683TIP3   OH223607   3.545   3.352   2.182
  683TIP3    H123608   3.619   3.369   2.240
  683TIP3    H223609   3.490   3.290   2.230
  684TIP3   OH223610   2.906   0.223   8.095
  684TIP3    H123611   2.943   0.292   8.151
  684TIP3    H223612   2.963   0.147   8.110
  685TIP3   OH223613   0.698   3.614   8.555
  685TIP3    H123614   0.746   3.583   8.478
  685TIP3    H223615   0.662   3.698   8.529
  686TIP3   OH223616   2.840   6.767   1.824
  686TIP3    H123617   2.862   6.860   1.835
  686TIP3    H223618   2.861   6.728   1.908
  687TIP3   OH223619   6.514   3.739   0.756
  687TIP3    H123620   6.507   3.687   0.676
  687TIP3    H223621   6.604   3.773   0.755
  688TIP3   OH223622   2.284   5.165   7.879
  688TIP3    H123623   2.284   5.222   7.802
  688TIP3    H223624   2.373   5.129   7.881
  689TIP3   OH223625   2.417   1.409   1.094
  689TIP3    H123626   2.483   1.340   1.091
  689TIP3    H223627   2.351   1.382   1.031
  690TIP3   OH223628   4.309   0.223   1.189
  690TIP3    H123629   4.235   0.163   1.194
  690TIP3    H223630   4.382   0.175   1.227
  691TIP3   OH223631   5.826   0.004   1.751
  691TIP3    H123632   5.805   0.095   1.775
  691TIP3    H223633   5.793   6.835   1.824
  692TIP3   OH223634   6.051   2.920   1.308
  692TIP3    H123635   5.984   2.852   1.304
  692TIP3    H223636   6.026   2.974   1.383
  693TIP3   OH223637   5.148   1.070   7.367
  693TIP3    H123638   5.207   1.137   7.401
  693TIP3    H223639   5.162   0.994   7.425
  694TIP3   OH223640   3.764   0.066   6.878
  694TIP3    H123641   3.747   0.161   6.877
  694TIP3    H223642   3.756   0.039   6.787
  695TIP3   OH223643   4.615   5.100   0.753
  695TIP3    H123644   4.533   5.054   0.774
  695TIP3    H223645   4.658   5.113   0.837
  696TIP3   OH223646   5.892   4.208   1.547
  696TIP3    H123647   5.900   4.173   1.636
  696TIP3    H223648   5.836   4.146   1.501
  697TIP3   OH223649   3.969   5.779   7.460
  697TIP3    H123650   3.949   5.872   7.468
  697TIP3    H223651   3.920   5.751   7.382
  698TIP3   OH223652   4.508   0.829   8.319
  698TIP3    H123653   4.489   0.919   8.293
  698TIP3    H223654   4.423   0.793   8.346
  699TIP3   OH223655   2.800   4.220   7.425
  699TIP3    H123656   2.886   4.186   7.401
  699TIP3    H223657   2.788   4.298   7.369
  700TIP3   OH223658   1.436   1.289   0.514
  700TIP3    H123659   1.387   1.238   0.579
  700TIP3    H223660   1.527   1.261   0.525
  701TIP3   OH223661   2.021   2.351   0.962
  701TIP3    H123662   2.005   2.396   0.879
  701TIP3    H223663   1.955   2.282   0.964
  702TIP3   OH223664   0.257   4.291   0.471
  702TIP3    H123665   0.235   4.378   0.504
  702TIP3    H223666   0.185   4.235   0.499
  703TIP3   OH223667   2.451   6.785   2.348
  703TIP3    H123668   2.501   6.861   2.320
  703TIP3    H223669   2.517   6.718   2.366
  704TIP3   OH223670   0.249   3.772   7.367
  704TIP3    H123671   0.205   3.768   7.282
  704TIP3    H223672   0.293   3.857   7.367
  705TIP3   OH223673   0.838   0.034   6.089
  705TIP3    H123674   0.837   0.056   5.996
  705TIP3    H223675   0.746   0.035   6.115
  706TIP3   OH223676   5.391   5.399   8.003
  706TIP3    H123677   5.319   5.421   8.063
  706TIP3    H223678   5.410   5.307   8.021
  707TIP3   OH223679   6.222   3.521   1.072
  707TIP3    H123680   6.149   3.507   1.133
  707TIP3    H223681   6.182   3.518   0.985
  708TIP3   OH223682   3.185   0.790   0.845
  708TIP3    H123683   3.183   0.875   0.802
  708TIP3    H223684   3.097   0.754   0.833
  709TIP3   OH223685   3.167   2.843   0.303
  709TIP3    H123686   3.207   2.928   0.320
  709TIP3    H223687   3.113   2.826   0.380
  710TIP3   OH223688   3.615   6.460   8.031
  710TIP3    H123689   3.524   6.431   8.038
  710TIP3    H223690   3.655   6.399   7.970
  711TIP3   OH223691   3.099   5.051   0.855
  711TIP3    H123692   3.117   4.964   0.821
  711TIP3    H223693   3.163   5.065   0.924
  712TIP3   OH223694   4.194   2.573   0.003
  712TIP3    H123695   4.105   2.574   8.598
  712TIP3    H223696   4.188   2.517   0.080
  713TIP3   OH223697   2.274   1.542   7.012
  713TIP3    H123698   2.218   1.609   6.973
  713TIP3    H223699   2.357   1.550   6.966
  714TIP3   OH223700   1.356   0.166   7.282
  714TIP3    H123701   1.370   0.239   7.342
  714TIP3    H223702   1.398   0.193   7.201
  715TIP3   OH223703   2.579   1.741   1.697
  715TIP3    H123704   2.633   1.682   1.646
  715TIP3    H223705   2.611   1.731   1.787
  716TIP3   OH223706   1.527   6.446   7.542
  716TIP3    H123707   1.533   6.451   7.446
  716TIP3    H223708   1.612   6.478   7.573
  717TIP3   OH223709   5.413   6.160   7.226
  717TIP3    H123710   5.345   6.093   7.226
  717TIP3    H223711   5.454   6.153   7.140
  718TIP3   OH223712   2.881   6.303   1.200
  718TIP3    H123713   2.924   6.226   1.163
  718TIP3    H223714   2.817   6.268   1.262
  719TIP3   OH223715   1.378   1.140   0.758
  719TIP3    H123716   1.461   1.157   0.802
  719TIP3    H223717   1.343   1.062   0.802
  720TIP3   OH223718   0.229   2.617   0.521
  720TIP3    H123719   0.168   2.590   0.589
  720TIP3    H223720   0.174   2.630   0.443
  721TIP3   OH223721   4.180   3.298   7.916
  721TIP3    H123722   4.146   3.226   7.968
  721TIP3    H223723   4.246   3.258   7.859
  722TIP3   OH223724   5.196   5.031   1.427
  722TIP3    H123725   5.126   5.097   1.425
  722TIP3    H223726   5.206   5.004   1.336
  723TIP3   OH223727   1.425   3.574   7.653
  723TIP3    H123728   1.514   3.568   7.621
  723TIP3    H223729   1.370   3.549   7.579
  724TIP3   OH223730   0.072   5.713   0.849
  724TIP3    H123731   0.004   5.779   0.860
  724TIP3    H223732   0.027   5.629   0.862
  725TIP3   OH223733   1.236   2.564   6.372
  725TIP3    H123734   1.230   2.504   6.446
  725TIP3    H223735   1.198   2.516   6.298
  726TIP3   OH223736   0.036   0.482   8.504
  726TIP3    H123737   0.030   0.393   8.539
  726TIP3    H223738   0.125   0.489   8.470
  727TIP3   OH223739   2.607   0.755   0.559
  727TIP3    H123740   2.537   0.798   0.510
  727TIP3    H223741   2.565   0.678   0.598
  728TIP3   OH223742   5.759   0.766   7.540
  728TIP3    H123743   5.695   0.753   7.470
  728TIP3    H223744   5.775   0.678   7.574
  729TIP3   OH223745   2.816   1.605   1.625
  729TIP3    H123746   2.884   1.591   1.559
  729TIP3    H223747   2.861   1.592   1.709
  730TIP3   OH223748   3.940   4.690   8.287
  730TIP3    H123749   4.025   4.733   8.295
  730TIP3    H223750   3.898   4.735   8.214
  731TIP3   OH223751   4.016   1.523   0.416
  731TIP3    H123752   4.105   1.493   0.399
  731TIP3    H223753   4.005   1.517   0.511
  732TIP3   OH223754   5.080   6.292   7.818
  732TIP3    H123755   5.033   6.370   7.788
  732TIP3    H223756   5.124   6.259   7.740
  733TIP3   OH223757   0.106   6.479   1.651
  733TIP3    H123758   0.021   6.473   1.696
  733TIP3    H223759   0.167   6.507   1.720
  734TIP3   OH223760   0.275   2.643   8.299
  734TIP3    H123761   0.328   2.691   8.235
  734TIP3    H223762   0.260   2.558   8.257
  735TIP3   OH223763   5.445   0.943   7.021
  735TIP3    H123764   5.378   0.876   7.029
  735TIP3    H223765   5.492   0.921   6.941
  736TIP3   OH223766   2.334   5.765   7.351
  736TIP3    H123767   2.276   5.794   7.421
  736TIP3    H223768   2.366   5.846   7.311
  737TIP3   OH223769   0.559   5.192   2.043
  737TIP3    H123770   0.464   5.201   2.043
  737TIP3    H223771   0.587   5.231   2.126
  738TIP3   OH223772   4.904   3.556   0.664
  738TIP3    H123773   4.835   3.516   0.611
  738TIP3    H223774   4.975   3.491   0.664
  739TIP3   OH223775   4.230   0.857   0.460
  739TIP3    H123776   4.274   0.935   0.493
  739TIP3    H223777   4.253   0.789   0.524
  740TIP3   OH223778   5.568   1.829   0.702
  740TIP3    H123779   5.520   1.861   0.778
  740TIP3    H223780   5.501   1.787   0.648
  741TIP3   OH223781   0.646   5.598   7.510
  741TIP3    H123782   0.594   5.566   7.584
  741TIP3    H223783   0.719   5.644   7.551
  742TIP3   OH223784   5.788   2.418   6.755
  742TIP3    H123785   5.833   2.364   6.691
  742TIP3    H223786   5.695   2.401   6.740
  743TIP3   OH223787   1.836   0.332   2.069
  743TIP3    H123788   1.786   0.308   2.147
  743TIP3    H223789   1.927   0.340   2.099
  744TIP3   OH223790   3.084   3.067   1.584
  744TIP3    H123791   3.101   3.043   1.675
  744TIP3    H223792   3.115   2.992   1.533
  745TIP3   OH223793   4.673   4.248   1.081
  745TIP3    H123794   4.699   4.288   1.164
  745TIP3    H223795   4.612   4.310   1.042
  746TIP3   OH223796   4.626   5.654   0.924
  746TIP3    H123797   4.593   5.597   0.993
  746TIP3    H223798   4.548   5.699   0.891
  747TIP3   OH223799   3.786   2.324   8.612
  747TIP3    H123800   3.709   2.376   0.001
  747TIP3    H223801   3.752   2.244   8.572
  748TIP3   OH223802   5.698   2.699   0.715
  748TIP3    H123803   5.688   2.789   0.747
  748TIP3    H223804   5.782   2.698   0.670
  749TIP3   OH223805   5.526   5.201   8.471
  749TIP3    H123806   5.522   5.257   8.548
  749TIP3    H223807   5.434   5.186   8.447
  750TIP3   OH223808   4.835   0.840   7.801
  750TIP3    H123809   4.912   0.784   7.808
  750TIP3    H223810   4.770   0.800   7.858
  751TIP3   OH223811   1.380   5.072   1.372
  751TIP3    H123812   1.356   4.984   1.402
  751TIP3    H223813   1.475   5.075   1.379
  752TIP3   OH223814   0.911   6.742   1.924
  752TIP3    H123815   0.936   6.744   2.016
  752TIP3    H223816   0.993   6.727   1.877
  753TIP3   OH223817   4.444   2.038   2.141
  753TIP3    H123818   4.475   2.106   2.201
  753TIP3    H223819   4.376   1.991   2.190
  754TIP3   OH223820   4.210   0.903   2.354
  754TIP3    H123821   4.293   0.936   2.388
  754TIP3    H223822   4.149   0.975   2.364
  755TIP3   OH223823   4.249   5.894   0.973
  755TIP3    H123824   4.210   5.841   1.042
  755TIP3    H223825   4.174   5.923   0.921
  756TIP3   OH223826   5.963   3.426   0.379
  756TIP3    H123827   5.967   3.331   0.374
  756TIP3    H223828   5.870   3.447   0.369
  757TIP3   OH223829   5.414   0.006   7.591
  757TIP3    H123830   5.322   0.032   7.584
  757TIP3    H223831   5.452   0.026   7.505
  758TIP3   OH223832   3.619   2.890   1.377
  758TIP3    H123833   3.618   2.970   1.324
  758TIP3    H223834   3.545   2.900   1.437
  759TIP3   OH223835   6.506   5.708   2.114
  759TIP3    H123836   6.566   5.653   2.164
  759TIP3    H223837   6.499   5.789   2.165
  760TIP3   OH223838   5.271   3.874   7.872
  760TIP3    H123839   5.179   3.857   7.852
  760TIP3    H223840   5.309   3.898   7.787
  761TIP3   OH223841   1.494   4.221   1.571
  761TIP3    H123842   1.467   4.171   1.648
  761TIP3    H223843   1.441   4.186   1.500
  762TIP3   OH223844   5.283   4.465   6.959
  762TIP3    H123845   5.308   4.557   6.944
  762TIP3    H223846   5.353   4.415   6.917
  763TIP3   OH223847   3.709   6.624   1.669
  763TIP3    H123848   3.790   6.659   1.705
  763TIP3    H223849   3.732   6.599   1.579
  764TIP3   OH223850   0.090   4.396   7.777
  764TIP3    H123851   0.067   4.304   7.788
  764TIP3    H223852   0.183   4.395   7.754
  765TIP3   OH223853   3.216   6.731   0.040
  765TIP3    H123854   3.254   6.684   0.113
  765TIP3    H223855   3.186   6.814   0.078
  766TIP3   OH223856   1.232   0.770   1.260
  766TIP3    H123857   1.211   0.742   1.172
  766TIP3    H223858   1.244   0.689   1.310
  767TIP3   OH223859   4.730   1.045   1.127
  767TIP3    H123860   4.645   1.028   1.168
  767TIP3    H223861   4.763   1.122   1.173
  768TIP3   OH223862   5.053   5.926   7.031
  768TIP3    H123863   5.124   5.939   7.095
  768TIP3    H223864   5.095   5.941   6.946
  769TIP3   OH223865   0.682   3.166   6.487
  769TIP3    H123866   0.764   3.150   6.440
  769TIP3    H223867   0.708   3.209   6.568
  770TIP3   OH223868   5.926   1.294   7.086
  770TIP3    H123869   5.847   1.240   7.094
  770TIP3    H223870   5.927   1.320   6.994
  771TIP3   OH223871   5.968   5.398   0.799
  771TIP3    H123872   6.010   5.360   0.876
  771TIP3    H223873   5.899   5.455   0.834
  772TIP3   OH223874   4.878   1.893   6.165
  772TIP3    H123875   4.891   1.805   6.202
  772TIP3    H223876   4.795   1.922   6.203
  773TIP3   OH223877   2.814   5.725   7.192
  773TIP3    H123878   2.908   5.726   7.210
  773TIP3    H223879   2.792   5.818   7.181
  774TIP3   OH223880   5.610   6.363   0.620
  774TIP3    H123881   5.686   6.319   0.584
  774TIP3    H223882   5.540   6.346   0.557
  775TIP3   OH223883   2.307   2.841   0.246
  775TIP3    H123884   2.346   2.806   0.326
  775TIP3    H223885   2.263   2.766   0.207
  776TIP3   OH223886   2.807   2.542   8.257
  776TIP3    H123887   2.784   2.607   8.323
  776TIP3    H223888   2.724   2.498   8.236
  777TIP3   OH223889   6.724   0.769   1.434
  777TIP3    H123890   6.812   0.806   1.441
  777TIP3    H223891   6.706   0.766   1.340
  778TIP3   OH223892   1.287   1.102   8.418
  778TIP3    H123893   1.331   1.165   8.361
  778TIP3    H223894   1.247   1.039   8.358
  779TIP3   OH223895   0.190   2.402   6.374
  779TIP3    H123896   0.220   2.311   6.383
  779TIP3    H223897   0.159   2.426   6.461
  780TIP3   OH223898   4.957   3.165   1.578
  780TIP3    H123899   4.904   3.138   1.652
  780TIP3    H223900   5.011   3.236   1.612
  781TIP3   OH223901   6.070   3.970   1.002
  781TIP3    H123902   6.093   4.047   1.054
  781TIP3    H223903   6.135   3.904   1.028
  782TIP3   OH223904   6.820   4.977   1.937
  782TIP3    H123905   6.844   4.884   1.940
  782TIP3    H223906   6.877   5.013   1.869
  783TIP3   OH223907   6.720   3.558   0.448
  783TIP3    H123908   6.801   3.511   0.432
  783TIP3    H223909   6.695   3.594   0.363
  784TIP3   OH223910   6.414   0.800   7.893
  784TIP3    H123911   6.346   0.800   7.825
  784TIP3    H223912   6.487   0.753   7.853
  785TIP3   OH223913   4.273   1.188   7.198
  785TIP3    H123914   4.243   1.187   7.108
  785TIP3    H223915   4.245   1.273   7.232
  786TIP3   OH223916   4.248   1.956   7.467
  786TIP3    H123917   4.184   1.985   7.533
  786TIP3    H223918   4.333   1.975   7.506
  787TIP3   OH223919   6.303   0.654   6.933
  787TIP3    H123920   6.360   0.578   6.942
  787TIP3    H223921   6.226   0.621   6.888
  788TIP3   OH223922   6.489   0.813   0.604
  788TIP3    H123923   6.466   0.892   0.652
  788TIP3    H223924   6.566   0.779   0.650
  789TIP3   OH223925   0.222   5.273   8.378
  789TIP3    H123926   0.291   5.245   8.438
  789TIP3    H223927   0.141   5.246   8.420
  790TIP3   OH223928   4.939   4.962   7.434
  790TIP3    H123929   4.911   4.881   7.393
  790TIP3    H223930   5.032   4.969   7.413
  791TIP3   OH223931   0.506   3.117   1.627
  791TIP3    H123932   0.514   3.038   1.680
  791TIP3    H223933   0.564   3.180   1.670
  792TIP3   OH223934   1.577   2.324   7.113
  792TIP3    H123935   1.659   2.328   7.065
  792TIP3    H223936   1.514   2.287   7.051
  793TIP3   OH223937   3.766   1.462   0.006
  793TIP3    H123938   3.712   1.507   0.071
  793TIP3    H223939   3.711   1.457   8.559
  794TIP3   OH223940   6.863   2.521   1.890
  794TIP3    H123941   0.064   2.494   1.927
  794TIP3    H223942   6.870   2.501   1.797
  795TIP3   OH223943   4.482   2.544   8.115
  795TIP3    H123944   4.546   2.485   8.153
  795TIP3    H223945   4.474   2.615   8.179
  796TIP3   OH223946   4.886   2.332   5.913
  796TIP3    H123947   4.945   2.264   5.947
  796TIP3    H223948   4.864   2.385   5.990
  797TIP3   OH223949   5.815   2.920   8.229
  797TIP3    H123950   5.907   2.897   8.211
  797TIP3    H223951   5.800   2.891   8.319
  798TIP3   OH223952   5.602   5.581   0.558
  798TIP3    H123953   5.677   5.640   0.563
  798TIP3    H223954   5.622   5.511   0.621
  799TIP3   OH223955   1.315   4.088   0.426
  799TIP3    H123956   1.352   4.142   0.357
  799TIP3    H223957   1.303   4.148   0.500
  800TIP3   OH223958   2.804   6.584   0.826
  800TIP3    H123959   2.735   6.647   0.806
  800TIP3    H223960   2.758   6.502   0.841
  801TIP3   OH223961   6.192   1.078   7.418
  801TIP3    H123962   6.263   1.113   7.473
  801TIP3    H223963   6.236   1.027   7.350
  802TIP3   OH223964   6.693   4.682   7.793
  802TIP3    H123965   6.705   4.637   7.709
  802TIP3    H223966   6.719   4.617   7.858
  803TIP3   OH223967   4.253   2.625   7.064
  803TIP3    H123968   4.241   2.546   7.118
  803TIP3    H223969   4.203   2.607   6.985
  804TIP3   OH223970   3.013   1.172   1.590
  804TIP3    H123971   3.019   1.267   1.575
  804TIP3    H223972   2.957   1.140   1.519
  805TIP3   OH223973   2.923   6.420   1.631
  805TIP3    H123974   2.854   6.455   1.575
  805TIP3    H223975   2.995   6.483   1.625
  806TIP3   OH223976   2.683   2.983   8.400
  806TIP3    H123977   2.697   3.042   8.326
  806TIP3    H223978   2.597   3.007   8.434
  807TIP3   OH223979   4.099   6.569   2.018
  807TIP3    H123980   4.139   6.577   2.105
  807TIP3    H223981   4.173   6.565   1.958
  808TIP3   OH223982   2.458   2.032   6.994
  808TIP3    H123983   2.405   2.042   6.915
  808TIP3    H223984   2.534   2.088   6.979
  809TIP3   OH223985   2.906   0.517   7.754
  809TIP3    H123986   2.842   0.450   7.775
  809TIP3    H223987   2.982   0.495   7.808
  810TIP3   OH223988   4.496   3.781   0.537
  810TIP3    H123989   4.487   3.870   0.571
  810TIP3    H223990   4.406   3.751   0.524
  811TIP3   OH223991   0.118   2.912   2.235
  811TIP3    H123992   0.069   2.972   2.291
  811TIP3    H223993   0.204   2.952   2.227
  812TIP3   OH223994   3.173   1.167   7.770
  812TIP3    H123995   3.268   1.170   7.754
  812TIP3    H223996   3.165   1.132   7.859
  813TIP3   OH223997   3.725   6.324   6.757
  813TIP3    H123998   3.649   6.267   6.772
  813TIP3    H223999   3.706   6.368   6.674
  814TIP3   OH224000   4.142   0.471   1.732
  814TIP3    H124001   4.092   0.466   1.813
  814TIP3    H224002   4.219   0.417   1.748
  815TIP3   OH224003   0.380   5.618   1.243
  815TIP3    H124004   0.344   5.576   1.322
  815TIP3    H224005   0.349   5.709   1.248
  816TIP3   OH224006   4.768   4.958   7.971
  816TIP3    H124007   4.801   5.014   8.041
  816TIP3    H224008   4.777   5.011   7.892
  817TIP3   OH224009   2.578   6.456   1.191
  817TIP3    H124010   2.558   6.366   1.215
  817TIP3    H224011   2.661   6.451   1.145
  818TIP3   OH224012   6.567   4.113   0.110
  818TIP3    H124013   6.546   4.170   0.185
  818TIP3    H224014   6.640   4.158   0.066
  819TIP3   OH224015   3.985   0.536   1.268
  819TIP3    H124016   3.996   0.512   1.176
  819TIP3    H224017   3.891   0.537   1.282
  820TIP3   OH224018   5.735   0.748   2.223
  820TIP3    H124019   5.664   0.740   2.159
  820TIP3    H224020   5.714   0.826   2.273
  821TIP3   OH224021   5.628   5.268   7.809
  821TIP3    H124022   5.558   5.323   7.845
  821TIP3    H224023   5.620   5.185   7.855
  822TIP3   OH224024   2.247   5.262   8.144
  822TIP3    H124025   2.279   5.220   8.064
  822TIP3    H224026   2.229   5.353   8.118
  823TIP3   OH224027   3.785   6.492   0.114
  823TIP3    H124028   3.808   6.442   0.192
  823TIP3    H224029   3.869   6.525   0.081
  824TIP3   OH224030   6.656   5.944   7.910
  824TIP3    H124031   6.606   5.910   7.985
  824TIP3    H224032   6.653   6.039   7.921
  825TIP3   OH224033   3.541   1.861   1.227
  825TIP3    H124034   3.446   1.871   1.229
  825TIP3    H224035   3.572   1.933   1.173
  826TIP3   OH224036   6.771   0.942   1.161
  826TIP3    H124037   6.767   0.849   1.139
  826TIP3    H224038   6.865   0.962   1.166
  827TIP3   OH224039   3.942   4.118   7.383
  827TIP3    H124040   4.010   4.052   7.370
  827TIP3    H224041   3.983   4.184   7.438
  828TIP3   OH224042   4.038   0.627   6.653
  828TIP3    H124043   3.989   0.548   6.632
  828TIP3    H224044   4.023   0.685   6.578
  829TIP3   OH224045   5.452   4.888   8.488
  829TIP3    H124046   5.420   4.911   8.401
  829TIP3    H224047   5.525   4.828   8.472
  830TIP3   OH224048   1.402   2.793   6.670
  830TIP3    H124049   1.456   2.855   6.620
  830TIP3    H224050   1.455   2.714   6.675
  831TIP3   OH224051   4.338   3.627   0.009
  831TIP3    H124052   4.320   3.673   0.091
  831TIP3    H224053   4.251   3.605   8.606
  832TIP3   OH224054   1.943   5.672   8.614
  832TIP3    H124055   1.888   5.601   0.015
  832TIP3    H224056   2.015   5.678   0.045
  833TIP3   OH224057   3.327   4.134   7.743
  833TIP3    H124058   3.401   4.158   7.686
  833TIP3    H224059   3.255   4.188   7.711
  834TIP3   OH224060   2.201   5.677   1.830
  834TIP3    H124061   2.265   5.627   1.881
  834TIP3    H224062   2.148   5.722   1.896
  835TIP3   OH224063   3.245   0.479   7.152
  835TIP3    H124064   3.306   0.472   7.078
  835TIP3    H224065   3.300   0.503   7.226
  836TIP3   OH224066   0.282   3.972   8.284
  836TIP3    H124067   0.257   4.018   8.204
  836TIP3    H224068   0.250   3.883   8.271
  837TIP3   OH224069   0.487   5.998   1.880
  837TIP3    H124070   0.465   5.911   1.915
  837TIP3    H224071   0.419   6.017   1.817
  838TIP3   OH224072   6.634   2.699   6.705
  838TIP3    H124073   6.721   2.668   6.730
  838TIP3    H224074   6.602   2.633   6.643
  839TIP3   OH224075   2.642   3.013   6.997
  839TIP3    H124076   2.650   3.017   6.902
  839TIP3    H224077   2.701   3.081   7.029
  840TIP3   OH224078   6.865   3.221   1.413
  840TIP3    H124079   6.796   3.209   1.349
  840TIP3    H224080   0.044   3.150   1.395
  841TIP3   OH224081   6.055   2.574   6.697
  841TIP3    H124082   6.082   2.606   6.782
  841TIP3    H224083   5.972   2.529   6.713
  842TIP3   OH224084   2.597   2.109   0.466
  842TIP3    H124085   2.562   2.092   0.554
  842TIP3    H224086   2.525   2.085   0.407
  843TIP3   OH224087   2.863   5.232   7.753
  843TIP3    H124088   2.950   5.224   7.714
  843TIP3    H224089   2.853   5.153   7.806
  844TIP3   OH224090   1.407   4.485   1.651
  844TIP3    H124091   1.429   4.399   1.617
  844TIP3    H224092   1.400   4.472   1.746
  845TIP3   OH224093   5.110   1.207   0.081
  845TIP3    H124094   5.057   1.129   0.065
  845TIP3    H224095   5.182   1.176   0.135
  846TIP3   OH224096   4.651   2.285   1.597
  846TIP3    H124097   4.725   2.312   1.650
  846TIP3    H224098   4.650   2.189   1.603
  847TIP3   OH224099   1.689   3.477   7.170
  847TIP3    H124100   1.680   3.486   7.075
  847TIP3    H224101   1.685   3.383   7.186
  848TIP3   OH224102   1.808   1.003   1.706
  848TIP3    H124103   1.892   0.964   1.684
  848TIP3    H224104   1.806   1.005   1.801
  849TIP3   OH224105   0.790   2.954   6.627
  849TIP3    H124106   0.756   2.884   6.571
  849TIP3    H224107   0.759   3.035   6.586
  850TIP3   OH224108   1.036   0.838   1.460
  850TIP3    H124109   1.120   0.828   1.417
  850TIP3    H224110   1.057   0.854   1.552
  851TIP3   OH224111   2.273   2.008   2.047
  851TIP3    H124112   2.281   2.084   1.989
  851TIP3    H224113   2.185   2.013   2.082
  852TIP3   OH224114   1.685   2.080   7.272
  852TIP3    H124115   1.730   2.157   7.306
  852TIP3    H224116   1.636   2.112   7.196
  853TIP3   OH224117   3.249   6.314   6.333
  853TIP3    H124118   3.256   6.360   6.417
  853TIP3    H224119   3.184   6.245   6.350
  854TIP3   OH224120   1.791   6.228   7.026
  854TIP3    H124121   1.713   6.258   7.071
  854TIP3    H224122   1.859   6.290   7.051
  855TIP3   OH224123   0.155   0.338   7.504
  855TIP3    H124124   0.150   0.248   7.472
  855TIP3    H224125   0.124   0.391   7.431
  856TIP3   OH224126   3.543   2.052   7.619
  856TIP3    H124127   3.473   2.101   7.575
  856TIP3    H224128   3.619   2.109   7.613
  857TIP3   OH224129   3.153   3.587   1.373
  857TIP3    H124130   3.247   3.570   1.381
  857TIP3    H224131   3.114   3.501   1.359
  858TIP3   OH224132   2.510   5.508   7.300
  858TIP3    H124133   2.445   5.438   7.301
  858TIP3    H224134   2.460   5.586   7.325
  859TIP3   OH224135   1.902   2.876   6.750
  859TIP3    H124136   1.985   2.864   6.704
  859TIP3    H224137   1.840   2.900   6.681
  860TIP3   OH224138   6.381   2.547   0.136
  860TIP3    H124139   6.419   2.530   0.050
  860TIP3    H224140   6.324   2.622   0.122
  861TIP3   OH224141   4.596   5.926   6.895
  861TIP3    H124142   4.622   5.911   6.986
  861TIP3    H224143   4.616   6.019   6.879
  862TIP3   OH224144   1.348   5.075   7.042
  862TIP3    H124145   1.281   5.140   7.067
  862TIP3    H224146   1.301   5.012   6.988
  863TIP3   OH224147   0.873   0.136   1.235
  863TIP3    H124148   0.963   0.110   1.252
  863TIP3    H224149   0.866   0.225   1.269
  864TIP3   OH224150   3.228   0.452   0.817
  864TIP3    H124151   3.171   0.378   0.836
  864TIP3    H224152   3.279   0.464   0.897
  865TIP3   OH224153   5.765   2.270   1.986
  865TIP3    H124154   5.750   2.300   2.076
  865TIP3    H224155   5.860   2.260   1.980
  866TIP3   OH224156   0.690   0.884   0.336
  866TIP3    H124157   0.713   0.967   0.377
  866TIP3    H224158   0.765   0.862   0.281
  867TIP3   OH224159   3.857   2.910   7.380
  867TIP3    H124160   3.877   2.907   7.473
  867TIP3    H224161   3.939   2.888   7.337
  868TIP3   OH224162   0.409   0.207   8.234
  868TIP3    H124163   0.357   0.149   8.289
  868TIP3    H224164   0.495   0.210   8.276
  869TIP3   OH224165   5.994   4.504   1.876
  869TIP3    H124166   5.958   4.448   1.945
  869TIP3    H224167   6.061   4.555   1.921
  870TIP3   OH224168   5.772   4.917   7.172
  870TIP3    H124169   5.709   4.988   7.182
  870TIP3    H224170   5.747   4.852   7.239
  871TIP3   OH224171   1.970   1.328   1.312
  871TIP3    H124172   1.932   1.307   1.398
  871TIP3    H224173   2.051   1.278   1.309
  872TIP3   OH224174   6.032   6.339   7.372
  872TIP3    H124175   6.005   6.428   7.349
  872TIP3    H224176   5.950   6.294   7.391
  873TIP3   OH224177   1.101   5.420   0.088
  873TIP3    H124178   1.180   5.376   0.056
  873TIP3    H224179   1.030   5.375   0.042
  874TIP3   OH224180   3.851   5.333   1.904
  874TIP3    H124181   3.793   5.263   1.877
  874TIP3    H224182   3.937   5.292   1.912
  875TIP3   OH224183   1.802   2.061   6.668
  875TIP3    H124184   1.889   2.089   6.638
  875TIP3    H224185   1.794   2.100   6.755
  876TIP3   OH224186   4.334   6.031   1.852
  876TIP3    H124187   4.258   6.019   1.908
  876TIP3    H224188   4.408   6.000   1.904
  877TIP3   OH224189   3.201   3.483   7.526
  877TIP3    H124190   3.174   3.404   7.480
  877TIP3    H224191   3.174   3.470   7.616
  878TIP3   OH224192   6.667   2.338   6.338
  878TIP3    H124193   6.721   2.346   6.416
  878TIP3    H224194   6.626   2.424   6.328
  879TIP3   OH224195   3.558   5.329   8.478
  879TIP3    H124196   3.610   5.290   8.549
  879TIP3    H224197   3.536   5.416   8.510
  880TIP3   OH224198   0.475   3.762   0.301
  880TIP3    H124199   0.415   3.796   0.235
  880TIP3    H224200   0.461   3.816   0.378
  881TIP3   OH224201   3.038   5.033   7.588
  881TIP3    H124202   2.954   4.998   7.559
  881TIP3    H224203   3.071   4.968   7.650
  882TIP3   OH224204   2.154   0.624   1.082
  882TIP3    H124205   2.109   0.707   1.100
  882TIP3    H224206   2.083   0.561   1.070
  883TIP3   OH224207   1.052   3.755   2.083
  883TIP3    H124208   1.070   3.849   2.089
  883TIP3    H224209   0.961   3.749   2.054
  884TIP3   OH224210   0.587   2.535   8.120
  884TIP3    H124211   0.644   2.602   8.157
  884TIP3    H224212   0.634   2.453   8.134
  885TIP3   OH224213   1.848   6.445   7.553
  885TIP3    H124214   1.892   6.382   7.609
  885TIP3    H224215   1.835   6.398   7.470
  886TIP3   OH224216   4.603   6.383   6.296
  886TIP3    H124217   4.667   6.455   6.298
  886TIP3    H224218   4.579   6.371   6.388
  887TIP3   OH224219   3.151   0.697   7.974
  887TIP3    H124220   3.157   0.763   8.043
  887TIP3    H224221   3.067   0.714   7.932
  888TIP3   OH224222   5.801   4.105   8.085
  888TIP3    H124223   5.747   4.056   8.023
  888TIP3    H224224   5.739   4.143   8.147
  889TIP3   OH224225   3.030   1.054   7.576
  889TIP3    H124226   3.089   1.079   7.647
  889TIP3    H224227   3.081   0.993   7.522
  890TIP3   OH224228   0.673   2.037   0.181
  890TIP3    H124229   0.752   2.004   0.138
  890TIP3    H224230   0.672   2.131   0.163
  891TIP3   OH224231   2.125   2.067   8.271
  891TIP3    H124232   2.127   1.983   8.317
  891TIP3    H224233   2.099   2.044   8.182
  892TIP3   OH224234   4.851   4.185   8.323
  892TIP3    H124235   4.810   4.258   8.370
  892TIP3    H224236   4.795   4.170   8.247
  893TIP3   OH224237   1.446   1.395   8.516
  893TIP3    H124238   1.516   1.376   8.578
  893TIP3    H224239   1.467   1.342   8.439
  894TIP3   OH224240   1.782   3.435   8.242
  894TIP3    H124241   1.733   3.455   8.322
  894TIP3    H224242   1.751   3.499   8.178
  895TIP3   OH224243   3.376   3.487   1.705
  895TIP3    H124244   3.296   3.521   1.746
  895TIP3    H224245   3.357   3.395   1.690
  896TIP3   OH224246   1.818   5.681   7.499
  896TIP3    H124247   1.861   5.609   7.546
  896TIP3    H224248   1.867   5.759   7.525
  897TIP3   OH224249   2.359   3.923   7.476
  897TIP3    H124250   2.407   3.861   7.530
  897TIP3    H224251   2.426   3.974   7.431
  898TIP3   OH224252   5.158   2.496   0.447
  898TIP3    H124253   5.224   2.437   0.485
  898TIP3    H224254   5.209   2.573   0.419
  899TIP3   OH224255   2.224   6.099   7.299
  899TIP3    H124256   2.298   6.065   7.248
  899TIP3    H224257   2.250   6.087   7.390
  900TIP3   OH224258   2.952   1.973   7.187
  900TIP3    H124259   2.959   2.045   7.124
  900TIP3    H224260   2.859   1.972   7.212
  901TIP3   OH224261   5.358   0.544   6.301
  901TIP3    H124262   5.342   0.568   6.210
  901TIP3    H224263   5.431   0.482   6.297
  902TIP3   OH224264   3.766   2.357   0.495
  902TIP3    H124265   3.682   2.384   0.532
  902TIP3    H224266   3.821   2.340   0.572
  903TIP3   OH224267   5.714   6.226   7.802
  903TIP3    H124268   5.667   6.143   7.801
  903TIP3    H224269   5.646   6.292   7.813
  904TIP3   OH224270   5.056   2.777   0.061
  904TIP3    H124271   4.998   2.838   0.016
  904TIP3    H224272   5.091   2.722   8.623
  905TIP3   OH224273   3.824   4.873   2.081
  905TIP3    H124274   3.902   4.927   2.073
  905TIP3    H224275   3.755   4.934   2.109
  906TIP3   OH224276   3.790   1.777   1.924
  906TIP3    H124277   3.759   1.823   1.846
  906TIP3    H224278   3.870   1.824   1.949
  907TIP3   OH224279   1.091   1.580   6.156
  907TIP3    H124280   1.012   1.542   6.117
  907TIP3    H224281   1.099   1.538   6.241
  908TIP3   OH224282   6.626   5.253   7.537
  908TIP3    H124283   6.565   5.249   7.611
  908TIP3    H224284   6.686   5.324   7.560
  909TIP3   OH224285   5.892   1.591   2.571
  909TIP3    H124286   5.939   1.541   2.638
  909TIP3    H224287   5.899   1.537   2.492
  910TIP3   OH224288   2.030   1.931   0.235
  910TIP3    H124289   1.973   1.932   0.313
  910TIP3    H224290   2.112   1.892   0.266
  911TIP3   OH224291   4.000   6.284   6.758
  911TIP3    H124292   3.988   6.192   6.734
  911TIP3    H224293   3.911   6.318   6.767
  912TIP3   OH224294   1.947   0.531   1.299
  912TIP3    H124295   2.019   0.571   1.348
  912TIP3    H224296   1.987   0.456   1.255
  913TIP3   OH224297   5.031   0.764   0.567
  913TIP3    H124298   5.052   0.818   0.643
  913TIP3    H224299   5.048   0.674   0.597
  914TIP3   OH224300   4.594   3.571   1.278
  914TIP3    H124301   4.624   3.630   1.347
  914TIP3    H224302   4.548   3.500   1.325
  915TIP3   OH224303   1.495   1.247   8.265
  915TIP3    H124304   1.514   1.320   8.206
  915TIP3    H224305   1.565   1.184   8.248
  916TIP3   OH224306   1.024   3.404   8.107
  916TIP3    H124307   1.064   3.392   8.193
  916TIP3    H224308   1.093   3.379   8.045
  917TIP3   OH224309   6.140   2.982   1.835
  917TIP3    H124310   6.228   2.949   1.821
  917TIP3    H224311   6.084   2.925   1.782
  918TIP3   OH224312   5.120   3.019   1.290
  918TIP3    H124313   5.151   3.010   1.200
  918TIP3    H224314   5.198   3.042   1.340
  919TIP3   OH224315   2.994   3.745   1.245
  919TIP3    H124316   3.041   3.695   1.313
  919TIP3    H224317   3.031   3.833   1.250
  920TIP3   OH224318   4.006   3.498   0.399
  920TIP3    H124319   4.080   3.474   0.455
  920TIP3    H224320   3.937   3.437   0.425
  921TIP3   OH224321   5.877   5.811   1.713
  921TIP3    H124322   5.964   5.831   1.746
  921TIP3    H224323   5.820   5.876   1.754
  922TIP3   OH224324   0.582   6.477   0.317
  922TIP3    H124325   0.498   6.501   0.356
  922TIP3    H224326   0.597   6.543   0.249
  923TIP3   OH224327   0.799   5.097   7.192
  923TIP3    H124328   0.753   5.067   7.271
  923TIP3    H224329   0.881   5.134   7.224
  924TIP3   OH224330   2.958   1.273   0.430
  924TIP3    H124331   2.973   1.219   0.353
  924TIP3    H224332   3.046   1.290   0.465
  925TIP3   OH224333   2.183   0.239   6.901
  925TIP3    H124334   2.129   0.186   6.843
  925TIP3    H224335   2.196   0.321   6.854
  926TIP3   OH224336   0.342   4.674   7.621
  926TIP3    H124337   0.390   4.748   7.660
  926TIP3    H224338   0.254   4.681   7.659
  927TIP3   OH224339   0.483   1.401   2.234
  927TIP3    H124340   0.401   1.354   2.229
  927TIP3    H224341   0.542   1.342   2.280
  928TIP3   OH224342   4.182   2.639   1.720
  928TIP3    H124343   4.177   2.735   1.727
  928TIP3    H224344   4.265   2.623   1.676
  929TIP3   OH224345   2.500   1.349   8.601
  929TIP3    H124346   2.485   1.416   0.036
  929TIP3    H224347   2.415   1.337   8.559
  930TIP3   OH224348   2.278   5.176   0.283
  930TIP3    H124349   2.197   5.130   0.305
  930TIP3    H224350   2.343   5.140   0.342
  931TIP3   OH224351   3.300   6.882   0.905
  931TIP3    H124352   3.366   0.068   0.896
  931TIP3    H224353   3.337   6.822   0.971
  932TIP3   OH224354   2.104   5.504   0.170
  932TIP3    H124355   2.129   5.446   0.098
  932TIP3    H224356   2.030   5.459   0.211
  933TIP3   OH224357   4.767   0.578   7.614
  933TIP3    H124358   4.740   0.594   7.704
  933TIP3    H224359   4.747   0.660   7.568
  934TIP3   OH224360   2.302   4.744   1.330
  934TIP3    H124361   2.359   4.820   1.344
  934TIP3    H224362   2.362   4.671   1.315
  935TIP3   OH224363   3.999   6.312   7.687
  935TIP3    H124364   4.042   6.328   7.771
  935TIP3    H224365   4.070   6.283   7.629
  936TIP3   OH224366   2.513   6.132   7.603
  936TIP3    H124367   2.575   6.179   7.658
  936TIP3    H224368   2.462   6.200   7.560
  937TIP3   OH224369   0.876   3.256   7.351
  937TIP3    H124370   0.930   3.288   7.279
  937TIP3    H224371   0.936   3.253   7.426
  938TIP3   OH224372   1.731   5.007   0.141
  938TIP3    H124373   1.724   5.010   0.046
  938TIP3    H224374   1.768   4.920   0.160
  939TIP3   OH224375   4.347   0.031   7.503
  939TIP3    H124376   4.363   0.051   7.411
  939TIP3    H224377   4.400   6.836   7.520
  940TIP3   OH224378   4.002   3.223   0.319
  940TIP3    H124379   4.091   3.225   0.282
  940TIP3    H224380   3.958   3.151   0.274
  941TIP3   OH224381   1.254   5.350   7.562
  941TIP3    H124382   1.276   5.398   7.482
  941TIP3    H224383   1.263   5.415   7.632
  942TIP3   OH224384   6.047   3.445   1.294
  942TIP3    H124385   6.044   3.417   1.386
  942TIP3    H224386   5.983   3.516   1.289
  943TIP3   OH224387   5.307   3.302   1.003
  943TIP3    H124388   5.398   3.296   1.032
  943TIP3    H224389   5.305   3.253   0.920
  944TIP3   OH224390   3.581   2.527   1.931
  944TIP3    H124391   3.486   2.520   1.927
  944TIP3    H224392   3.608   2.457   1.991
  945TIP3   OH224393   3.609   1.659   0.207
  945TIP3    H124394   3.662   1.738   0.206
  945TIP3    H224395   3.567   1.660   0.293
  946TIP3   OH224396   5.029   1.072   7.109
  946TIP3    H124397   4.936   1.059   7.125
  946TIP3    H224398   5.068   1.082   7.196
  947TIP3   OH224399   0.699   5.730   7.148
  947TIP3    H124400   0.786   5.691   7.147
  947TIP3    H224401   0.711   5.818   7.112
  948TIP3   OH224402   2.158   3.051   6.548
  948TIP3    H124403   2.212   3.124   6.516
  948TIP3    H224404   2.165   3.056   6.643
  949TIP3   OH224405   6.517   1.886   7.776
  949TIP3    H124406   6.589   1.943   7.802
  949TIP3    H224407   6.482   1.925   7.697
  950TIP3   OH224408   3.170   0.116   7.110
  950TIP3    H124409   3.146   0.093   7.020
  950TIP3    H224410   3.110   0.187   7.133
  951TIP3   OH224411   1.865   0.096   7.779
  951TIP3    H124412   1.859   0.027   7.714
  951TIP3    H224413   1.877   0.176   7.729
  952TIP3   OH224414   2.767   6.544   7.174
  952TIP3    H124415   2.724   6.524   7.091
  952TIP3    H224416   2.843   6.596   7.150
  953TIP3   OH224417   1.082   3.943   0.979
  953TIP3    H124418   1.103   3.877   0.913
  953TIP3    H224419   1.131   3.916   1.057
  954TIP3   OH224420   3.591   2.479   8.531
  954TIP3    H124421   3.507   2.456   8.491
  954TIP3    H224422   3.624   2.551   8.478
  955TIP3   OH224423   1.713   5.239   8.575
  955TIP3    H124424   1.648   5.189   8.526
  955TIP3    H224425   1.662   5.290   0.006
  956TIP3   OH224426   3.085   5.760   1.682
  956TIP3    H124427   3.125   5.685   1.639
  956TIP3    H224428   3.150   5.790   1.746
  957TIP3   OH224429   0.283   1.159   7.459
  957TIP3    H124430   0.325   1.210   7.390
  957TIP3    H224431   0.196   1.140   7.425
  958TIP3   OH224432   0.092   6.610   7.150
  958TIP3    H124433   0.124   6.520   7.157
  958TIP3    H224434   0.008   6.610   7.195
  959TIP3   OH224435   2.267   5.300   2.396
  959TIP3    H124436   2.281   5.218   2.348
  959TIP3    H224437   2.267   5.367   2.328
  960TIP3   OH224438   4.073   1.752   0.258
  960TIP3    H124439   4.059   1.663   0.290
  960TIP3    H224440   4.157   1.779   0.294
  961TIP3   OH224441   0.475   2.083   6.862
  961TIP3    H124442   0.559   2.118   6.892
  961TIP3    H224443   0.423   2.160   6.841
  962TIP3   OH224444   5.093   4.310   7.126
  962TIP3    H124445   5.159   4.358   7.077
  962TIP3    H224446   5.026   4.288   7.062
  963TIP3   OH224447   3.126   4.308   7.687
  963TIP3    H124448   3.124   4.335   7.595
  963TIP3    H224449   3.035   4.288   7.708
  964TIP3   OH224450   0.830   1.455   8.473
  964TIP3    H124451   0.920   1.458   8.440
  964TIP3    H224452   0.837   1.406   8.555
  965TIP3   OH224453   1.286   4.412   1.312
  965TIP3    H124454   1.258   4.421   1.221
  965TIP3    H224455   1.260   4.323   1.337
  966TIP3   OH224456   5.421   6.860   6.271
  966TIP3    H124457   5.493   6.850   6.332
  966TIP3    H224458   5.342   6.845   6.323
  967TIP3   OH224459   6.065   4.770   2.328
  967TIP3    H124460   5.994   4.727   2.280
  967TIP3    H224461   6.104   4.700   2.381
  968TIP3   OH224462   1.040   4.000   0.568
  968TIP3    H124463   1.098   4.031   0.498
  968TIP3    H224464   1.049   4.066   0.637
  969TIP3   OH224465   2.089   6.622   0.163
  969TIP3    H124466   2.015   6.588   0.213
  969TIP3    H224467   2.166   6.590   0.210
  970TIP3   OH224468   1.014   3.732   1.621
  970TIP3    H124469   0.936   3.723   1.676
  970TIP3    H224470   0.996   3.807   1.566
  971TIP3   OH224471   2.949   0.456   8.264
  971TIP3    H124472   2.881   0.487   8.204
  971TIP3    H224473   2.926   0.495   8.348
  972TIP3   OH224474   2.281   0.020   7.083
  972TIP3    H124475   2.265   6.876   6.993
  972TIP3    H224476   2.272   0.116   7.082
  973TIP3   OH224477   1.593   6.200   1.257
  973TIP3    H124478   1.527   6.157   1.202
  973TIP3    H224479   1.542   6.249   1.321
  974TIP3   OH224480   6.673   3.203   2.165
  974TIP3    H124481   6.608   3.136   2.141
  974TIP3    H224482   6.622   3.284   2.169
  975TIP3   OH224483   6.519   1.511   8.224
  975TIP3    H124484   6.589   1.464   8.270
  975TIP3    H224485   6.439   1.485   8.270
  976TIP3   OH224486   1.446   0.276   7.050
  976TIP3    H124487   1.540   0.274   7.032
  976TIP3    H224488   1.406   0.238   6.972
  977TIP3   OH224489   2.892   4.085   8.573
  977TIP3    H124490   2.892   4.019   8.504
  977TIP3    H224491   2.980   4.080   8.611
  978TIP3   OH224492   2.781   3.633   6.958
  978TIP3    H124493   2.754   3.713   7.005
  978TIP3    H224494   2.698   3.595   6.927
  979TIP3   OH224495   2.567   1.641   8.017
  979TIP3    H124496   2.476   1.634   8.046
  979TIP3    H224497   2.619   1.612   8.091
  980TIP3   OH224498   2.227   5.818   1.597
  980TIP3    H124499   2.176   5.771   1.531
  980TIP3    H224500   2.193   5.787   1.681
  981TIP3   OH224501   5.687   5.629   1.480
  981TIP3    H124502   5.676   5.691   1.552
  981TIP3    H224503   5.761   5.574   1.506
  982TIP3   OH224504   3.858   0.206   0.772
  982TIP3    H124505   3.790   0.265   0.804
  982TIP3    H224506   3.940   0.245   0.804
  983TIP3   OH224507   2.272   1.590   8.017
  983TIP3    H124508   2.255   1.557   7.929
  983TIP3    H224509   2.185   1.601   8.055
  984TIP3   OH224510   4.302   2.030   7.867
  984TIP3    H124511   4.311   2.101   7.931
  984TIP3    H224512   4.392   1.998   7.855
  985TIP3   OH224513   2.853   1.188   1.367
  985TIP3    H124514   2.793   1.262   1.376
  985TIP3    H224515   2.886   1.196   1.277
  986TIP3   OH224516   3.376   4.735   0.952
  986TIP3    H124517   3.386   4.822   0.991
  986TIP3    H224518   3.464   4.711   0.924
  987TIP3   OH224519   6.482   4.535   2.185
  987TIP3    H124520   6.472   4.541   2.280
  987TIP3    H224521   6.570   4.569   2.169
  988TIP3   OH224522   2.366   6.304   0.526
  988TIP3    H124523   2.383   6.397   0.508
  988TIP3    H224524   2.378   6.261   0.442
  989TIP3   OH224525   2.966   1.681   7.417
  989TIP3    H124526   3.014   1.700   7.336
  989TIP3    H224527   2.876   1.669   7.388
  990TIP3   OH224528   3.968   3.285   0.911
  990TIP3    H124529   3.924   3.201   0.924
  990TIP3    H224530   4.050   3.278   0.960
  991TIP3   OH224531   4.470   5.021   7.451
  991TIP3    H124532   4.488   5.020   7.545
  991TIP3    H224533   4.549   5.057   7.412
  992TIP3   OH224534   6.278   6.484   1.954
  992TIP3    H124535   6.325   6.422   2.011
  992TIP3    H224536   6.263   6.435   1.873
  993TIP3   OH224537   6.592   4.888   0.287
  993TIP3    H124538   6.516   4.944   0.305
  993TIP3    H224539   6.646   4.895   0.366
  994TIP3   OH224540   3.502   3.718   7.459
  994TIP3    H124541   3.464   3.806   7.463
  994TIP3    H224542   3.593   3.730   7.485
  995TIP3   OH224543   2.618   6.088   0.032
  995TIP3    H124544   2.666   6.122   8.588
  995TIP3    H224545   2.539   6.141   0.037
  996TIP3   OH224546   2.960   3.884   1.544
  996TIP3    H124547   2.896   3.921   1.604
  996TIP3    H224548   3.044   3.895   1.588
  997TIP3   OH224549   4.325   0.399   0.429
  997TIP3    H124550   4.416   0.387   0.405
  997TIP3    H224551   4.295   0.473   0.376
  998TIP3   OH224552   0.798   0.711   1.874
  998TIP3    H124553   0.827   0.797   1.906
  998TIP3    H224554   0.835   0.649   1.936
  999TIP3   OH224555   6.359   0.573   0.610
  999TIP3    H124556   6.335   0.572   0.703
  999TIP3    H224557   6.392   0.661   0.595
 1000TIP3   OH224558   1.267   0.055   2.043
 1000TIP3    H124559   1.292   0.120   2.109
 1000TIP3    H224560   1.255   0.106   1.963
 1001TIP3   OH224561   3.837   2.098   7.358
 1001TIP3    H124562   3.859   2.189   7.378
 1001TIP3    H224563   3.861   2.050   7.438
 1002TIP3   OH224564   3.587   2.866   7.351
 1002TIP3    H124565   3.675   2.896   7.373
 1002TIP3    H224566   3.544   2.943   7.315
 1003TIP3   OH224567   3.205   0.080   1.335
 1003TIP3    H124568   3.140   0.121   1.277
 1003TIP3    H224569   3.174   0.100   1.423
 1004TIP3   OH224570   3.509   0.484   2.586
 1004TIP3    H124571   3.597   0.469   2.552
 1004TIP3    H224572   3.454   0.492   2.508
 1005TIP3   OH224573   4.382   6.293   7.054
 1005TIP3    H124574   4.327   6.219   7.079
 1005TIP3    H224575   4.326   6.370   7.065
 1006TIP3   OH224576   0.437   0.313   7.510
 1006TIP3    H124577   0.464   0.300   7.601
 1006TIP3    H224578   0.343   0.335   7.516
 1007TIP3   OH224579   6.177   5.450   0.289
 1007TIP3    H124580   6.118   5.523   0.307
 1007TIP3    H224581   6.134   5.374   0.328
 1008TIP3   OH224582   1.116   6.571   0.979
 1008TIP3    H124583   1.061   6.564   0.900
 1008TIP3    H224584   1.054   6.564   1.051
 1009TIP3   OH224585   0.669   4.729   0.246
 1009TIP3    H124586   0.638   4.640   0.230
 1009TIP3    H224587   0.754   4.733   0.201
 1010TIP3   OH224588   1.613   0.394   0.206
 1010TIP3    H124589   1.594   0.475   0.255
 1010TIP3    H224590   1.652   0.425   0.124
 1011TIP3   OH224591   1.768   2.477   0.223
 1011TIP3    H124592   1.767   2.502   0.131
 1011TIP3    H224593   1.724   2.549   0.268
 1012TIP3   OH224594   1.917   3.747   6.520
 1012TIP3    H124595   1.942   3.837   6.500
 1012TIP3    H224596   1.931   3.699   6.438
 1013TIP3   OH224597   1.033   0.449   7.863
 1013TIP3    H124598   1.075   0.534   7.876
 1013TIP3    H224599   0.988   0.457   7.778
 1014TIP3   OH224600   2.779   6.766   8.521
 1014TIP3    H124601   2.800   6.859   8.510
 1014TIP3    H224602   2.684   6.761   8.509
 1015TIP3   OH224603   5.565   4.828   1.080
 1015TIP3    H124604   5.617   4.856   1.155
 1015TIP3    H224605   5.522   4.748   1.109
 1016TIP3   OH224606   4.874   2.298   1.813
 1016TIP3    H124607   4.970   2.302   1.809
 1016TIP3    H224608   4.856   2.210   1.848
 1017TIP3   OH224609   1.116   2.850   1.097
 1017TIP3    H124610   1.154   2.768   1.128
 1017TIP3    H224611   1.077   2.890   1.174
 1018TIP3   OH224612   0.920   6.626   0.396
 1018TIP3    H124613   0.866   6.703   0.410
 1018TIP3    H224614   0.860   6.552   0.404
 1019TIP3   OH224615   6.207   5.645   2.175
 1019TIP3    H124616   6.300   5.625   2.164
 1019TIP3    H224617   6.162   5.565   2.145
 1020TIP3   OH224618   0.197   1.584   0.883
 1020TIP3    H124619   0.194   1.672   0.844
 1020TIP3    H224620   0.106   1.555   0.881
 1021TIP3   OH224621   3.831   2.829   0.794
 1021TIP3    H124622   3.873   2.752   0.833
 1021TIP3    H224623   3.755   2.794   0.747
 1022TIP3   OH224624   2.309   2.507   7.328
 1022TIP3    H124625   2.287   2.487   7.419
 1022TIP3    H224626   2.284   2.598   7.316
 1023TIP3   OH224627   3.066   5.096   1.530
 1023TIP3    H124628   3.003   5.029   1.504
 1023TIP3    H224629   3.040   5.121   1.618
 1024TIP3   OH224630   5.989   2.517   0.967
 1024TIP3    H124631   5.939   2.485   0.892
 1024TIP3    H224632   5.922   2.540   1.032
 1025TIP3   OH224633   2.006   0.983   0.799
 1025TIP3    H124634   2.023   1.062   0.851
 1025TIP3    H224635   1.941   0.934   0.851
 1026TIP3   OH224636   6.377   2.038   8.268
 1026TIP3    H124637   6.443   1.969   8.272
 1026TIP3    H224638   6.413   2.101   8.205
 1027TIP3   OH224639   3.960   6.688   6.637
 1027TIP3    H124640   4.021   6.736   6.581
 1027TIP3    H224641   3.884   6.745   6.645
 1028TIP3   OH224642   5.393   3.969   7.512
 1028TIP3    H124643   5.403   4.049   7.460
 1028TIP3    H224644   5.303   3.972   7.544
 1029TIP3   OH224645   6.676   4.199   1.497
 1029TIP3    H124646   6.589   4.195   1.537
 1029TIP3    H224647   6.663   4.249   1.416
 1030TIP3   OH224648   3.079   4.694   1.254
 1030TIP3    H124649   3.102   4.622   1.196
 1030TIP3    H224650   3.070   4.653   1.340
 1031TIP3   OH224651   3.690   0.772   7.353
 1031TIP3    H124652   3.700   0.729   7.438
 1031TIP3    H224653   3.763   0.741   7.301
 1032TIP3   OH224654   3.042   0.160   2.181
 1032TIP3    H124655   3.067   0.225   2.246
 1032TIP3    H224656   2.956   0.190   2.150
 1033TIP3   OH224657   6.017   6.440   1.418
 1033TIP3    H124658   6.009   6.512   1.481
 1033TIP3    H224659   6.056   6.480   1.340
 1034TIP3   OH224660   6.638   3.856   8.596
 1034TIP3    H124661   6.656   3.949   8.584
 1034TIP3    H224662   6.546   3.852   8.619
 1035TIP3   OH224663   2.308   5.417   0.468
 1035TIP3    H124664   2.390   5.407   0.516
 1035TIP3    H224665   2.314   5.353   0.397
 1036TIP3   OH224666   5.184   1.678   0.393
 1036TIP3    H124667   5.111   1.678   0.455
 1036TIP3    H224668   5.202   1.586   0.378
 1037TIP3   OH224669   6.845   5.084   8.394
 1037TIP3    H124670   6.792   5.009   8.366
 1037TIP3    H224671   6.877   5.059   8.481
 1038TIP3   OH224672   2.061   5.847   0.628
 1038TIP3    H124673   2.131   5.782   0.632
 1038TIP3    H224674   1.996   5.809   0.569
 1039TIP3   OH224675   4.559   2.008   0.059
 1039TIP3    H124676   4.568   2.005   8.595
 1039TIP3    H224677   4.499   2.081   0.075
 1040TIP3   OH224678   5.020   0.975   8.373
 1040TIP3    H124679   4.998   0.915   8.302
 1040TIP3    H224680   5.023   1.061   8.331
 1041TIP3   OH224681   2.324   0.115   8.497
 1041TIP3    H124682   2.343   0.209   8.493
 1041TIP3    H224683   2.268   0.105   8.574
 1042TIP3   OH224684   1.081   3.774   8.347
 1042TIP3    H124685   1.110   3.754   8.258
 1042TIP3    H224686   1.155   3.748   8.403
 1043TIP3   OH224687   2.593   4.295   0.256
 1043TIP3    H124688   2.604   4.253   0.171
 1043TIP3    H224689   2.531   4.366   0.240
 1044TIP3   OH224690   5.832   6.641   0.373
 1044TIP3    H124691   5.784   6.583   0.314
 1044TIP3    H224692   5.823   6.728   0.334
 1045TIP3   OH224693   2.729   2.003   7.546
 1045TIP3    H124694   2.731   1.907   7.549
 1045TIP3    H224695   2.658   2.023   7.486
 1046TIP3   OH224696   1.124   2.616   0.416
 1046TIP3    H124697   1.109   2.631   0.322
 1046TIP3    H224698   1.094   2.527   0.431
 1047TIP3   OH224699   2.120   2.899   6.319
 1047TIP3    H124700   2.067   2.824   6.347
 1047TIP3    H224701   2.144   2.942   6.401
 1048TIP3   OH224702   2.245   2.508   7.584
 1048TIP3    H124703   2.178   2.562   7.627
 1048TIP3    H224704   2.316   2.505   7.648
 1049TIP3   OH224705   2.598   5.675   0.711
 1049TIP3    H124706   2.679   5.625   0.704
 1049TIP3    H224707   2.529   5.609   0.716
 1050TIP3   OH224708   2.867   2.631   1.588
 1050TIP3    H124709   2.851   2.716   1.545
 1050TIP3    H224710   2.954   2.640   1.626
 1051TIP3   OH224711   5.265   3.375   0.053
 1051TIP3    H124712   5.237   3.445   0.113
 1051TIP3    H224713   5.360   3.372   0.063
 1052TIP3   OH224714   3.094   2.668   1.705
 1052TIP3    H124715   3.118   2.582   1.671
 1052TIP3    H224716   3.123   2.667   1.797
 1053TIP3   OH224717   5.813   6.811   7.965
 1053TIP3    H124718   5.760   6.866   8.023
 1053TIP3    H224719   5.873   6.872   7.922
 1054TIP3   OH224720   0.085   3.079   8.578
 1054TIP3    H124721   0.153   3.073   0.015
 1054TIP3    H224722   0.065   2.988   8.556
 1055TIP3   OH224723   1.017   4.615   6.915
 1055TIP3    H124724   0.988   4.678   6.848
 1055TIP3    H224725   1.041   4.537   6.865
 1056TIP3   OH224726   0.740   5.966   8.278
 1056TIP3    H124727   0.820   6.010   8.250
 1056TIP3    H224728   0.675   5.993   8.213
 1057TIP3   OH224729   4.522   4.187   2.345
 1057TIP3    H124730   4.493   4.224   2.429
 1057TIP3    H224731   4.586   4.249   2.312
 1058TIP3   OH224732   4.611   0.115   2.530
 1058TIP3    H124733   4.635   0.060   2.604
 1058TIP3    H224734   4.517   0.100   2.519
 1059TIP3   OH224735   2.253   0.759   1.372
 1059TIP3    H124736   2.225   0.769   1.281
 1059TIP3    H224737   2.179   0.716   1.415
 1060TIP3   OH224738   3.280   4.404   7.890
 1060TIP3    H124739   3.207   4.378   7.834
 1060TIP3    H224740   3.313   4.322   7.926
 1061TIP3   OH224741   1.070   2.341   0.474
 1061TIP3    H124742   1.069   2.250   0.445
 1061TIP3    H224743   1.123   2.340   0.554
 1062TIP3   OH224744   0.013   1.803   0.226
 1062TIP3    H124745   0.047   1.868   0.288
 1062TIP3    H224746   6.853   1.855   0.158
 1063TIP3   OH224747   5.006   1.032   6.718
 1063TIP3    H124748   5.005   1.127   6.721
 1063TIP3    H224749   5.087   1.006   6.760
 1064TIP3   OH224750   2.172   2.321   7.113
 1064TIP3    H124751   2.186   2.328   7.207
 1064TIP3    H224752   2.111   2.391   7.092
 1065TIP3   OH224753   4.478   0.056   1.307
 1065TIP3    H124754   4.557   0.055   1.252
 1065TIP3    H224755   4.479   6.854   1.352
 1066TIP3   OH224756   0.396   4.053   7.801
 1066TIP3    H124757   0.394   3.964   7.766
 1066TIP3    H224758   0.489   4.075   7.806
 1067TIP3   OH224759   4.287   5.077   0.279
 1067TIP3    H124760   4.278   5.172   0.285
 1067TIP3    H224761   4.222   5.043   0.340
 1068TIP3   OH224762   0.890   0.684   8.250
 1068TIP3    H124763   0.931   0.756   8.299
 1068TIP3    H224764   0.859   0.725   8.169
 1069TIP3   OH224765   2.950   0.327   8.603
 1069TIP3    H124766   3.009   0.393   0.008
 1069TIP3    H224767   2.905   0.291   0.048
 1070TIP3   OH224768   4.911   4.085   7.737
 1070TIP3    H124769   4.942   4.150   7.800
 1070TIP3    H224770   4.895   4.135   7.657
 1071TIP3   OH224771   4.897   3.637   6.415
 1071TIP3    H124772   4.918   3.730   6.407
 1071TIP3    H224773   4.889   3.607   6.324
 1072TIP3   OH224774   3.564   3.333   8.226
 1072TIP3    H124775   3.564   3.256   8.284
 1072TIP3    H224776   3.490   3.386   8.257
 1073TIP3   OH224777   5.084   6.739   2.014
 1073TIP3    H124778   5.049   6.826   1.994
 1073TIP3    H224779   5.164   6.733   1.961
 1074TIP3   OH224780   2.910   6.142   2.311
 1074TIP3    H124781   2.967   6.092   2.369
 1074TIP3    H224782   2.970   6.182   2.247
 1075TIP3   OH224783   4.338   4.760   0.236
 1075TIP3    H124784   4.283   4.754   0.314
 1075TIP3    H224785   4.387   4.842   0.248
 1076TIP3   OH224786   5.302   4.119   1.825
 1076TIP3    H124787   5.248   4.061   1.878
 1076TIP3    H224788   5.346   4.176   1.888
 1077TIP3   OH224789   0.780   2.564   8.502
 1077TIP3    H124790   0.716   2.578   8.572
 1077TIP3    H224791   0.746   2.616   8.428
 1078TIP3   OH224792   5.895   0.848   1.865
 1078TIP3    H124793   5.935   0.925   1.905
 1078TIP3    H224794   5.802   0.867   1.863
 1079TIP3   OH224795   5.692   1.940   0.007
 1079TIP3    H124796   5.717   1.996   0.080
 1079TIP3    H224797   5.766   1.878   8.630
 1080TIP3   OH224798   5.455   1.425   7.595
 1080TIP3    H124799   5.403   1.348   7.614
 1080TIP3    H224800   5.395   1.499   7.605
 1081TIP3   OH224801   1.405   6.285   7.901
 1081TIP3    H124802   1.356   6.212   7.938
 1081TIP3    H224803   1.436   6.254   7.816
 1082TIP3   OH224804   5.965   0.329   0.824
 1082TIP3    H124805   5.890   0.352   0.768
 1082TIP3    H224806   5.959   0.388   0.898
 1083TIP3   OH224807   1.517   6.258   7.147
 1083TIP3    H124808   1.439   6.214   7.180
 1083TIP3    H224809   1.498   6.273   7.054
 1084TIP3   OH224810   4.081   2.051   7.705
 1084TIP3    H124811   4.153   2.028   7.763
 1084TIP3    H224812   4.003   2.044   7.759
 1085TIP3   OH224813   3.456   2.440   7.686
 1085TIP3    H124814   3.502   2.518   7.658
 1085TIP3    H224815   3.365   2.468   7.697
 1086TIP3   OH224816   1.348   5.676   6.793
 1086TIP3    H124817   1.254   5.679   6.813
 1086TIP3    H224818   1.380   5.598   6.840
 1087TIP3   OH224819   2.312   4.973   8.586
 1087TIP3    H124820   2.263   5.037   8.535
 1087TIP3    H224821   2.256   4.955   0.030
 1088TIP3   OH224822   3.546   1.554   2.391
 1088TIP3    H124823   3.495   1.633   2.403
 1088TIP3    H224824   3.600   1.548   2.470
 1089TIP3   OH224825   4.959   1.180   2.301
 1089TIP3    H124826   4.903   1.255   2.287
 1089TIP3    H224827   5.027   1.211   2.361
 1090TIP3   OH224828   1.980   3.536   0.131
 1090TIP3    H124829   2.055   3.477   0.128
 1090TIP3    H224830   1.950   3.542   0.040
 1091TIP3   OH224831   1.217   4.049   7.236
 1091TIP3    H124832   1.290   4.068   7.178
 1091TIP3    H224833   1.180   4.134   7.258
 1092TIP3   OH224834   1.062   3.011   7.454
 1092TIP3    H124835   0.968   2.995   7.451
 1092TIP3    H224836   1.089   3.017   7.362
 1093TIP3   OH224837   2.939   6.849   8.231
 1093TIP3    H124838   2.991   6.797   8.293
 1093TIP3    H224839   2.931   6.794   8.154
 1094TIP3   OH224840   3.204   4.695   7.521
 1094TIP3    H124841   3.223   4.726   7.433
 1094TIP3    H224842   3.280   4.641   7.545
 1095TIP3   OH224843   0.576   0.655   6.375
 1095TIP3    H124844   0.637   0.601   6.425
 1095TIP3    H224845   0.537   0.594   6.312
 1096TIP3   OH224846   6.667   1.705   1.443
 1096TIP3    H124847   6.722   1.782   1.453
 1096TIP3    H224848   6.702   1.660   1.366
 1097TIP3   OH224849   5.066   2.728   7.367
 1097TIP3    H124850   5.096   2.815   7.343
 1097TIP3    H224851   4.971   2.736   7.374
 1098TIP3   OH224852   1.886   4.471   0.899
 1098TIP3    H124853   1.885   4.383   0.935
 1098TIP3    H224854   1.927   4.461   0.813
 1099TIP3   OH224855   0.017   6.009   0.297
 1099TIP3    H124856   6.843   5.933   0.312
 1099TIP3    H224857   0.036   6.007   0.203
 1100TIP3   OH224858   3.705   5.857   7.862
 1100TIP3    H124859   3.769   5.926   7.849
 1100TIP3    H224860   3.676   5.867   7.953
 1101TIP3   OH224861   2.840   2.808   0.444
 1101TIP3    H124862   2.782   2.732   0.452
 1101TIP3    H224863   2.920   2.782   0.490
 1102TIP3   OH224864   5.200   4.689   0.916
 1102TIP3    H124865   5.108   4.699   0.890
 1102TIP3    H224866   5.245   4.662   0.837
 1103TIP3   OH224867   0.950   2.410   8.050
 1103TIP3    H124868   0.905   2.494   8.049
 1103TIP3    H224869   0.890   2.350   8.093
 1104TIP3   OH224870   6.738   4.747   6.821
 1104TIP3    H124871   6.646   4.761   6.841
 1104TIP3    H224872   6.783   4.758   6.905
 1105TIP3   OH224873   4.111   5.345   0.507
 1105TIP3    H124874   4.175   5.315   0.572
 1105TIP3    H224875   4.158   5.344   0.424
 1106TIP3   OH224876   1.553   5.348   1.602
 1106TIP3    H124877   1.532   5.384   1.516
 1106TIP3    H224878   1.479   5.291   1.623
 1107TIP3   OH224879   3.443   6.040   0.295
 1107TIP3    H124880   3.511   5.977   0.319
 1107TIP3    H224881   3.468   6.069   0.207
 1108TIP3   OH224882   0.132   5.414   7.133
 1108TIP3    H124883   0.049   5.383   7.170
 1108TIP3    H224884   0.136   5.374   7.046
 1109TIP3   OH224885   0.273   3.674   7.917
 1109TIP3    H124886   0.212   3.614   7.874
 1109TIP3    H224887   0.301   3.628   7.996
 1110TIP3   OH224888   4.378   5.610   1.490
 1110TIP3    H124889   4.466   5.649   1.489
 1110TIP3    H224890   4.394   5.516   1.501
 1111TIP3   OH224891   1.501   4.826   1.702
 1111TIP3    H124892   1.567   4.844   1.768
 1111TIP3    H224893   1.418   4.819   1.750
 1112TIP3   OH224894   4.546   0.145   8.542
 1112TIP3    H124895   4.568   0.076   8.479
 1112TIP3    H224896   4.485   0.103   8.603
 1113TIP3   OH224897   3.509   3.435   6.982
 1113TIP3    H124898   3.519   3.524   6.950
 1113TIP3    H224899   3.478   3.385   6.907
 1114TIP3   OH224900   4.522   4.194   7.095
 1114TIP3    H124901   4.500   4.106   7.126
 1114TIP3    H224902   4.615   4.188   7.073
 1115TIP3   OH224903   1.072   3.470   7.181
 1115TIP3    H124904   1.087   3.480   7.275
 1115TIP3    H224905   1.152   3.502   7.139
 1116TIP3   OH224906   4.401   3.218   8.572
 1116TIP3    H124907   4.470   3.154   8.556
 1116TIP3    H224908   4.442   3.286   8.625
 1117TIP3   OH224909   4.768   4.747   1.089
 1117TIP3    H124910   4.723   4.722   1.169
 1117TIP3    H224911   4.781   4.665   1.041
 1118TIP3   OH224912   5.217   2.330   7.919
 1118TIP3    H124913   5.182   2.404   7.869
 1118TIP3    H224914   5.238   2.368   8.005
 1119TIP3   OH224915   3.022   1.129   1.881
 1119TIP3    H124916   3.028   1.141   1.786
 1119TIP3    H224917   3.078   1.198   1.917
 1120TIP3   OH224918   1.654   4.599   1.299
 1120TIP3    H124919   1.731   4.563   1.256
 1120TIP3    H224920   1.641   4.542   1.375
 1121TIP3   OH224921   0.397   4.844   1.317
 1121TIP3    H124922   0.376   4.899   1.393
 1121TIP3    H224923   0.468   4.890   1.273
 1122TIP3   OH224924   6.270   2.795   0.072
 1122TIP3    H124925   6.203   2.833   0.016
 1122TIP3    H224926   6.302   2.869   0.124
 1123TIP3   OH224927   6.178   1.903   6.637
 1123TIP3    H124928   6.168   1.888   6.543
 1123TIP3    H224929   6.108   1.964   6.660
 1124TIP3   OH224930   0.523   4.240   8.025
 1124TIP3    H124931   0.507   4.320   8.075
 1124TIP3    H224932   0.450   4.182   8.050
 1125TIP3   OH224933   2.596   1.869   2.260
 1125TIP3    H124934   2.618   1.926   2.187
 1125TIP3    H224935   2.537   1.920   2.314
 1126TIP3   OH224936   4.078   4.252   1.969
 1126TIP3    H124937   4.090   4.162   1.938
 1126TIP3    H224938   4.144   4.262   2.038
 1127TIP3   OH224939   2.974   1.706   8.115
 1127TIP3    H124940   2.972   1.744   8.202
 1127TIP3    H224941   2.996   1.779   8.057
 1128TIP3   OH224942   3.429   4.494   7.614
 1128TIP3    H124943   3.407   4.491   7.708
 1128TIP3    H224944   3.504   4.435   7.605
 1129TIP3   OH224945   4.802   2.754   1.886
 1129TIP3    H124946   4.809   2.817   1.958
 1129TIP3    H224947   4.732   2.788   1.831
 1130TIP3   OH224948   3.321   1.238   1.727
 1130TIP3    H124949   3.297   1.219   1.818
 1130TIP3    H224950   3.414   1.219   1.723
 1131TIP3   OH224951   0.949   0.793   0.560
 1131TIP3    H124952   0.953   0.888   0.571
 1131TIP3    H224953   0.993   0.778   0.476
 1132TIP3   OH224954   4.355   6.725   8.493
 1132TIP3    H124955   4.412   6.669   8.441
 1132TIP3    H224956   4.278   6.671   8.510
 1133TIP3   OH224957   4.861   2.048   2.356
 1133TIP3    H124958   4.810   1.970   2.377
 1133TIP3    H224959   4.795   2.116   2.340
 1134TIP3   OH224960   5.612   1.678   8.464
 1134TIP3    H124961   5.529   1.725   8.455
 1134TIP3    H224962   5.668   1.738   8.514
 1135TIP3   OH224963   3.175   4.564   1.012
 1135TIP3    H124964   3.235   4.639   1.011
 1135TIP3    H224965   3.175   4.532   0.922
 1136TIP3   OH224966   6.219   6.571   1.257
 1136TIP3    H124967   6.315   6.567   1.251
 1136TIP3    H224968   6.202   6.634   1.327
 1137TIP3   OH224969   0.738   2.290   8.240
 1137TIP3    H124970   0.696   2.319   8.321
 1137TIP3    H224971   0.790   2.214   8.266
 1138TIP3   OH224972   4.723   5.353   7.826
 1138TIP3    H124973   4.710   5.446   7.808
 1138TIP3    H224974   4.742   5.349   7.920
 1139TIP3   OH224975   6.638   1.994   7.310
 1139TIP3    H124976   6.672   2.078   7.280
 1139TIP3    H224977   6.615   1.947   7.229
 1140TIP3   OH224978   5.109   0.044   6.691
 1140TIP3    H124979   5.083   0.060   6.782
 1140TIP3    H224980   5.055   0.104   6.640
 1141TIP3   OH224981   4.510   4.963   6.585
 1141TIP3    H124982   4.579   4.924   6.639
 1141TIP3    H224983   4.484   5.041   6.632
 1142TIP3   OH224984   0.900   2.217   7.678
 1142TIP3    H124985   0.871   2.255   7.595
 1142TIP3    H224986   0.879   2.124   7.670
 1143TIP3   OH224987   3.893   4.511   8.588
 1143TIP3    H124988   3.975   4.472   8.559
 1143TIP3    H224989   3.878   4.583   8.528
 1144TIP3   OH224990   3.534   2.153   8.609
 1144TIP3    H124991   3.500   2.064   8.605
 1144TIP3    H224992   3.515   2.190   8.523
 1145TIP3   OH224993   3.104   5.475   1.581
 1145TIP3    H124994   3.180   5.447   1.632
 1145TIP3    H224995   3.032   5.474   1.643
 1146TIP3   OH224996   1.171   6.843   6.938
 1146TIP3    H124997   1.140   6.795   7.015
 1146TIP3    H224998   1.266   6.827   6.936
 1147TIP3   OH224999   3.045   5.888   7.448
 1147TIP3    H125000   3.066   5.808   7.497
 1147TIP3    H225001   3.050   5.861   7.356
 1148TIP3   OH225002   2.743   2.434   6.699
 1148TIP3    H125003   2.794   2.505   6.739
 1148TIP3    H225004   2.669   2.422   6.758
 1149TIP3   OH225005   1.034   4.060   8.389
 1149TIP3    H125006   1.075   3.974   8.381
 1149TIP3    H225007   0.974   4.065   8.314
 1150TIP3   OH225008   1.148   1.886   8.216
 1150TIP3    H125009   1.145   1.841   8.131
 1150TIP3    H225010   1.127   1.977   8.196
 1151TIP3   OH225011   3.790   5.519   1.735
 1151TIP3    H125012   3.797   5.443   1.793
 1151TIP3    H225013   3.708   5.562   1.762
 1152TIP3   OH225014   5.029   1.700   6.329
 1152TIP3    H125015   5.022   1.662   6.417
 1152TIP3    H225016   5.116   1.673   6.299
 1153TIP3   OH225017   1.398   6.127   0.631
 1153TIP3    H125018   1.333   6.137   0.700
 1153TIP3    H225019   1.422   6.217   0.607
 1154TIP3   OH225020   2.642   3.748   0.642
 1154TIP3    H125021   2.637   3.731   0.736
 1154TIP3    H225022   2.733   3.732   0.620
 1155TIP3   OH225023   1.529   1.808   7.212
 1155TIP3    H125024   1.546   1.819   7.118
 1155TIP3    H225025   1.471   1.732   7.217
 1156TIP3   OH225026   5.244   3.001   7.767
 1156TIP3    H125027   5.279   2.951   7.841
 1156TIP3    H225028   5.198   3.074   7.808
 1157TIP3   OH225029   0.081   2.131   1.686
 1157TIP3    H125030   0.010   2.150   1.748
 1157TIP3    H225031   0.053   2.173   1.605
 1158TIP3   OH225032   0.939   6.372   8.316
 1158TIP3    H125033   0.969   6.384   8.406
 1158TIP3    H225034   0.863   6.429   8.308
 1159TIP3   OH225035   6.073   2.207   0.770
 1159TIP3    H125036   6.056   2.203   0.676
 1159TIP3    H225037   5.994   2.170   0.810
 1160TIP3   OH225038   3.030   5.350   8.150
 1160TIP3    H125039   2.951   5.305   8.176
 1160TIP3    H225040   3.094   5.281   8.134
 1161TIP3   OH225041   2.733   0.877   0.050
 1161TIP3    H125042   2.664   0.933   0.085
 1161TIP3    H225043   2.760   0.919   8.600
 1162TIP3   OH225044   5.199   5.020   7.318
 1162TIP3    H125045   5.247   5.101   7.299
 1162TIP3    H225046   5.254   4.950   7.281
 1163TIP3   OH225047   0.474   4.379   8.548
 1163TIP3    H125048   0.452   4.313   8.482
 1163TIP3    H225049   0.389   4.407   8.582
 1164TIP3   OH225050   3.229   1.307   0.532
 1164TIP3    H125051   3.298   1.318   0.465
 1164TIP3    H225052   3.259   1.360   0.606
 1165TIP3   OH225053   0.341   6.298   0.387
 1165TIP3    H125054   0.402   6.306   0.460
 1165TIP3    H225055   0.286   6.223   0.411
 1166TIP3   OH225056   0.135   0.657   7.677
 1166TIP3    H125057   0.063   0.717   7.655
 1166TIP3    H225058   0.212   0.713   7.685
 1167TIP3   OH225059   1.676   5.337   7.556
 1167TIP3    H125060   1.613   5.282   7.602
 1167TIP3    H225061   1.699   5.286   7.477
 1168TIP3   OH225062   3.558   4.797   0.580
 1168TIP3    H125063   3.654   4.793   0.575
 1168TIP3    H225064   3.539   4.888   0.601
 1169TIP3   OH225065   5.954   2.762   7.369
 1169TIP3    H125066   6.002   2.726   7.443
 1169TIP3    H225067   6.005   2.735   7.292
 1170TIP3   OH225068   0.249   5.526   7.569
 1170TIP3    H125069   0.332   5.479   7.565
 1170TIP3    H225070   0.225   5.541   7.478
 1171TIP3   OH225071   1.757   2.241   8.084
 1171TIP3    H125072   1.849   2.245   8.058
 1171TIP3    H225073   1.746   2.154   8.122
 1172TIP3   OH225074   6.092   1.507   1.261
 1172TIP3    H125075   6.141   1.579   1.222
 1172TIP3    H225076   6.117   1.509   1.354
 1173TIP3   OH225077   1.177   1.467   8.439
 1173TIP3    H125078   1.164   1.561   8.444
 1173TIP3    H225079   1.268   1.454   8.467
 1174TIP3   OH225080   1.541   1.795   0.461
 1174TIP3    H125081   1.453   1.827   0.480
 1174TIP3    H225082   1.571   1.850   0.388
 1175TIP3   OH225083   6.236   4.846   1.146
 1175TIP3    H125084   6.243   4.787   1.072
 1175TIP3    H225085   6.311   4.905   1.137
 1176TIP3   OH225086   1.726   0.417   2.389
 1176TIP3    H125087   1.643   0.421   2.343
 1176TIP3    H225088   1.752   0.325   2.387
 1177TIP3   OH225089   4.738   3.768   1.869
 1177TIP3    H125090   4.741   3.674   1.886
 1177TIP3    H225091   4.647   3.785   1.842
 1178TIP3   OH225092   4.980   3.987   7.289
 1178TIP3    H125093   5.029   4.066   7.310
 1178TIP3    H225094   5.044   3.930   7.245
 1179TIP3   OH225095   1.599   5.654   7.705
 1179TIP3    H125096   1.629   5.565   7.723
 1179TIP3    H225097   1.664   5.689   7.644
 1180TIP3   OH225098   6.272   1.407   0.028
 1180TIP3    H125099   6.290   1.371   0.114
 1180TIP3    H225100   6.315   1.492   0.026
 1181TIP3   OH225101   2.859   2.968   8.112
 1181TIP3    H125102   2.954   2.977   8.114
 1181TIP3    H225103   2.843   2.874   8.110
 1182TIP3   OH225104   0.171   6.749   1.807
 1182TIP3    H125105   0.091   6.726   1.854
 1182TIP3    H225106   0.233   6.680   1.829
 1183TIP3   OH225107   5.658   3.204   1.702
 1183TIP3    H125108   5.655   3.166   1.615
 1183TIP3    H225109   5.682   3.131   1.759
 1184TIP3   OH225110   3.056   0.500   6.839
 1184TIP3    H125111   3.145   0.471   6.818
 1184TIP3    H225112   3.000   0.439   6.792
 1185TIP3   OH225113   6.063   4.505   1.073
 1185TIP3    H125114   6.012   4.585   1.058
 1185TIP3    H225115   5.998   4.440   1.099
 1186TIP3   OH225116   1.880   4.739   1.002
 1186TIP3    H125117   1.890   4.643   1.003
 1186TIP3    H225118   1.867   4.763   1.093
 1187TIP3   OH225119   6.393   6.294   8.150
 1187TIP3    H125120   6.321   6.326   8.205
 1187TIP3    H225121   6.467   6.351   8.172
 1188TIP3   OH225122   4.704   3.178   5.940
 1188TIP3    H125123   4.779   3.155   5.996
 1188TIP3    H225124   4.698   3.273   5.945
 1189TIP3   OH225125   6.363   4.353   1.891
 1189TIP3    H125126   6.292   4.404   1.929
 1189TIP3    H225127   6.352   4.265   1.928
 1190TIP3   OH225128   4.643   2.626   0.059
 1190TIP3    H125129   4.735   2.607   0.073
 1190TIP3    H225130   4.601   2.600   0.141
 1191TIP3   OH225131   0.625   5.427   0.502
 1191TIP3    H125132   0.567   5.450   0.574
 1191TIP3    H225133   0.663   5.511   0.475
 1192TIP3   OH225134   6.123   5.129   7.606
 1192TIP3    H125135   6.030   5.120   7.628
 1192TIP3    H225136   6.162   5.046   7.635
 1193TIP3   OH225137   5.340   3.020   0.142
 1193TIP3    H125138   5.396   2.955   0.184
 1193TIP3    H225139   5.397   3.097   0.132
 1194TIP3   OH225140   1.145   3.382   0.395
 1194TIP3    H125141   1.233   3.373   0.432
 1194TIP3    H225142   1.129   3.476   0.396
 1195TIP3   OH225143   1.929   1.746   0.563
 1195TIP3    H125144   1.993   1.778   0.628
 1195TIP3    H225145   1.908   1.823   0.510
 1196TIP3   OH225146   3.563   4.074   0.013
 1196TIP3    H125147   3.486   4.036   8.602
 1196TIP3    H225148   3.637   4.044   8.591
 1197TIP3   OH225149   0.209   3.576   1.778
 1197TIP3    H125150   0.132   3.541   1.733
 1197TIP3    H225151   0.181   3.662   1.810
 1198TIP3   OH225152   0.298   1.961   7.497
 1198TIP3    H125153   0.224   1.910   7.464
 1198TIP3    H225154   0.355   1.896   7.540
 1199TIP3   OH225155   5.701   3.545   2.465
 1199TIP3    H125156   5.704   3.483   2.392
 1199TIP3    H225157   5.618   3.592   2.453
 1200TIP3   OH225158   1.780   5.214   6.087
 1200TIP3    H125159   1.820   5.296   6.057
 1200TIP3    H225160   1.698   5.240   6.128
 1201TIP3   OH225161   5.787   1.685   0.858
 1201TIP3    H125162   5.804   1.734   0.938
 1201TIP3    H225163   5.710   1.728   0.820
 1202TIP3   OH225164   4.603   2.621   7.749
 1202TIP3    H125165   4.656   2.632   7.828
 1202TIP3    H225166   4.515   2.647   7.775
 1203TIP3   OH225167   0.125   4.231   1.178
 1203TIP3    H125168   0.035   4.260   1.191
 1203TIP3    H225169   0.134   4.221   1.083
 1204TIP3   OH225170   2.347   1.442   0.809
 1204TIP3    H125171   2.371   1.488   0.728
 1204TIP3    H225172   2.251   1.443   0.809
 1205TIP3   OH225173   2.311   1.122   0.910
 1205TIP3    H125174   2.351   1.039   0.938
 1205TIP3    H225175   2.355   1.143   0.828
 1206TIP3   OH225176   1.469   0.124   0.985
 1206TIP3    H125177   1.393   0.181   1.001
 1206TIP3    H225178   1.463   0.102   0.892
 1207TIP3   OH225179   6.657   5.325   1.425
 1207TIP3    H125180   6.650   5.413   1.462
 1207TIP3    H225181   6.567   5.298   1.408
 1208TIP3   OH225182   5.756   4.566   1.745
 1208TIP3    H125183   5.759   4.534   1.655
 1208TIP3    H225184   5.844   4.548   1.779
 1209TIP3   OH225185   3.148   3.868   6.479
 1209TIP3    H125186   3.073   3.812   6.497
 1209TIP3    H225187   3.111   3.955   6.465
 1210TIP3   OH225188   1.823   1.998   0.041
 1210TIP3    H125189   1.796   1.906   0.035
 1210TIP3    H225190   1.913   1.994   0.073
 1211TIP3   OH225191   5.521   6.432   7.866
 1211TIP3    H125192   5.556   6.510   7.910
 1211TIP3    H225193   5.446   6.406   7.919
 1212TIP3   OH225194   3.533   1.731   1.507
 1212TIP3    H125195   3.555   1.776   1.425
 1212TIP3    H225196   3.463   1.670   1.482
 1213TIP3   OH225197   6.219   5.413   7.983
 1213TIP3    H125198   6.227   5.396   7.889
 1213TIP3    H225199   6.129   5.388   8.004
 1214TIP3   OH225200   3.986   3.101   2.095
 1214TIP3    H125201   3.936   3.182   2.107
 1214TIP3    H225202   3.929   3.045   2.043
 1215TIP3   OH225203   1.200   0.368   7.651
 1215TIP3    H125204   1.180   0.375   7.744
 1215TIP3    H225205   1.281   0.418   7.640
 1216TIP3   OH225206   0.271   3.805   1.175
 1216TIP3    H125207   0.263   3.828   1.267
 1216TIP3    H225208   0.358   3.837   1.149
 1217TIP3   OH225209   6.507   3.230   0.395
 1217TIP3    H125210   6.544   3.267   0.475
 1217TIP3    H225211   6.423   3.275   0.384
 1218TIP3   OH225212   6.706   4.356   1.728
 1218TIP3    H125213   6.690   4.285   1.790
 1218TIP3    H225214   6.731   4.311   1.647
 1219TIP3   OH225215   3.962   6.380   1.910
 1219TIP3    H125216   3.903   6.352   1.980
 1219TIP3    H225217   4.009   6.454   1.947
 1220TIP3   OH225218   2.807   2.973   0.183
 1220TIP3    H125219   2.778   2.889   0.148
 1220TIP3    H225220   2.788   2.969   0.276
 1221TIP3   OH225221   4.399   1.718   6.971
 1221TIP3    H125222   4.372   1.631   6.941
 1221TIP3    H225223   4.332   1.744   7.034
 1222TIP3   OH225224   1.641   2.394   7.894
 1222TIP3    H125225   1.683   2.326   7.945
 1222TIP3    H225226   1.555   2.405   7.934
 1223TIP3   OH225227   2.181   1.765   0.752
 1223TIP3    H125228   2.150   1.855   0.762
 1223TIP3    H225229   2.162   1.724   0.836
 1224TIP3   OH225230   6.367   4.940   7.338
 1224TIP3    H125231   6.418   5.018   7.315
 1224TIP3    H225232   6.278   4.960   7.310
 1225TIP3   OH225233   0.719   3.689   2.133
 1225TIP3    H125234   0.766   3.661   2.211
 1225TIP3    H225235   0.662   3.759   2.163
 1226TIP3   OH225236   3.284   2.175   7.780
 1226TIP3    H125237   3.357   2.133   7.826
 1226TIP3    H225238   3.275   2.125   7.699
 1227TIP3   OH225239   5.255   1.102   6.825
 1227TIP3    H125240   5.270   1.052   6.906
 1227TIP3    H225241   5.338   1.145   6.807
 1228TIP3   OH225242   6.648   3.164   0.651
 1228TIP3    H125243   6.722   3.136   0.598
 1228TIP3    H225244   6.686   3.224   0.715
 1229TIP3   OH225245   4.135   6.042   7.749
 1229TIP3    H125246   4.188   6.073   7.823
 1229TIP3    H225247   4.170   5.955   7.729
 1230TIP3   OH225248   3.344   6.788   1.897
 1230TIP3    H125249   3.412   6.721   1.905
 1230TIP3    H225250   3.333   6.820   1.986
 1231TIP3   OH225251   5.393   2.629   7.607
 1231TIP3    H125252   5.414   2.665   7.521
 1231TIP3    H225253   5.304   2.595   7.598
 1232TIP3   OH225254   6.525   5.233   0.125
 1232TIP3    H125255   6.530   5.163   0.060
 1232TIP3    H225256   6.432   5.253   0.132
 1233TIP3   OH225257   4.476   6.579   8.289
 1233TIP3    H125258   4.519   6.545   8.211
 1233TIP3    H225259   4.405   6.517   8.306
 1234TIP3   OH225260   0.459   1.338   7.363
 1234TIP3    H125261   0.484   1.360   7.453
 1234TIP3    H225262   0.456   1.423   7.318
 1235TIP3   OH225263   2.263   5.645   0.636
 1235TIP3    H125264   2.257   5.567   0.581
 1235TIP3    H225265   2.332   5.625   0.699
 1236TIP3   OH225266   3.508   6.828   6.963
 1236TIP3    H125267   3.496   0.034   6.930
 1236TIP3    H225268   3.510   6.773   6.884
 1237TIP3   OH225269   0.137   4.796   8.371
 1237TIP3    H125270   0.211   4.739   8.392
 1237TIP3    H225271   0.176   4.875   8.335
 1238TIP3   OH225272   3.756   4.307   1.098
 1238TIP3    H125273   3.803   4.316   1.181
 1238TIP3    H225274   3.733   4.397   1.073
 1239TIP3   OH225275   3.136   0.092   0.155
 1239TIP3    H125276   3.165   0.157   0.218
 1239TIP3    H225277   3.041   0.099   0.155
 1240TIP3   OH225278   2.912   1.064   8.183
 1240TIP3    H125279   2.819   1.073   8.163
 1240TIP3    H225280   2.946   1.153   8.180
 1241TIP3   OH225281   0.684   4.495   8.355
 1241TIP3    H125282   0.716   4.575   8.396
 1241TIP3    H225283   0.665   4.436   8.428
 1242TIP3   OH225284   5.051   2.083   1.650
 1242TIP3    H125285   5.098   2.000   1.654
 1242TIP3    H225286   4.971   2.069   1.700
 1243TIP3   OH225287   3.639   6.377   0.534
 1243TIP3    H125288   3.705   6.351   0.469
 1243TIP3    H225289   3.590   6.297   0.551
 1244TIP3   OH225290   0.876   3.931   8.003
 1244TIP3    H125291   0.920   4.001   8.051
 1244TIP3    H225292   0.921   3.851   8.030
 1245TIP3   OH225293   3.884   1.179   8.573
 1245TIP3    H125294   3.949   1.159   0.009
 1245TIP3    H225295   3.861   1.271   8.589
 1246TIP3   OH225296   2.409   3.112   8.379
 1246TIP3    H125297   2.326   3.137   8.420
 1246TIP3    H225298   2.385   3.089   8.289
 1247TIP3   OH225299   4.688   1.847   2.449
 1247TIP3    H125300   4.619   1.875   2.510
 1247TIP3    H225301   4.659   1.760   2.420
 1248TIP3   OH225302   0.175   4.382   8.520
 1248TIP3    H125303   0.182   4.364   8.614
 1248TIP3    H225304   0.153   4.297   8.481
 1249TIP3   OH225305   0.469   1.636   2.349
 1249TIP3    H125306   0.508   1.673   2.269
 1249TIP3    H225307   0.474   1.542   2.336
 1250TIP3   OH225308   1.055   6.350   6.671
 1250TIP3    H125309   1.021   6.426   6.624
 1250TIP3    H225310   1.092   6.294   6.603
 1251TIP3   OH225311   2.514   4.075   7.767
 1251TIP3    H125312   2.560   4.132   7.829
 1251TIP3    H225313   2.570   3.998   7.759
 1252TIP3   OH225314   3.266   3.732   0.179
 1252TIP3    H125315   3.344   3.741   0.124
 1252TIP3    H225316   3.279   3.796   0.249
 1253TIP3   OH225317   6.686   1.996   8.472
 1253TIP3    H125318   6.616   1.962   8.417
 1253TIP3    H225319   6.765   1.952   8.439
 1254TIP3   OH225320   2.939   4.594   7.557
 1254TIP3    H125321   3.023   4.635   7.534
 1254TIP3    H225322   2.942   4.508   7.515
 1255TIP3   OH225323   5.734   2.514   1.078
 1255TIP3    H125324   5.652   2.541   1.120
 1255TIP3    H225325   5.706   2.452   1.010
 1256TIP3   OH225326   4.449   0.486   7.129
 1256TIP3    H125327   4.472   0.553   7.065
 1256TIP3    H225328   4.372   0.521   7.174
 1257TIP3   OH225329   2.445   5.548   1.676
 1257TIP3    H125330   2.392   5.620   1.642
 1257TIP3    H225331   2.521   5.590   1.717
 1258TIP3   OH225332   3.888   6.121   7.280
 1258TIP3    H125333   3.794   6.112   7.300
 1258TIP3    H225334   3.890   6.142   7.187
 1259TIP3   OH225335   5.328   0.372   8.496
 1259TIP3    H125336   5.240   0.396   8.466
 1259TIP3    H225337   5.321   0.369   8.592
 1260TIP3   OH225338   3.926   1.748   8.256
 1260TIP3    H125339   3.916   1.801   8.336
 1260TIP3    H225340   3.998   1.689   8.275
 1261TIP3   OH225341   6.012   0.028   2.510
 1261TIP3    H125342   6.098   0.017   2.470
 1261TIP3    H225343   5.964   0.086   2.450
 1262TIP3   OH225344   1.674   2.626   1.054
 1262TIP3    H125345   1.767   2.605   1.053
 1262TIP3    H225346   1.631   2.542   1.070
 1263TIP3   OH225347   0.596   5.274   6.733
 1263TIP3    H125348   0.642   5.351   6.767
 1263TIP3    H225349   0.594   5.287   6.638
 1264TIP3   OH225350   0.940   5.522   6.275
 1264TIP3    H125351   0.895   5.485   6.199
 1264TIP3    H225352   1.021   5.472   6.282
 1265TIP3   OH225353   2.354   1.532   0.241
 1265TIP3    H125354   2.393   1.446   0.226
 1265TIP3    H225355   2.424   1.594   0.222
 1266TIP3   OH225356   2.895   2.239   8.204
 1266TIP3    H125357   2.847   2.265   8.125
 1266TIP3    H225358   2.986   2.231   8.176
 1267TIP3   OH225359   3.844   1.816   6.514
 1267TIP3    H125360   3.782   1.781   6.579
 1267TIP3    H225361   3.812   1.783   6.430
 1268TIP3   OH225362   3.334   0.046   7.838
 1268TIP3    H125363   3.258   0.096   7.868
 1268TIP3    H225364   3.348   6.863   7.907
 1269TIP3   OH225365   5.297   5.452   7.563
 1269TIP3    H125366   5.245   5.485   7.636
 1269TIP3    H225367   5.384   5.490   7.576
 1270TIP3   OH225368   1.974   2.937   2.274
 1270TIP3    H125369   1.887   2.903   2.297
 1270TIP3    H225370   1.970   2.949   2.179
 1271TIP3   OH225371   3.175   1.943   2.009
 1271TIP3    H125372   3.259   1.937   2.055
 1271TIP3    H225373   3.131   2.017   2.051
 1272TIP3   OH225374   4.982   3.373   0.915
 1272TIP3    H125375   5.018   3.341   0.998
 1272TIP3    H225376   5.046   3.438   0.885
 1273TIP3   OH225377   0.314   5.743   0.659
 1273TIP3    H125378   0.233   5.749   0.710
 1273TIP3    H225379   0.369   5.682   0.708
 1274TIP3   OH225380   5.637   4.620   1.246
 1274TIP3    H125381   5.608   4.634   1.336
 1274TIP3    H225382   5.595   4.537   1.220
 1275TIP3   OH225383   2.061   0.523   0.670
 1275TIP3    H125384   2.136   0.570   0.634
 1275TIP3    H225385   1.992   0.589   0.676
 1276TIP3   OH225386   4.326   5.787   7.454
 1276TIP3    H125387   4.353   5.695   7.454
 1276TIP3    H225388   4.315   5.809   7.362
 1277TIP3   OH225389   3.526   3.691   1.628
 1277TIP3    H125390   3.468   3.616   1.641
 1277TIP3    H225391   3.607   3.667   1.673
 1278TIP3   OH225392   0.033   4.821   1.336
 1278TIP3    H125393   0.113   4.819   1.284
 1278TIP3    H225394   0.009   4.729   1.347
 1279TIP3   OH225395   1.641   1.971   0.254
 1279TIP3    H125396   1.704   1.988   0.324
 1279TIP3    H225397   1.673   2.023   0.181
 1280TIP3   OH225398   4.039   5.599   0.349
 1280TIP3    H125399   3.954   5.621   0.310
 1280TIP3    H225400   4.051   5.506   0.328
 1281TIP3   OH225401   5.811   5.819   1.032
 1281TIP3    H125402   5.826   5.913   1.019
 1281TIP3    H225403   5.805   5.808   1.127
 1282TIP3   OH225404   2.603   6.385   7.003
 1282TIP3    H125405   2.610   6.404   6.909
 1282TIP3    H225406   2.529   6.325   7.010
 1283TIP3   OH225407   1.295   4.734   7.318
 1283TIP3    H125408   1.300   4.641   7.297
 1283TIP3    H225409   1.334   4.778   7.242
 1284TIP3   OH225410   5.783   3.365   6.525
 1284TIP3    H125411   5.710   3.317   6.487
 1284TIP3    H225412   5.861   3.323   6.489
 1285TIP3   OH225413   4.117   2.981   7.155
 1285TIP3    H125414   4.113   2.917   7.226
 1285TIP3    H225415   4.059   3.052   7.183
 1286TIP3   OH225416   6.714   0.462   0.172
 1286TIP3    H125417   6.653   0.535   0.173
 1286TIP3    H225418   6.727   0.441   0.079
 1287TIP3   OH225419   5.678   3.418   8.482
 1287TIP3    H125420   5.699   3.332   8.518
 1287TIP3    H225421   5.763   3.459   8.469
 1288TIP3   OH225422   2.758   2.799   7.141
 1288TIP3    H125423   2.692   2.867   7.128
 1288TIP3    H225424   2.833   2.829   7.090
 1289TIP3   OH225425   0.782   5.194   0.617
 1289TIP3    H125426   0.805   5.171   0.707
 1289TIP3    H225427   0.825   5.279   0.603
 1290TIP3   OH225428   5.751   0.657   0.283
 1290TIP3    H125429   5.789   0.745   0.281
 1290TIP3    H225430   5.694   0.657   0.360
 1291TIP3   OH225431   3.387   0.580   7.745
 1291TIP3    H125432   3.315   0.518   7.755
 1291TIP3    H225433   3.464   0.525   7.732
 1292TIP3   OH225434   1.250   1.197   0.323
 1292TIP3    H125435   1.259   1.212   0.229
 1292TIP3    H225436   1.317   1.252   0.363
 1293TIP3   OH225437   3.195   0.618   1.107
 1293TIP3    H125438   3.274   0.569   1.086
 1293TIP3    H225439   3.160   0.645   1.022
 1294TIP3   OH225440   3.534   6.563   6.798
 1294TIP3    H125441   3.559   6.624   6.729
 1294TIP3    H225442   3.473   6.502   6.755
 1295TIP3   OH225443   2.322   0.365   1.786
 1295TIP3    H125444   2.404   0.361   1.834
 1295TIP3    H225445   2.266   0.421   1.839
 1296TIP3   OH225446   5.025   5.300   7.169
 1296TIP3    H125447   4.960   5.367   7.191
 1296TIP3    H225448   5.001   5.271   7.081
 1297TIP3   OH225449   5.456   1.538   0.049
 1297TIP3    H125450   5.536   1.487   0.059
 1297TIP3    H225451   5.466   1.584   8.597
 1298TIP3   OH225452   4.216   1.672   7.523
 1298TIP3    H125453   4.241   1.759   7.491
 1298TIP3    H225454   4.140   1.688   7.579
 1299TIP3   OH225455   0.450   1.918   6.639
 1299TIP3    H125456   0.519   1.964   6.589
 1299TIP3    H225457   0.448   1.964   6.723
 1300TIP3   OH225458   4.658   6.425   2.071
 1300TIP3    H125459   4.710   6.466   2.002
 1300TIP3    H225460   4.648   6.494   2.137
 1301TIP3   OH225461   2.220   4.855   0.533
 1301TIP3    H125462   2.210   4.783   0.470
 1301TIP3    H225463   2.133   4.866   0.571
 1302TIP3   OH225464   6.513   6.119   7.590
 1302TIP3    H125465   6.433   6.158   7.556
 1302TIP3    H225466   6.485   6.035   7.627
 1303TIP3   OH225467   5.822   4.139   2.044
 1303TIP3    H125468   5.856   4.224   2.071
 1303TIP3    H225469   5.766   4.111   2.116
 1304TIP3   OH225470   5.527   3.222   0.582
 1304TIP3    H125471   5.487   3.275   0.513
 1304TIP3    H225472   5.455   3.203   0.642
 1305TIP3   OH225473   4.389   0.799   0.009
 1305TIP3    H125474   4.405   0.892   8.625
 1305TIP3    H225475   4.348   0.768   8.560
 1306TIP3   OH225476   1.549   0.163   6.360
 1306TIP3    H125477   1.520   0.074   6.381
 1306TIP3    H225478   1.532   0.172   6.266
 1307TIP3   OH225479   2.389   6.099   7.925
 1307TIP3    H125480   2.454   6.166   7.947
 1307TIP3    H225481   2.344   6.081   8.007
 1308TIP3   OH225482   2.948   3.278   0.600
 1308TIP3    H125483   2.976   3.368   0.581
 1308TIP3    H225484   3.029   3.227   0.602
 1309TIP3   OH225485   1.006   4.170   8.114
 1309TIP3    H125486   0.967   4.257   8.117
 1309TIP3    H225487   1.096   4.185   8.085
 1310TIP3   OH225488   1.846   0.613   8.318
 1310TIP3    H125489   1.759   0.643   8.291
 1310TIP3    H225490   1.847   0.519   8.298
 1311TIP3   OH225491   0.303   1.078   6.266
 1311TIP3    H125492   0.304   1.147   6.199
 1311TIP3    H225493   0.346   1.117   6.341
 1312TIP3   OH225494   0.587   2.198   1.125
 1312TIP3    H125495   0.605   2.129   1.189
 1312TIP3    H225496   0.667   2.250   1.122
 1313TIP3   OH225497   0.594   1.815   8.373
 1313TIP3    H125498   0.684   1.824   8.341
 1313TIP3    H225499   0.602   1.765   8.453
 1314TIP3   OH225500   2.418   4.892   6.482
 1314TIP3    H125501   2.385   4.837   6.411
 1314TIP3    H225502   2.347   4.954   6.498
 1315TIP3   OH225503   5.154   4.794   1.844
 1315TIP3    H125504   5.104   4.860   1.892
 1315TIP3    H225505   5.182   4.731   1.911
 1316TIP3   OH225506   0.987   0.427   8.216
 1316TIP3    H125507   0.960   0.519   8.228
 1316TIP3    H225508   0.980   0.389   8.303
 1317TIP3   OH225509   0.525   3.291   2.145
 1317TIP3    H125510   0.577   3.210   2.150
 1317TIP3    H225511   0.573   3.354   2.199
 1318TIP3   OH225512   2.803   0.234   1.611
 1318TIP3    H125513   2.791   0.144   1.579
 1318TIP3    H225514   2.777   0.230   1.703
 1319TIP3   OH225515   1.353   1.603   7.713
 1319TIP3    H125516   1.389   1.528   7.760
 1319TIP3    H225517   1.336   1.668   7.781
 1320TIP3   OH225518   2.130   3.497   8.317
 1320TIP3    H125519   2.092   3.564   8.373
 1320TIP3    H225520   2.064   3.480   8.251
 1321TIP3   OH225521   5.177   1.442   6.539
 1321TIP3    H125522   5.243   1.511   6.543
 1321TIP3    H225523   5.175   1.415   6.447
 1322TIP3   OH225524   0.005   5.066   0.016
 1322TIP3    H125525   0.097   5.068   0.042
 1322TIP3    H225526   6.847   5.136   0.067
 1323TIP3   OH225527   4.955   2.275   7.618
 1323TIP3    H125528   4.920   2.271   7.529
 1323TIP3    H225529   4.939   2.365   7.645
 1324TIP3   OH225530   6.322   0.428   0.112
 1324TIP3    H125531   6.350   0.510   0.153
 1324TIP3    H225532   6.258   0.455   0.046
 1325TIP3   OH225533   1.177   2.022   7.797
 1325TIP3    H125534   1.262   2.041   7.757
 1325TIP3    H225535   1.147   2.107   7.829
 1326TIP3   OH225536   5.002   6.552   8.344
 1326TIP3    H125537   5.021   6.466   8.308
 1326TIP3    H225538   4.928   6.584   8.291
 1327TIP3   OH225539   1.028   4.623   1.382
 1327TIP3    H125540   1.057   4.643   1.293
 1327TIP3    H225541   0.937   4.593   1.371
 1328TIP3   OH225542   6.690   2.064   8.079
 1328TIP3    H125543   6.719   2.059   7.988
 1328TIP3    H225544   6.646   1.981   8.095
 1329TIP3   OH225545   1.333   0.942   7.503
 1329TIP3    H125546   1.403   0.919   7.443
 1329TIP3    H225547   1.284   1.011   7.458
 1330TIP3   OH225548   4.154   2.555   6.774
 1330TIP3    H125549   4.250   2.558   6.780
 1330TIP3    H225550   4.134   2.464   6.753
 1331TIP3   OH225551   0.409   1.454   1.378
 1331TIP3    H125552   0.497   1.491   1.375
 1331TIP3    H225553   0.377   1.464   1.288
 1332TIP3   OH225554   5.063   4.612   1.147
 1332TIP3    H125555   4.986   4.571   1.106
 1332TIP3    H225556   5.129   4.614   1.077
 1333TIP3   OH225557   5.273   2.687   6.658
 1333TIP3    H125558   5.300   2.603   6.621
 1333TIP3    H225559   5.216   2.725   6.591
 1334TIP3   OH225560   2.059   5.609   0.883
 1334TIP3    H125561   2.100   5.570   0.806
 1334TIP3    H225562   1.990   5.666   0.847
 1335TIP3   OH225563   2.967   6.499   6.589
 1335TIP3    H125564   2.896   6.439   6.566
 1335TIP3    H225565   2.924   6.573   6.632
 1336TIP3   OH225566   0.226   2.694   0.017
 1336TIP3    H125567   0.196   2.755   8.582
 1336TIP3    H225568   0.296   2.740   0.063
 1337TIP3   OH225569   5.304   6.470   8.576
 1337TIP3    H125570   5.268   6.413   0.012
 1337TIP3    H225571   5.295   6.420   8.495
 1338TIP3   OH225572   5.610   1.626   0.355
 1338TIP3    H125573   5.655   1.543   0.368
 1338TIP3    H225574   5.680   1.691   0.348
 1339TIP3   OH225575   6.350   6.112   7.087
 1339TIP3    H125576   6.278   6.172   7.105
 1339TIP3    H225577   6.402   6.155   7.019
 1340TIP3   OH225578   4.908   2.922   8.491
 1340TIP3    H125579   4.924   3.014   8.513
 1340TIP3    H225580   4.933   2.915   8.399
 1341TIP3   OH225581   2.837   5.008   7.912
 1341TIP3    H125582   2.894   5.030   7.986
 1341TIP3    H225583   2.889   4.950   7.858
 1342TIP3   OH225584   4.421   1.048   2.399
 1342TIP3    H125585   4.478   1.089   2.335
 1342TIP3    H225586   4.408   1.114   2.466
 1343TIP3   OH225587   0.482   1.738   7.573
 1343TIP3    H125588   0.484   1.705   7.483
 1343TIP3    H225589   0.573   1.735   7.602
 1344TIP3   OH225590   5.359   4.540   7.708
 1344TIP3    H125591   5.421   4.540   7.781
 1344TIP3    H225592   5.291   4.602   7.733
 1345TIP3   OH225593   5.618   5.574   1.917
 1345TIP3    H125594   5.609   5.482   1.894
 1345TIP3    H225595   5.700   5.579   1.967
 1346TIP3   OH225596   3.961   4.551   0.921
 1346TIP3    H125597   3.877   4.584   0.954
 1346TIP3    H225598   3.939   4.475   0.868
 1347TIP3   OH225599   0.640   1.037   5.735
 1347TIP3    H125600   0.573   0.991   5.785
 1347TIP3    H225601   0.700   0.968   5.705
 1348TIP3   OH225602   4.769   2.226   0.919
 1348TIP3    H125603   4.730   2.225   1.006
 1348TIP3    H225604   4.838   2.292   0.924
 1349TIP3   OH225605   5.859   3.398   6.814
 1349TIP3    H125606   5.807   3.408   6.735
 1349TIP3    H225607   5.796   3.397   6.885
 1350TIP3   OH225608   5.955   3.707   1.264
 1350TIP3    H125609   5.871   3.714   1.309
 1350TIP3    H225610   6.018   3.748   1.324
 1351TIP3   OH225611   5.942   5.549   1.748
 1351TIP3    H125612   5.899   5.629   1.720
 1351TIP3    H225613   5.943   5.493   1.670
 1352TIP3   OH225614   2.398   1.817   7.708
 1352TIP3    H125615   2.395   1.860   7.793
 1352TIP3    H225616   2.351   1.734   7.721
 1353TIP3   OH225617   6.832   5.106   7.348
 1353TIP3    H125618   6.836   5.142   7.437
 1353TIP3    H225619   6.810   5.013   7.360
 1354TIP3   OH225620   4.259   4.272   2.189
 1354TIP3    H125621   4.253   4.179   2.212
 1354TIP3    H225622   4.276   4.316   2.273
 1355TIP3   OH225623   4.372   5.013   0.809
 1355TIP3    H125624   4.392   4.922   0.831
 1355TIP3    H225625   4.296   5.035   0.863
 1356TIP3   OH225626   1.070   6.408   0.650
 1356TIP3    H125627   1.098   6.323   0.682
 1356TIP3    H225628   0.987   6.425   0.695
 1357TIP3   OH225629   0.656   6.191   0.203
 1357TIP3    H125630   0.707   6.235   0.135
 1357TIP3    H225631   0.592   6.256   0.232
 1358TIP3   OH225632   1.766   5.303   2.060
 1358TIP3    H125633   1.705   5.376   2.048
 1358TIP3    H225634   1.830   5.335   2.124
 1359TIP3   OH225635   5.192   0.854   0.151
 1359TIP3    H125636   5.273   0.883   0.109
 1359TIP3    H225637   5.201   0.882   0.242
 1360TIP3   OH225638   3.467   0.546   0.711
 1360TIP3    H125639   3.483   0.638   0.689
 1360TIP3    H225640   3.372   0.535   0.703
 1361TIP3   OH225641   3.000   2.891   7.603
 1361TIP3    H125642   3.072   2.841   7.563
 1361TIP3    H225643   2.924   2.870   7.549
 1362TIP3   OH225644   0.229   3.274   8.050
 1362TIP3    H125645   0.275   3.349   8.013
 1362TIP3    H225646   0.158   3.313   8.102
 1363TIP3   OH225647   6.235   5.655   8.608
 1363TIP3    H125648   6.227   5.671   8.514
 1363TIP3    H225649   6.150   5.617   0.001
 1364TIP3   OH225650   4.602   5.226   0.489
 1364TIP3    H125651   4.528   5.270   0.530
 1364TIP3    H225652   4.631   5.162   0.554
 1365TIP3   OH225653   4.465   6.338   0.030
 1365TIP3    H125654   4.547   6.322   0.077
 1365TIP3    H225655   4.441   6.427   0.054
 1366TIP3   OH225656   5.630   0.690   0.563
 1366TIP3    H125657   5.595   0.752   0.499
 1366TIP3    H225658   5.593   0.717   0.646
 1367TIP3   OH225659   4.256   6.732   1.460
 1367TIP3    H125660   4.186   6.786   1.496
 1367TIP3    H225661   4.212   6.671   1.401
 1368TIP3   OH225662   1.063   5.664   6.877
 1368TIP3    H125663   0.975   5.692   6.851
 1368TIP3    H225664   1.055   5.639   6.969
 1369TIP3   OH225665   3.937   3.751   7.712
 1369TIP3    H125666   3.861   3.698   7.737
 1369TIP3    H225667   3.994   3.750   7.789
 1370TIP3   OH225668   5.459   3.516   0.607
 1370TIP3    H125669   5.410   3.598   0.605
 1370TIP3    H225670   5.417   3.462   0.540
 1371TIP3   OH225671   1.574   6.416   0.063
 1371TIP3    H125672   1.516   6.370   0.003
 1371TIP3    H225673   1.515   6.455   0.128
 1372TIP3   OH225674   1.030   0.193   0.132
 1372TIP3    H125675   0.964   0.260   0.151
 1372TIP3    H225676   1.044   0.149   0.215
 1373TIP3   OH225677   4.174   2.359   8.310
 1373TIP3    H125678   4.211   2.447   8.318
 1373TIP3    H225679   4.201   2.329   8.223
 1374TIP3   OH225680   4.233   4.232   0.565
 1374TIP3    H125681   4.226   4.280   0.483
 1374TIP3    H225682   4.317   4.259   0.602
 1375TIP3   OH225683   6.069   6.374   0.445
 1375TIP3    H125684   6.057   6.455   0.396
 1375TIP3    H225685   5.980   6.342   0.461
 1376TIP3   OH225686   0.957   0.585   1.653
 1376TIP3    H125687   0.912   0.605   1.735
 1376TIP3    H225688   1.038   0.637   1.656
 1377TIP3   OH225689   1.233   4.409   7.432
 1377TIP3    H125690   1.288   4.425   7.356
 1377TIP3    H225691   1.163   4.353   7.400
 1378TIP3   OH225692   4.064   6.716   7.210
 1378TIP3    H125693   4.032   6.708   7.120
 1378TIP3    H225694   4.089   6.808   7.218
 1379TIP3   OH225695   6.744   5.595   1.271
 1379TIP3    H125696   6.720   5.687   1.281
 1379TIP3    H225697   6.704   5.569   1.187
 1380TIP3   OH225698   5.834   5.795   8.563
 1380TIP3    H125699   5.792   5.742   8.631
 1380TIP3    H225700   5.765   5.812   8.499
 1381TIP3   OH225701   0.067   3.807   1.863
 1381TIP3    H125702   6.866   3.849   1.843
 1381TIP3    H225703   0.060   3.783   1.955
 1382TIP3   OH225704   4.991   5.955   7.700
 1382TIP3    H125705   4.975   5.901   7.778
 1382TIP3    H225706   5.084   5.976   7.704
 1383TIP3   OH225707   3.800   3.362   2.289
 1383TIP3    H125708   3.764   3.444   2.323
 1383TIP3    H225709   3.856   3.389   2.216
 1384TIP3   OH225710   0.790   5.884   1.040
 1384TIP3    H125711   0.729   5.919   0.976
 1384TIP3    H225712   0.743   5.886   1.123
 1385TIP3   OH225713   0.267   0.818   0.478
 1385TIP3    H125714   0.196   0.835   0.416
 1385TIP3    H225715   0.276   0.723   0.479
 1386TIP3   OH225716   3.007   6.667   1.311
 1386TIP3    H125717   3.007   6.674   1.216
 1386TIP3    H225718   3.078   6.606   1.331
 1387TIP3   OH225719   2.614   4.558   0.719
 1387TIP3    H125720   2.704   4.572   0.690
 1387TIP3    H225721   2.573   4.644   0.713
 1388TIP3   OH225722   5.538   1.647   1.679
 1388TIP3    H125723   5.623   1.610   1.702
 1388TIP3    H225724   5.554   1.698   1.601
 1389TIP3   OH225725   6.256   3.911   8.410
 1389TIP3    H125726   6.305   3.877   8.335
 1389TIP3    H225727   6.321   3.914   8.480
 1390TIP3   OH225728   6.080   6.183   8.296
 1390TIP3    H125729   6.022   6.259   8.297
 1390TIP3    H225730   6.062   6.139   8.213
 1391TIP3   OH225731   6.094   5.334   8.306
 1391TIP3    H125732   6.117   5.244   8.285
 1391TIP3    H225733   6.146   5.355   8.383
 1392TIP3   OH225734   4.670   5.628   7.788
 1392TIP3    H125735   4.583   5.662   7.807
 1392TIP3    H225736   4.706   5.690   7.724
 1393TIP3   OH225737   0.389   5.312   1.686
 1393TIP3    H125738   0.353   5.397   1.711
 1393TIP3    H225739   0.347   5.250   1.746
 1394TIP3   OH225740   1.750   6.472   0.578
 1394TIP3    H125741   1.751   6.434   0.490
 1394TIP3    H225742   1.657   6.479   0.599
 1395TIP3   OH225743   3.995   2.205   8.072
 1395TIP3    H125744   4.085   2.209   8.104
 1395TIP3    H225745   3.945   2.255   8.137
 1396TIP3   OH225746   1.182   2.048   1.186
 1396TIP3    H125747   1.201   1.997   1.265
 1396TIP3    H225748   1.110   2.000   1.144
 1397TIP3   OH225749   4.276   0.496   2.622
 1397TIP3    H125750   4.261   0.483   2.716
 1397TIP3    H225751   4.215   0.565   2.597
 1398TIP3   OH225752   4.990   6.588   6.603
 1398TIP3    H125753   4.894   6.597   6.608
 1398TIP3    H225754   5.009   6.594   6.509
 1399TIP3   OH225755   0.059   1.298   0.235
 1399TIP3    H125756   6.867   1.253   0.273
 1399TIP3    H225757   0.131   1.280   0.294
 1400TIP3   OH225758   6.150   6.648   1.692
 1400TIP3    H125759   6.234   6.603   1.686
 1400TIP3    H225760   6.173   6.741   1.694
 1401TIP3   OH225761   5.734   1.623   7.120
 1401TIP3    H125762   5.679   1.657   7.190
 1401TIP3    H225763   5.680   1.558   7.076
 1402TIP3   OH225764   5.232   3.752   8.548
 1402TIP3    H125765   5.206   3.842   8.567
 1402TIP3    H225766   5.323   3.758   8.521
 1403TIP3   OH225767   4.827   1.263   0.744
 1403TIP3    H125768   4.846   1.196   0.679
 1403TIP3    H225769   4.894   1.330   0.732
 1404TIP3   OH225770   3.299   0.246   0.361
 1404TIP3    H125771   3.394   0.249   0.373
 1404TIP3    H225772   3.265   0.248   0.450
 1405TIP3   OH225773   1.876   6.800   0.302
 1405TIP3    H125774   1.948   6.822   0.361
 1405TIP3    H225775   1.858   6.882   0.255
 1406TIP3   OH225776   0.749   0.037   0.970
 1406TIP3    H125777   0.678   0.101   0.972
 1406TIP3    H225778   0.807   0.062   1.042
 1407TIP3   OH225779   3.297   3.229   1.668
 1407TIP3    H125780   3.232   3.190   1.610
 1407TIP3    H225781   3.274   3.198   1.755
 1408TIP3   OH225782   5.500   0.050   8.027
 1408TIP3    H125783   5.441   0.059   8.102
 1408TIP3    H225784   5.468   0.113   7.963
 1409TIP3   OH225785   4.714   1.760   7.618
 1409TIP3    H125786   4.713   1.772   7.523
 1409TIP3    H225787   4.803   1.731   7.637
 1410TIP3   OH225788   2.876   3.525   0.049
 1410TIP3    H125789   2.910   3.606   0.012
 1410TIP3    H225790   2.880   3.462   8.608
 1411TIP3   OH225791   1.352   1.159   2.450
 1411TIP3    H125792   1.408   1.210   2.392
 1411TIP3    H225793   1.351   1.071   2.411
 1412TIP3   OH225794   6.397   3.926   2.217
 1412TIP3    H125795   6.341   3.923   2.294
 1412TIP3    H225796   6.418   3.834   2.199
 1413TIP3   OH225797   0.184   2.209   7.218
 1413TIP3    H125798   0.216   2.298   7.203
 1413TIP3    H225799   0.252   2.152   7.181
 1414TIP3   OH225800   3.340   3.191   2.261
 1414TIP3    H125801   3.286   3.115   2.240
 1414TIP3    H225802   3.385   3.165   2.342
 1415TIP3   OH225803   4.845   0.072   8.602
 1415TIP3    H125804   4.792   0.049   0.047
 1415TIP3    H225805   4.787   0.058   8.527
 1416TIP3   OH225806   3.712   0.464   0.758
 1416TIP3    H125807   3.625   0.497   0.735
 1416TIP3    H225808   3.768   0.542   0.757
 1417TIP3   OH225809   0.830   4.414   8.133
 1417TIP3    H125810   0.879   4.459   8.202
 1417TIP3    H225811   0.739   4.421   8.160
 1418TIP3   OH225812   2.273   6.246   8.420
 1418TIP3    H125813   2.182   6.265   8.444
 1418TIP3    H225814   2.307   6.197   8.495
 1419TIP3   OH225815   2.035   4.701   7.839
 1419TIP3    H125816   2.077   4.723   7.756
 1419TIP3    H225817   1.947   4.737   7.831
 1420TIP3   OH225818   2.540   4.365   0.951
 1420TIP3    H125819   2.580   4.431   0.893
 1420TIP3    H225820   2.612   4.336   1.006
 1421TIP3   OH225821   3.570   3.786   0.519
 1421TIP3    H125822   3.646   3.729   0.530
 1421TIP3    H225823   3.548   3.815   0.608
 1422TIP3   OH225824   2.560   2.442   7.257
 1422TIP3    H125825   2.606   2.458   7.339
 1422TIP3    H225826   2.469   2.467   7.275
 1423TIP3   OH225827   3.400   3.280   1.217
 1423TIP3    H125828   3.440   3.271   1.303
 1423TIP3    H225829   3.382   3.373   1.208
 1424TIP3   OH225830   3.203   6.371   0.254
 1424TIP3    H125831   3.239   6.333   0.174
 1424TIP3    H225832   3.235   6.461   0.253
 1425TIP3   OH225833   4.875   6.020   0.206
 1425TIP3    H125834   4.882   5.942   0.261
 1425TIP3    H225835   4.807   5.998   0.142
 1426TIP3   OH225836   3.544   4.533   1.936
 1426TIP3    H125837   3.452   4.560   1.936
 1426TIP3    H225838   3.574   4.550   2.025
 1427TIP3   OH225839   1.003   3.929   1.262
 1427TIP3    H125840   0.986   4.015   1.223
 1427TIP3    H225841   0.926   3.912   1.316
 1428TIP3   OH225842   3.172   5.176   6.772
 1428TIP3    H125843   3.160   5.242   6.704
 1428TIP3    H225844   3.095   5.185   6.828
 1429TIP3   OH225845   0.378   1.292   1.601
 1429TIP3    H125846   0.462   1.246   1.609
 1429TIP3    H225847   0.387   1.344   1.522
 1430TIP3   OH225848   1.297   5.191   1.588
 1430TIP3    H125849   1.342   5.179   1.504
 1430TIP3    H225850   1.244   5.112   1.598
 1431TIP3   OH225851   1.433   3.930   1.299
 1431TIP3    H125852   1.385   3.889   1.228
 1431TIP3    H225853   1.389   4.013   1.313
 1432TIP3   OH225854   0.753   5.533   8.062
 1432TIP3    H125855   0.750   5.590   8.139
 1432TIP3    H225856   0.696   5.459   8.084
 1433TIP3   OH225857   0.578   5.885   0.591
 1433TIP3    H125858   0.614   5.891   0.502
 1433TIP3    H225859   0.516   5.813   0.587
 1434TIP3   OH225860   5.684   6.109   1.444
 1434TIP3    H125861   5.676   6.136   1.535
 1434TIP3    H225862   5.701   6.191   1.396
 1435TIP3   OH225863   6.775   2.049   0.779
 1435TIP3    H125864   6.848   2.055   0.717
 1435TIP3    H225865   6.706   2.103   0.740
 1436TIP3   OH225866   2.105   3.333   7.962
 1436TIP3    H125867   2.070   3.302   8.046
 1436TIP3    H225868   2.048   3.406   7.938
 1437TIP3   OH225869   3.187   1.453   6.025
 1437TIP3    H125870   3.250   1.411   5.968
 1437TIP3    H225871   3.240   1.501   6.089
 1438TIP3   OH225872   4.416   5.728   7.855
 1438TIP3    H125873   4.378   5.782   7.786
 1438TIP3    H225874   4.341   5.678   7.889
 1439TIP3   OH225875   0.938   6.519   1.197
 1439TIP3    H125876   0.904   6.440   1.156
 1439TIP3    H225877   0.962   6.493   1.285
 1440TIP3   OH225878   1.787   5.280   2.643
 1440TIP3    H125879   1.870   5.276   2.597
 1440TIP3    H225880   1.751   5.192   2.636
 1441TIP3   OH225881   5.225   3.098   8.148
 1441TIP3    H125882   5.156   3.159   8.173
 1441TIP3    H225883   5.306   3.148   8.157
 1442TIP3   OH225884   4.161   1.338   6.278
 1442TIP3    H125885   4.254   1.352   6.260
 1442TIP3    H225886   4.154   1.349   6.373
 1443TIP3   OH225887   5.808   0.051   0.289
 1443TIP3    H125888   5.808   0.082   0.379
 1443TIP3    H225889   5.729   6.880   0.281
 1444TIP3   OH225890   2.540   6.031   6.965
 1444TIP3    H125891   2.608   6.028   6.898
 1444TIP3    H225892   2.460   6.004   6.919
 1445TIP3   OH225893   2.216   1.644   1.651
 1445TIP3    H125894   2.216   1.724   1.598
 1445TIP3    H225895   2.127   1.611   1.644
 1446TIP3   OH225896   4.905   3.651   1.118
 1446TIP3    H125897   4.934   3.620   1.204
 1446TIP3    H225898   4.928   3.744   1.117
 1447TIP3   OH225899   6.419   2.205   8.037
 1447TIP3    H125900   6.378   2.266   7.975
 1447TIP3    H225901   6.511   2.204   8.013
 1448TIP3   OH225902   4.998   5.054   0.064
 1448TIP3    H125903   5.078   5.018   0.103
 1448TIP3    H225904   5.023   5.076   8.606
 1449TIP3   OH225905   5.418   5.348   6.607
 1449TIP3    H125906   5.476   5.292   6.555
 1449TIP3    H225907   5.346   5.369   6.547
 1450TIP3   OH225908   2.456   0.777   7.096
 1450TIP3    H125909   2.503   0.749   7.017
 1450TIP3    H225910   2.390   0.838   7.064
 1451TIP3   OH225911   3.800   3.030   1.534
 1451TIP3    H125912   3.733   2.996   1.475
 1451TIP3    H225913   3.762   3.021   1.621
 1452TIP3   OH225914   2.025   3.011   8.462
 1452TIP3    H125915   2.059   3.099   8.480
 1452TIP3    H225916   1.942   3.007   8.511
 1453TIP3   OH225917   2.077   4.646   8.484
 1453TIP3    H125918   2.015   4.719   8.483
 1453TIP3    H225919   2.072   4.610   8.395
 1454TIP3   OH225920   3.010   3.670   7.945
 1454TIP3    H125921   3.004   3.759   7.913
 1454TIP3    H225922   3.074   3.628   7.887
 1455TIP3   OH225923   2.031   6.050   1.816
 1455TIP3    H125924   1.973   6.122   1.839
 1455TIP3    H225925   2.119   6.089   1.818
 1456TIP3   OH225926   4.511   4.061   6.719
 1456TIP3    H125927   4.428   4.079   6.764
 1456TIP3    H225928   4.486   4.039   6.630
 1457TIP3   OH225929   3.368   5.152   8.356
 1457TIP3    H125930   3.289   5.171   8.406
 1457TIP3    H225931   3.432   5.215   8.387
 1458TIP3   OH225932   4.935   0.389   1.139
 1458TIP3    H125933   4.966   0.311   1.093
 1458TIP3    H225934   4.891   0.441   1.072
 1459TIP3   OH225935   0.053   3.445   8.286
 1459TIP3    H125936   0.110   3.381   8.330
 1459TIP3    H225937   6.848   3.425   8.319
 1460TIP3   OH225938   3.755   3.742   8.278
 1460TIP3    H125939   3.735   3.665   8.225
 1460TIP3    H225940   3.844   3.767   8.253
 1461TIP3   OH225941   2.109   6.866   0.013
 1461TIP3    H125942   2.074   6.777   0.022
 1461TIP3    H225943   2.114   0.016   0.102
 1462TIP3   OH225944   4.724   1.753   1.000
 1462TIP3    H125945   4.771   1.681   1.042
 1462TIP3    H225946   4.702   1.812   1.072
 1463TIP3   OH225947   0.330   1.345   6.657
 1463TIP3    H125948   0.272   1.298   6.717
 1463TIP3    H225949   0.357   1.278   6.594
 1464TIP3   OH225950   2.650   1.523   8.247
 1464TIP3    H125951   2.740   1.489   8.254
 1464TIP3    H225952   2.597   1.447   8.223
 1465TIP3   OH225953   5.274   2.870   8.371
 1465TIP3    H125954   5.193   2.820   8.357
 1465TIP3    H225955   5.270   2.939   8.305
 1466TIP3   OH225956   1.611   4.149   7.476
 1466TIP3    H125957   1.689   4.104   7.508
 1466TIP3    H225958   1.538   4.103   7.517
 1467TIP3   OH225959   0.879   3.089   1.569
 1467TIP3    H125960   0.809   3.024   1.572
 1467TIP3    H225961   0.900   3.098   1.477
 1468TIP3   OH225962   2.393   3.071   7.131
 1468TIP3    H125963   2.382   3.159   7.094
 1468TIP3    H225964   2.476   3.040   7.095
 1469TIP3   OH225965   4.274   2.498   1.386
 1469TIP3    H125966   4.225   2.434   1.335
 1469TIP3    H225967   4.206   2.555   1.424
 1470TIP3   OH225968   4.751   1.503   8.153
 1470TIP3    H125969   4.735   1.537   8.065
 1470TIP3    H225970   4.730   1.576   8.211
 1471TIP3   OH225971   2.936   0.672   0.865
 1471TIP3    H125972   2.844   0.654   0.883
 1471TIP3    H225973   2.982   0.594   0.896
 1472TIP3   OH225974   6.489   4.768   1.587
 1472TIP3    H125975   6.540   4.702   1.634
 1472TIP3    H225976   6.524   4.852   1.618
 1473TIP3   OH225977   4.784   1.029   7.209
 1473TIP3    H125978   4.829   1.036   7.293
 1473TIP3    H225979   4.706   1.085   7.218
 1474TIP3   OH225980   2.047   2.005   0.679
 1474TIP3    H125981   1.995   2.059   0.738
 1474TIP3    H225982   2.086   2.068   0.618
 1475TIP3   OH225983   4.102   4.257   7.546
 1475TIP3    H125984   4.186   4.300   7.560
 1475TIP3    H225985   4.110   4.174   7.593
 1476TIP3   OH225986   5.527   0.089   7.337
 1476TIP3    H125987   5.533   0.088   7.242
 1476TIP3    H225988   5.585   0.161   7.364
 1477TIP3   OH225989   6.369   1.876   0.496
 1477TIP3    H125990   6.294   1.874   0.555
 1477TIP3    H225991   6.369   1.965   0.460
 1478TIP3   OH225992   4.209   1.168   1.721
 1478TIP3    H125993   4.292   1.131   1.693
 1478TIP3    H225994   4.215   1.261   1.699
 1479TIP3   OH225995   0.531   0.117   1.461
 1479TIP3    H125996   0.550   0.095   1.370
 1479TIP3    H225997   0.491   0.038   1.497
 1480TIP3   OH225998   3.490   0.235   2.309
 1480TIP3    H125999   3.563   0.271   2.360
 1480TIP3    H226000   3.436   0.190   2.373
 1481TIP3   OH226001   5.594   2.021   1.174
 1481TIP3    H126002   5.626   1.931   1.165
 1481TIP3    H226003   5.546   2.020   1.257
 1482TIP3   OH226004   3.356   5.492   7.955
 1482TIP3    H126005   3.418   5.441   7.904
 1482TIP3    H226006   3.307   5.543   7.890
 1483TIP3   OH226007   6.115   5.957   8.526
 1483TIP3    H126008   6.033   5.933   8.567
 1483TIP3    H226009   6.105   5.930   8.434
 1484TIP3   OH226010   5.269   6.814   7.815
 1484TIP3    H126011   5.207   6.881   7.842
 1484TIP3    H226012   5.308   6.848   7.734
 1485TIP3   OH226013   0.131   2.231   7.715
 1485TIP3    H126014   0.209   2.237   7.659
 1485TIP3    H226015   0.104   2.140   7.709
 1486TIP3   OH226016   4.479   2.870   8.060
 1486TIP3    H126017   4.568   2.852   8.092
 1486TIP3    H226018   4.488   2.951   8.010
 1487TIP3   OH226019   1.936   1.609   1.095
 1487TIP3    H126020   1.888   1.601   1.178
 1487TIP3    H226021   2.018   1.653   1.119
 1488TIP3   OH226022   0.737   5.939   5.878
 1488TIP3    H126023   0.730   5.962   5.970
 1488TIP3    H226024   0.682   6.003   5.833
 1489TIP3   OH226025   5.672   3.850   0.032
 1489TIP3    H126026   5.583   3.865   0.063
 1489TIP3    H226027   5.724   3.844   0.112
 1490TIP3   OH226028   0.433   6.573   0.606
 1490TIP3    H126029   0.460   6.606   0.692
 1490TIP3    H226030   0.388   6.491   0.625
 1491TIP3   OH226031   2.228   4.649   0.087
 1491TIP3    H126032   2.181   4.655   0.003
 1491TIP3    H226033   2.216   4.736   0.126
 1492TIP3   OH226034   2.408   5.518   0.848
 1492TIP3    H126035   2.405   5.575   0.925
 1492TIP3    H226036   2.387   5.431   0.882
 1493TIP3   OH226037   0.174   4.268   1.612
 1493TIP3    H126038   0.109   4.202   1.637
 1493TIP3    H226039   0.212   4.235   1.531
 1494TIP3   OH226040   4.370   1.071   7.953
 1494TIP3    H126041   4.287   1.048   7.913
 1494TIP3    H226042   4.428   1.091   7.880
 1495TIP3   OH226043   4.314   2.600   8.393
 1495TIP3    H126044   4.270   2.601   8.478
 1495TIP3    H226045   4.293   2.685   8.355
 1496TIP3   OH226046   6.533   1.669   0.447
 1496TIP3    H126047   6.466   1.737   0.458
 1496TIP3    H226048   6.612   1.706   0.486
 1497TIP3   OH226049   5.062   3.771   6.155
 1497TIP3    H126050   5.149   3.758   6.194
 1497TIP3    H226051   5.013   3.820   6.221
 1498TIP3   OH226052   4.179   2.400   0.290
 1498TIP3    H126053   4.274   2.395   0.301
 1498TIP3    H226054   4.151   2.309   0.285
 1499TIP3   OH226055   6.558   0.715   0.949
 1499TIP3    H126056   6.623   0.707   0.879
 1499TIP3    H226057   6.594   0.664   1.021
 1500TIP3   OH226058   3.498   0.345   7.523
 1500TIP3    H126059   3.529   0.327   7.434
 1500TIP3    H226060   3.547   0.283   7.578
 1501TIP3   OH226061   2.090   4.479   7.996
 1501TIP3    H126062   2.079   4.570   7.968
 1501TIP3    H226063   2.078   4.428   7.915
 1502TIP3   OH226064   2.438   3.992   1.980
 1502TIP3    H126065   2.353   4.020   1.947
 1502TIP3    H226066   2.477   4.072   2.016
 1503TIP3   OH226067   4.898   5.705   7.340
 1503TIP3    H126068   4.845   5.637   7.381
 1503TIP3    H226069   4.865   5.711   7.250
 1504TIP3   OH226070   4.317   6.863   2.109
 1504TIP3    H126071   4.355   6.854   2.022
 1504TIP3    H226072   4.316   6.774   2.144
 1505TIP3   OH226073   2.231   3.698   1.342
 1505TIP3    H126074   2.285   3.717   1.265
 1505TIP3    H226075   2.294   3.676   1.411
 1506TIP3   OH226076   4.955   2.701   1.466
 1506TIP3    H126077   4.953   2.757   1.388
 1506TIP3    H226078   4.984   2.616   1.434
 1507TIP3   OH226079   2.523   5.633   7.680
 1507TIP3    H126080   2.519   5.728   7.696
 1507TIP3    H226081   2.601   5.604   7.727
 1508TIP3   OH226082   3.609   4.660   0.848
 1508TIP3    H126083   3.645   4.597   0.786
 1508TIP3    H226084   3.635   4.746   0.814
 1509TIP3   OH226085   5.811   4.948   2.230
 1509TIP3    H126086   5.807   5.027   2.177
 1509TIP3    H226087   5.785   4.878   2.170
 1510TIP3   OH226088   0.067   6.647   1.407
 1510TIP3    H126089   0.114   6.577   1.453
 1510TIP3    H226090   6.873   6.663   1.461
 1511TIP3   OH226091   0.171   2.789   7.191
 1511TIP3    H126092   0.205   2.879   7.193
 1511TIP3    H226093   0.233   2.741   7.137
 1512TIP3   OH226094   0.952   4.845   7.654
 1512TIP3    H126095   1.009   4.916   7.626
 1512TIP3    H226096   1.003   4.765   7.641
 1513TIP3   OH226097   5.266   6.407   8.013
 1513TIP3    H126098   5.233   6.490   8.048
 1513TIP3    H226099   5.195   6.375   7.957
 1514TIP3   OH226100   6.870   0.610   0.379
 1514TIP3    H126101   6.809   0.588   0.449
 1514TIP3    H226102   6.831   0.571   0.300
 1515TIP3   OH226103   2.035   1.362   7.877
 1515TIP3    H126104   1.942   1.360   7.854
 1515TIP3    H226105   2.072   1.431   7.822
 1516TIP3   OH226106   1.365   6.116   8.569
 1516TIP3    H126107   1.394   6.150   0.022
 1516TIP3    H226108   1.325   6.191   8.525
 1517TIP3   OH226109   0.938   2.373   8.607
 1517TIP3    H126110   0.895   2.289   8.591
 1517TIP3    H226111   0.878   2.438   8.569
 1518TIP3   OH226112   2.771   6.095   0.930
 1518TIP3    H126113   2.818   6.074   1.010
 1518TIP3    H226114   2.710   6.022   0.918
 1519TIP3   OH226115   1.664   2.810   7.818
 1519TIP3    H126116   1.673   2.716   7.838
 1519TIP3    H226117   1.753   2.838   7.795
 1520TIP3   OH226118   6.259   1.571   2.434
 1520TIP3    H126119   6.305   1.569   2.519
 1520TIP3    H226120   6.222   1.483   2.425
 1521TIP3   OH226121   1.464   3.633   1.003
 1521TIP3    H126122   1.434   3.656   0.915
 1521TIP3    H226123   1.488   3.716   1.043
 1522TIP3   OH226124   6.269   3.066   1.205
 1522TIP3    H126125   6.190   3.018   1.232
 1522TIP3    H226126   6.246   3.103   1.120
 1523TIP3   OH226127   4.595   0.438   0.378
 1523TIP3    H126128   4.679   0.417   0.419
 1523TIP3    H226129   4.608   0.421   0.285
 1524TIP3   OH226130   0.335   5.804   2.528
 1524TIP3    H126131   0.246   5.841   2.524
 1524TIP3    H226132   0.390   5.876   2.559
 1525TIP3   OH226133   1.348   0.665   8.457
 1525TIP3    H126134   1.344   0.641   8.550
 1525TIP3    H226135   1.325   0.584   8.411
 1526TIP3   OH226136   2.252   2.145   8.591
 1526TIP3    H126137   2.324   2.160   0.020
 1526TIP3    H226138   2.260   2.053   8.567
 1527TIP3   OH226139   1.713   5.568   1.664
 1527TIP3    H126140   1.664   5.487   1.678
 1527TIP3    H226141   1.778   5.569   1.734
 1528TIP3   OH226142   4.321   6.139   7.959
 1528TIP3    H126143   4.410   6.167   7.937
 1528TIP3    H226144   4.330   6.094   8.043
 1529TIP3   OH226145   5.515   3.551   1.155
 1529TIP3    H126146   5.580   3.608   1.115
 1529TIP3    H226147   5.505   3.479   1.092
 1530TIP3   OH226148   4.507   6.079   0.973
 1530TIP3    H126149   4.423   6.036   0.956
 1530TIP3    H226150   4.559   6.012   1.017
 1531TIP3   OH226151   1.909   3.084   0.911
 1531TIP3    H126152   1.835   3.079   0.850
 1531TIP3    H226153   1.984   3.108   0.856
 1532TIP3   OH226154   0.417   5.050   7.808
 1532TIP3    H126155   0.324   5.029   7.813
 1532TIP3    H226156   0.422   5.143   7.829
 1533TIP3   OH226157   0.657   1.055   8.446
 1533TIP3    H126158   0.673   1.006   8.527
 1533TIP3    H226159   0.617   1.136   8.475
 1534TIP3   OH226160   0.909   5.039   1.630
 1534TIP3    H126161   0.833   4.990   1.597
 1534TIP3    H226162   0.881   5.070   1.716
 1535TIP3   OH226163   5.777   3.065   1.899
 1535TIP3    H126164   5.785   2.979   1.939
 1535TIP3    H226165   5.793   3.126   1.971
 1536TIP3   OH226166   6.562   2.940   6.786
 1536TIP3    H126167   6.473   2.955   6.820
 1536TIP3    H226168   6.557   2.855   6.742
 1537TIP3   OH226169   5.157   4.370   2.047
 1537TIP3    H126170   5.078   4.336   2.087
 1537TIP3    H226171   5.226   4.352   2.110
 1538TIP3   OH226172   1.797   2.951   6.989
 1538TIP3    H126173   1.853   2.944   6.912
 1538TIP3    H226174   1.726   2.889   6.973
 1539TIP3   OH226175   2.516   4.837   0.084
 1539TIP3    H126176   2.485   4.756   0.123
 1539TIP3    H226177   2.455   4.854   0.012
 1540TIP3   OH226178   2.479   3.031   6.570
 1540TIP3    H126179   2.431   3.047   6.488
 1540TIP3    H226180   2.540   2.961   6.548
 1541TIP3   OH226181   5.249   2.174   0.403
 1541TIP3    H126182   5.189   2.137   0.468
 1541TIP3    H226183   5.192   2.198   0.330
 1542TIP3   OH226184   0.001   6.438   0.524
 1542TIP3    H126185   0.022   6.397   0.440
 1542TIP3    H226186   0.035   6.527   0.517
 1543TIP3   OH226187   4.939   3.116   0.179
 1543TIP3    H126188   5.002   3.122   0.251
 1543TIP3    H226189   4.887   3.038   0.200
 1544TIP3   OH226190   5.248   3.404   7.874
 1544TIP3    H126191   5.259   3.443   7.787
 1544TIP3    H226192   5.329   3.353   7.887
 1545TIP3   OH226193   0.658   5.712   6.177
 1545TIP3    H126194   0.702   5.714   6.262
 1545TIP3    H226195   0.639   5.803   6.157
 1546TIP3   OH226196   4.560   0.313   7.890
 1546TIP3    H126197   4.524   0.271   7.968
 1546TIP3    H226198   4.578   0.403   7.917
 1547TIP3   OH226199   3.589   3.050   0.683
 1547TIP3    H126200   3.515   3.000   0.647
 1547TIP3    H226201   3.616   3.000   0.761
 1548TIP3   OH226202   2.257   0.256   1.218
 1548TIP3    H126203   2.225   0.197   1.150
 1548TIP3    H226204   2.179   0.281   1.267
 1549TIP3   OH226205   0.129   0.092   8.326
 1549TIP3    H126206   0.204   0.040   8.297
 1549TIP3    H226207   0.053   0.043   8.297
 1550TIP3   OH226208   1.435   6.632   8.483
 1550TIP3    H126209   1.498   6.664   8.548
 1550TIP3    H226210   1.484   6.632   8.401
 1551TIP3   OH226211   0.595   4.144   6.496
 1551TIP3    H126212   0.683   4.177   6.477
 1551TIP3    H226213   0.584   4.071   6.435
 1552TIP3   OH226214   3.107   0.401   0.568
 1552TIP3    H126215   3.151   0.420   0.650
 1552TIP3    H226216   3.014   0.417   0.586
 1553TIP3   OH226217   0.818   6.720   1.664
 1553TIP3    H126218   0.763   6.798   1.662
 1553TIP3    H226219   0.827   6.700   1.757
 1554TIP3   OH226220   3.548   5.852   8.097
 1554TIP3    H126221   3.514   5.772   8.139
 1554TIP3    H226222   3.472   5.889   8.052
 1555TIP3   OH226223   1.736   2.227   0.937
 1555TIP3    H126224   1.701   2.315   0.955
 1555TIP3    H226225   1.683   2.169   0.992
 1556TIP3   OH226226   2.998   6.533   8.220
 1556TIP3    H126227   2.906   6.536   8.193
 1556TIP3    H226228   3.004   6.595   8.292
 1557TIP3   OH226229   5.990   4.861   1.694
 1557TIP3    H126230   6.009   4.867   1.788
 1557TIP3    H226231   6.071   4.828   1.655
 1558TIP3   OH226232   0.769   6.361   0.484
 1558TIP3    H126233   0.691   6.381   0.433
 1558TIP3    H226234   0.813   6.292   0.435
 1559TIP3   OH226235   3.159   4.704   1.703
 1559TIP3    H126236   3.165   4.620   1.747
 1559TIP3    H226237   3.223   4.760   1.747
 1560TIP3   OH226238   3.475   0.636   2.274
 1560TIP3    H126239   3.402   0.592   2.317
 1560TIP3    H226240   3.437   0.716   2.238
 1561TIP3   OH226241   6.822   6.199   0.666
 1561TIP3    H126242   6.759   6.220   0.736
 1561TIP3    H226243   6.833   6.282   0.619
 1562TIP3   OH226244   1.326   0.417   8.073
 1562TIP3    H126245   1.374   0.337   8.096
 1562TIP3    H226246   1.379   0.458   8.006
 1563TIP3   OH226247   4.839   2.357   8.615
 1563TIP3    H126248   4.897   2.414   0.033
 1563TIP3    H226249   4.755   2.361   0.030
 1564TIP3   OH226250   1.857   2.671   7.241
 1564TIP3    H126251   1.907   2.617   7.179
 1564TIP3    H226252   1.766   2.651   7.220
 1565TIP3   OH226253   6.383   6.301   2.155
 1565TIP3    H126254   6.475   6.279   2.168
 1565TIP3    H226255   6.349   6.316   2.244
 1566TIP3   OH226256   6.355   0.337   1.742
 1566TIP3    H126257   6.334   0.372   1.656
 1566TIP3    H226258   6.271   0.328   1.786
 1567TIP3   OH226259   6.201   4.659   7.508
 1567TIP3    H126260   6.293   4.662   7.533
 1567TIP3    H226261   6.164   4.589   7.563
 1568TIP3   OH226262   3.621   5.020   0.888
 1568TIP3    H126263   3.533   5.034   0.851
 1568TIP3    H226264   3.674   4.993   0.813
 1569TIP3   OH226265   6.376   2.262   7.743
 1569TIP3    H126266   6.455   2.258   7.688
 1569TIP3    H226267   6.333   2.178   7.728
 1570TIP3   OH226268   3.138   5.027   1.269
 1570TIP3    H126269   3.105   5.064   1.351
 1570TIP3    H226270   3.068   4.968   1.240
 1571TIP3   OH226271   5.383   6.643   0.453
 1571TIP3    H126272   5.440   6.567   0.468
 1571TIP3    H226273   5.365   6.641   0.359
 1572TIP3   OH226274   2.287   2.515   6.914
 1572TIP3    H126275   2.249   2.473   6.991
 1572TIP3    H226276   2.372   2.473   6.903
 1573TIP3   OH226277   4.978   3.294   2.652
 1573TIP3    H126278   5.000   3.355   2.723
 1573TIP3    H226279   5.055   3.236   2.647
 1574TIP3   OH226280   0.834   1.711   6.375
 1574TIP3    H126281   0.784   1.776   6.326
 1574TIP3    H226282   0.814   1.628   6.332
 1575TIP3   OH226283   1.194   2.347   6.539
 1575TIP3    H126284   1.125   2.297   6.583
 1575TIP3    H226285   1.275   2.311   6.575
 1576TIP3   OH226286   5.973   1.082   6.330
 1576TIP3    H126287   5.960   0.988   6.343
 1576TIP3    H226288   5.979   1.119   6.418
 1577TIP3   OH226289   4.913   2.850   1.234
 1577TIP3    H126290   4.826   2.891   1.228
 1577TIP3    H226291   4.974   2.924   1.226
 1578TIP3   OH226292   5.166   1.007   6.200
 1578TIP3    H126293   5.196   1.043   6.283
 1578TIP3    H226294   5.106   0.937   6.224
 1579TIP3   OH226295   0.551   0.774   7.437
 1579TIP3    H126296   0.479   0.764   7.499
 1579TIP3    H226297   0.508   0.777   7.351
 1580TIP3   OH226298   3.150   5.742   7.889
 1580TIP3    H126299   3.137   5.836   7.889
 1580TIP3    H226300   3.157   5.718   7.797
 1581TIP3   OH226301   0.238   0.984   6.890
 1581TIP3    H126302   0.269   0.967   6.979
 1581TIP3    H226303   0.179   1.058   6.899
 1582TIP3   OH226304   6.539   1.373   7.465
 1582TIP3    H126305   6.446   1.368   7.486
 1582TIP3    H226306   6.582   1.386   7.550
 1583TIP3   OH226307   5.153   0.176   7.891
 1583TIP3    H126308   5.113   0.198   7.807
 1583TIP3    H226309   5.240   0.216   7.887
 1584TIP3   OH226310   0.997   0.931   7.911
 1584TIP3    H126311   0.935   0.860   7.892
 1584TIP3    H226312   1.001   0.980   7.829
 1585TIP3   OH226313   5.957   1.549   7.271
 1585TIP3    H126314   5.877   1.572   7.225
 1585TIP3    H226315   5.989   1.471   7.226
 1586TIP3   OH226316   0.765   1.717   7.645
 1586TIP3    H126317   0.810   1.696   7.563
 1586TIP3    H226318   0.782   1.641   7.702
 1587TIP3   OH226319   0.436   2.070   8.460
 1587TIP3    H126320   0.475   1.987   8.489
 1587TIP3    H226321   0.349   2.071   8.498
 1588TIP3   OH226322   4.927   1.377   8.337
 1588TIP3    H126323   5.019   1.360   8.317
 1588TIP3    H226324   4.894   1.423   8.259
 1589TIP3   OH226325   1.218   4.688   1.185
 1589TIP3    H126326   1.189   4.599   1.166
 1589TIP3    H226327   1.284   4.708   1.118
 1590TIP3   OH226328   2.617   0.165   8.584
 1590TIP3    H126329   2.667   0.145   8.505
 1590TIP3    H226330   2.562   0.239   8.560
 1591TIP3   OH226331   1.736   3.283   7.905
 1591TIP3    H126332   1.708   3.223   7.974
 1591TIP3    H226333   1.771   3.226   7.837
 1592TIP3   OH226334   6.320   1.874   8.588
 1592TIP3    H126335   6.293   1.864   8.496
 1592TIP3    H226336   6.346   1.785   8.614
 1593TIP3   OH226337   5.616   6.609   1.207
 1593TIP3    H126338   5.634   6.637   1.297
 1593TIP3    H226339   5.622   6.689   1.155
 1594TIP3   OH226340   3.954   6.098   2.725
 1594TIP3    H126341   4.010   6.175   2.725
 1594TIP3    H226342   3.912   6.098   2.639
 1595TIP3   OH226343   3.121   4.292   0.613
 1595TIP3    H126344   3.104   4.337   0.530
 1595TIP3    H226345   3.214   4.269   0.609
 1596TIP3   OH226346   4.665   1.703   1.736
 1596TIP3    H126347   4.719   1.664   1.805
 1596TIP3    H226348   4.577   1.709   1.774
 1597TIP3   OH226349   4.068   0.892   2.649
 1597TIP3    H126350   3.994   0.925   2.701
 1597TIP3    H226351   4.131   0.964   2.649
 1598TIP3   OH226352   2.713   2.518   1.384
 1598TIP3    H126353   2.745   2.550   1.468
 1598TIP3    H226354   2.643   2.580   1.360
 1599TIP3   OH226355   5.639   1.384   7.006
 1599TIP3    H126356   5.561   1.336   7.034
 1599TIP3    H226357   5.647   1.365   6.913
 1600TIP3   OH226358   1.434   3.950   7.608
 1600TIP3    H126359   1.486   3.873   7.630
 1600TIP3    H226360   1.369   3.918   7.545
 1601TIP3   OH226361   4.584   5.335   8.360
 1601TIP3    H126362   4.556   5.411   8.309
 1601TIP3    H226363   4.562   5.358   8.450
 1602TIP3   OH226364   1.079   5.372   1.805
 1602TIP3    H126365   1.108   5.311   1.874
 1602TIP3    H226366   0.991   5.340   1.782
 1603TIP3   OH226367   4.441   3.911   7.166
 1603TIP3    H126368   4.372   3.977   7.162
 1603TIP3    H226369   4.428   3.858   7.088
 1604TIP3   OH226370   2.510   0.537   0.676
 1604TIP3    H126371   2.504   0.445   0.651
 1604TIP3    H226372   2.427   0.556   0.719
 1605TIP3   OH226373   6.858   5.319   1.654
 1605TIP3    H126374   6.812   5.334   1.572
 1605TIP3    H226375   6.819   5.381   1.716
 1606TIP3   OH226376   0.806   5.000   7.831
 1606TIP3    H126377   0.872   4.945   7.788
 1606TIP3    H226378   0.761   4.941   7.891
 1607TIP3   OH226379   3.154   5.259   8.495
 1607TIP3    H126380   3.199   5.286   8.575
 1607TIP3    H226381   3.095   5.189   8.523
 1608TIP3   OH226382   3.858   3.601   6.854
 1608TIP3    H126383   3.842   3.674   6.794
 1608TIP3    H226384   3.905   3.536   6.801
 1609TIP3   OH226385   2.948   2.982   2.085
 1609TIP3    H126386   2.875   2.984   2.146
 1609TIP3    H226387   2.970   3.075   2.071
 1610TIP3   OH226388   5.302   5.371   0.787
 1610TIP3    H126389   5.246   5.300   0.757
 1610TIP3    H226390   5.254   5.451   0.765
 1611TIP3   OH226391   1.257   3.269   8.011
 1611TIP3    H126392   1.237   3.185   8.052
 1611TIP3    H226393   1.335   3.252   7.959
 1612TIP3   OH226394   0.634   3.782   0.592
 1612TIP3    H126395   0.687   3.851   0.552
 1612TIP3    H226396   0.572   3.830   0.648
 1613TIP3   OH226397   4.403   3.323   6.979
 1613TIP3    H126398   4.415   3.296   6.888
 1613TIP3    H226399   4.465   3.394   6.992
 1614TIP3   OH226400   4.122   3.781   7.890
 1614TIP3    H126401   4.187   3.846   7.915
 1614TIP3    H226402   4.154   3.699   7.927
 1615TIP3   OH226403   1.558   6.274   0.918
 1615TIP3    H126404   1.492   6.320   0.866
 1615TIP3    H226405   1.507   6.219   0.977
 1616TIP3   OH226406   0.839   5.771   6.808
 1616TIP3    H126407   0.893   5.830   6.755
 1616TIP3    H226408   0.750   5.806   6.798
 1617TIP3   OH226409   0.501   3.831   0.818
 1617TIP3    H126410   0.504   3.851   0.912
 1617TIP3    H226411   0.410   3.808   0.802
 1618TIP3   OH226412   1.083   1.390   0.425
 1618TIP3    H126413   1.044   1.439   0.353
 1618TIP3    H226414   1.095   1.301   0.392
 1619TIP3   OH226415   6.222   4.293   7.193
 1619TIP3    H126416   6.153   4.252   7.141
 1619TIP3    H226417   6.177   4.361   7.244
 1620TIP3   OH226418   4.287   1.163   0.436
 1620TIP3    H126419   4.323   1.109   0.365
 1620TIP3    H226420   4.287   1.251   0.400
 1621TIP3   OH226421   0.296   3.359   0.105
 1621TIP3    H126422   0.365   3.293   0.102
 1621TIP3    H226423   0.343   3.442   0.119
 1622TIP3   OH226424   0.182   5.048   2.564
 1622TIP3    H126425   0.272   5.031   2.540
 1622TIP3    H226426   0.172   5.143   2.553
 1623TIP3   OH226427   4.010   6.270   8.209
 1623TIP3    H126428   4.034   6.348   8.260
 1623TIP3    H226429   3.915   6.267   8.215
 1624TIP3   OH226430   4.451   3.761   7.992
 1624TIP3    H126431   4.397   3.684   7.977
 1624TIP3    H226432   4.523   3.729   8.047
 1625TIP3   OH226433   0.089   0.281   0.291
 1625TIP3    H126434   0.040   0.328   0.359
 1625TIP3    H226435   0.092   0.342   0.218
 1626TIP3   OH226436   4.087   0.086   1.971
 1626TIP3    H126437   4.114   0.057   1.884
 1626TIP3    H226438   4.158   0.058   2.029
 1627TIP3   OH226439   2.568   0.588   7.561
 1627TIP3    H126440   2.646   0.558   7.514
 1627TIP3    H226441   2.500   0.526   7.536
 1628TIP3   OH226442   4.397   4.754   2.283
 1628TIP3    H126443   4.337   4.714   2.220
 1628TIP3    H226444   4.434   4.680   2.331
 1629TIP3   OH226445   5.392   5.656   7.930
 1629TIP3    H126446   5.481   5.690   7.941
 1629TIP3    H226447   5.402   5.561   7.941
 1630TIP3   OH226448   3.662   0.164   8.359
 1630TIP3    H126449   3.730   0.120   8.309
 1630TIP3    H226450   3.663   0.121   8.445
 1631TIP3   OH226451   0.815   2.904   7.794
 1631TIP3    H126452   0.884   2.958   7.832
 1631TIP3    H226453   0.815   2.926   7.701
 1632TIP3   OH226454   2.978   3.234   2.005
 1632TIP3    H126455   3.068   3.247   1.976
 1632TIP3    H226456   2.926   3.234   1.925
 1633TIP3   OH226457   1.723   1.579   0.496
 1633TIP3    H126458   1.655   1.646   0.487
 1633TIP3    H226459   1.798   1.626   0.532
 1634TIP3   OH226460   2.294   3.938   7.192
 1634TIP3    H126461   2.346   3.940   7.111
 1634TIP3    H226462   2.360   3.945   7.262
 1635TIP3   OH226463   4.283   2.572   7.535
 1635TIP3    H126464   4.262   2.557   7.627
 1635TIP3    H226465   4.331   2.493   7.508
 1636TIP3   OH226466   5.277   0.871   0.725
 1636TIP3    H126467   5.324   0.867   0.808
 1636TIP3    H226468   5.285   0.784   0.688
 1637TIP3   OH226469   4.974   6.485   0.435
 1637TIP3    H126470   5.004   6.576   0.429
 1637TIP3    H226471   4.989   6.461   0.527
 1638TIP3   OH226472   3.947   5.114   0.229
 1638TIP3    H126473   3.964   5.090   0.138
 1638TIP3    H226474   3.992   5.046   0.280
 1639TIP3   OH226475   3.011   3.939   0.884
 1639TIP3    H126476   3.069   3.955   0.809
 1639TIP3    H226477   3.036   3.852   0.915
 1640TIP3   OH226478   4.930   0.189   6.576
 1640TIP3    H126479   4.946   0.273   6.533
 1640TIP3    H226480   4.883   0.137   6.511
 1641TIP3   OH226481   4.580   6.787   6.991
 1641TIP3    H126482   4.657   6.827   7.033
 1641TIP3    H226483   4.581   6.696   7.022
 1642TIP3   OH226484   6.550   5.769   8.147
 1642TIP3    H126485   6.535   5.675   8.139
 1642TIP3    H226486   6.471   5.802   8.189
 1643TIP3   OH226487   4.275   6.589   0.359
 1643TIP3    H126488   4.227   6.506   0.359
 1643TIP3    H226489   4.250   6.631   0.277
 1644TIP3   OH226490   2.447   1.499   1.614
 1644TIP3    H126491   2.441   1.594   1.626
 1644TIP3    H226492   2.362   1.474   1.577
 1645TIP3   OH226493   4.174   6.263   0.059
 1645TIP3    H126494   4.183   6.345   0.107
 1645TIP3    H226495   4.263   6.245   0.027
 1646TIP3   OH226496   3.722   3.057   0.428
 1646TIP3    H126497   3.663   3.080   0.500
 1646TIP3    H226498   3.799   3.021   0.472
 1647TIP3   OH226499   0.306   0.103   0.324
 1647TIP3    H126500   0.217   0.136   0.327
 1647TIP3    H226501   0.310   0.053   0.242
 1648TIP3   OH226502   2.673   6.349   0.911
 1648TIP3    H126503   2.587   6.312   0.890
 1648TIP3    H226504   2.725   6.274   0.940
 1649TIP3   OH226505   4.692   0.120   1.143
 1649TIP3    H126506   4.769   0.089   1.190
 1649TIP3    H226507   4.725   0.147   1.057
 1650TIP3   OH226508   6.361   3.667   1.638
 1650TIP3    H126509   6.267   3.677   1.621
 1650TIP3    H226510   6.367   3.660   1.733
 1651TIP3   OH226511   1.087   0.190   0.421
 1651TIP3    H126512   1.105   0.189   0.515
 1651TIP3    H226513   0.999   0.152   0.413
 1652TIP3   OH226514   0.583   6.670   0.085
 1652TIP3    H126515   0.511   6.729   0.108
 1652TIP3    H226516   0.610   6.699   8.629
 1653TIP3   OH226517   6.209   2.686   6.932
 1653TIP3    H126518   6.293   2.643   6.950
 1653TIP3    H226519   6.233   2.769   6.890
 1654TIP3   OH226520   0.748   1.292   7.676
 1654TIP3    H126521   0.667   1.337   7.655
 1654TIP3    H226522   0.721   1.204   7.702
 1655TIP3   OH226523   2.592   6.865   1.761
 1655TIP3    H126524   2.684   6.841   1.767
 1655TIP3    H226525   2.545   6.790   1.798
 1656TIP3   OH226526   1.556   1.414   7.055
 1656TIP3    H126527   1.506   1.415   6.974
 1656TIP3    H226528   1.515   1.346   7.108
 1657TIP3   OH226529   2.971   4.284   0.896
 1657TIP3    H126530   2.906   4.214   0.890
 1657TIP3    H226531   3.016   4.283   0.812
 1658TIP3   OH226532   4.957   6.312   2.237
 1658TIP3    H126533   4.874   6.282   2.273
 1658TIP3    H226534   4.985   6.382   2.296
 1659TIP3   OH226535   4.801   5.109   7.749
 1659TIP3    H126536   4.777   5.192   7.790
 1659TIP3    H226537   4.802   5.128   7.655
 1660TIP3   OH226538   4.860   0.962   7.447
 1660TIP3    H126539   4.918   0.885   7.450
 1660TIP3    H226540   4.820   0.964   7.534
 1661TIP3   OH226541   4.248   2.128   0.374
 1661TIP3    H126542   4.340   2.103   0.385
 1661TIP3    H226543   4.200   2.073   0.436
 1662TIP3   OH226544   5.182   5.373   1.633
 1662TIP3    H126545   5.105   5.320   1.655
 1662TIP3    H226546   5.234   5.375   1.713
 1663TIP3   OH226547   2.298   3.167   1.914
 1663TIP3    H126548   2.323   3.254   1.883
 1663TIP3    H226549   2.312   3.170   2.008
 1664TIP3   OH226550   4.149   0.493   8.108
 1664TIP3    H126551   4.057   0.467   8.112
 1664TIP3    H226552   4.195   0.412   8.086
 1665TIP3   OH226553   4.800   3.603   0.194
 1665TIP3    H126554   4.716   3.647   0.210
 1665TIP3    H226555   4.850   3.666   0.142
 1666TIP3   OH226556   3.012   3.836   1.910
 1666TIP3    H126557   2.946   3.767   1.917
 1666TIP3    H226558   3.016   3.873   1.998
 1667TIP3   OH226559   1.898   3.186   6.698
 1667TIP3    H126560   1.988   3.175   6.731
 1667TIP3    H226561   1.893   3.127   6.623
 1668TIP3   OH226562   2.428   0.613   8.232
 1668TIP3    H126563   2.471   0.687   8.190
 1668TIP3    H226564   2.334   0.630   8.222
 1669TIP3   OH226565   5.226   2.932   6.409
 1669TIP3    H126566   5.162   2.861   6.421
 1669TIP3    H226567   5.181   3.009   6.445
 1670TIP3   OH226568   4.567   3.120   2.335
 1670TIP3    H126569   4.647   3.136   2.386
 1670TIP3    H226570   4.583   3.036   2.293
 1671TIP3   OH226571   3.922   3.429   1.245
 1671TIP3    H126572   3.915   3.365   1.316
 1671TIP3    H226573   3.845   3.413   1.191
 1672TIP3   OH226574   2.982   6.458   0.639
 1672TIP3    H126575   2.912   6.429   0.580
 1672TIP3    H226576   2.937   6.489   0.717
 1673TIP3   OH226577   6.017   6.796   0.160
 1673TIP3    H126578   5.948   6.854   0.192
 1673TIP3    H226579   6.062   6.846   0.091
 1674TIP3   OH226580   6.702   3.586   1.229
 1674TIP3    H126581   6.658   3.532   1.163
 1674TIP3    H226582   6.761   3.642   1.180
 1675TIP3   OH226583   2.955   3.955   7.903
 1675TIP3    H126584   2.914   3.963   7.817
 1675TIP3    H226585   2.890   3.992   7.963
 1676TIP3   OH226586   6.780   4.580   7.531
 1676TIP3    H126587   6.744   4.547   7.449
 1676TIP3    H226588   6.872   4.555   7.529
 1677TIP3   OH226589   4.123   0.688   7.930
 1677TIP3    H126590   4.149   0.640   8.008
 1677TIP3    H226591   4.173   0.648   7.859
 1678TIP3   OH226592   0.924   6.747   6.316
 1678TIP3    H126593   1.018   6.761   6.329
 1678TIP3    H226594   0.902   6.800   6.240
 1679TIP3   OH226595   3.395   3.546   1.256
 1679TIP3    H126596   3.398   3.623   1.199
 1679TIP3    H226597   3.474   3.555   1.311
 1680TIP3   OH226598   4.254   2.733   0.776
 1680TIP3    H126599   4.285   2.725   0.866
 1680TIP3    H226600   4.325   2.698   0.722
 1681TIP3   OH226601   1.476   1.418   7.892
 1681TIP3    H126602   1.528   1.453   7.964
 1681TIP3    H226603   1.447   1.332   7.923
 1682TIP3   OH226604   3.351   4.860   1.305
 1682TIP3    H126605   3.277   4.920   1.305
 1682TIP3    H226606   3.312   4.773   1.293
 1683TIP3   OH226607   4.219   6.619   1.764
 1683TIP3    H126608   4.312   6.625   1.788
 1683TIP3    H226609   4.215   6.653   1.675
 1684TIP3   OH226610   5.898   2.544   8.562
 1684TIP3    H126611   5.966   2.503   8.615
 1684TIP3    H226612   5.890   2.487   8.485
 1685TIP3   OH226613   1.947   2.141   1.142
 1685TIP3    H126614   1.894   2.199   1.197
 1685TIP3    H226615   1.924   2.053   1.172
 1686TIP3   OH226616   2.239   6.772   8.340
 1686TIP3    H126617   2.190   6.817   8.272
 1686TIP3    H226618   2.284   6.842   8.387
 1687TIP3   OH226619   5.317   3.946   2.553
 1687TIP3    H126620   5.357   3.891   2.621
 1687TIP3    H226621   5.223   3.939   2.570
 1688TIP3   OH226622   1.064   4.862   7.287
 1688TIP3    H126623   1.059   4.920   7.210
 1688TIP3    H226624   1.157   4.839   7.293
 1689TIP3   OH226625   4.180   4.783   1.479
 1689TIP3    H126626   4.173   4.751   1.389
 1689TIP3    H226627   4.178   4.703   1.533
 1690TIP3   OH226628   1.276   0.490   6.858
 1690TIP3    H126629   1.235   0.501   6.943
 1690TIP3    H226630   1.282   0.396   6.846
 1691TIP3   OH226631   4.393   3.545   1.809
 1691TIP3    H126632   4.420   3.458   1.840
 1691TIP3    H226633   4.377   3.595   1.889
 1692TIP3   OH226634   3.938   1.115   0.830
 1692TIP3    H126635   3.879   1.164   0.887
 1692TIP3    H226636   3.880   1.058   0.779
 1693TIP3   OH226637   6.436   5.557   2.464
 1693TIP3    H126638   6.366   5.614   2.497
 1693TIP3    H226639   6.390   5.489   2.416
 1694TIP3   OH226640   0.129   3.436   7.233
 1694TIP3    H126641   0.080   3.369   7.185
 1694TIP3    H226642   0.155   3.500   7.167
 1695TIP3   OH226643   1.311   6.235   0.212
 1695TIP3    H126644   1.337   6.317   0.254
 1695TIP3    H226645   1.303   6.172   0.283
 1696TIP3   OH226646   4.845   2.468   7.182
 1696TIP3    H126647   4.895   2.434   7.108
 1696TIP3    H226648   4.825   2.559   7.159
 1697TIP3   OH226649   3.331   5.271   0.100
 1697TIP3    H126650   3.276   5.213   0.152
 1697TIP3    H226651   3.415   5.225   0.093
 1698TIP3   OH226652   1.605   6.679   8.260
 1698TIP3    H126653   1.662   6.616   8.216
 1698TIP3    H226654   1.650   6.763   8.250
 1699TIP3   OH226655   2.283   0.656   0.520
 1699TIP3    H126656   2.289   0.648   0.425
 1699TIP3    H226657   2.340   0.730   0.542
 1700TIP3   OH226658   3.672   0.388   7.302
 1700TIP3    H126659   3.690   0.311   7.249
 1700TIP3    H226660   3.753   0.439   7.299
 1701TIP3   OH226661   6.043   4.690   2.699
 1701TIP3    H126662   6.122   4.647   2.666
 1701TIP3    H226663   5.974   4.661   2.640
 1702TIP3   OH226664   6.790   3.738   8.057
 1702TIP3    H126665   6.736   3.668   8.093
 1702TIP3    H226666   6.738   3.773   7.984
 1703TIP3   OH226667   6.258   6.158   0.405
 1703TIP3    H126668   6.177   6.209   0.407
 1703TIP3    H226669   6.298   6.179   0.321
 1704TIP3   OH226670   6.087   0.742   1.232
 1704TIP3    H126671   6.026   0.815   1.221
 1704TIP3    H226672   6.045   0.685   1.297
 1705TIP3   OH226673   5.754   1.841   1.315
 1705TIP3    H126674   5.801   1.922   1.296
 1705TIP3    H226675   5.785   1.815   1.402
 1706TIP3   OH226676   1.941   3.667   1.359
 1706TIP3    H126677   1.894   3.657   1.276
 1706TIP3    H226678   2.030   3.691   1.333
 1707TIP3   OH226679   0.133   6.331   8.130
 1707TIP3    H126680   0.194   6.363   8.063
 1707TIP3    H226681   0.179   6.347   8.213
 1708TIP3   OH226682   3.928   4.841   0.954
 1708TIP3    H126683   3.968   4.769   0.906
 1708TIP3    H226684   3.903   4.803   1.038
 1709TIP3   OH226685   6.762   4.342   2.519
 1709TIP3    H126686   6.733   4.262   2.561
 1709TIP3    H226687   6.828   4.378   2.579
 1710TIP3   OH226688   3.094   0.849   0.367
 1710TIP3    H126689   3.002   0.873   0.370
 1710TIP3    H226690   3.123   0.876   0.280
 1711TIP3   OH226691   2.540   3.744   1.611
 1711TIP3    H126692   2.563   3.779   1.696
 1711TIP3    H226693   2.518   3.820   1.558
 1712TIP3   OH226694   3.778   6.271   7.915
 1712TIP3    H126695   3.791   6.188   7.960
 1712TIP3    H226696   3.814   6.257   7.827
 1713TIP3   OH226697   1.143   4.325   0.203
 1713TIP3    H126698   1.129   4.337   0.110
 1713TIP3    H226699   1.103   4.240   0.223
 1714TIP3   OH226700   3.107   3.289   1.407
 1714TIP3    H126701   3.094   3.213   1.463
 1714TIP3    H226702   3.184   3.267   1.354
 1715TIP3   OH226703   2.764   4.933   7.428
 1715TIP3    H126704   2.762   4.838   7.441
 1715TIP3    H226705   2.674   4.961   7.445
 1716TIP3   OH226706   1.161   0.734   7.578
 1716TIP3    H126707   1.197   0.822   7.575
 1716TIP3    H226708   1.151   0.715   7.671
 1717TIP3   OH226709   6.244   3.059   7.301
 1717TIP3    H126710   6.271   2.976   7.341
 1717TIP3    H226711   6.199   3.105   7.371
 1718TIP3   OH226712   1.718   2.287   7.644
 1718TIP3    H126713   1.767   2.358   7.604
 1718TIP3    H226714   1.687   2.323   7.727
 1719TIP3   OH226715   6.782   1.359   7.014
 1719TIP3    H126716   6.848   1.425   7.038
 1719TIP3    H226717   6.725   1.404   6.951
 1720TIP3   OH226718   3.088   6.795   7.637
 1720TIP3    H126719   3.166   6.833   7.597
 1720TIP3    H226720   3.121   6.738   7.706
 1721TIP3   OH226721   3.686   3.596   8.623
 1721TIP3    H126722   3.733   3.549   8.554
 1721TIP3    H226723   3.749   3.602   0.063
 1722TIP3   OH226724   1.236   0.017   0.005
 1722TIP3    H126725   1.167   0.082   0.019
 1722TIP3    H226726   1.283   0.014   0.088
 1723TIP3   OH226727   4.538   4.080   0.402
 1723TIP3    H126728   4.589   4.161   0.399
 1723TIP3    H226729   4.530   4.060   0.495
 1724TIP3   OH226730   0.464   0.606   1.217
 1724TIP3    H126731   0.504   0.535   1.167
 1724TIP3    H226732   0.432   0.563   1.297
 1725TIP3   OH226733   5.368   3.910   1.611
 1725TIP3    H126734   5.435   3.900   1.543
 1725TIP3    H226735   5.414   3.951   1.684
 1726TIP3   OH226736   3.305   4.977   6.643
 1726TIP3    H126737   3.249   5.047   6.677
 1726TIP3    H226738   3.382   5.022   6.608
 1727TIP3   OH226739   5.296   6.360   8.325
 1727TIP3    H126740   5.239   6.306   8.270
 1727TIP3    H226741   5.272   6.450   8.303
 1728TIP3   OH226742   6.271   6.055   2.351
 1728TIP3    H126743   6.249   6.145   2.376
 1728TIP3    H226744   6.367   6.052   2.351
 1729TIP3   OH226745   4.023   2.314   6.419
 1729TIP3    H126746   4.063   2.227   6.417
 1729TIP3    H226747   4.098   2.374   6.414
 1730TIP3   OH226748   1.653   0.684   8.122
 1730TIP3    H126749   1.726   0.724   8.076
 1730TIP3    H226750   1.655   0.592   8.095
 1731TIP3   OH226751   6.036   2.281   1.945
 1731TIP3    H126752   6.034   2.190   1.918
 1731TIP3    H226753   6.128   2.307   1.937
 1732TIP3   OH226754   6.454   6.211   1.298
 1732TIP3    H126755   6.409   6.170   1.224
 1732TIP3    H226756   6.479   6.138   1.354
 1733TIP3   OH226757   1.860   5.485   7.703
 1733TIP3    H126758   1.794   5.440   7.650
 1733TIP3    H226759   1.894   5.418   7.762
 1734TIP3   OH226760   4.280   5.378   0.300
 1734TIP3    H126761   4.375   5.386   0.289
 1734TIP3    H226762   4.243   5.433   0.231
 1735TIP3   OH226763   0.639   1.990   1.293
 1735TIP3    H126764   0.633   2.041   1.374
 1735TIP3    H226765   0.668   1.903   1.321
 1736TIP3   OH226766   0.359   2.626   7.723
 1736TIP3    H126767   0.388   2.542   7.760
 1736TIP3    H226768   0.440   2.676   7.714
 1737TIP3   OH226769   4.230   5.610   8.436
 1737TIP3    H126770   4.258   5.560   8.512
 1737TIP3    H226771   4.173   5.550   8.387
 1738TIP3   OH226772   1.744   5.874   0.014
 1738TIP3    H126773   1.815   5.811   0.019
 1738TIP3    H226774   1.772   5.937   8.579
 1739TIP3   OH226775   0.220   6.178   1.276
 1739TIP3    H126776   0.299   6.231   1.286
 1739TIP3    H226777   0.188   6.163   1.365
 1740TIP3   OH226778   0.639   5.719   6.479
 1740TIP3    H126779   0.631   5.653   6.409
 1740TIP3    H226780   0.548   5.738   6.503
 1741TIP3   OH226781   6.133   4.765   8.591
 1741TIP3    H126782   6.143   4.855   8.623
 1741TIP3    H226783   6.095   4.717   0.033
 1742TIP3   OH226784   5.642   5.348   0.704
 1742TIP3    H126785   5.669   5.343   0.796
 1742TIP3    H226786   5.581   5.275   0.693
 1743TIP3   OH226787   1.225   1.217   7.367
 1743TIP3    H126788   1.248   1.259   7.451
 1743TIP3    H226789   1.308   1.213   7.320
 1744TIP3   OH226790   0.403   5.090   7.528
 1744TIP3    H126791   0.410   5.105   7.622
 1744TIP3    H226792   0.477   5.139   7.490
 1745TIP3   OH226793   0.519   0.559   7.805
 1745TIP3    H126794   0.589   0.573   7.868
 1745TIP3    H226795   0.544   0.478   7.759
 1746TIP3   OH226796   6.376   2.010   1.896
 1746TIP3    H126797   6.402   2.098   1.870
 1746TIP3    H226798   6.393   2.006   1.990
 1747TIP3   OH226799   6.181   2.682   1.148
 1747TIP3    H126800   6.138   2.763   1.174
 1747TIP3    H226801   6.111   2.630   1.107
 1748TIP3   OH226802   1.180   3.201   7.215
 1748TIP3    H126803   1.241   3.270   7.244
 1748TIP3    H226804   1.112   3.248   7.167
 1749TIP3   OH226805   5.247   5.480   2.033
 1749TIP3    H126806   5.243   5.573   2.057
 1749TIP3    H226807   5.156   5.454   2.023
 1750TIP3   OH226808   3.725   1.306   1.887
 1750TIP3    H126809   3.789   1.243   1.919
 1750TIP3    H226810   3.641   1.260   1.889
 1751TIP3   OH226811   3.296   4.597   1.936
 1751TIP3    H126812   3.268   4.688   1.942
 1751TIP3    H226813   3.215   4.548   1.920
 1752TIP3   OH226814   2.929   5.662   7.557
 1752TIP3    H126815   2.895   5.683   7.644
 1752TIP3    H226816   2.852   5.668   7.500
 1753TIP3   OH226817   3.158   0.460   0.293
 1753TIP3    H126818   3.223   0.391   0.307
 1753TIP3    H226819   3.110   0.465   0.376
 1754TIP3   OH226820   0.656   0.332   1.592
 1754TIP3    H126821   0.598   0.270   1.549
 1754TIP3    H226822   0.598   0.386   1.646
 1755TIP3   OH226823   6.443   3.782   8.215
 1755TIP3    H126824   6.425   3.861   8.164
 1755TIP3    H226825   6.384   3.716   8.178
 1756TIP3   OH226826   4.966   6.487   0.977
 1756TIP3    H126827   4.937   6.558   1.034
 1756TIP3    H226828   5.060   6.483   0.991
 1757TIP3   OH226829   4.941   5.054   1.680
 1757TIP3    H126830   4.890   5.099   1.748
 1757TIP3    H226831   5.022   5.028   1.725
 1758TIP3   OH226832   0.336   3.535   8.142
 1758TIP3    H126833   0.418   3.556   8.185
 1758TIP3    H226834   0.269   3.541   8.210
 1759TIP3   OH226835   6.855   0.690   1.113
 1759TIP3    H126836   6.852   0.608   1.162
 1759TIP3    H226837   0.026   0.670   1.036
 1760TIP3   OH226838   4.296   5.734   0.312
 1760TIP3    H126839   4.205   5.713   0.334
 1760TIP3    H226840   4.289   5.815   0.260
 1761TIP3   OH226841   3.965   1.948   7.143
 1761TIP3    H126842   3.934   2.014   7.204
 1761TIP3    H226843   3.983   1.871   7.197
 1762TIP3   OH226844   3.653   1.540   1.690
 1762TIP3    H126845   3.602   1.510   1.766
 1762TIP3    H226846   3.606   1.618   1.659
 1763TIP3   OH226847   5.190   2.437   7.423
 1763TIP3    H126848   5.124   2.489   7.470
 1763TIP3    H226849   5.185   2.468   7.333
 1764TIP3   OH226850   1.687   3.739   7.319
 1764TIP3    H126851   1.681   3.823   7.273
 1764TIP3    H226852   1.659   3.674   7.253
 1765TIP3   OH226853   2.203   5.634   6.376
 1765TIP3    H126854   2.108   5.624   6.363
 1765TIP3    H226855   2.242   5.577   6.310
 1766TIP3   OH226856   2.620   1.743   0.804
 1766TIP3    H126857   2.609   1.750   0.709
 1766TIP3    H226858   2.638   1.833   0.832
 1767TIP3   OH226859   2.390   4.770   7.215
 1767TIP3    H126860   2.335   4.692   7.221
 1767TIP3    H226861   2.356   4.829   7.283
 1768TIP3   OH226862   4.183   6.701   8.167
 1768TIP3    H126863   4.179   6.730   8.258
 1768TIP3    H226864   4.274   6.713   8.142
 1769TIP3   OH226865   2.772   4.321   1.672
 1769TIP3    H126866   2.806   4.344   1.758
 1769TIP3    H226867   2.793   4.228   1.662
 1770TIP3   OH226868   3.373   5.674   7.466
 1770TIP3    H126869   3.367   5.758   7.512
 1770TIP3    H226870   3.329   5.612   7.524
 1771TIP3   OH226871   3.084   2.213   1.215
 1771TIP3    H126872   3.012   2.156   1.241
 1771TIP3    H226873   3.065   2.297   1.256
 1772TIP3   OH226874   6.785   2.219   7.223
 1772TIP3    H126875   6.880   2.222   7.228
 1772TIP3    H226876   6.757   2.308   7.243
 1773TIP3   OH226877   2.107   3.145   1.152
 1773TIP3    H126878   2.125   3.055   1.124
 1773TIP3    H226879   2.114   3.196   1.071
 1774TIP3   OH226880   4.329   0.903   2.083
 1774TIP3    H126881   4.402   0.847   2.057
 1774TIP3    H226882   4.353   0.933   2.171
 1775TIP3   OH226883   5.148   2.309   1.754
 1775TIP3    H126884   5.236   2.334   1.726
 1775TIP3    H226885   5.138   2.219   1.722
 1776TIP3   OH226886   6.749   0.448   0.934
 1776TIP3    H126887   6.775   0.392   0.860
 1776TIP3    H226888   6.830   0.494   0.957
 1777TIP3   OH226889   1.347   6.558   6.914
 1777TIP3    H126890   1.366   6.609   6.835
 1777TIP3    H226891   1.386   6.472   6.897
 1778TIP3   OH226892   1.278   4.721   6.909
 1778TIP3    H126893   1.186   4.697   6.908
 1778TIP3    H226894   1.292   4.766   6.825
 1779TIP3   OH226895   4.462   6.481   0.533
 1779TIP3    H126896   4.390   6.504   0.475
 1779TIP3    H226897   4.522   6.431   0.479
 1780TIP3   OH226898   5.022   6.561   8.627
 1780TIP3    H126899   5.111   6.591   0.016
 1780TIP3    H226900   5.021   6.549   8.532
 1781TIP3   OH226901   1.712   1.314   7.422
 1781TIP3    H126902   1.806   1.315   7.443
 1781TIP3    H226903   1.697   1.395   7.374
 1782TIP3   OH226904   3.495   4.790   7.575
 1782TIP3    H126905   3.408   4.755   7.596
 1782TIP3    H226906   3.553   4.714   7.575
 1783TIP3   OH226907   5.733   0.674   8.379
 1783TIP3    H126908   5.741   0.580   8.362
 1783TIP3    H226909   5.801   0.715   8.326
 1784TIP3   OH226910   3.755   5.951   8.255
 1784TIP3    H126911   3.780   5.902   8.333
 1784TIP3    H226912   3.671   5.913   8.229
 1785TIP3   OH226913   1.762   6.789   7.189
 1785TIP3    H126914   1.818   6.729   7.237
 1785TIP3    H226915   1.797   6.790   7.100
 1786TIP3   OH226916   1.166   4.879   8.059
 1786TIP3    H126917   1.142   4.970   8.043
 1786TIP3    H226918   1.259   4.882   8.078
 1787TIP3   OH226919   1.357   3.849   7.898
 1787TIP3    H126920   1.310   3.889   7.824
 1787TIP3    H226921   1.444   3.828   7.863
 1788TIP3   OH226922   6.433   4.492   7.251
 1788TIP3    H126923   6.381   4.423   7.210
 1788TIP3    H226924   6.375   4.569   7.249
 1789TIP3   OH226925   5.570   2.773   1.451
 1789TIP3    H126926   5.479   2.748   1.466
 1789TIP3    H226927   5.581   2.766   1.356
 1790TIP3   OH226928   3.290   6.861   7.339
 1790TIP3    H126929   3.230   0.014   7.274
 1790TIP3    H226930   3.289   0.042   7.410
 1791TIP3   OH226931   6.082   4.210   7.456
 1791TIP3    H126932   6.172   4.182   7.435
 1791TIP3    H226933   6.071   4.292   7.409
 1792TIP3   OH226934   6.642   6.046   1.061
 1792TIP3    H126935   6.678   5.990   0.993
 1792TIP3    H226936   6.553   6.067   1.031
 1793TIP3   OH226937   5.672   1.274   0.990
 1793TIP3    H126938   5.685   1.260   1.083
 1793TIP3    H226939   5.605   1.342   0.985
 1794TIP3   OH226940   3.652   5.602   8.358
 1794TIP3    H126941   3.661   5.540   8.286
 1794TIP3    H226942   3.557   5.608   8.373
 1795TIP3   OH226943   5.270   1.463   0.240
 1795TIP3    H126944   5.326   1.474   0.163
 1795TIP3    H226945   5.245   1.371   0.238
 1796TIP3   OH226946   6.081   2.895   8.538
 1796TIP3    H126947   6.036   2.980   8.534
 1796TIP3    H226948   6.012   2.830   8.527
 1797TIP3   OH226949   2.328   6.557   0.428
 1797TIP3    H126950   2.351   6.535   0.338
 1797TIP3    H226951   2.235   6.578   0.425
 1798TIP3   OH226952   5.326   1.173   1.049
 1798TIP3    H126953   5.415   1.206   1.037
 1798TIP3    H226954   5.271   1.236   1.002
 1799TIP3   OH226955   2.852   5.770   0.517
 1799TIP3    H126956   2.782   5.835   0.507
 1799TIP3    H226957   2.926   5.820   0.550
 1800TIP3   OH226958   2.271   6.113   8.184
 1800TIP3    H126959   2.289   6.135   8.276
 1800TIP3    H226960   2.222   6.187   8.150
 1801TIP3   OH226961   1.326   2.532   7.593
 1801TIP3    H126962   1.265   2.592   7.551
 1801TIP3    H226963   1.345   2.573   7.678
 1802TIP3   OH226964   1.552   2.238   0.316
 1802TIP3    H126965   1.642   2.227   0.286
 1802TIP3    H226966   1.500   2.185   0.255
 1803TIP3   OH226967   4.857   4.529   0.346
 1803TIP3    H126968   4.780   4.472   0.349
 1803TIP3    H226969   4.821   4.618   0.342
 1804TIP3   OH226970   3.411   6.079   7.135
 1804TIP3    H126971   3.410   6.002   7.192
 1804TIP3    H226972   3.451   6.148   7.188
 1805TIP3   OH226973   5.560   4.359   1.161
 1805TIP3    H126974   5.525   4.271   1.177
 1805TIP3    H226975   5.485   4.407   1.125
 1806TIP3   OH226976   0.538   4.266   0.393
 1806TIP3    H126977   0.445   4.274   0.414
 1806TIP3    H226978   0.583   4.289   0.475
 1807TIP3   OH226979   4.170   0.512   7.697
 1807TIP3    H126980   4.092   0.472   7.737
 1807TIP3    H226981   4.239   0.447   7.709
 1808TIP3   OH226982   1.173   5.400   0.483
 1808TIP3    H126983   1.094   5.430   0.436
 1808TIP3    H226984   1.139   5.365   0.565
 1809TIP3   OH226985   3.757   0.067   7.420
 1809TIP3    H126986   3.696   6.879   7.440
 1809TIP3    H226987   3.739   0.089   7.328
 1810TIP3   OH226988   2.352   4.737   8.436
 1810TIP3    H126989   2.328   4.673   8.370
 1810TIP3    H226990   2.287   4.807   8.427
 1811TIP3   OH226991   0.024   0.241   1.390
 1811TIP3    H126992   0.091   0.205   1.449
 1811TIP3    H226993   0.026   0.183   1.314
 1812TIP3   OH226994   3.893   6.039   7.647
 1812TIP3    H126995   3.898   6.135   7.652
 1812TIP3    H226996   3.982   6.010   7.668
 1813TIP3   OH226997   5.554   5.953   0.886
 1813TIP3    H126998   5.556   5.874   0.939
 1813TIP3    H226999   5.575   6.024   0.948
 1814TIP3   OH227000   3.534   2.841   0.396
 1814TIP3    H127001   3.553   2.892   0.317
 1814TIP3    H227002   3.617   2.797   0.417
 1815TIP3   OH227003   3.279   3.116   0.367
 1815TIP3    H127004   3.204   3.175   0.367
 1815TIP3    H227005   3.347   3.162   0.417
 1816TIP3   OH227006   4.064   5.389   8.282
 1816TIP3    H127007   3.973   5.404   8.258
 1816TIP3    H227008   4.061   5.313   8.341
 1817TIP3   OH227009   3.008   3.696   6.648
 1817TIP3    H127010   3.049   3.717   6.732
 1817TIP3    H227011   2.916   3.721   6.659
 1818TIP3   OH227012   1.069   6.750   2.137
 1818TIP3    H127013   1.100   6.694   2.207
 1818TIP3    H227014   1.149   6.778   2.092
 1819TIP3   OH227015   2.720   3.645   6.596
 1819TIP3    H127016   2.750   3.727   6.556
 1819TIP3    H227017   2.651   3.672   6.657
 1820TIP3   OH227018   4.065   5.230   7.207
 1820TIP3    H127019   4.109   5.268   7.130
 1820TIP3    H227020   3.991   5.182   7.171
 1821TIP3   OH227021   1.216   5.487   1.504
 1821TIP3    H127022   1.257   5.436   1.573
 1821TIP3    H227023   1.283   5.493   1.435
 1822TIP3   OH227024   0.311   3.064   1.040
 1822TIP3    H127025   0.216   3.055   1.033
 1822TIP3    H227026   0.328   3.156   1.018
 1823TIP3   OH227027   2.178   6.530   2.518
 1823TIP3    H127028   2.185   6.446   2.473
 1823TIP3    H227029   2.118   6.582   2.465
 1824TIP3   OH227030   4.802   0.006   7.143
 1824TIP3    H127031   4.747   0.066   7.193
 1824TIP3    H227032   4.799   6.807   7.192
 1825TIP3   OH227033   3.475   6.448   7.034
 1825TIP3    H127034   3.419   6.513   7.076
 1825TIP3    H227035   3.511   6.493   6.958
 1826TIP3   OH227036   4.326   1.604   0.909
 1826TIP3    H127037   4.387   1.678   0.906
 1826TIP3    H227038   4.294   1.602   0.999
 1827TIP3   OH227039   2.980   5.118   1.803
 1827TIP3    H127040   2.965   5.025   1.821
 1827TIP3    H227041   2.997   5.157   1.890
 1828TIP3   OH227042   2.286   4.426   0.440
 1828TIP3    H127043   2.361   4.394   0.491
 1828TIP3    H227044   2.257   4.350   0.389
 1829TIP3   OH227045   5.417   1.686   0.538
 1829TIP3    H127046   5.339   1.701   0.483
 1829TIP3    H227047   5.475   1.633   0.483
 1830TIP3   OH227048   6.841   3.196   7.651
 1830TIP3    H127049   6.872   3.125   7.596
 1830TIP3    H227050   6.849   3.274   7.597
 1831TIP3   OH227051   3.971   0.469   0.126
 1831TIP3    H127052   3.980   0.375   0.143
 1831TIP3    H227053   3.944   0.506   0.210
 1832TIP3   OH227054   6.597   0.202   1.099
 1832TIP3    H127055   6.520   0.258   1.105
 1832TIP3    H227056   6.610   0.168   1.187
 1833TIP3   OH227057   3.551   1.568   7.781
 1833TIP3    H127058   3.542   1.516   7.701
 1833TIP3    H227059   3.487   1.530   7.842
 1834TIP3   OH227060   5.893   6.722   1.529
 1834TIP3    H127061   5.933   6.769   1.455
 1834TIP3    H227062   5.879   6.789   1.596
 1835TIP3   OH227063   4.776   5.246   8.182
 1835TIP3    H127064   4.762   5.167   8.233
 1835TIP3    H227065   4.723   5.313   8.226
 1836TIP3   OH227066   2.537   6.877   0.159
 1836TIP3    H127067   2.628   6.862   0.185
 1836TIP3    H227068   2.543   0.058   0.087
 1837TIP3   OH227069   5.701   1.114   0.232
 1837TIP3    H127070   5.714   1.207   0.253
 1837TIP3    H227071   5.695   1.112   0.137
 1838TIP3   OH227072   5.509   2.795   0.107
 1838TIP3    H127073   5.444   2.726   0.114
 1838TIP3    H227074   5.512   2.816   0.014
 1839TIP3   OH227075   5.101   4.254   8.463
 1839TIP3    H127076   5.023   4.239   8.409
 1839TIP3    H227077   5.133   4.339   8.435
 1840TIP3   OH227078   0.463   2.416   6.381
 1840TIP3    H127079   0.371   2.432   6.363
 1840TIP3    H227080   0.481   2.331   6.342
 1841TIP3   OH227081   3.005   4.377   0.291
 1841TIP3    H127082   3.006   4.296   0.240
 1841TIP3    H227083   2.925   4.371   0.343
 1842TIP3   OH227084   5.948   3.687   2.079
 1842TIP3    H127085   5.853   3.689   2.093
 1842TIP3    H227086   5.979   3.768   2.120
 1843TIP3   OH227087   5.167   1.316   8.273
 1843TIP3    H127088   5.217   1.303   8.193
 1843TIP3    H227089   5.229   1.299   8.344
 1844TIP3   OH227090   1.890   2.294   7.298
 1844TIP3    H127091   1.862   2.327   7.213
 1844TIP3    H227092   1.907   2.373   7.350
 1845TIP3   OH227093   5.461   1.253   6.722
 1845TIP3    H127094   5.554   1.235   6.727
 1845TIP3    H227095   5.444   1.272   6.630
 1846TIP3   OH227096   2.723   1.628   7.326
 1846TIP3    H127097   2.693   1.673   7.246
 1846TIP3    H227098   2.696   1.686   7.397
 1847TIP3   OH227099   3.296   4.310   0.969
 1847TIP3    H127100   3.215   4.260   0.967
 1847TIP3    H227101   3.365   4.244   0.967
 1848TIP3   OH227102   6.517   2.712   7.248
 1848TIP3    H127103   6.560   2.672   7.172
 1848TIP3    H227104   6.460   2.780   7.211
 1849TIP3   OH227105   1.851   6.542   0.827
 1849TIP3    H127106   1.945   6.552   0.815
 1849TIP3    H227107   1.822   6.496   0.748
 1850TIP3   OH227108   0.405   2.778   0.198
 1850TIP3    H127109   0.453   2.828   0.263
 1850TIP3    H227110   0.464   2.707   0.172
 1851TIP3   OH227111   5.325   0.581   0.642
 1851TIP3    H127112   5.357   0.492   0.655
 1851TIP3    H227113   5.322   0.593   0.547
 1852TIP3   OH227114   2.765   5.597   1.034
 1852TIP3    H127115   2.710   5.647   1.094
 1852TIP3    H227116   2.854   5.621   1.058
 1853TIP3   OH227117   0.009   6.878   0.217
 1853TIP3    H127118   0.008   0.091   0.215
 1853TIP3    H227119   6.819   6.853   0.161
 1854TIP3   OH227120   2.477   3.415   0.161
 1854TIP3    H127121   2.503   3.469   0.235
 1854TIP3    H227122   2.531   3.336   0.168
 1855TIP3   OH227123   1.872   3.534   7.799
 1855TIP3    H127124   1.814   3.587   7.745
 1855TIP3    H227125   1.814   3.476   7.848
 1856TIP3   OH227126   2.366   1.916   7.448
 1856TIP3    H127127   2.346   1.881   7.535
 1856TIP3    H227128   2.374   2.010   7.461
 1857TIP3   OH227129   2.873   2.680   7.363
 1857TIP3    H127130   2.811   2.633   7.419
 1857TIP3    H227131   2.817   2.723   7.298
 1858TIP3   OH227132   6.441   0.819   7.237
 1858TIP3    H127133   6.476   0.900   7.273
 1858TIP3    H227134   6.425   0.839   7.145
 1859TIP3   OH227135   5.494   1.269   7.837
 1859TIP3    H127136   5.465   1.354   7.869
 1859TIP3    H227137   5.570   1.289   7.782
 1860TIP3   OH227138   6.145   4.506   1.644
 1860TIP3    H127139   6.100   4.524   1.727
 1860TIP3    H227140   6.238   4.517   1.665
 1861TIP3   OH227141   4.901   5.849   8.466
 1861TIP3    H127142   4.964   5.814   8.528
 1861TIP3    H227143   4.868   5.772   8.419
 1862TIP3   OH227144   0.316   4.638   0.318
 1862TIP3    H127145   0.364   4.594   0.389
 1862TIP3    H227146   0.269   4.709   0.361
 1863TIP3   OH227147   2.340   2.383   0.252
 1863TIP3    H127148   2.304   2.422   0.172
 1863TIP3    H227149   2.269   2.390   0.316
 1864TIP3   OH227150   1.338   6.110   7.298
 1864TIP3    H127151   1.413   6.055   7.321
 1864TIP3    H227152   1.292   6.123   7.382
 1865TIP3   OH227153   6.645   3.855   7.831
 1865TIP3    H127154   6.681   3.897   7.753
 1865TIP3    H227155   6.569   3.909   7.854
 1866TIP3   OH227156   6.568   3.040   7.538
 1866TIP3    H127157   6.614   3.099   7.597
 1866TIP3    H227158   6.484   3.024   7.580
 1867TIP3   OH227159   5.316   2.688   8.108
 1867TIP3    H127160   5.347   2.778   8.101
 1867TIP3    H227161   5.229   2.696   8.149
 1868TIP3   OH227162   5.164   0.056   7.275
 1868TIP3    H127163   5.093   0.118   7.290
 1868TIP3    H227164   5.229   0.106   7.225
 1869TIP3   OH227165   6.627   1.636   7.794
 1869TIP3    H127166   6.593   1.578   7.862
 1869TIP3    H227167   6.578   1.717   7.805
 1870TIP3   OH227168   0.999   1.463   8.192
 1870TIP3    H127169   1.064   1.441   8.259
 1870TIP3    H227170   0.955   1.380   8.174
 1871TIP3   OH227171   0.389   3.331   0.946
 1871TIP3    H127172   0.482   3.327   0.970
 1871TIP3    H227173   0.358   3.413   0.985
 1872TIP3   OH227174   0.450   0.905   6.473
 1872TIP3    H127175   0.484   0.818   6.453
 1872TIP3    H227176   0.527   0.956   6.497
 1873TIP3   OH227177   6.450   4.194   1.651
 1873TIP3    H127178   6.419   4.106   1.672
 1873TIP3    H227179   6.434   4.245   1.731
 1874TIP3   OH227180   2.678   6.833   0.787
 1874TIP3    H127181   2.733   0.025   0.766
 1874TIP3    H227182   2.651   6.847   0.878
 1875TIP3   OH227183   4.712   1.994   2.074
 1875TIP3    H127184   4.750   2.080   2.093
 1875TIP3    H227185   4.618   2.007   2.079
 1876TIP3   OH227186   3.374   4.652   6.861
 1876TIP3    H127187   3.448   4.650   6.800
 1876TIP3    H227188   3.299   4.676   6.806
 1877TIP3   OH227189   6.470   5.994   1.470
 1877TIP3    H127190   6.522   5.969   1.546
 1877TIP3    H227191   6.380   5.997   1.503
 1878TIP3   OH227192   1.955   2.972   2.018
 1878TIP3    H127193   1.922   2.909   1.955
 1878TIP3    H227194   1.955   3.056   1.972
 1879TIP3   OH227195   3.372   1.601   6.184
 1879TIP3    H127196   3.395   1.640   6.100
 1879TIP3    H227197   3.441   1.630   6.243
 1880TIP3   OH227198   2.217   5.805   0.999
 1880TIP3    H127199   2.156   5.741   0.963
 1880TIP3    H227200   2.246   5.857   0.924
 1881TIP3   OH227201   0.381   6.105   0.898
 1881TIP3    H127202   0.324   6.080   0.824
 1881TIP3    H227203   0.363   6.039   0.965
 1882TIP3   OH227204   0.220   5.780   0.236
 1882TIP3    H127205   0.199   5.715   0.169
 1882TIP3    H227206   0.228   5.730   0.317
 1883TIP3   OH227207   0.447   0.020   7.512
 1883TIP3    H127208   0.506   6.870   7.444
 1883TIP3    H227209   0.446   0.115   7.500
 1884TIP3   OH227210   6.644   6.863   7.158
 1884TIP3    H127211   6.578   6.850   7.089
 1884TIP3    H227212   6.603   6.829   7.237
 1885TIP3   OH227213   5.013   6.764   1.153
 1885TIP3    H127214   5.055   6.844   1.120
 1885TIP3    H227215   5.082   6.718   1.200
 1886TIP3   OH227216   5.830   2.421   0.745
 1886TIP3    H127217   5.817   2.447   0.654
 1886TIP3    H227218   5.747   2.382   0.771
 1887TIP3   OH227219   5.087   3.397   0.345
 1887TIP3    H127220   5.018   3.347   0.301
 1887TIP3    H227221   5.092   3.478   0.295
 1888TIP3   OH227222   4.398   4.105   1.976
 1888TIP3    H127223   4.385   4.170   2.045
 1888TIP3    H227224   4.314   4.059   1.969
 1889TIP3   OH227225   0.054   0.015   6.469
 1889TIP3    H127226   0.084   0.100   6.502
 1889TIP3    H227227   0.127   6.839   6.485
 1890TIP3   OH227228   5.047   0.637   6.818
 1890TIP3    H127229   5.008   0.669   6.736
 1890TIP3    H227230   5.025   0.543   6.820
 1891TIP3   OH227231   0.338   6.824   8.328
 1891TIP3    H127232   0.422   6.803   8.368
 1891TIP3    H227233   0.299   6.739   8.306
 1892TIP3   OH227234   1.439   6.480   0.329
 1892TIP3    H127235   1.355   6.510   0.363
 1892TIP3    H227236   1.496   6.557   0.333
 1893TIP3   OH227237   0.433   1.366   0.598
 1893TIP3    H127238   0.523   1.335   0.586
 1893TIP3    H227239   0.422   1.370   0.693
 1894TIP3   OH227240   1.503   2.000   1.227
 1894TIP3    H127241   1.521   2.092   1.208
 1894TIP3    H227242   1.484   1.999   1.321
 1895TIP3   OH227243   4.554   4.066   6.435
 1895TIP3    H127244   4.626   4.125   6.413
 1895TIP3    H227245   4.595   3.980   6.441
 1896TIP3   OH227246   4.254   6.144   8.278
 1896TIP3    H127247   4.185   6.208   8.258
 1896TIP3    H227248   4.211   6.059   8.266
 1897TIP3   OH227249   0.299   1.584   0.483
 1897TIP3    H127250   0.320   1.497   0.517
 1897TIP3    H227251   0.383   1.620   0.456
 1898TIP3   OH227252   5.807   3.711   6.720
 1898TIP3    H127253   5.884   3.767   6.714
 1898TIP3    H227254   5.745   3.762   6.773
 1899TIP3   OH227255   5.365   3.506   6.415
 1899TIP3    H127256   5.325   3.589   6.388
 1899TIP3    H227257   5.452   3.507   6.375
 1900TIP3   OH227258   0.611   3.292   1.771
 1900TIP3    H127259   0.600   3.385   1.789
 1900TIP3    H227260   0.677   3.263   1.834
 1901TIP3   OH227261   1.459   4.753   7.096
 1901TIP3    H127262   1.378   4.731   7.050
 1901TIP3    H227263   1.504   4.669   7.108
 1902TIP3   OH227264   2.971   6.620   6.966
 1902TIP3    H127265   2.974   6.677   7.043
 1902TIP3    H227266   2.902   6.657   6.912
 1903TIP3   OH227267   2.178   2.552   0.860
 1903TIP3    H127268   2.183   2.609   0.936
 1903TIP3    H227269   2.201   2.465   0.893
 1904TIP3   OH227270   3.171   5.088   7.873
 1904TIP3    H127271   3.207   5.001   7.888
 1904TIP3    H227272   3.189   5.136   7.954
 1905TIP3   OH227273   4.772   3.241   8.327
 1905TIP3    H127274   4.716   3.266   8.401
 1905TIP3    H227275   4.742   3.153   8.303
 1906TIP3   OH227276   4.786   1.088   0.285
 1906TIP3    H127277   4.772   1.181   0.269
 1906TIP3    H227278   4.836   1.057   0.210
 1907TIP3   OH227279   3.029   6.517   6.320
 1907TIP3    H127280   3.015   6.531   6.413
 1907TIP3    H227281   3.104   6.458   6.316
 1908TIP3   OH227282   2.299   6.105   0.029
 1908TIP3    H127283   2.319   6.021   8.619
 1908TIP3    H227284   2.204   6.107   0.035
 1909TIP3   OH227285   5.695   5.710   7.939
 1909TIP3    H127286   5.716   5.637   7.881
 1909TIP3    H227287   5.715   5.677   8.027
 1910TIP3   OH227288   0.228   1.929   0.373
 1910TIP3    H127289   0.319   1.958   0.384
 1910TIP3    H227290   0.176   2.001   0.409
 1911TIP3   OH227291   4.109   0.872   8.138
 1911TIP3    H127292   4.141   0.839   8.054
 1911TIP3    H227293   4.014   0.872   8.129
 1912TIP3   OH227294   5.149   6.601   2.237
 1912TIP3    H127295   5.140   6.662   2.164
 1912TIP3    H227296   5.076   6.622   2.295
 1913TIP3   OH227297   0.166   0.980   0.184
 1913TIP3    H127298   0.116   0.962   0.264
 1913TIP3    H227299   0.111   0.947   0.113
 1914TIP3   OH227300   2.088   2.215   0.497
 1914TIP3    H127301   2.075   2.291   0.554
 1914TIP3    H227302   2.007   2.210   0.446
 1915TIP3   OH227303   6.690   4.618   2.493
 1915TIP3    H127304   6.600   4.583   2.495
 1915TIP3    H227305   6.746   4.540   2.490
 1916TIP3   OH227306   3.206   2.799   8.586
 1916TIP3    H127307   3.122   2.758   8.563
 1916TIP3    H227308   3.182   2.889   8.611
 1917TIP3   OH227309   1.216   5.223   2.696
 1917TIP3    H127310   1.257   5.275   2.627
 1917TIP3    H227311   1.123   5.245   2.690
 1918TIP3   OH227312   4.073   1.635   1.651
 1918TIP3    H127313   4.009   1.569   1.626
 1918TIP3    H227314   4.023   1.717   1.656
 1919TIP3   OH227315   3.257   4.073   7.069
 1919TIP3    H127316   3.343   4.079   7.026
 1919TIP3    H227317   3.277   4.045   7.158
 1920TIP3   OH227318   5.426   2.233   1.107
 1920TIP3    H127319   5.494   2.181   1.150
 1920TIP3    H227320   5.409   2.305   1.167
 1921TIP3   OH227321   5.146   5.645   1.773
 1921TIP3    H127322   5.196   5.643   1.855
 1921TIP3    H227323   5.059   5.614   1.797
 1922TIP3   OH227324   0.598   1.443   0.170
 1922TIP3    H127325   0.665   1.390   0.126
 1922TIP3    H227326   0.607   1.530   0.130
 1923TIP3   OH227327   4.579   4.184   7.895
 1923TIP3    H127328   4.645   4.249   7.871
 1923TIP3    H227329   4.511   4.235   7.940
 1924TIP3   OH227330   2.290   3.776   0.592
 1924TIP3    H127331   2.350   3.711   0.627
 1924TIP3    H227332   2.326   3.860   0.622
 1925TIP3   OH227333   6.312   4.930   8.438
 1925TIP3    H127334   6.252   4.996   8.404
 1925TIP3    H227335   6.255   4.862   8.475
 1926TIP3   OH227336   0.967   3.668   8.025
 1926TIP3    H127337   1.059   3.689   8.041
 1926TIP3    H227338   0.950   3.590   8.078
 1927TIP3   OH227339   2.690   1.054   8.028
 1927TIP3    H127340   2.650   1.137   8.004
 1927TIP3    H227341   2.768   1.048   7.973
 1928TIP3   OH227342   1.499   4.731   0.125
 1928TIP3    H127343   1.560   4.677   0.074
 1928TIP3    H227344   1.527   4.821   0.108
 1929TIP3   OH227345   6.590   4.252   0.916
 1929TIP3    H127346   6.587   4.345   0.940
 1929TIP3    H227347   6.577   4.252   0.821
 1930TIP3   OH227348   6.478   5.944   2.550
 1930TIP3    H127349   6.546   5.939   2.617
 1930TIP3    H227350   6.404   5.984   2.595
 1931TIP3   OH227351   6.002   6.034   0.444
 1931TIP3    H127352   5.987   5.993   0.358
 1931TIP3    H227353   6.092   6.067   0.440
 1932TIP3   OH227354   4.153   2.219   1.555
 1932TIP3    H127355   4.079   2.197   1.612
 1932TIP3    H227356   4.224   2.242   1.615
 1933TIP3   OH227357   4.674   3.703   1.546
 1933TIP3    H127358   4.586   3.667   1.560
 1933TIP3    H227359   4.733   3.639   1.586
 1934TIP3   OH227360   6.351   6.509   7.451
 1934TIP3    H127361   6.319   6.599   7.454
 1934TIP3    H227362   6.361   6.490   7.357
 1935TIP3   OH227363   6.231   1.698   7.069
 1935TIP3    H127364   6.155   1.679   7.013
 1935TIP3    H227365   6.268   1.612   7.087
 1936TIP3   OH227366   6.272   5.020   6.754
 1936TIP3    H127367   6.348   5.060   6.714
 1936TIP3    H227368   6.210   5.008   6.682
 1937TIP3   OH227369   2.022   3.218   1.399
 1937TIP3    H127370   2.102   3.258   1.434
 1937TIP3    H227371   2.043   3.200   1.307
 1938TIP3   OH227372   6.267   5.929   0.932
 1938TIP3    H127373   6.182   5.891   0.906
 1938TIP3    H227374   6.254   5.956   1.022
 1939TIP3   OH227375   2.396   2.658   7.936
 1939TIP3    H127376   2.369   2.618   8.019
 1939TIP3    H227377   2.358   2.746   7.938
 1940TIP3   OH227378   0.212   3.370   1.391
 1940TIP3    H127379   0.258   3.348   1.310
 1940TIP3    H227380   0.125   3.332   1.380
 1941TIP3   OH227381   2.638   5.353   2.000
 1941TIP3    H127382   2.651   5.263   1.967
 1941TIP3    H227383   2.725   5.393   1.993
 1942TIP3   OH227384   0.448   6.553   8.267
 1942TIP3    H127385   0.490   6.611   8.204
 1942TIP3    H227386   0.511   6.482   8.282
 1943TIP3   OH227387   2.994   5.642   1.213
 1943TIP3    H127388   3.044   5.561   1.223
 1943TIP3    H227389   3.046   5.708   1.258
 1944TIP3   OH227390   4.974   3.256   8.560
 1944TIP3    H127391   4.885   3.291   8.549
 1944TIP3    H227392   4.983   3.245   0.023
 1945TIP3   OH227393   5.928   5.502   7.533
 1945TIP3    H127394   5.985   5.479   7.460
 1945TIP3    H227395   5.871   5.426   7.545
 1946TIP3   OH227396   6.361   0.657   1.313
 1946TIP3    H127397   6.389   0.609   1.236
 1946TIP3    H227398   6.270   0.681   1.294
 1947TIP3   OH227399   3.885   4.892   7.273
 1947TIP3    H127400   3.880   4.934   7.187
 1947TIP3    H227401   3.812   4.930   7.322
 1948TIP3   OH227402   1.606   6.568   7.070
 1948TIP3    H127403   1.617   6.566   6.975
 1948TIP3    H227404   1.671   6.631   7.100
 1949TIP3   OH227405   3.925   4.455   7.480
 1949TIP3    H127406   3.983   4.417   7.546
 1949TIP3    H227407   3.979   4.521   7.436
 1950TIP3   OH227408   3.875   6.743   6.297
 1950TIP3    H127409   3.893   6.650   6.284
 1950TIP3    H227410   3.796   6.745   6.350
 1951TIP3   OH227411   6.712   3.965   7.601
 1951TIP3    H127412   6.785   3.943   7.544
 1951TIP3    H227413   6.710   4.060   7.604
 1952TIP3   OH227414   5.350   5.837   0.090
 1952TIP3    H127415   5.422   5.864   0.032
 1952TIP3    H227416   5.309   5.918   0.118
 1953TIP3   OH227417   2.985   3.562   6.388
 1953TIP3    H127418   2.972   3.600   6.475
 1953TIP3    H227419   3.052   3.618   6.348
 1954TIP3   OH227420   4.269   1.437   1.691
 1954TIP3    H127421   4.215   1.516   1.691
 1954TIP3    H227422   4.350   1.463   1.735
 1955TIP3   OH227423   6.029   5.832   0.815
 1955TIP3    H127424   6.009   5.827   0.721
 1955TIP3    H227425   5.946   5.813   0.858
 1956TIP3   OH227426   2.560   6.523   8.040
 1956TIP3    H127427   2.574   6.613   8.010
 1956TIP3    H227428   2.575   6.527   8.134
 1957TIP3   OH227429   6.049   2.769   0.834
 1957TIP3    H127430   6.026   2.762   0.741
 1957TIP3    H227431   6.095   2.687   0.853
 1958TIP3   OH227432   0.905   2.568   2.029
 1958TIP3    H127433   0.975   2.505   2.048
 1958TIP3    H227434   0.934   2.649   2.070
 1959TIP3   OH227435   4.205   5.043   6.471
 1959TIP3    H127436   4.292   5.002   6.480
 1959TIP3    H227437   4.223   5.128   6.432
 1960TIP3   OH227438   3.324   6.591   0.285
 1960TIP3    H127439   3.407   6.618   0.246
 1960TIP3    H227440   3.313   6.648   0.361
 1961TIP3   OH227441   0.011   5.916   1.469
 1961TIP3    H127442   6.828   5.945   1.406
 1961TIP3    H227443   0.046   5.997   1.506
 1962TIP3   OH227444   1.938   3.661   7.074
 1962TIP3    H127445   1.899   3.598   7.134
 1962TIP3    H227446   1.955   3.738   7.127
 1963TIP3   OH227447   2.669   4.825   8.111
 1963TIP3    H127448   2.694   4.772   8.186
 1963TIP3    H227449   2.733   4.897   8.110
 1964TIP3   OH227450   4.046   5.436   0.837
 1964TIP3    H127451   4.090   5.456   0.754
 1964TIP3    H227452   3.959   5.475   0.827
 1965TIP3   OH227453   4.472   6.722   1.926
 1965TIP3    H127454   4.471   6.748   1.834
 1965TIP3    H227455   4.551   6.669   1.936
 1966TIP3   OH227456   1.575   2.763   6.945
 1966TIP3    H127457   1.574   2.694   6.879
 1966TIP3    H227458   1.567   2.717   7.029
 1967TIP3   OH227459   2.371   1.427   7.270
 1967TIP3    H127460   2.356   1.453   7.180
 1967TIP3    H227461   2.361   1.508   7.321
 1968TIP3   OH227462   4.439   5.334   7.677
 1968TIP3    H127463   4.481   5.286   7.748
 1968TIP3    H227464   4.369   5.277   7.647
 1969TIP3   OH227465   2.372   5.237   1.662
 1969TIP3    H127466   2.370   5.329   1.690
 1969TIP3    H227467   2.454   5.229   1.613
 1970TIP3   OH227468   3.653   2.606   0.747
 1970TIP3    H127469   3.608   2.580   0.666
 1970TIP3    H227470   3.703   2.529   0.773
 1971TIP3   OH227471   0.269   4.720   2.080
 1971TIP3    H127472   0.362   4.698   2.077
 1971TIP3    H227473   0.257   4.762   2.165
 1972TIP3   OH227474   3.908   0.814   0.115
 1972TIP3    H127475   3.888   0.797   0.023
 1972TIP3    H227476   3.998   0.847   0.114
 1973TIP3   OH227477   4.480   4.710   1.740
 1973TIP3    H127478   4.557   4.724   1.795
 1973TIP3    H227479   4.418   4.777   1.767
 1974TIP3   OH227480   0.431   4.756   0.071
 1974TIP3    H127481   0.394   4.734   0.157
 1974TIP3    H227482   0.519   4.787   0.091
 1975TIP3   OH227483   5.921   4.059   1.781
 1975TIP3    H127484   5.903   4.072   1.874
 1975TIP3    H227485   5.838   4.032   1.743
 1976TIP3   OH227486   0.574   2.989   8.111
 1976TIP3    H127487   0.665   2.984   8.139
 1976TIP3    H227488   0.571   3.063   8.050
 1977TIP3   OH227489   1.876   6.267   1.889
 1977TIP3    H127490   1.794   6.307   1.861
 1977TIP3    H227491   1.863   6.247   1.982
 1978TIP3   OH227492   0.951   4.782   0.150
 1978TIP3    H127493   1.007   4.711   0.119
 1978TIP3    H227494   1.004   4.861   0.139
 1979TIP3   OH227495   3.210   5.136   7.250
 1979TIP3    H127496   3.256   5.186   7.317
 1979TIP3    H227497   3.121   5.170   7.251
 1980TIP3   OH227498   6.145   3.301   8.337
 1980TIP3    H127499   6.229   3.281   8.297
 1980TIP3    H227500   6.081   3.290   8.266
 1981TIP3   OH227501   3.402   2.925   6.706
 1981TIP3    H127502   3.317   2.894   6.674
 1981TIP3    H227503   3.434   2.854   6.761
 1982TIP3   OH227504   2.678   5.353   1.122
 1982TIP3    H127505   2.759   5.305   1.104
 1982TIP3    H227506   2.701   5.445   1.110
 1983TIP3   OH227507   0.656   0.917   1.477
 1983TIP3    H127508   0.670   0.948   1.388
 1983TIP3    H227509   0.720   0.846   1.488
 1984TIP3   OH227510   4.236   3.186   1.399
 1984TIP3    H127511   4.197   3.155   1.482
 1984TIP3    H227512   4.165   3.176   1.335
 1985TIP3   OH227513   2.648   1.933   8.609
 1985TIP3    H127514   2.683   1.992   8.542
 1985TIP3    H227515   2.625   1.854   8.561
 1986TIP3   OH227516   3.391   6.145   1.467
 1986TIP3    H127517   3.336   6.140   1.546
 1986TIP3    H227518   3.477   6.114   1.496
 1987TIP3   OH227519   0.162   1.017   1.143
 1987TIP3    H127520   0.235   0.975   1.190
 1987TIP3    H227521   0.205   1.077   1.082
 1988TIP3   OH227522   1.111   1.382   7.837
 1988TIP3    H127523   1.051   1.318   7.874
 1988TIP3    H227524   1.061   1.463   7.835
 1989TIP3   OH227525   5.306   4.672   1.346
 1989TIP3    H127526   5.370   4.735   1.378
 1989TIP3    H227527   5.228   4.687   1.399
 1990TIP3   OH227528   0.381   5.332   7.857
 1990TIP3    H127529   0.339   5.339   7.943
 1990TIP3    H227530   0.323   5.381   7.798
 1991TIP3   OH227531   6.588   4.527   8.464
 1991TIP3    H127532   6.647   4.526   8.539
 1991TIP3    H227533   6.636   4.574   8.396
 1992TIP3   OH227534   3.435   3.520   6.436
 1992TIP3    H127535   3.469   3.594   6.486
 1992TIP3    H227536   3.350   3.501   6.475
 1993TIP3   OH227537   2.810   1.198   7.727
 1993TIP3    H127538   2.773   1.111   7.746
 1993TIP3    H227539   2.905   1.184   7.728
 1994TIP3   OH227540   2.985   1.563   1.424
 1994TIP3    H127541   3.061   1.559   1.366
 1994TIP3    H227542   2.913   1.528   1.370
 1995TIP3   OH227543   6.223   5.730   7.478
 1995TIP3    H127544   6.149   5.671   7.464
 1995TIP3    H227545   6.217   5.794   7.408
 1996TIP3   OH227546   4.290   1.510   8.499
 1996TIP3    H127547   4.323   1.428   8.461
 1996TIP3    H227548   4.207   1.485   8.541
 1997TIP3   OH227549   5.423   1.579   8.213
 1997TIP3    H127550   5.360   1.576   8.285
 1997TIP3    H227551   5.479   1.503   8.227
 1998TIP3   OH227552   1.650   3.686   1.618
 1998TIP3    H127553   1.628   3.728   1.534
 1998TIP3    H227554   1.729   3.730   1.647
 1999TIP3   OH227555   1.375   0.785   6.896
 1999TIP3    H127556   1.293   0.764   6.851
 1999TIP3    H227557   1.443   0.755   6.836
 2000TIP3   OH227558   3.100   1.844   1.433
 2000TIP3    H127559   3.161   1.852   1.507
 2000TIP3    H227560   3.146   1.789   1.370
 2001TIP3   OH227561   1.729   1.594   1.283
 2001TIP3    H127562   1.749   1.528   1.349
 2001TIP3    H227563   1.647   1.564   1.244
 2002TIP3   OH227564   3.825   6.630   0.735
 2002TIP3    H127565   3.824   6.535   0.751
 2002TIP3    H227566   3.768   6.643   0.660
 2003TIP3   OH227567   5.776   3.462   7.601
 2003TIP3    H127568   5.774   3.428   7.690
 2003TIP3    H227569   5.688   3.447   7.568
 2004TIP3   OH227570   0.746   3.781   0.139
 2004TIP3    H127571   0.723   3.774   0.232
 2004TIP3    H227572   0.748   3.691   0.108
 2005TIP3   OH227573   1.719   3.406   8.506
 2005TIP3    H127574   1.682   3.326   8.468
 2005TIP3    H227575   1.736   3.383   8.598
 2006TIP3   OH227576   0.289   5.490   1.867
 2006TIP3    H127577   0.351   5.487   1.939
 2006TIP3    H227578   0.204   5.507   1.909
 2007TIP3   OH227579   4.578   0.654   2.401
 2007TIP3    H127580   4.638   0.712   2.354
 2007TIP3    H227581   4.629   0.623   2.476
 2008TIP3   OH227582   5.795   4.106   6.954
 2008TIP3    H127583   5.747   4.163   6.894
 2008TIP3    H227584   5.814   4.028   6.902
 2009TIP3   OH227585   4.296   4.834   7.379
 2009TIP3    H127586   4.275   4.816   7.287
 2009TIP3    H227587   4.364   4.901   7.376
 2010TIP3   OH227588   0.845   0.604   1.124
 2010TIP3    H127589   0.797   0.672   1.077
 2010TIP3    H227590   0.819   0.615   1.216
 2011TIP3   OH227591   5.074   5.542   1.065
 2011TIP3    H127592   5.130   5.581   0.997
 2011TIP3    H227593   5.109   5.453   1.076
 2012TIP3   OH227594   3.146   4.865   7.271
 2012TIP3    H127595   3.160   4.959   7.281
 2012TIP3    H227596   3.068   4.858   7.215
 2013TIP3   OH227597   3.317   5.784   0.513
 2013TIP3    H127598   3.228   5.817   0.508
 2013TIP3    H227599   3.307   5.689   0.519
 2014TIP3   OH227600   0.936   1.221   8.019
 2014TIP3    H127601   0.911   1.145   7.966
 2014TIP3    H227602   0.908   1.198   8.108
 2015TIP3   OH227603   3.674   3.395   6.352
 2015TIP3    H127604   3.671   3.396   6.257
 2015TIP3    H227605   3.591   3.435   6.379
 2016TIP3   OH227606   0.680   5.544   1.532
 2016TIP3    H127607   0.660   5.450   1.539
 2016TIP3    H227608   0.768   5.546   1.494
 2017TIP3   OH227609   0.656   2.775   6.472
 2017TIP3    H127610   0.576   2.787   6.420
 2017TIP3    H227611   0.683   2.685   6.453
 2018TIP3   OH227612   2.468   3.977   1.472
 2018TIP3    H127613   2.393   4.024   1.437
 2018TIP3    H227614   2.497   4.029   1.547
 2019TIP3   OH227615   0.274   1.200   7.888
 2019TIP3    H127616   0.242   1.250   7.813
 2019TIP3    H227617   0.235   1.113   7.878
 2020TIP3   OH227618   0.830   6.024   6.641
 2020TIP3    H127619   0.881   6.058   6.714
 2020TIP3    H227620   0.842   6.088   6.571
 2021TIP3   OH227621   2.106   3.066   7.028
 2021TIP3    H127622   2.111   3.105   6.941
 2021TIP3    H227623   2.198   3.055   7.055
 2022TIP3   OH227624   2.761   0.290   6.994
 2022TIP3    H127625   2.731   0.205   7.026
 2022TIP3    H227626   2.854   0.293   7.018
 2023TIP3   OH227627   4.859   1.348   7.898
 2023TIP3    H127628   4.941   1.397   7.905
 2023TIP3    H227629   4.883   1.268   7.851
 2024TIP3   OH227630   6.172   5.358   2.137
 2024TIP3    H127631   6.189   5.349   2.231
 2024TIP3    H227632   6.259   5.353   2.097
 2025TIP3   OH227633   4.248   2.299   7.057
 2025TIP3    H127634   4.203   2.267   7.134
 2025TIP3    H227635   4.216   2.244   6.985
 2026TIP3   OH227636   4.331   0.244   6.858
 2026TIP3    H127637   4.344   0.338   6.873
 2026TIP3    H227638   4.239   0.237   6.833
 2027TIP3   OH227639   5.466   6.137   2.419
 2027TIP3    H127640   5.477   6.215   2.364
 2027TIP3    H227641   5.384   6.098   2.389
 2028TIP3   OH227642   5.175   4.334   0.563
 2028TIP3    H127643   5.126   4.256   0.538
 2028TIP3    H227644   5.266   4.312   0.544
 2029TIP3   OH227645   1.219   6.472   7.470
 2029TIP3    H127646   1.193   6.515   7.389
 2029TIP3    H227647   1.307   6.438   7.453
 2030TIP3   OH227648   0.984   1.624   1.289
 2030TIP3    H127649   1.038   1.547   1.273
 2030TIP3    H227650   0.949   1.648   1.203
 2031TIP3   OH227651   0.589   6.642   6.259
 2031TIP3    H127652   0.653   6.581   6.295
 2031TIP3    H227653   0.580   6.615   6.167
 2032TIP3   OH227654   6.839   0.363   8.235
 2032TIP3    H127655   0.023   0.323   8.290
 2032TIP3    H227656   6.874   0.450   8.215
 2033TIP3   OH227657   4.861   4.714   7.336
 2033TIP3    H127658   4.897   4.651   7.273
 2033TIP3    H227659   4.772   4.683   7.352
 2034TIP3   OH227660   0.577   5.828   6.794
 2034TIP3    H127661   0.512   5.839   6.863
 2034TIP3    H227662   0.525   5.813   6.715
 2035TIP3   OH227663   5.619   1.039   1.698
 2035TIP3    H127664   5.618   1.099   1.773
 2035TIP3    H227665   5.601   0.953   1.737
 2036TIP3   OH227666   0.596   4.627   1.258
 2036TIP3    H127667   0.560   4.715   1.250
 2036TIP3    H227668   0.558   4.593   1.339
 2037TIP3   OH227669   0.912   4.388   7.825
 2037TIP3    H127670   0.897   4.296   7.802
 2037TIP3    H227671   0.860   4.403   7.903
 2038TIP3   OH227672   6.740   4.615   2.145
 2038TIP3    H127673   6.749   4.531   2.188
 2038TIP3    H227674   6.781   4.678   2.205
 2039TIP3   OH227675   4.522   0.414   1.075
 2039TIP3    H127676   4.470   0.345   1.115
 2039TIP3    H227677   4.535   0.479   1.144
 2040TIP3   OH227678   0.238   5.068   2.183
 2040TIP3    H127679   0.270   5.009   2.251
 2040TIP3    H227680   0.147   5.040   2.168
 2041TIP3   OH227681   6.231   1.566   7.405
 2041TIP3    H127682   6.233   1.655   7.370
 2041TIP3    H227683   6.185   1.515   7.338
 2042TIP3   OH227684   6.099   5.046   8.322
 2042TIP3    H127685   6.011   5.034   8.357
 2042TIP3    H227686   6.089   5.028   8.228
 2043TIP3   OH227687   6.799   4.604   8.611
 2043TIP3    H127688   0.006   4.629   8.589
 2043TIP3    H227689   6.754   4.688   8.625
 2044TIP3   OH227690   6.603   5.390   1.069
 2044TIP3    H127691   6.559   5.378   1.154
 2044TIP3    H227692   6.635   5.303   1.047
 2045TIP3   OH227693   1.451   5.070   0.173
 2045TIP3    H127694   1.456   5.165   0.164
 2045TIP3    H227695   1.542   5.041   0.176
 2046TIP3   OH227696   0.631   1.009   1.214
 2046TIP3    H127697   0.725   1.019   1.203
 2046TIP3    H227698   0.595   1.022   1.127
 2047TIP3   OH227699   6.433   3.192   8.308
 2047TIP3    H127700   6.458   3.120   8.365
 2047TIP3    H227701   6.512   3.245   8.299
 2048TIP3   OH227702   4.444   1.303   7.540
 2048TIP3    H127703   4.406   1.330   7.624
 2048TIP3    H227704   4.449   1.383   7.489
 2049TIP3   OH227705   5.846   6.116   2.511
 2049TIP3    H127706   5.904   6.077   2.446
 2049TIP3    H227707   5.899   6.181   2.555
 2050TIP3   OH227708   2.776   3.434   7.576
 2050TIP3    H127709   2.728   3.355   7.553
 2050TIP3    H227710   2.854   3.403   7.621
 2051TIP3   OH227711   3.861   4.629   6.696
 2051TIP3    H127712   3.858   4.534   6.685
 2051TIP3    H227713   3.953   4.649   6.708
 2052TIP3   OH227714   0.648   4.888   0.893
 2052TIP3    H127715   0.642   4.823   0.964
 2052TIP3    H227716   0.742   4.900   0.880
 2053TIP3   OH227717   5.221   5.324   1.074
 2053TIP3    H127718   5.220   5.229   1.081
 2053TIP3    H227719   5.241   5.342   0.982
 2054TIP3   OH227720   2.836   3.534   0.318
 2054TIP3    H127721   2.860   3.534   0.225
 2054TIP3    H227722   2.802   3.447   0.334
 2055TIP3   OH227723   2.278   5.721   7.954
 2055TIP3    H127724   2.361   5.737   7.911
 2055TIP3    H227725   2.213   5.760   7.896
 2056TIP3   OH227726   4.644   3.300   6.305
 2056TIP3    H127727   4.612   3.345   6.227
 2056TIP3    H227728   4.611   3.210   6.296
 2057TIP3   OH227729   3.491   2.064   7.942
 2057TIP3    H127730   3.471   2.004   8.014
 2057TIP3    H227731   3.569   2.110   7.970
 2058TIP3   OH227732   4.168   2.465   8.021
 2058TIP3    H127733   4.089   2.450   7.970
 2058TIP3    H227734   4.229   2.398   7.991
 2059TIP3   OH227735   3.482   6.058   2.004
 2059TIP3    H127736   3.417   6.102   1.950
 2059TIP3    H227737   3.432   5.998   2.058
 2060TIP3   OH227738   6.348   2.093   6.432
 2060TIP3    H127739   6.288   2.032   6.390
 2060TIP3    H227740   6.350   2.169   6.374
 2061TIP3   OH227741   0.987   1.110   7.698
 2061TIP3    H127742   0.916   1.172   7.682
 2061TIP3    H227743   1.007   1.073   7.612
 2062TIP3   OH227744   0.470   2.109   2.009
 2062TIP3    H127745   0.502   2.019   2.013
 2062TIP3    H227746   0.381   2.101   1.974
 2063TIP3   OH227747   1.080   4.258   8.564
 2063TIP3    H127748   1.075   4.186   8.501
 2063TIP3    H227749   0.989   4.285   8.577
 2064TIP3   OH227750   0.227   6.442   7.538
 2064TIP3    H127751   0.165   6.396   7.482
 2064TIP3    H227752   0.283   6.490   7.476
 2065TIP3   OH227753   1.138   5.250   0.734
 2065TIP3    H127754   1.187   5.285   0.809
 2065TIP3    H227755   1.196   5.184   0.697
 2066TIP3   OH227756   6.829   5.493   0.941
 2066TIP3    H127757   6.750   5.475   0.992
 2066TIP3    H227758   0.018   5.478   1.002
 2067TIP3   OH227759   2.421   0.706   2.055
 2067TIP3    H127760   2.431   0.799   2.076
 2067TIP3    H227761   2.327   0.696   2.038
 2068TIP3   OH227762   6.718   2.006   1.190
 2068TIP3    H127763   6.742   1.946   1.119
 2068TIP3    H227764   6.782   1.989   1.259
 2069TIP3   OH227765   2.797   6.131   8.425
 2069TIP3    H127766   2.847   6.055   8.455
 2069TIP3    H227767   2.787   6.117   8.331
 2070TIP3   OH227768   2.746   6.636   2.456
 2070TIP3    H127769   2.744   6.698   2.529
 2070TIP3    H227770   2.706   6.557   2.490
 2071TIP3   OH227771   3.064   0.780   7.715
 2071TIP3    H127772   3.149   0.807   7.749
 2071TIP3    H227773   3.066   0.804   7.622
 2072TIP3   OH227774   3.288   1.678   6.557
 2072TIP3    H127775   3.360   1.714   6.505
 2072TIP3    H227776   3.230   1.638   6.492
 2073TIP3   OH227777   3.375   3.609   0.448
 2073TIP3    H127778   3.333   3.609   0.362
 2073TIP3    H227779   3.454   3.660   0.436
 2074TIP3   OH227780   1.260   1.415   7.133
 2074TIP3    H127781   1.237   1.398   7.042
 2074TIP3    H227782   1.206   1.353   7.183
 2075TIP3   OH227783   3.279   1.724   8.475
 2075TIP3    H127784   3.232   1.656   8.522
 2075TIP3    H227785   3.275   1.698   8.383
 2076TIP3   OH227786   3.324   0.591   7.421
 2076TIP3    H127787   3.261   0.598   7.493
 2076TIP3    H227788   3.374   0.512   7.441
 2077TIP3   OH227789   4.661   4.764   0.109
 2077TIP3    H127790   4.620   4.829   0.165
 2077TIP3    H227791   4.754   4.787   0.110
 2078TIP3   OH227792   6.349   1.928   7.998
 2078TIP3    H127793   6.387   1.997   8.053
 2078TIP3    H227794   6.410   1.920   7.925
 2079TIP3   OH227795   0.155   2.987   1.357
 2079TIP3    H127796   0.202   2.986   1.274
 2079TIP3    H227797   0.071   2.946   1.338
 2080TIP3   OH227798   0.231   1.039   0.660
 2080TIP3    H127799   0.214   0.960   0.608
 2080TIP3    H227800   0.229   1.110   0.596
 2081TIP3   OH227801   2.987   6.666   1.043
 2081TIP3    H127802   3.051   6.626   0.985
 2081TIP3    H227803   2.904   6.627   1.017
 2082TIP3   OH227804   3.907   3.802   1.493
 2082TIP3    H127805   3.826   3.854   1.481
 2082TIP3    H227806   3.934   3.781   1.404
 2083TIP3   OH227807   6.366   2.047   1.128
 2083TIP3    H127808   6.383   2.031   1.035
 2083TIP3    H227809   6.409   1.975   1.173
 2084TIP3   OH227810   5.171   1.050   8.057
 2084TIP3    H127811   5.242   1.024   8.115
 2084TIP3    H227812   5.102   0.986   8.073
 2085TIP3   OH227813   3.312   1.469   6.788
 2085TIP3    H127814   3.380   1.536   6.789
 2085TIP3    H227815   3.327   1.421   6.706
 2086TIP3   OH227816   2.486   3.568   1.020
 2086TIP3    H127817   2.402   3.539   1.057
 2086TIP3    H227818   2.551   3.531   1.079
 2087TIP3   OH227819   3.943   3.419   6.651
 2087TIP3    H127820   3.949   3.476   6.574
 2087TIP3    H227821   3.868   3.363   6.633
 2088TIP3   OH227822   1.833   1.590   7.565
 2088TIP3    H127823   1.804   1.520   7.624
 2088TIP3    H227824   1.902   1.550   7.513
 2089TIP3   OH227825   4.084   2.948   0.761
 2089TIP3    H127826   4.005   2.911   0.722
 2089TIP3    H227827   4.146   2.875   0.765
 2090TIP3   OH227828   5.849   3.671   8.603
 2090TIP3    H127829   5.901   3.700   8.528
 2090TIP3    H227830   5.782   3.740   8.613
 2091TIP3   OH227831   0.209   3.816   0.730
 2091TIP3    H127832   0.176   3.892   0.777
 2091TIP3    H227833   0.254   3.852   0.654
 2092TIP3   OH227834   4.889   4.733   6.848
 2092TIP3    H127835   4.940   4.653   6.839
 2092TIP3    H227836   4.894   4.775   6.762
 2093TIP3   OH227837   0.344   1.542   8.368
 2093TIP3    H127838   0.420   1.510   8.320
 2093TIP3    H227839   0.349   1.498   8.453
 2094TIP3   OH227840   1.208   3.015   8.082
 2094TIP3    H127841   1.294   2.987   8.049
 2094TIP3    H227842   1.163   2.934   8.103
 2095TIP3   OH227843   5.618   1.710   7.590
 2095TIP3    H127844   5.622   1.689   7.684
 2095TIP3    H227845   5.704   1.686   7.557
 2096TIP3   OH227846   2.116   5.037   7.091
 2096TIP3    H127847   2.114   5.123   7.048
 2096TIP3    H227848   2.037   4.993   7.059
 2097TIP3   OH227849   5.942   4.920   0.153
 2097TIP3    H127850   5.871   4.946   0.210
 2097TIP3    H227851   6.022   4.942   0.202
 2098TIP3   OH227852   3.136   4.357   8.374
 2098TIP3    H127853   3.093   4.357   8.459
 2098TIP3    H227854   3.070   4.320   8.314
 2099TIP3   OH227855   2.040   1.095   8.086
 2099TIP3    H127856   2.101   1.022   8.078
 2099TIP3    H227857   1.958   1.062   8.049
 2100TIP3   OH227858   1.596   0.078   0.525
 2100TIP3    H127859   1.506   0.107   0.510
 2100TIP3    H227860   1.649   0.138   0.473
 2101TIP3   OH227861   5.512   6.591   2.457
 2101TIP3    H127862   5.604   6.568   2.445
 2101TIP3    H227863   5.510   6.636   2.542
 2102TIP3   OH227864   4.902   3.849   0.078
 2102TIP3    H127865   4.858   3.897   0.008
 2102TIP3    H227866   4.939   3.917   0.134
 2103TIP3   OH227867   6.841   4.151   7.834
 2103TIP3    H127868   6.782   4.133   7.907
 2103TIP3    H227869   6.784   4.158   7.757
 2104TIP3   OH227870   0.289   1.144   0.910
 2104TIP3    H127871   0.329   1.230   0.899
 2104TIP3    H227872   0.279   1.110   0.821
 2105TIP3   OH227873   3.339   5.543   0.116
 2105TIP3    H127874   3.386   5.550   0.199
 2105TIP3    H227875   3.300   5.456   0.118
 2106TIP3   OH227876   5.357   1.654   0.835
 2106TIP3    H127877   5.293   1.707   0.883
 2106TIP3    H227878   5.361   1.694   0.748
 2107TIP3   OH227879   2.487   1.021   8.313
 2107TIP3    H127880   2.480   0.971   8.231
 2107TIP3    H227881   2.466   1.111   8.288
 2108TIP3   OH227882   6.544   5.042   8.545
 2108TIP3    H127883   6.453   5.020   8.526
 2108TIP3    H227884   6.584   4.960   8.573
 2109TIP3   OH227885   2.775   4.373   0.500
 2109TIP3    H127886   2.831   4.412   0.567
 2109TIP3    H227887   2.732   4.448   0.459
 2110TIP3   OH227888   2.278   5.695   8.320
 2110TIP3    H127889   2.282   5.603   8.346
 2110TIP3    H227890   2.185   5.715   8.313
 2111TIP3   OH227891   4.280   1.312   1.028
 2111TIP3    H127892   4.221   1.385   1.008
 2111TIP3    H227893   4.277   1.257   0.950
 2112TIP3   OH227894   2.060   1.261   1.804
 2112TIP3    H127895   2.048   1.197   1.874
 2112TIP3    H227896   2.063   1.345   1.849
 2113TIP3   OH227897   0.267   0.525   0.403
 2113TIP3    H127898   0.255   0.431   0.413
 2113TIP3    H227899   0.192   0.553   0.351
 2114TIP3   OH227900   3.561   5.358   7.833
 2114TIP3    H127901   3.540   5.298   7.762
 2114TIP3    H227902   3.639   5.404   7.803
 2115TIP3   OH227903   5.143   1.256   2.514
 2115TIP3    H127904   5.148   1.296   2.601
 2115TIP3    H227905   5.234   1.256   2.482
 2116TIP3   OH227906   1.455   4.549   1.108
 2116TIP3    H127907   1.456   4.608   1.183
 2116TIP3    H227908   1.513   4.477   1.133
 2117TIP3   OH227909   6.582   0.038   1.324
 2117TIP3    H127910   6.523   0.063   1.394
 2117TIP3    H227911   6.584   6.825   1.327
 2118TIP3   OH227912   5.060   6.750   0.412
 2118TIP3    H127913   5.002   6.819   0.442
 2118TIP3    H227914   5.130   6.748   0.476
 2119TIP3   OH227915   5.575   0.966   7.561
 2119TIP3    H127916   5.617   1.029   7.502
 2119TIP3    H227917   5.638   0.895   7.571
 2120TIP3   OH227918   4.913   5.738   1.153
 2120TIP3    H127919   4.964   5.662   1.124
 2120TIP3    H227920   4.889   5.784   1.073
 2121TIP3   OH227921   1.306   0.805   0.460
 2121TIP3    H127922   1.389   0.828   0.419
 2121TIP3    H227923   1.282   0.882   0.512
 2122TIP3   OH227924   5.937   3.641   7.338
 2122TIP3    H127925   5.975   3.554   7.347
 2122TIP3    H227926   5.852   3.626   7.297
 2123TIP3   OH227927   4.765   5.860   0.639
 2123TIP3    H127928   4.778   5.925   0.570
 2123TIP3    H227929   4.746   5.779   0.593
 2124TIP3   OH227930   5.409   3.863   2.106
 2124TIP3    H127931   5.417   3.836   2.197
 2124TIP3    H227932   5.382   3.955   2.110
 2125TIP3   OH227933   0.939   3.549   1.905
 2125TIP3    H127934   1.001   3.507   1.965
 2125TIP3    H227935   0.923   3.483   1.838
 2126TIP3   OH227936   3.209   0.256   1.543
 2126TIP3    H127937   3.279   0.194   1.562
 2126TIP3    H227938   3.173   0.279   1.629
 2127TIP3   OH227939   6.240   0.669   1.820
 2127TIP3    H127940   6.268   0.689   1.731
 2127TIP3    H227941   6.249   0.752   1.868
 2128TIP3   OH227942   2.638   0.503   7.113
 2128TIP3    H127943   2.674   0.437   7.054
 2128TIP3    H227944   2.646   0.585   7.065
 2129TIP3   OH227945   6.319   0.617   7.367
 2129TIP3    H127946   6.370   0.685   7.323
 2129TIP3    H227947   6.250   0.664   7.414
 2130TIP3   OH227948   0.467   3.161   1.350
 2130TIP3    H127949   0.486   3.166   1.444
 2130TIP3    H227950   0.486   3.071   1.326
 2131TIP3   OH227951   3.289   1.464   1.411
 2131TIP3    H127952   3.293   1.557   1.388
 2131TIP3    H227953   3.290   1.418   1.327
 2132TIP3   OH227954   2.493   4.383   7.268
 2132TIP3    H127955   2.522   4.310   7.213
 2132TIP3    H227956   2.474   4.344   7.353
 2133TIP3   OH227957   4.852   0.103   6.331
 2133TIP3    H127958   4.839   0.186   6.286
 2133TIP3    H227959   4.766   0.063   6.333
 2134TIP3   OH227960   5.233   1.702   0.091
 2134TIP3    H127961   5.227   1.658   0.175
 2134TIP3    H227962   5.277   1.639   0.034
 2135TIP3   OH227963   0.539   0.577   6.656
 2135TIP3    H127964   0.446   0.567   6.636
 2135TIP3    H227965   0.576   0.489   6.649
 2136TIP3   OH227966   0.697   2.975   7.514
 2136TIP3    H127967   0.678   3.040   7.445
 2136TIP3    H227968   0.709   2.893   7.466
 2137TIP3   OH227969   2.741   1.038   2.294
 2137TIP3    H127970   2.831   1.054   2.267
 2137TIP3    H227971   2.691   1.107   2.251
 2138TIP3   OH227972   5.346   5.663   0.591
 2138TIP3    H127973   5.341   5.649   0.686
 2138TIP3    H227974   5.438   5.648   0.569
 2139TIP3   OH227975   4.635   6.162   8.174
 2139TIP3    H127976   4.592   6.220   8.237
 2139TIP3    H227977   4.677   6.095   8.227
 2140TIP3   OH227978   6.412   3.142   8.035
 2140TIP3    H127979   6.421   3.175   8.124
 2140TIP3    H227980   6.498   3.103   8.015
 2141TIP3   OH227981   6.654   4.081   2.218
 2141TIP3    H127982   6.727   4.058   2.275
 2141TIP3    H227983   6.602   4.001   2.211
 2142TIP3   OH227984   5.392   1.818   1.846
 2142TIP3    H127985   5.438   1.880   1.903
 2142TIP3    H227986   5.462   1.770   1.802
 2143TIP3   OH227987   5.964   3.527   7.053
 2143TIP3    H127988   5.959   3.500   6.961
 2143TIP3    H227989   6.049   3.495   7.083
 2144TIP3   OH227990   0.887   6.807   7.905
 2144TIP3    H127991   0.920   6.829   7.818
 2144TIP3    H227992   0.861   0.009   7.943
 2145TIP3   OH227993   0.109   3.753   0.312
 2145TIP3    H127994   0.159   3.785   0.236
 2145TIP3    H227995   0.126   3.659   0.313
 2146TIP3   OH227996   5.466   5.576   1.277
 2146TIP3    H127997   5.535   5.580   1.344
 2146TIP3    H227998   5.389   5.546   1.324
 2147TIP3   OH227999   5.971   0.914   0.503
 2147TIP3    H128000   6.056   0.938   0.540
 2147TIP3    H228001   5.907   0.960   0.558
 2148TIP3   OH228002   0.459   1.816   8.091
 2148TIP3    H128003   0.518   1.789   8.162
 2148TIP3    H228004   0.451   1.911   8.101
 2149TIP3   OH228005   5.653   4.087   1.405
 2149TIP3    H128006   5.571   4.132   1.386
 2149TIP3    H228007   5.702   4.089   1.323
 2150TIP3   OH228008   5.063   4.751   8.094
 2150TIP3    H128009   4.990   4.722   8.039
 2150TIP3    H228010   5.101   4.824   8.046
 2151TIP3   OH228011   3.193   3.786   1.637
 2151TIP3    H128012   3.155   3.720   1.580
 2151TIP3    H228013   3.171   3.758   1.726
 2152TIP3   OH228014   1.182   6.187   0.792
 2152TIP3    H128015   1.192   6.229   0.877
 2152TIP3    H228016   1.124   6.113   0.808
 2153TIP3   OH228017   1.789   2.528   1.373
 2153TIP3    H128018   1.827   2.517   1.286
 2153TIP3    H228019   1.762   2.440   1.399
 2154TIP3   OH228020   1.796   6.240   6.473
 2154TIP3    H128021   1.880   6.196   6.459
 2154TIP3    H228022   1.731   6.170   6.467
 2155TIP3   OH228023   1.327   3.533   7.094
 2155TIP3    H128024   1.307   3.507   7.004
 2155TIP3    H228025   1.374   3.615   7.086
 2156TIP3   OH228026   0.568   4.934   1.616
 2156TIP3    H128027   0.486   4.918   1.569
 2156TIP3    H228028   0.546   4.921   1.708
 2157TIP3   OH228029   4.276   0.627   0.255
 2157TIP3    H128030   4.359   0.675   0.257
 2157TIP3    H228031   4.286   0.565   0.183
 2158TIP3   OH228032   2.486   0.121   1.358
 2158TIP3    H128033   2.412   0.158   1.310
 2158TIP3    H228034   2.461   0.128   1.450
 2159TIP3   OH228035   6.258   6.779   7.443
 2159TIP3    H128036   6.301   6.800   7.526
 2159TIP3    H228037   6.226   6.864   7.411
 2160TIP3   OH228038   6.465   2.663   0.985
 2160TIP3    H128039   6.405   2.726   1.026
 2160TIP3    H228040   6.523   2.716   0.931
 2161TIP3   OH228041   2.021   6.112   0.006
 2161TIP3    H128042   1.973   6.042   8.593
 2161TIP3    H228043   2.012   6.187   8.579
 2162TIP3   OH228044   3.923   2.650   6.852
 2162TIP3    H128045   3.880   2.724   6.810
 2162TIP3    H228046   4.016   2.661   6.831
 2163TIP3   OH228047   5.412   1.632   7.117
 2163TIP3    H128048   5.446   1.567   7.179
 2163TIP3    H228049   5.408   1.585   7.034
 2164TIP3   OH228050   1.856   0.183   8.028
 2164TIP3    H128051   1.942   0.216   8.054
 2164TIP3    H228052   1.865   0.161   7.935
 2165TIP3   OH228053   3.507   5.254   2.042
 2165TIP3    H128054   3.440   5.188   2.026
 2165TIP3    H228055   3.458   5.335   2.058
 2166TIP3   OH228056   3.494   5.891   7.657
 2166TIP3    H128057   3.549   5.940   7.595
 2166TIP3    H228058   3.554   5.869   7.729
 2167TIP3   OH228059   6.411   1.223   8.516
 2167TIP3    H128060   6.348   1.293   8.534
 2167TIP3    H228061   6.484   1.240   8.575
 2168TIP3   OH228062   6.339   6.274   0.161
 2168TIP3    H128063   6.424   6.302   0.128
 2168TIP3    H228064   6.277   6.297   0.092
 2169TIP3   OH228065   2.283   3.886   0.874
 2169TIP3    H128066   2.339   3.926   0.807
 2169TIP3    H228067   2.234   3.818   0.826
 2170TIP3   OH228068   4.818   0.587   2.511
 2170TIP3    H128069   4.877   0.511   2.507
 2170TIP3    H228070   4.804   0.603   2.604
 2171TIP3   OH228071   2.863   0.069   0.440
 2171TIP3    H128072   2.876   0.159   0.469
 2171TIP3    H228073   2.899   0.016   0.510
 2172TIP3   OH228074   4.655   0.670   7.359
 2172TIP3    H128075   4.662   0.587   7.312
 2172TIP3    H228076   4.671   0.736   7.292
 2173TIP3   OH228077   2.910   6.033   1.165
 2173TIP3    H128078   3.002   6.018   1.187
 2173TIP3    H228079   2.861   5.982   1.230
 2174TIP3   OH228080   4.618   0.160   7.324
 2174TIP3    H128081   4.542   0.129   7.277
 2174TIP3    H228082   4.601   0.137   7.416
 2175TIP3   OH228083   4.268   4.112   6.828
 2175TIP3    H128084   4.271   4.080   6.918
 2175TIP3    H228085   4.176   4.135   6.814
 2176TIP3   OH228086   1.232   6.056   7.900
 2176TIP3    H128087   1.272   5.971   7.881
 2176TIP3    H228088   1.232   6.061   7.996
 2177TIP3   OH228089   2.125   1.505   8.627
 2177TIP3    H128090   2.064   1.493   0.069
 2177TIP3    H228091   2.172   1.585   0.017
 2178TIP3   OH228092   2.624   0.450   7.850
 2178TIP3    H128093   2.570   0.528   7.860
 2178TIP3    H228094   2.561   0.377   7.852
 2179TIP3   OH228095   5.317   1.157   7.575
 2179TIP3    H128096   5.371   1.079   7.588
 2179TIP3    H228097   5.253   1.153   7.646
 2180TIP3   OH228098   1.535   5.617   8.037
 2180TIP3    H128099   1.580   5.533   8.022
 2180TIP3    H228100   1.600   5.683   8.013
 2181TIP3   OH228101   0.753   4.746   8.493
 2181TIP3    H128102   0.735   4.768   8.401
 2181TIP3    H228103   0.714   4.818   8.542
 2182TIP3   OH228104   3.468   2.659   0.940
 2182TIP3    H128105   3.528   2.626   0.873
 2182TIP3    H228106   3.522   2.663   1.019
 2183TIP3   OH228107   2.857   5.995   0.145
 2183TIP3    H128108   2.836   6.043   0.225
 2183TIP3    H228109   2.947   6.023   0.124
 2184TIP3   OH228110   3.029   0.633   0.076
 2184TIP3    H128111   3.064   0.603   0.159
 2184TIP3    H228112   3.042   0.728   0.078
 2185TIP3   OH228113   5.652   1.081   6.456
 2185TIP3    H128114   5.720   1.098   6.390
 2185TIP3    H228115   5.699   1.082   6.539
 2186TIP3   OH228116   2.963   1.385   7.491
 2186TIP3    H128117   3.059   1.388   7.485
 2186TIP3    H228118   2.939   1.473   7.521
 2187TIP3   OH228119   6.366   2.567   7.636
 2187TIP3    H128120   6.438   2.629   7.626
 2187TIP3    H228121   6.359   2.523   7.551
 2188TIP3   OH228122   1.061   5.890   7.418
 2188TIP3    H128123   1.118   5.926   7.487
 2188TIP3    H228124   1.061   5.956   7.350
 2189TIP3   OH228125   2.039   4.995   7.818
 2189TIP3    H128126   2.067   4.955   7.735
 2189TIP3    H228127   2.118   5.040   7.849
 2190TIP3   OH228128   1.055   1.703   2.171
 2190TIP3    H128129   1.128   1.756   2.139
 2190TIP3    H228130   0.984   1.766   2.185
 2191TIP3   OH228131   4.962   2.019   1.039
 2191TIP3    H128132   4.894   2.063   0.988
 2191TIP3    H228133   5.022   2.089   1.063
 2192TIP3   OH228134   1.522   4.674   0.683
 2192TIP3    H128135   1.468   4.697   0.607
 2192TIP3    H228136   1.460   4.636   0.745
 2193TIP3   OH228137   4.719   3.858   6.485
 2193TIP3    H128138   4.727   3.794   6.556
 2193TIP3    H228139   4.809   3.870   6.454
 2194TIP3   OH228140   3.943   4.612   2.245
 2194TIP3    H128141   3.987   4.681   2.195
 2194TIP3    H228142   3.996   4.604   2.324
 2195TIP3   OH228143   5.739   6.240   0.000
 2195TIP3    H128144   5.773   6.178   0.065
 2195TIP3    H228145   5.744   6.194   8.548
 2196TIP3   OH228146   0.933   5.794   6.258
 2196TIP3    H128147   0.957   5.701   6.263
 2196TIP3    H228148   0.932   5.823   6.349
 2197TIP3   OH228149   1.776   5.482   0.076
 2197TIP3    H128150   1.680   5.485   0.083
 2197TIP3    H228151   1.802   5.414   0.138
 2198TIP3   OH228152   2.811   4.398   8.392
 2198TIP3    H128153   2.853   4.365   8.312
 2198TIP3    H228154   2.740   4.337   8.409
 2199TIP3   OH228155   5.312   1.652   6.460
 2199TIP3    H128156   5.339   1.723   6.402
 2199TIP3    H228157   5.393   1.608   6.484
 2200TIP3   OH228158   3.705   6.021   8.593
 2200TIP3    H128159   3.778   6.081   8.598
 2200TIP3    H228160   3.740   5.944   8.547
 2201TIP3   OH228161   5.276   0.200   1.807
 2201TIP3    H128162   5.341   0.188   1.877
 2201TIP3    H228163   5.298   0.285   1.768
 2202TIP3   OH228164   2.780   0.926   1.439
 2202TIP3    H128165   2.843   0.873   1.390
 2202TIP3    H228166   2.787   1.013   1.401
 2203TIP3   OH228167   6.543   6.640   0.036
 2203TIP3    H128168   6.489   6.686   8.603
 2203TIP3    H228169   6.521   6.681   0.119
 2204TIP3   OH228170   3.007   5.367   0.728
 2204TIP3    H128171   2.959   5.291   0.759
 2204TIP3    H228172   3.021   5.350   0.635
 2205TIP3   OH228173   2.816   5.373   0.314
 2205TIP3    H128174   2.781   5.459   0.335
 2205TIP3    H228175   2.776   5.350   0.230
 2206TIP3   OH228176   0.956   2.452   1.336
 2206TIP3    H128177   0.947   2.389   1.408
 2206TIP3    H228178   1.033   2.423   1.288
 2207TIP3   OH228179   2.985   5.660   0.302
 2207TIP3    H128180   3.006   5.746   0.264
 2207TIP3    H228181   2.933   5.680   0.379
 2208TIP3   OH228182   1.983   2.040   7.282
 2208TIP3    H128183   2.068   2.082   7.297
 2208TIP3    H228184   1.926   2.111   7.253
 2209TIP3   OH228185   3.510   6.438   1.195
 2209TIP3    H128186   3.582   6.378   1.214
 2209TIP3    H228187   3.441   6.383   1.160
 2210TIP3   OH228188   6.074   0.229   1.158
 2210TIP3    H128189   6.130   0.264   1.088
 2210TIP3    H228190   6.132   0.171   1.207
 2211TIP3   OH228191   1.038   3.762   0.713
 2211TIP3    H128192   1.115   3.711   0.686
 2211TIP3    H228193   1.039   3.839   0.656
 2212TIP3   OH228194   3.026   2.612   1.113
 2212TIP3    H128195   3.018   2.696   1.159
 2212TIP3    H228196   3.106   2.621   1.061
 2213TIP3   OH228197   4.167   5.569   7.884
 2213TIP3    H128198   4.122   5.492   7.849
 2213TIP3    H228199   4.165   5.632   7.811
 2214TIP3   OH228200   4.334   1.781   8.444
 2214TIP3    H128201   4.308   1.690   8.457
 2214TIP3    H228202   4.290   1.830   8.514
 2215TIP3   OH228203   0.121   6.150   1.548
 2215TIP3    H128204   0.054   6.216   1.565
 2215TIP3    H228205   0.169   6.143   1.630
 2216TIP3   OH228206   1.080   0.749   0.305
 2216TIP3    H128207   1.169   0.783   0.305
 2216TIP3    H228208   1.091   0.654   0.316
 2217TIP3   OH228209   5.853   5.920   7.696
 2217TIP3    H128210   5.894   5.846   7.740
 2217TIP3    H228211   5.834   5.888   7.608
 2218TIP3   OH228212   2.379   1.708   1.314
 2218TIP3    H128213   2.403   1.687   1.224
 2218TIP3    H228214   2.374   1.623   1.358
 2219TIP3   OH228215   5.747   0.724   7.021
 2219TIP3    H128216   5.769   0.683   6.938
 2219TIP3    H228217   5.716   0.652   7.077
 2220TIP3   OH228218   1.196   4.625   0.188
 2220TIP3    H128219   1.203   4.529   0.191
 2220TIP3    H228220   1.178   4.650   0.278
 2221TIP3   OH228221   5.988   5.584   0.069
 2221TIP3    H128222   5.969   5.546   0.155
 2221TIP3    H228223   5.903   5.585   0.025
 2222TIP3   OH228224   2.797   2.492   1.957
 2222TIP3    H128225   2.710   2.473   1.922
 2222TIP3    H228226   2.798   2.586   1.970
 2223TIP3   OH228227   1.197   2.800   7.730
 2223TIP3    H128228   1.180   2.880   7.680
 2223TIP3    H228229   1.133   2.737   7.697
 2224TIP3   OH228230   1.987   4.484   0.630
 2224TIP3    H128231   1.948   4.568   0.606
 2224TIP3    H228232   1.975   4.428   0.554
 2225TIP3   OH228233   0.651   1.242   2.343
 2225TIP3    H128234   0.743   1.263   2.354
 2225TIP3    H228235   0.635   1.170   2.405
 2226TIP3   OH228236   4.030   6.444   8.414
 2226TIP3    H128237   3.955   6.503   8.426
 2226TIP3    H228238   4.083   6.456   8.493
 2227TIP3   OH228239   5.704   2.222   8.542
 2227TIP3    H128240   5.692   2.285   8.614
 2227TIP3    H228241   5.775   2.166   8.572
 2228TIP3   OH228242   2.370   6.819   2.084
 2228TIP3    H128243   2.404   6.795   2.170
 2228TIP3    H228244   2.441   6.868   2.043
 2229TIP3   OH228245   4.193   4.007   2.237
 2229TIP3    H128246   4.184   3.965   2.152
 2229TIP3    H228247   4.115   3.980   2.286
 2230TIP3   OH228248   3.438   5.634   6.842
 2230TIP3    H128249   3.439   5.543   6.872
 2230TIP3    H228250   3.382   5.679   6.905
 2231TIP3   OH228251   6.203   3.846   7.409
 2231TIP3    H128252   6.149   3.769   7.429
 2231TIP3    H228253   6.161   3.887   7.334
 2232TIP3   OH228254   4.801   2.470   6.122
 2232TIP3    H128255   4.849   2.537   6.171
 2232TIP3    H228256   4.726   2.517   6.084
 2233TIP3   OH228257   1.543   1.473   1.878
 2233TIP3    H128258   1.613   1.509   1.823
 2233TIP3    H228259   1.483   1.546   1.891
 2234TIP3   OH228260   4.241   4.563   1.032
 2234TIP3    H128261   4.156   4.561   0.987
 2234TIP3    H228262   4.288   4.487   0.996
 2235TIP3   OH228263   0.576   1.726   1.519
 2235TIP3    H128264   0.655   1.745   1.468
 2235TIP3    H228265   0.598   1.647   1.569
 2236TIP3   OH228266   3.859   0.511   7.111
 2236TIP3    H128267   3.932   0.458   7.080
 2236TIP3    H228268   3.847   0.578   7.044
 2237TIP3   OH228269   5.746   5.108   0.597
 2237TIP3    H128270   5.705   5.167   0.660
 2237TIP3    H228271   5.770   5.031   0.648
 2238TIP3   OH228272   3.188   0.338   8.312
 2238TIP3    H128273   3.213   0.362   8.401
 2238TIP3    H228274   3.102   0.378   8.299
 2239TIP3   OH228275   5.534   5.833   8.473
 2239TIP3    H128276   5.572   5.909   8.428
 2239TIP3    H228277   5.488   5.785   8.404
 2240TIP3   OH228278   1.167   3.838   6.324
 2240TIP3    H128279   1.160   3.927   6.358
 2240TIP3    H228280   1.108   3.786   6.380
 2241TIP3   OH228281   2.677   6.605   2.033
 2241TIP3    H128282   2.705   6.668   2.099
 2241TIP3    H228283   2.662   6.524   2.081
 2242TIP3   OH228284   4.374   1.008   0.935
 2242TIP3    H128285   4.321   1.069   0.882
 2242TIP3    H228286   4.462   1.045   0.933
 2243TIP3   OH228287   3.128   6.023   0.087
 2243TIP3    H128288   3.172   5.951   0.132
 2243TIP3    H228289   3.198   6.083   0.064
 2244TIP3   OH228290   6.164   6.253   7.806
 2244TIP3    H128291   6.233   6.191   7.829
 2244TIP3    H228292   6.161   6.251   7.710
 2245TIP3   OH228293   6.209   0.955   1.909
 2245TIP3    H128294   6.161   0.977   1.989
 2245TIP3    H228295   6.154   0.987   1.838
 2246TIP3   OH228296   2.803   6.386   0.385
 2246TIP3    H128297   2.754   6.418   0.309
 2246TIP3    H228298   2.785   6.292   0.386
 2247TIP3   OH228299   0.139   0.510   0.654
 2247TIP3    H128300   0.178   0.542   0.573
 2247TIP3    H228301   0.149   0.415   0.650
 2248TIP3   OH228302   3.923   2.346   7.856
 2248TIP3    H128303   3.945   2.297   7.936
 2248TIP3    H228304   3.831   2.368   7.867
 2249TIP3   OH228305   3.603   2.393   7.264
 2249TIP3    H128306   3.569   2.328   7.202
 2249TIP3    H228307   3.653   2.454   7.210
 2250TIP3   OH228308   1.746   2.208   1.773
 2250TIP3    H128309   1.702   2.280   1.818
 2250TIP3    H228310   1.676   2.146   1.753
 2251TIP3   OH228311   3.251   6.434   6.569
 2251TIP3    H128312   3.279   6.525   6.566
 2251TIP3    H228313   3.159   6.438   6.595
 2252TIP3   OH228314   5.917   1.085   7.315
 2252TIP3    H128315   6.001   1.071   7.361
 2252TIP3    H228316   5.899   1.001   7.273
 2253TIP3   OH228317   4.197   3.181   8.378
 2253TIP3    H128318   4.255   3.200   8.452
 2253TIP3    H228319   4.137   3.114   8.412
 2254TIP3   OH228320   0.889   4.639   1.969
 2254TIP3    H128321   0.948   4.613   1.898
 2254TIP3    H228322   0.940   4.702   2.020
 2255TIP3   OH228323   4.520   4.020   0.656
 2255TIP3    H128324   4.470   4.029   0.737
 2255TIP3    H228325   4.609   4.048   0.680
 2256TIP3   OH228326   6.861   6.826   6.736
 2256TIP3    H128327   6.773   6.801   6.764
 2256TIP3    H228328   6.877   6.773   6.658
 2257TIP3   OH228329   5.306   6.557   7.071
 2257TIP3    H128330   5.392   6.573   7.031
 2257TIP3    H228331   5.326   6.533   7.161
 2258TIP3   OH228332   3.548   0.803   1.739
 2258TIP3    H128333   3.620   0.862   1.764
 2258TIP3    H228334   3.473   0.861   1.727
 2259TIP3   OH228335   2.910   4.993   2.423
 2259TIP3    H128336   2.992   5.042   2.414
 2259TIP3    H228337   2.844   5.060   2.441
 2260TIP3   OH228338   0.378   5.895   6.244
 2260TIP3    H128339   0.449   5.957   6.228
 2260TIP3    H228340   0.369   5.847   6.162
 2261TIP3   OH228341   0.934   2.539   6.931
 2261TIP3    H128342   0.916   2.487   6.853
 2261TIP3    H228343   0.930   2.630   6.900
 2262TIP3   OH228344   2.009   5.720   8.339
 2262TIP3    H128345   1.976   5.659   8.273
 2262TIP3    H228346   1.963   5.696   8.419
 2263TIP3   OH228347   3.352   1.014   6.368
 2263TIP3    H128348   3.332   1.098   6.327
 2263TIP3    H228349   3.415   0.974   6.309
 2264TIP3   OH228350   1.602   5.271   0.895
 2264TIP3    H128351   1.633   5.181   0.881
 2264TIP3    H228352   1.638   5.320   0.821
 2265TIP3   OH228353   2.631   5.847   8.443
 2265TIP3    H128354   2.586   5.770   8.409
 2265TIP3    H228355   2.692   5.872   8.374
 2266TIP3   OH228356   6.482   2.914   8.492
 2266TIP3    H128357   6.470   2.908   8.586
 2266TIP3    H228358   6.563   2.964   8.481
 2267TIP3   OH228359   0.348   6.273   7.705
 2267TIP3    H128360   0.442   6.289   7.691
 2267TIP3    H228361   0.304   6.337   7.649
 2268TIP3   OH228362   2.889   6.872   7.443
 2268TIP3    H128363   2.940   6.854   7.522
 2268TIP3    H228364   2.802   6.839   7.463
 2269TIP3   OH228365   3.849   4.721   0.439
 2269TIP3    H128366   3.873   4.708   0.347
 2269TIP3    H228367   3.855   4.634   0.478
 2270TIP3   OH228368   1.545   0.866   2.260
 2270TIP3    H128369   1.550   0.961   2.250
 2270TIP3    H228370   1.484   0.838   2.192
 2271TIP3   OH228371   4.549   0.534   1.917
 2271TIP3    H128372   4.512   0.492   1.839
 2271TIP3    H228373   4.478   0.537   1.980
 2272TIP3   OH228374   5.169   4.345   1.741
 2272TIP3    H128375   5.167   4.385   1.828
 2272TIP3    H228376   5.231   4.272   1.749
 2273TIP3   OH228377   4.709   1.619   8.601
 2273TIP3    H128378   4.769   1.693   8.606
 2273TIP3    H228379   4.653   1.627   0.046
 2274TIP3   OH228380   6.690   3.935   1.827
 2274TIP3    H128381   6.640   3.926   1.747
 2274TIP3    H228382   6.662   3.862   1.882
 2275TIP3   OH228383   0.430   1.461   7.054
 2275TIP3    H128384   0.382   1.523   7.109
 2275TIP3    H228385   0.455   1.513   6.977
 2276TIP3   OH228386   5.983   0.555   1.737
 2276TIP3    H128387   6.064   0.576   1.783
 2276TIP3    H228388   5.961   0.635   1.690
 2277TIP3   OH228389   4.710   5.156   0.052
 2277TIP3    H128390   4.646   5.086   0.065
 2277TIP3    H228391   4.795   5.112   0.052
 2278TIP3   OH228392   2.952   1.276   0.715
 2278TIP3    H128393   2.899   1.206   0.754
 2278TIP3    H228394   2.940   1.267   0.621
 2279TIP3   OH228395   6.015   6.336   1.111
 2279TIP3    H128396   5.948   6.389   1.067
 2279TIP3    H228397   6.083   6.399   1.135
 2280TIP3   OH228398   1.592   6.596   6.496
 2280TIP3    H128399   1.662   6.612   6.560
 2280TIP3    H228400   1.529   6.542   6.543
 2281TIP3   OH228401   5.901   1.866   1.913
 2281TIP3    H128402   5.926   1.890   2.003
 2281TIP3    H228403   5.982   1.872   1.863
 2282TIP3   OH228404   6.419   4.367   7.917
 2282TIP3    H128405   6.460   4.420   7.985
 2282TIP3    H228406   6.331   4.403   7.909
 2283TIP3   OH228407   1.995   0.761   7.762
 2283TIP3    H128408   2.063   0.827   7.749
 2283TIP3    H228409   1.926   0.785   7.699
 2284TIP3   OH228410   2.670   2.971   0.829
 2284TIP3    H128411   2.746   2.939   0.879
 2284TIP3    H228412   2.621   2.892   0.807
 2285TIP3   OH228413   6.418   6.823   8.512
 2285TIP3    H128414   6.399   6.839   8.420
 2285TIP3    H228415   6.446   0.025   8.547
 2286TIP3   OH228416   3.300   2.230   6.832
 2286TIP3    H128417   3.232   2.175   6.793
 2286TIP3    H228418   3.252   2.290   6.889
 2287TIP3   OH228419   2.187   2.909   1.085
 2287TIP3    H128420   2.238   2.917   1.005
 2287TIP3    H228421   2.248   2.868   1.148
 2288TIP3   OH228422   4.374   0.333   1.755
 2288TIP3    H128423   4.340   0.267   1.815
 2288TIP3    H228424   4.381   0.288   1.671
 2289TIP3   OH228425   1.159   3.418   1.721
 2289TIP3    H128426   1.082   3.433   1.667
 2289TIP3    H228427   1.139   3.339   1.771
 2290TIP3   OH228428   2.186   6.766   7.311
 2290TIP3    H128429   2.201   6.820   7.233
 2290TIP3    H228430   2.095   6.784   7.335
 2291TIP3   OH228431   0.082   4.796   2.615
 2291TIP3    H128432   0.145   4.747   2.563
 2291TIP3    H228433   0.106   4.887   2.601
 2292TIP3   OH228434   4.103   6.046   1.989
 2292TIP3    H128435   4.030   6.070   1.933
 2292TIP3    H228436   4.067   5.981   2.049
 2293TIP3   OH228437   5.267   2.050   0.756
 2293TIP3    H128438   5.208   2.124   0.749
 2293TIP3    H228439   5.240   1.991   0.686
 2294TIP3   OH228440   5.004   1.678   8.241
 2294TIP3    H128441   4.996   1.714   8.152
 2294TIP3    H228442   4.932   1.718   8.290
 2295TIP3   OH228443   2.629   1.349   1.396
 2295TIP3    H128444   2.546   1.329   1.440
 2295TIP3    H228445   2.633   1.444   1.394
 2296TIP3   OH228446   4.376   1.342   2.519
 2296TIP3    H128447   4.446   1.288   2.556
 2296TIP3    H228448   4.406   1.432   2.532
 2297TIP3   OH228449   2.208   6.577   7.034
 2297TIP3    H128450   2.257   6.529   6.967
 2297TIP3    H228451   2.229   6.669   7.018
 2298TIP3   OH228452   6.703   3.143   8.457
 2298TIP3    H128453   6.666   3.218   8.503
 2298TIP3    H228454   6.798   3.150   8.471
 2299TIP3   OH228455   3.768   1.097   7.377
 2299TIP3    H128456   3.805   1.030   7.435
 2299TIP3    H228457   3.684   1.061   7.350
 2300TIP3   OH228458   2.191   4.088   1.879
 2300TIP3    H128459   2.232   4.175   1.880
 2300TIP3    H228460   2.141   4.087   1.798
 2301TIP3   OH228461   2.608   4.648   7.341
 2301TIP3    H128462   2.530   4.701   7.328
 2301TIP3    H228463   2.584   4.561   7.310
 2302TIP3   OH228464   5.956   2.014   7.593
 2302TIP3    H128465   6.040   2.037   7.633
 2302TIP3    H228466   5.977   1.994   7.502
 2303TIP3   OH228467   3.571   5.076   1.438
 2303TIP3    H128468   3.590   5.061   1.345
 2303TIP3    H228469   3.657   5.083   1.479
 2304TIP3   OH228470   3.452   6.304   6.708
 2304TIP3    H128471   3.434   6.216   6.676
 2304TIP3    H228472   3.374   6.355   6.686
 2305TIP3   OH228473   1.103   4.705   0.462
 2305TIP3    H128474   1.092   4.785   0.513
 2305TIP3    H228475   1.020   4.659   0.470
 2306TIP3   OH228476   1.096   5.269   7.304
 2306TIP3    H128477   1.038   5.342   7.324
 2306TIP3    H228478   1.113   5.277   7.210
 2307TIP3   OH228479   3.551   1.024   1.489
 2307TIP3    H128480   3.461   1.027   1.520
 2307TIP3    H228481   3.563   1.107   1.442
 2308TIP3   OH228482   3.139   3.082   0.933
 2308TIP3    H128483   3.159   3.103   0.842
 2308TIP3    H228484   3.224   3.069   0.974
 2309TIP3   OH228485   4.965   1.809   1.470
 2309TIP3    H128486   4.939   1.747   1.538
 2309TIP3    H228487   5.060   1.815   1.478
 2310TIP3   OH228488   0.285   3.839   0.113
 2310TIP3    H128489   0.213   3.890   0.074
 2310TIP3    H228490   0.306   3.774   0.046
 2311TIP3   OH228491   1.588   4.175   0.661
 2311TIP3    H128492   1.600   4.261   0.623
 2311TIP3    H228493   1.497   4.153   0.643
 2312TIP3   OH228494   5.453   2.061   6.979
 2312TIP3    H128495   5.461   1.997   7.050
 2312TIP3    H228496   5.359   2.066   6.962
 2313TIP3   OH228497   3.979   1.637   6.821
 2313TIP3    H128498   4.007   1.590   6.900
 2313TIP3    H228499   3.928   1.711   6.854
 2314TIP3   OH228500   4.200   5.401   0.013
 2314TIP3    H128501   4.224   5.312   8.620
 2314TIP3    H228502   4.111   5.393   0.048
 2315TIP3   OH228503   1.833   1.146   0.309
 2315TIP3    H128504   1.739   1.129   0.305
 2315TIP3    H228505   1.858   1.160   0.217
 2316TIP3   OH228506   1.379   6.121   1.123
 2316TIP3    H128507   1.302   6.178   1.133
 2316TIP3    H228508   1.343   6.034   1.107
 2317TIP3   OH228509   2.622   5.911   0.576
 2317TIP3    H128510   2.629   5.848   0.649
 2317TIP3    H228511   2.531   5.902   0.547
 2318TIP3   OH228512   2.353   2.112   0.338
 2318TIP3    H128513   2.283   2.125   0.402
 2318TIP3    H228514   2.361   2.195   0.293
 2319TIP3   OH228515   5.780   5.279   7.582
 2319TIP3    H128516   5.718   5.281   7.654
 2319TIP3    H228517   5.825   5.195   7.592
 2320TIP3   OH228518   1.838   3.665   0.806
 2320TIP3    H128519   1.900   3.593   0.790
 2320TIP3    H228520   1.783   3.667   0.728
 2321TIP3   OH228521   6.874   1.253   8.312
 2321TIP3    H128522   0.027   1.230   8.398
 2321TIP3    H228523   0.006   1.347   8.304
 2322TIP3   OH228524   3.782   3.708   7.480
 2322TIP3    H128525   3.809   3.699   7.571
 2322TIP3    H228526   3.766   3.618   7.450
 2323TIP3   OH228527   2.818   5.896   1.754
 2323TIP3    H128528   2.850   5.871   1.668
 2323TIP3    H228529   2.788   5.815   1.794
 2324TIP3   OH228530   6.458   1.111   7.378
 2324TIP3    H128531   6.476   1.203   7.398
 2324TIP3    H228532   6.461   1.108   7.282
 2325TIP3   OH228533   6.448   4.561   8.103
 2325TIP3    H128534   6.367   4.610   8.110
 2325TIP3    H228535   6.517   4.627   8.110
 2326TIP3   OH228536   2.392   3.161   1.211
 2326TIP3    H128537   2.429   3.239   1.169
 2326TIP3    H228538   2.336   3.121   1.144
 2327TIP3   OH228539   4.092   1.143   0.146
 2327TIP3    H128540   4.047   1.166   0.227
 2327TIP3    H228541   4.130   1.057   0.163
 2328TIP3   OH228542   5.098   3.298   7.250
 2328TIP3    H128543   5.183   3.261   7.225
 2328TIP3    H228544   5.110   3.393   7.243
 2329TIP3   OH228545   1.451   0.301   7.812
 2329TIP3    H128546   1.454   0.374   7.750
 2329TIP3    H228547   1.501   0.231   7.769
 2330TIP3   OH228548   0.592   2.354   7.151
 2330TIP3    H128549   0.585   2.307   7.068
 2330TIP3    H228550   0.598   2.285   7.217
 2331TIP3   OH228551   6.478   4.359   7.561
 2331TIP3    H128552   6.440   4.300   7.496
 2331TIP3    H228553   6.408   4.375   7.624
 2332TIP3   OH228554   5.851   4.131   7.340
 2332TIP3    H128555   5.906   4.178   7.402
 2332TIP3    H228556   5.899   4.051   7.320
 2333TIP3   OH228557   1.197   2.312   1.550
 2333TIP3    H128558   1.159   2.273   1.629
 2333TIP3    H228559   1.290   2.319   1.569
 2334TIP3   OH228560   1.668   1.167   0.534
 2334TIP3    H128561   1.723   1.088   0.531
 2334TIP3    H228562   1.705   1.218   0.606
 2335TIP3   OH228563   4.991   2.121   6.049
 2335TIP3    H128564   4.965   2.033   6.078
 2335TIP3    H228565   5.087   2.117   6.046
 2336TIP3   OH228566   3.464   4.603   7.163
 2336TIP3    H128567   3.435   4.548   7.236
 2336TIP3    H228568   3.541   4.649   7.196
 2337TIP3   OH228569   4.268   3.843   8.369
 2337TIP3    H128570   4.313   3.924   8.346
 2337TIP3    H228571   4.192   3.871   8.421
 2338TIP3   OH228572   4.187   4.351   0.033
 2338TIP3    H128573   4.271   4.373   0.074
 2338TIP3    H228574   4.141   4.300   0.100
 2339TIP3   OH228575   1.952   2.284   8.356
 2339TIP3    H128576   1.861   2.277   8.385
 2339TIP3    H228577   1.983   2.194   8.351
 2340TIP3   OH228578   4.364   0.612   7.390
 2340TIP3    H128579   4.429   0.552   7.353
 2340TIP3    H228580   4.383   0.696   7.350
 2341TIP3   OH228581   6.594   2.238   0.464
 2341TIP3    H128582   6.687   2.222   0.479
 2341TIP3    H228583   6.589   2.266   0.373
 2342TIP3   OH228584   1.793   4.257   0.126
 2342TIP3    H128585   1.791   4.216   0.040
 2342TIP3    H228586   1.845   4.336   0.114
 2343TIP3   OH228587   3.993   5.918   1.620
 2343TIP3    H128588   4.085   5.893   1.623
 2343TIP3    H228589   3.966   5.896   1.530
 2344TIP3   OH228590   2.178   4.558   7.194
 2344TIP3    H128591   2.088   4.572   7.167
 2344TIP3    H228592   2.219   4.516   7.118
 2345TIP3   OH228593   2.630   4.158   0.024
 2345TIP3    H128594   2.708   4.108   0.000
 2345TIP3    H228595   2.557   4.100   8.631
 2346TIP3   OH228596   1.490   0.016   7.885
 2346TIP3    H128597   1.569   6.854   7.917
 2346TIP3    H228598   1.483   6.872   7.794
 2347TIP3   OH228599   0.109   1.890   8.080
 2347TIP3    H128600   0.037   1.827   8.084
 2347TIP3    H228601   0.069   1.970   8.044
 2348TIP3   OH228602   5.085   1.980   0.051
 2348TIP3    H128603   5.117   1.991   8.593
 2348TIP3    H228604   5.130   1.901   0.083
 2349TIP3   OH228605   3.356   0.814   2.467
 2349TIP3    H128606   3.325   0.733   2.426
 2349TIP3    H228607   3.416   0.852   2.402
 2350TIP3   OH228608   6.099   5.473   7.298
 2350TIP3    H128609   6.176   5.502   7.248
 2350TIP3    H228610   6.094   5.379   7.281
 2351TIP3   OH228611   2.348   5.721   2.099
 2351TIP3    H128612   2.289   5.796   2.105
 2351TIP3    H228613   2.436   5.760   2.098
 2352TIP3   OH228614   1.395   4.431   6.831
 2352TIP3    H128615   1.373   4.513   6.786
 2352TIP3    H228616   1.385   4.364   6.764
 2353TIP3   OH228617   0.768   5.670   5.930
 2353TIP3    H128618   0.742   5.738   5.868
 2353TIP3    H228619   0.761   5.712   6.016
 2354TIP3   OH228620   0.653   3.591   0.805
 2354TIP3    H128621   0.627   3.682   0.816
 2354TIP3    H228622   0.638   3.572   0.713
 2355TIP3   OH228623   6.013   0.627   0.580
 2355TIP3    H128624   6.004   0.713   0.538
 2355TIP3    H228625   6.063   0.645   0.660
 2356TIP3   OH228626   0.317   1.687   7.317
 2356TIP3    H128627   0.271   1.641   7.387
 2356TIP3    H228628   0.404   1.646   7.316
 2357TIP3   OH228629   0.502   1.424   7.617
 2357TIP3    H128630   0.416   1.411   7.657
 2357TIP3    H228631   0.529   1.511   7.647
 2358TIP3   OH228632   4.591   5.669   7.299
 2358TIP3    H128633   4.630   5.618   7.369
 2358TIP3    H228634   4.498   5.647   7.302
 2359TIP3   OH228635   4.962   0.413   7.130
 2359TIP3    H128636   4.956   0.436   7.037
 2359TIP3    H228637   4.872   0.417   7.162
 2360TIP3   OH228638   1.724   0.032   8.223
 2360TIP3    H128639   1.802   0.031   8.278
 2360TIP3    H228640   1.743   0.096   8.154
 2361TIP3   OH228641   4.354   6.501   5.932
 2361TIP3    H128642   4.391   6.488   5.845
 2361TIP3    H228643   4.397   6.434   5.986
 2362TIP3   OH228644   3.822   1.879   0.160
 2362TIP3    H128645   3.830   1.924   0.244
 2362TIP3    H228646   3.888   1.810   0.165
 2363TIP3   OH228647   6.624   2.274   8.299
 2363TIP3    H128648   6.720   2.272   8.298
 2363TIP3    H228649   6.598   2.241   8.213
 2364TIP3   OH228650   0.421   0.802   6.146
 2364TIP3    H128651   0.439   0.745   6.220
 2364TIP3    H228652   0.353   0.861   6.177
 2365TIP3   OH228653   6.248   1.073   1.452
 2365TIP3    H128654   6.168   1.125   1.466
 2365TIP3    H228655   6.262   1.076   1.357
 2366TIP3   OH228656   5.740   1.040   0.588
 2366TIP3    H128657   5.667   1.071   0.642
 2366TIP3    H228658   5.701   0.972   0.533
 2367TIP3   OH228659   5.023   5.931   7.414
 2367TIP3    H128660   4.998   5.951   7.504
 2367TIP3    H228661   4.975   5.851   7.394
 2368TIP3   OH228662   5.891   5.042   7.707
 2368TIP3    H128663   5.844   5.014   7.628
 2368TIP3    H228664   5.901   4.963   7.759
 2369TIP3   OH228665   5.951   3.403   0.091
 2369TIP3    H128666   5.915   3.474   0.038
 2369TIP3    H228667   5.913   3.417   0.178
 2370TIP3   OH228668   0.712   2.365   0.657
 2370TIP3    H128669   0.749   2.278   0.669
 2370TIP3    H228670   0.618   2.351   0.648
 2371TIP3   OH228671   2.710   2.728   2.274
 2371TIP3    H128672   2.726   2.817   2.244
 2371TIP3    H228673   2.735   2.673   2.200
 2372TIP3   OH228674   1.832   1.170   7.169
 2372TIP3    H128675   1.870   1.096   7.216
 2372TIP3    H228676   1.797   1.227   7.238
 2373TIP3   OH228677   0.132   2.671   7.850
 2373TIP3    H128678   0.212   2.663   7.798
 2373TIP3    H228679   0.078   2.597   7.822
 2374TIP3   OH228680   5.404   3.397   8.425
 2374TIP3    H128681   5.480   3.385   8.482
 2374TIP3    H228682   5.439   3.438   8.346
 2375TIP3   OH228683   5.589   0.978   6.781
 2375TIP3    H128684   5.667   0.926   6.763
 2375TIP3    H228685   5.613   1.067   6.754
 2376TIP3   OH228686   5.071   0.497   8.474
 2376TIP3    H128687   5.043   0.582   8.507
 2376TIP3    H228688   5.013   0.479   8.400
 2377TIP3   OH228689   5.871   6.693   7.668
 2377TIP3    H128690   5.878   6.728   7.756
 2377TIP3    H228691   5.958   6.655   7.650
 2378TIP3   OH228692   2.523   2.516   8.179
 2378TIP3    H128693   2.487   2.451   8.117
 2378TIP3    H228694   2.543   2.465   8.257
 2379TIP3   OH228695   0.504   4.555   2.061
 2379TIP3    H128696   0.535   4.526   2.146
 2379TIP3    H228697   0.452   4.481   2.028
 2380TIP3   OH228698   3.702   0.595   7.553
 2380TIP3    H128699   3.671   0.510   7.521
 2380TIP3    H228700   3.672   0.598   7.644
 2381TIP3   OH228701   4.906   3.361   7.658
 2381TIP3    H128702   4.845   3.413   7.710
 2381TIP3    H228703   4.950   3.425   7.602
 2382TIP3   OH228704   2.487   2.972   0.537
 2382TIP3    H128705   2.471   2.879   0.522
 2382TIP3    H228706   2.582   2.978   0.549
 2383TIP3   OH228707   0.647   2.989   0.304
 2383TIP3    H128708   0.574   3.052   0.303
 2383TIP3    H228709   0.726   3.044   0.304
 2384TIP3   OH228710   0.145   5.616   8.526
 2384TIP3    H128711   0.224   5.668   8.514
 2384TIP3    H228712   0.106   5.611   8.439
 2385TIP3   OH228713   2.115   1.925   1.557
 2385TIP3    H128714   2.150   1.988   1.493
 2385TIP3    H228715   2.106   1.976   1.637
 2386TIP3   OH228716   4.548   6.720   7.448
 2386TIP3    H128717   4.490   6.733   7.373
 2386TIP3    H228718   4.510   6.645   7.495
 2387TIP3   OH228719   6.799   1.242   0.883
 2387TIP3    H128720   6.712   1.277   0.867
 2387TIP3    H228721   6.844   1.250   0.798
 2388TIP3   OH228722   1.121   3.405   2.034
 2388TIP3    H128723   1.125   3.345   2.109
 2388TIP3    H228724   1.207   3.447   2.032
 2389TIP3   OH228725   0.886   5.425   1.137
 2389TIP3    H128726   0.865   5.490   1.070
 2389TIP3    H228727   0.981   5.413   1.129
 2390TIP3   OH228728   6.383   4.590   0.055
 2390TIP3    H128729   6.379   4.685   0.043
 2390TIP3    H228730   6.411   4.556   8.601
 2391TIP3   OH228731   3.344   5.139   1.573
 2391TIP3    H128732   3.426   5.117   1.530
 2391TIP3    H228733   3.278   5.129   1.504
 2392TIP3   OH228734   2.271   0.183   2.570
 2392TIP3    H128735   2.327   0.241   2.621
 2392TIP3    H228736   2.272   0.100   2.617
 2393TIP3   OH228737   5.047   5.735   0.038
 2393TIP3    H128738   5.136   5.762   0.060
 2393TIP3    H228739   5.001   5.736   0.122
 2394TIP3   OH228740   4.204   1.404   7.383
 2394TIP3    H128741   4.138   1.472   7.398
 2394TIP3    H228742   4.287   1.452   7.377
 2395TIP3   OH228743   2.085   2.312   2.128
 2395TIP3    H128744   2.151   2.359   2.178
 2395TIP3    H228745   2.046   2.379   2.071
 2396TIP3   OH228746   4.020   5.099   0.621
 2396TIP3    H128747   4.081   5.151   0.674
 2396TIP3    H228748   3.934   5.135   0.644
 2397TIP3   OH228749   1.317   3.302   0.127
 2397TIP3    H128750   1.361   3.233   0.175
 2397TIP3    H228751   1.387   3.351   0.083
 2398TIP3   OH228752   1.376   2.703   1.502
 2398TIP3    H128753   1.409   2.674   1.416
 2398TIP3    H228754   1.448   2.755   1.538
 2399TIP3   OH228755   4.388   3.228   8.182
 2399TIP3    H128756   4.423   3.155   8.233
 2399TIP3    H228757   4.316   3.262   8.236
 2400TIP3   OH228758   5.575   2.506   7.431
 2400TIP3    H128759   5.527   2.451   7.493
 2400TIP3    H228760   5.525   2.499   7.350
 2401TIP3   OH228761   2.512   6.761   8.466
 2401TIP3    H128762   2.448   6.703   8.506
 2401TIP3    H228763   2.470   6.846   8.464
 2402TIP3   OH228764   5.639   1.469   2.276
 2402TIP3    H128765   5.704   1.539   2.284
 2402TIP3    H228766   5.684   1.399   2.230
 2403TIP3   OH228767   3.789   2.398   1.743
 2403TIP3    H128768   3.811   2.471   1.685
 2403TIP3    H228769   3.729   2.436   1.807
 2404TIP3   OH228770   6.062   2.873   8.152
 2404TIP3    H128771   6.127   2.865   8.222
 2404TIP3    H228772   6.100   2.935   8.090
 2405TIP3   OH228773   2.766   1.522   0.455
 2405TIP3    H128774   2.798   1.442   0.497
 2405TIP3    H228775   2.786   1.509   0.362
 2406TIP3   OH228776   2.793   4.894   0.764
 2406TIP3    H128777   2.846   4.969   0.736
 2406TIP3    H228778   2.849   4.847   0.825
 2407TIP3   OH228779   2.119   0.237   0.604
 2407TIP3    H128780   2.076   0.308   0.652
 2407TIP3    H228781   2.170   0.281   0.536
 2408TIP3   OH228782   5.517   2.098   7.797
 2408TIP3    H128783   5.491   2.179   7.753
 2408TIP3    H228784   5.592   2.066   7.746
 2409TIP3   OH228785   2.747   0.714   7.762
 2409TIP3    H128786   2.698   0.686   7.684
 2409TIP3    H228787   2.807   0.641   7.779
 2410TIP3   OH228788   3.073   2.086   6.761
 2410TIP3    H128789   2.983   2.094   6.728
 2410TIP3    H228790   3.101   1.998   6.733
 2411TIP3   OH228791   3.412   4.543   1.273
 2411TIP3    H128792   3.452   4.524   1.188
 2411TIP3    H228793   3.334   4.487   1.276
 2412TIP3   OH228794   4.187   2.844   2.260
 2412TIP3    H128795   4.271   2.804   2.282
 2412TIP3    H228796   4.122   2.777   2.280
 2413TIP3   OH228797   5.825   5.017   7.448
 2413TIP3    H128798   5.860   5.081   7.386
 2413TIP3    H228799   5.883   4.941   7.439
 2414TIP3   OH228800   4.275   5.397   8.091
 2414TIP3    H128801   4.207   5.382   8.157
 2414TIP3    H228802   4.228   5.441   8.019
 2415TIP3   OH228803   4.103   4.759   2.095
 2415TIP3    H128804   4.129   4.702   2.022
 2415TIP3    H228805   4.095   4.846   2.056
 2416TIP3   OH228806   6.090   4.884   6.939
 2416TIP3    H128807   6.074   4.828   6.863
 2416TIP3    H228808   6.170   4.931   6.917
 2417TIP3   OH228809   6.161   1.216   0.501
 2417TIP3    H128810   6.074   1.248   0.524
 2417TIP3    H228811   6.155   1.121   0.510
 2418TIP3   OH228812   3.199   6.128   0.404
 2418TIP3    H128813   3.181   6.199   0.343
 2418TIP3    H228814   3.269   6.078   0.362
 2419TIP3   OH228815   3.530   5.873   0.645
 2419TIP3    H128816   3.452   5.839   0.601
 2419TIP3    H228817   3.497   5.937   0.708
 2420TIP3   OH228818   6.879   0.062   1.042
 2420TIP3    H128819   0.001   6.868   1.099
 2420TIP3    H228820   6.789   0.093   1.052
 2421TIP3   OH228821   6.367   2.657   8.143
 2421TIP3    H128822   6.332   2.699   8.221
 2421TIP3    H228823   6.439   2.714   8.116
 2422TIP3   OH228824   0.959   0.327   6.988
 2422TIP3    H128825   0.909   0.324   6.906
 2422TIP3    H228826   0.916   0.264   7.045
 2423TIP3   OH228827   3.884   1.957   0.412
 2423TIP3    H128828   3.845   1.973   0.499
 2423TIP3    H228829   3.976   1.938   0.431
 2424TIP3   OH228830   4.571   1.216   7.260
 2424TIP3    H128831   4.566   1.273   7.337
 2424TIP3    H228832   4.481   1.213   7.227
 2425TIP3   OH228833   6.539   6.493   0.710
 2425TIP3    H128834   6.598   6.559   0.674
 2425TIP3    H228835   6.597   6.431   0.755
 2426TIP3   OH228836   4.253   6.212   0.627
 2426TIP3    H128837   4.224   6.121   0.622
 2426TIP3    H228838   4.348   6.207   0.633
 2427TIP3   OH228839   5.470   2.565   1.183
 2427TIP3    H128840   5.394   2.610   1.145
 2427TIP3    H228841   5.439   2.529   1.266
 2428TIP3   OH228842   2.629   1.464   0.856
 2428TIP3    H128843   2.623   1.559   0.850
 2428TIP3    H228844   2.541   1.433   0.836
 2429TIP3   OH228845   1.335   5.057   0.679
 2429TIP3    H128846   1.315   4.985   0.620
 2429TIP3    H228847   1.429   5.071   0.668
 2430TIP3   OH228848   1.752   5.782   8.013
 2430TIP3    H128849   1.778   5.717   8.078
 2430TIP3    H228850   1.735   5.861   8.063
 2431TIP3   OH228851   3.483   5.198   6.589
 2431TIP3    H128852   3.545   5.238   6.651
 2431TIP3    H228853   3.397   5.224   6.622
 2432TIP3   OH228854   6.813   3.769   1.515
 2432TIP3    H128855   6.736   3.816   1.547
 2432TIP3    H228856   6.780   3.717   1.441
 2433TIP3   OH228857   2.076   5.421   0.646
 2433TIP3    H128858   2.149   5.411   0.584
 2433TIP3    H228859   2.083   5.344   0.702
 2434TIP3   OH228860   3.554   3.049   8.354
 2434TIP3    H128861   3.493   3.115   8.386
 2434TIP3    H228862   3.579   2.999   8.432
 2435TIP3   OH228863   4.260   1.955   1.420
 2435TIP3    H128864   4.330   1.997   1.369
 2435TIP3    H228865   4.234   2.021   1.484
 2436TIP3   OH228866   5.690   3.763   2.118
 2436TIP3    H128867   5.736   3.790   2.198
 2436TIP3    H228868   5.598   3.782   2.136
 2437TIP3   OH228869   3.065   5.960   0.583
 2437TIP3    H128870   3.124   5.992   0.515
 2437TIP3    H228871   3.019   6.038   0.614
 2438TIP3   OH228872   4.510   3.223   1.711
 2438TIP3    H128873   4.429   3.240   1.663
 2438TIP3    H228874   4.486   3.230   1.803
 2439TIP3   OH228875   6.491   6.550   7.894
 2439TIP3    H128876   6.544   6.511   7.964
 2439TIP3    H228877   6.502   6.490   7.820
 2440TIP3   OH228878   5.902   5.216   7.935
 2440TIP3    H128879   5.970   5.153   7.959
 2440TIP3    H228880   5.866   5.184   7.853
 2441TIP3   OH228881   3.951   0.510   0.946
 2441TIP3    H128882   4.014   0.583   0.948
 2441TIP3    H228883   4.002   0.436   0.914
 2442TIP3   OH228884   2.145   0.408   8.351
 2442TIP3    H128885   2.126   0.373   8.264
 2442TIP3    H228886   2.113   0.498   8.349
 2443TIP3   OH228887   2.949   5.350   6.668
 2443TIP3    H128888   3.009   5.420   6.695
 2443TIP3    H228889   2.891   5.391   6.604
 2444TIP3   OH228890   0.064   3.031   1.917
 2444TIP3    H128891   6.872   3.017   1.859
 2444TIP3    H228892   0.045   2.975   1.993
 2445TIP3   OH228893   1.488   5.879   7.841
 2445TIP3    H128894   1.546   5.809   7.811
 2445TIP3    H228895   1.524   5.904   7.926
 2446TIP3   OH228896   0.034   1.553   8.553
 2446TIP3    H128897   0.040   1.613   8.627
 2446TIP3    H228898   0.125   1.531   8.531
 2447TIP3   OH228899   0.636   2.300   0.133
 2447TIP3    H128900   0.683   2.379   0.162
 2447TIP3    H228901   0.616   2.317   0.041
 2448TIP3   OH228902   0.536   0.782   8.369
 2448TIP3    H128903   0.586   0.860   8.347
 2448TIP3    H228904   0.562   0.762   8.460
 2449TIP3   OH228905   1.823   5.756   0.375
 2449TIP3    H128906   1.799   5.838   0.417
 2449TIP3    H228907   1.835   5.694   0.447
 2450TIP3   OH228908   0.930   1.827   6.823
 2450TIP3    H128909   0.901   1.856   6.736
 2450TIP3    H228910   1.001   1.765   6.805
 2451TIP3   OH228911   5.420   1.542   1.377
 2451TIP3    H128912   5.407   1.461   1.329
 2451TIP3    H228913   5.429   1.609   1.309
 2452TIP3   OH228914   3.853   3.078   8.270
 2452TIP3    H128915   3.882   3.102   8.358
 2452TIP3    H228916   3.766   3.040   8.282
 2453TIP3   OH228917   5.437   6.463   1.506
 2453TIP3    H128918   5.528   6.446   1.529
 2453TIP3    H228919   5.421   6.407   1.430
 2454TIP3   OH228920   1.939   5.929   7.513
 2454TIP3    H128921   1.892   5.964   7.588
 2454TIP3    H228922   1.922   5.991   7.442
 2455TIP3   OH228923   0.284   3.512   8.468
 2455TIP3    H128924   0.327   3.506   8.553
 2455TIP3    H228925   0.279   3.421   8.438
 2456TIP3   OH228926   6.589   1.664   0.180
 2456TIP3    H128927   6.586   1.680   0.275
 2456TIP3    H228928   6.665   1.606   0.168
 2457TIP3   OH228929   4.124   6.629   6.007
 2457TIP3    H128930   4.082   6.664   5.928
 2457TIP3    H228931   4.210   6.599   5.976
 2458TIP3   OH228932   2.353   2.858   7.564
 2458TIP3    H128933   2.343   2.853   7.469
 2458TIP3    H228934   2.286   2.798   7.598
 2459TIP3   OH228935   0.213   2.433   8.579
 2459TIP3    H128936   0.177   2.381   0.019
 2459TIP3    H228937   0.190   2.524   8.602
 2460TIP3   OH228938   4.823   3.013   0.683
 2460TIP3    H128939   4.737   3.024   0.723
 2460TIP3    H228940   4.814   3.050   0.596
 2461TIP3   OH228941   0.143   1.759   0.640
 2461TIP3    H128942   0.197   1.825   0.596
 2461TIP3    H228943   0.157   1.679   0.590
 2462TIP3   OH228944   6.118   0.018   0.408
 2462TIP3    H128945   6.134   0.095   0.353
 2462TIP3    H228946   6.106   6.829   0.346
 2463TIP3   OH228947   1.395   3.303   0.924
 2463TIP3    H128948   1.419   3.276   1.013
 2463TIP3    H228949   1.303   3.328   0.931
 2464TIP3   OH228950   5.619   3.553   6.323
 2464TIP3    H128951   5.682   3.482   6.337
 2464TIP3    H228952   5.672   3.632   6.318
 2465TIP3   OH228953   2.175   4.223   0.250
 2465TIP3    H128954   2.142   4.174   0.175
 2465TIP3    H228955   2.223   4.158   0.302
 2466TIP3   OH228956   1.845   0.810   0.936
 2466TIP3    H128957   1.752   0.834   0.936
 2466TIP3    H228958   1.845   0.714   0.930
 2467TIP3   OH228959   6.777   5.350   7.209
 2467TIP3    H128960   6.763   5.261   7.242
 2467TIP3    H228961   6.731   5.351   7.125
 2468TIP3   OH228962   4.992   4.562   1.414
 2468TIP3    H128963   5.015   4.577   1.322
 2468TIP3    H228964   4.994   4.649   1.453
 2469TIP3   OH228965   0.700   3.964   6.972
 2469TIP3    H128966   0.634   4.033   6.964
 2469TIP3    H228967   0.721   3.960   7.065
 2470TIP3   OH228968   3.359   0.789   6.972
 2470TIP3    H128969   3.296   0.729   7.013
 2470TIP3    H228970   3.396   0.738   6.900
 2471TIP3   OH228971   4.690   2.701   8.284
 2471TIP3    H128972   4.766   2.645   8.302
 2471TIP3    H228973   4.645   2.707   8.368
 2472TIP3   OH228974   3.268   6.421   1.930
 2472TIP3    H128975   3.259   6.336   1.886
 2472TIP3    H228976   3.335   6.467   1.880
 2473TIP3   OH228977   5.404   4.662   6.533
 2473TIP3    H128978   5.316   4.653   6.569
 2473TIP3    H228979   5.438   4.573   6.529
 2474TIP3   OH228980   2.963   0.253   7.398
 2474TIP3    H128981   2.932   0.162   7.398
 2474TIP3    H228982   2.990   0.268   7.489
 2475TIP3   OH228983   1.429   6.280   6.882
 2475TIP3    H128984   1.517   6.282   6.846
 2475TIP3    H228985   1.379   6.224   6.822
 2476TIP3   OH228986   6.664   5.653   2.360
 2476TIP3    H128987   6.586   5.619   2.405
 2476TIP3    H228988   6.731   5.587   2.378
 2477TIP3   OH228989   0.001   0.847   0.001
 2477TIP3    H128990   0.034   0.767   0.042
 2477TIP3    H228991   6.807   0.818   8.584
 2478TIP3   OH228992   0.276   0.429   8.369
 2478TIP3    H128993   0.292   0.516   8.335
 2478TIP3    H228994   0.318   0.370   8.306
 2479TIP3   OH228995   4.713   0.008   1.661
 2479TIP3    H128996   4.792   0.042   1.703
 2479TIP3    H228997   4.691   0.072   1.594
 2480TIP3   OH228998   1.643   3.536   7.511
 2480TIP3    H128999   1.669   3.615   7.464
 2480TIP3    H229000   1.686   3.465   7.464
 2481TIP3   OH229001   6.181   5.887   6.644
 2481TIP3    H129002   6.139   5.869   6.560
 2481TIP3    H229003   6.208   5.802   6.677
 2482TIP3   OH229004   2.610   1.186   0.163
 2482TIP3    H129005   2.538   1.207   0.223
 2482TIP3    H229006   2.573   1.198   0.076
 2483TIP3   OH229007   6.492   5.560   0.660
 2483TIP3    H129008   6.585   5.540   0.647
 2483TIP3    H229009   6.454   5.556   0.573
 2484TIP3   OH229010   5.200   1.236   1.749
 2484TIP3    H129011   5.263   1.185   1.799
 2484TIP3    H229012   5.253   1.305   1.707
 2485TIP3   OH229013   5.255   1.355   8.546
 2485TIP3    H129014   5.316   1.283   8.532
 2485TIP3    H229015   5.188   1.319   8.604
 2486TIP3   OH229016   5.566   0.704   7.359
 2486TIP3    H129017   5.506   0.750   7.300
 2486TIP3    H229018   5.593   0.627   7.311
 2487TIP3   OH229019   3.349   6.730   1.169
 2487TIP3    H129020   3.439   6.761   1.159
 2487TIP3    H229021   3.303   6.801   1.212
 2488TIP3   OH229022   2.193   2.316   6.218
 2488TIP3    H129023   2.112   2.363   6.197
 2488TIP3    H229024   2.205   2.256   6.145
 2489TIP3   OH229025   1.187   1.463   1.126
 2489TIP3    H129026   1.265   1.419   1.161
 2489TIP3    H229027   1.192   1.449   1.032
 2490TIP3   OH229028   4.874   4.294   2.113
 2490TIP3    H129029   4.860   4.323   2.022
 2490TIP3    H229030   4.818   4.352   2.165
 2491TIP3   OH229031   3.499   2.479   6.749
 2491TIP3    H129032   3.465   2.415   6.811
 2491TIP3    H229033   3.588   2.450   6.730
 2492TIP3   OH229034   4.419   5.502   2.156
 2492TIP3    H129035   4.471   5.575   2.123
 2492TIP3    H229036   4.482   5.430   2.166
 2493TIP3   OH229037   5.325   4.546   1.111
 2493TIP3    H129038   5.304   4.581   1.198
 2493TIP3    H229039   5.309   4.619   1.051
 2494TIP3   OH229040   6.605   2.224   8.604
 2494TIP3    H129041   6.557   2.289   8.552
 2494TIP3    H229042   6.625   2.154   8.543
 2495TIP3   OH229043   1.210   2.600   8.495
 2495TIP3    H129044   1.234   2.655   8.569
 2495TIP3    H229045   1.197   2.513   8.533
 2496TIP3   OH229046   6.792   4.733   2.814
 2496TIP3    H129047   6.750   4.815   2.841
 2496TIP3    H229048   6.830   4.753   2.729
 2497TIP3   OH229049   2.877   3.344   8.428
 2497TIP3    H129050   2.927   3.324   8.349
 2497TIP3    H229051   2.908   3.280   8.492
 2498TIP3   OH229052   0.193   0.650   0.123
 2498TIP3    H129053   0.273   0.702   0.130
 2498TIP3    H229054   0.216   0.577   0.066
 2499TIP3   OH229055   1.783   3.579   2.181
 2499TIP3    H129056   1.722   3.519   2.223
 2499TIP3    H229057   1.736   3.612   2.105
 2500TIP3   OH229058   1.581   4.501   7.060
 2500TIP3    H129059   1.516   4.494   6.990
 2500TIP3    H229060   1.664   4.477   7.019
 2501TIP3   OH229061   2.900   4.098   0.215
 2501TIP3    H129062   2.972   4.036   0.207
 2501TIP3    H229063   2.844   4.080   0.140
 2502TIP3   OH229064   1.736   3.151   7.624
 2502TIP3    H129065   1.808   3.088   7.626
 2502TIP3    H229066   1.772   3.227   7.579
 2503TIP3   OH229067   6.174   6.509   8.594
 2503TIP3    H129068   6.173   6.417   8.570
 2503TIP3    H229069   6.236   6.549   8.533
 2504TIP3   OH229070   5.882   0.261   7.544
 2504TIP3    H129071   5.918   0.326   7.484
 2504TIP3    H229072   5.957   0.232   7.596
 2505TIP3   OH229073   3.228   5.454   7.020
 2505TIP3    H129074   3.272   5.381   6.977
 2505TIP3    H229075   3.290   5.485   7.085
 2506TIP3   OH229076   5.972   0.896   8.537
 2506TIP3    H129077   5.983   0.940   8.621
 2506TIP3    H229078   6.045   0.834   8.532
 2507TIP3   OH229079   2.545   4.091   7.382
 2507TIP3    H129080   2.562   4.130   7.296
 2507TIP3    H229081   2.588   4.150   7.444
 2508TIP3   OH229082   2.398   0.023   0.495
 2508TIP3    H129083   2.483   6.867   0.472
 2508TIP3    H229084   2.338   6.873   0.428
 2509TIP3   OH229085   5.748   3.368   0.658
 2509TIP3    H129086   5.691   3.302   0.618
 2509TIP3    H229087   5.690   3.441   0.679
 2510TIP3   OH229088   6.765   1.700   0.640
 2510TIP3    H129089   6.857   1.724   0.651
 2510TIP3    H229090   6.722   1.780   0.610
 2511TIP3   OH229091   1.461   4.485   7.298
 2511TIP3    H129092   1.533   4.488   7.361
 2511TIP3    H229093   1.504   4.470   7.213
 2512TIP3   OH229094   0.607   6.760   8.461
 2512TIP3    H129095   0.666   6.833   8.444
 2512TIP3    H229096   0.656   6.683   8.433
 2513TIP3   OH229097   2.760   5.477   7.869
 2513TIP3    H129098   2.808   5.406   7.826
 2513TIP3    H229099   2.715   5.435   7.942
 2514TIP3   OH229100   3.691   3.142   1.261
 2514TIP3    H129101   3.770   3.151   1.209
 2514TIP3    H229102   3.706   3.197   1.338
 2515TIP3   OH229103   5.925   5.330   1.260
 2515TIP3    H129104   5.966   5.248   1.232
 2515TIP3    H229105   5.847   5.338   1.205
 2516TIP3   OH229106   2.822   0.170   1.894
 2516TIP3    H129107   2.806   0.176   1.988
 2516TIP3    H229108   2.917   0.177   1.885
 2517TIP3   OH229109   1.709   4.373   1.531
 2517TIP3    H129110   1.630   4.322   1.545
 2517TIP3    H229111   1.781   4.313   1.550
 2518TIP3   OH229112   0.215   0.250   0.581
 2518TIP3    H129113   0.284   0.242   0.647
 2518TIP3    H229114   0.217   0.167   0.534
 2519TIP3   OH229115   0.189   1.633   8.135
 2519TIP3    H129116   0.236   1.604   8.214
 2519TIP3    H229117   0.197   1.728   8.137
 2520TIP3   OH229118   1.300   0.481   1.677
 2520TIP3    H129119   1.374   0.423   1.697
 2520TIP3    H229120   1.233   0.455   1.741
 2521TIP3   OH229121   1.749   4.845   1.217
 2521TIP3    H129122   1.751   4.776   1.283
 2521TIP3    H229123   1.665   4.834   1.173
 2522TIP3   OH229124   6.642   5.864   1.616
 2522TIP3    H129125   6.735   5.876   1.595
 2522TIP3    H229126   6.642   5.820   1.701
 2523TIP3   OH229127   2.422   4.700   8.072
 2523TIP3    H129128   2.494   4.764   8.077
 2523TIP3    H229129   2.378   4.721   7.990
 2524TIP3   OH229130   4.436   2.103   0.915
 2524TIP3    H129131   4.393   2.031   0.961
 2524TIP3    H229132   4.462   2.164   0.985
 2525TIP3   OH229133   1.358   1.781   1.086
 2525TIP3    H129134   1.447   1.771   1.052
 2525TIP3    H229135   1.358   1.868   1.126
 2526TIP3   OH229136   1.629   5.844   8.317
 2526TIP3    H129137   1.643   5.751   8.336
 2526TIP3    H229138   1.698   5.889   8.365
 2527TIP3   OH229139   2.738   1.803   6.817
 2527TIP3    H129140   2.750   1.893   6.787
 2527TIP3    H229141   2.710   1.755   6.738
 2528TIP3   OH229142   1.206   0.227   6.890
 2528TIP3    H129143   1.140   0.266   6.948
 2528TIP3    H229144   1.215   0.137   6.923
 2529TIP3   OH229145   2.612   1.015   6.372
 2529TIP3    H129146   2.518   1.000   6.378
 2529TIP3    H229147   2.621   1.092   6.317
 2530TIP3   OH229148   6.804   0.415   7.852
 2530TIP3    H129149   6.799   0.487   7.914
 2530TIP3    H229150   6.713   0.392   7.833
 2531TIP3   OH229151   0.778   5.496   6.776
 2531TIP3    H129152   0.813   5.573   6.731
 2531TIP3    H229153   0.714   5.531   6.838
 2532TIP3   OH229154   5.759   5.873   1.314
 2532TIP3    H129155   5.721   5.790   1.342
 2532TIP3    H229156   5.740   5.934   1.385
 2533TIP3   OH229157   3.412   5.439   7.264
 2533TIP3    H129158   3.369   5.392   7.335
 2533TIP3    H229159   3.406   5.531   7.290
 2534TIP3   OH229160   1.539   5.848   6.398
 2534TIP3    H129161   1.611   5.808   6.349
 2534TIP3    H229162   1.499   5.776   6.446
 2535TIP3   OH229163   1.798   0.129   0.148
 2535TIP3    H129164   1.787   0.106   0.056
 2535TIP3    H229165   1.733   0.198   0.163
 2536TIP3   OH229166   5.152   3.989   0.668
 2536TIP3    H129167   5.232   3.937   0.674
 2536TIP3    H229168   5.130   4.009   0.759
 2537TIP3   OH229169   3.123   3.642   2.159
 2537TIP3    H129170   3.044   3.586   2.163
 2537TIP3    H229171   3.090   3.730   2.177
 2538TIP3   OH229172   3.649   4.263   1.481
 2538TIP3    H129173   3.556   4.285   1.492
 2538TIP3    H229174   3.684   4.261   1.570
 2539TIP3   OH229175   4.574   2.457   0.842
 2539TIP3    H129176   4.662   2.488   0.821
 2539TIP3    H229177   4.517   2.531   0.819
 2540TIP3   OH229178   3.827   5.150   1.001
 2540TIP3    H129179   3.768   5.079   0.978
 2540TIP3    H229180   3.892   5.110   1.058
 2541TIP3   OH229181   0.417   6.531   7.328
 2541TIP3    H129182   0.354   6.483   7.274
 2541TIP3    H229183   0.477   6.464   7.361
 2542TIP3   OH229184   6.864   4.801   8.046
 2542TIP3    H129185   0.076   4.789   8.046
 2542TIP3    H229186   6.829   4.713   8.032
 2543TIP3   OH229187   0.245   0.904   2.009
 2543TIP3    H129188   0.160   0.948   2.014
 2543TIP3    H229189   0.225   0.816   1.977
 2544TIP3   OH229190   4.698   0.260   1.454
 2544TIP3    H129191   4.637   0.334   1.449
 2544TIP3    H229192   4.761   0.276   1.383
 2545TIP3   OH229193   1.387   6.196   6.608
 2545TIP3    H129194   1.310   6.145   6.586
 2545TIP3    H229195   1.448   6.182   6.536
 2546TIP3   OH229196   5.345   5.275   1.869
 2546TIP3    H129197   5.440   5.280   1.874
 2546TIP3    H229198   5.315   5.350   1.920
 2547TIP3   OH229199   6.132   2.001   1.813
 2547TIP3    H129200   6.138   2.065   1.742
 2547TIP3    H229201   6.223   1.978   1.832
 2548TIP3   OH229202   4.812   1.924   8.280
 2548TIP3    H129203   4.813   1.966   8.366
 2548TIP3    H229204   4.751   1.851   8.289
 2549TIP3   OH229205   1.981   5.107   7.518
 2549TIP3    H129206   1.969   5.111   7.423
 2549TIP3    H229207   2.027   5.187   7.540
 2550TIP3   OH229208   5.942   4.841   7.879
 2550TIP3    H129209   5.969   4.776   7.814
 2550TIP3    H229210   5.920   4.790   7.956
 2551TIP3   OH229211   6.586   4.277   0.396
 2551TIP3    H129212   6.496   4.307   0.410
 2551TIP3    H229213   6.627   4.346   0.344
 2552TIP3   OH229214   0.648   0.042   1.723
 2552TIP3    H129215   0.618   0.042   1.814
 2552TIP3    H229216   0.609   0.121   1.685
 2553TIP3   OH229217   0.391   5.414   0.069
 2553TIP3    H129218   0.412   5.335   0.017
 2553TIP3    H229219   0.476   5.448   0.095
 2554TIP3   OH229220   4.372   0.408   6.600
 2554TIP3    H129221   4.327   0.414   6.684
 2554TIP3    H229222   4.343   0.324   6.564
 2555TIP3   OH229223   1.774   1.321   2.035
 2555TIP3    H129224   1.847   1.382   2.024
 2555TIP3    H229225   1.704   1.359   1.981
 2556TIP3   OH229226   3.733   2.738   7.736
 2556TIP3    H129227   3.725   2.830   7.760
 2556TIP3    H229228   3.821   2.730   7.699
 2557TIP3   OH229229   2.232   0.814   0.813
 2557TIP3    H129230   2.161   0.878   0.809
 2557TIP3    H229231   2.192   0.732   0.785
 2558TIP3   OH229232   1.227   3.667   0.513
 2558TIP3    H129233   1.177   3.723   0.453
 2558TIP3    H229234   1.303   3.721   0.537
 2559TIP3   OH229235   6.056   2.094   8.057
 2559TIP3    H129236   6.077   2.054   8.141
 2559TIP3    H229237   6.024   2.021   8.003
 2560TIP3   OH229238   5.209   0.853   7.698
 2560TIP3    H129239   5.279   0.851   7.764
 2560TIP3    H229240   5.255   0.851   7.615
 2561TIP3   OH229241   6.434   4.917   7.612
 2561TIP3    H129242   6.429   4.993   7.555
 2561TIP3    H229243   6.418   4.842   7.553
 2562TIP3   OH229244   4.455   6.315   8.372
 2562TIP3    H129245   4.447   6.315   8.468
 2562TIP3    H229246   4.395   6.247   8.343
 2563TIP3   OH229247   2.936   2.761   2.508
 2563TIP3    H129248   2.917   2.727   2.595
 2563TIP3    H229249   2.853   2.756   2.462
 2564TIP3   OH229250   1.289   0.871   0.812
 2564TIP3    H129251   1.211   0.821   0.788
 2564TIP3    H229252   1.358   0.835   0.756
 2565TIP3   OH229253   3.665   3.579   1.400
 2565TIP3    H129254   3.665   3.507   1.463
 2565TIP3    H229255   3.662   3.658   1.453
 2566TIP3   OH229256   0.381   6.792   1.290
 2566TIP3    H129257   0.327   6.826   1.218
 2566TIP3    H229258   0.441   6.731   1.248
 2567TIP3   OH229259   0.810   0.492   7.640
 2567TIP3    H129260   0.789   0.523   7.551
 2567TIP3    H229261   0.816   0.397   7.631
 2568TIP3   OH229262   2.510   2.509   7.738
 2568TIP3    H129263   2.532   2.416   7.745
 2568TIP3    H229264   2.481   2.534   7.826
 2569TIP3   OH229265   1.257   3.395   6.156
 2569TIP3    H129266   1.209   3.336   6.215
 2569TIP3    H229267   1.340   3.411   6.200
 2570TIP3   OH229268   6.845   1.513   8.101
 2570TIP3    H129269   0.053   1.540   8.112
 2570TIP3    H229270   6.850   1.428   8.057
 2571TIP3   OH229271   0.793   0.765   7.763
 2571TIP3    H129272   0.770   0.680   7.724
 2571TIP3    H229273   0.769   0.829   7.697
 2572TIP3   OH229274   6.150   2.916   0.450
 2572TIP3    H129275   6.199   2.906   0.368
 2572TIP3    H229276   6.217   2.938   0.515
 2573TIP3   OH229277   0.962   4.137   7.073
 2573TIP3    H129278   1.036   4.119   7.015
 2573TIP3    H229279   0.896   4.176   7.016
 2574TIP3   OH229280   6.392   1.746   0.969
 2574TIP3    H129281   6.384   1.833   0.931
 2574TIP3    H229282   6.481   1.717   0.946
 2575TIP3   OH229283   3.261   3.279   1.970
 2575TIP3    H129284   3.321   3.261   2.042
 2575TIP3    H229285   3.276   3.372   1.949
 2576TIP3   OH229286   3.126   0.691   2.100
 2576TIP3    H129287   3.203   0.741   2.127
 2576TIP3    H229288   3.087   0.660   2.181
 2577TIP3   OH229289   1.434   5.374   7.287
 2577TIP3    H129290   1.484   5.452   7.261
 2577TIP3    H229291   1.491   5.301   7.263
 2578TIP3   OH229292   5.616   6.875   1.104
 2578TIP3    H129293   5.545   0.038   1.148
 2578TIP3    H229294   5.669   0.062   1.065
 2579TIP3   OH229295   2.220   1.043   0.484
 2579TIP3    H129296   2.202   1.064   0.392
 2579TIP3    H229297   2.148   1.085   0.532
 2580TIP3   OH229298   3.868   6.028   1.818
 2580TIP3    H129299   3.911   5.987   1.743
 2580TIP3    H229300   3.836   6.112   1.785
 2581TIP3   OH229301   3.113   3.245   7.413
 2581TIP3    H129302   3.135   3.233   7.321
 2581TIP3    H229303   3.025   3.206   7.422
 2582TIP3   OH229304   0.318   6.435   7.963
 2582TIP3    H129305   0.390   6.498   7.962
 2582TIP3    H229306   0.318   6.396   7.875
 2583TIP3   OH229307   3.367   2.245   0.180
 2583TIP3    H129308   3.444   2.227   0.127
 2583TIP3    H229309   3.305   2.176   0.157
 2584TIP3   OH229310   3.842   3.039   0.190
 2584TIP3    H129311   3.766   3.050   0.248
 2584TIP3    H229312   3.866   2.947   0.199
 2585TIP3   OH229313   5.720   1.533   1.293
 2585TIP3    H129314   5.707   1.562   1.383
 2585TIP3    H229315   5.668   1.593   1.240
 2586TIP3   OH229316   3.543   1.690   6.427
 2586TIP3    H129317   3.586   1.724   6.505
 2586TIP3    H229318   3.546   1.595   6.437
 2587TIP3   OH229319   4.310   4.389   2.468
 2587TIP3    H129320   4.354   4.341   2.538
 2587TIP3    H229321   4.376   4.451   2.437
 2588TIP3   OH229322   4.114   5.074   6.952
 2588TIP3    H129323   4.061   5.144   6.914
 2588TIP3    H229324   4.151   5.028   6.877
 2589TIP3   OH229325   2.977   4.163   1.252
 2589TIP3    H129326   2.941   4.098   1.312
 2589TIP3    H229327   3.049   4.118   1.208
 2590TIP3   OH229328   2.095   3.195   0.697
 2590TIP3    H129329   2.052   3.201   0.612
 2590TIP3    H229330   2.176   3.245   0.687
 2591TIP3   OH229331   1.738   2.946   8.499
 2591TIP3    H129332   1.704   2.909   8.580
 2591TIP3    H229333   1.689   2.903   8.430
 2592TIP3   OH229334   4.953   5.395   7.447
 2592TIP3    H129335   5.011   5.467   7.474
 2592TIP3    H229336   5.010   5.336   7.397
 2593TIP3   OH229337   0.821   1.975   8.279
 2593TIP3    H129338   0.835   1.886   8.248
 2593TIP3    H229339   0.882   1.986   8.351
 2594TIP3   OH229340   0.452   0.782   0.873
 2594TIP3    H129341   0.464   0.739   0.957
 2594TIP3    H229342   0.358   0.800   0.868
 2595TIP3   OH229343   2.289   6.774   2.586
 2595TIP3    H129344   2.331   6.785   2.501
 2595TIP3    H229345   2.255   6.685   2.585
 2596TIP3   OH229346   6.617   0.278   8.105
 2596TIP3    H129347   6.609   0.183   8.101
 2596TIP3    H229348   6.696   0.293   8.158
 2597TIP3   OH229349   5.183   5.881   7.926
 2597TIP3    H129350   5.121   5.810   7.911
 2597TIP3    H229351   5.246   5.845   7.988
 2598TIP3   OH229352   4.946   4.690   0.811
 2598TIP3    H129353   4.855   4.691   0.841
 2598TIP3    H229354   4.946   4.625   0.741
 2599TIP3   OH229355   2.950   0.795   1.218
 2599TIP3    H129356   3.002   0.727   1.177
 2599TIP3    H229357   2.947   0.866   1.154
 2600TIP3   OH229358   4.574   4.392   7.295
 2600TIP3    H129359   4.667   4.380   7.313
 2600TIP3    H229360   4.548   4.312   7.248
 2601TIP3   OH229361   0.817   6.652   2.212
 2601TIP3    H129362   0.904   6.691   2.209
 2601TIP3    H229363   0.827   6.569   2.165
 2602TIP3   OH229364   6.251   4.586   2.036
 2602TIP3    H129365   6.332   4.547   2.070
 2602TIP3    H229366   6.200   4.608   2.114
 2603TIP3   OH229367   3.438   0.223   1.183
 2603TIP3    H129368   3.447   0.162   1.256
 2603TIP3    H229369   3.524   0.224   1.141
 2604TIP3   OH229370   0.081   6.703   0.422
 2604TIP3    H129371   0.038   6.760   0.358
 2604TIP3    H229372   0.169   6.689   0.385
 2605TIP3   OH229373   4.564   2.893   0.273
 2605TIP3    H129374   4.588   2.801   0.284
 2605TIP3    H229375   4.475   2.899   0.307
 2606TIP3   OH229376   4.381   1.046   7.447
 2606TIP3    H129377   4.336   1.125   7.420
 2606TIP3    H229378   4.467   1.076   7.476
 2607TIP3   OH229379   1.218   1.695   0.860
 2607TIP3    H129380   1.289   1.690   0.924
 2607TIP3    H229381   1.168   1.614   0.873
 2608TIP3   OH229382   2.953   0.114   1.086
 2608TIP3    H129383   2.882   0.118   1.150
 2608TIP3    H229384   2.965   0.021   1.069
 2609TIP3   OH229385   5.928   5.583   8.367
 2609TIP3    H129386   5.980   5.503   8.362
 2609TIP3    H229387   5.867   5.566   8.439
 2610TIP3   OH229388   3.525   1.122   1.967
 2610TIP3    H129389   3.452   1.102   1.909
 2610TIP3    H229390   3.484   1.145   2.051
 2611TIP3   OH229391   4.724   2.617   7.995
 2611TIP3    H129392   4.650   2.638   8.051
 2611TIP3    H229393   4.750   2.529   8.022
 2612TIP3   OH229394   4.162   6.291   2.729
 2612TIP3    H129395   4.161   6.376   2.771
 2612TIP3    H229396   4.238   6.246   2.767
 2613TIP3   OH229397   3.550   3.179   7.421
 2613TIP3    H129398   3.471   3.139   7.456
 2613TIP3    H229399   3.541   3.272   7.442
 2614TIP3   OH229400   2.435   3.858   8.191
 2614TIP3    H129401   2.371   3.904   8.138
 2614TIP3    H229402   2.429   3.767   8.162
 2615TIP3   OH229403   0.041   0.017   7.127
 2615TIP3    H129404   0.060   6.808   7.143
 2615TIP3    H229405   6.831   0.026   7.150
 2616TIP3   OH229406   5.018   0.366   1.387
 2616TIP3    H129407   4.991   0.355   1.296
 2616TIP3    H229408   5.050   0.456   1.391
 2617TIP3   OH229409   5.067   3.891   1.166
 2617TIP3    H129410   5.113   3.813   1.199
 2617TIP3    H229411   5.024   3.928   1.243
 2618TIP3   OH229412   5.932   2.716   0.596
 2618TIP3    H129413   5.977   2.650   0.543
 2618TIP3    H229414   5.955   2.799   0.556
 2619TIP3   OH229415   3.842   0.732   8.477
 2619TIP3    H129416   3.789   0.763   8.403
 2619TIP3    H229417   3.917   0.689   8.437
 2620TIP3   OH229418   2.229   0.854   6.803
 2620TIP3    H129419   2.220   0.899   6.887
 2620TIP3    H229420   2.317   0.816   6.806
 2621TIP3   OH229421   1.614   3.775   8.570
 2621TIP3    H129422   1.637   3.856   8.524
 2621TIP3    H229423   1.591   3.804   0.027
 2622TIP3   OH229424   3.932   3.586   0.143
 2622TIP3    H129425   3.955   3.560   0.232
 2622TIP3    H229426   3.927   3.681   0.146
 2623TIP3   OH229427   1.907   2.749   6.413
 2623TIP3    H129428   1.828   2.704   6.443
 2623TIP3    H229429   1.894   2.840   6.439
 2624TIP3   OH229430   2.663   5.164   0.449
 2624TIP3    H129431   2.681   5.072   0.429
 2624TIP3    H229432   2.712   5.213   0.382
 2625TIP3   OH229433   5.617   5.293   7.346
 2625TIP3    H129434   5.576   5.220   7.300
 2625TIP3    H229435   5.677   5.252   7.408
 2626TIP3   OH229436   2.142   2.751   6.627
 2626TIP3    H129437   2.182   2.808   6.692
 2626TIP3    H229438   2.204   2.749   6.555
 2627TIP3   OH229439   3.372   1.083   2.624
 2627TIP3    H129440   3.454   1.114   2.586
 2627TIP3    H229441   3.354   1.002   2.577
 2628TIP3   OH229442   5.898   6.512   8.497
 2628TIP3    H129443   5.977   6.540   8.543
 2628TIP3    H229444   5.888   6.420   8.521
 2629TIP3   OH229445   6.600   2.320   1.442
 2629TIP3    H129446   6.541   2.246   1.426
 2629TIP3    H229447   6.572   2.355   1.527
 2630TIP3   OH229448   1.742   5.016   2.516
 2630TIP3    H129449   1.648   5.002   2.530
 2630TIP3    H229450   1.778   4.928   2.507
 2631TIP3   OH229451   4.267   2.824   0.061
 2631TIP3    H129452   4.257   2.729   0.052
 2631TIP3    H229453   4.273   2.839   0.155
 2632TIP3   OH229454   1.201   6.546   7.205
 2632TIP3    H129455   1.142   6.507   7.141
 2632TIP3    H229456   1.200   6.640   7.185
 2633TIP3   OH229457   0.646   2.981   2.188
 2633TIP3    H129458   0.710   3.045   2.219
 2633TIP3    H229459   0.690   2.936   2.116
 2634TIP3   OH229460   1.075   3.222   0.640
 2634TIP3    H129461   0.986   3.228   0.675
 2634TIP3    H229462   1.074   3.276   0.561
 2635TIP3   OH229463   5.729   4.920   1.277
 2635TIP3    H129464   5.718   4.898   1.369
 2635TIP3    H229465   5.797   4.988   1.276
 2636TIP3   OH229466   1.026   6.205   2.240
 2636TIP3    H129467   1.117   6.176   2.230
 2636TIP3    H229468   0.993   6.153   2.313
 2637TIP3   OH229469   1.170   2.973   0.676
 2637TIP3    H129470   1.152   3.064   0.654
 2637TIP3    H229471   1.104   2.950   0.742
 2638TIP3   OH229472   4.441   0.471   8.429
 2638TIP3    H129473   4.444   0.564   8.449
 2638TIP3    H229474   4.353   0.443   8.455
 2639TIP3   OH229475   6.859   4.905   7.532
 2639TIP3    H129476   6.805   4.949   7.597
 2639TIP3    H229477   6.828   4.814   7.531
 2640TIP3   OH229478   6.625   4.126   7.231
 2640TIP3    H129479   6.710   4.085   7.246
 2640TIP3    H229480   6.562   4.065   7.270
 2641TIP3   OH229481   1.198   4.920   0.127
 2641TIP3    H129482   1.216   4.826   0.114
 2641TIP3    H229483   1.284   4.961   0.125
 2642TIP3   OH229484   4.436   5.542   1.162
 2642TIP3    H129485   4.409   5.634   1.170
 2642TIP3    H229486   4.450   5.513   1.252
 2643TIP3   OH229487   4.116   2.971   7.833
 2643TIP3    H129488   4.088   2.880   7.842
 2643TIP3    H229489   4.094   3.012   7.917
 2644TIP3   OH229490   4.545   0.210   0.575
 2644TIP3    H129491   4.450   0.212   0.571
 2644TIP3    H229492   4.567   0.117   0.581
 2645TIP3   OH229493   2.779   0.337   0.537
 2645TIP3    H129494   2.695   0.301   0.509
 2645TIP3    H229495   2.766   0.432   0.536
 2646TIP3   OH229496   4.621   4.637   2.086
 2646TIP3    H129497   4.532   4.613   2.063
 2646TIP3    H229498   4.639   4.592   2.168
 2647TIP3   OH229499   1.989   1.570   8.102
 2647TIP3    H129500   1.944   1.603   8.179
 2647TIP3    H229501   2.011   1.479   8.124
 2648TIP3   OH229502   4.725   4.065   8.090
 2648TIP3    H129503   4.732   4.064   7.994
 2648TIP3    H229504   4.637   4.031   8.108
 2649TIP3   OH229505   0.064   3.396   2.444
 2649TIP3    H129506   0.109   3.480   2.431
 2649TIP3    H229507   6.854   3.419   2.442
 2650TIP3   OH229508   5.428   0.867   0.041
 2650TIP3    H129509   5.391   0.794   8.622
 2650TIP3    H229510   5.521   0.848   0.047
 2651TIP3   OH229511   4.295   5.130   8.569
 2651TIP3    H129512   4.232   5.066   8.603
 2651TIP3    H229513   4.364   5.133   0.004
 2652TIP3   OH229514   4.540   5.007   7.710
 2652TIP3    H129515   4.509   5.039   7.794
 2652TIP3    H229516   4.629   5.042   7.703
 2653TIP3   OH229517   5.649   6.737   8.457
 2653TIP3    H129518   5.738   6.743   8.490
 2653TIP3    H229519   5.648   6.656   8.407
 2654TIP3   OH229520   5.522   6.726   7.894
 2654TIP3    H129521   5.435   6.751   7.862
 2654TIP3    H229522   5.537   6.781   7.971
 2655TIP3   OH229523   0.581   3.573   1.881
 2655TIP3    H129524   0.535   3.655   1.864
 2655TIP3    H229525   0.604   3.577   1.974
 2656TIP3   OH229526   3.832   4.976   1.254
 2656TIP3    H129527   3.877   4.894   1.274
 2656TIP3    H229528   3.902   5.034   1.225
 2657TIP3   OH229529   3.596   4.157   7.889
 2657TIP3    H129530   3.526   4.189   7.946
 2657TIP3    H229531   3.637   4.086   7.939
 2658TIP3   OH229532   3.769   1.690   0.531
 2658TIP3    H129533   3.812   1.609   0.559
 2658TIP3    H229534   3.809   1.711   0.447
 2659TIP3   OH229535   2.282   4.348   1.232
 2659TIP3    H129536   2.238   4.419   1.185
 2659TIP3    H229537   2.358   4.389   1.273
 2660TIP3   OH229538   2.682   3.852   7.811
 2660TIP3    H129539   2.677   3.824   7.903
 2660TIP3    H229540   2.713   3.775   7.764
 2661TIP3   OH229541   4.089   4.941   0.422
 2661TIP3    H129542   4.073   5.007   0.489
 2661TIP3    H229543   4.098   4.859   0.470
 2662TIP3   OH229544   6.328   4.913   8.037
 2662TIP3    H129545   6.356   4.996   7.998
 2662TIP3    H229546   6.406   4.878   8.079
 2663TIP3   OH229547   2.388   3.014   0.896
 2663TIP3    H129548   2.415   3.041   0.808
 2663TIP3    H229549   2.470   2.990   0.939
 2664TIP3   OH229550   6.802   2.857   1.279
 2664TIP3    H129551   6.761   2.830   1.361
 2664TIP3    H229552   6.756   2.805   1.212
 2665TIP3   OH229553   5.871   1.071   0.944
 2665TIP3    H129554   5.963   1.096   0.932
 2665TIP3    H229555   5.822   1.145   0.909
 2666TIP3   OH229556   5.413   2.406   1.691
 2666TIP3    H129557   5.448   2.317   1.695
 2666TIP3    H229558   5.467   2.455   1.754
 2667TIP3   OH229559   3.724   4.618   7.599
 2667TIP3    H129560   3.697   4.587   7.685
 2667TIP3    H229561   3.789   4.555   7.569
 2668TIP3   OH229562   2.239   4.828   2.338
 2668TIP3    H129563   2.265   4.911   2.298
 2668TIP3    H229564   2.236   4.846   2.432
 2669TIP3   OH229565   4.006   1.024   1.518
 2669TIP3    H129566   4.100   1.004   1.519
 2669TIP3    H229567   3.992   1.068   1.435
 2670TIP3   OH229568   1.694   0.173   8.522
 2670TIP3    H129569   1.654   0.259   8.509
 2670TIP3    H229570   1.624   0.111   8.502
 2671TIP3   OH229571   1.953   5.188   7.236
 2671TIP3    H129572   2.009   5.130   7.184
 2671TIP3    H229573   1.946   5.267   7.183
 2672TIP3   OH229574   2.756   0.067   6.695
 2672TIP3    H129575   2.804   6.881   6.649
 2672TIP3    H229576   2.754   0.140   6.632
 2673TIP3   OH229577   2.167   2.354   8.140
 2673TIP3    H129578   2.140   2.431   8.189
 2673TIP3    H229579   2.194   2.291   8.207
 2674TIP3   OH229580   3.317   0.468   1.882
 2674TIP3    H129581   3.358   0.400   1.936
 2674TIP3    H229582   3.391   0.515   1.844
 2675TIP3   OH229583   0.457   1.793   2.078
 2675TIP3    H129584   0.405   1.715   2.057
 2675TIP3    H229585   0.395   1.852   2.121
 2676TIP3   OH229586   4.976   0.833   8.135
 2676TIP3    H129587   4.971   0.776   8.059
 2676TIP3    H229588   4.893   0.819   8.181
 2677TIP3   OH229589   0.026   2.294   0.129
 2677TIP3    H129590   6.830   2.345   0.144
 2677TIP3    H229591   0.022   2.224   0.195
 2678TIP3   OH229592   3.499   3.166   6.894
 2678TIP3    H129593   3.461   3.104   6.831
 2678TIP3    H229594   3.473   3.133   6.980
 2679TIP3   OH229595   3.462   6.182   0.598
 2679TIP3    H129596   3.468   6.099   0.551
 2679TIP3    H229597   3.373   6.214   0.579
 2680TIP3   OH229598   6.185   4.881   2.824
 2680TIP3    H129599   6.120   4.824   2.783
 2680TIP3    H229600   6.196   4.845   2.912
 2681TIP3   OH229601   3.387   4.140   6.205
 2681TIP3    H129602   3.321   4.143   6.136
 2681TIP3    H229603   3.395   4.231   6.235
 2682TIP3   OH229604   2.253   6.401   0.166
 2682TIP3    H129605   2.301   6.329   0.126
 2682TIP3    H229606   2.217   6.364   0.247
 2683TIP3   OH229607   1.183   3.576   1.462
 2683TIP3    H129608   1.133   3.636   1.517
 2683TIP3    H229609   1.271   3.613   1.461
 2684TIP3   OH229610   6.688   6.471   1.635
 2684TIP3    H129611   6.647   6.402   1.689
 2684TIP3    H229612   6.737   6.423   1.568
 2685TIP3   OH229613   6.526   1.453   7.953
 2685TIP3    H129614   6.538   1.486   8.042
 2685TIP3    H229615   6.436   1.476   7.931
 2686TIP3   OH229616   6.158   6.239   1.751
 2686TIP3    H129617   6.084   6.186   1.724
 2686TIP3    H229618   6.182   6.290   1.674
 2687TIP3   OH229619   4.688   5.926   1.587
 2687TIP3    H129620   4.758   5.881   1.634
 2687TIP3    H229621   4.608   5.881   1.613
 2688TIP3   OH229622   2.511   0.264   0.518
 2688TIP3    H129623   2.447   0.304   0.459
 2688TIP3    H229624   2.472   0.180   0.542
 2689TIP3   OH229625   2.301   2.838   6.877
 2689TIP3    H129626   2.352   2.894   6.937
 2689TIP3    H229627   2.359   2.764   6.858
 2690TIP3   OH229628   3.596   5.187   0.114
 2690TIP3    H129629   3.615   5.190   0.208
 2690TIP3    H229630   3.665   5.131   0.077
 2691TIP3   OH229631   0.241   5.835   2.208
 2691TIP3    H129632   0.161   5.832   2.259
 2691TIP3    H229633   0.299   5.772   2.251
 2692TIP3   OH229634   3.428   4.433   1.563
 2692TIP3    H129635   3.394   4.478   1.485
 2692TIP3    H229636   3.351   4.412   1.615
 2693TIP3   OH229637   1.095   5.857   0.266
 2693TIP3    H129638   1.160   5.799   0.305
 2693TIP3    H229639   1.130   5.945   0.282
 2694TIP3   OH229640   4.868   2.789   6.780
 2694TIP3    H129641   4.911   2.852   6.722
 2694TIP3    H229642   4.786   2.767   6.736
 2695TIP3   OH229643   1.051   3.547   1.203
 2695TIP3    H129644   1.087   3.559   1.291
 2695TIP3    H229645   0.967   3.592   1.204
 2696TIP3   OH229646   1.380   2.029   7.382
 2696TIP3    H129647   1.387   2.121   7.406
 2696TIP3    H229648   1.341   2.030   7.294
 2697TIP3   OH229649   6.031   0.754   7.461
 2697TIP3    H129650   5.954   0.810   7.449
 2697TIP3    H229651   6.002   0.688   7.524
 2698TIP3   OH229652   3.204   1.141   0.921
 2698TIP3    H129653   3.172   1.209   0.862
 2698TIP3    H229654   3.171   1.167   1.007
 2699TIP3   OH229655   3.851   0.213   7.961
 2699TIP3    H129656   3.775   0.162   7.989
 2699TIP3    H229657   3.898   0.155   7.901
 2700TIP3   OH229658   6.191   6.675   6.918
 2700TIP3    H129659   6.207   6.588   6.881
 2700TIP3    H229660   6.183   6.659   7.012
 2701TIP3   OH229661   3.360   6.643   7.671
 2701TIP3    H129662   3.400   6.562   7.705
 2701TIP3    H229663   3.425   6.711   7.689
 2702TIP3   OH229664   3.124   1.779   2.532
 2702TIP3    H129665   3.145   1.695   2.573
 2702TIP3    H229666   3.085   1.831   2.602
 2703TIP3   OH229667   2.839   3.263   1.781
 2703TIP3    H129668   2.841   3.274   1.686
 2703TIP3    H229669   2.788   3.337   1.813
 2704TIP3   OH229670   0.990   1.140   6.394
 2704TIP3    H129671   0.959   1.118   6.306
 2704TIP3    H229672   0.960   1.068   6.449
 2705TIP3   OH229673   3.384   3.534   8.281
 2705TIP3    H129674   3.423   3.605   8.332
 2705TIP3    H229675   3.292   3.533   8.307
 2706TIP3   OH229676   2.527   2.722   1.365
 2706TIP3    H129677   2.492   2.736   1.277
 2706TIP3    H229678   2.465   2.765   1.423
 2707TIP3   OH229679   2.990   4.357   8.610
 2707TIP3    H129680   2.936   4.386   8.537
 2707TIP3    H229681   2.962   4.267   8.627
 2708TIP3   OH229682   4.987   1.088   2.039
 2708TIP3    H129683   4.945   1.145   1.976
 2708TIP3    H229684   4.977   1.133   2.123
 2709TIP3   OH229685   6.069   5.954   1.872
 2709TIP3    H129686   6.039   5.906   1.950
 2709TIP3    H229687   6.108   6.034   1.907
 2710TIP3   OH229688   6.101   0.711   0.218
 2710TIP3    H129689   6.166   0.715   0.288
 2710TIP3    H229690   6.071   0.801   0.207
 2711TIP3   OH229691   6.572   4.803   8.018
 2711TIP3    H129692   6.559   4.787   7.925
 2711TIP3    H229693   6.664   4.830   8.026
 2712TIP3   OH229694   5.994   4.581   6.913
 2712TIP3    H129695   6.090   4.589   6.907
 2712TIP3    H229696   5.978   4.558   7.005
 2713TIP3   OH229697   2.200   6.508   7.922
 2713TIP3    H129698   2.259   6.580   7.898
 2713TIP3    H229699   2.127   6.516   7.861
 2714TIP3   OH229700   1.012   0.442   0.649
 2714TIP3    H129701   0.934   0.495   0.665
 2714TIP3    H229702   0.989   0.355   0.679
 2715TIP3   OH229703   4.367   5.988   8.494
 2715TIP3    H129704   4.339   6.051   8.428
 2715TIP3    H229705   4.377   5.905   8.447
 2716TIP3   OH229706   3.436   3.123   1.009
 2716TIP3    H129707   3.511   3.076   1.044
 2716TIP3    H229708   3.403   3.174   1.084
 2717TIP3   OH229709   3.292   4.505   0.303
 2717TIP3    H129710   3.235   4.560   0.249
 2717TIP3    H229711   3.254   4.417   0.295
 2718TIP3   OH229712   0.579   1.636   0.723
 2718TIP3    H129713   0.631   1.610   0.799
 2718TIP3    H229714   0.575   1.558   0.668
 2719TIP3   OH229715   0.135   6.752   8.608
 2719TIP3    H129716   0.097   6.758   8.520
 2719TIP3    H229717   0.064   6.717   0.030
 2720TIP3   OH229718   6.646   0.972   7.795
 2720TIP3    H129719   6.590   0.962   7.872
 2720TIP3    H229720   6.585   0.970   7.721
 2721TIP3   OH229721   5.519   2.430   6.731
 2721TIP3    H129722   5.464   2.398   6.802
 2721TIP3    H229723   5.458   2.448   6.660
 2722TIP3   OH229724   0.790   0.485   6.444
 2722TIP3    H129725   0.778   0.402   6.396
 2722TIP3    H229726   0.873   0.519   6.412
 2723TIP3   OH229727   1.700   0.312   0.721
 2723TIP3    H129728   1.619   0.357   0.698
 2723TIP3    H229729   1.726   0.267   0.641
 2724TIP3   OH229730   1.355   2.216   1.003
 2724TIP3    H129731   1.345   2.176   0.917
 2724TIP3    H229732   1.296   2.168   1.059
 2725TIP3   OH229733   3.381   6.374   2.170
 2725TIP3    H129734   3.441   6.447   2.154
 2725TIP3    H229735   3.331   6.366   2.089
 2726TIP3   OH229736   6.216   0.364   6.936
 2726TIP3    H129737   6.271   0.373   7.014
 2726TIP3    H229738   6.164   0.285   6.952
 2727TIP3   OH229739   3.739   1.424   1.103
 2727TIP3    H129740   3.763   1.464   1.187
 2727TIP3    H229741   3.751   1.330   1.117
 2728TIP3   OH229742   3.088   1.818   6.674
 2728TIP3    H129743   3.046   1.817   6.588
 2728TIP3    H229744   3.162   1.758   6.665
 2729TIP3   OH229745   0.718   0.136   0.161
 2729TIP3    H129746   0.730   0.104   0.250
 2729TIP3    H229747   0.653   0.206   0.170
 2730TIP3   OH229748   0.568   6.361   0.901
 2730TIP3    H129749   0.480   6.325   0.903
 2730TIP3    H229750   0.557   6.452   0.929
 2731TIP3   OH229751   1.879   4.515   0.068
 2731TIP3    H129752   1.950   4.538   0.008
 2731TIP3    H229753   1.895   4.569   0.145
 2732TIP3   OH229754   2.711   0.481   8.119
 2732TIP3    H129755   2.692   0.415   8.052
 2732TIP3    H229756   2.727   0.561   8.069
 2733TIP3   OH229757   3.830   0.819   8.190
 2733TIP3    H129758   3.752   0.813   8.135
 2733TIP3    H229759   3.823   0.904   8.233
 2734TIP3   OH229760   4.056   6.096   1.188
 2734TIP3    H129761   4.010   6.043   1.253
 2734TIP3    H229762   4.147   6.100   1.220
 2735TIP3   OH229763   1.457   0.898   8.541
 2735TIP3    H129764   1.418   0.983   8.521
 2735TIP3    H229765   1.432   0.842   8.467
 2736TIP3   OH229766   5.897   2.890   1.712
 2736TIP3    H129767   5.858   2.978   1.710
 2736TIP3    H229768   5.824   2.831   1.694
 2737TIP3   OH229769   1.970   0.826   1.186
 2737TIP3    H129770   1.948   0.848   1.096
 2737TIP3    H229771   1.889   0.791   1.222
 2738TIP3   OH229772   4.384   6.869   5.898
 2738TIP3    H129773   4.413   6.809   5.830
 2738TIP3    H229774   4.450   6.862   5.967
 2739TIP3   OH229775   1.663   2.035   7.582
 2739TIP3    H129776   1.715   1.993   7.651
 2739TIP3    H229777   1.694   2.125   7.580
 2740TIP3   OH229778   4.015   0.105   7.288
 2740TIP3    H129779   4.063   0.087   7.369
 2740TIP3    H229780   3.925   0.119   7.317
 2741TIP3   OH229781   1.096   5.076   7.536
 2741TIP3    H129782   1.145   5.014   7.481
 2741TIP3    H229783   1.086   5.154   7.482
 2742TIP3   OH229784   1.953   3.613   1.626
 2742TIP3    H129785   1.927   3.623   1.534
 2742TIP3    H229786   2.008   3.534   1.627
 2743TIP3   OH229787   5.561   1.110   0.800
 2743TIP3    H129788   5.593   1.021   0.818
 2743TIP3    H229789   5.601   1.164   0.868
 2744TIP3   OH229790   3.861   4.282   0.838
 2744TIP3    H129791   3.850   4.259   0.930
 2744TIP3    H229792   3.937   4.231   0.810
 2745TIP3   OH229793   1.319   4.656   7.571
 2745TIP3    H129794   1.316   4.680   7.478
 2745TIP3    H229795   1.341   4.563   7.572
 2746TIP3   OH229796   3.555   3.749   6.526
 2746TIP3    H129797   3.503   3.809   6.472
 2746TIP3    H229798   3.631   3.801   6.553
 2747TIP3   OH229799   2.163   1.260   6.807
 2747TIP3    H129800   2.085   1.267   6.862
 2747TIP3    H229801   2.154   1.331   6.743
 2748TIP3   OH229802   3.075   1.868   0.311
 2748TIP3    H129803   3.062   1.820   0.394
 2748TIP3    H229804   3.022   1.947   0.321
 2749TIP3   OH229805   4.313   0.286   7.741
 2749TIP3    H129806   4.403   0.266   7.716
 2749TIP3    H229807   4.287   0.212   7.796
 2750TIP3   OH229808   1.521   2.002   6.968
 2750TIP3    H129809   1.590   2.060   6.936
 2750TIP3    H229810   1.503   1.944   6.893
 2751TIP3   OH229811   6.835   2.202   1.429
 2751TIP3    H129812   6.740   2.209   1.416
 2751TIP3    H229813   6.872   2.258   1.360
 2752TIP3   OH229814   0.285   3.449   7.679
 2752TIP3    H129815   0.250   3.441   7.590
 2752TIP3    H229816   0.376   3.478   7.666
 2753TIP3   OH229817   5.655   2.176   0.775
 2753TIP3    H129818   5.716   2.158   0.846
 2753TIP3    H229819   5.681   2.116   0.704
 2754TIP3   OH229820   1.560   0.394   1.615
 2754TIP3    H129821   1.617   0.446   1.558
 2754TIP3    H229822   1.618   0.362   1.684
 2755TIP3   OH229823   6.194   1.705   8.102
 2755TIP3    H129824   6.213   1.705   8.196
 2755TIP3    H229825   6.216   1.794   8.073
 2756TIP3   OH229826   6.469   0.756   1.535
 2756TIP3    H129827   6.420   0.720   1.461
 2756TIP3    H229828   6.560   0.757   1.506
 2757TIP3   OH229829   5.714   1.933   1.735
 2757TIP3    H129830   5.656   1.992   1.783
 2757TIP3    H229831   5.773   1.899   1.801
 2758TIP3   OH229832   6.330   0.788   0.364
 2758TIP3    H129833   6.393   0.780   0.435
 2758TIP3    H229834   6.379   0.763   0.286
 2759TIP3   OH229835   0.903   5.061   8.394
 2759TIP3    H129836   0.853   5.142   8.408
 2759TIP3    H229837   0.864   5.023   8.314
 2760TIP3   OH229838   0.132   0.299   1.005
 2760TIP3    H129839   0.081   0.219   0.995
 2760TIP3    H229840   0.097   0.340   1.084
 2761TIP3   OH229841   2.365   4.110   0.453
 2761TIP3    H129842   2.393   4.019   0.445
 2761TIP3    H229843   2.311   4.113   0.531
 2762TIP3   OH229844   5.024   3.279   8.239
 2762TIP3    H129845   4.938   3.256   8.273
 2762TIP3    H229846   5.017   3.372   8.215
 2763TIP3   OH229847   2.041   2.666   7.672
 2763TIP3    H129848   2.004   2.742   7.626
 2763TIP3    H229849   1.994   2.663   7.755
 2764TIP3   OH229850   1.590   5.559   8.407
 2764TIP3    H129851   1.517   5.503   8.381
 2764TIP3    H229852   1.668   5.512   8.376
 2765TIP3   OH229853   1.516   0.070   7.604
 2765TIP3    H129854   1.535   6.872   7.556
 2765TIP3    H229855   1.424   0.086   7.588
 2766TIP3   OH229856   0.625   1.130   7.838
 2766TIP3    H129857   0.618   1.038   7.864
 2766TIP3    H229858   0.618   1.179   7.920
 2767TIP3   OH229859   4.540   3.331   7.954
 2767TIP3    H129860   4.502   3.283   8.027
 2767TIP3    H229861   4.620   3.370   7.989
 2768TIP3   OH229862   6.620   4.592   0.595
 2768TIP3    H129863   6.628   4.655   0.666
 2768TIP3    H229864   6.562   4.634   0.532
 2769TIP3   OH229865   2.029   0.652   6.334
 2769TIP3    H129866   2.065   0.740   6.319
 2769TIP3    H229867   2.087   0.593   6.286
 2770TIP3   OH229868   0.871   3.255   7.963
 2770TIP3    H129869   0.883   3.345   7.993
 2770TIP3    H229870   0.776   3.246   7.955
 2771TIP3   OH229871   0.955   6.465   7.567
 2771TIP3    H129872   0.909   6.490   7.487
 2771TIP3    H229873   1.046   6.456   7.540
 2772TIP3   OH229874   0.890   2.671   7.952
 2772TIP3    H129875   0.842   2.725   7.889
 2772TIP3    H229876   0.959   2.729   7.985
 2773TIP3   OH229877   0.328   6.222   0.113
 2773TIP3    H129878   0.323   6.245   0.206
 2773TIP3    H229879   0.255   6.268   0.072
 2774TIP3   OH229880   4.808   1.505   1.104
 2774TIP3    H129881   4.733   1.458   1.141
 2774TIP3    H229882   4.870   1.436   1.078
 2775TIP3   OH229883   3.355   3.941   8.530
 2775TIP3    H129884   3.401   3.878   8.475
 2775TIP3    H229885   3.306   3.996   8.469
 2776TIP3   OH229886   5.795   2.271   1.189
 2776TIP3    H129887   5.793   2.365   1.170
 2776TIP3    H229888   5.729   2.258   1.257
 2777TIP3   OH229889   1.257   1.083   1.426
 2777TIP3    H129890   1.202   1.126   1.492
 2777TIP3    H229891   1.281   1.154   1.366
 2778TIP3   OH229892   3.363   2.919   0.590
 2778TIP3    H129893   3.353   2.833   0.630
 2778TIP3    H229894   3.390   2.901   0.500
 2779TIP3   OH229895   6.207   0.555   6.564
 2779TIP3    H129896   6.286   0.605   6.543
 2779TIP3    H229897   6.240   0.472   6.598
 2780TIP3   OH229898   1.397   5.805   5.895
 2780TIP3    H129899   1.361   5.725   5.857
 2780TIP3    H229900   1.463   5.835   5.833
 2781TIP3   OH229901   4.727   0.690   1.545
 2781TIP3    H129902   4.727   0.785   1.552
 2781TIP3    H229903   4.722   0.673   1.451
 2782TIP3   OH229904   5.686   4.756   8.443
 2782TIP3    H129905   5.684   4.660   8.448
 2782TIP3    H229906   5.756   4.775   8.380
 2783TIP3   OH229907   0.607   3.591   8.259
 2783TIP3    H129908   0.695   3.624   8.274
 2783TIP3    H229909   0.611   3.499   8.284
 2784TIP3   OH229910   0.084   1.012   8.142
 2784TIP3    H129911   0.095   0.952   8.216
 2784TIP3    H229912   0.045   1.091   8.180
 2785TIP3   OH229913   3.322   2.670   0.710
 2785TIP3    H129914   3.367   2.601   0.661
 2785TIP3    H229915   3.369   2.674   0.794
 2786TIP3   OH229916   1.982   6.307   8.467
 2786TIP3    H129917   1.995   6.401   8.475
 2786TIP3    H229918   1.890   6.297   8.441
 2787TIP3   OH229919   6.576   3.915   1.587
 2787TIP3    H129920   6.577   3.955   1.500
 2787TIP3    H229921   6.491   3.872   1.593
 2788TIP3   OH229922   3.327   2.301   1.147
 2788TIP3    H129923   3.366   2.239   1.209
 2788TIP3    H229924   3.233   2.283   1.151
 2789TIP3   OH229925   2.844   2.332   0.056
 2789TIP3    H129926   2.902   2.349   0.131
 2789TIP3    H229927   2.904   2.318   8.614
 2790TIP3   OH229928   6.830   5.016   2.229
 2790TIP3    H129929   6.833   5.109   2.252
 2790TIP3    H229930   6.820   5.016   2.134
 2791TIP3   OH229931   0.942   6.170   6.423
 2791TIP3    H129932   0.895   6.155   6.341
 2791TIP3    H229933   1.017   6.223   6.398
 2792TIP3   OH229934   1.214   0.077   7.520
 2792TIP3    H129935   1.235   0.059   7.429
 2792TIP3    H229936   1.211   0.173   7.526
 2793TIP3   OH229937   2.974   1.175   7.274
 2793TIP3    H129938   3.053   1.228   7.258
 2793TIP3    H229939   2.995   1.089   7.238
 2794TIP3   OH229940   0.729   4.593   1.581
 2794TIP3    H129941   0.657   4.548   1.536
 2794TIP3    H229942   0.688   4.636   1.656
 2795TIP3   OH229943   2.863   6.161   7.681
 2795TIP3    H129944   2.938   6.193   7.631
 2795TIP3    H229945   2.789   6.214   7.651
 2796TIP3   OH229946   0.936   6.581   8.037
 2796TIP3    H129947   0.976   6.520   7.975
 2796TIP3    H229948   0.901   6.651   7.982
 2797TIP3   OH229949   2.767   6.135   8.159
 2797TIP3    H129950   2.711   6.132   8.081
 2797TIP3    H229951   2.854   6.113   8.126
 2798TIP3   OH229952   2.720   0.815   1.718
 2798TIP3    H129953   2.720   0.839   1.625
 2798TIP3    H229954   2.682   0.727   1.719
 2799TIP3   OH229955   5.523   4.698   0.552
 2799TIP3    H129956   5.432   4.727   0.550
 2799TIP3    H229957   5.553   4.717   0.641
 2800TIP3   OH229958   5.185   1.866   6.112
 2800TIP3    H129959   5.237   1.786   6.105
 2800TIP3    H229960   5.102   1.837   6.150
 2801TIP3   OH229961   6.519   5.153   7.286
 2801TIP3    H129962   6.571   5.172   7.363
 2801TIP3    H229963   6.483   5.238   7.260
 2802TIP3   OH229964   4.760   4.604   7.638
 2802TIP3    H129965   4.708   4.606   7.557
 2802TIP3    H229966   4.799   4.692   7.642
 2803TIP3   OH229967   5.741   4.034   6.608
 2803TIP3    H129968   5.714   4.118   6.646
 2803TIP3    H229969   5.803   3.998   6.672
 2804TIP3   OH229970   6.808   1.497   2.560
 2804TIP3    H129971   6.792   1.562   2.491
 2804TIP3    H229972   6.752   1.524   2.632
 2805TIP3   OH229973   3.416   0.504   0.995
 2805TIP3    H129974   3.487   0.470   1.049
 2805TIP3    H229975   3.459   0.557   0.928
 2806TIP3   OH229976   5.971   4.770   1.287
 2806TIP3    H129977   5.884   4.775   1.326
 2806TIP3    H229978   5.956   4.734   1.199
 2807TIP3   OH229979   6.805   0.966   0.640
 2807TIP3    H129980   6.744   0.952   0.712
 2807TIP3    H229981   6.819   1.060   0.637
 2808TIP3   OH229982   0.484   6.199   0.600
 2808TIP3    H129983   0.558   6.172   0.656
 2808TIP3    H229984   0.476   6.128   0.536
 2809TIP3   OH229985   1.841   0.863   0.314
 2809TIP3    H129986   1.881   0.833   0.395
 2809TIP3    H229987   1.854   0.958   0.314
 2810TIP3   OH229988   6.541   3.287   7.357
 2810TIP3    H129989   6.459   3.302   7.404
 2810TIP3    H229990   6.572   3.202   7.389
 2811TIP3   OH229991   4.925   1.505   7.172
 2811TIP3    H129992   4.992   1.466   7.116
 2811TIP3    H229993   4.968   1.581   7.210
 2812TIP3   OH229994   2.798   5.245   8.231
 2812TIP3    H129995   2.705   5.249   8.254
 2812TIP3    H229996   2.814   5.152   8.214
 2813TIP3   OH229997   3.520   2.685   0.100
 2813TIP3    H129998   3.517   2.611   0.040
 2813TIP3    H229999   3.552   2.648   0.182
 2814TIP3   OH230000   4.610   5.063   1.045
 2814TIP3    H130001   4.597   4.980   1.092
 2814TIP3    H230002   4.699   5.089   1.066
 2815TIP3   OH230003   1.163   5.520   5.914
 2815TIP3    H130004   1.242   5.515   5.860
 2815TIP3    H230005   1.190   5.567   5.993
 2816TIP3   OH230006   2.734   2.725   0.094
 2816TIP3    H130007   2.737   2.703   0.001
 2816TIP3    H230008   2.673   2.662   0.132
 2817TIP3   OH230009   3.968   1.144   1.864
 2817TIP3    H130010   3.907   1.122   1.793
 2817TIP3    H230011   4.053   1.151   1.820
 2818TIP3   OH230012   3.918   1.462   0.698
 2818TIP3    H130013   3.831   1.423   0.712
 2818TIP3    H230014   3.976   1.410   0.754
 2819TIP3   OH230015   1.754   4.513   6.611
 2819TIP3    H130016   1.734   4.430   6.654
 2819TIP3    H230017   1.812   4.558   6.672
 2820TIP3   OH230018   0.971   1.527   0.202
 2820TIP3    H130019   1.050   1.582   0.199
 2820TIP3    H230020   0.899   1.589   0.213
 2821TIP3   OH230021   0.573   6.510   1.312
 2821TIP3    H130022   0.639   6.476   1.373
 2821TIP3    H230023   0.498   6.531   1.368
 2822TIP3   OH230024   0.722   1.688   2.014
 2822TIP3    H130025   0.645   1.743   2.000
 2822TIP3    H230026   0.778   1.740   2.072
 2823TIP3   OH230027   3.197   4.394   1.253
 2823TIP3    H130028   3.183   4.395   1.158
 2823TIP3    H230029   3.118   4.351   1.287
 2824TIP3   OH230030   2.654   1.217   0.736
 2824TIP3    H130031   2.563   1.193   0.721
 2824TIP3    H230032   2.650   1.302   0.780
 2825TIP3   OH230033   4.165   0.010   6.984
 2825TIP3    H130034   4.146   0.100   6.955
 2825TIP3    H230035   4.079   6.852   6.990
 2826TIP3   OH230036   2.743   2.277   7.944
 2826TIP3    H130037   2.783   2.201   7.902
 2826TIP3    H230038   2.660   2.244   7.980
 2827TIP3   OH230039   2.953   2.538   2.321
 2827TIP3    H130040   2.872   2.488   2.313
 2827TIP3    H230041   2.948   2.577   2.408
 2828TIP3   OH230042   4.628   6.845   0.614
 2828TIP3    H130043   4.596   6.822   0.527
 2828TIP3    H230044   4.666   6.764   0.648
 2829TIP3   OH230045   4.469   5.708   0.499
 2829TIP3    H130046   4.409   5.718   0.426
 2829TIP3    H230047   4.448   5.781   0.558
 2830TIP3   OH230048   3.995   5.331   1.484
 2830TIP3    H130049   4.061   5.355   1.549
 2830TIP3    H230050   4.046   5.306   1.407
 2831TIP3   OH230051   3.587   5.186   1.788
 2831TIP3    H130052   3.555   5.227   1.867
 2831TIP3    H230053   3.509   5.151   1.745
 2832TIP3   OH230054   2.746   6.797   2.208
 2832TIP3    H130055   2.825   6.846   2.184
 2832TIP3    H230056   2.772   6.746   2.285
 2833TIP3   OH230057   5.430   4.550   0.198
 2833TIP3    H130058   5.384   4.634   0.198
 2833TIP3    H230059   5.423   4.519   0.107
 2834TIP3   OH230060   2.161   1.653   0.394
 2834TIP3    H130061   2.068   1.629   0.394
 2834TIP3    H230062   2.204   1.580   0.350
 2835TIP3   OH230063   4.903   3.990   1.849
 2835TIP3    H130064   4.822   4.022   1.889
 2835TIP3    H230065   4.883   3.900   1.823
 2836TIP3   OH230066   5.072   2.489   1.315
 2836TIP3    H130067   5.099   2.414   1.368
 2836TIP3    H230068   5.146   2.550   1.321
 2837TIP3   OH230069   0.218   2.016   8.629
 2837TIP3    H130070   0.283   2.057   0.054
 2837TIP3    H230071   0.145   1.995   0.056
 2838TIP3   OH230072   0.258   6.018   7.498
 2838TIP3    H130073   0.214   5.933   7.502
 2838TIP3    H230074   0.206   6.073   7.557
 2839TIP3   OH230075   0.344   6.523   1.548
 2839TIP3    H130076   0.397   6.530   1.627
 2839TIP3    H230077   0.260   6.489   1.577
 2840TIP3   OH230078   0.939   2.041   1.428
 2840TIP3    H130079   0.894   2.125   1.420
 2840TIP3    H230080   1.031   2.063   1.440
 2841TIP3   OH230081   4.070   2.453   1.876
 2841TIP3    H130082   4.103   2.526   1.823
 2841TIP3    H230083   3.981   2.478   1.898
 2842TIP3   OH230084   0.313   2.926   1.917
 2842TIP3    H130085   0.231   2.972   1.901
 2842TIP3    H230086   0.286   2.839   1.947
 2843TIP3   OH230087   3.353   0.820   1.060
 2843TIP3    H130088   3.316   0.795   0.975
 2843TIP3    H230089   3.326   0.749   1.119
 2844TIP3   OH230090   6.351   0.018   1.477
 2844TIP3    H130091   6.311   0.046   1.395
 2844TIP3    H230092   6.286   0.038   1.544
 2845TIP3   OH230093   1.494   4.728   2.195
 2845TIP3    H130094   1.409   4.697   2.162
 2845TIP3    H230095   1.471   4.789   2.264
 2846TIP3   OH230096   2.391   5.936   6.631
 2846TIP3    H130097   2.368   5.852   6.670
 2846TIP3    H230098   2.321   5.953   6.567
 2847TIP3   OH230099   1.398   5.664   8.572
 2847TIP3    H130100   1.458   5.732   8.599
 2847TIP3    H230101   1.430   5.634   8.487
 2848TIP3   OH230102   4.207   2.067   7.213
 2848TIP3    H130103   4.172   1.996   7.159
 2848TIP3    H230104   4.216   2.029   7.300
 2849TIP3   OH230105   4.731   0.279   0.935
 2849TIP3    H130106   4.656   0.327   0.972
 2849TIP3    H230107   4.782   0.346   0.890
 2850TIP3   OH230108   2.562   0.476   1.962
 2850TIP3    H130109   2.530   0.559   1.999
 2850TIP3    H230110   2.571   0.418   2.037
 2851TIP3   OH230111   0.720   5.011   0.351
 2851TIP3    H130112   0.681   4.940   0.403
 2851TIP3    H230113   0.802   4.974   0.318
 2852TIP3   OH230114   0.006   0.885   0.387
 2852TIP3    H130115   6.853   0.904   0.473
 2852TIP3    H230116   6.877   0.791   0.376
 2853TIP3   OH230117   5.861   5.538   6.585
 2853TIP3    H130118   5.843   5.604   6.652
 2853TIP3    H230119   5.956   5.526   6.588
 2854TIP3   OH230120   0.797   4.798   2.504
 2854TIP3    H130121   0.725   4.750   2.544
 2854TIP3    H230122   0.875   4.748   2.527
 2855TIP3   OH230123   5.159   5.155   0.715
 2855TIP3    H130124   5.118   5.111   0.790
 2855TIP3    H230125   5.183   5.084   0.656
 2856TIP3   OH230126   4.495   1.042   0.601
 2856TIP3    H130127   4.448   1.059   0.683
 2856TIP3    H230128   4.451   1.097   0.536
 2857TIP3   OH230129   3.265   2.121   0.898
 2857TIP3    H130130   3.341   2.179   0.912
 2857TIP3    H230131   3.277   2.088   0.809
 2858TIP3   OH230132   4.925   0.204   7.319
 2858TIP3    H130133   4.907   0.265   7.247
 2858TIP3    H230134   4.853   0.220   7.381
 2859TIP3   OH230135   2.270   2.469   0.596
 2859TIP3    H130136   2.236   2.508   0.677
 2859TIP3    H230137   2.203   2.487   0.530
 2860TIP3   OH230138   6.148   1.308   7.264
 2860TIP3    H130139   6.123   1.261   7.344
 2860TIP3    H230140   6.087   1.278   7.198
 2861TIP3   OH230141   5.444   4.124   1.201
 2861TIP3    H130142   5.475   4.036   1.220
 2861TIP3    H230143   5.349   4.119   1.213
 2862TIP3   OH230144   4.198   3.179   0.124
 2862TIP3    H130145   4.224   3.115   0.058
 2862TIP3    H230146   4.272   3.240   0.128
 2863TIP3   OH230147   4.210   4.178   0.988
 2863TIP3    H130148   4.198   4.176   1.083
 2863TIP3    H230149   4.242   4.091   0.966
 2864TIP3   OH230150   1.160   5.497   8.267
 2864TIP3    H130151   1.102   5.435   8.311
 2864TIP3    H230152   1.243   5.490   8.314
 2865TIP3   OH230153   3.472   3.082   7.149
 2865TIP3    H130154   3.450   3.125   7.231
 2865TIP3    H230155   3.399   3.023   7.132
 2866TIP3   OH230156   2.013   0.314   1.764
 2866TIP3    H130157   2.041   0.228   1.795
 2866TIP3    H230158   2.061   0.376   1.820
 2867TIP3   OH230159   3.538   4.166   1.004
 2867TIP3    H130160   3.529   4.109   1.080
 2867TIP3    H230161   3.616   4.219   1.023
 2868TIP3   OH230162   6.261   2.859   8.334
 2868TIP3    H130163   6.351   2.870   8.363
 2868TIP3    H230164   6.208   2.874   8.412
 2869TIP3   OH230165   0.736   2.749   8.238
 2869TIP3    H130166   0.736   2.845   8.232
 2869TIP3    H230167   0.828   2.726   8.254
 2870TIP3   OH230168   2.441   6.196   2.974
 2870TIP3    H130169   2.522   6.148   2.958
 2870TIP3    H230170   2.456   6.283   2.937
 2871TIP3   OH230171   4.424   0.242   0.860
 2871TIP3    H130172   4.493   0.303   0.834
 2871TIP3    H230173   4.471   0.167   0.897
 2872TIP3   OH230174   1.490   0.199   8.114
 2872TIP3    H130175   1.507   0.119   8.163
 2872TIP3    H230176   1.507   0.175   8.023
 2873TIP3   OH230177   3.205   3.897   2.406
 2873TIP3    H130178   3.269   3.826   2.394
 2873TIP3    H230179   3.249   3.959   2.464
 2874TIP3   OH230180   2.176   0.766   8.196
 2874TIP3    H130181   2.179   0.777   8.101
 2874TIP3    H230182   2.082   0.760   8.216
 2875TIP3   OH230183   3.574   1.295   1.407
 2875TIP3    H130184   3.496   1.347   1.426
 2875TIP3    H230185   3.637   1.358   1.373
 2876TIP3   OH230186   0.912   2.485   7.753
 2876TIP3    H130187   0.892   2.392   7.756
 2876TIP3    H230188   0.895   2.516   7.842
 2877TIP3   OH230189   2.770   5.476   0.797
 2877TIP3    H130190   2.771   5.520   0.882
 2877TIP3    H230191   2.862   5.455   0.779
 2878TIP3   OH230192   3.493   3.288   1.478
 2878TIP3    H130193   3.445   3.285   1.560
 2878TIP3    H230194   3.573   3.335   1.498
 2879TIP3   OH230195   3.216   1.681   1.241
 2879TIP3    H130196   3.251   1.762   1.203
 2879TIP3    H230197   3.151   1.651   1.178
 2880TIP3   OH230198   1.879   1.284   1.573
 2880TIP3    H130199   1.888   1.374   1.605
 2880TIP3    H230200   1.939   1.233   1.628
 2881TIP3   OH230201   4.420   5.097   8.323
 2881TIP3    H130202   4.459   5.184   8.331
 2881TIP3    H230203   4.364   5.089   8.400
 2882TIP3   OH230204   0.688   5.949   8.566
 2882TIP3    H130205   0.709   5.968   8.475
 2882TIP3    H230206   0.773   5.948   8.611
 2883TIP3   OH230207   3.618   2.876   8.553
 2883TIP3    H130208   3.711   2.863   8.570
 2883TIP3    H230209   3.574   2.822   8.618
 2884TIP3   OH230210   1.558   5.932   0.540
 2884TIP3    H130211   1.508   6.012   0.521
 2884TIP3    H230212   1.650   5.960   0.537
 2885TIP3   OH230213   4.606   6.069   8.618
 2885TIP3    H130214   4.529   6.042   8.568
 2885TIP3    H230215   4.655   6.124   8.557
 2886TIP3   OH230216   0.673   3.551   1.551
 2886TIP3    H130217   0.667   3.502   1.468
 2886TIP3    H230218   0.584   3.549   1.586
 2887TIP3   OH230219   3.548   0.988   7.249
 2887TIP3    H130220   3.585   0.914   7.296
 2887TIP3    H230221   3.469   0.953   7.208
 2888TIP3   OH230222   4.076   3.582   8.541
 2888TIP3    H130223   4.021   3.598   8.618
 2888TIP3    H230224   4.022   3.524   8.485
 2889TIP3   OH230225   4.042   1.914   1.190
 2889TIP3    H130226   3.979   1.985   1.184
 2889TIP3    H230227   4.069   1.914   1.282
 2890TIP3   OH230228   6.564   4.508   0.998
 2890TIP3    H130229   6.591   4.562   0.923
 2890TIP3    H230230   6.472   4.531   1.012
 2891TIP3   OH230231   4.639   3.020   0.041
 2891TIP3    H130232   4.606   2.975   0.119
 2891TIP3    H230233   4.680   2.950   8.621
 2892TIP3   OH230234   4.592   6.303   1.296
 2892TIP3    H130235   4.687   6.313   1.285
 2892TIP3    H230236   4.572   6.355   1.374
 2893TIP3   OH230237   2.603   2.216   0.050
 2893TIP3    H130238   2.690   2.255   0.046
 2893TIP3    H230239   2.620   2.123   0.064
 2894TIP3   OH230240   1.740   0.896   8.620
 2894TIP3    H130241   1.725   0.862   0.076
 2894TIP3    H230242   1.652   0.906   8.583
 2895TIP3   OH230243   3.214   2.996   1.828
 2895TIP3    H130244   3.225   2.901   1.831
 2895TIP3    H230245   3.267   3.029   1.900
 2896TIP3   OH230246   6.119   0.411   8.307
 2896TIP3    H130247   6.211   0.436   8.305
 2896TIP3    H230248   6.116   0.325   8.265
 2897TIP3   OH230249   3.070   0.119   6.853
 2897TIP3    H130250   3.047   0.195   6.799
 2897TIP3    H230251   3.026   0.045   6.810
 2898TIP3   OH230252   3.722   5.587   7.008
 2898TIP3    H130253   3.629   5.580   7.029
 2898TIP3    H230254   3.739   5.509   6.954
 2899TIP3   OH230255   2.332   6.556   1.484
 2899TIP3    H130256   2.316   6.580   1.393
 2899TIP3    H230257   2.416   6.598   1.505
 2900TIP3   OH230258   4.302   0.941   1.446
 2900TIP3    H130259   4.343   1.011   1.395
 2900TIP3    H230260   4.297   0.866   1.386
 2901TIP3   OH230261   1.023   6.065   8.525
 2901TIP3    H130262   0.981   5.980   8.539
 2901TIP3    H230263   1.012   6.082   8.431
 2902TIP3   OH230264   5.767   0.464   8.061
 2902TIP3    H130265   5.798   0.445   8.150
 2902TIP3    H230266   5.746   0.378   8.024
 2903TIP3   OH230267   2.045   2.065   7.560
 2903TIP3    H130268   2.024   1.972   7.573
 2903TIP3    H230269   1.992   2.091   7.485
 2904TIP3   OH230270   5.043   0.862   1.873
 2904TIP3    H130271   5.138   0.850   1.878
 2904TIP3    H230272   5.016   0.880   1.963
 2905TIP3   OH230273   1.748   2.085   0.694
 2905TIP3    H130274   1.736   2.167   0.645
 2905TIP3    H230275   1.735   2.110   0.785
 2906TIP3   OH230276   0.446   5.169   0.546
 2906TIP3    H130277   0.366   5.119   0.527
 2906TIP3    H230278   0.422   5.223   0.621
 2907TIP3   OH230279   5.159   4.045   7.658
 2907TIP3    H130280   5.066   4.048   7.679
 2907TIP3    H230281   5.168   4.100   7.580
 2908TIP3   OH230282   2.462   0.854   8.087
 2908TIP3    H130283   2.532   0.876   8.026
 2908TIP3    H230284   2.382   0.862   8.036
 2909TIP3   OH230285   3.645   0.014   7.999
 2909TIP3    H130286   3.620   6.814   8.040
 2909TIP3    H230287   3.688   6.872   7.917
 2910TIP3   OH230288   1.227   3.797   1.158
 2910TIP3    H130289   1.218   3.702   1.145
 2910TIP3    H230290   1.154   3.820   1.216
 2911TIP3   OH230291   5.230   2.708   0.288
 2911TIP3    H130292   5.288   2.771   0.332
 2911TIP3    H230293   5.186   2.760   0.220
 2912TIP3   OH230294   3.677   2.857   8.196
 2912TIP3    H130295   3.636   2.771   8.189
 2912TIP3    H230296   3.604   2.919   8.202
 2913TIP3   OH230297   4.465   2.646   0.636
 2913TIP3    H130298   4.470   2.604   0.550
 2913TIP3    H230299   4.556   2.651   0.666
 2914TIP3   OH230300   5.520   4.985   7.403
 2914TIP3    H130301   5.596   4.975   7.460
 2914TIP3    H230302   5.455   5.030   7.458
 2915TIP3   OH230303   5.650   3.969   7.886
 2915TIP3    H130304   5.645   3.976   7.791
 2915TIP3    H230305   5.583   3.905   7.909
 2916TIP3   OH230306   4.683   3.054   7.462
 2916TIP3    H130307   4.712   2.978   7.412
 2916TIP3    H230308   4.718   3.129   7.415
 2917TIP3   OH230309   4.583   0.173   1.946
 2917TIP3    H130310   4.574   0.168   1.851
 2917TIP3    H230311   4.662   0.123   1.966
 2918TIP3   OH230312   2.068   6.851   8.148
 2918TIP3    H130313   2.004   0.032   8.177
 2918TIP3    H230314   2.092   6.879   8.059
 2919TIP3   OH230315   2.253   4.206   7.072
 2919TIP3    H130316   2.265   4.152   7.150
 2919TIP3    H230317   2.332   4.190   7.020
 2920TIP3   OH230318   2.832   6.243   7.382
 2920TIP3    H130319   2.829   6.160   7.334
 2920TIP3    H230320   2.744   6.278   7.377
 2921TIP3   OH230321   6.372   5.272   7.665
 2921TIP3    H130322   6.292   5.228   7.636
 2921TIP3    H230323   6.349   5.365   7.668
 2922TIP3   OH230324   4.208   5.275   1.714
 2922TIP3    H130325   4.180   5.202   1.660
 2922TIP3    H230326   4.181   5.251   1.803
 2923TIP3   OH230327   4.314   5.760   1.272
 2923TIP3    H130328   4.379   5.826   1.249
 2923TIP3    H230329   4.329   5.743   1.365
 2924TIP3   OH230330   4.796   1.540   0.409
 2924TIP3    H130331   4.853   1.566   0.481
 2924TIP3    H230332   4.768   1.622   0.369
 2925TIP3   OH230333   0.556   5.133   0.939
 2925TIP3    H130334   0.562   5.040   0.915
 2925TIP3    H230335   0.623   5.176   0.886
 2926TIP3   OH230336   5.394   3.373   0.379
 2926TIP3    H130337   5.440   3.372   0.295
 2926TIP3    H230338   5.302   3.361   0.356
 2927TIP3   OH230339   0.716   4.970   7.462
 2927TIP3    H130340   0.668   4.923   7.530
 2927TIP3    H230341   0.807   4.946   7.477
 2928TIP3   OH230342   4.271   1.747   7.227
 2928TIP3    H130343   4.262   1.690   7.303
 2928TIP3    H230344   4.363   1.774   7.227
 2929TIP3   OH230345   5.453   0.312   0.318
 2929TIP3    H130346   5.463   0.291   0.411
 2929TIP3    H230347   5.536   0.285   0.278
 2930TIP3   OH230348   0.586   5.331   6.457
 2930TIP3    H130349   0.653   5.263   6.458
 2930TIP3    H230350   0.580   5.359   6.366
 2931TIP3   OH230351   6.318   2.114   0.387
 2931TIP3    H130352   6.260   2.188   0.406
 2931TIP3    H230353   6.402   2.154   0.365
 2932TIP3   OH230354   5.153   6.163   0.873
 2932TIP3    H130355   5.057   6.160   0.871
 2932TIP3    H230356   5.178   6.101   0.942
 2933TIP3   OH230357   3.831   5.463   0.530
 2933TIP3    H130358   3.846   5.396   0.597
 2933TIP3    H230359   3.918   5.477   0.492
 2934TIP3   OH230360   6.012   0.200   8.171
 2934TIP3    H130361   5.918   0.200   8.185
 2934TIP3    H230362   6.035   0.107   8.162
 2935TIP3   OH230363   4.248   0.837   6.987
 2935TIP3    H130364   4.333   0.793   6.984
 2935TIP3    H230365   4.227   0.843   7.080
 2936TIP3   OH230366   0.498   1.650   1.111
 2936TIP3    H130367   0.578   1.601   1.132
 2936TIP3    H230368   0.427   1.594   1.141
 2937TIP3   OH230369   5.311   4.303   0.912
 2937TIP3    H130370   5.316   4.373   0.977
 2937TIP3    H230371   5.402   4.278   0.897
 2938TIP3   OH230372   3.306   5.457   1.985
 2938TIP3    H130373   3.283   5.396   1.914
 2938TIP3    H230374   3.224   5.499   2.008
 2939TIP3   OH230375   6.643   4.850   1.075
 2939TIP3    H130376   6.588   4.832   1.151
 2939TIP3    H230377   6.724   4.886   1.112
 2940TIP3   OH230378   6.451   2.469   7.945
 2940TIP3    H130379   6.456   2.536   8.012
 2940TIP3    H230380   6.530   2.416   7.958
 2941TIP3   OH230381   4.625   0.594   7.875
 2941TIP3    H130382   4.551   0.592   7.815
 2941TIP3    H230383   4.621   0.680   7.916
 2942TIP3   OH230384   0.952   6.681   7.097
 2942TIP3    H130385   0.976   6.622   7.025
 2942TIP3    H230386   0.900   6.627   7.156
 2943TIP3   OH230387   1.075   5.134   8.102
 2943TIP3    H130388   1.086   5.222   8.066
 2943TIP3    H230389   0.981   5.125   8.117
 2944TIP3   OH230390   6.310   4.803   1.892
 2944TIP3    H130391   6.273   4.716   1.906
 2944TIP3    H230392   6.396   4.787   1.855
 2945TIP3   OH230393   3.463   1.466   1.113
 2945TIP3    H130394   3.449   1.548   1.067
 2945TIP3    H230395   3.559   1.456   1.114
 2946TIP3   OH230396   1.636   1.278   0.039
 2946TIP3    H130397   1.601   1.220   0.107
 2946TIP3    H230398   1.688   1.342   0.087
 2947TIP3   OH230399   4.653   3.117   6.978
 2947TIP3    H130400   4.562   3.103   7.002
 2947TIP3    H230401   4.703   3.084   7.052
 2948TIP3   OH230402   5.430   6.288   0.380
 2948TIP3    H130403   5.337   6.273   0.364
 2948TIP3    H230404   5.466   6.307   0.293
 2949TIP3   OH230405   0.322   5.906   1.625
 2949TIP3    H130406   0.231   5.900   1.653
 2949TIP3    H230407   0.360   5.821   1.647
 2950TIP3   OH230408   5.247   1.603   7.568
 2950TIP3    H130409   5.164   1.642   7.595
 2950TIP3    H230410   5.222   1.535   7.506
 2951TIP3   OH230411   1.462   2.777   7.328
 2951TIP3    H130412   1.479   2.780   7.422
 2951TIP3    H230413   1.367   2.775   7.320
 2952TIP3   OH230414   1.944   1.439   0.194
 2952TIP3    H130415   1.855   1.472   0.202
 2952TIP3    H230416   1.963   1.397   0.278
 2953TIP3   OH230417   6.716   2.815   1.605
 2953TIP3    H130418   6.803   2.776   1.596
 2953TIP3    H230419   6.718   2.860   1.689
 2954TIP3   OH230420   0.982   5.731   7.190
 2954TIP3    H130421   1.043   5.657   7.184
 2954TIP3    H230422   0.988   5.759   7.282
 2955TIP3   OH230423   5.568   3.549   8.260
 2955TIP3    H130424   5.630   3.520   8.328
 2955TIP3    H230425   5.622   3.600   8.200
 2956TIP3   OH230426   0.212   3.253   8.395
 2956TIP3    H130427   0.259   3.200   8.332
 2956TIP3    H230428   0.178   3.191   8.459
 2957TIP3   OH230429   2.430   3.967   8.610
 2957TIP3    H130430   2.448   3.918   0.058
 2957TIP3    H230431   2.354   3.923   8.571
 2958TIP3   OH230432   0.101   3.480   0.284
 2958TIP3    H130433   0.110   3.415   0.354
 2958TIP3    H230434   0.165   3.454   0.218
 2959TIP3   OH230435   1.497   1.214   1.903
 2959TIP3    H130436   1.517   1.307   1.916
 2959TIP3    H230437   1.530   1.195   1.815
 2960TIP3   OH230438   1.596   4.014   6.244
 2960TIP3    H130439   1.582   4.109   6.240
 2960TIP3    H230440   1.691   4.004   6.244
 2961TIP3   OH230441   0.469   2.019   0.400
 2961TIP3    H130442   0.540   2.048   0.343
 2961TIP3    H230443   0.502   2.033   0.489
 2962TIP3   OH230444   4.191   1.382   1.395
 2962TIP3    H130445   4.237   1.463   1.419
 2962TIP3    H230446   4.142   1.358   1.474
 2963TIP3   OH230447   4.711   6.563   8.472
 2963TIP3    H130448   4.765   6.638   8.448
 2963TIP3    H230449   4.624   6.582   8.437
 2964TIP3   OH230450   1.910   1.133   7.624
 2964TIP3    H130451   1.963   1.087   7.689
 2964TIP3    H230452   1.823   1.139   7.663
 2965TIP3   OH230453   2.564   4.120   1.680
 2965TIP3    H130454   2.633   4.061   1.709
 2965TIP3    H230455   2.564   4.191   1.744
 2966TIP3   OH230456   4.533   3.980   0.154
 2966TIP3    H130457   4.537   3.885   0.171
 2966TIP3    H230458   4.557   4.019   0.238
 2967TIP3   OH230459   0.750   2.531   0.260
 2967TIP3    H130460   0.659   2.517   0.285
 2967TIP3    H230461   0.751   2.616   0.216
 2968TIP3   OH230462   4.726   4.394   7.812
 2968TIP3    H130463   4.686   4.463   7.760
 2968TIP3    H230464   4.818   4.394   7.786
 2969TIP3   OH230465   1.728   6.512   6.817
 2969TIP3    H130466   1.680   6.431   6.799
 2969TIP3    H230467   1.803   6.510   6.758
 2970TIP3   OH230468   6.587   6.682   7.394
 2970TIP3    H130469   6.645   6.737   7.448
 2970TIP3    H230470   6.499   6.704   7.423
 2971TIP3   OH230471   2.021   4.876   2.089
 2971TIP3    H130472   1.980   4.959   2.066
 2971TIP3    H230473   1.964   4.838   2.156
 2972TIP3   OH230474   1.646   4.553   6.347
 2972TIP3    H130475   1.576   4.614   6.372
 2972TIP3    H230476   1.698   4.544   6.427
 2973TIP3   OH230477   1.847   4.576   7.271
 2973TIP3    H130478   1.829   4.662   7.232
 2973TIP3    H230479   1.778   4.564   7.336
 2974TIP3   OH230480   1.261   4.138   1.377
 2974TIP3    H130481   1.225   4.088   1.450
 2974TIP3    H230482   1.184   4.162   1.324
 2975TIP3   OH230483   1.510   2.853   7.597
 2975TIP3    H130484   1.562   2.876   7.674
 2975TIP3    H230485   1.470   2.936   7.569
 2976TIP3   OH230486   0.744   2.817   1.949
 2976TIP3    H130487   0.721   2.726   1.933
 2976TIP3    H230488   0.795   2.842   1.872
 2977TIP3   OH230489   5.764   3.570   0.217
 2977TIP3    H130490   5.730   3.637   0.277
 2977TIP3    H230491   5.795   3.619   0.141
 2978TIP3   OH230492   0.468   2.036   1.683
 2978TIP3    H130493   0.405   2.107   1.669
 2978TIP3    H230494   0.430   1.961   1.637
 2979TIP3   OH230495   5.335   6.621   0.190
 2979TIP3    H130496   5.256   6.670   0.171
 2979TIP3    H230497   5.347   6.563   0.115
 2980TIP3   OH230498   3.979   5.856   1.357
 2980TIP3    H130499   3.904   5.797   1.364
 2980TIP3    H230500   4.047   5.804   1.314
 2981TIP3   OH230501   3.434   1.120   0.750
 2981TIP3    H130502   3.424   1.169   0.669
 2981TIP3    H230503   3.346   1.119   0.789
 2982TIP3   OH230504   5.172   1.139   6.471
 2982TIP3    H130505   5.182   1.208   6.537
 2982TIP3    H230506   5.229   1.069   6.501
 2983TIP3   OH230507   5.423   5.890   8.212
 2983TIP3    H130508   5.498   5.871   8.156
 2983TIP3    H230509   5.399   5.980   8.190
 2984TIP3   OH230510   2.469   6.612   0.181
 2984TIP3    H130511   2.505   6.700   0.186
 2984TIP3    H230512   2.406   6.616   0.109
 2985TIP3   OH230513   0.123   0.878   8.366
 2985TIP3    H130514   0.178   0.949   8.399
 2985TIP3    H230515   0.072   0.849   8.441
 2986TIP3   OH230516   1.387   3.382   7.299
 2986TIP3    H130517   1.482   3.391   7.311
 2986TIP3    H230518   1.365   3.451   7.236
 2987TIP3   OH230519   4.706   0.065   0.224
 2987TIP3    H130520   4.624   0.073   0.272
 2987TIP3    H230521   4.734   6.857   0.240
 2988TIP3   OH230522   3.234   1.268   6.946
 2988TIP3    H130523   3.274   1.336   6.893
 2988TIP3    H230524   3.249   1.187   6.898
 2989TIP3   OH230525   3.834   4.403   6.349
 2989TIP3    H130526   3.866   4.464   6.282
 2989TIP3    H230527   3.912   4.354   6.375
 2990TIP3   OH230528   5.533   3.355   0.156
 2990TIP3    H130529   5.574   3.276   0.122
 2990TIP3    H230530   5.606   3.416   0.170
 2991TIP3   OH230531   5.881   1.301   8.013
 2991TIP3    H130532   5.800   1.348   7.992
 2991TIP3    H230533   5.851   1.215   8.042
 2992TIP3   OH230534   0.277   4.982   0.397
 2992TIP3    H130535   0.324   4.977   0.314
 2992TIP3    H230536   0.339   4.948   0.462
 2993TIP3   OH230537   3.399   0.427   0.033
 2993TIP3    H130538   3.380   0.339   0.000
 2993TIP3    H230539   3.341   0.484   8.615
 2994TIP3   OH230540   2.793   5.338   8.570
 2994TIP3    H130541   2.698   5.333   8.582
 2994TIP3    H230542   2.805   5.333   8.476
 2995TIP3   OH230543   5.069   6.812   1.520
 2995TIP3    H130544   5.101   0.019   1.512
 2995TIP3    H230545   5.149   6.759   1.527
 2996TIP3   OH230546   6.620   0.635   1.866
 2996TIP3    H130547   6.706   0.666   1.839
 2996TIP3    H230548   6.568   0.714   1.876
 2997TIP3   OH230549   2.140   5.352   7.543
 2997TIP3    H130550   2.152   5.417   7.474
 2997TIP3    H230551   2.154   5.400   7.624
 2998TIP3   OH230552   4.591   1.898   7.866
 2998TIP3    H130553   4.599   1.813   7.909
 2998TIP3    H230554   4.638   1.888   7.783
 2999TIP3   OH230555   6.462   5.756   0.849
 2999TIP3    H130556   6.452   5.719   0.761
 2999TIP3    H230557   6.375   5.792   0.870
 3000TIP3   OH230558   1.857   3.859   1.705
 3000TIP3    H130559   1.920   3.793   1.676
 3000TIP3    H230560   1.884   3.939   1.661
 3001TIP3   OH230561   6.562   1.529   7.166
 3001TIP3    H130562   6.471   1.503   7.155
 3001TIP3    H230563   6.606   1.501   7.086
 3002TIP3   OH230564   6.418   5.682   1.375
 3002TIP3    H130565   6.434   5.660   1.283
 3002TIP3    H230566   6.442   5.775   1.382
 3003TIP3   OH230567   1.585   6.156   8.314
 3003TIP3    H130568   1.527   6.158   8.390
 3003TIP3    H230569   1.611   6.247   8.301
 3004TIP3   OH230570   6.277   5.540   7.695
 3004TIP3    H130571   6.191   5.573   7.670
 3004TIP3    H230572   6.303   5.596   7.768
 3005TIP3   OH230573   3.191   4.731   6.675
 3005TIP3    H130574   3.237   4.806   6.637
 3005TIP3    H230575   3.103   4.765   6.694
 3006TIP3   OH230576   6.610   2.335   6.755
 3006TIP3    H130577   6.677   2.340   6.687
 3006TIP3    H230578   6.534   2.379   6.718
 3007TIP3   OH230579   4.887   5.398   1.665
 3007TIP3    H130580   4.899   5.466   1.731
 3007TIP3    H230581   4.869   5.319   1.715
 3008TIP3   OH230582   3.128   2.428   1.582
 3008TIP3    H130583   3.108   2.475   1.501
 3008TIP3    H230584   3.122   2.335   1.558
 3009TIP3   OH230585   5.460   2.157   6.329
 3009TIP3    H130586   5.545   2.197   6.349
 3009TIP3    H230587   5.455   2.158   6.234
 3010TIP3   OH230588   1.523   4.269   0.910
 3010TIP3    H130589   1.451   4.327   0.886
 3010TIP3    H230590   1.533   4.211   0.834
 3011TIP3   OH230591   6.601   0.341   6.798
 3011TIP3    H130592   6.582   0.430   6.767
 3011TIP3    H230593   6.653   0.354   6.877
 3012TIP3   OH230594   6.427   2.512   6.593
 3012TIP3    H130595   6.404   2.534   6.503
 3012TIP3    H230596   6.346   2.528   6.643
 3013TIP3   OH230597   3.369   1.383   7.924
 3013TIP3    H130598   3.344   1.350   8.010
 3013TIP3    H230599   3.428   1.316   7.889
 3014TIP3   OH230600   1.899   2.913   8.217
 3014TIP3    H130601   1.952   2.949   8.289
 3014TIP3    H230602   1.874   2.826   8.248
 3015TIP3   OH230603   5.899   0.558   1.021
 3015TIP3    H130604   5.947   0.633   0.986
 3015TIP3    H230605   5.889   0.577   1.114
 3016TIP3   OH230606   5.676   2.782   7.393
 3016TIP3    H130607   5.639   2.704   7.434
 3016TIP3    H230608   5.764   2.756   7.366
 3017TIP3   OH230609   5.410   6.156   8.084
 3017TIP3    H130610   5.378   6.246   8.086
 3017TIP3    H230611   5.400   6.129   7.993
 3018TIP3   OH230612   0.194   4.553   6.977
 3018TIP3    H130613   0.130   4.619   6.953
 3018TIP3    H230614   0.178   4.536   7.070
 3019TIP3   OH230615   3.213   4.592   6.385
 3019TIP3    H130616   3.125   4.554   6.392
 3019TIP3    H230617   3.222   4.644   6.465
 3020TIP3   OH230618   4.241   2.749   1.127
 3020TIP3    H130619   4.302   2.821   1.110
 3020TIP3    H230620   4.238   2.742   1.222
 3021TIP3   OH230621   0.072   3.838   7.817
 3021TIP3    H130622   0.148   3.829   7.874
 3021TIP3    H230623   0.019   3.906   7.857
 3022TIP3   OH230624   3.248   5.803   6.963
 3022TIP3    H130625   3.283   5.881   6.920
 3022TIP3    H230626   3.168   5.784   6.915
 3023TIP3   OH230627   0.520   1.189   7.111
 3023TIP3    H130628   0.502   1.274   7.071
 3023TIP3    H230629   0.514   1.206   7.206
 3024TIP3   OH230630   4.456   4.899   1.511
 3024TIP3    H130631   4.406   4.829   1.553
 3024TIP3    H230632   4.443   4.975   1.567
 3025TIP3   OH230633   3.505   5.142   7.601
 3025TIP3    H130634   3.600   5.153   7.607
 3025TIP3    H230635   3.483   5.076   7.666
 3026TIP3   OH230636   1.522   0.629   1.418
 3026TIP3    H130637   1.433   0.597   1.419
 3026TIP3    H230638   1.532   0.675   1.502
 3027TIP3   OH230639   2.813   4.056   8.148
 3027TIP3    H130640   2.718   4.058   8.155
 3027TIP3    H230641   2.842   4.011   8.228
 3028TIP3   OH230642   0.120   1.557   7.486
 3028TIP3    H130643   0.064   1.479   7.481
 3028TIP3    H230644   0.106   1.591   7.574
 3029TIP3   OH230645   5.965   3.601   2.427
 3029TIP3    H130646   5.969   3.694   2.446
 3029TIP3    H230647   5.877   3.574   2.453
 3030TIP3   OH230648   0.432   4.137   0.800
 3030TIP3    H130649   0.427   4.138   0.895
 3030TIP3    H230650   0.412   4.046   0.776
 3031TIP3   OH230651   2.182   0.060   7.902
 3031TIP3    H130652   2.162   0.071   7.809
 3031TIP3    H230653   2.255   6.882   7.904
 3032TIP3   OH230654   3.070   3.303   0.343
 3032TIP3    H130655   2.993   3.281   0.290
 3032TIP3    H230656   3.045   3.383   0.390
 3033TIP3   OH230657   0.288   5.264   1.319
 3033TIP3    H130658   0.322   5.242   1.233
 3033TIP3    H230659   0.193   5.272   1.306
 3034TIP3   OH230660   4.626   5.753   6.682
 3034TIP3    H130661   4.655   5.764   6.772
 3034TIP3    H230662   4.600   5.841   6.654
 3035TIP3   OH230663   0.892   0.981   1.176
 3035TIP3    H130664   0.928   0.982   1.087
 3035TIP3    H230665   0.919   0.896   1.211
 3036TIP3   OH230666   3.455   4.730   0.339
 3036TIP3    H130667   3.425   4.640   0.328
 3036TIP3    H230668   3.473   4.737   0.433
 3037TIP3   OH230669   3.678   6.846   0.779
 3037TIP3    H130670   3.696   0.033   0.717
 3037TIP3    H230671   3.611   6.792   0.736
 3038TIP3   OH230672   3.784   6.481   6.988
 3038TIP3    H130673   3.808   6.391   7.011
 3038TIP3    H230674   3.734   6.472   6.907
 3039TIP3   OH230675   4.550   4.631   7.439
 3039TIP3    H130676   4.511   4.693   7.377
 3039TIP3    H230677   4.538   4.545   7.399
 3040TIP3   OH230678   1.587   4.846   8.513
 3040TIP3    H130679   1.571   4.761   8.471
 3040TIP3    H230680   1.672   4.874   8.479
 3041TIP3   OH230681   0.402   5.771   1.980
 3041TIP3    H130682   0.346   5.780   2.057
 3041TIP3    H230683   0.348   5.725   1.915
 3042TIP3   OH230684   3.534   1.231   8.300
 3042TIP3    H130685   3.524   1.219   8.395
 3042TIP3    H230686   3.449   1.264   8.271
 3043TIP3   OH230687   2.660   6.083   2.408
 3043TIP3    H130688   2.741   6.126   2.381
 3043TIP3    H230689   2.688   5.999   2.443
 3044TIP3   OH230690   3.242   5.548   0.662
 3044TIP3    H130691   3.234   5.627   0.715
 3044TIP3    H230692   3.185   5.484   0.705
 3045TIP3   OH230693   1.923   5.068   1.086
 3045TIP3    H130694   1.867   4.998   1.118
 3045TIP3    H230695   1.962   5.105   1.166
 3046TIP3   OH230696   1.091   1.115   1.687
 3046TIP3    H130697   1.173   1.162   1.698
 3046TIP3    H230698   1.102   1.035   1.739
 3047TIP3   OH230699   3.148   1.591   0.270
 3047TIP3    H130700   3.118   1.676   0.239
 3047TIP3    H230701   3.215   1.564   0.207
 3048TIP3   OH230702   1.937   0.510   7.501
 3048TIP3    H130703   2.032   0.503   7.507
 3048TIP3    H230704   1.921   0.592   7.455
 3049TIP3   OH230705   1.276   0.394   8.385
 3049TIP3    H130706   1.207   0.338   8.422
 3049TIP3    H230707   1.251   0.405   8.293
 3050TIP3   OH230708   1.766   5.949   2.391
 3050TIP3    H130709   1.744   5.863   2.426
 3050TIP3    H230710   1.818   5.991   2.459
 3051TIP3   OH230711   3.864   6.300   0.333
 3051TIP3    H130712   3.895   6.230   0.390
 3051TIP3    H230713   3.911   6.378   0.363
 3052TIP3   OH230714   4.393   2.981   1.210
 3052TIP3    H130715   4.317   2.977   1.267
 3052TIP3    H230716   4.356   2.984   1.121
 3053TIP3   OH230717   6.330   3.573   8.069
 3053TIP3    H130718   6.256   3.562   8.009
 3053TIP3    H230719   6.384   3.496   8.054
 3054TIP3   OH230720   5.346   6.418   2.321
 3054TIP3    H130721   5.298   6.493   2.286
 3054TIP3    H230722   5.414   6.457   2.375
 3055TIP3   OH230723   0.365   0.045   6.333
 3055TIP3    H130724   0.353   0.138   6.353
 3055TIP3    H230725   0.331   6.882   6.409
 3056TIP3   OH230726   1.003   6.115   8.234
 3056TIP3    H130727   1.095   6.100   8.212
 3056TIP3    H230728   0.994   6.211   8.238
 3057TIP3   OH230729   1.741   6.586   8.531
 3057TIP3    H130730   1.687   6.513   8.560
 3057TIP3    H230731   1.729   6.654   8.598
 3058TIP3   OH230732   0.422   1.506   1.980
 3058TIP3    H130733   0.404   1.493   2.073
 3058TIP3    H230734   0.345   1.474   1.935
 3059TIP3   OH230735   0.101   6.343   8.622
 3059TIP3    H130736   0.025   6.401   8.625
 3059TIP3    H230737   0.145   6.367   8.540
 3060TIP3   OH230738   2.406   1.207   1.458
 3060TIP3    H130739   2.459   1.140   1.414
 3060TIP3    H230740   2.348   1.156   1.516
 3061TIP3   OH230741   2.295   0.333   0.351
 3061TIP3    H130742   2.294   0.420   0.312
 3061TIP3    H230743   2.227   0.285   0.305
 3062TIP3   OH230744   6.039   0.622   6.863
 3062TIP3    H130745   6.063   0.530   6.873
 3062TIP3    H230746   5.944   0.620   6.852
 3063TIP3   OH230747   2.341   0.795   8.450
 3063TIP3    H130748   2.311   0.801   8.359
 3063TIP3    H230749   2.397   0.872   8.462
 3064TIP3   OH230750   2.610   1.975   0.963
 3064TIP3    H130751   2.553   1.994   1.038
 3064TIP3    H230752   2.692   2.020   0.984
 3065TIP3   OH230753   0.101   0.075   7.388
 3065TIP3    H130754   0.157   6.881   7.395
 3065TIP3    H230755   0.070   0.075   7.298
 3066TIP3   OH230756   3.221   2.400   6.237
 3066TIP3    H130757   3.142   2.353   6.264
 3066TIP3    H230758   3.292   2.356   6.284
 3067TIP3   OH230759   5.172   1.909   0.538
 3067TIP3    H130760   5.199   1.875   0.452
 3067TIP3    H230761   5.077   1.893   0.541
 3068TIP3   OH230762   6.304   6.635   0.696
 3068TIP3    H130763   6.323   6.703   0.631
 3068TIP3    H230764   6.391   6.606   0.725
 3069TIP3   OH230765   5.599   4.753   0.109
 3069TIP3    H130766   5.632   4.663   0.105
 3069TIP3    H230767   5.549   4.764   0.028
 3070TIP3   OH230768   2.856   0.944   0.632
 3070TIP3    H130769   2.903   0.863   0.650
 3070TIP3    H230770   2.771   0.916   0.597
 3071TIP3   OH230771   6.341   5.079   0.929
 3071TIP3    H130772   6.367   5.169   0.907
 3071TIP3    H230773   6.367   5.068   1.020
 3072TIP3   OH230774   3.231   1.214   7.211
 3072TIP3    H130775   3.249   1.121   7.196
 3072TIP3    H230776   3.232   1.253   7.123
 3073TIP3   OH230777   0.130   4.002   6.624
 3073TIP3    H130778   0.163   3.937   6.562
 3073TIP3    H230779   0.040   4.020   6.594
 3074TIP3   OH230780   3.800   1.942   0.664
 3074TIP3    H130781   3.824   1.909   0.751
 3074TIP3    H230782   3.780   1.863   0.614
 3075TIP3   OH230783   4.567   2.551   1.183
 3075TIP3    H130784   4.579   2.595   1.267
 3075TIP3    H230785   4.531   2.620   1.126
 3076TIP3   OH230786   6.716   1.196   0.403
 3076TIP3    H130787   6.682   1.107   0.412
 3076TIP3    H230788   6.643   1.252   0.430
 3077TIP3   OH230789   6.007   2.158   7.259
 3077TIP3    H130790   6.082   2.184   7.313
 3077TIP3    H230791   5.945   2.231   7.267
 3078TIP3   OH230792   5.388   0.914   6.539
 3078TIP3    H130793   5.450   0.957   6.479
 3078TIP3    H230794   5.435   0.910   6.622
 3079TIP3   OH230795   3.429   4.107   0.597
 3079TIP3    H130796   3.518   4.120   0.564
 3079TIP3    H230797   3.437   4.038   0.663
 3080TIP3   OH230798   1.140   3.369   1.004
 3080TIP3    H130799   1.078   3.296   1.003
 3080TIP3    H230800   1.099   3.435   1.059
 3081TIP3   OH230801   4.575   6.368   1.565
 3081TIP3    H130802   4.513   6.337   1.631
 3081TIP3    H230803   4.620   6.442   1.606
 3082TIP3   OH230804   3.491   0.198   6.897
 3082TIP3    H130805   3.413   0.254   6.894
 3082TIP3    H230806   3.564   0.258   6.888
 3083TIP3   OH230807   0.069   5.177   0.925
 3083TIP3    H130808   0.046   5.098   0.877
 3083TIP3    H230809   6.882   5.188   0.989
 3084TIP3   OH230810   6.461   0.178   6.999
 3084TIP3    H130811   6.461   0.086   6.975
 3084TIP3    H230812   6.487   0.224   6.920
 3085TIP3   OH230813   6.139   1.299   7.938
 3085TIP3    H130814   6.182   1.384   7.928
 3085TIP3    H230815   6.048   1.320   7.958
 3086TIP3   OH230816   5.192   6.000   0.245
 3086TIP3    H130817   5.113   6.051   0.230
 3086TIP3    H230818   5.176   5.955   0.328
 3087TIP3   OH230819   0.482   2.066   8.183
 3087TIP3    H130820   0.482   2.158   8.209
 3087TIP3    H230821   0.512   2.019   8.261
 3088TIP3   OH230822   4.545   2.391   7.257
 3088TIP3    H130823   4.640   2.384   7.245
 3088TIP3    H230824   4.514   2.439   7.180
 3089TIP3   OH230825   3.647   2.423   7.912
 3089TIP3    H130826   3.575   2.391   7.858
 3089TIP3    H230827   3.655   2.516   7.888
 3090TIP3   OH230828   2.819   1.166   6.648
 3090TIP3    H130829   2.820   1.260   6.669
 3090TIP3    H230830   2.905   1.149   6.610
 3091TIP3   OH230831   5.094   0.967   0.896
 3091TIP3    H130832   5.160   0.970   0.827
 3091TIP3    H230833   5.107   0.881   0.937
 3092TIP3   OH230834   3.005   3.036   7.829
 3092TIP3    H130835   3.014   2.986   7.748
 3092TIP3    H230836   2.914   3.065   7.830
 3093TIP3   OH230837   2.880   3.114   7.457
 3093TIP3    H130838   2.790   3.147   7.464
 3093TIP3    H230839   2.894   3.065   7.538
 3094TIP3   OH230840   6.514   2.456   0.795
 3094TIP3    H130841   6.544   2.540   0.761
 3094TIP3    H230842   6.418   2.458   0.785
 3095TIP3   OH230843   1.383   3.817   7.032
 3095TIP3    H130844   1.380   3.896   6.979
 3095TIP3    H230845   1.302   3.819   7.083
 3096TIP3   OH230846   0.208   1.971   2.116
 3096TIP3    H130847   0.142   1.916   2.158
 3096TIP3    H230848   0.169   2.059   2.116
 3097TIP3   OH230849   4.565   4.243   7.598
 3097TIP3    H130850   4.643   4.195   7.572
 3097TIP3    H230851   4.505   4.176   7.631
 3098TIP3   OH230852   0.799   3.564   1.284
 3098TIP3    H130853   0.708   3.555   1.254
 3098TIP3    H230854   0.801   3.648   1.330
 3099TIP3   OH230855   1.155   0.276   1.354
 3099TIP3    H130856   1.153   0.186   1.322
 3099TIP3    H230857   1.064   0.294   1.377
 3100TIP3   OH230858   4.576   6.682   1.380
 3100TIP3    H130859   4.664   6.717   1.398
 3100TIP3    H230860   4.579   6.656   1.288
 3101TIP3   OH230861   6.533   1.644   1.680
 3101TIP3    H130862   6.593   1.650   1.606
 3101TIP3    H230863   6.448   1.625   1.640
 3102TIP3   OH230864   2.677   4.142   0.679
 3102TIP3    H130865   2.734   4.124   0.755
 3102TIP3    H230866   2.686   4.237   0.666
 3103TIP3   OH230867   6.113   2.389   7.987
 3103TIP3    H130868   6.159   2.332   8.049
 3103TIP3    H230869   6.037   2.338   7.959
 3104TIP3   OH230870   3.552   1.349   7.238
 3104TIP3    H130871   3.493   1.275   7.256
 3104TIP3    H230872   3.507   1.400   7.171
 3105TIP3   OH230873   1.871   2.739   0.435
 3105TIP3    H130874   1.784   2.723   0.471
 3105TIP3    H230875   1.930   2.737   0.511
 3106TIP3   OH230876   2.554   3.460   6.951
 3106TIP3    H130877   2.486   3.399   6.921
 3106TIP3    H230878   2.509   3.518   7.012
 3107TIP3   OH230879   1.382   3.423   1.187
 3107TIP3    H130880   1.288   3.422   1.204
 3107TIP3    H230881   1.394   3.493   1.122
 3108TIP3   OH230882   3.022   3.402   6.179
 3108TIP3    H130883   3.000   3.475   6.237
 3108TIP3    H230884   3.112   3.421   6.150
 3109TIP3   OH230885   4.493   1.990   7.575
 3109TIP3    H130886   4.503   1.954   7.662
 3109TIP3    H230887   4.506   2.084   7.586
 3110TIP3   OH230888   2.788   6.775   0.184
 3110TIP3    H130889   2.866   6.732   0.217
 3110TIP3    H230890   2.784   6.749   0.092
 3111TIP3   OH230891   3.801   4.350   6.626
 3111TIP3    H130892   3.794   4.369   6.533
 3111TIP3    H230893   3.821   4.257   6.631
 3112TIP3   OH230894   1.081   5.687   8.101
 3112TIP3    H130895   1.167   5.728   8.092
 3112TIP3    H230896   1.095   5.617   8.165
 3113TIP3   OH230897   3.799   5.142   1.555
 3113TIP3    H130898   3.766   5.137   1.644
 3113TIP3    H230899   3.892   5.166   1.565
 3114TIP3   OH230900   1.957   6.742   0.985
 3114TIP3    H130901   1.903   6.665   0.971
 3114TIP3    H230902   2.017   6.744   0.910
 3115TIP3   OH230903   6.310   1.748   0.222
 3115TIP3    H130904   6.366   1.680   0.260
 3115TIP3    H230905   6.343   1.829   0.259
 3116TIP3   OH230906   5.141   2.406   8.223
 3116TIP3    H130907   5.231   2.420   8.253
 3116TIP3    H230908   5.127   2.311   8.232
 3117TIP3   OH230909   2.247   1.957   1.295
 3117TIP3    H130910   2.320   2.015   1.318
 3117TIP3    H230911   2.282   1.868   1.306
 3118TIP3   OH230912   1.505   0.903   0.632
 3118TIP3    H130913   1.493   0.996   0.611
 3118TIP3    H230914   1.600   0.893   0.641
 3119TIP3   OH230915   4.590   1.356   1.529
 3119TIP3    H130916   4.645   1.304   1.589
 3119TIP3    H230917   4.531   1.405   1.586
 3120TIP3   OH230918   6.762   1.917   6.360
 3120TIP3    H130919   6.806   1.912   6.275
 3120TIP3    H230920   6.767   1.827   6.394
 3121TIP3   OH230921   3.977   2.060   8.613
 3121TIP3    H130922   3.914   2.086   8.545
 3121TIP3    H230923   3.934   2.084   0.064
 3122TIP3   OH230924   4.105   1.527   8.220
 3122TIP3    H130925   4.198   1.514   8.237
 3122TIP3    H230926   4.065   1.443   8.242
 3123TIP3   OH230927   6.075   4.186   8.137
 3123TIP3    H130928   5.996   4.152   8.094
 3123TIP3    H230929   6.053   4.189   8.230
 3124TIP3   OH230930   4.017   0.491   0.619
 3124TIP3    H130931   3.967   0.561   0.660
 3124TIP3    H230932   4.095   0.482   0.673
 3125TIP3   OH230933   3.849   4.650   1.910
 3125TIP3    H130934   3.770   4.596   1.916
 3125TIP3    H230935   3.839   4.714   1.980
 3126TIP3   OH230936   1.987   0.778   8.512
 3126TIP3    H130937   1.925   0.847   8.536
 3126TIP3    H230938   1.941   0.726   8.446
 3127TIP3   OH230939   3.083   0.072   1.845
 3127TIP3    H130940   3.117   6.872   1.880
 3127TIP3    H230941   3.113   0.074   1.754
 3128TIP3   OH230942   5.751   1.058   8.078
 3128TIP3    H130943   5.789   1.075   8.164
 3128TIP3    H230944   5.803   0.987   8.042
 3129TIP3   OH230945   5.707   2.331   7.024
 3129TIP3    H130946   5.727   2.237   7.021
 3129TIP3    H230947   5.759   2.369   6.954
 3130TIP3   OH230948   4.264   1.507   6.887
 3130TIP3    H130949   4.328   1.442   6.858
 3130TIP3    H230950   4.187   1.456   6.912
 3131TIP3   OH230951   2.533   4.822   0.686
 3131TIP3    H130952   2.608   4.870   0.720
 3131TIP3    H230953   2.523   4.854   0.596
 3132TIP3   OH230954   5.859   3.381   1.872
 3132TIP3    H130955   5.829   3.345   1.955
 3132TIP3    H230956   5.817   3.325   1.806
 3133TIP3   OH230957   0.798   4.651   7.773
 3133TIP3    H130958   0.820   4.560   7.753
 3133TIP3    H230959   0.851   4.703   7.712
 3134TIP3   OH230960   1.771   2.483   8.583
 3134TIP3    H130961   1.740   2.393   8.571
 3134TIP3    H230962   1.853   2.487   8.533
 3135TIP3   OH230963   0.925   0.991   6.934
 3135TIP3    H130964   0.879   0.986   6.850
 3135TIP3    H230965   0.958   0.903   6.949
 3136TIP3   OH230966   5.781   6.076   0.192
 3136TIP3    H130967   5.704   6.033   0.229
 3136TIP3    H230968   5.829   6.006   0.147
 3137TIP3   OH230969   4.640   2.199   7.016
 3137TIP3    H130970   4.585   2.121   7.005
 3137TIP3    H230971   4.578   2.271   7.030
 3138TIP3   OH230972   5.681   1.998   7.188
 3138TIP3    H130973   5.591   1.971   7.206
 3138TIP3    H230974   5.699   2.069   7.250
 3139TIP3   OH230975   5.662   5.053   0.125
 3139TIP3    H130976   5.685   5.054   0.031
 3139TIP3    H230977   5.628   4.965   0.140
 3140TIP3   OH230978   5.584   3.786   1.002
 3140TIP3    H130979   5.492   3.802   0.981
 3140TIP3    H230980   5.611   3.715   0.944
 3141TIP3   OH230981   3.955   5.134   8.323
 3141TIP3    H130982   4.001   5.050   8.318
 3141TIP3    H230983   3.987   5.183   8.247
 3142TIP3   OH230984   3.743   3.455   0.724
 3142TIP3    H130985   3.664   3.412   0.757
 3142TIP3    H230986   3.807   3.384   0.715
 3143TIP3   OH230987   4.405   3.798   6.922
 3143TIP3    H130988   4.486   3.768   6.882
 3143TIP3    H230989   4.339   3.789   6.853
 3144TIP3   OH230990   5.367   2.219   7.461
 3144TIP3    H130991   5.337   2.206   7.551
 3144TIP3    H230992   5.305   2.281   7.424
 3145TIP3   OH230993   0.557   1.324   8.023
 3145TIP3    H130994   0.569   1.374   8.103
 3145TIP3    H230995   0.475   1.357   7.986
 3146TIP3   OH230996   5.359   2.720   7.249
 3146TIP3    H130997   5.296   2.660   7.209
 3146TIP3    H230998   5.444   2.679   7.236
 3147TIP3   OH230999   5.509   6.166   8.364
 3147TIP3    H131000   5.455   6.244   8.354
 3147TIP3    H231001   5.522   6.133   8.275
 3148TIP3   OH231002   6.649   5.469   7.909
 3148TIP3    H131003   6.737   5.462   7.946
 3148TIP3    H231004   6.659   5.528   7.834
 3149TIP3   OH231005   6.845   3.916   7.056
 3149TIP3    H131006   6.866   3.855   6.985
 3149TIP3    H231007   0.020   3.991   7.041
 3150TIP3   OH231008   3.576   4.999   7.841
 3150TIP3    H131009   3.487   4.982   7.870
 3150TIP3    H231010   3.623   5.023   7.921
 3151TIP3   OH231011   2.970   2.877   8.424
 3151TIP3    H131012   2.996   2.823   8.350
 3151TIP3    H231013   2.887   2.916   8.398
 3152TIP3   OH231014   3.559   6.254   7.578
 3152TIP3    H131015   3.530   6.249   7.487
 3152TIP3    H231016   3.626   6.322   7.579
 3153TIP3   OH231017   6.025   2.669   7.111
 3153TIP3    H131018   6.097   2.686   7.049
 3153TIP3    H231019   5.948   2.659   7.056
 3154TIP3   OH231020   4.785   4.092   7.493
 3154TIP3    H131021   4.847   4.138   7.437
 3154TIP3    H231022   4.825   4.006   7.507
 3155TIP3   OH231023   1.802   0.767   6.578
 3155TIP3    H131024   1.737   0.743   6.644
 3155TIP3    H231025   1.886   0.757   6.623
 3156TIP3   OH231026   0.436   3.217   7.084
 3156TIP3    H131027   0.455   3.299   7.130
 3156TIP3    H231028   0.499   3.214   7.012
 3157TIP3   OH231029   2.738   2.997   2.249
 3157TIP3    H131030   2.648   3.015   2.221
 3157TIP3    H231031   2.747   3.042   2.333
 3158TIP3   OH231032   5.140   5.095   1.858
 3158TIP3    H131033   5.122   5.121   1.948
 3158TIP3    H231034   5.206   5.158   1.828
 3159TIP3   OH231035   5.000   4.832   8.360
 3159TIP3    H131036   4.957   4.748   8.375
 3159TIP3    H231037   5.035   4.824   8.271
 3160TIP3   OH231038   4.781   3.362   1.216
 3160TIP3    H131039   4.709   3.424   1.230
 3160TIP3    H231040   4.851   3.415   1.179
 3161TIP3   OH231041   4.652   2.683   7.486
 3161TIP3    H131042   4.685   2.593   7.491
 3161TIP3    H231043   4.632   2.706   7.577
 3162TIP3   OH231044   5.188   4.338   1.320
 3162TIP3    H131045   5.196   4.403   1.251
 3162TIP3    H231046   5.170   4.389   1.399
 3163TIP3   OH231047   1.860   0.457   7.040
 3163TIP3    H131048   1.915   0.406   7.099
 3163TIP3    H231049   1.911   0.537   7.024
 3164TIP3   OH231050   3.012   2.820   1.267
 3164TIP3    H131051   2.947   2.819   1.338
 3164TIP3    H231052   3.096   2.824   1.312
 3165TIP3   OH231053   1.011   5.062   0.274
 3165TIP3    H131054   0.991   5.005   0.348
 3165TIP3    H231055   1.099   5.036   0.246
 3166TIP3   OH231056   3.467   1.913   0.510
 3166TIP3    H131057   3.531   1.983   0.501
 3166TIP3    H231058   3.422   1.911   0.426
 3167TIP3   OH231059   4.702   4.056   2.020
 3167TIP3    H131060   4.614   4.094   2.022
 3167TIP3    H231061   4.757   4.120   2.065
 3168TIP3   OH231062   4.078   5.705   1.140
 3168TIP3    H131063   4.055   5.616   1.113
 3168TIP3    H231064   4.156   5.694   1.194
 3169TIP3   OH231065   5.820   2.744   1.339
 3169TIP3    H131066   5.800   2.692   1.416
 3169TIP3    H231067   5.774   2.700   1.267
 3170TIP3   OH231068   6.175   5.002   2.229
 3170TIP3    H131069   6.125   4.932   2.270
 3170TIP3    H231070   6.155   5.080   2.282
 3171TIP3   OH231071   4.212   4.425   7.312
 3171TIP3    H131072   4.183   4.516   7.318
 3171TIP3    H231073   4.267   4.412   7.390
 3172TIP3   OH231074   0.477   3.574   0.072
 3172TIP3    H131075   0.549   3.546   0.015
 3172TIP3    H231076   0.517   3.639   0.131
 3173TIP3   OH231077   4.732   4.537   0.651
 3173TIP3    H131078   4.679   4.517   0.573
 3173TIP3    H231079   4.683   4.608   0.694
 3174TIP3   OH231080   4.893   1.361   0.008
 3174TIP3    H131081   4.910   1.386   8.549
 3174TIP3    H231082   4.974   1.321   0.037
 3175TIP3   OH231083   2.578   6.860   1.066
 3175TIP3    H131084   2.653   6.844   1.122
 3175TIP3    H231085   2.585   0.070   1.041
 3176TIP3   OH231086   4.533   2.203   0.401
 3176TIP3    H131087   4.524   2.192   0.496
 3176TIP3    H231088   4.557   2.295   0.390
 3177TIP3   OH231089   2.663   1.272   2.178
 3177TIP3    H131090   2.631   1.350   2.223
 3177TIP3    H231091   2.594   1.251   2.114
 3178TIP3   OH231092   1.698   5.172   7.332
 3178TIP3    H131093   1.762   5.184   7.262
 3178TIP3    H231094   1.638   5.105   7.298
 3179TIP3   OH231095   5.377   1.151   0.207
 3179TIP3    H131096   5.370   1.056   0.205
 3179TIP3    H231097   5.464   1.168   0.241
 3180TIP3   OH231098   6.534   0.977   1.062
 3180TIP3    H131099   6.621   0.966   1.100
 3180TIP3    H231100   6.521   0.897   1.011
 3181TIP3   OH231101   0.329   2.323   6.828
 3181TIP3    H131102   0.336   2.408   6.872
 3181TIP3    H231103   0.274   2.341   6.751
 3182TIP3   OH231104   1.041   5.176   1.431
 3182TIP3    H131105   1.131   5.147   1.449
 3182TIP3    H231106   0.987   5.126   1.493
 3183TIP3   OH231107   4.685   5.917   7.868
 3183TIP3    H131108   4.642   5.965   7.939
 3183TIP3    H231109   4.662   5.966   7.789
 3184TIP3   OH231110   0.897   5.783   6.525
 3184TIP3    H131111   0.880   5.869   6.564
 3184TIP3    H231112   0.811   5.742   6.519
 3185TIP3   OH231113   5.411   4.435   8.575
 3185TIP3    H131114   5.354   4.454   8.501
 3185TIP3    H231115   5.413   4.339   8.579
 3186TIP3   OH231116   0.447   1.584   6.777
 3186TIP3    H131117   0.355   1.609   6.770
 3186TIP3    H231118   0.452   1.501   6.729
 3187TIP3   OH231119   3.801   5.479   7.266
 3187TIP3    H131120   3.764   5.538   7.200
 3187TIP3    H231121   3.891   5.509   7.278
 3188TIP3   OH231122   6.375   3.381   7.598
 3188TIP3    H131123   6.348   3.450   7.658
 3188TIP3    H231124   6.414   3.314   7.654
 3189TIP3   OH231125   5.796   1.051   8.376
 3189TIP3    H131126   5.852   1.128   8.382
 3189TIP3    H231127   5.829   0.992   8.444
 3190TIP3   OH231128   4.060   6.335   7.093
 3190TIP3    H131129   4.007   6.255   7.094
 3190TIP3    H231130   4.071   6.355   7.000
 3191TIP3   OH231131   2.713   4.014   0.418
 3191TIP3    H131132   2.782   4.035   0.356
 3191TIP3    H231133   2.754   3.952   0.479
 3192TIP3   OH231134   1.562   5.097   7.620
 3192TIP3    H131135   1.635   5.066   7.673
 3192TIP3    H231136   1.598   5.103   7.531
 3193TIP3   OH231137   0.219   3.832   6.329
 3193TIP3    H131138   0.293   3.779   6.300
 3193TIP3    H231139   0.171   3.776   6.390
 3194TIP3   OH231140   3.732   2.237   6.732
 3194TIP3    H131141   3.827   2.234   6.738
 3194TIP3    H231142   3.712   2.187   6.652
 3195TIP3   OH231143   5.368   2.127   1.672
 3195TIP3    H131144   5.397   2.067   1.603
 3195TIP3    H231145   5.394   2.084   1.753
 3196TIP3   OH231146   1.087   1.408   6.365
 3196TIP3    H131147   1.104   1.434   6.456
 3196TIP3    H231148   1.050   1.320   6.372
 3197TIP3   OH231149   1.383   5.044   1.971
 3197TIP3    H131150   1.451   5.052   2.039
 3197TIP3    H231151   1.424   5.080   1.892
 3198TIP3   OH231152   0.758   2.966   8.534
 3198TIP3    H131153   0.809   3.038   8.572
 3198TIP3    H231154   0.815   2.929   8.467
 3199TIP3   OH231155   3.810   6.113   2.459
 3199TIP3    H131156   3.848   6.028   2.439
 3199TIP3    H231157   3.729   6.116   2.408
 3200TIP3   OH231158   5.602   4.179   8.482
 3200TIP3    H131159   5.627   4.226   8.402
 3200TIP3    H231160   5.563   4.098   8.451
 3201TIP3   OH231161   1.797   6.008   7.736
 3201TIP3    H131162   1.702   6.016   7.726
 3201TIP3    H231163   1.811   6.002   7.831
 3202TIP3   OH231164   5.888   5.030   8.517
 3202TIP3    H131165   5.892   4.957   8.579
 3202TIP3    H231166   5.900   5.108   8.571
 3203TIP3   OH231167   6.198   0.202   1.940
 3203TIP3    H131168   6.113   0.184   1.981
 3203TIP3    H231169   6.261   0.157   1.995
 3204TIP3   OH231170   3.997   1.294   8.284
 3204TIP3    H131171   4.045   1.236   8.225
 3204TIP3    H231172   4.005   1.254   8.370
 3205TIP3   OH231173   0.499   4.460   1.485
 3205TIP3    H131174   0.406   4.463   1.510
 3205TIP3    H231175   0.510   4.373   1.447
 3206TIP3   OH231176   5.001   4.486   0.130
 3206TIP3    H131177   5.068   4.419   0.147
 3206TIP3    H231178   4.949   4.489   0.210
 3207TIP3   OH231179   3.792   4.067   6.675
 3207TIP3    H131180   3.845   4.038   6.749
 3207TIP3    H231181   3.703   4.075   6.711
 3208TIP3   OH231182   3.370   0.573   8.221
 3208TIP3    H131183   3.319   0.493   8.223
 3208TIP3    H231184   3.436   0.562   8.290
 3209TIP3   OH231185   5.414   0.482   7.025
 3209TIP3    H131186   5.449   0.492   6.937
 3209TIP3    H231187   5.492   0.477   7.081
 3210TIP3   OH231188   2.838   6.863   7.859
 3210TIP3    H131189   2.752   6.823   7.873
 3210TIP3    H231190   2.900   6.797   7.890
 3211TIP3   OH231191   0.899   5.443   6.003
 3211TIP3    H131192   0.858   5.523   5.970
 3211TIP3    H231193   0.986   5.443   5.963
 3212TIP3   OH231194   1.744   1.991   8.261
 3212TIP3    H131195   1.680   2.009   8.331
 3212TIP3    H231196   1.797   1.919   8.295
 3213TIP3   OH231197   2.477   4.548   0.152
 3213TIP3    H131198   2.504   4.520   0.064
 3213TIP3    H231199   2.390   4.586   0.139
 3214TIP3   OH231200   0.509   0.890   8.068
 3214TIP3    H131201   0.452   0.824   8.108
 3214TIP3    H231202   0.481   0.972   8.107
 3215TIP3   OH231203   3.686   4.023   8.186
 3215TIP3    H131204   3.727   4.068   8.260
 3215TIP3    H231205   3.759   3.986   8.137
 3216TIP3   OH231206   2.110   1.424   0.922
 3216TIP3    H131207   2.074   1.342   0.953
 3216TIP3    H231208   2.056   1.492   0.962
 3217TIP3   OH231209   5.840   2.293   7.708
 3217TIP3    H131210   5.800   2.377   7.684
 3217TIP3    H231211   5.794   2.267   7.787
 3218TIP3   OH231212   0.623   0.747   8.624
 3218TIP3    H131213   0.550   0.733   0.053
 3218TIP3    H231214   0.699   0.763   0.049
 3219TIP3   OH231215   5.773   6.757   2.395
 3219TIP3    H131216   5.867   6.775   2.392
 3219TIP3    H231217   5.749   6.737   2.305
 3220TIP3   OH231218   3.485   1.943   1.995
 3220TIP3    H131219   3.474   1.973   2.086
 3220TIP3    H231220   3.513   1.852   2.004
 3221TIP3   OH231221   1.663   4.979   0.840
 3221TIP3    H131222   1.650   4.991   0.746
 3221TIP3    H231223   1.738   4.919   0.845
 3222TIP3   OH231224   4.598   1.210   2.588
 3222TIP3    H131225   4.663   1.140   2.573
 3222TIP3    H231226   4.645   1.291   2.565
 3223TIP3   OH231227   0.908   1.657   0.558
 3223TIP3    H131228   0.853   1.581   0.539
 3223TIP3    H231229   0.919   1.656   0.654
 3224TIP3   OH231230   0.120   5.802   7.591
 3224TIP3    H131231   0.163   5.717   7.578
 3224TIP3    H231232   0.094   5.801   7.683
 3225TIP3   OH231233   0.352   5.920   8.054
 3225TIP3    H131234   0.345   5.923   7.959
 3225TIP3    H231235   0.417   5.986   8.076
 3226TIP3   OH231236   1.592   2.686   8.617
 3226TIP3    H131237   1.506   2.648   0.003
 3226TIP3    H231238   1.647   2.611   8.594
 3227TIP3   OH231239   1.143   6.360   6.396
 3227TIP3    H131240   1.166   6.451   6.411
 3227TIP3    H231241   1.192   6.336   6.316
 3228TIP3   OH231242   1.871   4.136   0.874
 3228TIP3    H131243   1.908   4.055   0.838
 3228TIP3    H231244   1.791   4.150   0.823
 3229TIP3   OH231245   4.989   5.104   8.419
 3229TIP3    H131246   4.896   5.122   8.434
 3229TIP3    H231247   4.991   5.014   8.387
 3230TIP3   OH231248   3.922   0.901   0.428
 3230TIP3    H131249   3.974   0.832   0.469
 3230TIP3    H231250   3.927   0.883   0.334
 3231TIP3   OH231251   2.462   4.719   7.669
 3231TIP3    H131252   2.557   4.713   7.677
 3231TIP3    H231253   2.430   4.637   7.708
 3232TIP3   OH231254   2.645   2.995   1.135
 3232TIP3    H131255   2.741   2.996   1.130
 3232TIP3    H231256   2.617   3.066   1.077
 3233TIP3   OH231257   2.034   2.997   7.693
 3233TIP3    H131258   2.057   2.993   7.786
 3233TIP3    H231259   2.105   3.046   7.653
 3234TIP3   OH231260   5.000   6.524   1.552
 3234TIP3    H131261   5.003   6.603   1.498
 3234TIP3    H231262   4.909   6.515   1.578
 3235TIP3   OH231263   6.862   6.411   1.110
 3235TIP3    H131264   0.040   6.360   1.057
 3235TIP3    H231265   6.859   6.366   1.194
 3236TIP3   OH231266   3.580   5.952   1.092
 3236TIP3    H131267   3.660   5.899   1.100
 3236TIP3    H231268   3.523   5.900   1.036
 3237TIP3   OH231269   5.571   2.086   6.591
 3237TIP3    H131270   5.520   2.163   6.564
 3237TIP3    H231271   5.511   2.036   6.647
 3238TIP3   OH231272   3.361   1.072   7.483
 3238TIP3    H131273   3.344   1.009   7.553
 3238TIP3    H231274   3.353   1.021   7.402
 3239TIP3   OH231275   3.098   2.482   7.941
 3239TIP3    H131276   3.016   2.490   7.893
 3239TIP3    H231277   3.164   2.516   7.881
 3240TIP3   OH231278   1.152   1.168   6.625
 3240TIP3    H131279   1.123   1.079   6.643
 3240TIP3    H231280   1.159   1.171   6.529
 3241TIP3   OH231281   6.826   1.108   6.860
 3241TIP3    H131282   6.777   1.176   6.906
 3241TIP3    H231283   6.865   1.153   6.785
 3242TIP3   OH231284   1.853   0.039   1.150
 3242TIP3    H131285   1.758   0.036   1.142
 3242TIP3    H231286   1.884   6.852   1.091
 3243TIP3   OH231287   6.687   6.538   0.276
 3243TIP3    H131288   6.729   6.495   0.351
 3243TIP3    H231289   6.621   6.594   0.314
 3244TIP3   OH231290   4.684   5.431   2.502
 3244TIP3    H131291   4.738   5.502   2.466
 3244TIP3    H231292   4.686   5.445   2.597
 3245TIP3   OH231293   4.980   5.025   0.913
 3245TIP3    H131294   4.976   4.952   0.974
 3245TIP3    H231295   4.944   4.990   0.831
 3246TIP3   OH231296   6.291   3.374   0.603
 3246TIP3    H131297   6.264   3.376   0.511
 3246TIP3    H231298   6.365   3.435   0.607
 3247TIP3   OH231299   4.470   3.399   0.110
 3247TIP3    H131300   4.434   3.383   0.197
 3247TIP3    H231301   4.465   3.493   0.099
 3248TIP3   OH231302   4.026   1.137   2.350
 3248TIP3    H131303   3.933   1.119   2.365
 3248TIP3    H231304   4.036   1.132   2.255
 3249TIP3   OH231305   3.627   5.796   0.306
 3249TIP3    H131306   3.712   5.806   0.264
 3249TIP3    H231307   3.604   5.704   0.292
 3250TIP3   OH231308   5.592   2.423   0.082
 3250TIP3    H131309   5.499   2.443   0.088
 3250TIP3    H231310   5.630   2.460   0.162
 3251TIP3   OH231311   0.786   3.600   0.419
 3251TIP3    H131312   0.828   3.686   0.418
 3251TIP3    H231313   0.702   3.616   0.462
 3252TIP3   OH231314   5.321   5.797   1.443
 3252TIP3    H131315   5.400   5.841   1.476
 3252TIP3    H231316   5.269   5.867   1.403
 3253TIP3   OH231317   5.864   4.310   1.062
 3253TIP3    H131318   5.855   4.220   1.033
 3253TIP3    H231319   5.783   4.329   1.109
 3254TIP3   OH231320   6.481   0.277   7.768
 3254TIP3    H131321   6.459   0.317   7.684
 3254TIP3    H231322   6.544   0.208   7.746
 3255TIP3   OH231323   2.017   3.119   0.119
 3255TIP3    H131324   2.111   3.114   0.140
 3255TIP3    H231325   1.976   3.064   0.186
 3256TIP3   OH231326   4.655   0.396   0.095
 3256TIP3    H131327   4.562   0.374   0.095
 3256TIP3    H231328   4.696   0.324   0.046
 3257TIP3   OH231329   2.089   0.360   7.190
 3257TIP3    H131330   2.133   0.346   7.107
 3257TIP3    H231331   2.145   0.421   7.238
 3258TIP3   OH231332   4.363   3.385   0.341
 3258TIP3    H131333   4.307   3.429   0.406
 3258TIP3    H231334   4.402   3.312   0.389
 3259TIP3   OH231335   5.099   3.303   1.176
 3259TIP3    H131336   5.086   3.211   1.200
 3259TIP3    H231337   5.181   3.304   1.126
 3260TIP3   OH231338   0.619   6.298   7.727
 3260TIP3    H131339   0.617   6.324   7.819
 3260TIP3    H231340   0.712   6.288   7.707
 3261TIP3   OH231341   3.488   0.213   8.139
 3261TIP3    H131342   3.551   0.170   8.081
 3261TIP3    H231343   3.521   0.196   8.227
 3262TIP3   OH231344   1.369   4.002   8.152
 3262TIP3    H131345   1.326   3.922   8.123
 3262TIP3    H231346   1.325   4.072   8.104
 3263TIP3   OH231347   6.505   1.813   8.230
 3263TIP3    H131348   6.576   1.803   8.167
 3263TIP3    H231349   6.486   1.725   8.260
 3264TIP3   OH231350   4.990   1.317   6.740
 3264TIP3    H131351   4.911   1.352   6.699
 3264TIP3    H231352   5.056   1.386   6.726
 3265TIP3   OH231353   2.573   5.805   0.250
 3265TIP3    H131354   2.482   5.823   0.273
 3265TIP3    H231355   2.590   5.719   0.289
 3266TIP3   OH231356   0.732   2.580   1.212
 3266TIP3    H131357   0.775   2.529   1.280
 3266TIP3    H231358   0.641   2.553   1.215
 3267TIP3   OH231359   0.996   4.538   8.357
 3267TIP3    H131360   1.036   4.624   8.349
 3267TIP3    H231361   0.946   4.542   8.439
 3268TIP3   OH231362   6.076   1.935   0.399
 3268TIP3    H131363   6.158   1.968   0.363
 3268TIP3    H231364   6.099   1.907   0.488
 3269TIP3   OH231365   2.743   3.257   7.039
 3269TIP3    H131366   2.789   3.301   7.111
 3269TIP3    H231367   2.691   3.326   6.999
 3270TIP3   OH231368   1.090   4.487   1.863
 3270TIP3    H131369   1.177   4.479   1.825
 3270TIP3    H231370   1.033   4.441   1.801
 3271TIP3   OH231371   5.018   5.268   1.256
 3271TIP3    H131372   5.044   5.331   1.189
 3271TIP3    H231373   4.964   5.318   1.317
 3272TIP3   OH231374   0.103   3.553   0.785
 3272TIP3    H131375   0.142   3.635   0.755
 3272TIP3    H231376   0.162   3.485   0.754
 3273TIP3   OH231377   3.068   2.767   0.596
 3273TIP3    H131378   3.020   2.696   0.640
 3273TIP3    H231379   3.157   2.759   0.629
 3274TIP3   OH231380   1.423   3.662   1.375
 3274TIP3    H131381   1.497   3.618   1.334
 3274TIP3    H231382   1.455   3.751   1.393
 3275TIP3   OH231383   6.665   1.284   7.750
 3275TIP3    H131384   6.662   1.208   7.807
 3275TIP3    H231385   6.611   1.350   7.794
 3276TIP3   OH231386   6.322   1.658   6.263
 3276TIP3    H131387   6.337   1.649   6.168
 3276TIP3    H231388   6.343   1.749   6.282
 3277TIP3   OH231389   3.118   3.706   6.931
 3277TIP3    H131390   3.172   3.728   7.007
 3277TIP3    H231391   3.068   3.630   6.959
 3278TIP3   OH231392   5.452   3.753   2.677
 3278TIP3    H131393   5.506   3.712   2.744
 3278TIP3    H231394   5.423   3.681   2.622
 3279TIP3   OH231395   4.125   1.112   2.094
 3279TIP3    H131396   4.093   1.151   2.012
 3279TIP3    H231397   4.179   1.038   2.066
 3280TIP3   OH231398   4.252   3.729   0.256
 3280TIP3    H131399   4.182   3.677   0.295
 3280TIP3    H231400   4.241   3.816   0.294
 3281TIP3   OH231401   5.794   0.446   0.611
 3281TIP3    H131402   5.723   0.510   0.613
 3281TIP3    H231403   5.873   0.498   0.598
 3282TIP3   OH231404   4.859   5.796   6.602
 3282TIP3    H131405   4.764   5.785   6.599
 3282TIP3    H231406   4.877   5.871   6.546
 3283TIP3   OH231407   2.469   2.584   6.700
 3283TIP3    H131408   2.441   2.642   6.629
 3283TIP3    H231409   2.514   2.643   6.761
 3284TIP3   OH231410   0.356   3.082   0.598
 3284TIP3    H131411   0.397   3.021   0.658
 3284TIP3    H231412   0.325   3.028   0.525
 3285TIP3   OH231413   5.154   2.594   8.511
 3285TIP3    H131414   5.201   2.579   8.429
 3285TIP3    H231415   5.141   2.506   8.547
 3286TIP3   OH231416   4.026   1.150   0.402
 3286TIP3    H131417   3.975   1.075   0.434
 3286TIP3    H231418   4.110   1.143   0.450
 3287TIP3   OH231419   0.011   1.260   0.617
 3287TIP3    H131420   6.836   1.286   0.546
 3287TIP3    H231421   0.098   1.258   0.576
 3288TIP3   OH231422   4.675   0.045   6.597
 3288TIP3    H131423   4.748   6.871   6.625
 3288TIP3    H231424   4.655   0.016   6.508
 3289TIP3   OH231425   4.831   4.599   8.372
 3289TIP3    H131426   4.747   4.624   8.333
 3289TIP3    H231427   4.808   4.538   8.442
 3290TIP3   OH231428   6.352   5.352   8.482
 3290TIP3    H131429   6.440   5.337   8.519
 3290TIP3    H231430   6.356   5.440   8.446
 3291TIP3   OH231431   4.370   2.666   7.881
 3291TIP3    H131432   4.386   2.608   7.955
 3291TIP3    H231433   4.336   2.746   7.921
 3292TIP3   OH231434   1.654   0.970   7.364
 3292TIP3    H131435   1.710   1.013   7.429
 3292TIP3    H231436   1.659   0.877   7.386
 3293TIP3   OH231437   5.627   4.042   1.872
 3293TIP3    H131438   5.699   4.066   1.930
 3293TIP3    H231439   5.549   4.081   1.911
 3294TIP3   OH231440   0.050   4.833   0.378
 3294TIP3    H131441   0.128   4.887   0.393
 3294TIP3    H231442   0.002   4.877   0.308
 3295TIP3   OH231443   4.123   2.473   0.714
 3295TIP3    H131444   4.180   2.404   0.747
 3295TIP3    H231445   4.179   2.551   0.712
 3296TIP3   OH231446   2.340   2.921   1.401
 3296TIP3    H131447   2.248   2.948   1.392
 3296TIP3    H231448   2.390   2.994   1.366
 3297TIP3   OH231449   2.275   5.782   6.921
 3297TIP3    H131450   2.310   5.745   7.002
 3297TIP3    H231451   2.240   5.867   6.946
 3298TIP3   OH231452   2.646   1.099   0.478
 3298TIP3    H131453   2.671   1.128   0.565
 3298TIP3    H231454   2.729   1.084   0.433
 3299TIP3   OH231455   3.219   1.044   8.013
 3299TIP3    H131456   3.253   0.978   8.073
 3299TIP3    H231457   3.236   1.128   8.056
 3300TIP3   OH231458   0.034   2.453   2.191
 3300TIP3    H131459   0.071   2.403   2.263
 3300TIP3    H231460   6.833   2.485   2.225
 3301TIP3   OH231461   5.445   4.885   1.511
 3301TIP3    H131462   5.367   4.936   1.492
 3301TIP3    H231463   5.488   4.931   1.582
 3302TIP3   OH231464   0.390   4.398   6.858
 3302TIP3    H131465   0.336   4.466   6.898
 3302TIP3    H231466   0.333   4.358   6.792
 3303TIP3   OH231467   4.287   5.389   0.972
 3303TIP3    H131468   4.204   5.434   0.956
 3303TIP3    H231469   4.342   5.455   1.014
 3304TIP3   OH231470   6.654   3.519   7.232
 3304TIP3    H131471   6.567   3.534   7.195
 3304TIP3    H231472   6.644   3.441   7.287
 3305TIP3   OH231473   0.775   1.033   7.169
 3305TIP3    H131474   0.713   1.104   7.152
 3305TIP3    H231475   0.831   1.031   7.092
 3306TIP3   OH231476   4.135   4.913   8.617
 3306TIP3    H131477   4.057   4.892   8.566
 3306TIP3    H231478   4.173   4.827   0.007
 3307TIP3   OH231479   0.471   0.387   2.336
 3307TIP3    H131480   0.418   0.314   2.303
 3307TIP3    H231481   0.543   0.344   2.382
 3308TIP3   OH231482   2.666   0.436   1.100
 3308TIP3    H131483   2.579   0.451   1.138
 3308TIP3    H231484   2.715   0.515   1.119
 3309TIP3   OH231485   2.875   5.539   8.351
 3309TIP3    H131486   2.783   5.531   8.325
 3309TIP3    H231487   2.920   5.471   8.301
 3310TIP3   OH231488   2.003   2.685   0.666
 3310TIP3    H131489   2.061   2.752   0.630
 3310TIP3    H231490   2.029   2.677   0.758
 3311TIP3   OH231491   0.005   0.449   1.214
 3311TIP3    H131492   0.007   0.374   1.274
 3311TIP3    H231493   0.059   0.515   1.258
 3312TIP3   OH231494   3.178   0.347   1.188
 3312TIP3    H131495   3.138   0.333   1.102
 3312TIP3    H231496   3.260   0.297   1.184
 3313TIP3   OH231497   1.051   6.631   6.548
 3313TIP3    H131498   1.109   6.651   6.475
 3313TIP3    H231499   0.963   6.633   6.510
 3314TIP3   OH231500   0.739   0.774   8.042
 3314TIP3    H131501   0.746   0.797   7.949
 3314TIP3    H231502   0.660   0.819   8.072
 3315TIP3   OH231503   1.187   4.499   0.643
 3315TIP3    H131504   1.246   4.506   0.718
 3315TIP3    H231505   1.203   4.579   0.592
 3316TIP3   OH231506   0.324   4.631   1.172
 3316TIP3    H131507   0.275   4.653   1.092
 3316TIP3    H231508   0.330   4.714   1.220
 3317TIP3   OH231509   2.839   2.026   7.814
 3317TIP3    H131510   2.799   2.015   7.728
 3317TIP3    H231511   2.906   2.093   7.801
 3318TIP3   OH231512   0.807   6.494   6.370
 3318TIP3    H131513   0.834   6.584   6.354
 3318TIP3    H231514   0.873   6.440   6.326
 3319TIP3   OH231515   0.465   2.278   0.612
 3319TIP3    H131516   0.419   2.293   0.529
 3319TIP3    H231517   0.404   2.229   0.666
 3320TIP3   OH231518   3.918   2.356   7.444
 3320TIP3    H131519   3.979   2.350   7.518
 3320TIP3    H231520   3.833   2.371   7.485
 3321TIP3   OH231521   5.579   6.431   8.252
 3321TIP3    H131522   5.597   6.448   8.160
 3321TIP3    H231523   5.496   6.474   8.269
 3322TIP3   OH231524   1.218   6.301   6.159
 3322TIP3    H131525   1.258   6.303   6.072
 3322TIP3    H231526   1.176   6.215   6.164
 3323TIP3   OH231527   6.528   1.481   2.307
 3323TIP3    H131528   6.502   1.542   2.377
 3323TIP3    H231529   6.616   1.510   2.282
 3324TIP3   OH231530   6.222   1.038   0.051
 3324TIP3    H131531   6.287   1.095   0.008
 3324TIP3    H231532   6.259   0.951   0.046
 3325TIP3   OH231533   3.589   2.382   1.062
 3325TIP3    H131534   3.602   2.327   0.985
 3325TIP3    H231535   3.505   2.353   1.099
 3326TIP3   OH231536   4.239   6.454   1.367
 3326TIP3    H131537   4.206   6.462   1.457
 3326TIP3    H231538   4.161   6.430   1.316
 3327TIP3   OH231539   2.037   6.581   8.176
 3327TIP3    H131540   2.088   6.658   8.203
 3327TIP3    H231541   2.026   6.592   8.082
 3328TIP3   OH231542   2.375   3.877   1.142
 3328TIP3    H131543   2.318   3.864   1.067
 3328TIP3    H231544   2.327   3.936   1.199
 3329TIP3   OH231545   5.657   4.222   7.171
 3329TIP3    H131546   5.716   4.212   7.096
 3329TIP3    H231547   5.707   4.188   7.245
 3330TIP3   OH231548   3.257   6.705   2.335
 3330TIP3    H131549   3.264   6.684   2.429
 3330TIP3    H231550   3.340   6.676   2.298
 3331TIP3   OH231551   4.161   5.152   0.933
 3331TIP3    H131552   4.220   5.225   0.952
 3331TIP3    H231553   4.086   5.193   0.889
 3332TIP3   OH231554   0.972   1.159   8.524
 3332TIP3    H131555   0.913   1.190   8.593
 3332TIP3    H231556   1.039   1.108   8.571
 3333TIP3   OH231557   5.467   3.025   1.230
 3333TIP3    H131558   5.434   3.097   1.283
 3333TIP3    H231559   5.560   3.020   1.252
 3334TIP3   OH231560   3.477   0.829   0.598
 3334TIP3    H131561   3.388   0.860   0.612
 3334TIP3    H231562   3.533   0.898   0.633
 3335TIP3   OH231563   4.177   3.686   0.926
 3335TIP3    H131564   4.106   3.626   0.903
 3335TIP3    H231565   4.225   3.641   0.996
 3336TIP3   OH231566   6.509   3.988   1.014
 3336TIP3    H131567   6.519   4.082   0.998
 3336TIP3    H231568   6.429   3.963   0.968
 3337TIP3   OH231569   3.843   3.283   8.596
 3337TIP3    H131570   3.897   3.310   0.039
 3337TIP3    H231571   3.851   3.188   8.594
 3338TIP3   OH231572   4.765   2.879   1.623
 3338TIP3    H131573   4.829   2.814   1.651
 3338TIP3    H231574   4.802   2.917   1.543
 3339TIP3   OH231575   4.480   5.739   8.390
 3339TIP3    H131576   4.482   5.658   8.339
 3339TIP3    H231577   4.453   5.712   8.478
 3340TIP3   OH231578   3.398   2.784   1.838
 3340TIP3    H131579   3.480   2.815   1.876
 3340TIP3    H231580   3.392   2.692   1.865
 3341TIP3   OH231581   6.186   2.203   1.332
 3341TIP3    H131582   6.224   2.250   1.258
 3341TIP3    H231583   6.238   2.123   1.339
 3342TIP3   OH231584   5.117   4.880   1.189
 3342TIP3    H131585   5.026   4.903   1.210
 3342TIP3    H231586   5.122   4.786   1.202
 3343TIP3   OH231587   4.877   0.425   7.885
 3343TIP3    H131588   4.799   0.480   7.872
 3343TIP3    H231589   4.884   0.416   7.980
 3344TIP3   OH231590   3.228   1.048   1.223
 3344TIP3    H131591   3.220   1.141   1.203
 3344TIP3    H231592   3.266   1.009   1.144
 3345TIP3   OH231593   5.860   0.175   0.528
 3345TIP3    H131594   5.933   0.191   0.468
 3345TIP3    H231595   5.842   0.260   0.568
 3346TIP3   OH231596   2.064   5.261   6.955
 3346TIP3    H131597   2.094   5.347   6.982
 3346TIP3    H231598   2.093   5.254   6.864
 3347TIP3   OH231599   0.502   2.509   0.342
 3347TIP3    H131600   0.508   2.534   0.435
 3347TIP3    H231601   0.420   2.459   0.337
 3348TIP3   OH231602   2.965   6.804   0.642
 3348TIP3    H131603   2.911   6.746   0.694
 3348TIP3    H231604   2.967   0.003   0.692
 3349TIP3   OH231605   6.737   6.071   1.831
 3349TIP3    H131606   6.655   6.045   1.872
 3349TIP3    H231607   6.802   6.009   1.865
 3350TIP3   OH231608   2.163   6.796   1.588
 3350TIP3    H131609   2.239   6.854   1.580
 3350TIP3    H231610   2.141   6.773   1.498
 3351TIP3   OH231611   1.894   1.725   7.892
 3351TIP3    H131612   1.927   1.688   7.974
 3351TIP3    H231613   1.865   1.649   7.842
 3352TIP3   OH231614   1.023   4.563   7.640
 3352TIP3    H131615   1.116   4.549   7.620
 3352TIP3    H231616   1.001   4.493   7.702
 3353TIP3   OH231617   3.556   4.189   7.581
 3353TIP3    H131618   3.615   4.153   7.648
 3353TIP3    H231619   3.615   4.225   7.515
 3354TIP3   OH231620   3.807   6.224   7.029
 3354TIP3    H131621   3.820   6.204   6.936
 3354TIP3    H231622   3.715   6.203   7.044
 3355TIP3   OH231623   5.493   6.032   1.263
 3355TIP3    H131624   5.566   6.062   1.318
 3355TIP3    H231625   5.492   6.095   1.190
 3356TIP3   OH231626   1.551   3.464   6.923
 3356TIP3    H131627   1.479   3.434   6.979
 3356TIP3    H231628   1.565   3.393   6.861
 3357TIP3   OH231629   5.210   2.489   7.147
 3357TIP3    H131630   5.288   2.448   7.109
 3357TIP3    H231631   5.142   2.478   7.080
 3358TIP3   OH231632   6.248   4.688   7.235
 3358TIP3    H131633   6.191   4.749   7.189
 3358TIP3    H231634   6.269   4.731   7.318
 3359TIP3   OH231635   3.527   5.082   0.569
 3359TIP3    H131636   3.557   5.143   0.502
 3359TIP3    H231637   3.435   5.106   0.583
 3360TIP3   OH231638   1.447   2.119   7.721
 3360TIP3    H131639   1.511   2.137   7.790
 3360TIP3    H231640   1.499   2.092   7.646
 3361TIP3   OH231641   6.054   0.169   7.013
 3361TIP3    H131642   6.044   0.142   6.922
 3361TIP3    H231643   5.972   0.214   7.034
 3362TIP3   OH231644   2.153   2.764   7.112
 3362TIP3    H131645   2.172   2.812   7.031
 3362TIP3    H231646   2.102   2.689   7.083
 3363TIP3   OH231647   6.454   3.339   1.207
 3363TIP3    H131648   6.395   3.293   1.266
 3363TIP3    H231649   6.400   3.406   1.165
 3364TIP3   OH231650   6.549   5.074   1.594
 3364TIP3    H131651   6.530   5.150   1.649
 3364TIP3    H231652   6.643   5.058   1.607
 3365TIP3   OH231653   3.411   1.629   1.860
 3365TIP3    H131654   3.380   1.622   1.770
 3365TIP3    H231655   3.338   1.599   1.913
 3366TIP3   OH231656   4.565   5.494   6.731
 3366TIP3    H131657   4.606   5.511   6.816
 3366TIP3    H231658   4.591   5.569   6.676
 3367TIP3   OH231659   5.082   2.233   0.688
 3367TIP3    H131660   5.064   2.289   0.764
 3367TIP3    H231661   5.006   2.245   0.632
 3368TIP3   OH231662   5.754   5.322   8.145
 3368TIP3    H131663   5.701   5.253   8.185
 3368TIP3    H231664   5.787   5.283   8.064
 3369TIP3   OH231665   1.117   2.937   7.136
 3369TIP3    H131666   1.172   2.862   7.113
 3369TIP3    H231667   1.159   3.012   7.093
 3370TIP3   OH231668   1.153   0.487   0.387
 3370TIP3    H131669   1.112   0.409   0.350
 3370TIP3    H231670   1.113   0.496   0.473
 3371TIP3   OH231671   2.891   0.675   6.970
 3371TIP3    H131672   2.796   0.664   6.969
 3371TIP3    H231673   2.924   0.604   6.915
 3372TIP3   OH231674   3.167   4.321   1.649
 3372TIP3    H131675   3.134   4.386   1.711
 3372TIP3    H231676   3.159   4.238   1.695
 3373TIP3   OH231677   6.629   0.105   0.861
 3373TIP3    H131678   6.576   0.161   0.804
 3373TIP3    H231679   6.608   0.136   0.949
 3374TIP3   OH231680   2.857   6.129   0.653
 3374TIP3    H131681   2.799   6.205   0.647
 3374TIP3    H231682   2.847   6.098   0.743
 3375TIP3   OH231683   6.193   5.698   1.526
 3375TIP3    H131684   6.148   5.622   1.564
 3375TIP3    H231685   6.267   5.661   1.478
 3376TIP3   OH231686   1.427   5.449   0.393
 3376TIP3    H131687   1.345   5.419   0.432
 3376TIP3    H231688   1.413   5.542   0.375
 3377TIP3   OH231689   5.930   2.115   2.547
 3377TIP3    H131690   5.969   2.048   2.491
 3377TIP3    H231691   5.945   2.083   2.636
 3378TIP3   OH231692   2.552   0.214   0.930
 3378TIP3    H131693   2.603   0.286   0.967
 3378TIP3    H231694   2.462   0.246   0.932
 3379TIP3   OH231695   0.765   0.244   6.292
 3379TIP3    H131696   0.815   0.187   6.233
 3379TIP3    H231697   0.687   0.194   6.314
 3380TIP3   OH231698   1.034   2.605   7.324
 3380TIP3    H131699   0.953   2.600   7.273
 3380TIP3    H231700   1.083   2.526   7.301
 3381TIP3   OH231701   2.860   1.283   1.088
 3381TIP3    H131702   2.830   1.372   1.108
 3381TIP3    H231703   2.941   1.296   1.038
 3382TIP3   OH231704   2.532   2.462   0.702
 3382TIP3    H131705   2.586   2.504   0.635
 3382TIP3    H231706   2.450   2.443   0.658
 3383TIP3   OH231707   6.423   4.265   2.242
 3383TIP3    H131708   6.456   4.351   2.217
 3383TIP3    H231709   6.403   4.221   2.160
 3384TIP3   OH231710   4.673   4.233   0.787
 3384TIP3    H131711   4.761   4.242   0.750
 3384TIP3    H231712   4.688   4.213   0.880
 3385TIP3   OH231713   5.376   3.226   1.453
 3385TIP3    H131714   5.359   3.166   1.525
 3385TIP3    H231715   5.314   3.298   1.466
 3386TIP3   OH231716   0.809   1.704   8.153
 3386TIP3    H131717   0.825   1.713   8.059
 3386TIP3    H231718   0.872   1.637   8.181
 3387TIP3   OH231719   4.127   4.300   1.404
 3387TIP3    H131720   4.146   4.298   1.498
 3387TIP3    H231721   4.182   4.230   1.368
 3388TIP3   OH231722   3.490   2.254   0.828
 3388TIP3    H131723   3.496   2.173   0.776
 3388TIP3    H231724   3.485   2.324   0.763
 3389TIP3   OH231725   4.556   5.258   6.960
 3389TIP3    H131726   4.638   5.229   6.920
 3389TIP3    H231727   4.497   5.184   6.949
 3390TIP3   OH231728   3.333   0.854   2.163
 3390TIP3    H131729   3.400   0.910   2.201
 3390TIP3    H231730   3.317   0.892   2.076
 3391TIP3   OH231731   6.022   5.161   1.999
 3391TIP3    H131732   5.932   5.165   2.029
 3391TIP3    H231733   6.069   5.225   2.053
 3392TIP3   OH231734   1.719   3.735   1.930
 3392TIP3    H131735   1.775   3.749   1.853
 3392TIP3    H231736   1.672   3.654   1.911
 3393TIP3   OH231737   1.129   2.036   0.475
 3393TIP3    H131738   1.079   1.997   0.403
 3393TIP3    H231739   1.191   1.968   0.501
 3394TIP3   OH231740   2.057   5.356   1.917
 3394TIP3    H131741   1.999   5.424   1.882
 3394TIP3    H231742   2.099   5.318   1.839
 3395TIP3   OH231743   1.623   3.875   8.181
 3395TIP3    H131744   1.660   3.932   8.249
 3395TIP3    H231745   1.545   3.921   8.150
 3396TIP3   OH231746   0.867   6.111   0.355
 3396TIP3    H131747   0.796   6.113   0.291
 3396TIP3    H231748   0.947   6.111   0.303
 3397TIP3   OH231749   0.988   3.032   2.135
 3397TIP3    H131750   1.062   3.057   2.081
 3397TIP3    H231751   0.983   2.936   2.126
 3398TIP3   OH231752   4.987   1.740   7.617
 3398TIP3    H131753   4.980   1.709   7.527
 3398TIP3    H231754   5.057   1.806   7.614
 3399TIP3   OH231755   0.907   3.205   7.067
 3399TIP3    H131756   0.879   3.129   7.117
 3399TIP3    H231757   0.954   3.168   6.992
 3400TIP3   OH231758   1.495   1.184   7.292
 3400TIP3    H131759   1.536   1.099   7.279
 3400TIP3    H231760   1.549   1.227   7.358
 3401TIP3   OH231761   3.178   1.538   6.363
 3401TIP3    H131762   3.229   1.566   6.287
 3401TIP3    H231763   3.162   1.445   6.349
 3402TIP3   OH231764   0.705   5.293   8.395
 3402TIP3    H131765   0.669   5.273   8.308
 3402TIP3    H231766   0.641   5.257   8.456
 3403TIP3   OH231767   5.024   0.666   1.517
 3403TIP3    H131768   4.929   0.680   1.515
 3403TIP3    H231769   5.061   0.743   1.474
 3404TIP3   OH231770   1.947   0.755   7.357
 3404TIP3    H131771   1.980   0.742   7.268
 3404TIP3    H231772   1.931   0.849   7.363
 3405TIP3   OH231773   0.026   3.218   6.907
 3405TIP3    H131774   0.086   3.251   6.840
 3405TIP3    H231775   0.001   3.296   6.956
 3406TIP3   OH231776   6.389   0.157   0.346
 3406TIP3    H131777   6.334   0.231   0.319
 3406TIP3    H231778   6.347   0.123   0.424
 3407TIP3   OH231779   1.150   0.522   7.079
 3407TIP3    H131780   1.079   0.460   7.059
 3407TIP3    H231781   1.135   0.547   7.170
 3408TIP3   OH231782   4.776   4.706   1.870
 3408TIP3    H131783   4.821   4.623   1.856
 3408TIP3    H231784   4.742   4.701   1.959
 3409TIP3   OH231785   4.331   6.137   1.277
 3409TIP3    H131786   4.384   6.216   1.271
 3409TIP3    H231787   4.364   6.092   1.355
 3410TIP3   OH231788   5.211   0.269   7.118
 3410TIP3    H131789   5.270   0.336   7.082
 3410TIP3    H231790   5.131   0.317   7.140
 3411TIP3   OH231791   5.449   3.868   0.179
 3411TIP3    H131792   5.475   3.921   0.255
 3411TIP3    H231793   5.373   3.819   0.210
 3412TIP3   OH231794   5.468   4.028   0.402
 3412TIP3    H131795   5.548   4.070   0.433
 3412TIP3    H231796   5.403   4.099   0.400
 3413TIP3   OH231797   6.424   6.844   7.651
 3413TIP3    H131798   6.388   6.773   7.704
 3413TIP3    H231799   6.500   6.875   7.700
 3414TIP3   OH231800   6.771   2.561   1.009
 3414TIP3    H131801   6.763   2.656   0.997
 3414TIP3    H231802   6.843   2.551   1.071
 3415TIP3   OH231803   5.875   4.687   2.046
 3415TIP3    H131804   5.931   4.619   2.084
 3415TIP3    H231805   5.936   4.747   2.003
 3416TIP3   OH231806   4.417   2.647   1.573
 3416TIP3    H131807   4.392   2.618   1.485
 3416TIP3    H231808   4.512   2.652   1.571
 3417TIP3   OH231809   1.463   5.603   0.711
 3417TIP3    H131810   1.456   5.680   0.767
 3417TIP3    H231811   1.432   5.632   0.626
 3418TIP3   OH231812   0.512   5.691   2.300
 3418TIP3    H131813   0.459   5.722   2.374
 3418TIP3    H231814   0.594   5.740   2.308
 3419TIP3   OH231815   2.462   6.194   2.105
 3419TIP3    H131816   2.370   6.193   2.079
 3419TIP3    H231817   2.489   6.102   2.101
 3420TIP3   OH231818   0.571   0.199   0.717
 3420TIP3    H131819   0.492   0.144   0.720
 3420TIP3    H231820   0.550   0.272   0.776
 3421TIP3   OH231821   3.016   3.283   8.203
 3421TIP3    H131822   3.051   3.197   8.225
 3421TIP3    H231823   3.065   3.310   8.126
 3422TIP3   OH231824   1.617   6.055   7.502
 3422TIP3    H131825   1.603   5.990   7.434
 3422TIP3    H231826   1.700   6.096   7.480
 3423TIP3   OH231827   5.473   2.370   7.704
 3423TIP3    H131828   5.490   2.388   7.797
 3423TIP3    H231829   5.441   2.453   7.669
 3424TIP3   OH231830   3.605   0.397   6.241
 3424TIP3    H131831   3.676   0.443   6.285
 3424TIP3    H231832   3.581   0.453   6.167
 3425TIP3   OH231833   3.205   2.477   6.667
 3425TIP3    H131834   3.181   2.558   6.712
 3425TIP3    H231835   3.299   2.486   6.651
 3426TIP3   OH231836   1.004   5.576   0.304
 3426TIP3    H131837   1.035   5.528   0.228
 3426TIP3    H231838   1.010   5.668   0.278
 3427TIP3   OH231839   2.164   4.825   7.604
 3427TIP3    H131840   2.119   4.848   7.523
 3427TIP3    H231841   2.242   4.777   7.575
 3428TIP3   OH231842   0.872   6.695   5.890
 3428TIP3    H131843   0.811   6.631   5.928
 3428TIP3    H231844   0.949   6.690   5.947
 3429TIP3   OH231845   6.415   1.108   7.110
 3429TIP3    H131846   6.438   1.026   7.065
 3429TIP3    H231847   6.390   1.167   7.039
 3430TIP3   OH231848   5.461   5.114   8.023
 3430TIP3    H131849   5.509   5.049   7.971
 3430TIP3    H231850   5.471   5.084   8.113
 3431TIP3   OH231851   3.852   2.172   0.951
 3431TIP3    H131852   3.898   2.110   0.894
 3431TIP3    H231853   3.858   2.256   0.906
 3432TIP3   OH231854   2.604   0.053   7.077
 3432TIP3    H131855   2.681   6.880   7.063
 3432TIP3    H231856   2.531   6.874   7.084
 3433TIP3   OH231857   2.554   4.306   8.422
 3433TIP3    H131858   2.533   4.273   8.509
 3433TIP3    H231859   2.537   4.400   8.426
 3434TIP3   OH231860   5.938   2.958   7.799
 3434TIP3    H131861   5.935   3.051   7.824
 3434TIP3    H231862   5.887   2.914   7.866
 3435TIP3   OH231863   4.102   6.174   7.463
 3435TIP3    H131864   4.039   6.128   7.406
 3435TIP3    H231865   4.186   6.135   7.441
 3436TIP3   OH231866   0.034   5.261   0.455
 3436TIP3    H131867   6.850   5.291   0.517
 3436TIP3    H231868   0.047   5.169   0.476
 3437TIP3   OH231869   2.049   0.205   0.214
 3437TIP3    H131870   2.075   0.251   0.135
 3437TIP3    H231871   1.963   0.168   0.194
 3438TIP3   OH231872   3.136   3.976   0.638
 3438TIP3    H131873   3.210   4.022   0.600
 3438TIP3    H231874   3.164   3.885   0.645
 3439TIP3   OH231875   5.200   3.845   7.218
 3439TIP3    H131876   5.263   3.852   7.290
 3439TIP3    H231877   5.222   3.919   7.160
 3440TIP3   OH231878   0.813   3.261   0.756
 3440TIP3    H131879   0.743   3.225   0.701
 3440TIP3    H231880   0.820   3.352   0.728
 3441TIP3   OH231881   1.282   5.663   0.221
 3441TIP3    H131882   1.359   5.682   0.168
 3441TIP3    H231883   1.232   5.601   0.169
 3442TIP3   OH231884   1.911   4.164   1.560
 3442TIP3    H131885   1.980   4.230   1.563
 3442TIP3    H231886   1.937   4.104   1.490
 3443TIP3   OH231887   3.867   0.659   7.836
 3443TIP3    H131888   3.952   0.692   7.866
 3443TIP3    H231889   3.877   0.563   7.838
 3444TIP3   OH231890   2.777   4.046   0.911
 3444TIP3    H131891   2.866   4.009   0.908
 3444TIP3    H231892   2.721   3.970   0.928
 3445TIP3   OH231893   3.789   3.107   6.933
 3445TIP3    H131894   3.759   3.182   6.882
 3445TIP3    H231895   3.755   3.124   7.021
 3446TIP3   OH231896   2.553   5.249   7.673
 3446TIP3    H131897   2.542   5.229   7.580
 3446TIP3    H231898   2.646   5.236   7.690
 3447TIP3   OH231899   5.304   1.451   6.877
 3447TIP3    H131900   5.230   1.410   6.922
 3447TIP3    H231901   5.345   1.379   6.828
 3448TIP3   OH231902   0.732   2.555   1.829
 3448TIP3    H131903   0.793   2.545   1.902
 3448TIP3    H231904   0.678   2.475   1.831
 3449TIP3   OH231905   4.826   2.108   8.083
 3449TIP3    H131906   4.877   2.053   8.023
 3449TIP3    H231907   4.789   2.045   8.145
 3450TIP3   OH231908   5.315   5.010   1.062
 3450TIP3    H131909   5.236   4.982   1.109
 3450TIP3    H231910   5.374   4.935   1.069
 3451TIP3   OH231911   6.657   0.945   0.190
 3451TIP3    H131912   6.737   0.918   0.234
 3451TIP3    H231913   6.610   0.863   0.173
 3452TIP3   OH231914   0.651   4.943   0.039
 3452TIP3    H131915   0.586   5.005   0.007
 3452TIP3    H231916   0.666   4.969   0.130
 3453TIP3   OH231917   2.918   5.357   1.362
 3453TIP3    H131918   2.922   5.349   1.267
 3453TIP3    H231919   2.961   5.277   1.395
 3454TIP3   OH231920   4.308   0.646   6.379
 3454TIP3    H131921   4.304   0.705   6.304
 3454TIP3    H231922   4.217   0.621   6.395
 3455TIP3   OH231923   3.211   0.681   0.555
 3455TIP3    H131924   3.128   0.641   0.579
 3455TIP3    H231925   3.187   0.753   0.496
 3456TIP3   OH231926   1.487   5.968   6.100
 3456TIP3    H131927   1.464   5.916   6.177
 3456TIP3    H231928   1.448   5.920   6.026
 3457TIP3   OH231929   5.783   5.939   8.216
 3457TIP3    H131930   5.802   6.021   8.261
 3457TIP3    H231931   5.869   5.908   8.186
 3458TIP3   OH231932   1.088   5.915   1.997
 3458TIP3    H131933   1.137   5.937   1.918
 3458TIP3    H231934   1.010   5.971   1.994
 3459TIP3   OH231935   2.439   4.426   1.593
 3459TIP3    H131936   2.470   4.376   1.669
 3459TIP3    H231937   2.507   4.413   1.527
 3460TIP3   OH231938   1.446   6.194   7.644
 3460TIP3    H131939   1.498   6.133   7.592
 3460TIP3    H231940   1.467   6.280   7.608
 3461TIP3   OH231941   5.434   3.850   8.081
 3461TIP3    H131942   5.368   3.843   8.013
 3461TIP3    H231943   5.386   3.836   8.163
 3462TIP3   OH231944   0.173   0.851   0.872
 3462TIP3    H131945   0.156   0.878   0.962
 3462TIP3    H231946   0.191   0.933   0.825
 3463TIP3   OH231947   4.756   2.110   0.239
 3463TIP3    H131948   4.721   2.199   0.243
 3463TIP3    H231949   4.706   2.068   0.169
 3464TIP3   OH231950   4.684   6.796   7.847
 3464TIP3    H131951   4.624   6.795   7.921
 3464TIP3    H231952   4.632   6.826   7.773
 3465TIP3   OH231953   4.689   1.209   1.735
 3465TIP3    H131954   4.783   1.197   1.751
 3465TIP3    H231955   4.647   1.175   1.814
 3466TIP3   OH231956   4.491   5.782   1.755
 3466TIP3    H131957   4.527   5.693   1.762
 3466TIP3    H231958   4.495   5.815   1.845
 3467TIP3   OH231959   3.999   1.485   7.053
 3467TIP3    H131960   3.996   1.396   7.088
 3467TIP3    H231961   3.975   1.541   7.127
 3468TIP3   OH231962   2.970   4.322   6.895
 3468TIP3    H131963   2.992   4.371   6.816
 3468TIP3    H231964   2.901   4.373   6.936
 3469TIP3   OH231965   5.025   5.224   8.049
 3469TIP3    H131966   5.070   5.308   8.054
 3469TIP3    H231967   4.939   5.242   8.088
 3470TIP3   OH231968   2.439   5.970   7.218
 3470TIP3    H131969   2.516   5.966   7.274
 3470TIP3    H231970   2.474   5.984   7.130
 3471TIP3   OH231971   1.303   5.681   7.382
 3471TIP3    H131972   1.396   5.658   7.390
 3471TIP3    H231973   1.289   5.747   7.450
 3472TIP3   OH231974   1.332   4.465   8.084
 3472TIP3    H131975   1.259   4.507   8.038
 3472TIP3    H231976   1.305   4.461   8.175
 3473TIP3   OH231977   2.776   1.552   1.124
 3473TIP3    H131978   2.718   1.604   1.179
 3473TIP3    H231979   2.741   1.564   1.035
 3474TIP3   OH231980   0.855   5.704   8.282
 3474TIP3    H131981   0.838   5.797   8.299
 3474TIP3    H231982   0.907   5.704   8.202
 3475TIP3   OH231983   2.324   5.054   6.910
 3475TIP3    H131984   2.285   5.040   6.996
 3475TIP3    H231985   2.336   5.149   6.904
 3476TIP3   OH231986   1.442   3.345   6.439
 3476TIP3    H131987   1.453   3.377   6.349
 3476TIP3    H231988   1.508   3.277   6.448
 3477TIP3   OH231989   5.576   4.714   7.598
 3477TIP3    H131990   5.532   4.629   7.601
 3477TIP3    H231991   5.529   4.768   7.660
 3478TIP3   OH231992   0.948   6.786   6.783
 3478TIP3    H131993   0.961   6.809   6.691
 3478TIP3    H231994   1.022   6.825   6.829
 3479TIP3   OH231995   3.668   6.005   7.487
 3479TIP3    H131996   3.641   6.089   7.523
 3479TIP3    H231997   3.759   5.994   7.514
 3480TIP3   OH231998   6.313   1.447   7.117
 3480TIP3    H131999   6.275   1.420   7.200
 3480TIP3    H232000   6.317   1.368   7.064
 3481TIP3   OH232001   5.726   5.897   2.661
 3481TIP3    H132002   5.769   5.941   2.587
 3481TIP3    H232003   5.693   5.968   2.715
 3482TIP3   OH232004   0.834   3.168   2.320
 3482TIP3    H132005   0.899   3.227   2.359
 3482TIP3    H232006   0.884   3.113   2.260
 3483TIP3   OH232007   1.917   2.569   1.122
 3483TIP3    H132008   1.997   2.523   1.097
 3483TIP3    H232009   1.945   2.628   1.193
 3484TIP3   OH232010   0.328   1.186   0.106
 3484TIP3    H132011   0.387   1.208   0.178
 3484TIP3    H232012   0.293   1.100   0.129
 3485TIP3   OH232013   2.181   0.494   6.812
 3485TIP3    H132014   2.231   0.572   6.788
 3485TIP3    H232015   2.093   0.509   6.776
 3486TIP3   OH232016   0.864   3.610   8.343
 3486TIP3    H132017   0.932   3.677   8.349
 3486TIP3    H232018   0.908   3.528   8.364
 3487TIP3   OH232019   5.976   4.566   0.818
 3487TIP3    H132020   6.015   4.506   0.882
 3487TIP3    H232021   5.919   4.622   0.870
 3488TIP3   OH232022   4.775   5.013   7.113
 3488TIP3    H132023   4.777   5.097   7.158
 3488TIP3    H232024   4.791   5.034   7.021
 3489TIP3   OH232025   4.291   3.108   2.306
 3489TIP3    H132026   4.385   3.103   2.293
 3489TIP3    H232027   4.280   3.112   2.401
 3490TIP3   OH232028   1.011   2.878   8.611
 3490TIP3    H132029   1.051   2.812   0.036
 3490TIP3    H232030   0.965   2.937   0.040
 3491TIP3   OH232031   1.314   1.212   7.954
 3491TIP3    H132032   1.263   1.143   7.995
 3491TIP3    H232033   1.250   1.279   7.929
 3492TIP3   OH232034   2.890   2.002   1.275
 3492TIP3    H132035   2.800   1.990   1.304
 3492TIP3    H232036   2.936   1.925   1.308
 3493TIP3   OH232037   2.857   2.139   1.014
 3493TIP3    H132038   2.885   2.110   1.101
 3493TIP3    H232039   2.930   2.193   0.982
 3494TIP3   OH232040   2.086   2.968   1.505
 3494TIP3    H132041   2.055   2.989   1.593
 3494TIP3    H232042   2.015   2.997   1.447
 3495TIP3   OH232043   5.942   6.823   8.440
 3495TIP3    H132044   5.962   6.820   8.346
 3495TIP3    H232045   6.025   6.845   8.482
 3496TIP3   OH232046   6.810   6.258   7.116
 3496TIP3    H132047   6.762   6.180   7.144
 3496TIP3    H232048   6.765   6.330   7.159
 3497TIP3   OH232049   4.642   6.426   7.349
 3497TIP3    H132050   4.692   6.508   7.345
 3497TIP3    H232051   4.552   6.455   7.366
 3498TIP3   OH232052   6.388   5.032   2.063
 3498TIP3    H132053   6.382   4.966   1.995
 3498TIP3    H232054   6.300   5.040   2.098
 3499TIP3   OH232055   3.314   6.717   8.077
 3499TIP3    H132056   3.315   6.633   8.031
 3499TIP3    H232057   3.362   6.702   8.158
 3500TIP3   OH232058   4.458   1.143   6.780
 3500TIP3    H132059   4.438   1.145   6.686
 3500TIP3    H232060   4.504   1.225   6.796
 3501TIP3   OH232061   5.545   6.206   1.871
 3501TIP3    H132062   5.508   6.278   1.819
 3501TIP3    H232063   5.492   6.202   1.950
 3502TIP3   OH232064   3.571   2.723   6.852
 3502TIP3    H132065   3.517   2.644   6.858
 3502TIP3    H232066   3.576   2.755   6.942
 3503TIP3   OH232067   1.659   3.039   1.910
 3503TIP3    H132068   1.603   2.975   1.866
 3503TIP3    H232069   1.603   3.116   1.922
 3504TIP3   OH232070   6.856   3.430   7.514
 3504TIP3    H132071   6.873   3.518   7.548
 3504TIP3    H232072   6.844   3.442   7.420
 3505TIP3   OH232073   6.646   5.000   0.539
 3505TIP3    H132074   6.611   5.082   0.506
 3505TIP3    H232075   6.571   4.956   0.579
 3506TIP3   OH232076   0.218   3.227   0.359
 3506TIP3    H132077   0.224   3.152   0.301
 3506TIP3    H232078   0.308   3.254   0.374
 3507TIP3   OH232079   5.900   5.421   1.511
 3507TIP3    H132080   5.938   5.399   1.425
 3507TIP3    H232081   5.865   5.338   1.543
 3508TIP3   OH232082   5.570   1.887   2.067
 3508TIP3    H132083   5.494   1.874   2.124
 3508TIP3    H232084   5.641   1.841   2.112
 3509TIP3   OH232085   1.743   1.460   0.975
 3509TIP3    H132086   1.811   1.516   1.013
 3509TIP3    H232087   1.716   1.403   1.047
 3510TIP3   OH232088   4.511   2.683   1.912
 3510TIP3    H132089   4.528   2.717   1.824
 3510TIP3    H232090   4.483   2.760   1.962
 3511TIP3   OH232091   4.966   3.551   1.360
 3511TIP3    H132092   5.038   3.489   1.351
 3511TIP3    H232093   5.006   3.629   1.399
 3512TIP3   OH232094   1.050   1.919   0.918
 3512TIP3    H132095   1.072   1.987   0.854
 3512TIP3    H232096   1.107   1.845   0.894
 3513TIP3   OH232097   1.224   1.811   7.076
 3513TIP3    H132098   1.298   1.774   7.027
 3513TIP3    H232099   1.258   1.891   7.115
 3514TIP3   OH232100   1.771   1.078   7.992
 3514TIP3    H132101   1.726   1.132   7.927
 3514TIP3    H232102   1.705   1.062   8.059
 3515TIP3   OH232103   1.947   0.149   7.288
 3515TIP3    H132104   1.898   0.102   7.220
 3515TIP3    H232105   1.983   0.226   7.243
 3516TIP3   OH232106   0.346   2.656   7.035
 3516TIP3    H132107   0.438   2.671   7.014
 3516TIP3    H232108   0.303   2.644   6.951
 3517TIP3   OH232109   1.972   1.046   7.354
 3517TIP3    H132110   1.956   1.058   7.448
 3517TIP3    H232111   2.066   1.058   7.344
 3518TIP3   OH232112   0.275   0.385   0.034
 3518TIP3    H132113   0.236   0.298   0.044
 3518TIP3    H232114   0.304   0.389   8.574
 3519TIP3   OH232115   4.830   2.283   7.368
 3519TIP3    H132116   4.852   2.347   7.299
 3519TIP3    H232117   4.750   2.317   7.407
 3520TIP3   OH232118   4.434   4.959   6.984
 3520TIP3    H132119   4.469   4.965   6.895
 3520TIP3    H232120   4.340   4.973   6.974
 3521TIP3   OH232121   4.797   3.089   7.696
 3521TIP3    H132122   4.741   3.056   7.626
 3521TIP3    H232123   4.803   3.183   7.680
 3522TIP3   OH232124   5.931   2.354   2.390
 3522TIP3    H132125   5.916   2.262   2.410
 3522TIP3    H232126   5.959   2.392   2.472
 3523TIP3   OH232127   3.775   2.671   8.381
 3523TIP3    H132128   3.762   2.756   8.341
 3523TIP3    H232129   3.774   2.609   8.308
 3524TIP3   OH232130   5.596   4.950   7.876
 3524TIP3    H132131   5.689   4.967   7.858
 3524TIP3    H232132   5.596   4.872   7.932
 3525TIP3   OH232133   0.002   4.631   6.603
 3525TIP3    H132134   6.873   4.689   6.528
 3525TIP3    H232135   6.829   4.668   6.672
 3526TIP3   OH232136   1.738   0.285   0.443
 3526TIP3    H132137   1.825   0.325   0.440
 3526TIP3    H232138   1.684   0.341   0.387
 3527TIP3   OH232139   6.815   6.327   8.375
 3527TIP3    H132140   6.857   6.259   8.427
 3527TIP3    H232141   6.820   6.295   8.285
 3528TIP3   OH232142   6.207   0.928   8.044
 3528TIP3    H132143   6.231   0.939   8.136
 3528TIP3    H232144   6.291   0.926   7.998
 3529TIP3   OH232145   5.661   3.108   8.037
 3529TIP3    H132146   5.697   3.162   7.968
 3529TIP3    H232147   5.736   3.059   8.072
 3530TIP3   OH232148   1.548   1.715   7.533
 3530TIP3    H132149   1.485   1.681   7.597
 3530TIP3    H232150   1.634   1.693   7.569
 3531TIP3   OH232151   4.860   2.212   0.545
 3531TIP3    H132152   4.785   2.229   0.602
 3531TIP3    H232153   4.822   2.173   0.466
 3532TIP3   OH232154   2.619   3.296   1.010
 3532TIP3    H132155   2.668   3.278   0.930
 3532TIP3    H232156   2.686   3.324   1.073
 3533TIP3   OH232157   6.776   6.856   8.475
 3533TIP3    H132158   6.757   0.067   8.471
 3533TIP3    H232159   6.707   6.819   8.529
 3534TIP3   OH232160   1.161   1.752   0.170
 3534TIP3    H132161   1.089   1.792   0.122
 3534TIP3    H232162   1.221   1.825   0.187
 3535TIP3   OH232163   1.302   2.728   7.040
 3535TIP3    H132164   1.328   2.639   7.066
 3535TIP3    H232165   1.376   2.761   6.989
 3536TIP3   OH232166   0.246   2.357   8.238
 3536TIP3    H132167   0.222   2.284   8.295
 3536TIP3    H232168   0.233   2.324   8.150
 3537TIP3   OH232169   3.024   5.940   8.484
 3537TIP3    H132170   3.072   5.982   8.555
 3537TIP3    H232171   3.082   5.947   8.408
 3538TIP3   OH232172   4.783   3.167   0.479
 3538TIP3    H132173   4.726   3.220   0.536
 3538TIP3    H232174   4.797   3.222   0.402
 3539TIP3   OH232175   6.631   0.869   8.182
 3539TIP3    H132176   6.693   0.857   8.254
 3539TIP3    H232177   6.633   0.962   8.163
 3540TIP3   OH232178   4.209   4.705   8.191
 3540TIP3    H132179   4.253   4.710   8.106
 3540TIP3    H232180   4.250   4.630   8.234
 3541TIP3   OH232181   4.176   0.748   1.862
 3541TIP3    H132182   4.227   0.767   1.940
 3541TIP3    H232183   4.241   0.726   1.795
 3542TIP3   OH232184   0.099   3.710   8.261
 3542TIP3    H132185   0.055   3.727   8.178
 3542TIP3    H232186   0.063   3.627   8.291
 3543TIP3   OH232187   5.148   4.033   1.591
 3543TIP3    H132188   5.138   4.086   1.670
 3543TIP3    H232189   5.241   4.009   1.590
 3544TIP3   OH232190   4.719   0.654   0.137
 3544TIP3    H132191   4.799   0.660   0.189
 3544TIP3    H232192   4.714   0.561   0.112
 3545TIP3   OH232193   2.153   5.771   1.286
 3545TIP3    H132194   2.150   5.751   1.192
 3545TIP3    H232195   2.182   5.689   1.327
 3546TIP3   OH232196   1.521   3.415   6.182
 3546TIP3    H132197   1.578   3.490   6.166
 3546TIP3    H232198   1.552   3.348   6.121
 3547TIP3   OH232199   0.861   2.306   6.308
 3547TIP3    H132200   0.836   2.236   6.249
 3547TIP3    H232201   0.931   2.269   6.362
 3548TIP3   OH232202   3.236   2.297   0.421
 3548TIP3    H132203   3.292   2.275   0.346
 3548TIP3    H232204   3.296   2.336   0.485
 3549TIP3   OH232205   1.159   6.851   1.016
 3549TIP3    H132206   1.141   6.851   1.110
 3549TIP3    H232207   1.141   6.761   0.988
 3550TIP3   OH232208   5.977   6.050   7.203
 3550TIP3    H132209   6.022   6.067   7.285
 3550TIP3    H232210   6.002   6.123   7.146
 3551TIP3   OH232211   1.936   4.303   0.391
 3551TIP3    H132212   1.865   4.285   0.329
 3551TIP3    H232213   2.015   4.304   0.338
 3552TIP3   OH232214   4.681   6.225   2.257
 3552TIP3    H132215   4.679   6.146   2.204
 3552TIP3    H232216   4.665   6.296   2.195
 3553TIP3   OH232217   4.451   3.027   7.154
 3553TIP3    H132218   4.459   2.937   7.122
 3553TIP3    H232219   4.391   3.020   7.229
 3554TIP3   OH232220   0.669   5.431   6.175
 3554TIP3    H132221   0.715   5.403   6.096
 3554TIP3    H232222   0.671   5.527   6.170
 3555TIP3   OH232223   3.314   5.291   7.481
 3555TIP3    H132224   3.397   5.278   7.526
 3555TIP3    H232225   3.248   5.271   7.547
 3556TIP3   OH232226   3.934   6.748   1.783
 3556TIP3    H132227   4.008   6.696   1.816
 3556TIP3    H232228   3.929   6.823   1.842
 3557TIP3   OH232229   0.196   6.082   8.321
 3557TIP3    H132230   0.212   5.994   8.287
 3557TIP3    H232231   0.267   6.135   8.287
 3558TIP3   OH232232   2.512   1.149   6.692
 3558TIP3    H132233   2.484   1.186   6.776
 3558TIP3    H232234   2.549   1.223   6.644
 3559TIP3   OH232235   2.943   4.770   1.033
 3559TIP3    H132236   2.901   4.850   1.063
 3559TIP3    H232237   2.992   4.738   1.109
 3560TIP3   OH232238   6.320   6.563   8.368
 3560TIP3    H132239   6.276   6.570   8.283
 3560TIP3    H232240   6.356   6.650   8.384
 3561TIP3   OH232241   3.643   0.523   8.125
 3561TIP3    H132242   3.588   0.594   8.090
 3561TIP3    H232243   3.606   0.504   8.211
 3562TIP3   OH232244   0.368   0.976   7.153
 3562TIP3    H132245   0.316   1.036   7.207
 3562TIP3    H232246   0.436   1.032   7.114
 3563TIP3   OH232247   4.131   2.830   1.953
 3563TIP3    H132248   4.045   2.866   1.931
 3563TIP3    H232249   4.117   2.736   1.957
 3564TIP3   OH232250   1.225   1.913   1.418
 3564TIP3    H132251   1.298   1.965   1.451
 3564TIP3    H232252   1.250   1.822   1.434
 3565TIP3   OH232253   1.880   5.984   0.854
 3565TIP3    H132254   1.926   5.940   0.783
 3565TIP3    H232255   1.852   6.068   0.817
 3566TIP3   OH232256   4.893   1.730   7.952
 3566TIP3    H132257   4.818   1.686   7.910
 3566TIP3    H232258   4.898   1.815   7.908
 3567TIP3   OH232259   6.126   6.628   7.744
 3567TIP3    H132260   6.150   6.710   7.788
 3567TIP3    H232261   6.207   6.577   7.741
 3568TIP3   OH232262   0.874   4.106   6.434
 3568TIP3    H132263   0.958   4.106   6.387
 3568TIP3    H232264   0.866   4.016   6.467
 3569TIP3   OH232265   2.107   0.266   1.502
 3569TIP3    H132266   2.061   0.289   1.583
 3569TIP3    H232267   2.185   0.219   1.532
 3570TIP3   OH232268   1.544   3.116   1.176
 3570TIP3    H132269   1.532   3.179   1.247
 3570TIP3    H232270   1.616   3.061   1.205
 3571TIP3   OH232271   1.622   0.762   2.522
 3571TIP3    H132272   1.577   0.825   2.578
 3571TIP3    H232273   1.581   0.772   2.437
 3572TIP3   OH232274   3.225   6.690   6.877
 3572TIP3    H132275   3.139   6.651   6.889
 3572TIP3    H232276   3.257   6.705   6.966
 3573TIP3   OH232277   1.924   0.045   1.768
 3573TIP3    H132278   1.930   6.872   1.690
 3573TIP3    H232279   2.014   0.052   1.800
 3574TIP3   OH232280   5.537   6.365   0.130
 3574TIP3    H132281   5.589   6.313   0.069
 3574TIP3    H232282   5.572   6.454   0.122
 3575TIP3   OH232283   6.541   6.198   7.943
 3575TIP3    H132284   6.548   6.279   7.893
 3575TIP3    H232285   6.497   6.225   8.025
 3576TIP3   OH232286   3.267   0.942   7.195
 3576TIP3    H132287   3.224   0.861   7.221
 3576TIP3    H232288   3.309   0.920   7.112
 3577TIP3   OH232289   4.333   4.637   7.677
 3577TIP3    H132290   4.271   4.694   7.631
 3577TIP3    H232291   4.403   4.622   7.613
 3578TIP3   OH232292   6.714   5.857   0.828
 3578TIP3    H132293   6.632   5.812   0.847
 3578TIP3    H232294   6.711   5.875   0.734
 3579TIP3   OH232295   4.120   4.611   2.450
 3579TIP3    H132296   4.116   4.612   2.546
 3579TIP3    H232297   4.191   4.550   2.431
 3580TIP3   OH232298   4.218   5.303   6.382
 3580TIP3    H132299   4.285   5.345   6.328
 3580TIP3    H232300   4.136   5.347   6.358
 3581TIP3   OH232301   5.587   3.325   1.027
 3581TIP3    H132302   5.667   3.318   1.079
 3581TIP3    H232303   5.591   3.251   0.966
 3582TIP3   OH232304   0.897   0.815   7.286
 3582TIP3    H132305   0.979   0.855   7.255
 3582TIP3    H232306   0.828   0.865   7.242
 3583TIP3   OH232307   0.455   5.042   8.103
 3583TIP3    H132308   0.364   5.045   8.130
 3583TIP3    H232309   0.451   5.039   8.007
 3584TIP3   OH232310   2.759   0.060   1.263
 3584TIP3    H132311   2.681   0.113   1.278
 3584TIP3    H232312   2.746   6.865   1.318
 3585TIP3   OH232313   2.183   5.558   7.294
 3585TIP3    H132314   2.102   5.608   7.284
 3585TIP3    H232315   2.252   5.625   7.302
 3586TIP3   OH232316   1.346   5.790   8.100
 3586TIP3    H132317   1.384   5.857   8.155
 3586TIP3    H232318   1.415   5.724   8.090
 3587TIP3   OH232319   1.277   4.905   7.692
 3587TIP3    H132320   1.245   4.875   7.777
 3587TIP3    H232321   1.305   4.826   7.647
 3588TIP3   OH232322   3.522   1.732   5.989
 3588TIP3    H132323   3.577   1.752   5.914
 3588TIP3    H232324   3.543   1.801   6.053
 3589TIP3   OH232325   0.951   6.161   7.578
 3589TIP3    H132326   0.966   6.214   7.500
 3589TIP3    H232327   0.857   6.142   7.576
 3590TIP3   OH232328   2.000   2.256   0.038
 3590TIP3    H132329   1.938   2.252   8.597
 3590TIP3    H232330   2.081   2.218   0.003
 3591TIP3   OH232331   5.641   4.499   7.241
 3591TIP3    H132332   5.649   4.405   7.222
 3591TIP3    H232333   5.550   4.510   7.269
 3592TIP3   OH232334   4.465   1.213   6.513
 3592TIP3    H132335   4.514   1.155   6.454
 3592TIP3    H232336   4.422   1.276   6.454
 3593TIP3   OH232337   1.399   2.045   0.802
 3593TIP3    H132338   1.347   1.967   0.783
 3593TIP3    H232339   1.417   2.084   0.716
 3594TIP3   OH232340   5.445   4.243   2.007
 3594TIP3    H132341   5.493   4.323   1.982
 3594TIP3    H232342   5.496   4.207   2.080
 3595TIP3   OH232343   3.831   1.448   2.283
 3595TIP3    H132344   3.864   1.470   2.370
 3595TIP3    H232345   3.907   1.458   2.226
 3596TIP3   OH232346   1.831   6.019   8.430
 3596TIP3    H132347   1.897   6.027   8.361
 3596TIP3    H232348   1.762   6.079   8.405
 3597TIP3   OH232349   1.388   1.597   7.283
 3597TIP3    H132350   1.350   1.538   7.217
 3597TIP3    H232351   1.351   1.567   7.366
 3598TIP3   OH232352   1.645   2.773   1.639
 3598TIP3    H132353   1.602   2.768   1.724
 3598TIP3    H232354   1.615   2.856   1.602
 3599TIP3   OH232355   0.839   5.255   7.926
 3599TIP3    H132356   0.824   5.168   7.889
 3599TIP3    H232357   0.906   5.294   7.870
 3600TIP3   OH232358   1.240   1.397   0.842
 3600TIP3    H132359   1.327   1.437   0.837
 3600TIP3    H232360   1.238   1.336   0.768
 3601TIP3   OH232361   2.179   0.622   0.007
 3601TIP3    H132362   2.112   0.679   8.599
 3601TIP3    H232363   2.257   0.638   8.586
 3602TIP3   OH232364   4.997   4.325   7.864
 3602TIP3    H132365   5.044   4.307   7.945
 3602TIP3    H232366   4.994   4.421   7.858
 3603TIP3   OH232367   2.046   2.117   6.987
 3603TIP3    H132368   2.057   2.138   6.894
 3603TIP3    H232369   2.093   2.186   7.033
 3604TIP3   OH232370   4.666   3.758   8.178
 3604TIP3    H132371   4.733   3.812   8.220
 3604TIP3    H232372   4.632   3.703   8.249
 3605TIP3   OH232373   5.486   3.338   1.853
 3605TIP3    H132374   5.554   3.316   1.788
 3605TIP3    H232375   5.414   3.372   1.800
 3606TIP3   OH232376   2.483   3.313   7.986
 3606TIP3    H132377   2.471   3.253   7.912
 3606TIP3    H232378   2.546   3.269   8.043
 3607TIP3   OH232379   0.674   1.169   0.669
 3607TIP3    H132380   0.598   1.112   0.658
 3607TIP3    H232381   0.720   1.164   0.585
 3608TIP3   OH232382   4.381   0.224   1.510
 3608TIP3    H132383   4.420   0.310   1.499
 3608TIP3    H232384   4.419   0.171   1.440
 3609TIP3   OH232385   0.813   2.112   0.604
 3609TIP3    H132386   0.738   2.056   0.625
 3609TIP3    H232387   0.816   2.113   0.509
 3610TIP3   OH232388   5.071   2.754   8.264
 3610TIP3    H132389   5.036   2.680   8.313
 3610TIP3    H232390   5.024   2.751   8.181
 3611TIP3   OH232391   3.235   0.216   8.047
 3611TIP3    H132392   3.212   0.238   8.137
 3611TIP3    H232393   3.328   0.196   8.049
 3612TIP3   OH232394   2.553   2.688   0.864
 3612TIP3    H132395   2.647   2.676   0.879
 3612TIP3    H232396   2.520   2.601   0.843
 3613TIP3   OH232397   2.829   4.218   7.693
 3613TIP3    H132398   2.820   4.235   7.599
 3613TIP3    H232399   2.877   4.135   7.698
 3614TIP3   OH232400   1.578   5.609   7.350
 3614TIP3    H132401   1.654   5.660   7.377
 3614TIP3    H232402   1.554   5.558   7.427
 3615TIP3   OH232403   4.085   2.987   7.546
 3615TIP3    H132404   4.107   2.976   7.638
 3615TIP3    H232405   4.119   3.074   7.524
 3616TIP3   OH232406   5.347   1.941   6.713
 3616TIP3    H132407   5.311   1.884   6.645
 3616TIP3    H232408   5.273   1.958   6.772
 3617TIP3   OH232409   5.058   6.820   6.209
 3617TIP3    H132410   4.987   6.870   6.250
 3617TIP3    H232411   5.104   0.002   6.156
 3618TIP3   OH232412   0.816   2.293   1.503
 3618TIP3    H132413   0.754   2.366   1.498
 3618TIP3    H232414   0.826   2.276   1.597
 3619TIP3   OH232415   2.598   1.806   8.332
 3619TIP3    H132416   2.624   1.720   8.298
 3619TIP3    H232417   2.662   1.867   8.294
 3620TIP3   OH232418   2.619   5.787   7.967
 3620TIP3    H132419   2.582   5.827   7.888
 3620TIP3    H232420   2.569   5.826   8.039
 3621TIP3   OH232421   4.875   4.844   7.682
 3621TIP3    H132422   4.893   4.878   7.595
 3621TIP3    H232423   4.853   4.922   7.734
 3622TIP3   OH232424   2.532   6.173   2.636
 3622TIP3    H132425   2.582   6.140   2.562
 3622TIP3    H232426   2.452   6.120   2.636
 3623TIP3   OH232427   4.678   1.492   0.796
 3623TIP3    H132428   4.664   1.408   0.839
 3623TIP3    H232429   4.769   1.490   0.768
 3624TIP3   OH232430   0.295   0.006   1.036
 3624TIP3    H132431   0.205   0.010   1.002
 3624TIP3    H232432   0.337   6.821   0.983
 3625TIP3   OH232433   5.193   4.502   8.427
 3625TIP3    H132434   5.210   4.521   8.335
 3625TIP3    H232435   5.191   4.587   8.470
 3626TIP3   OH232436   4.631   0.917   2.569
 3626TIP3    H132437   4.570   0.850   2.600
 3626TIP3    H232438   4.592   0.949   2.488
 3627TIP3   OH232439   1.307   2.510   8.244
 3627TIP3    H132440   1.292   2.417   8.261
 3627TIP3    H232441   1.286   2.554   8.327
 3628TIP3   OH232442   5.741   3.021   0.742
 3628TIP3    H132443   5.825   3.066   0.733
 3628TIP3    H232444   5.703   3.056   0.822
 3629TIP3   OH232445   4.294   1.426   0.349
 3629TIP3    H132446   4.381   1.408   0.384
 3629TIP3    H232447   4.311   1.469   0.264
 3630TIP3   OH232448   5.972   5.537   6.248
 3630TIP3    H132449   5.883   5.504   6.264
 3630TIP3    H232450   6.029   5.464   6.271
 3631TIP3   OH232451   4.170   4.634   0.020
 3631TIP3    H132452   4.198   4.543   0.017
 3631TIP3    H232453   4.232   4.677   0.079
 3632TIP3   OH232454   3.575   6.618   2.265
 3632TIP3    H132455   3.579   6.657   2.178
 3632TIP3    H232456   3.639   6.548   2.264
 3633TIP3   OH232457   1.770   1.387   0.692
 3633TIP3    H132458   1.756   1.378   0.787
 3633TIP3    H232459   1.759   1.481   0.676
 3634TIP3   OH232460   1.345   4.607   8.531
 3634TIP3    H132461   1.299   4.621   8.614
 3634TIP3    H232462   1.437   4.602   8.555
 3635TIP3   OH232463   4.763   6.641   1.905
 3635TIP3    H132464   4.774   6.724   1.951
 3635TIP3    H232465   4.847   6.596   1.917
 3636TIP3   OH232466   4.830   6.110   0.482
 3636TIP3    H132467   4.924   6.106   0.501
 3636TIP3    H232468   4.825   6.113   0.387
 3637TIP3   OH232469   3.608   1.213   0.466
 3637TIP3    H132470   3.670   1.269   0.514
 3637TIP3    H232471   3.537   1.273   0.441
 3638TIP3   OH232472   1.269   0.908   2.367
 3638TIP3    H132473   1.255   0.915   2.272
 3638TIP3    H232474   1.182   0.923   2.405
 3639TIP3   OH232475   3.638   5.281   7.327
 3639TIP3    H132476   3.554   5.316   7.297
 3639TIP3    H232477   3.699   5.355   7.320
 3640TIP3   OH232478   0.759   4.810   0.561
 3640TIP3    H132479   0.750   4.721   0.527
 3640TIP3    H232480   0.706   4.812   0.640
 3641TIP3   OH232481   3.550   2.681   7.552
 3641TIP3    H132482   3.580   2.724   7.472
 3641TIP3    H232483   3.619   2.699   7.616
 3642TIP3   OH232484   2.080   1.998   7.980
 3642TIP3    H132485   1.987   2.002   7.958
 3642TIP3    H232486   2.124   2.050   7.913
 3643TIP3   OH232487   6.388   4.487   6.763
 3643TIP3    H132488   6.357   4.541   6.690
 3643TIP3    H232489   6.338   4.518   6.839
 3644TIP3   OH232490   4.927   6.658   7.954
 3644TIP3    H132491   4.848   6.705   7.928
 3644TIP3    H232492   4.936   6.588   7.889
 3645TIP3   OH232493   2.255   1.957   7.186
 3645TIP3    H132494   2.318   1.985   7.119
 3645TIP3    H232495   2.309   1.928   7.259
 3646TIP3   OH232496   1.061   5.845   6.005
 3646TIP3    H132497   0.987   5.833   6.064
 3646TIP3    H232498   1.039   5.796   5.927
 3647TIP3   OH232499   0.959   1.098   7.412
 3647TIP3    H132500   1.034   1.118   7.355
 3647TIP3    H232501   0.889   1.074   7.351
 3648TIP3   OH232502   5.360   3.247   7.532
 3648TIP3    H132503   5.270   3.270   7.506
 3648TIP3    H232504   5.398   3.329   7.564
 3649TIP3   OH232505   4.825   4.382   8.535
 3649TIP3    H132506   4.900   4.410   8.588
 3649TIP3    H232507   4.768   4.337   8.597
 3650TIP3   OH232508   5.412   4.344   8.102
 3650TIP3    H132509   5.335   4.400   8.116
 3650TIP3    H232510   5.376   4.266   8.059
 3651TIP3   OH232511   1.969   3.466   0.691
 3651TIP3    H132512   1.962   3.477   0.596
 3651TIP3    H232513   2.057   3.431   0.706
 3652TIP3   OH232514   4.452   1.068   8.215
 3652TIP3    H132515   4.531   1.122   8.218
 3652TIP3    H232516   4.434   1.055   8.122
 3653TIP3   OH232517   0.667   6.010   8.015
 3653TIP3    H132518   0.604   6.015   7.944
 3653TIP3    H232519   0.749   5.983   7.973
 3654TIP3   OH232520   4.358   5.648   0.813
 3654TIP3    H132521   4.301   5.652   0.736
 3654TIP3    H232522   4.349   5.733   0.855
 3655TIP3   OH232523   1.882   0.818   7.990
 3655TIP3    H132524   1.858   0.911   7.990
 3655TIP3    H232525   1.894   0.797   7.898
 3656TIP3   OH232526   4.786   2.852   7.323
 3656TIP3    H132527   4.777   2.824   7.231
 3656TIP3    H232528   4.739   2.784   7.372
 3657TIP3   OH232529   6.001   2.919   2.076
 3657TIP3    H132530   6.052   2.953   2.149
 3657TIP3    H232531   6.045   2.954   1.998
 3658TIP3   OH232532   0.771   2.672   6.737
 3658TIP3    H132533   0.797   2.763   6.754
 3658TIP3    H232534   0.773   2.664   6.642
 3659TIP3   OH232535   5.336   4.534   0.708
 3659TIP3    H132536   5.398   4.497   0.770
 3659TIP3    H232537   5.301   4.458   0.661
 3660TIP3   OH232538   6.797   5.848   8.318
 3660TIP3    H132539   0.003   5.814   8.302
 3660TIP3    H232540   6.753   5.839   8.233
 3661TIP3   OH232541   6.101   0.668   7.154
 3661TIP3    H132542   6.142   0.669   7.067
 3661TIP3    H232543   6.174   0.653   7.214
 3662TIP3   OH232544   3.136   3.998   0.063
 3662TIP3    H132545   3.227   4.020   0.043
 3662TIP3    H232546   3.141   3.936   0.135
 3663TIP3   OH232547   2.454   0.415   7.360
 3663TIP3    H132548   2.490   0.468   7.289
 3663TIP3    H232549   2.496   0.329   7.349
 3664TIP3   OH232550   4.091   3.955   8.531
 3664TIP3    H132551   4.178   3.975   8.566
 3664TIP3    H232552   4.040   3.930   8.608
 3665TIP3   OH232553   2.028   3.364   1.008
 3665TIP3    H132554   1.941   3.342   1.044
 3665TIP3    H232555   2.009   3.400   0.921
 3666TIP3   OH232556   4.899   5.016   1.252
 3666TIP3    H132557   4.908   4.968   1.334
 3666TIP3    H232558   4.941   5.100   1.269
 3667TIP3   OH232559   3.715   4.562   1.075
 3667TIP3    H132560   3.672   4.584   0.993
 3667TIP3    H232561   3.678   4.622   1.139
 3668TIP3   OH232562   2.697   3.128   1.404
 3668TIP3    H132563   2.669   3.149   1.315
 3668TIP3    H232564   2.747   3.204   1.432
 3669TIP3   OH232565   6.707   4.852   0.035
 3669TIP3    H132566   6.775   4.918   0.051
 3669TIP3    H232567   6.644   4.865   0.106
 3670TIP3   OH232568   3.101   1.093   6.661
 3670TIP3    H132569   3.091   1.013   6.714
 3670TIP3    H232570   3.174   1.139   6.702
 3671TIP3   OH232571   3.908   0.655   1.759
 3671TIP3    H132572   3.984   0.684   1.810
 3671TIP3    H232573   3.938   0.576   1.714
 3672TIP3   OH232574   2.298   3.955   7.973
 3672TIP3    H132575   2.340   4.023   7.919
 3672TIP3    H232576   2.302   3.876   7.919
 3673TIP3   OH232577   1.146   4.549   7.176
 3673TIP3    H132578   1.065   4.532   7.222
 3673TIP3    H232579   1.119   4.594   7.096
 3674TIP3   OH232580   6.273   3.667   1.887
 3674TIP3    H132581   6.241   3.750   1.922
 3674TIP3    H232582   6.211   3.601   1.919
 3675TIP3   OH232583   3.434   3.722   7.179
 3675TIP3    H132584   3.479   3.711   7.263
 3675TIP3    H232585   3.504   3.719   7.114
 3676TIP3   OH232586   0.315   2.905   7.881
 3676TIP3    H132587   0.378   2.872   7.816
 3676TIP3    H232588   0.300   2.831   7.939
 3677TIP3   OH232589   3.011   5.462   0.092
 3677TIP3    H132590   2.938   5.402   0.080
 3677TIP3    H232591   2.992   5.508   0.174
 3678TIP3   OH232592   0.166   2.036   8.317
 3678TIP3    H132593   0.151   2.001   8.230
 3678TIP3    H232594   0.175   1.959   8.373
 3679TIP3   OH232595   1.114   6.407   7.957
 3679TIP3    H132596   1.186   6.352   7.925
 3679TIP3    H232597   1.115   6.394   8.052
 3680TIP3   OH232598   5.221   6.405   1.688
 3680TIP3    H132599   5.151   6.455   1.645
 3680TIP3    H232600   5.300   6.430   1.641
 3681TIP3   OH232601   1.274   1.271   7.643
 3681TIP3    H132602   1.251   1.190   7.690
 3681TIP3    H232603   1.227   1.339   7.691
 3682TIP3   OH232604   3.332   6.100   7.751
 3682TIP3    H132605   3.406   6.048   7.719
 3682TIP3    H232606   3.263   6.084   7.687
 3683TIP3   OH232607   2.389   1.179   0.626
 3683TIP3    H132608   2.349   1.266   0.620
 3683TIP3    H232609   2.338   1.125   0.566
 3684TIP3   OH232610   1.502   5.098   8.461
 3684TIP3    H132611   1.495   5.005   8.480
 3684TIP3    H232612   1.428   5.117   8.405
 3685TIP3   OH232613   2.297   2.204   7.509
 3685TIP3    H132614   2.249   2.286   7.509
 3685TIP3    H232615   2.231   2.137   7.529
 3686TIP3   OH232616   3.223   6.485   8.552
 3686TIP3    H132617   3.129   6.468   8.548
 3686TIP3    H232618   3.230   6.570   8.595
 3687TIP3   OH232619   3.119   5.552   6.769
 3687TIP3    H132620   3.158   5.533   6.854
 3687TIP3    H232621   3.065   5.629   6.784
 3688TIP3   OH232622   2.404   5.518   0.238
 3688TIP3    H132623   2.309   5.525   0.226
 3688TIP3    H232624   2.415   5.517   0.333
 3689TIP3   OH232625   6.539   2.172   0.718
 3689TIP3    H132626   6.551   2.204   0.628
 3689TIP3    H232627   6.523   2.251   0.770
 3690TIP3   OH232628   5.265   5.694   0.904
 3690TIP3    H132629   5.194   5.734   0.854
 3690TIP3    H232630   5.299   5.766   0.957
 3691TIP3   OH232631   0.648   1.893   0.665
 3691TIP3    H132632   0.592   1.816   0.651
 3691TIP3    H232633   0.658   1.899   0.760
 3692TIP3   OH232634   1.197   2.388   7.258
 3692TIP3    H132635   1.203   2.347   7.172
 3692TIP3    H232636   1.288   2.389   7.290
 3693TIP3   OH232637   3.035   6.830   6.625
 3693TIP3    H132638   3.000   6.842   6.537
 3693TIP3    H232639   3.106   6.767   6.613
 3694TIP3   OH232640   5.481   5.143   0.865
 3694TIP3    H132641   5.468   5.110   0.776
 3694TIP3    H232642   5.403   5.114   0.913
 3695TIP3   OH232643   6.405   5.427   1.993
 3695TIP3    H132644   6.454   5.387   1.921
 3695TIP3    H232645   6.399   5.520   1.970
 3696TIP3   OH232646   0.907   4.722   0.865
 3696TIP3    H132647   0.902   4.751   0.956
 3696TIP3    H232648   0.964   4.645   0.868
 3697TIP3   OH232649   4.762   6.278   8.442
 3697TIP3    H132650   4.820   6.265   8.517
 3697TIP3    H232651   4.725   6.365   8.455
 3698TIP3   OH232652   0.221   2.604   2.351
 3698TIP3    H132653   0.265   2.653   2.421
 3698TIP3    H232654   0.256   2.515   2.358
 3699TIP3   OH232655   0.173   0.769   7.146
 3699TIP3    H132656   0.236   0.836   7.120
 3699TIP3    H232657   0.160   0.783   7.240
 3700TIP3   OH232658   2.368   6.164   0.294
 3700TIP3    H132659   2.365   6.075   0.330
 3700TIP3    H232660   2.364   6.152   0.199
 3701TIP3   OH232661   2.562   2.382   8.440
 3701TIP3    H132662   2.592   2.345   8.522
 3701TIP3    H232663   2.527   2.468   8.463
 3702TIP3   OH232664   0.125   2.282   2.373
 3702TIP3    H132665   0.181   2.262   2.298
 3702TIP3    H232666   0.110   2.198   2.415
 3703TIP3   OH232667   5.082   6.145   0.592
 3703TIP3    H132668   5.067   6.161   0.685
 3703TIP3    H232669   5.148   6.076   0.590
 3704TIP3   OH232670   6.600   5.743   1.863
 3704TIP3    H132671   6.537   5.684   1.821
 3704TIP3    H232672   6.565   5.757   1.951
 3705TIP3   OH232673   1.007   4.287   0.653
 3705TIP3    H132674   1.042   4.359   0.600
 3705TIP3    H232675   0.965   4.330   0.727
 3706TIP3   OH232676   0.600   1.495   8.269
 3706TIP3    H132677   0.609   1.580   8.225
 3706TIP3    H232678   0.690   1.461   8.273
 3707TIP3   OH232679   5.902   0.543   7.647
 3707TIP3    H132680   5.851   0.499   7.715
 3707TIP3    H232681   5.972   0.481   7.625
 3708TIP3   OH232682   3.651   0.954   8.625
 3708TIP3    H132683   3.742   0.964   8.600
 3708TIP3    H232684   3.632   1.029   0.049
 3709TIP3   OH232685   0.834   0.682   1.400
 3709TIP3    H132686   0.922   0.717   1.388
 3709TIP3    H232687   0.837   0.635   1.484
 3710TIP3   OH232688   6.534   3.459   0.619
 3710TIP3    H132689   6.598   3.511   0.570
 3710TIP3    H232690   6.580   3.434   0.700
 3711TIP3   OH232691   0.481   0.457   6.211
 3711TIP3    H132692   0.474   0.411   6.127
 3711TIP3    H232693   0.433   0.402   6.272
 3712TIP3   OH232694   5.208   6.761   0.634
 3712TIP3    H132695   5.298   6.754   0.602
 3712TIP3    H232696   5.210   6.718   0.720
 3713TIP3   OH232697   1.670   3.138   8.116
 3713TIP3    H132698   1.651   3.160   8.207
 3713TIP3    H232699   1.695   3.046   8.118
 3714TIP3   OH232700   6.120   3.932   1.610
 3714TIP3    H132701   6.096   3.840   1.623
 3714TIP3    H232702   6.050   3.981   1.652
 3715TIP3   OH232703   6.590   4.125   8.122
 3715TIP3    H132704   6.575   4.129   8.028
 3715TIP3    H232705   6.503   4.126   8.161
 3716TIP3   OH232706   5.409   1.776   7.448
 3716TIP3    H132707   5.492   1.764   7.494
 3716TIP3    H232708   5.356   1.700   7.473
 3717TIP3   OH232709   0.647   6.008   0.850
 3717TIP3    H132710   0.588   6.074   0.887
 3717TIP3    H232711   0.595   5.966   0.781
 3718TIP3   OH232712   5.284   3.579   8.118
 3718TIP3    H132713   5.292   3.523   8.040
 3718TIP3    H232714   5.372   3.615   8.131
 3719TIP3   OH232715   2.576   0.403   6.832
 3719TIP3    H132716   2.641   0.352   6.881
 3719TIP3    H232717   2.592   0.494   6.858
 3720TIP3   OH232718   3.923   1.274   7.212
 3720TIP3    H132719   3.873   1.327   7.274
 3720TIP3    H232720   3.902   1.184   7.235
 3721TIP3   OH232721   4.231   1.198   6.932
 3721TIP3    H132722   4.180   1.132   6.886
 3721TIP3    H232723   4.321   1.183   6.904
 3722TIP3   OH232724   2.049   4.045   0.094
 3722TIP3    H132725   2.001   4.043   0.011
 3722TIP3    H232726   2.024   3.963   0.137
 3723TIP3   OH232727   4.632   5.669   1.441
 3723TIP3    H132728   4.698   5.735   1.463
 3723TIP3    H232729   4.646   5.651   1.348
 3724TIP3   OH232730   4.516   6.316   6.047
 3724TIP3    H132731   4.567   6.333   6.127
 3724TIP3    H232732   4.506   6.221   6.045
 3725TIP3   OH232733   2.194   1.403   0.511
 3725TIP3    H132734   2.185   1.498   0.514
 3725TIP3    H232735   2.104   1.371   0.500
 3726TIP3   OH232736   2.268   6.098   1.529
 3726TIP3    H132737   2.360   6.123   1.521
 3726TIP3    H232738   2.269   6.005   1.551
 3727TIP3   OH232739   2.216   2.856   0.669
 3727TIP3    H132740   2.220   2.941   0.712
 3727TIP3    H232741   2.307   2.830   0.660
 3728TIP3   OH232742   0.368   0.018   0.686
 3728TIP3    H132743   0.285   6.855   0.671
 3728TIP3    H232744   0.428   6.832   0.714
 3729TIP3   OH232745   6.003   5.675   7.721
 3729TIP3    H132746   5.948   5.644   7.649
 3729TIP3    H232747   5.984   5.614   7.793
 3730TIP3   OH232748   3.029   2.592   0.112
 3730TIP3    H132749   2.950   2.645   0.115
 3730TIP3    H232750   3.015   2.525   0.178
 3731TIP3   OH232751   4.078   4.021   7.685
 3731TIP3    H132752   4.027   3.942   7.670
 3731TIP3    H232753   4.018   4.080   7.731
 3732TIP3   OH232754   5.849   6.355   7.117
 3732TIP3    H132755   5.814   6.353   7.206
 3732TIP3    H232756   5.821   6.440   7.082
 3733TIP3   OH232757   6.551   5.266   0.495
 3733TIP3    H132758   6.505   5.345   0.466
 3733TIP3    H232759   6.629   5.299   0.539
 3734TIP3   OH232760   5.978   4.719   8.366
 3734TIP3    H132761   6.050   4.742   8.425
 3734TIP3    H232762   5.935   4.645   8.408
 3735TIP3   OH232763   1.611   2.580   7.154
 3735TIP3    H132764   1.578   2.623   7.232
 3735TIP3    H232765   1.595   2.487   7.168
 3736TIP3   OH232766   0.511   6.166   8.471
 3736TIP3    H132767   0.547   6.078   8.482
 3736TIP3    H232768   0.492   6.196   8.560
 3737TIP3   OH232769   6.436   5.506   8.094
 3737TIP3    H132770   6.360   5.465   8.053
 3737TIP3    H232771   6.507   5.492   8.032
 3738TIP3   OH232772   5.431   3.614   1.408
 3738TIP3    H132773   5.477   3.582   1.330
 3738TIP3    H232774   5.492   3.595   1.480
 3739TIP3   OH232775   0.972   2.757   8.379
 3739TIP3    H132776   0.952   2.674   8.422
 3739TIP3    H232777   1.008   2.812   8.448
 3740TIP3   OH232778   4.207   4.723   0.570
 3740TIP3    H132779   4.249   4.753   0.651
 3740TIP3    H232780   4.268   4.657   0.535
 3741TIP3   OH232781   6.221   6.617   7.203
 3741TIP3    H132782   6.133   6.580   7.208
 3741TIP3    H232783   6.214   6.701   7.249
 3742TIP3   OH232784   2.465   0.495   1.452
 3742TIP3    H132785   2.468   0.501   1.356
 3742TIP3    H232786   2.429   0.579   1.480
 3743TIP3   OH232787   6.662   1.445   1.195
 3743TIP3    H132788   6.739   1.387   1.195
 3743TIP3    H232789   6.682   1.512   1.129
 3744TIP3   OH232790   3.895   2.363   8.272
 3744TIP3    H132791   3.883   2.297   8.340
 3744TIP3    H232792   3.985   2.394   8.284
 3745TIP3   OH232793   0.271   3.190   7.738
 3745TIP3    H132794   0.334   3.158   7.673
 3745TIP3    H232795   0.276   3.286   7.731
 3746TIP3   OH232796   6.545   1.355   0.886
 3746TIP3    H132797   6.485   1.324   0.818
 3746TIP3    H232798   6.487   1.376   0.960
 3747TIP3   OH232799   4.996   3.530   7.446
 3747TIP3    H132800   5.072   3.541   7.390
 3747TIP3    H232801   4.923   3.566   7.395
 3748TIP3   OH232802   3.384   2.786   8.385
 3748TIP3    H132803   3.465   2.824   8.420
 3748TIP3    H232804   3.318   2.807   8.452
 3749TIP3   OH232805   2.680   1.762   7.082
 3749TIP3    H132806   2.597   1.771   7.036
 3749TIP3    H232807   2.746   1.782   7.016
 3750TIP3   OH232808   2.641   5.211   1.555
 3750TIP3    H132809   2.675   5.239   1.470
 3750TIP3    H232810   2.715   5.219   1.614
 3751TIP3   OH232811   1.438   2.144   8.196
 3751TIP3    H132812   1.484   2.217   8.236
 3751TIP3    H232813   1.395   2.182   8.119
 3752TIP3   OH232814   3.358   1.313   6.563
 3752TIP3    H132815   3.426   1.346   6.505
 3752TIP3    H232816   3.291   1.277   6.504
 3753TIP3   OH232817   4.595   1.273   7.841
 3753TIP3    H132818   4.596   1.201   7.778
 3753TIP3    H232819   4.683   1.274   7.877
 3754TIP3   OH232820   3.461   3.935   0.828
 3754TIP3    H132821   3.519   3.859   0.837
 3754TIP3    H232822   3.511   4.008   0.865
 3755TIP3   OH232823   5.955   4.035   0.744
 3755TIP3    H132824   6.023   4.053   0.678
 3755TIP3    H232825   6.004   4.026   0.826
 3756TIP3   OH232826   6.649   2.519   1.268
 3756TIP3    H132827   6.743   2.505   1.269
 3756TIP3    H232828   6.613   2.446   1.319
 3757TIP3   OH232829   4.012   2.710   7.606
 3757TIP3    H132830   4.048   2.782   7.555
 3757TIP3    H232831   4.058   2.633   7.575
 3758TIP3   OH232832   5.494   5.878   7.354
 3758TIP3    H132833   5.582   5.881   7.317
 3758TIP3    H232834   5.507   5.854   7.446
 3759TIP3   OH232835   3.729   6.257   1.998
 3759TIP3    H132836   3.692   6.173   2.027
 3759TIP3    H232837   3.694   6.269   1.910
 3760TIP3   OH232838   4.014   0.036   6.156
 3760TIP3    H132839   3.942   6.881   6.206
 3760TIP3    H232840   3.978   0.047   6.068
 3761TIP3   OH232841   1.757   3.402   1.429
 3761TIP3    H132842   1.838   3.445   1.403
 3761TIP3    H232843   1.757   3.405   1.525
 3762TIP3   OH232844   0.124   5.187   7.631
 3762TIP3    H132845   0.104   5.147   7.716
 3762TIP3    H232846   0.169   5.118   7.582
 3763TIP3   OH232847   2.993   4.813   7.753
 3763TIP3    H132848   3.033   4.739   7.708
 3763TIP3    H232849   2.943   4.774   7.825
 3764TIP3   OH232850   5.232   3.432   1.823
 3764TIP3    H132851   5.220   3.503   1.886
 3764TIP3    H232852   5.142   3.405   1.801
 3765TIP3   OH232853   6.424   6.434   7.155
 3765TIP3    H132854   6.391   6.391   7.076
 3765TIP3    H232855   6.356   6.498   7.176
 3766TIP3   OH232856   0.311   5.833   0.987
 3766TIP3    H132857   0.237   5.811   0.931
 3766TIP3    H232858   0.354   5.749   1.005
 3767TIP3   OH232859   6.051   1.166   8.226
 3767TIP3    H132860   6.065   1.071   8.233
 3767TIP3    H232861   6.139   1.202   8.213
 3768TIP3   OH232862   5.020   5.460   0.059
 3768TIP3    H132863   4.972   5.424   8.615
 3768TIP3    H232864   5.020   5.554   0.045
 3769TIP3   OH232865   3.438   5.336   1.321
 3769TIP3    H132866   3.478   5.255   1.289
 3769TIP3    H232867   3.452   5.334   1.416
 3770TIP3   OH232868   4.217   1.294   7.704
 3770TIP3    H132869   4.157   1.370   7.701
 3770TIP3    H232870   4.163   1.221   7.674
 3771TIP3   OH232871   3.536   5.599   1.851
 3771TIP3    H132872   3.505   5.688   1.838
 3771TIP3    H232873   3.467   5.556   1.902
 3772TIP3   OH232874   1.434   0.654   7.922
 3772TIP3    H132875   1.525   0.680   7.938
 3772TIP3    H232876   1.435   0.621   7.832
 3773TIP3   OH232877   3.326   2.890   7.646
 3773TIP3    H132878   3.337   2.796   7.664
 3773TIP3    H232879   3.409   2.929   7.673
 3774TIP3   OH232880   1.734   6.393   7.285
 3774TIP3    H132881   1.644   6.365   7.268
 3774TIP3    H232882   1.747   6.469   7.228
 3775TIP3   OH232883   0.885   6.378   7.817
 3775TIP3    H132884   0.912   6.413   7.731
 3775TIP3    H232885   0.968   6.361   7.862
 3776TIP3   OH232886   5.526   1.478   7.312
 3776TIP3    H132887   5.522   1.497   7.406
 3776TIP3    H232888   5.573   1.395   7.306
 3777TIP3   OH232889   5.989   1.369   0.215
 3777TIP3    H132890   6.056   1.427   0.179
 3777TIP3    H232891   5.964   1.411   0.298
 3778TIP3   OH232892   6.186   0.977   0.659
 3778TIP3    H132893   6.280   0.985   0.642
 3778TIP3    H232894   6.173   1.023   0.742
 3779TIP3   OH232895   5.550   3.775   6.550
 3779TIP3    H132896   5.542   3.731   6.465
 3779TIP3    H232897   5.635   3.745   6.584
 3780TIP3   OH232898   2.599   2.751   7.671
 3780TIP3    H132899   2.572   2.660   7.673
 3780TIP3    H232900   2.522   2.799   7.641
 3781TIP3   OH232901   1.868   0.152   1.396
 3781TIP3    H132902   1.859   0.120   1.306
 3781TIP3    H232903   1.960   0.177   1.403
 3782TIP3   OH232904   6.716   0.705   0.729
 3782TIP3    H132905   6.736   0.613   0.711
 3782TIP3    H232906   6.802   0.744   0.747
 3783TIP3   OH232907   5.257   0.038   6.958
 3783TIP3    H132908   5.250   0.123   7.002
 3783TIP3    H232909   5.192   6.866   7.002
 3784TIP3   OH232910   6.170   4.051   0.575
 3784TIP3    H132911   6.216   4.009   0.647
 3784TIP3    H232912   6.235   4.058   0.505
 3785TIP3   OH232913   1.724   4.229   6.673
 3785TIP3    H132914   1.805   4.197   6.634
 3785TIP3    H232915   1.695   4.157   6.729
 3786TIP3   OH232916   3.397   3.977   1.716
 3786TIP3    H132917   3.402   3.885   1.690
 3786TIP3    H232918   3.445   3.982   1.798
 3787TIP3   OH232919   0.676   6.425   7.145
 3787TIP3    H132920   0.656   6.482   7.070
 3787TIP3    H232921   0.596   6.374   7.158
 3788TIP3   OH232922   6.408   2.006   0.867
 3788TIP3    H132923   6.456   2.059   0.804
 3788TIP3    H232924   6.317   2.038   0.862
 3789TIP3   OH232925   3.985   0.342   1.958
 3789TIP3    H132926   4.020   0.259   1.990
 3789TIP3    H232927   3.947   0.320   1.872
 3790TIP3   OH232928   4.515   1.786   0.847
 3790TIP3    H132929   4.521   1.862   0.906
 3790TIP3    H232930   4.593   1.734   0.868
 3791TIP3   OH232931   0.066   3.689   6.492
 3791TIP3    H132932   6.858   3.690   6.523
 3791TIP3    H232933   0.112   3.631   6.553
 3792TIP3   OH232934   6.776   3.805   0.697
 3792TIP3    H132935   6.852   3.749   0.715
 3792TIP3    H232936   6.747   3.780   0.609
 3793TIP3   OH232937   6.861   4.143   0.674
 3793TIP3    H132938   0.013   4.093   0.600
 3793TIP3    H232939   6.771   4.111   0.684
 3794TIP3   OH232940   4.469   4.659   0.652
 3794TIP3    H132941   4.510   4.715   0.718
 3794TIP3    H232942   4.448   4.578   0.700
 3795TIP3   OH232943   6.822   6.148   8.139
 3795TIP3    H132944   6.873   6.067   8.146
 3795TIP3    H232945   0.005   6.218   8.142
 3796TIP3   OH232946   1.449   0.041   8.461
 3796TIP3    H132947   1.441   6.876   8.379
 3796TIP3    H232948   1.365   0.030   8.504
 3797TIP3   OH232949   1.743   3.356   1.705
 3797TIP3    H132950   1.819   3.310   1.743
 3797TIP3    H232951   1.694   3.387   1.781
 3798TIP3   OH232952   4.805   3.150   2.453
 3798TIP3    H132953   4.823   3.221   2.516
 3798TIP3    H232954   4.892   3.127   2.419
 3799TIP3   OH232955   4.562   5.339   0.250
 3799TIP3    H132956   4.582   5.327   0.343
 3799TIP3    H232957   4.641   5.307   0.205
 3800TIP3   OH232958   0.378   4.465   6.431
 3800TIP3    H132959   0.356   4.412   6.507
 3800TIP3    H232960   0.462   4.430   6.402
 3801TIP3   OH232961   0.938   2.787   1.487
 3801TIP3    H132962   0.851   2.809   1.520
 3801TIP3    H232963   0.966   2.864   1.438
 3802TIP3   OH232964   6.453   5.140   6.595
 3802TIP3    H132965   6.387   5.191   6.550
 3802TIP3    H232966   6.536   5.183   6.574
 3803TIP3   OH232967   0.462   0.869   5.887
 3803TIP3    H132968   0.475   0.778   5.861
 3803TIP3    H232969   0.473   0.870   5.982
 3804TIP3   OH232970   4.844   4.677   7.940
 3804TIP3    H132971   4.860   4.671   7.846
 3804TIP3    H232972   4.795   4.759   7.951
 3805TIP3   OH232973   5.710   2.784   0.308
 3805TIP3    H132974   5.732   2.862   0.360
 3805TIP3    H232975   5.658   2.817   0.235
 3806TIP3   OH232976   4.721   3.560   0.922
 3806TIP3    H132977   4.787   3.584   0.987
 3806TIP3    H232978   4.769   3.558   0.839
 3807TIP3   OH232979   6.387   3.925   7.635
 3807TIP3    H132980   6.335   3.885   7.564
 3807TIP3    H232981   6.469   3.949   7.593
 3808TIP3   OH232982   3.014   3.568   0.511
 3808TIP3    H132983   2.968   3.611   0.583
 3808TIP3    H232984   2.948   3.560   0.442
 3809TIP3   OH232985   0.935   5.517   1.406
 3809TIP3    H132986   0.948   5.451   1.337
 3809TIP3    H232987   1.018   5.517   1.454
 3810TIP3   OH232988   6.659   0.049   0.130
 3810TIP3    H132989   6.588   0.086   0.078
 3810TIP3    H232990   6.615   0.011   0.206
 3811TIP3   OH232991   3.029   1.029   6.365
 3811TIP3    H132992   3.104   0.974   6.392
 3811TIP3    H232993   2.953   0.972   6.377
 3812TIP3   OH232994   6.410   5.363   1.342
 3812TIP3    H132995   6.368   5.359   1.427
 3812TIP3    H232996   6.349   5.411   1.286
 3813TIP3   OH232997   0.061   0.436   1.753
 3813TIP3    H132998   0.075   0.341   1.757
 3813TIP3    H232999   0.059   0.464   1.844
 3814TIP3   OH233000   3.714   5.595   7.779
 3814TIP3    H133001   3.714   5.680   7.822
 3814TIP3    H233002   3.801   5.587   7.741
 3815TIP3   OH233003   4.235   0.514   6.816
 3815TIP3    H133004   4.158   0.529   6.760
 3815TIP3    H233005   4.234   0.588   6.877
 3816TIP3   OH233006   4.086   3.080   8.100
 3816TIP3    H133007   4.167   3.074   8.151
 3816TIP3    H233008   4.016   3.079   8.167
 3817TIP3   OH233009   4.193   6.690   7.793
 3817TIP3    H133010   4.127   6.630   7.827
 3817TIP3    H233011   4.177   6.692   7.698
 3818TIP3   OH233012   6.599   5.190   1.995
 3818TIP3    H133013   6.535   5.135   2.039
 3818TIP3    H233014   6.669   5.131   1.969
 3819TIP3   OH233015   1.943   0.616   0.189
 3819TIP3    H133016   2.012   0.617   0.123
 3819TIP3    H233017   1.925   0.709   0.206
 3820TIP3   OH233018   4.209   4.751   7.070
 3820TIP3    H133019   4.127   4.762   7.022
 3820TIP3    H233020   4.244   4.667   7.040
 3821TIP3   OH233021   1.156   5.413   1.109
 3821TIP3    H133022   1.223   5.427   1.042
 3821TIP3    H233023   1.176   5.327   1.145
 3822TIP3   OH233024   1.118   3.828   0.327
 3822TIP3    H133025   1.130   3.786   0.241
 3822TIP3    H233026   1.137   3.920   0.311
 3823TIP3   OH233027   3.435   3.142   6.558
 3823TIP3    H133028   3.445   3.055   6.596
 3823TIP3    H233029   3.514   3.189   6.584
 3824TIP3   OH233030   5.242   5.206   8.411
 3824TIP3    H133031   5.149   5.215   8.389
 3824TIP3    H233032   5.247   5.233   8.503
 3825TIP3   OH233033   4.549   2.425   8.422
 3825TIP3    H133034   4.600   2.479   8.482
 3825TIP3    H233035   4.468   2.474   8.408
 3826TIP3   OH233036   1.455   0.542   7.642
 3826TIP3    H133037   1.546   0.512   7.646
 3826TIP3    H233038   1.431   0.533   7.550
 3827TIP3   OH233039   4.700   0.814   6.606
 3827TIP3    H133040   4.610   0.785   6.589
 3827TIP3    H233041   4.730   0.758   6.677
 3828TIP3   OH233042   6.118   2.048   0.096
 3828TIP3    H133043   6.152   2.031   0.183
 3828TIP3    H233044   6.154   1.979   0.041
 3829TIP3   OH233045   4.873   3.818   2.121
 3829TIP3    H133046   4.809   3.861   2.178
 3829TIP3    H233047   4.831   3.816   2.035
 3830TIP3   OH233048   5.609   4.107   2.206
 3830TIP3    H133049   5.579   4.040   2.267
 3830TIP3    H233050   5.632   4.182   2.261
 3831TIP3   OH233051   6.611   0.307   0.380
 3831TIP3    H133052   6.531   0.256   0.375
 3831TIP3    H233053   6.627   0.336   0.290
 3832TIP3   OH233054   4.428   4.407   0.155
 3832TIP3    H133055   4.495   4.416   0.087
 3832TIP3    H233056   4.474   4.365   0.228
 3833TIP3   OH233057   0.326   3.504   7.406
 3833TIP3    H133058   0.258   3.470   7.347
 3833TIP3    H233059   0.306   3.598   7.412
 3834TIP3   OH233060   3.966   4.690   1.235
 3834TIP3    H133061   4.017   4.669   1.157
 3834TIP3    H233062   3.901   4.620   1.240
 3835TIP3   OH233063   2.917   4.892   1.400
 3835TIP3    H133064   2.959   4.835   1.334
 3835TIP3    H233065   2.834   4.917   1.361
 3836TIP3   OH233066   2.270   1.238   7.684
 3836TIP3    H133067   2.278   1.317   7.738
 3836TIP3    H233068   2.333   1.250   7.613
 3837TIP3   OH233069   3.394   4.425   7.370
 3837TIP3    H133070   3.470   4.367   7.365
 3837TIP3    H233071   3.381   4.440   7.464
 3838TIP3   OH233072   0.640   1.942   1.869
 3838TIP3    H133073   0.731   1.968   1.874
 3838TIP3    H233074   0.602   2.000   1.803
 3839TIP3   OH233075   2.719   3.025   7.734
 3839TIP3    H133076   2.703   2.942   7.689
 3839TIP3    H233077   2.632   3.063   7.746
 3840TIP3   OH233078   0.192   4.617   6.324
 3840TIP3    H133079   0.197   4.708   6.355
 3840TIP3    H233080   0.263   4.573   6.369
 3841TIP3   OH233081   6.028   2.457   1.359
 3841TIP3    H133082   5.937   2.477   1.381
 3841TIP3    H233083   6.037   2.364   1.380
 3842TIP3   OH233084   6.176   2.351   6.532
 3842TIP3    H133085   6.116   2.277   6.542
 3842TIP3    H233086   6.130   2.424   6.573
 3843TIP3   OH233087   0.519   1.757   7.084
 3843TIP3    H133088   0.483   1.828   7.030
 3843TIP3    H233089   0.614   1.768   7.078
 3844TIP3   OH233090   3.553   1.994   0.747
 3844TIP3    H133091   3.646   1.973   0.739
 3844TIP3    H233092   3.509   1.932   0.688
 3845TIP3   OH233093   3.416   3.561   8.010
 3845TIP3    H133094   3.476   3.635   7.995
 3845TIP3    H233095   3.410   3.554   8.105
 3846TIP3   OH233096   5.406   4.961   1.924
 3846TIP3    H133097   5.404   4.971   2.020
 3846TIP3    H233098   5.315   4.945   1.901
 3847TIP3   OH233099   6.223   2.020   7.755
 3847TIP3    H133100   6.184   2.048   7.837
 3847TIP3    H233101   6.240   1.926   7.767
 3848TIP3   OH233102   5.857   3.267   1.163
 3848TIP3    H133103   5.884   3.271   1.071
 3848TIP3    H233104   5.918   3.325   1.208
 3849TIP3   OH233105   4.070   0.034   1.221
 3849TIP3    H133106   4.059   6.822   1.230
 3849TIP3    H233107   4.085   0.065   1.310
 3850TIP3   OH233108   2.682   3.784   8.087
 3850TIP3    H133109   2.626   3.766   8.163
 3850TIP3    H233110   2.702   3.877   8.093
 3851TIP3   OH233111   0.762   4.236   8.564
 3851TIP3    H133112   0.795   4.148   8.544
 3851TIP3    H233113   0.671   4.235   8.534
 3852TIP3   OH233114   2.635   0.967   7.704
 3852TIP3    H133115   2.633   0.956   7.609
 3852TIP3    H233116   2.656   0.880   7.738
 3853TIP3   OH233117   3.962   5.598   1.493
 3853TIP3    H133118   3.901   5.624   1.561
 3853TIP3    H233119   3.967   5.503   1.499
 3854TIP3   OH233120   6.739   5.961   0.576
 3854TIP3    H133121   6.645   5.968   0.557
 3854TIP3    H233122   6.763   6.047   0.609
 3855TIP3   OH233123   0.922   4.655   7.377
 3855TIP3    H133124   0.962   4.620   7.457
 3855TIP3    H233125   0.976   4.731   7.355
 3856TIP3   OH233126   1.743   0.675   1.232
 3856TIP3    H133127   1.807   0.606   1.250
 3856TIP3    H233128   1.710   0.700   1.318
 3857TIP3   OH233129   0.708   6.101   7.403
 3857TIP3    H133130   0.654   6.030   7.366
 3857TIP3    H233131   0.770   6.122   7.334
 3858TIP3   OH233132   3.124   4.608   0.112
 3858TIP3    H133133   3.069   4.531   0.100
 3858TIP3    H233134   3.190   4.601   0.043
 3859TIP3   OH233135   5.794   1.861   2.615
 3859TIP3    H133136   5.800   1.776   2.572
 3859TIP3    H233137   5.716   1.902   2.577
 3860TIP3   OH233138   1.648   0.318   7.493
 3860TIP3    H133139   1.621   0.230   7.519
 3860TIP3    H233140   1.720   0.303   7.431
 3861TIP3   OH233141   3.248   0.952   1.922
 3861TIP3    H133142   3.252   0.895   1.845
 3861TIP3    H233143   3.160   0.988   1.921
 3862TIP3   OH233144   2.855   5.358   1.721
 3862TIP3    H133145   2.909   5.284   1.750
 3862TIP3    H233146   2.864   5.422   1.791
 3863TIP3   OH233147   2.340   5.635   6.612
 3863TIP3    H133148   2.378   5.553   6.644
 3863TIP3    H233149   2.307   5.613   6.525
 3864TIP3   OH233150   4.519   4.843   8.066
 3864TIP3    H133151   4.606   4.885   8.063
 3864TIP3    H233152   4.458   4.917   8.064
 3865TIP3   OH233153   3.902   6.868   2.865
 3865TIP3    H133154   3.859   6.880   2.780
 3865TIP3    H233155   3.851   0.040   2.925
 3866TIP3   OH233156   0.075   2.515   0.722
 3866TIP3    H133157   0.104   2.439   0.774
 3866TIP3    H233158   0.008   2.480   0.664
 3867TIP3   OH233159   3.643   0.430   7.857
 3867TIP3    H133160   3.675   0.450   7.945
 3867TIP3    H233161   3.598   0.346   7.866
 3868TIP3   OH233162   3.868   4.462   7.025
 3868TIP3    H133163   3.930   4.487   6.956
 3868TIP3    H233164   3.796   4.524   7.014
 3869TIP3   OH233165   5.757   6.462   1.038
 3869TIP3    H133166   5.709   6.507   1.107
 3869TIP3    H233167   5.781   6.531   0.976
 3870TIP3   OH233168   0.950   6.003   0.621
 3870TIP3    H133169   0.910   6.058   0.688
 3870TIP3    H233170   0.909   6.032   0.539
 3871TIP3   OH233171   5.764   0.832   6.629
 3871TIP3    H133172   5.778   0.757   6.687
 3871TIP3    H233173   5.803   0.804   6.545
 3872TIP3   OH233174   5.679   0.274   0.135
 3872TIP3    H133175   5.679   0.209   0.064
 3872TIP3    H233176   5.767   0.268   0.173
 3873TIP3   OH233177   0.941   4.494   0.326
 3873TIP3    H133178   0.932   4.521   0.235
 3873TIP3    H233179   1.002   4.420   0.323
 3874TIP3   OH233180   3.934   3.541   0.955
 3874TIP3    H133181   3.914   3.450   0.936
 3874TIP3    H233182   3.870   3.566   1.022
 3875TIP3   OH233183   2.292   3.373   1.396
 3875TIP3    H133184   2.326   3.296   1.351
 3875TIP3    H233185   2.366   3.407   1.446
 3876TIP3   OH233186   5.688   6.777   1.953
 3876TIP3    H133187   5.639   6.701   1.982
 3876TIP3    H233188   5.765   6.780   2.009
 3877TIP3   OH233189   6.475   4.657   7.509
 3877TIP3    H133190   6.560   4.687   7.476
 3877TIP3    H233191   6.481   4.561   7.506
 3878TIP3   OH233192   0.354   4.695   0.883
 3878TIP3    H133193   0.350   4.600   0.889
 3878TIP3    H233194   0.448   4.715   0.888
 3879TIP3   OH233195   1.022   6.488   8.542
 3879TIP3    H133196   1.091   6.488   8.608
 3879TIP3    H233197   1.001   6.581   8.530
 3880TIP3   OH233198   0.264   1.843   7.852
 3880TIP3    H133199   0.313   1.925   7.862
 3880TIP3    H233200   0.230   1.825   7.940
 3881TIP3   OH233201   6.231   4.134   0.145
 3881TIP3    H133202   6.172   4.060   0.130
 3881TIP3    H233203   6.192   4.206   0.095
 3882TIP3   OH233204   1.446   3.465   1.639
 3882TIP3    H133205   1.469   3.445   1.729
 3882TIP3    H233206   1.520   3.515   1.606
 3883TIP3   OH233207   1.317   3.117   6.114
 3883TIP3    H133208   1.251   3.145   6.177
 3883TIP3    H233209   1.368   3.196   6.095
 3884TIP3   OH233210   0.798   0.014   2.379
 3884TIP3    H133211   0.799   6.803   2.362
 3884TIP3    H233212   0.715   0.030   2.424
 3885TIP3   OH233213   4.677   0.351   8.401
 3885TIP3    H133214   4.648   0.277   8.453
 3885TIP3    H233215   4.607   0.416   8.410
 3886TIP3   OH233216   5.559   0.761   1.844
 3886TIP3    H133217   5.563   0.722   1.931
 3886TIP3    H233218   5.470   0.795   1.838
 3887TIP3   OH233219   3.440   6.448   7.362
 3887TIP3    H133220   3.347   6.443   7.382
 3887TIP3    H233221   3.459   6.542   7.358
 3888TIP3   OH233222   3.420   6.172   1.171
 3888TIP3    H133223   3.439   6.090   1.125
 3888TIP3    H233224   3.442   6.154   1.262
 3889TIP3   OH233225   3.395   5.859   1.777
 3889TIP3    H133226   3.468   5.879   1.836
 3889TIP3    H233227   3.351   5.943   1.764
 3890TIP3   OH233228   1.007   2.699   7.585
 3890TIP3    H133229   1.012   2.676   7.492
 3890TIP3    H233230   0.977   2.619   7.628
 3891TIP3   OH233231   4.972   3.816   0.382
 3891TIP3    H133232   4.936   3.756   0.316
 3891TIP3    H233233   4.908   3.815   0.453
 3892TIP3   OH233234   0.613   4.556   0.949
 3892TIP3    H133235   0.613   4.564   1.045
 3892TIP3    H233236   0.704   4.537   0.926
 3893TIP3   OH233237   5.001   3.556   8.107
 3893TIP3    H133238   4.993   3.636   8.055
 3893TIP3    H233239   5.090   3.561   8.143
 3894TIP3   OH233240   2.266   0.054   0.767
 3894TIP3    H133241   2.331   0.003   0.718
 3894TIP3    H233242   2.266   0.140   0.724
 3895TIP3   OH233243   5.593   3.072   7.437
 3895TIP3    H133244   5.602   2.977   7.425
 3895TIP3    H233245   5.681   3.101   7.458
 3896TIP3   OH233246   3.427   3.277   7.959
 3896TIP3    H133247   3.459   3.265   8.048
 3896TIP3    H233248   3.431   3.371   7.945
 3897TIP3   OH233249   5.545   0.260   8.349
 3897TIP3    H133250   5.482   0.310   8.401
 3897TIP3    H233251   5.582   0.324   8.288
 3898TIP3   OH233252   4.220   6.085   6.965
 3898TIP3    H133253   4.155   6.037   7.016
 3898TIP3    H233254   4.249   6.023   6.898
 3899TIP3   OH233255   6.222   6.251   7.520
 3899TIP3    H133256   6.130   6.258   7.496
 3899TIP3    H233257   6.260   6.336   7.497
 3900TIP3   OH233258   1.450   6.848   6.928
 3900TIP3    H133259   1.499   0.048   6.929
 3900TIP3    H233260   1.434   6.831   6.835
 3901TIP3   OH233261   3.930   4.645   0.195
 3901TIP3    H133262   3.901   4.584   0.127
 3901TIP3    H233263   4.005   4.690   0.156
 3902TIP3   OH233264   2.771   4.908   0.445
 3902TIP3    H133265   2.855   4.884   0.405
 3902TIP3    H233266   2.794   4.929   0.536
 3903TIP3   OH233267   3.190   2.701   2.228
 3903TIP3    H133268   3.117   2.655   2.269
 3903TIP3    H233269   3.178   2.687   2.134
 3904TIP3   OH233270   2.317   5.452   1.114
 3904TIP3    H133271   2.321   5.359   1.137
 3904TIP3    H233272   2.340   5.498   1.195
 3905TIP3   OH233273   4.052   2.642   1.452
 3905TIP3    H133274   4.075   2.657   1.544
 3905TIP3    H233275   3.975   2.585   1.457
 3906TIP3   OH233276   0.904   2.080   7.032
 3906TIP3    H133277   0.960   2.033   6.972
 3906TIP3    H233278   0.964   2.118   7.097
 3907TIP3   OH233279   2.464   3.609   7.387
 3907TIP3    H133280   2.539   3.661   7.358
 3907TIP3    H233281   2.463   3.619   7.482
 3908TIP3   OH233282   0.559   0.582   1.781
 3908TIP3    H133283   0.642   0.622   1.808
 3908TIP3    H233284   0.547   0.609   1.690
 3909TIP3   OH233285   3.031   2.956   7.104
 3909TIP3    H133286   2.981   2.946   7.023
 3909TIP3    H233287   3.041   3.051   7.113
 3910TIP3   OH233288   4.889   3.002   0.959
 3910TIP3    H133289   4.854   3.001   0.870
 3910TIP3    H233290   4.825   3.050   1.010
 3911TIP3   OH233291   3.398   4.264   6.518
 3911TIP3    H133292   3.488   4.234   6.503
 3911TIP3    H233293   3.379   4.320   6.443
 3912TIP3   OH233294   2.098   6.164   0.956
 3912TIP3    H133295   2.115   6.152   1.050
 3912TIP3    H233296   2.014   6.123   0.941
 3913TIP3   OH233297   1.334   5.374   0.872
 3913TIP3    H133298   1.357   5.460   0.836
 3913TIP3    H233299   1.418   5.336   0.898
 3914TIP3   OH233300   1.693   3.741   0.320
 3914TIP3    H133301   1.653   3.682   0.383
 3914TIP3    H233302   1.624   3.804   0.298
 3915TIP3   OH233303   4.990   3.839   7.848
 3915TIP3    H133304   4.923   3.775   7.826
 3915TIP3    H233305   4.967   3.917   7.799
 3916TIP3   OH233306   1.005   0.751   8.490
 3916TIP3    H133307   1.009   0.656   8.498
 3916TIP3    H233308   0.975   0.781   8.576
 3917TIP3   OH233309   6.506   3.359   7.002
 3917TIP3    H133310   6.467   3.434   7.047
 3917TIP3    H233311   6.529   3.298   7.072
 3918TIP3   OH233312   3.963   0.887   6.473
 3918TIP3    H133313   3.957   0.831   6.396
 3918TIP3    H233314   3.872   0.903   6.498
 3919TIP3   OH233315   3.717   1.707   0.818
 3919TIP3    H133316   3.779   1.691   0.890
 3919TIP3    H233317   3.738   1.641   0.752
 3920TIP3   OH233318   0.916   3.635   7.747
 3920TIP3    H133319   0.972   3.565   7.779
 3920TIP3    H233320   0.881   3.676   7.827
 3921TIP3   OH233321   4.878   5.423   0.306
 3921TIP3    H133322   4.902   5.337   0.341
 3921TIP3    H233323   4.934   5.435   0.230
 3922TIP3   OH233324   5.980   1.894   7.324
 3922TIP3    H133325   5.936   1.838   7.261
 3922TIP3    H233326   5.991   1.978   7.278
 3923TIP3   OH233327   3.912   3.796   7.064
 3923TIP3    H133328   3.990   3.753   7.098
 3923TIP3    H233329   3.938   3.829   6.978
 3924TIP3   OH233330   5.688   2.318   2.254
 3924TIP3    H133331   5.621   2.362   2.305
 3924TIP3    H233332   5.770   2.342   2.296
 3925TIP3   OH233333   2.739   3.073   0.497
 3925TIP3    H133334   2.787   2.990   0.492
 3925TIP3    H233335   2.807   3.140   0.500
 3926TIP3   OH233336   4.114   0.644   8.563
 3926TIP3    H133337   4.036   0.615   8.610
 3926TIP3    H233338   4.154   0.562   8.532
 3927TIP3   OH233339   6.848   4.537   7.980
 3927TIP3    H133340   6.821   4.465   8.036
 3927TIP3    H233341   0.022   4.496   7.914
 3928TIP3   OH233342   6.848   4.081   1.661
 3928TIP3    H133343   6.784   4.051   1.726
 3928TIP3    H233344   6.795   4.126   1.594
 3929TIP3   OH233345   4.726   5.152   2.531
 3929TIP3    H133346   4.708   5.239   2.496
 3929TIP3    H233347   4.789   5.114   2.469
 3930TIP3   OH233348   4.403   4.237   8.386
 3930TIP3    H133349   4.392   4.192   8.470
 3930TIP3    H233350   4.438   4.171   8.327
 3931TIP3   OH233351   2.564   3.402   0.456
 3931TIP3    H133352   2.535   3.359   0.536
 3931TIP3    H233353   2.542   3.495   0.470
 3932TIP3   OH233354   2.919   1.010   7.886
 3932TIP3    H133355   2.991   1.023   7.947
 3932TIP3    H233356   2.942   0.930   7.839
 3933TIP3   OH233357   2.145   3.246   8.480
 3933TIP3    H133358   2.155   3.332   8.439
 3933TIP3    H233359   2.143   3.265   8.574
 3934TIP3   OH233360   4.813   6.697   0.206
 3934TIP3    H133361   4.889   6.667   0.155
 3934TIP3    H233362   4.795   6.625   0.267
 3935TIP3   OH233363   4.607   3.934   0.923
 3935TIP3    H133364   4.649   3.951   1.008
 3935TIP3    H233365   4.677   3.948   0.859
 3936TIP3   OH233366   0.034   3.668   7.579
 3936TIP3    H133367   0.089   3.700   7.508
 3936TIP3    H233368   0.068   3.711   7.658
 3937TIP3   OH233369   3.300   5.747   1.523
 3937TIP3    H133370   3.381   5.710   1.489
 3937TIP3    H233371   3.327   5.797   1.600
 3938TIP3   OH233372   0.785   6.575   6.876
 3938TIP3    H133373   0.715   6.590   6.812
 3938TIP3    H233374   0.860   6.621   6.839
 3939TIP3   OH233375   2.897   3.445   7.301
 3939TIP3    H133376   2.969   3.488   7.347
 3939TIP3    H233377   2.835   3.420   7.370
 3940TIP3   OH233378   5.456   0.977   7.805
 3940TIP3    H133379   5.474   1.067   7.834
 3940TIP3    H233380   5.484   0.976   7.713
 3941TIP3   OH233381   0.813   0.785   2.273
 3941TIP3    H133382   0.878   0.721   2.303
 3941TIP3    H233383   0.857   0.834   2.204
 3942TIP3   OH233384   4.709   2.348   8.134
 3942TIP3    H133385   4.733   2.371   8.223
 3942TIP3    H233386   4.775   2.283   8.108
 3943TIP3   OH233387   2.458   4.860   6.775
 3943TIP3    H133388   2.400   4.926   6.813
 3943TIP3    H233389   2.436   4.859   6.682
 3944TIP3   OH233390   5.235   1.607   6.084
 3944TIP3    H133391   5.186   1.571   6.009
 3944TIP3    H233392   5.239   1.535   6.147
 3945TIP3   OH233393   5.128   1.817   1.731
 3945TIP3    H133394   5.063   1.792   1.797
 3945TIP3    H233395   5.209   1.827   1.781
 3946TIP3   OH233396   3.548   0.210   0.487
 3946TIP3    H133397   3.622   0.270   0.478
 3946TIP3    H233398   3.550   0.183   0.579
 3947TIP3   OH233399   4.125   2.323   7.668
 3947TIP3    H133400   4.066   2.356   7.737
 3947TIP3    H233401   4.120   2.228   7.677
 3948TIP3   OH233402   5.835   2.821   1.039
 3948TIP3    H133403   5.881   2.816   0.955
 3948TIP3    H233404   5.749   2.783   1.022
 3949TIP3   OH233405   1.317   2.749   0.594
 3949TIP3    H133406   1.253   2.797   0.647
 3949TIP3    H233407   1.266   2.676   0.557
 3950TIP3   OH233408   3.686   4.634   6.918
 3950TIP3    H133409   3.708   4.644   6.826
 3950TIP3    H233410   3.713   4.716   6.959
 3951TIP3   OH233411   0.840   6.370   1.870
 3951TIP3    H133412   0.806   6.292   1.828
 3951TIP3    H233413   0.769   6.434   1.863
 3952TIP3   OH233414   0.992   0.341   7.445
 3952TIP3    H133415   1.022   0.316   7.533
 3952TIP3    H233416   1.005   0.435   7.441
 3953TIP3   OH233417   6.131   2.290   0.463
 3953TIP3    H133418   6.050   2.263   0.419
 3953TIP3    H233419   6.136   2.384   0.448
 3954TIP3   OH233420   1.173   0.729   7.857
 3954TIP3    H133421   1.266   0.729   7.880
 3954TIP3    H233422   1.137   0.805   7.902
 3955TIP3   OH233423   0.357   2.184   0.167
 3955TIP3    H133424   0.341   2.151   0.255
 3955TIP3    H233425   0.413   2.260   0.179
 3956TIP3   OH233426   5.292   6.673   1.574
 3956TIP3    H133427   5.331   6.591   1.544
 3956TIP3    H233428   5.360   6.712   1.630
 3957TIP3   OH233429   5.363   5.134   7.559
 3957TIP3    H133430   5.314   5.172   7.632
 3957TIP3    H233431   5.340   5.190   7.484
 3958TIP3   OH233432   6.803   6.844   8.132
 3958TIP3    H133433   6.818   0.036   8.073
 3958TIP3    H233434   6.875   6.784   8.113
 3959TIP3   OH233435   4.386   1.081   0.018
 3959TIP3    H133436   4.420   1.167   8.627
 3959TIP3    H233437   4.384   1.080   0.114
 3960TIP3   OH233438   1.957   5.301   7.865
 3960TIP3    H133439   1.978   5.224   7.812
 3960TIP3    H233440   2.034   5.313   7.921
 3961TIP3   OH233441   3.210   5.528   7.636
 3961TIP3    H133442   3.129   5.550   7.590
 3961TIP3    H233443   3.195   5.439   7.669
 3962TIP3   OH233444   6.150   2.272   1.081
 3962TIP3    H133445   6.153   2.226   0.997
 3962TIP3    H233446   6.061   2.306   1.086
 3963TIP3   OH233447   5.051   0.486   0.642
 3963TIP3    H133448   5.054   0.407   0.588
 3963TIP3    H233449   5.139   0.494   0.677
 3964TIP3   OH233450   5.805   2.328   1.703
 3964TIP3    H133451   5.780   2.316   1.795
 3964TIP3    H233452   5.786   2.243   1.662
 3965TIP3   OH233453   0.220   6.104   6.407
 3965TIP3    H133454   0.268   6.059   6.338
 3965TIP3    H233455   0.164   6.036   6.445
 3966TIP3   OH233456   5.995   6.726   0.631
 3966TIP3    H133457   6.033   6.804   0.591
 3966TIP3    H233458   5.948   6.683   0.560
 3967TIP3   OH233459   5.520   2.497   7.150
 3967TIP3    H133460   5.548   2.410   7.121
 3967TIP3    H233461   5.523   2.551   7.071
 3968TIP3   OH233462   4.546   1.478   0.550
 3968TIP3    H133463   4.576   1.463   0.639
 3968TIP3    H233464   4.625   1.479   0.497
 3969TIP3   OH233465   3.430   3.247   8.502
 3969TIP3    H133466   3.486   3.265   8.578
 3969TIP3    H233467   3.355   3.306   8.513
 3970TIP3   OH233468   4.165   3.470   6.841
 3970TIP3    H133469   4.078   3.440   6.814
 3970TIP3    H233470   4.225   3.406   6.803
 3971TIP3   OH233471   2.011   3.562   7.537
 3971TIP3    H133472   2.082   3.583   7.477
 3971TIP3    H233473   2.054   3.550   7.622
 3972TIP3   OH233474   0.405   4.863   7.336
 3972TIP3    H133475   0.363   4.926   7.395
 3972TIP3    H233476   0.439   4.916   7.264
 3973TIP3   OH233477   1.611   6.216   1.635
 3973TIP3    H133478   1.520   6.238   1.613
 3973TIP3    H233479   1.639   6.287   1.693
 3974TIP3   OH233480   1.754   1.378   7.762
 3974TIP3    H133481   1.691   1.408   7.828
 3974TIP3    H233482   1.711   1.304   7.720
 3975TIP3   OH233483   0.700   5.953   1.418
 3975TIP3    H133484   0.711   5.866   1.380
 3975TIP3    H233485   0.605   5.969   1.416
 3976TIP3   OH233486   4.595   3.505   7.038
 3976TIP3    H133487   4.649   3.438   6.996
 3976TIP3    H233488   4.596   3.579   6.977
 3977TIP3   OH233489   4.876   6.174   0.792
 3977TIP3    H133490   4.802   6.205   0.845
 3977TIP3    H233491   4.842   6.169   0.703
 3978TIP3   OH233492   5.096   0.494   7.385
 3978TIP3    H133493   5.046   0.462   7.310
 3978TIP3    H233494   5.057   0.579   7.406
 3979TIP3   OH233495   1.398   4.720   7.904
 3979TIP3    H133496   1.314   4.684   7.932
 3979TIP3    H233497   1.417   4.675   7.822
 3980TIP3   OH233498   2.996   0.817   8.360
 3980TIP3    H133499   2.951   0.735   8.381
 3980TIP3    H233500   2.925   0.879   8.342
 3981TIP3   OH233501   1.949   5.135   8.268
 3981TIP3    H133502   2.005   5.091   8.205
 3981TIP3    H233503   1.938   5.071   8.339
 3982TIP3   OH233504   1.520   0.504   0.858
 3982TIP3    H133505   1.585   0.435   0.872
 3982TIP3    H233506   1.487   0.524   0.946
 3983TIP3   OH233507   2.804   4.787   6.937
 3983TIP3    H133508   2.714   4.764   6.961
 3983TIP3    H233509   2.858   4.753   7.008
 3984TIP3   OH233510   3.571   6.166   8.374
 3984TIP3    H133511   3.644   6.103   8.369
 3984TIP3    H233512   3.609   6.248   8.343
 3985TIP3   OH233513   2.574   3.774   1.294
 3985TIP3    H133514   2.519   3.807   1.224
 3985TIP3    H233515   2.571   3.841   1.362
 3986TIP3   OH233516   4.977   1.151   6.016
 3986TIP3    H133517   5.044   1.096   6.058
 3986TIP3    H233518   4.905   1.090   5.997
 3987TIP3   OH233519   0.151   4.736   7.352
 3987TIP3    H133520   0.244   4.728   7.335
 3987TIP3    H233521   0.144   4.806   7.418
 3988TIP3   OH233522   5.926   0.489   0.144
 3988TIP3    H133523   5.853   0.507   0.204
 3988TIP3    H233524   5.996   0.547   0.173
 3989TIP3   OH233525   1.347   3.845   2.249
 3989TIP3    H133526   1.431   3.878   2.282
 3989TIP3    H233527   1.283   3.870   2.316
 3990TIP3   OH233528   6.695   1.249   7.266
 3990TIP3    H133529   6.728   1.169   7.307
 3990TIP3    H233530   6.688   1.226   7.173
 3991TIP3   OH233531   5.305   0.693   7.222
 3991TIP3    H133532   5.342   0.618   7.176
 3991TIP3    H233533   5.241   0.730   7.162
 3992TIP3   OH233534   1.256   6.050   1.721
 3992TIP3    H133535   1.197   6.017   1.653
 3992TIP3    H233536   1.276   6.139   1.694
 3993TIP3   OH233537   1.285   2.586   0.876
 3993TIP3    H133538   1.366   2.637   0.878
 3993TIP3    H233539   1.256   2.589   0.785
 3994TIP3   OH233540   1.110   3.849   7.064
 3994TIP3    H133541   1.110   3.896   7.147
 3994TIP3    H233542   1.123   3.917   6.998
 3995TIP3   OH233543   3.171   4.591   0.563
 3995TIP3    H133544   3.205   4.590   0.473
 3995TIP3    H233545   3.245   4.563   0.617
 3996TIP3   OH233546   3.392   0.245   2.043
 3996TIP3    H133547   3.409   0.261   2.136
 3996TIP3    H233548   3.336   0.168   2.043
 3997TIP3   OH233549   1.528   5.879   7.285
 3997TIP3    H133550   1.543   5.784   7.295
 3997TIP3    H233551   1.450   5.885   7.229
 3998TIP3   OH233552   6.654   0.536   1.594
 3998TIP3    H133553   6.696   0.615   1.561
 3998TIP3    H233554   6.614   0.563   1.677
 3999TIP3   OH233555   5.492   2.053   0.398
 3999TIP3    H133556   5.472   1.969   0.359
 3999TIP3    H233557   5.407   2.095   0.410
 4000TIP3   OH233558   1.700   3.642   8.060
 4000TIP3    H133559   1.655   3.716   8.101
 4000TIP3    H233560   1.630   3.581   8.035
 4001TIP3   OH233561   3.221   3.068   0.066
 4001TIP3    H133562   3.205   3.162   0.055
 4001TIP3    H233563   3.262   3.060   0.152
 4002TIP3   OH233564   5.103   1.547   7.971
 4002TIP3    H133565   5.017   1.586   7.961
 4002TIP3    H233566   5.121   1.551   8.065
 4003TIP3   OH233567   4.768   2.986   8.208
 4003TIP3    H133568   4.773   2.892   8.228
 4003TIP3    H233569   4.812   2.995   8.124
 4004TIP3   OH233570   2.734   3.233   0.771
 4004TIP3    H133571   2.701   3.143   0.770
 4004TIP3    H233572   2.810   3.231   0.713
 4005TIP3   OH233573   4.513   1.870   7.307
 4005TIP3    H133574   4.599   1.831   7.293
 4005TIP3    H233575   4.511   1.890   7.401
 4006TIP3   OH233576   2.277   4.116   7.635
 4006TIP3    H133577   2.296   4.062   7.558
 4006TIP3    H233578   2.344   4.092   7.699
 4007TIP3   OH233579   5.601   3.755   7.692
 4007TIP3    H133580   5.574   3.801   7.612
 4007TIP3    H233581   5.676   3.701   7.664
 4008TIP3   OH233582   3.928   0.139   6.570
 4008TIP3    H133583   3.855   0.081   6.591
 4008TIP3    H233584   4.005   0.083   6.571
 4009TIP3   OH233585   1.167   6.023   6.559
 4009TIP3    H133586   1.091   6.053   6.509
 4009TIP3    H233587   1.187   5.936   6.524
 4010TIP3   OH233588   0.420   3.861   7.073
 4010TIP3    H133589   0.484   3.843   7.142
 4010TIP3    H233590   0.436   3.952   7.049
 4011TIP3   OH233591   1.575   6.755   7.382
 4011TIP3    H133592   1.515   6.688   7.351
 4011TIP3    H233593   1.621   6.784   7.303
 4012TIP3   OH233594   1.141   4.615   7.953
 4012TIP3    H133595   1.124   4.693   8.006
 4012TIP3    H233596   1.057   4.570   7.949
 4013TIP3   OH233597   6.861   4.551   0.446
 4013TIP3    H133598   6.781   4.570   0.495
 4013TIP3    H233599   0.013   4.637   0.423
 4014TIP3   OH233600   2.555   5.010   8.428
 4014TIP3    H133601   2.618   5.037   8.495
 4014TIP3    H233602   2.476   4.986   8.477
 4015TIP3   OH233603   2.665   1.393   7.461
 4015TIP3    H133604   2.685   1.471   7.410
 4015TIP3    H233605   2.608   1.423   7.531
 4016TIP3   OH233606   6.683   0.869   6.889
 4016TIP3    H133607   6.739   0.792   6.890
 4016TIP3    H233608   6.743   0.942   6.876
 4017TIP3   OH233609   1.914   4.073   7.071
 4017TIP3    H133610   1.940   4.164   7.087
 4017TIP3    H233611   1.818   4.075   7.075
 4018TIP3   OH233612   6.039   0.423   7.950
 4018TIP3    H133613   6.095   0.452   8.022
 4018TIP3    H233614   5.950   0.445   7.979
 4019TIP3   OH233615   6.670   5.719   7.740
 4019TIP3    H133616   6.669   5.782   7.812
 4019TIP3    H233617   6.584   5.730   7.698
 4020TIP3   OH233618   3.255   2.065   0.607
 4020TIP3    H133619   3.330   2.017   0.574
 4020TIP3    H233620   3.228   2.120   0.534
 4021TIP3   OH233621   4.408   6.291   1.766
 4021TIP3    H133622   4.389   6.205   1.804
 4021TIP3    H233623   4.407   6.351   1.841
 4022TIP3   OH233624   0.266   1.801   8.414
 4022TIP3    H133625   0.299   1.713   8.392
 4022TIP3    H233626   0.310   1.823   8.496
 4023TIP3   OH233627   3.437   5.990   8.621
 4023TIP3    H133628   3.395   6.070   8.589
 4023TIP3    H233629   3.530   6.001   8.598
 4024TIP3   OH233630   0.641   3.148   7.331
 4024TIP3    H133631   0.716   3.207   7.327
 4024TIP3    H233632   0.622   3.127   7.239
 4025TIP3   OH233633   5.433   2.060   6.035
 4025TIP3    H133634   5.365   1.995   6.049
 4025TIP3    H233635   5.386   2.143   6.027
 4026TIP3   OH233636   6.132   4.332   0.575
 4026TIP3    H133637   6.109   4.240   0.569
 4026TIP3    H233638   6.226   4.335   0.556
 4027TIP3   OH233639   4.701   4.033   8.588
 4027TIP3    H133640   4.734   4.115   8.624
 4027TIP3    H233641   4.624   4.013   0.011
 4028TIP3   OH233642   4.417   5.221   2.758
 4028TIP3    H133643   4.433   5.145   2.703
 4028TIP3    H233644   4.326   5.244   2.741
 4029TIP3   OH233645   2.504   2.999   8.117
 4029TIP3    H133646   2.557   3.074   8.144
 4029TIP3    H233647   2.521   2.991   8.023
 4030TIP3   OH233648   5.455   4.089   6.920
 4030TIP3    H133649   5.461   4.182   6.899
 4030TIP3    H233650   5.417   4.049   6.842
 4031TIP3   OH233651   1.286   2.075   7.100
 4031TIP3    H133652   1.350   2.045   7.035
 4031TIP3    H233653   1.239   2.146   7.055
 4032TIP3   OH233654   4.633   1.631   1.466
 4032TIP3    H133655   4.633   1.535   1.467
 4032TIP3    H233656   4.647   1.656   1.557
 4033TIP3   OH233657   1.712   1.773   1.005
 4033TIP3    H133658   1.672   1.784   0.919
 4033TIP3    H233659   1.785   1.712   0.990
 4034TIP3   OH233660   2.732   0.750   8.036
 4034TIP3    H133661   2.763   0.840   8.051
 4034TIP3    H233662   2.759   0.730   7.947
 4035TIP3   OH233663   6.087   5.818   8.315
 4035TIP3    H133664   6.043   5.841   8.233
 4035TIP3    H233665   6.032   5.749   8.353
 4036TIP3   OH233666   3.931   1.684   7.616
 4036TIP3    H133667   3.847   1.728   7.608
 4036TIP3    H233668   3.930   1.646   7.704
 4037TIP3   OH233669   4.934   6.286   0.042
 4037TIP3    H133670   5.016   6.241   0.065
 4037TIP3    H233671   4.955   6.379   0.050
 4038TIP3   OH233672   5.615   3.931   0.665
 4038TIP3    H133673   5.701   3.967   0.645
 4038TIP3    H233674   5.596   3.963   0.753
 4039TIP3   OH233675   6.008   4.017   0.038
 4039TIP3    H133676   5.996   3.940   8.613
 4039TIP3    H233677   5.946   4.081   0.003
 4040TIP3   OH233678   2.593   5.771   1.217
 4040TIP3    H133679   2.520   5.824   1.248
 4040TIP3    H233680   2.618   5.718   1.293
 4041TIP3   OH233681   0.884   5.082   1.909
 4041TIP3    H133682   0.972   5.052   1.930
 4041TIP3    H233683   0.876   5.166   1.954
 4042TIP3   OH233684   4.420   3.187   0.533
 4042TIP3    H133685   4.353   3.170   0.599
 4042TIP3    H233686   4.496   3.217   0.584
 4043TIP3   OH233687   4.757   5.430   0.793
 4043TIP3    H133688   4.726   5.505   0.843
 4043TIP3    H233689   4.706   5.431   0.712
 4044TIP3   OH233690   1.435   3.057   7.211
 4044TIP3    H133691   1.459   2.964   7.218
 4044TIP3    H233692   1.339   3.058   7.217
 4045TIP3   OH233693   0.145   5.513   0.374
 4045TIP3    H133694   0.153   5.422   0.403
 4045TIP3    H233695   0.111   5.507   0.285
 4046TIP3   OH233696   1.945   6.528   7.815
 4046TIP3    H133697   1.927   6.440   7.782
 4046TIP3    H233698   1.881   6.584   7.769
 4047TIP3   OH233699   3.981   5.936   0.381
 4047TIP3    H133700   3.979   5.903   0.291
 4047TIP3    H233701   3.901   5.901   0.421
 4048TIP3   OH233702   1.370   1.681   1.872
 4048TIP3    H133703   1.366   1.753   1.935
 4048TIP3    H233704   1.390   1.723   1.788
 4049TIP3   OH233705   6.868   4.263   7.235
 4049TIP3    H133706   6.773   4.273   7.245
 4049TIP3    H233707   0.013   4.341   7.187
 4050TIP3   OH233708   6.524   3.854   0.475
 4050TIP3    H133709   6.456   3.810   0.425
 4050TIP3    H233710   6.597   3.864   0.414
 4051TIP3   OH233711   4.951   2.756   8.029
 4051TIP3    H133712   4.875   2.701   8.009
 4051TIP3    H233713   4.944   2.829   7.968
 4052TIP3   OH233714   4.155   6.362   1.670
 4052TIP3    H133715   4.110   6.356   1.755
 4052TIP3    H233716   4.246   6.340   1.690
 4053TIP3   OH233717   0.862   0.417   0.170
 4053TIP3    H133718   0.856   0.438   0.077
 4053TIP3    H233719   0.787   0.462   0.209
 4054TIP3   OH233720   6.660   5.863   1.311
 4054TIP3    H133721   6.617   5.896   1.390
 4054TIP3    H233722   6.666   5.940   1.253
 4055TIP3   OH233723   2.748   3.066   6.300
 4055TIP3    H133724   2.725   3.158   6.286
 4055TIP3    H233725   2.837   3.059   6.266
 4056TIP3   OH233726   5.730   0.155   8.173
 4056TIP3    H133727   5.670   0.145   8.246
 4056TIP3    H233728   5.674   0.157   8.096
 4057TIP3   OH233729   6.632   3.231   6.802
 4057TIP3    H133730   6.589   3.268   6.879
 4057TIP3    H233731   6.713   3.280   6.793
 4058TIP3   OH233732   5.079   3.005   7.311
 4058TIP3    H133733   5.046   3.002   7.401
 4058TIP3    H233734   5.097   3.098   7.295
 4059TIP3   OH233735   4.322   1.824   0.386
 4059TIP3    H133736   4.391   1.806   0.323
 4059TIP3    H233737   4.352   1.783   0.468
 4060TIP3   OH233738   0.863   2.849   0.434
 4060TIP3    H133739   0.788   2.860   0.493
 4060TIP3    H233740   0.909   2.772   0.468
 4061TIP3   OH233741   0.607   3.513   7.997
 4061TIP3    H133742   0.602   3.537   8.090
 4061TIP3    H233743   0.596   3.595   7.950
 4062TIP3   OH233744   4.814   5.393   8.534
 4062TIP3    H133745   4.746   5.367   8.596
 4062TIP3    H233746   4.845   5.310   8.497
 4063TIP3   OH233747   2.520   0.364   8.254
 4063TIP3    H133748   2.447   0.424   8.244
 4063TIP3    H233749   2.597   0.417   8.234
 4064TIP3   OH233750   6.682   1.662   7.517
 4064TIP3    H133751   6.603   1.714   7.499
 4064TIP3    H233752   6.677   1.643   7.610
 4065TIP3   OH233753   4.184   0.359   8.509
 4065TIP3    H133754   4.093   0.338   8.532
 4065TIP3    H233755   4.210   0.288   8.450
 4066TIP3   OH233756   2.545   5.087   7.901
 4066TIP3    H133757   2.564   5.103   7.809
 4066TIP3    H233758   2.619   5.037   7.933
 4067TIP3   OH233759   5.319   5.006   0.079
 4067TIP3    H133760   5.298   5.098   0.062
 4067TIP3    H233761   5.364   4.977   0.000
 4068TIP3   OH233762   3.262   1.032   1.505
 4068TIP3    H133763   3.248   1.035   1.410
 4068TIP3    H233764   3.187   1.079   1.542
 4069TIP3   OH233765   1.244   4.851   6.678
 4069TIP3    H133766   1.266   4.888   6.593
 4069TIP3    H233767   1.151   4.829   6.672
 4070TIP3   OH233768   2.360   1.034   1.208
 4070TIP3    H133769   2.430   1.097   1.190
 4070TIP3    H233770   2.400   0.949   1.192
 4071TIP3   OH233771   1.769   4.384   6.889
 4071TIP3    H133772   1.747   4.313   6.829
 4071TIP3    H233773   1.858   4.364   6.919
 4072TIP3   OH233774   3.166   3.654   7.308
 4072TIP3    H133775   3.250   3.654   7.261
 4072TIP3    H233776   3.187   3.621   7.395
 4073TIP3   OH233777   3.432   2.667   1.291
 4073TIP3    H133778   3.447   2.611   1.368
 4073TIP3    H233779   3.496   2.737   1.301
 4074TIP3   OH233780   1.276   5.233   7.846
 4074TIP3    H133781   1.351   5.211   7.901
 4074TIP3    H233782   1.229   5.300   7.895
 4075TIP3   OH233783   3.072   3.658   0.947
 4075TIP3    H133784   3.150   3.605   0.927
 4075TIP3    H233785   3.059   3.646   1.042
 4076TIP3   OH233786   3.341   1.776   2.368
 4076TIP3    H133787   3.362   1.862   2.331
 4076TIP3    H233788   3.282   1.795   2.441
 4077TIP3   OH233789   5.944   3.308   0.912
 4077TIP3    H133790   5.935   3.277   0.822
 4077TIP3    H233791   5.946   3.404   0.904
 4078TIP3   OH233792   5.496   0.541   0.149
 4078TIP3    H133793   5.509   0.448   0.170
 4078TIP3    H233794   5.581   0.582   0.166
 4079TIP3   OH233795   3.236   5.840   8.313
 4079TIP3    H133796   3.272   5.773   8.254
 4079TIP3    H233797   3.256   5.923   8.271
 4080TIP3   OH233798   3.840   3.452   8.403
 4080TIP3    H133799   3.903   3.408   8.346
 4080TIP3    H233800   3.823   3.389   8.473
 4081TIP3   OH233801   4.654   2.962   1.199
 4081TIP3    H133802   4.683   3.048   1.230
 4081TIP3    H233803   4.559   2.969   1.193
 4082TIP3   OH233804   0.364   4.368   1.202
 4082TIP3    H133805   0.378   4.463   1.197
 4082TIP3    H233806   0.270   4.359   1.218
 4083TIP3   OH233807   2.281   3.149   7.867
 4083TIP3    H133808   2.230   3.208   7.923
 4083TIP3    H233809   2.256   3.061   7.896
 4084TIP3   OH233810   1.871   1.700   8.314
 4084TIP3    H133811   1.833   1.638   8.376
 4084TIP3    H233812   1.950   1.732   8.357
 4085TIP3   OH233813   5.827   2.600   7.729
 4085TIP3    H133814   5.814   2.639   7.816
 4085TIP3    H233815   5.899   2.650   7.692
 4086TIP3   OH233816   3.117   1.659   0.998
 4086TIP3    H133817   3.198   1.694   0.961
 4086TIP3    H233818   3.048   1.712   0.958
 4087TIP3   OH233819   3.697   1.562   2.638
 4087TIP3    H133820   3.724   1.634   2.695
 4087TIP3    H233821   3.776   1.539   2.589
 4088TIP3   OH233822   0.306   2.226   7.488
 4088TIP3    H133823   0.245   2.231   7.414
 4088TIP3    H233824   0.303   2.134   7.515
 4089TIP3   OH233825   4.683   5.270   7.236
 4089TIP3    H133826   4.611   5.270   7.172
 4089TIP3    H233827   4.686   5.359   7.270
 4090TIP3   OH233828   1.462   6.516   7.281
 4090TIP3    H133829   1.514   6.516   7.201
 4090TIP3    H233830   1.372   6.529   7.251
 4091TIP3   OH233831   3.789   4.872   0.715
 4091TIP3    H133832   3.855   4.876   0.784
 4091TIP3    H233833   3.839   4.866   0.634
 4092TIP3   OH233834   3.150   1.073   8.372
 4092TIP3    H133835   3.171   1.154   8.327
 4092TIP3    H233836   3.095   1.025   8.309
 4093TIP3   OH233837   1.622   1.201   1.674
 4093TIP3    H133838   1.678   1.279   1.677
 4093TIP3    H233839   1.682   1.127   1.679
 4094TIP3   OH233840   6.295   4.611   0.964
 4094TIP3    H133841   6.224   4.569   1.013
 4094TIP3    H233842   6.279   4.586   0.873
 4095TIP3   OH233843   3.102   6.339   7.432
 4095TIP3    H133844   3.018   6.321   7.391
 4095TIP3    H233845   3.110   6.435   7.430
 4096TIP3   OH233846   5.142   5.482   6.916
 4096TIP3    H133847   5.073   5.416   6.913
 4096TIP3    H233848   5.106   5.556   6.866
 4097TIP3   OH233849   4.525   2.110   8.065
 4097TIP3    H133850   4.601   2.146   8.110
 4097TIP3    H233851   4.560   2.042   8.007
 4098TIP3   OH233852   2.754   4.669   8.312
 4098TIP3    H133853   2.826   4.694   8.369
 4098TIP3    H233854   2.746   4.574   8.323
 4099TIP3   OH233855   0.228   4.672   8.058
 4099TIP3    H133856   0.262   4.748   8.106
 4099TIP3    H233857   0.207   4.608   8.126
 4100TIP3   OH233858   3.238   1.685   1.660
 4100TIP3    H133859   3.182   1.609   1.648
 4100TIP3    H233860   3.185   1.747   1.710
 4101TIP3   OH233861   4.894   2.528   8.328
 4101TIP3    H133862   4.879   2.494   8.416
 4101TIP3    H233863   4.959   2.469   8.290
 4102TIP3   OH233864   3.666   5.532   8.049
 4102TIP3    H133865   3.679   5.460   7.987
 4102TIP3    H233866   3.613   5.595   8.001
 4103TIP3   OH233867   1.595   3.418   0.239
 4103TIP3    H133868   1.674   3.384   0.197
 4103TIP3    H233869   1.600   3.385   0.328
 4104TIP3   OH233870   1.764   2.169   6.920
 4104TIP3    H133871   1.809   2.099   6.968
 4104TIP3    H233872   1.800   2.250   6.957
 4105TIP3   OH233873   2.895   1.867   8.299
 4105TIP3    H133874   2.869   1.937   8.359
 4105TIP3    H233875   2.851   1.889   8.216
 4106TIP3   OH233876   2.017   2.738   1.347
 4106TIP3    H133877   2.087   2.782   1.396
 4106TIP3    H233878   1.940   2.746   1.403
 4107TIP3   OH233879   3.145   6.413   1.247
 4107TIP3    H133880   3.180   6.455   1.168
 4107TIP3    H233881   3.068   6.364   1.216
 4108TIP3   OH233882   2.132   1.760   8.395
 4108TIP3    H133883   2.194   1.689   8.378
 4108TIP3    H233884   2.147   1.784   8.487
 4109TIP3   OH233885   0.175   6.222   1.822
 4109TIP3    H133886   0.146   6.146   1.872
 4109TIP3    H233887   0.236   6.267   1.881
 4110TIP3   OH233888   1.036   4.031   1.843
 4110TIP3    H133889   0.950   4.007   1.877
 4110TIP3    H233890   1.094   4.027   1.919
 4111TIP3   OH233891   1.665   4.420   7.488
 4111TIP3    H133892   1.662   4.339   7.436
 4111TIP3    H233893   1.604   4.404   7.560
 4112TIP3   OH233894   0.725   3.343   0.082
 4112TIP3    H133895   0.800   3.349   0.141
 4112TIP3    H233896   0.754   3.384   0.001
 4113TIP3   OH233897   3.561   5.149   1.139
 4113TIP3    H133898   3.654   5.144   1.118
 4113TIP3    H233899   3.528   5.219   1.082
 4114TIP3   OH233900   3.065   5.997   0.912
 4114TIP3    H133901   3.062   6.091   0.926
 4114TIP3    H233902   2.995   5.962   0.968
 4115TIP3   OH233903   3.187   1.275   6.317
 4115TIP3    H133904   3.257   1.271   6.253
 4115TIP3    H233905   3.134   1.197   6.300
 4116TIP3   OH233906   2.436   5.527   1.375
 4116TIP3    H133907   2.351   5.499   1.408
 4116TIP3    H233908   2.496   5.512   1.448
 4117TIP3   OH233909   5.516   2.804   8.460
 4117TIP3    H133910   5.439   2.835   8.412
 4117TIP3    H233911   5.542   2.724   8.414
 4118TIP3   OH233912   4.514   1.452   1.805
 4118TIP3    H133913   4.555   1.503   1.875
 4118TIP3    H233914   4.553   1.365   1.812
 4119TIP3   OH233915   6.714   3.575   7.790
 4119TIP3    H133916   6.708   3.544   7.700
 4119TIP3    H233917   6.690   3.667   7.786
 4120TIP3   OH233918   3.558   6.235   1.769
 4120TIP3    H133919   3.478   6.182   1.768
 4120TIP3    H233920   3.585   6.240   1.677
 4121TIP3   OH233921   3.000   2.147   7.409
 4121TIP3    H133922   3.001   2.114   7.319
 4121TIP3    H233923   2.914   2.123   7.443
 4122TIP3   OH233924   5.939   6.612   7.292
 4122TIP3    H133925   5.885   6.627   7.214
 4122TIP3    H233926   5.915   6.684   7.351
 4123TIP3   OH233927   2.036   4.287   6.882
 4123TIP3    H133928   2.035   4.250   6.793
 4123TIP3    H233929   2.111   4.244   6.924
 4124TIP3   OH233930   1.933   2.751   1.815
 4124TIP3    H133931   1.899   2.825   1.765
 4124TIP3    H233932   1.939   2.679   1.751
 4125TIP3   OH233933   6.289   5.851   1.731
 4125TIP3    H133934   6.245   5.810   1.656
 4125TIP3    H233935   6.218   5.890   1.781
 4126TIP3   OH233936   3.982   1.578   7.356
 4126TIP3    H133937   3.936   1.500   7.387
 4126TIP3    H233938   3.971   1.642   7.426
 4127TIP3   OH233939   4.589   1.036   1.943
 4127TIP3    H133940   4.583   0.955   1.993
 4127TIP3    H233941   4.556   1.013   1.856
 4128TIP3   OH233942   6.033   1.920   2.158
 4128TIP3    H133943   6.079   2.003   2.171
 4128TIP3    H233944   6.007   1.893   2.246
 4129TIP3   OH233945   3.075   5.632   8.142
 4129TIP3    H133946   3.084   5.538   8.131
 4129TIP3    H233947   3.112   5.669   8.062
 4130TIP3   OH233948   2.371   2.748   6.468
 4130TIP3    H133949   2.464   2.766   6.454
 4130TIP3    H233950   2.338   2.722   6.382
 4131TIP3   OH233951   4.685   0.812   8.545
 4131TIP3    H133952   4.593   0.814   8.519
 4131TIP3    H233953   4.685   0.768   8.629
 4132TIP3   OH233954   6.705   3.779   2.231
 4132TIP3    H133955   6.799   3.784   2.209
 4132TIP3    H233956   6.662   3.766   2.146
 4133TIP3   OH233957   5.847   3.806   0.846
 4133TIP3    H133958   5.873   3.887   0.801
 4133TIP3    H233959   5.763   3.828   0.887
 4134TIP3   OH233960   4.982   1.481   0.820
 4134TIP3    H133961   5.024   1.412   0.870
 4134TIP3    H233962   5.019   1.562   0.856
 4135TIP3   OH233963   6.443   1.099   0.308
 4135TIP3    H133964   6.398   1.030   0.358
 4135TIP3    H233965   6.525   1.059   0.280
 4136TIP3   OH233966   3.531   5.531   0.330
 4136TIP3    H133967   3.615   5.496   0.360
 4136TIP3    H233968   3.466   5.485   0.382
 4137TIP3   OH233969   1.586   1.957   8.462
 4137TIP3    H133970   1.604   1.886   8.524
 4137TIP3    H233971   1.490   1.960   8.458
 4138TIP3   OH233972   5.858   2.147   0.935
 4138TIP3    H133973   5.918   2.084   0.975
 4138TIP3    H233974   5.839   2.209   1.005
 4139TIP3   OH233975   1.245   4.217   7.991
 4139TIP3    H133976   1.304   4.198   7.917
 4139TIP3    H233977   1.257   4.310   8.007
 4140TIP3   OH233978   5.452   5.077   0.598
 4140TIP3    H133979   5.375   5.042   0.553
 4140TIP3    H233980   5.518   5.085   0.530
 4141TIP3   OH233981   6.881   2.107   6.517
 4141TIP3    H133982   0.079   2.126   6.469
 4141TIP3    H233983   6.835   2.043   6.463
 4142TIP3   OH233984   3.140   1.412   1.637
 4142TIP3    H133985   3.161   1.437   1.547
 4142TIP3    H233986   3.211   1.354   1.663
 4143TIP3   OH233987   0.085   2.800   8.439
 4143TIP3    H133988   0.015   2.786   8.375
 4143TIP3    H233989   0.157   2.744   8.410
 4144TIP3   OH233990   4.409   6.437   7.491
 4144TIP3    H133991   4.396   6.348   7.524
 4144TIP3    H233992   4.324   6.461   7.454
 4145TIP3   OH233993   4.437   6.593   7.826
 4145TIP3    H133994   4.359   6.641   7.797
 4145TIP3    H233995   4.402   6.522   7.880
 4146TIP3   OH233996   0.324   4.046   7.414
 4146TIP3    H133997   0.409   4.012   7.442
 4146TIP3    H233998   0.346   4.116   7.352
 4147TIP3   OH233999   2.867   3.360   1.169
 4147TIP3    H134000   2.912   3.318   1.243
 4147TIP3    H234001   2.938   3.395   1.115
 4148TIP3   OH234002   2.608   6.263   7.970
 4148TIP3    H134003   2.649   6.291   7.889
 4148TIP3    H234004   2.589   6.344   8.017
 4149TIP3   OH234005   2.791   1.774   1.901
 4149TIP3    H134006   2.791   1.856   1.951
 4149TIP3    H234007   2.757   1.708   1.962
 4150TIP3   OH234008   3.878   1.005   7.632
 4150TIP3    H134009   3.857   1.066   7.702
 4150TIP3    H234010   3.943   1.051   7.579
 4151TIP3   OH234011   3.696   3.248   7.144
 4151TIP3    H134012   3.663   3.293   7.067
 4151TIP3    H234013   3.618   3.216   7.189
 4152TIP3   OH234014   3.798   5.794   8.462
 4152TIP3    H134015   3.892   5.781   8.468
 4152TIP3    H234016   3.766   5.715   8.418
 4153TIP3   OH234017   3.986   2.168   1.978
 4153TIP3    H134018   4.038   2.096   2.014
 4153TIP3    H234019   3.925   2.191   2.047
 4154TIP3   OH234020   0.411   6.190   8.172
 4154TIP3    H134021   0.423   6.229   8.086
 4154TIP3    H234022   0.486   6.221   8.224
 4155TIP3   OH234023   4.535   6.874   8.095
 4155TIP3    H134024   4.498   0.073   8.128
 4155TIP3    H234025   4.538   6.817   8.172
 4156TIP3   OH234026   3.023   1.694   7.687
 4156TIP3    H134027   3.004   1.690   7.593
 4156TIP3    H234028   3.093   1.630   7.700
 4157TIP3   OH234029   1.183   3.692   0.080
 4157TIP3    H134030   1.206   3.766   0.023
 4157TIP3    H234031   1.267   3.652   0.102
 4158TIP3   OH234032   6.319   1.214   8.170
 4158TIP3    H134033   6.346   1.142   8.112
 4158TIP3    H234034   6.267   1.271   8.114
 4159TIP3   OH234035   3.319   2.599   6.950
 4159TIP3    H134036   3.245   2.644   6.908
 4159TIP3    H234037   3.286   2.511   6.968
 4160TIP3   OH234038   0.707   2.551   1.521
 4160TIP3    H134039   0.733   2.612   1.452
 4160TIP3    H234040   0.731   2.595   1.603
 4161TIP3   OH234041   1.984   1.326   6.995
 4161TIP3    H134042   1.953   1.417   6.995
 4161TIP3    H234043   1.921   1.280   7.051
 4162TIP3   OH234044   2.033   0.543   7.944
 4162TIP3    H134045   1.985   0.603   8.001
 4162TIP3    H234046   1.994   0.555   7.858
 4163TIP3   OH234047   6.405   5.393   7.224
 4163TIP3    H134048   6.436   5.435   7.144
 4163TIP3    H234049   6.418   5.459   7.292
 4164TIP3   OH234050   0.869   6.062   1.949
 4164TIP3    H134051   0.851   6.025   2.036
 4164TIP3    H234052   0.801   6.129   1.938
 4165TIP3   OH234053   6.030   1.749   2.376
 4165TIP3    H134054   6.070   1.709   2.454
 4165TIP3    H234055   5.995   1.676   2.326
 4166TIP3   OH234056   6.815   3.440   7.027
 4166TIP3    H134057   6.767   3.467   6.949
 4166TIP3    H234058   6.774   3.488   7.099
 4167TIP3   OH234059   6.324   5.935   8.221
 4167TIP3    H134060   6.236   5.933   8.259
 4167TIP3    H234061   6.369   6.004   8.269
 4168TIP3   OH234062   5.399   2.619   0.789
 4168TIP3    H134063   5.431   2.540   0.832
 4168TIP3    H234064   5.424   2.608   0.697
 4169TIP3   OH234065   6.205   4.222   8.421
 4169TIP3    H134066   6.280   4.260   8.375
 4169TIP3    H234067   6.230   4.131   8.438
 4170TIP3   OH234068   1.968   4.944   0.836
 4170TIP3    H134069   2.023   4.867   0.848
 4170TIP3    H234070   1.937   4.966   0.924
 4171TIP3   OH234071   4.335   4.089   8.616
 4171TIP3    H134072   4.287   4.145   0.046
 4171TIP3    H234073   4.392   4.035   0.039
 4172TIP3   OH234074   0.175   4.862   1.043
 4172TIP3    H134075   0.097   4.895   0.998
 4172TIP3    H234076   0.235   4.839   0.973
 4173TIP3   OH234077   5.601   0.837   0.835
 4173TIP3    H134078   5.541   0.849   0.909
 4173TIP3    H234079   5.688   0.847   0.872
 4174TIP3   OH234080   3.246   3.562   7.791
 4174TIP3    H134081   3.314   3.569   7.724
 4174TIP3    H234082   3.294   3.545   7.872
 4175TIP3   OH234083   3.787   0.340   0.506
 4175TIP3    H134084   3.861   0.279   0.513
 4175TIP3    H234085   3.787   0.387   0.590
 4176TIP3   OH234086   5.903   3.804   7.837
 4176TIP3    H134087   5.835   3.833   7.897
 4176TIP3    H234088   5.893   3.860   7.760
 4177TIP3   OH234089   4.448   2.247   7.671
 4177TIP3    H134090   4.381   2.281   7.613
 4177TIP3    H234091   4.419   2.271   7.759
 4178TIP3   OH234092   6.010   3.387   7.467
 4178TIP3    H134093   6.043   3.302   7.495
 4178TIP3    H234094   5.947   3.412   7.535
 4179TIP3   OH234095   0.586   3.241   7.984
 4179TIP3    H134096   0.596   3.336   7.977
 4179TIP3    H234097   0.565   3.212   7.895
 4180TIP3   OH234098   0.241   6.557   1.167
 4180TIP3    H134099   0.217   6.551   1.074
 4180TIP3    H234100   0.163   6.592   1.209
 4181TIP3   OH234101   5.594   5.537   7.196
 4181TIP3    H134102   5.592   5.447   7.230
 4181TIP3    H234103   5.687   5.559   7.193
 4182TIP3   OH234104   6.644   4.457   6.847
 4182TIP3    H134105   6.557   4.460   6.809
 4182TIP3    H234106   6.665   4.548   6.867
 4183TIP3   OH234107   1.681   3.163   7.272
 4183TIP3    H134108   1.594   3.136   7.242
 4183TIP3    H234109   1.675   3.163   7.367
 4184TIP3   OH234110   6.690   4.562   7.253
 4184TIP3    H134111   6.687   4.656   7.237
 4184TIP3    H234112   6.598   4.535   7.253
 4185TIP3   OH234113   4.197   3.638   6.520
 4185TIP3    H134114   4.107   3.606   6.511
 4185TIP3    H234115   4.250   3.572   6.476
 4186TIP3   OH234116   0.124   0.179   1.764
 4186TIP3    H134117   0.114   0.202   1.856
 4186TIP3    H234118   0.153   0.088   1.765
 4187TIP3   OH234119   0.601   6.625   1.057
 4187TIP3    H134120   0.638   6.707   1.088
 4187TIP3    H234121   0.604   6.567   1.134
 4188TIP3   OH234122   4.467   4.333   0.659
 4188TIP3    H134123   4.505   4.355   0.574
 4188TIP3    H234124   4.534   4.280   0.702
 4189TIP3   OH234125   1.961   0.420   0.385
 4189TIP3    H134126   1.966   0.482   0.313
 4189TIP3    H234127   2.022   0.350   0.361
 4190TIP3   OH234128   2.813   1.391   0.114
 4190TIP3    H134129   2.752   1.318   0.117
 4190TIP3    H234130   2.894   1.356   0.152
 4191TIP3   OH234131   1.140   0.655   1.023
 4191TIP3    H134132   1.128   0.637   0.930
 4191TIP3    H234133   1.051   0.662   1.058
 4192TIP3   OH234134   0.678   0.607   0.319
 4192TIP3    H134135   0.622   0.684   0.323
 4192TIP3    H234136   0.678   0.572   0.409
 4193TIP3   OH234137   4.132   0.304   0.877
 4193TIP3    H134138   4.213   0.309   0.826
 4193TIP3    H234139   4.134   0.217   0.916
 4194TIP3   OH234140   0.614   3.824   8.403
 4194TIP3    H134141   0.623   3.880   8.326
 4194TIP3    H234142   0.578   3.742   8.369
 4195TIP3   OH234143   6.498   2.627   6.953
 4195TIP3    H134144   6.526   2.538   6.973
 4195TIP3    H234145   6.560   2.658   6.887
 4196TIP3   OH234146   0.703   0.241   8.275
 4196TIP3    H134147   0.767   0.220   8.344
 4196TIP3    H234148   0.689   0.335   8.284
 4197TIP3   OH234149   6.681   3.167   1.236
 4197TIP3    H134150   6.638   3.082   1.228
 4197TIP3    H234151   6.616   3.229   1.203
 4198TIP3   OH234152   4.615   1.164   0.887
 4198TIP3    H134153   4.659   1.202   0.811
 4198TIP3    H234154   4.687   1.148   0.949
 4199TIP3   OH234155   1.670   4.006   7.251
 4199TIP3    H134156   1.646   4.050   7.333
 4199TIP3    H234157   1.609   4.040   7.186
 4200TIP3   OH234158   4.112   6.706   7.522
 4200TIP3    H134159   4.020   6.720   7.499
 4200TIP3    H234160   4.138   6.629   7.471
 4201TIP3   OH234161   3.760   0.737   1.553
 4201TIP3    H134162   3.682   0.769   1.598
 4201TIP3    H234163   3.814   0.700   1.622
 4202TIP3   OH234164   3.042   4.112   7.305
 4202TIP3    H134165   2.988   4.055   7.250
 4202TIP3    H234166   3.119   4.058   7.327
 4203TIP3   OH234167   3.382   6.486   0.750
 4203TIP3    H134168   3.352   6.427   0.681
 4203TIP3    H234169   3.450   6.539   0.709
 4204TIP3   OH234170   4.285   0.530   2.058
 4204TIP3    H134171   4.289   0.572   2.144
 4204TIP3    H234172   4.292   0.437   2.076
 4205TIP3   OH234173   5.600   6.859   6.471
 4205TIP3    H134174   5.625   6.882   6.561
 4205TIP3    H234175   5.671   6.803   6.440
 4206TIP3   OH234176   3.168   2.388   7.045
 4206TIP3    H134177   3.200   2.367   7.133
 4206TIP3    H234178   3.093   2.446   7.060
 4207TIP3   OH234179   2.240   2.903   7.982
 4207TIP3    H134180   2.153   2.867   7.966
 4207TIP3    H234181   2.250   2.900   8.078
 4208TIP3   OH234182   4.228   5.783   7.204
 4208TIP3    H134183   4.151   5.834   7.180
 4208TIP3    H234184   4.262   5.750   7.121
 4209TIP3   OH234185   1.825   2.662   8.327
 4209TIP3    H134186   1.860   2.573   8.319
 4209TIP3    H234187   1.730   2.652   8.316
 4210TIP3   OH234188   4.623   1.664   7.152
 4210TIP3    H134189   4.563   1.700   7.088
 4210TIP3    H234190   4.681   1.606   7.102
 4211TIP3   OH234191   1.676   0.670   0.256
 4211TIP3    H134192   1.718   0.741   0.305
 4211TIP3    H234193   1.748   0.617   0.223
 4212TIP3   OH234194   3.848   2.236   1.268
 4212TIP3    H134195   3.778   2.292   1.302
 4212TIP3    H234196   3.833   2.233   1.174
 4213TIP3   OH234197   3.871   6.398   2.515
 4213TIP3    H134198   3.823   6.319   2.539
 4213TIP3    H234199   3.838   6.465   2.576
 4214TIP3   OH234200   0.799   2.546   7.170
 4214TIP3    H134201   0.835   2.518   7.086
 4214TIP3    H234202   0.732   2.481   7.190
 4215TIP3   OH234203   4.436   3.485   7.766
 4215TIP3    H134204   4.349   3.497   7.805
 4215TIP3    H234205   4.470   3.405   7.808
 4216TIP3   OH234206   0.544   1.878   0.000
 4216TIP3    H134207   0.619   1.819   8.630
 4216TIP3    H234208   0.570   1.949   0.059
 4217TIP3   OH234209   5.363   0.338   7.889
 4217TIP3    H134210   5.397   0.393   7.818
 4217TIP3    H234211   5.312   0.397   7.943
 4218TIP3   OH234212   4.225   5.314   1.331
 4218TIP3    H134213   4.189   5.380   1.272
 4218TIP3    H234214   4.310   5.292   1.293
 4219TIP3   OH234215   6.406   6.843   8.240
 4219TIP3    H134216   6.394   6.879   8.152
 4219TIP3    H234217   6.463   6.767   8.226
 4220TIP3   OH234218   5.387   2.202   8.109
 4220TIP3    H134219   5.379   2.116   8.066
 4220TIP3    H234220   5.416   2.261   8.040
 4221TIP3   OH234221   5.692   1.252   7.303
 4221TIP3    H134222   5.765   1.192   7.312
 4221TIP3    H234223   5.632   1.209   7.241
 4222TIP3   OH234224   5.566   5.525   7.538
 4222TIP3    H134225   5.634   5.464   7.568
 4222TIP3    H234226   5.570   5.520   7.443
 4223TIP3   OH234227   3.394   5.977   0.843
 4223TIP3    H134228   3.337   6.045   0.880
 4223TIP3    H234229   3.334   5.912   0.808
 4224TIP3   OH234230   1.336   3.050   8.425
 4224TIP3    H134231   1.309   3.104   8.499
 4224TIP3    H234232   1.306   2.962   8.448
 4225TIP3   OH234233   4.176   0.733   1.279
 4225TIP3    H134234   4.137   0.804   1.227
 4225TIP3    H234235   4.108   0.667   1.284
 4226TIP3   OH234236   2.225   1.078   6.613
 4226TIP3    H134237   2.208   1.110   6.701
 4226TIP3    H234238   2.311   1.036   6.619
 4227TIP3   OH234239   0.454   2.406   7.891
 4227TIP3    H134240   0.539   2.365   7.874
 4227TIP3    H234241   0.471   2.467   7.963
 4228TIP3   OH234242   1.167   3.447   8.408
 4228TIP3    H134243   1.253   3.488   8.411
 4228TIP3    H234244   1.137   3.448   8.499
 4229TIP3   OH234245   2.401   6.357   7.510
 4229TIP3    H134246   2.345   6.355   7.432
 4229TIP3    H234247   2.339   6.363   7.583
 4230TIP3   OH234248   4.408   3.243   5.958
 4230TIP3    H134249   4.433   3.313   6.019
 4230TIP3    H234250   4.491   3.208   5.927
 4231TIP3   OH234251   5.908   0.869   7.165
 4231TIP3    H134252   5.972   0.798   7.175
 4231TIP3    H234253   5.833   0.827   7.123
 4232TIP3   OH234254   2.121   2.493   0.081
 4232TIP3    H134255   2.072   2.411   0.081
 4232TIP3    H234256   2.058   2.560   0.055
 4233TIP3   OH234257   0.102   0.897   6.648
 4233TIP3    H134258   0.103   0.939   6.734
 4233TIP3    H234259   0.134   0.964   6.588
 4234TIP3   OH234260   2.207   0.133   1.911
 4234TIP3    H134261   2.264   0.208   1.924
 4234TIP3    H234262   2.246   0.064   1.965
 4235TIP3   OH234263   2.572   0.641   8.484
 4235TIP3    H134264   2.506   0.689   8.533
 4235TIP3    H234265   2.537   0.635   8.395
 4236TIP3   OH234266   3.917   3.255   0.626
 4236TIP3    H134267   3.977   3.214   0.688
 4236TIP3    H234268   3.955   3.234   0.540
 4237TIP3   OH234269   3.648   1.164   0.187
 4237TIP3    H134270   3.608   1.127   0.267
 4237TIP3    H234271   3.718   1.220   0.219
 4238TIP3   OH234272   3.277   0.777   6.679
 4238TIP3    H134273   3.346   0.829   6.639
 4238TIP3    H234274   3.211   0.768   6.610
 4239TIP3   OH234275   3.801   2.543   1.468
 4239TIP3    H134276   3.759   2.479   1.410
 4239TIP3    H234277   3.729   2.585   1.514
 4240TIP3   OH234278   3.789   3.028   7.720
 4240TIP3    H134279   3.798   3.030   7.816
 4240TIP3    H234280   3.841   3.103   7.690
 4241TIP3   OH234281   0.631   1.167   1.604
 4241TIP3    H134282   0.715   1.209   1.584
 4241TIP3    H234283   0.637   1.081   1.562
 4242TIP3   OH234284   2.153   1.032   0.225
 4242TIP3    H134285   2.075   1.076   0.194
 4242TIP3    H234286   2.207   1.018   0.147
 4243TIP3   OH234287   0.357   1.510   7.933
 4243TIP3    H134288   0.307   1.552   8.002
 4243TIP3    H234289   0.294   1.496   7.862
 4244TIP3   OH234290   0.818   6.853   7.418
 4244TIP3    H134291   0.735   6.811   7.396
 4244TIP3    H234292   0.883   6.808   7.365
 4245TIP3   OH234293   2.497   4.952   1.385
 4245TIP3    H134294   2.522   5.002   1.463
 4245TIP3    H234295   2.472   5.019   1.321
 4246TIP3   OH234296   2.277   6.596   8.592
 4246TIP3    H134297   2.208   6.571   0.021
 4246TIP3    H234298   2.231   6.634   8.517
 4247TIP3   OH234299   6.413   3.586   0.058
 4247TIP3    H134300   6.361   3.563   8.613
 4247TIP3    H234301   6.501   3.552   0.039
 4248TIP3   OH234302   0.059   5.806   2.477
 4248TIP3    H134303   6.879   5.742   2.443
 4248TIP3    H234304   0.014   5.847   2.551
 4249TIP3   OH234305   3.018   3.382   7.716
 4249TIP3    H134306   3.062   3.370   7.800
 4249TIP3    H234307   3.047   3.307   7.663
 4250TIP3   OH234308   2.776   3.724   7.595
 4250TIP3    H134309   2.811   3.758   7.513
 4250TIP3    H234310   2.774   3.629   7.583
 4251TIP3   OH234311   0.232   1.639   2.202
 4251TIP3    H134312   0.307   1.634   2.261
 4251TIP3    H234313   0.170   1.696   2.248
 4252TIP3   OH234314   6.357   4.412   0.443
 4252TIP3    H134315   6.292   4.386   0.377
 4252TIP3    H234316   6.381   4.502   0.418
 4253TIP3   OH234317   3.939   6.746   6.981
 4253TIP3    H134318   3.879   6.813   6.948
 4253TIP3    H234319   3.882   6.672   7.001
 4254TIP3   OH234320   3.066   0.234   6.021
 4254TIP3    H134321   3.036   0.325   6.020
 4254TIP3    H234322   3.155   0.239   6.057
 4255TIP3   OH234323   6.053   0.996   2.124
 4255TIP3    H134324   5.983   1.032   2.178
 4255TIP3    H234325   6.092   0.927   2.177
 4256TIP3   OH234326   3.488   0.209   0.817
 4256TIP3    H134327   3.556   0.209   0.885
 4256TIP3    H234328   3.461   0.300   0.810
 4257TIP3   OH234329   6.005   4.645   0.185
 4257TIP3    H134330   5.959   4.623   0.266
 4257TIP3    H234331   5.975   4.734   0.165
 4258TIP3   OH234332   1.875   5.564   8.166
 4258TIP3    H134333   1.861   5.505   8.091
 4258TIP3    H234334   1.862   5.509   8.243
 4259TIP3   OH234335   2.018   6.476   1.776
 4259TIP3    H134336   1.987   6.538   1.842
 4259TIP3    H234337   2.008   6.390   1.817
 4260TIP3   OH234338   4.859   0.055   1.943
 4260TIP3    H134339   4.901   0.082   2.025
 4260TIP3    H234340   4.923   0.075   1.875
 4261TIP3   OH234341   0.203   3.861   1.445
 4261TIP3    H134342   0.250   3.890   1.523
 4261TIP3    H234343   0.116   3.836   1.477
 4262TIP3   OH234344   4.313   2.091   6.857
 4262TIP3    H134345   4.366   2.049   6.789
 4262TIP3    H234346   4.355   2.066   6.939
 4263TIP3   OH234347   2.297   4.370   8.622
 4263TIP3    H134348   2.252   4.345   0.071
 4263TIP3    H234349   2.272   4.462   8.608
 4264TIP3   OH234350   2.028   1.657   7.150
 4264TIP3    H134351   2.088   1.602   7.202
 4264TIP3    H234352   1.945   1.610   7.152
 4265TIP3   OH234353   3.249   3.564   6.614
 4265TIP3    H134354   3.167   3.600   6.581
 4265TIP3    H234355   3.245   3.577   6.708
 4266TIP3   OH234356   1.178   0.045   1.603
 4266TIP3    H134357   1.086   0.061   1.580
 4266TIP3    H234358   1.175   6.853   1.662
 4267TIP3   OH234359   3.103   5.769   7.207
 4267TIP3    H134360   3.128   5.763   7.114
 4267TIP3    H234361   3.119   5.681   7.241
 4268TIP3   OH234362   5.124   0.478   0.236
 4268TIP3    H134363   5.131   0.413   0.166
 4268TIP3    H234364   5.076   0.550   0.197
 4269TIP3   OH234365   1.305   3.974   8.627
 4269TIP3    H134366   1.211   3.984   0.015
 4269TIP3    H234367   1.324   4.043   8.564
 4270TIP3   OH234368   1.589   0.605   0.579
 4270TIP3    H134369   1.582   0.559   0.663
 4270TIP3    H234370   1.498   0.619   0.552
 4271TIP3   OH234371   0.452   4.577   0.543
 4271TIP3    H134372   0.444   4.520   0.620
 4271TIP3    H234373   0.546   4.580   0.525
 4272TIP3   OH234374   3.531   5.631   0.848
 4272TIP3    H134375   3.479   5.679   0.911
 4272TIP3    H234376   3.509   5.670   0.763
 4273TIP3   OH234377   4.524   3.028   8.337
 4273TIP3    H134378   4.491   2.959   8.393
 4273TIP3    H234379   4.580   2.984   8.273
 4274TIP3   OH234380   0.640   3.977   8.171
 4274TIP3    H134381   0.602   4.013   8.091
 4274TIP3    H234382   0.730   3.956   8.148
 4275TIP3   OH234383   6.850   1.280   7.977
 4275TIP3    H134384   6.836   1.211   8.041
 4275TIP3    H234385   6.829   1.239   7.893
 4276TIP3   OH234386   3.785   6.609   6.036
 4276TIP3    H134387   3.690   6.606   6.022
 4276TIP3    H234388   3.806   6.703   6.038
 4277TIP3   OH234389   3.727   4.292   7.370
 4277TIP3    H134390   3.798   4.237   7.337
 4277TIP3    H234391   3.772   4.368   7.408
 4278TIP3   OH234392   5.079   5.833   0.767
 4278TIP3    H134393   5.019   5.908   0.766
 4278TIP3    H234394   5.029   5.762   0.727
 4279TIP3   OH234395   3.765   2.594   1.110
 4279TIP3    H134396   3.694   2.538   1.079
 4279TIP3    H234397   3.783   2.565   1.199
 4280TIP3   OH234398   3.118   0.220   0.870
 4280TIP3    H134399   3.188   0.156   0.863
 4280TIP3    H234400   3.073   0.197   0.952
 4281TIP3   OH234401   4.203   4.988   7.791
 4281TIP3    H134402   4.238   4.980   7.702
 4281TIP3    H234403   4.168   5.078   7.795
 4282TIP3   OH234404   3.648   3.762   7.014
 4282TIP3    H134405   3.638   3.714   6.932
 4282TIP3    H234406   3.742   3.764   7.030
 4283TIP3   OH234407   6.442   1.211   1.902
 4283TIP3    H134408   6.536   1.225   1.892
 4283TIP3    H234409   6.433   1.171   1.989
 4284TIP3   OH234410   5.759   5.581   8.160
 4284TIP3    H134411   5.804   5.602   8.242
 4284TIP3    H234412   5.775   5.487   8.147
 4285TIP3   OH234413   0.432   3.820   1.906
 4285TIP3    H134414   0.393   3.760   1.969
 4285TIP3    H234415   0.431   3.905   1.949
 4286TIP3   OH234416   4.862   6.280   7.425
 4286TIP3    H134417   4.942   6.323   7.456
 4286TIP3    H234418   4.798   6.351   7.419
 4287TIP3   OH234419   0.003   5.535   8.278
 4287TIP3    H134420   0.002   5.540   8.182
 4287TIP3    H234421   0.072   5.470   8.297
 4288TIP3   OH234422   2.388   3.352   7.382
 4288TIP3    H134423   2.352   3.348   7.293
 4288TIP3    H234424   2.412   3.444   7.394
 4289TIP3   OH234425   3.439   6.599   2.529
 4289TIP3    H134426   3.479   6.585   2.444
 4289TIP3    H234427   3.472   6.528   2.584
 4290TIP3   OH234428   2.189   3.671   0.339
 4290TIP3    H134429   2.200   3.720   0.420
 4290TIP3    H234430   2.211   3.581   0.362
 4291TIP3   OH234431   1.560   0.188   1.969
 4291TIP3    H134432   1.476   0.168   1.927
 4291TIP3    H234433   1.618   0.213   1.897
 4292TIP3   OH234434   0.268   6.154   7.002
 4292TIP3    H134435   0.220   6.156   6.919
 4292TIP3    H234436   0.322   6.075   6.996
 4293TIP3   OH234437   4.113   1.926   0.528
 4293TIP3    H134438   4.194   1.892   0.490
 4293TIP3    H234439   4.131   1.930   0.622
 4294TIP3   OH234440   0.993   0.043   7.668
 4294TIP3    H134441   1.085   0.061   7.647
 4294TIP3    H234442   0.961   6.876   7.593
 4295TIP3   OH234443   6.326   0.314   6.670
 4295TIP3    H134444   6.278   0.327   6.752
 4295TIP3    H234445   6.408   0.273   6.697
 4296TIP3   OH234446   2.158   4.644   0.364
 4296TIP3    H134447   2.187   4.642   0.273
 4296TIP3    H234448   2.201   4.570   0.406
 4297TIP3   OH234449   2.648   1.736   7.568
 4297TIP3    H134450   2.671   1.677   7.640
 4297TIP3    H234451   2.568   1.780   7.598
 4298TIP3   OH234452   6.645   2.813   7.788
 4298TIP3    H134453   6.645   2.734   7.734
 4298TIP3    H234454   6.565   2.859   7.763
 4299TIP3   OH234455   3.942   1.744   0.991
 4299TIP3    H134456   3.964   1.658   1.025
 4299TIP3    H234457   3.982   1.806   1.052
 4300TIP3   OH234458   2.044   0.889   1.613
 4300TIP3    H134459   2.083   0.815   1.660
 4300TIP3    H234460   2.119   0.941   1.584
 4301TIP3   OH234461   0.831   5.333   1.717
 4301TIP3    H134462   0.838   5.375   1.632
 4301TIP3    H234463   0.747   5.285   1.713
 4302TIP3   OH234464   3.604   4.448   8.141
 4302TIP3    H134465   3.562   4.442   8.227
 4302TIP3    H234466   3.559   4.382   8.088
 4303TIP3   OH234467   6.850   1.784   8.390
 4303TIP3    H134468   0.061   1.798   8.394
 4303TIP3    H234469   6.834   1.712   8.451
 4304TIP3   OH234470   3.612   2.130   0.417
 4304TIP3    H134471   3.552   2.204   0.422
 4304TIP3    H234472   3.699   2.169   0.415
 4305TIP3   OH234473   2.087   3.980   1.051
 4305TIP3    H134474   2.143   4.057   1.042
 4305TIP3    H234475   2.093   3.936   0.967
 4306TIP3   OH234476   2.478   3.710   6.715
 4306TIP3    H134477   2.440   3.763   6.645
 4306TIP3    H234478   2.457   3.758   6.795
 4307TIP3   OH234479   5.569   6.566   2.066
 4307TIP3    H134480   5.499   6.581   2.002
 4307TIP3    H234481   5.522   6.554   2.149
 4308TIP3   OH234482   3.524   3.306   0.807
 4308TIP3    H134483   3.555   3.256   0.732
 4308TIP3    H234484   3.487   3.240   0.866
 4309TIP3   OH234485   2.494   0.147   1.962
 4309TIP3    H134486   2.559   0.128   1.894
 4309TIP3    H234487   2.546   0.158   2.042
 4310TIP3   OH234488   6.520   2.937   1.157
 4310TIP3    H134489   6.485   2.960   1.070
 4310TIP3    H234490   6.455   2.971   1.218
 4311TIP3   OH234491   5.025   1.797   7.080
 4311TIP3    H134492   5.041   1.891   7.095
 4311TIP3    H234493   5.061   1.780   6.993
 4312TIP3   OH234494   4.415   6.563   1.152
 4312TIP3    H134495   4.350   6.550   1.222
 4312TIP3    H234496   4.414   6.481   1.103
 4313TIP3   OH234497   2.167   1.741   1.057
 4313TIP3    H134498   2.145   1.834   1.064
 4313TIP3    H234499   2.263   1.740   1.057
 4314TIP3   OH234500   1.156   1.522   6.615
 4314TIP3    H134501   1.211   1.599   6.604
 4314TIP3    H234502   1.125   1.527   6.706
 4315TIP3   OH234503   0.774   0.311   6.771
 4315TIP3    H134504   0.732   0.293   6.686
 4315TIP3    H234505   0.701   0.324   6.831
 4316TIP3   OH234506   3.662   0.270   1.020
 4316TIP3    H134507   3.739   0.234   1.064
 4316TIP3    H234508   3.684   0.362   1.005
 4317TIP3   OH234509   2.466   3.725   7.634
 4317TIP3    H134510   2.429   3.690   7.715
 4317TIP3    H234511   2.557   3.746   7.656
 4318TIP3   OH234512   0.132   4.723   7.788
 4318TIP3    H134513   0.042   4.694   7.804
 4318TIP3    H234514   0.178   4.704   7.870
 4319TIP3   OH234515   6.138   6.288   7.116
 4319TIP3    H134516   6.065   6.328   7.069
 4319TIP3    H234517   6.135   6.327   7.204
 4320TIP3   OH234518   5.753   4.234   6.123
 4320TIP3    H134519   5.700   4.312   6.140
 4320TIP3    H234520   5.756   4.188   6.208
 4321TIP3   OH234521   6.742   1.759   8.092
 4321TIP3    H134522   6.741   1.669   8.057
 4321TIP3    H234523   6.771   1.749   8.182
 4322TIP3   OH234524   4.850   5.766   7.083
 4322TIP3    H134525   4.794   5.844   7.085
 4322TIP3    H234526   4.932   5.797   7.044
 4323TIP3   OH234527   5.708   2.290   6.307
 4323TIP3    H134528   5.725   2.269   6.215
 4323TIP3    H234529   5.789   2.333   6.336
 4324TIP3   OH234530   6.749   5.770   0.300
 4324TIP3    H134531   6.708   5.696   0.255
 4324TIP3    H234532   6.738   5.752   0.393
 4325TIP3   OH234533   1.242   2.356   0.697
 4325TIP3    H134534   1.191   2.431   0.726
 4325TIP3    H234535   1.206   2.281   0.745
 4326TIP3   OH234536   5.398   2.052   1.388
 4326TIP3    H134537   5.362   1.965   1.404
 4326TIP3    H234538   5.322   2.107   1.372
 4327TIP3   OH234539   0.994   6.214   7.310
 4327TIP3    H134540   0.986   6.138   7.252
 4327TIP3    H234541   1.044   6.277   7.259
 4328TIP3   OH234542   0.688   2.270   7.875
 4328TIP3    H134543   0.718   2.254   7.785
 4328TIP3    H234544   0.735   2.207   7.928
 4329TIP3   OH234545   3.741   4.129   1.736
 4329TIP3    H134546   3.825   4.105   1.775
 4329TIP3    H234547   3.700   4.045   1.716
 4330TIP3   OH234548   6.675   3.017   0.325
 4330TIP3    H134549   6.728   3.019   0.405
 4330TIP3    H234550   6.635   3.104   0.321
 4331TIP3   OH234551   4.565   5.868   1.186
 4331TIP3    H134552   4.645   5.822   1.158
 4331TIP3    H234553   4.597   5.942   1.237
 4332TIP3   OH234554   1.842   5.332   0.328
 4332TIP3    H134555   1.829   5.410   0.382
 4332TIP3    H234556   1.777   5.270   0.362
 4333TIP3   OH234557   5.204   1.019   1.248
 4333TIP3    H134558   5.223   1.081   1.177
 4333TIP3    H234559   5.135   1.061   1.299
 4334TIP3   OH234560   4.352   4.809   0.989
 4334TIP3    H134561   4.385   4.826   1.078
 4334TIP3    H234562   4.305   4.726   0.997
 4335TIP3   OH234563   6.079   0.772   0.946
 4335TIP3    H134564   6.090   0.769   1.041
 4335TIP3    H234565   6.033   0.854   0.930
 4336TIP3   OH234566   0.133   5.002   7.839
 4336TIP3    H134567   0.066   5.002   7.908
 4336TIP3    H234568   0.125   4.915   7.799
 4337TIP3   OH234569   6.436   1.153   2.168
 4337TIP3    H134570   6.438   1.065   2.205
 4337TIP3    H234571   6.484   1.207   2.231
 4338TIP3   OH234572   4.121   2.270   1.285
 4338TIP3    H134573   4.135   2.260   1.379
 4338TIP3    H234574   4.026   2.273   1.275
 4339TIP3   OH234575   6.349   4.161   7.400
 4339TIP3    H134576   6.345   4.184   7.307
 4339TIP3    H234577   6.388   4.074   7.401
 4340TIP3   OH234578   3.526   4.112   6.765
 4340TIP3    H134579   3.449   4.070   6.726
 4340TIP3    H234580   3.537   4.068   6.849
 4341TIP3   OH234581   1.639   5.162   1.807
 4341TIP3    H134582   1.664   5.187   1.896
 4341TIP3    H234583   1.577   5.230   1.781
 4342TIP3   OH234584   0.459   4.868   0.591
 4342TIP3    H134585   0.519   4.883   0.664
 4342TIP3    H234586   0.476   4.777   0.566
 4343TIP3   OH234587   4.786   5.658   2.453
 4343TIP3    H134588   4.721   5.727   2.471
 4343TIP3    H234589   4.869   5.695   2.484
 4344TIP3   OH234590   5.183   6.604   1.304
 4344TIP3    H134591   5.232   6.522   1.298
 4344TIP3    H234592   5.209   6.642   1.388
 4345TIP3   OH234593   5.753   2.734   8.008
 4345TIP3    H134594   5.736   2.655   8.060
 4345TIP3    H234595   5.772   2.802   8.074
 4346TIP3   OH234596   3.341   0.535   6.465
 4346TIP3    H134597   3.423   0.584   6.462
 4346TIP3    H234598   3.288   0.573   6.395
 4347TIP3   OH234599   4.091   4.098   8.146
 4347TIP3    H134600   4.057   4.171   8.094
 4347TIP3    H234601   4.110   4.135   8.232
 4348TIP3   OH234602   1.008   6.674   1.485
 4348TIP3    H134603   0.943   6.719   1.539
 4348TIP3    H234604   0.991   6.581   1.499
 4349TIP3   OH234605   3.315   3.530   1.994
 4349TIP3    H134606   3.399   3.573   1.981
 4349TIP3    H234607   3.269   3.585   2.058
 4350TIP3   OH234608   0.899   3.815   7.524
 4350TIP3    H134609   0.919   3.761   7.601
 4350TIP3    H234610   0.862   3.896   7.561
 4351TIP3   OH234611   0.670   2.567   7.578
 4351TIP3    H134612   0.726   2.560   7.655
 4351TIP3    H234613   0.621   2.485   7.576
 4352TIP3   OH234614   6.218   3.402   8.590
 4352TIP3    H134615   6.139   3.402   0.013
 4352TIP3    H234616   6.190   3.359   8.509
 4353TIP3   OH234617   6.352   0.423   7.169
 4353TIP3    H134618   6.411   0.348   7.179
 4353TIP3    H234619   6.354   0.467   7.254
 4354TIP3   OH234620   4.344   3.314   7.250
 4354TIP3    H134621   4.429   3.271   7.254
 4354TIP3    H234622   4.313   3.298   7.161
 4355TIP3   OH234623   5.180   2.143   6.938
 4355TIP3    H134624   5.115   2.146   7.009
 4355TIP3    H234625   5.127   2.136   6.859
 4356TIP3   OH234626   0.545   3.840   1.096
 4356TIP3    H134627   0.547   3.763   1.153
 4356TIP3    H234628   0.637   3.862   1.081
 4357TIP3   OH234629   6.629   6.663   1.422
 4357TIP3    H134630   6.626   6.597   1.492
 4357TIP3    H234631   6.590   6.619   1.347
 4358TIP3   OH234632   5.089   0.200   1.023
 4358TIP3    H134633   5.165   0.257   1.029
 4358TIP3    H234634   5.083   0.178   0.930
 4359TIP3   OH234635   6.484   1.977   0.181
 4359TIP3    H134636   6.471   2.070   0.198
 4359TIP3    H234637   6.445   1.963   0.094
 4360TIP3   OH234638   3.481   6.633   8.453
 4360TIP3    H134639   3.494   6.628   8.548
 4360TIP3    H234640   3.388   6.617   8.440
 4361TIP3   OH234641   4.975   6.548   6.191
 4361TIP3    H134642   4.911   6.576   6.256
 4361TIP3    H234643   5.029   6.625   6.175
 4362TIP3   OH234644   5.648   5.864   0.647
 4362TIP3    H134645   5.624   5.884   0.737
 4362TIP3    H234646   5.587   5.915   0.594
 4363TIP3   OH234647   2.016   5.595   1.651
 4363TIP3    H134648   2.071   5.608   1.728
 4363TIP3    H234649   1.939   5.650   1.668
 4364TIP3   OH234650   3.274   5.232   8.086
 4364TIP3    H134651   3.310   5.212   8.172
 4364TIP3    H234652   3.327   5.306   8.055
 4365TIP3   OH234653   4.216   3.227   7.483
 4365TIP3    H134654   4.293   3.170   7.489
 4365TIP3    H234655   4.233   3.281   7.406
 4366TIP3   OH234656   2.452   3.079   7.670
 4366TIP3    H134657   2.403   3.020   7.614
 4366TIP3    H234658   2.393   3.099   7.742
 4367TIP3   OH234659   0.450   5.467   2.099
 4367TIP3    H134660   0.460   5.549   2.148
 4367TIP3    H234661   0.513   5.407   2.138
 4368TIP3   OH234662   0.648   3.382   2.406
 4368TIP3    H134663   0.627   3.399   2.498
 4368TIP3    H234664   0.659   3.287   2.402
 4369TIP3   OH234665   4.353   5.512   6.256
 4369TIP3    H134666   4.356   5.591   6.309
 4369TIP3    H234667   4.441   5.504   6.219
 4370TIP3   OH234668   6.521   5.810   8.475
 4370TIP3    H134669   6.475   5.786   8.394
 4370TIP3    H234670   6.579   5.736   8.492
 4371TIP3   OH234671   1.845   2.239   1.485
 4371TIP3    H134672   1.839   2.233   1.581
 4371TIP3    H234673   1.936   2.217   1.465
 4372TIP3   OH234674   2.195   5.909   6.386
 4372TIP3    H134675   2.222   5.817   6.391
 4372TIP3    H234676   2.106   5.906   6.353
 4373TIP3   OH234677   5.170   2.348   8.626
 4373TIP3    H134678   5.202   2.286   8.559
 4373TIP3    H234679   5.120   2.293   0.055
 4374TIP3   OH234680   0.487   1.241   0.322
 4374TIP3    H134681   0.564   1.200   0.360
 4374TIP3    H234682   0.521   1.315   0.271
 4375TIP3   OH234683   3.666   2.264   7.027
 4375TIP3    H134684   3.759   2.284   7.016
 4375TIP3    H234685   3.630   2.266   6.938
 4376TIP3   OH234686   2.117   2.575   6.370
 4376TIP3    H134687   2.104   2.515   6.443
 4376TIP3    H234688   2.046   2.639   6.378
 4377TIP3   OH234689   5.667   1.741   8.138
 4377TIP3    H134690   5.596   1.689   8.175
 4377TIP3    H234691   5.746   1.702   8.175
 4378TIP3   OH234692   0.205   3.983   2.238
 4378TIP3    H134693   0.268   3.987   2.166
 4378TIP3    H234694   0.150   3.908   2.217
 4379TIP3   OH234695   6.122   2.162   2.257
 4379TIP3    H134696   6.105   2.252   2.231
 4379TIP3    H234697   6.211   2.163   2.292
 4380TIP3   OH234698   1.968   2.070   2.086
 4380TIP3    H134699   2.014   2.149   2.115
 4380TIP3    H234700   1.877   2.086   2.110
 4381TIP3   OH234701   2.282   6.293   7.747
 4381TIP3    H134702   2.313   6.223   7.804
 4381TIP3    H234703   2.276   6.369   7.804
 4382TIP3   OH234704   4.974   6.460   2.007
 4382TIP3    H134705   5.025   6.535   2.036
 4382TIP3    H234706   4.946   6.417   2.087
 4383TIP3   OH234707   4.800   1.792   7.348
 4383TIP3    H134708   4.861   1.862   7.327
 4383TIP3    H234709   4.791   1.741   7.267
 4384TIP3   OH234710   0.248   5.272   0.716
 4384TIP3    H134711   0.179   5.241   0.657
 4384TIP3    H234712   0.218   5.246   0.803
 4385TIP3   OH234713   1.819   0.345   8.296
 4385TIP3    H134714   1.732   0.333   8.332
 4385TIP3    H234715   1.877   0.294   8.353
 4386TIP3   OH234716   6.555   1.869   7.074
 4386TIP3    H134717   6.563   1.779   7.044
 4386TIP3    H234718   6.477   1.903   7.030
 4387TIP3   OH234719   4.152   6.448   7.378
 4387TIP3    H134720   4.099   6.446   7.298
 4387TIP3    H234721   4.161   6.356   7.404
 4388TIP3   OH234722   4.866   4.911   0.373
 4388TIP3    H134723   4.928   4.858   0.323
 4388TIP3    H234724   4.780   4.891   0.335
 4389TIP3   OH234725   5.231   2.685   2.043
 4389TIP3    H134726   5.303   2.684   2.107
 4389TIP3    H234727   5.166   2.744   2.080
 4390TIP3   OH234728   0.279   5.211   1.956
 4390TIP3    H134729   0.284   5.303   1.980
 4390TIP3    H234730   0.274   5.164   2.039
 4391TIP3   OH234731   1.806   6.018   0.537
 4391TIP3    H134732   1.822   6.092   0.595
 4391TIP3    H234733   1.828   6.051   0.449
 4392TIP3   OH234734   6.532   0.617   6.735
 4392TIP3    H134735   6.626   0.637   6.745
 4392TIP3    H234736   6.515   0.625   6.642
 4393TIP3   OH234737   6.213   5.788   0.510
 4393TIP3    H134738   6.263   5.821   0.435
 4393TIP3    H234739   6.143   5.736   0.470
 4394TIP3   OH234740   2.692   5.099   1.939
 4394TIP3    H134741   2.714   5.068   2.026
 4394TIP3    H234742   2.776   5.113   1.896
 4395TIP3   OH234743   1.975   6.603   2.016
 4395TIP3    H134744   1.979   6.543   2.091
 4395TIP3    H234745   1.920   6.675   2.046
 4396TIP3   OH234746   0.706   6.476   1.554
 4396TIP3    H134747   0.737   6.566   1.557
 4396TIP3    H234748   0.647   6.468   1.630
 4397TIP3   OH234749   6.305   1.501   1.562
 4397TIP3    H134750   6.293   1.420   1.610
 4397TIP3    H234751   6.344   1.474   1.479
 4398TIP3   OH234752   0.801   3.721   1.775
 4398TIP3    H134753   0.852   3.668   1.837
 4398TIP3    H234754   0.718   3.673   1.766
 4399TIP3   OH234755   3.533   0.269   1.801
 4399TIP3    H134756   3.493   0.275   1.888
 4399TIP3    H234757   3.516   0.355   1.762
 4400TIP3   OH234758   4.333   5.993   1.540
 4400TIP3    H134759   4.277   5.918   1.557
 4400TIP3    H234760   4.358   6.024   1.626
 4401TIP3   OH234761   5.048   3.002   7.581
 4401TIP3    H134762   5.113   3.005   7.651
 4401TIP3    H234763   4.966   3.026   7.624
 4402TIP3   OH234764   5.551   2.082   1.897
 4402TIP3    H134765   5.593   2.162   1.928
 4402TIP3    H234766   5.547   2.025   1.974
 4403TIP3   OH234767   0.086   4.134   8.400
 4403TIP3    H134768   0.165   4.085   8.378
 4403TIP3    H234769   0.014   4.080   8.367
 4404TIP3   OH234770   4.745   6.589   1.607
 4404TIP3    H134771   4.665   6.634   1.581
 4404TIP3    H234772   4.780   6.642   1.679
 4405TIP3   OH234773   1.764   4.068   7.767
 4405TIP3    H134774   1.824   4.062   7.841
 4405TIP3    H234775   1.815   4.108   7.698
 4406TIP3   OH234776   6.749   2.522   8.462
 4406TIP3    H134777   6.832   2.566   8.439
 4406TIP3    H234778   6.772   2.430   8.470
 4407TIP3   OH234779   4.987   2.420   0.929
 4407TIP3    H134780   4.975   2.512   0.951
 4407TIP3    H234781   5.040   2.385   1.000
 4408TIP3   OH234782   5.895   6.431   0.745
 4408TIP3    H134783   5.909   6.337   0.746
 4408TIP3    H234784   5.800   6.441   0.743
 4409TIP3   OH234785   0.356   5.781   6.002
 4409TIP3    H134786   0.320   5.831   5.929
 4409TIP3    H234787   0.441   5.750   5.971
 4410TIP3   OH234788   1.621   3.733   6.902
 4410TIP3    H134789   1.568   3.755   6.979
 4410TIP3    H234790   1.614   3.638   6.895
 4411TIP3   OH234791   1.366   6.388   2.126
 4411TIP3    H134792   1.393   6.397   2.035
 4411TIP3    H234793   1.423   6.448   2.175
 4412TIP3   OH234794   6.080   0.792   6.441
 4412TIP3    H134795   6.147   0.747   6.493
 4412TIP3    H234796   6.024   0.722   6.408
 4413TIP3   OH234797   6.241   2.224   7.387
 4413TIP3    H134798   6.264   2.315   7.410
 4413TIP3    H234799   6.294   2.171   7.446
 4414TIP3   OH234800   3.997   0.480   2.208
 4414TIP3    H134801   4.014   0.464   2.115
 4414TIP3    H234802   3.902   0.479   2.216
 4415TIP3   OH234803   3.654   0.833   7.760
 4415TIP3    H134804   3.709   0.866   7.689
 4415TIP3    H234805   3.709   0.769   7.805
 4416TIP3   OH234806   4.455   1.598   1.256
 4416TIP3    H134807   4.371   1.604   1.302
 4416TIP3    H234808   4.521   1.593   1.326
 4417TIP3   OH234809   4.313   2.332   0.842
 4417TIP3    H134810   4.315   2.236   0.843
 4417TIP3    H234811   4.401   2.358   0.868
 4418TIP3   OH234812   4.415   0.571   0.870
 4418TIP3    H134813   4.408   0.499   0.933
 4418TIP3    H234814   4.498   0.555   0.825
 4419TIP3   OH234815   6.610   5.032   7.009
 4419TIP3    H134816   6.695   5.065   6.980
 4419TIP3    H234817   6.576   5.101   7.067
 4420TIP3   OH234818   0.005   4.081   2.411
 4420TIP3    H134819   0.089   4.037   2.401
 4420TIP3    H234820   0.020   4.170   2.380
 4421TIP3   OH234821   1.370   3.900   1.695
 4421TIP3    H134822   1.453   3.857   1.675
 4421TIP3    H234823   1.394   3.978   1.745
 4422TIP3   OH234824   6.514   0.482   1.119
 4422TIP3    H134825   6.546   0.448   1.202
 4422TIP3    H234826   6.593   0.491   1.065
 4423TIP3   OH234827   4.554   4.090   1.319
 4423TIP3    H134828   4.600   4.048   1.391
 4423TIP3    H234829   4.554   4.183   1.341
 4424TIP3   OH234830   1.143   0.786   1.710
 4424TIP3    H134831   1.133   0.777   1.805
 4424TIP3    H234832   1.229   0.827   1.698
 4425TIP3   OH234833   5.017   4.097   0.193
 4425TIP3    H134834   5.053   4.184   0.174
 4425TIP3    H234835   5.024   4.088   0.288
 4426TIP3   OH234836   3.234   3.713   0.662
 4426TIP3    H134837   3.209   3.665   0.583
 4426TIP3    H234838   3.244   3.644   0.728
 4427TIP3   OH234839   2.322   2.811   7.299
 4427TIP3    H134840   2.267   2.765   7.235
 4427TIP3    H234841   2.332   2.899   7.262
 4428TIP3   OH234842   6.685   4.959   7.752
 4428TIP3    H134843   6.607   4.961   7.698
 4428TIP3    H234844   6.696   4.867   7.776
 4429TIP3   OH234845   5.054   1.752   0.856
 4429TIP3    H134846   5.036   1.793   0.940
 4429TIP3    H234847   5.011   1.808   0.792
 4430TIP3   OH234848   2.488   4.344   0.610
 4430TIP3    H134849   2.543   4.417   0.638
 4430TIP3    H234850   2.406   4.357   0.657
 4431TIP3   OH234851   1.196   1.849   7.517
 4431TIP3    H134852   1.261   1.911   7.486
 4431TIP3    H234853   1.158   1.890   7.595
 4432TIP3   OH234854   0.162   3.992   0.926
 4432TIP3    H134855   0.084   3.972   0.978
 4432TIP3    H234856   0.225   4.026   0.989
 4433TIP3   OH234857   3.157   4.577   7.112
 4433TIP3    H134858   3.145   4.489   7.077
 4433TIP3    H234859   3.070   4.604   7.139
 4434TIP3   OH234860   1.163   5.586   1.944
 4434TIP3    H134861   1.121   5.523   1.885
 4434TIP3    H234862   1.241   5.540   1.975
 4435TIP3   OH234863   5.678   3.006   1.528
 4435TIP3    H134864   5.603   2.951   1.510
 4435TIP3    H234865   5.740   2.987   1.458
 4436TIP3   OH234866   0.729   2.739   7.377
 4436TIP3    H134867   0.719   2.685   7.298
 4436TIP3    H234868   0.710   2.680   7.449
 4437TIP3   OH234869   2.420   1.074   7.885
 4437TIP3    H134870   2.464   1.159   7.880
 4437TIP3    H234871   2.468   1.018   7.825
 4438TIP3   OH234872   0.848   6.298   0.000
 4438TIP3    H134873   0.889   6.215   8.608
 4438TIP3    H234874   0.917   6.363   8.621
 4439TIP3   OH234875   2.410   1.777   2.071
 4439TIP3    H134876   2.450   1.814   2.149
 4439TIP3    H234877   2.355   1.847   2.036
 4440TIP3   OH234878   6.562   4.784   1.317
 4440TIP3    H134879   6.641   4.731   1.322
 4440TIP3    H234880   6.524   4.781   1.405
 4441TIP3   OH234881   4.130   6.336   7.977
 4441TIP3    H134882   4.076   6.294   8.044
 4441TIP3    H234883   4.209   6.282   7.972
 4442TIP3   OH234884   0.299   1.076   8.428
 4442TIP3    H134885   0.366   1.124   8.477
 4442TIP3    H234886   0.327   1.084   8.336
 4443TIP3   OH234887   5.864   5.377   0.494
 4443TIP3    H134888   5.846   5.362   0.587
 4443TIP3    H234889   5.834   5.296   0.451
 4444TIP3   OH234890   0.443   6.520   6.927
 4444TIP3    H134891   0.401   6.585   6.983
 4444TIP3    H234892   0.417   6.543   6.838
 4445TIP3   OH234893   5.642   6.158   1.056
 4445TIP3    H134894   5.611   6.247   1.037
 4445TIP3    H234895   5.736   6.168   1.067
 4446TIP3   OH234896   3.553   1.438   5.994
 4446TIP3    H134897   3.510   1.524   6.001
 4446TIP3    H234898   3.610   1.434   6.070
 4447TIP3   OH234899   5.046   0.698   7.890
 4447TIP3    H134900   5.077   0.611   7.917
 4447TIP3    H234901   5.122   0.740   7.851
 4448TIP3   OH234902   4.786   3.651   8.457
 4448TIP3    H134903   4.829   3.736   8.463
 4448TIP3    H234904   4.693   3.671   8.450
 4449TIP3   OH234905   5.694   3.554   1.668
 4449TIP3    H134906   5.627   3.551   1.736
 4449TIP3    H234907   5.758   3.618   1.699
 4450TIP3   OH234908   5.555   0.192   1.605
 4450TIP3    H134909   5.482   0.247   1.579
 4450TIP3    H234910   5.604   0.245   1.668
 4451TIP3   OH234911   3.998   3.522   1.570
 4451TIP3    H134912   3.983   3.540   1.477
 4451TIP3    H234913   3.911   3.527   1.610
 4452TIP3   OH234914   3.474   3.853   7.754
 4452TIP3    H134915   3.493   3.820   7.842
 4452TIP3    H234916   3.473   3.948   7.764
 4453TIP3   OH234917   5.968   6.135   7.942
 4453TIP3    H134918   6.021   6.191   7.885
 4453TIP3    H234919   5.885   6.126   7.895
 4454TIP3   OH234920   1.830   6.821   7.515
 4454TIP3    H134921   1.775   6.772   7.454
 4454TIP3    H234922   1.859   0.015   7.465
 4455TIP3   OH234923   6.442   5.578   0.158
 4455TIP3    H134924   6.367   5.595   0.100
 4455TIP3    H234925   6.517   5.571   0.099
 4456TIP3   OH234926   2.885   1.627   0.713
 4456TIP3    H134927   2.847   1.663   0.793
 4456TIP3    H234928   2.818   1.570   0.678
 4457TIP3   OH234929   1.898   4.434   7.683
 4457TIP3    H134930   1.849   4.407   7.606
 4457TIP3    H234931   1.941   4.516   7.657
 4458TIP3   OH234932   3.555   6.134   6.908
 4458TIP3    H134933   3.494   6.199   6.872
 4458TIP3    H234934   3.513   6.104   6.988
 4459TIP3   OH234935   2.405   5.075   1.928
 4459TIP3    H134936   2.368   5.159   1.901
 4459TIP3    H234937   2.499   5.091   1.937
 4460TIP3   OH234938   5.386   3.937   6.700
 4460TIP3    H134939   5.439   3.865   6.667
 4460TIP3    H234940   5.316   3.947   6.635
 4461TIP3   OH234941   6.056   1.603   6.846
 4461TIP3    H134942   6.020   1.514   6.842
 4461TIP3    H234943   5.994   1.656   6.797
 4462TIP3   OH234944   1.982   5.337   2.480
 4462TIP3    H134945   1.965   5.358   2.388
 4462TIP3    H234946   2.075   5.355   2.493
 4463TIP3   OH234947   0.351   0.478   7.266
 4463TIP3    H134948   0.417   0.417   7.299
 4463TIP3    H234949   0.398   0.561   7.258
 4464TIP3   OH234950   5.396   1.532   7.903
 4464TIP3    H134951   5.308   1.520   7.868
 4464TIP3    H234952   5.383   1.575   7.988
 4465TIP3   OH234953   1.026   4.210   1.219
 4465TIP3    H134954   1.057   4.267   1.149
 4465TIP3    H234955   0.976   4.268   1.277
 4466TIP3   OH234956   6.144   1.093   0.911
 4466TIP3    H134957   6.143   1.187   0.895
 4466TIP3    H234958   6.178   1.084   1.000
 4467TIP3   OH234959   1.315   0.862   2.085
 4467TIP3    H134960   1.305   0.950   2.049
 4467TIP3    H234961   1.267   0.805   2.025
 4468TIP3   OH234962   0.246   2.640   1.297
 4468TIP3    H134963   0.337   2.609   1.295
 4468TIP3    H234964   0.197   2.574   1.247
 4469TIP3   OH234965   3.472   0.415   1.455
 4469TIP3    H134966   3.451   0.386   1.366
 4469TIP3    H234967   3.395   0.390   1.507
 4470TIP3   OH234968   0.021   6.098   8.520
 4470TIP3    H134969   0.053   6.169   8.575
 4470TIP3    H234970   0.091   6.086   8.455
 4471TIP3   OH234971   2.092   6.319   0.403
 4471TIP3    H134972   2.038   6.346   0.476
 4471TIP3    H234973   2.161   6.264   0.442
 4472TIP3   OH234974   0.851   1.131   8.264
 4472TIP3    H134975   0.782   1.070   8.289
 4472TIP3    H234976   0.881   1.169   8.347
 4473TIP3   OH234977   3.289   4.324   6.961
 4473TIP3    H134978   3.244   4.262   7.019
 4473TIP3    H234979   3.252   4.307   6.875
 4474TIP3   OH234980   2.963   0.384   1.389
 4474TIP3    H134981   3.042   0.398   1.338
 4474TIP3    H234982   2.988   0.323   1.458
 4475TIP3   OH234983   1.040   6.091   6.135
 4475TIP3    H134984   1.043   6.005   6.095
 4475TIP3    H234985   0.949   6.100   6.166
 4476TIP3   OH234986   3.913   2.513   6.548
 4476TIP3    H134987   4.002   2.549   6.548
 4476TIP3    H234988   3.920   2.430   6.502
 4477TIP3   OH234989   3.975   6.648   0.508
 4477TIP3    H134990   4.038   6.719   0.501
 4477TIP3    H234991   3.945   6.651   0.599
 4478TIP3   OH234992   0.398   4.899   1.826
 4478TIP3    H134993   0.349   4.967   1.872
 4478TIP3    H234994   0.334   4.830   1.809
 4479TIP3   OH234995   4.156   1.849   0.013
 4479TIP3    H134996   4.143   1.838   0.107
 4479TIP3    H234997   4.124   1.938   8.627
 4480TIP3   OH234998   5.637   5.440   0.310
 4480TIP3    H134999   5.554   5.429   0.358
 4480TIP3    H235000   5.696   5.478   0.375
 4481TIP3   OH235001   4.208   1.446   0.707
 4481TIP3    H135002   4.243   1.481   0.625
 4481TIP3    H235003   4.258   1.491   0.775
 4482TIP3   OH235004   0.990   3.622   6.368
 4482TIP3    H135005   1.052   3.556   6.336
 4482TIP3    H235006   0.925   3.629   6.299
 4483TIP3   OH235007   5.427   4.308   0.508
 4483TIP3    H135008   5.473   4.243   0.562
 4483TIP3    H235009   5.493   4.373   0.488
 4484TIP3   OH235010   3.854   1.349   0.288
 4484TIP3    H135011   3.895   1.269   0.322
 4484TIP3    H235012   3.921   1.416   0.298
 4485TIP3   OH235013   1.729   5.878   1.088
 4485TIP3    H135014   1.794   5.897   1.020
 4485TIP3    H235015   1.649   5.858   1.040
 4486TIP3   OH235016   4.472   1.022   7.701
 4486TIP3    H135017   4.515   0.952   7.652
 4486TIP3    H235018   4.417   1.066   7.636
 4487TIP3   OH235019   3.322   3.084   7.478
 4487TIP3    H135020   3.313   3.008   7.537
 4487TIP3    H235021   3.232   3.116   7.468
 4488TIP3   OH235022   5.783   0.345   1.715
 4488TIP3    H135023   5.841   0.413   1.749
 4488TIP3    H235024   5.771   0.285   1.788
 4489TIP3   OH235025   3.848   4.096   2.038
 4489TIP3    H135026   3.918   4.113   1.975
 4489TIP3    H235027   3.818   4.007   2.017
 4490TIP3   OH235028   0.145   5.102   7.138
 4490TIP3    H135029   0.080   5.108   7.207
 4490TIP3    H235030   0.096   5.116   7.057
 4491TIP3   OH235031   5.320   0.074   8.252
 4491TIP3    H135032   5.373   0.138   8.301
 4491TIP3    H235033   5.288   0.014   8.319
 4492TIP3   OH235034   4.729   6.869   8.311
 4492TIP3    H135035   4.799   0.041   8.277
 4492TIP3    H235036   4.714   6.803   8.243
 4493TIP3   OH235037   0.319   3.588   1.019
 4493TIP3    H135038   0.239   3.612   0.972
 4493TIP3    H235039   0.325   3.651   1.091
 4494TIP3   OH235040   5.395   2.526   2.354
 4494TIP3    H135041   5.366   2.558   2.439
 4494TIP3    H235042   5.438   2.601   2.313
 4495TIP3   OH235043   4.284   4.001   7.988
 4495TIP3    H135044   4.200   4.013   8.031
 4495TIP3    H235045   4.285   4.066   7.918
 4496TIP3   OH235046   6.046   1.263   1.479
 4496TIP3    H135047   5.968   1.306   1.514
 4496TIP3    H235048   6.042   1.278   1.385
 4497TIP3   OH235049   5.197   6.050   1.358
 4497TIP3    H135050   5.286   6.076   1.383
 4497TIP3    H235051   5.141   6.085   1.427
 4498TIP3   OH235052   5.249   5.284   0.051
 4498TIP3    H135053   5.170   5.339   0.055
 4498TIP3    H235054   5.312   5.329   0.107
 4499TIP3   OH235055   1.885   3.530   0.406
 4499TIP3    H135056   1.820   3.597   0.383
 4499TIP3    H235057   1.955   3.541   0.342
 4500TIP3   OH235058   3.685   4.389   0.089
 4500TIP3    H135059   3.642   4.448   0.151
 4500TIP3    H235060   3.752   4.442   0.047
 4501TIP3   OH235061   0.325   1.866   1.521
 4501TIP3    H135062   0.275   1.821   1.452
 4501TIP3    H235063   0.416   1.844   1.503
 4502TIP3   OH235064   6.691   6.494   7.228
 4502TIP3    H135065   6.613   6.459   7.188
 4502TIP3    H235066   6.660   6.569   7.280
 4503TIP3   OH235067   4.491   3.678   8.388
 4503TIP3    H135068   4.411   3.719   8.356
 4503TIP3    H235069   4.473   3.657   8.479
 4504TIP3   OH235070   4.183   3.346   1.679
 4504TIP3    H135071   4.109   3.394   1.640
 4504TIP3    H235072   4.200   3.392   1.761
 4505TIP3   OH235073   1.868   5.995   2.121
 4505TIP3    H135074   1.861   5.963   2.211
 4505TIP3    H235075   1.941   6.056   2.123
 4506TIP3   OH235076   1.170   1.108   7.018
 4506TIP3    H135077   1.080   1.078   7.018
 4506TIP3    H235078   1.185   1.140   6.929
 4507TIP3   OH235079   0.333   6.730   7.045
 4507TIP3    H135080   0.248   6.689   7.061
 4507TIP3    H235081   0.318   6.824   7.057
 4508TIP3   OH235082   2.333   0.516   7.051
 4508TIP3    H135083   2.359   0.458   6.980
 4508TIP3    H235084   2.405   0.579   7.059
 4509TIP3   OH235085   4.985   6.436   0.694
 4509TIP3    H135086   4.988   6.497   0.768
 4509TIP3    H235087   4.959   6.353   0.733
 4510TIP3   OH235088   3.449   5.761   8.474
 4510TIP3    H135089   3.433   5.827   8.541
 4510TIP3    H235090   3.373   5.766   8.417
 4511TIP3   OH235091   3.885   5.198   8.032
 4511TIP3    H135092   3.816   5.215   8.096
 4511TIP3    H235093   3.863   5.113   7.995
 4512TIP3   OH235094   4.561   2.950   1.785
 4512TIP3    H135095   4.635   2.935   1.725
 4512TIP3    H235096   4.535   3.040   1.767
 4513TIP3   OH235097   6.019   5.195   7.349
 4513TIP3    H135098   6.049   5.112   7.313
 4513TIP3    H235099   6.056   5.198   7.437
 4514TIP3   OH235100   6.428   6.189   0.934
 4514TIP3    H135101   6.371   6.261   0.909
 4514TIP3    H235102   6.380   6.110   0.909
 4515TIP3   OH235103   4.278   3.849   7.629
 4515TIP3    H135104   4.219   3.896   7.688
 4515TIP3    H235105   4.364   3.887   7.646
 4516TIP3   OH235106   4.751   6.094   7.633
 4516TIP3    H135107   4.830   6.052   7.667
 4516TIP3    H235108   4.783   6.168   7.582
 4517TIP3   OH235109   4.888   0.495   0.861
 4517TIP3    H135110   4.846   0.573   0.825
 4517TIP3    H235111   4.942   0.462   0.790
 4518TIP3   OH235112   4.479   6.580   0.790
 4518TIP3    H135113   4.464   6.531   0.709
 4518TIP3    H235114   4.560   6.629   0.773
 4519TIP3   OH235115   5.329   1.453   1.631
 4519TIP3    H135116   5.386   1.506   1.686
 4519TIP3    H235117   5.352   1.479   1.541
 4520TIP3   OH235118   3.969   3.260   7.621
 4520TIP3    H135119   4.006   3.294   7.702
 4520TIP3    H235120   4.044   3.248   7.563
 4521TIP3   OH235121   4.625   4.943   1.892
 4521TIP3    H135122   4.680   4.874   1.854
 4521TIP3    H235123   4.617   5.008   1.822
 4522TIP3   OH235124   2.891   2.740   1.994
 4522TIP3    H135125   2.982   2.713   1.986
 4522TIP3    H235126   2.894   2.835   2.003
 4523TIP3   OH235127   3.609   0.641   6.484
 4523TIP3    H135128   3.576   0.682   6.404
 4523TIP3    H235129   3.686   0.592   6.455
 4524TIP3   OH235130   1.969   2.860   7.963
 4524TIP3    H135131   1.965   2.768   7.988
 4524TIP3    H235132   1.931   2.907   8.037
 4525TIP3   OH235133   4.652   0.811   8.020
 4525TIP3    H135134   4.688   0.834   8.105
 4525TIP3    H235135   4.561   0.841   8.023
 4526TIP3   OH235136   4.438   2.939   2.020
 4526TIP3    H135137   4.487   2.965   1.942
 4526TIP3    H235138   4.504   2.932   2.089
 4527TIP3   OH235139   4.801   5.089   6.490
 4527TIP3    H135140   4.722   5.042   6.518
 4527TIP3    H235141   4.801   5.169   6.543
 4528TIP3   OH235142   3.811   0.964   7.095
 4528TIP3    H135143   3.834   0.897   7.159
 4528TIP3    H235144   3.723   0.992   7.119
 4529TIP3   OH235145   6.877   2.486   7.066
 4529TIP3    H135146   0.011   2.535   6.986
 4529TIP3    H235147   6.792   2.445   7.051
 4530TIP3   OH235148   1.217   2.791   7.388
 4530TIP3    H135149   1.154   2.740   7.337
 4530TIP3    H235150   1.166   2.827   7.460
 4531TIP3   OH235151   5.685   5.087   1.051
 4531TIP3    H135152   5.658   4.997   1.037
 4531TIP3    H235153   5.620   5.139   1.003
 4532TIP3   OH235154   3.402   2.221   1.413
 4532TIP3    H135155   3.393   2.128   1.432
 4532TIP3    H235156   3.446   2.258   1.490
 4533TIP3   OH235157   4.657   5.683   8.061
 4533TIP3    H135158   4.732   5.742   8.060
 4533TIP3    H235159   4.659   5.638   7.977
 4534TIP3   OH235160   1.520   0.829   1.633
 4534TIP3    H135161   1.488   0.892   1.697
 4534TIP3    H235162   1.515   0.875   1.549
 4535TIP3   OH235163   1.722   1.572   8.503
 4535TIP3    H135164   1.633   1.540   8.488
 4535TIP3    H235165   1.709   1.657   8.546
 4536TIP3   OH235166   5.622   3.868   6.821
 4536TIP3    H135167   5.578   3.925   6.884
 4536TIP3    H235168   5.616   3.915   6.738
 4537TIP3   OH235169   2.571   0.171   7.340
 4537TIP3    H135170   2.638   0.144   7.402
 4537TIP3    H235171   2.570   0.103   7.273
 4538TIP3   OH235172   1.303   4.803   1.887
 4538TIP3    H135173   1.304   4.886   1.933
 4538TIP3    H235174   1.286   4.737   1.954
 4539TIP3   OH235175   4.030   5.415   1.115
 4539TIP3    H135176   3.999   5.415   1.025
 4539TIP3    H235177   3.976   5.350   1.160
 4540TIP3   OH235178   5.182   0.298   0.472
 4540TIP3    H135179   5.175   0.219   0.417
 4540TIP3    H235180   5.183   0.370   0.409
 4541TIP3   OH235181   5.307   0.552   7.569
 4541TIP3    H135182   5.266   0.513   7.492
 4541TIP3    H235183   5.292   0.646   7.560
 4542TIP3   OH235184   0.131   2.979   8.136
 4542TIP3    H135185   0.206   2.948   8.187
 4542TIP3    H235186   0.061   2.918   8.157
 4543TIP3   OH235187   3.255   2.626   7.733
 4543TIP3    H135188   3.211   2.627   7.648
 4543TIP3    H235189   3.202   2.682   7.789
 4544TIP3   OH235190   1.163   4.948   1.549
 4544TIP3    H135191   1.194   4.859   1.564
 4544TIP3    H235192   1.069   4.943   1.564
 4545TIP3   OH235193   4.477   0.647   6.917
 4545TIP3    H135194   4.495   0.621   6.827
 4545TIP3    H235195   4.499   0.740   6.920
 4546TIP3   OH235196   0.224   4.111   1.408
 4546TIP3    H135197   0.241   4.016   1.406
 4546TIP3    H235198   0.157   4.125   1.341
 4547TIP3   OH235199   5.131   4.792   1.578
 4547TIP3    H135200   5.138   4.794   1.673
 4547TIP3    H235201   5.148   4.883   1.551
 4548TIP3   OH235202   5.789   6.197   8.333
 4548TIP3    H135203   5.833   6.266   8.283
 4548TIP3    H235204   5.700   6.228   8.344
 4549TIP3   OH235205   4.846   6.814   2.526
 4549TIP3    H135206   4.797   0.007   2.494
 4549TIP3    H235207   4.780   6.746   2.540
 4550TIP3   OH235208   6.127   5.333   1.002
 4550TIP3    H135209   6.105   5.397   1.069
 4550TIP3    H235210   6.219   5.351   0.981
 4551TIP3   OH235211   0.042   2.632   0.316
 4551TIP3    H135212   0.026   2.717   0.275
 4551TIP3    H235213   0.015   2.568   0.251
 4552TIP3   OH235214   0.280   4.982   0.080
 4552TIP3    H135215   0.339   5.052   0.051
 4552TIP3    H235216   0.309   4.905   0.030
 4553TIP3   OH235217   3.252   0.621   1.429
 4553TIP3    H135218   3.226   0.596   1.340
 4553TIP3    H235219   3.171   0.653   1.470
 4554TIP3   OH235220   3.699   0.980   6.431
 4554TIP3    H135221   3.668   1.064   6.397
 4554TIP3    H235222   3.652   0.914   6.380
 4555TIP3   OH235223   6.880   2.475   8.114
 4555TIP3    H135224   0.074   2.453   8.063
 4555TIP3    H235225   0.008   2.428   8.197
 4556TIP3   OH235226   6.442   1.904   6.253
 4556TIP3    H135227   6.441   1.999   6.266
 4556TIP3    H235228   6.534   1.883   6.241
 4557TIP3   OH235229   6.735   4.526   1.207
 4557TIP3    H135230   6.755   4.433   1.197
 4557TIP3    H235231   6.656   4.539   1.154
 4558TIP3   OH235232   0.182   2.372   7.935
 4558TIP3    H135233   0.152   2.309   7.870
 4558TIP3    H235234   0.273   2.388   7.913
 4559TIP3   OH235235   1.633   6.289   6.706
 4559TIP3    H135236   1.554   6.286   6.653
 4559TIP3    H235237   1.704   6.294   6.643
 4560TIP3   OH235238   6.089   2.187   8.499
 4560TIP3    H135239   6.087   2.282   8.515
 4560TIP3    H235240   6.105   2.149   8.585
 4561TIP3   OH235241   1.238   6.524   1.556
 4561TIP3    H135242   1.178   6.468   1.604
 4561TIP3    H235243   1.182   6.593   1.520
 4562TIP3   OH235244   2.415   3.579   7.864
 4562TIP3    H135245   2.506   3.550   7.862
 4562TIP3    H235246   2.383   3.553   7.951
 4563TIP3   OH235247   1.472   1.559   0.881
 4563TIP3    H135248   1.502   1.641   0.841
 4563TIP3    H235249   1.539   1.538   0.946
 4564TIP3   OH235250   1.942   5.205   1.368
 4564TIP3    H135251   1.886   5.159   1.431
 4564TIP3    H235252   1.918   5.297   1.377
 4565TIP3   OH235253   1.276   0.393   1.010
 4565TIP3    H135254   1.333   0.383   1.086
 4565TIP3    H235255   1.230   0.476   1.025
 4566TIP3   OH235256   5.626   0.473   7.196
 4566TIP3    H135257   5.628   0.435   7.284
 4566TIP3    H235258   5.700   0.431   7.150
 4567TIP3   OH235259   5.518   3.078   0.952
 4567TIP3    H135260   5.491   3.085   1.044
 4567TIP3    H235261   5.542   2.986   0.941
 4568TIP3   OH235262   6.264   3.339   0.322
 4568TIP3    H135263   6.171   3.341   0.297
 4568TIP3    H235264   6.310   3.373   0.245
 4569TIP3   OH235265   0.840   0.209   8.044
 4569TIP3    H135266   0.780   0.208   8.119
 4569TIP3    H235267   0.806   0.280   7.988
 4570TIP3   OH235268   3.152   3.328   8.612
 4570TIP3    H135269   3.163   3.389   8.540
 4570TIP3    H235270   3.060   3.339   0.007
 4571TIP3   OH235271   4.048   0.194   6.817
 4571TIP3    H135272   4.009   0.187   6.730
 4571TIP3    H235273   3.997   0.262   6.861
 4572TIP3   OH235274   0.807   4.456   1.231
 4572TIP3    H135275   0.884   4.458   1.174
 4572TIP3    H235276   0.763   4.539   1.213
 4573TIP3   OH235277   1.326   5.083   7.386
 4573TIP3    H135278   1.379   5.055   7.312
 4573TIP3    H235279   1.269   5.151   7.350
 4574TIP3   OH235280   1.518   3.904   0.888
 4574TIP3    H135281   1.487   3.990   0.919
 4574TIP3    H235282   1.593   3.885   0.944
 4575TIP3   OH235283   5.081   1.319   7.000
 4575TIP3    H135284   5.051   1.308   6.910
 4575TIP3    H235285   5.092   1.229   7.033
 4576TIP3   OH235286   5.600   5.968   2.068
 4576TIP3    H135287   5.512   5.953   2.036
 4576TIP3    H235288   5.590   5.985   2.162
 4577TIP3   OH235289   2.911   4.552   0.665
 4577TIP3    H135290   2.913   4.622   0.731
 4577TIP3    H235291   2.998   4.555   0.625
 4578TIP3   OH235292   6.448   1.610   2.632
 4578TIP3    H135293   6.386   1.682   2.641
 4578TIP3    H235294   6.527   1.641   2.675
 4579TIP3   OH235295   2.106   6.392   0.832
 4579TIP3    H135296   2.089   6.365   0.741
 4579TIP3    H235297   2.107   6.310   0.881
 4580TIP3   OH235298   4.627   6.142   7.330
 4580TIP3    H135299   4.620   6.231   7.295
 4580TIP3    H235300   4.701   6.146   7.391
 4581TIP3   OH235301   0.802   0.589   0.681
 4581TIP3    H135302   0.840   0.647   0.615
 4581TIP3    H235303   0.713   0.623   0.694
 4582TIP3   OH235304   6.315   0.323   1.007
 4582TIP3    H135305   6.391   0.312   0.950
 4582TIP3    H235306   6.306   0.417   1.017
 4583TIP3   OH235307   1.054   0.906   6.567
 4583TIP3    H135308   0.981   0.855   6.532
 4583TIP3    H235309   1.116   0.841   6.599
 4584TIP3   OH235310   5.244   0.721   2.216
 4584TIP3    H135311   5.198   0.743   2.297
 4584TIP3    H235312   5.193   0.649   2.179
 4585TIP3   OH235313   3.296   3.364   6.226
 4585TIP3    H135314   3.307   3.269   6.224
 4585TIP3    H235315   3.372   3.396   6.274
 4586TIP3   OH235316   4.568   1.107   1.375
 4586TIP3    H135317   4.497   1.128   1.315
 4586TIP3    H235318   4.578   1.186   1.429
 4587TIP3   OH235319   3.072   3.915   2.177
 4587TIP3    H135320   3.054   4.001   2.139
 4587TIP3    H235321   3.110   3.934   2.263
 4588TIP3   OH235322   2.084   4.686   2.629
 4588TIP3    H135323   2.013   4.679   2.565
 4588TIP3    H235324   2.113   4.777   2.623
 4589TIP3   OH235325   0.471   2.468   1.191
 4589TIP3    H135326   0.409   2.497   1.123
 4589TIP3    H235327   0.488   2.376   1.170
 4590TIP3   OH235328   6.194   3.331   7.103
 4590TIP3    H135329   6.210   3.299   7.014
 4590TIP3    H235330   6.244   3.272   7.159
 4591TIP3   OH235331   4.243   4.919   6.789
 4591TIP3    H135332   4.253   4.950   6.699
 4591TIP3    H235333   4.224   4.826   6.781
 4592TIP3   OH235334   3.077   1.872   7.901
 4592TIP3    H135335   3.009   1.929   7.864
 4592TIP3    H235336   3.077   1.795   7.845
 4593TIP3   OH235337   6.877   4.778   2.328
 4593TIP3    H135338   0.003   4.873   2.317
 4593TIP3    H235339   6.835   4.767   2.413
 4594TIP3   OH235340   5.365   4.900   7.729
 4594TIP3    H135341   5.433   4.916   7.794
 4594TIP3    H235342   5.376   4.969   7.664
 4595TIP3   OH235343   4.300   4.917   1.812
 4595TIP3    H135344   4.281   4.976   1.885
 4595TIP3    H235345   4.276   4.966   1.734
 4596TIP3   OH235346   3.009   6.155   1.521
 4596TIP3    H135347   3.082   6.145   1.581
 4596TIP3    H235348   2.981   6.246   1.532
 4597TIP3   OH235349   6.254   5.643   7.070
 4597TIP3    H135350   6.296   5.577   7.016
 4597TIP3    H235351   6.165   5.650   7.035
 4598TIP3   OH235352   1.948   1.334   0.468
 4598TIP3    H135353   1.905   1.269   0.413
 4598TIP3    H235354   1.891   1.342   0.544
 4599TIP3   OH235355   0.798   1.071   0.893
 4599TIP3    H135356   0.874   1.129   0.888
 4599TIP3    H235357   0.763   1.069   0.804
 4600TIP3   OH235358   5.882   1.499   0.427
 4600TIP3    H135359   5.915   1.483   0.516
 4600TIP3    H235360   5.904   1.590   0.409
 4601TIP3   OH235361   1.629   1.146   7.772
 4601TIP3    H135362   1.554   1.206   7.768
 4601TIP3    H235363   1.589   1.059   7.775
 4602TIP3   OH235364   1.857   2.566   7.873
 4602TIP3    H135365   1.914   2.496   7.904
 4602TIP3    H235366   1.772   2.524   7.861
 4603TIP3   OH235367   4.926   2.232   6.299
 4603TIP3    H135368   4.896   2.249   6.210
 4603TIP3    H235369   4.849   2.249   6.354
 4604TIP3   OH235370   0.573   5.442   1.002
 4604TIP3    H135371   0.638   5.512   1.007
 4604TIP3    H235372   0.583   5.394   1.084
 4605TIP3   OH235373   5.731   0.271   7.840
 4605TIP3    H135374   5.657   0.329   7.822
 4605TIP3    H235375   5.711   0.191   7.792
 4606TIP3   OH235376   2.967   2.171   6.998
 4606TIP3    H135377   3.011   2.143   6.918
 4606TIP3    H235378   2.984   2.265   7.004
 4607TIP3   OH235379   0.766   3.325   6.171
 4607TIP3    H135380   0.813   3.264   6.228
 4607TIP3    H235381   0.823   3.336   6.095
 4608TIP3   OH235382   0.043   4.135   6.168
 4608TIP3    H135383   0.114   4.112   6.228
 4608TIP3    H235384   0.057   4.228   6.148
 4609TIP3   OH235385   2.192   3.787   8.629
 4609TIP3    H135386   2.144   3.790   0.080
 4609TIP3    H235387   2.262   3.723   0.014
 4610TIP3   OH235388   1.325   3.688   8.447
 4610TIP3    H135389   1.338   3.640   8.529
 4610TIP3    H235390   1.403   3.744   8.440
 4611TIP3   OH235391   4.700   5.298   1.210
 4611TIP3    H135392   4.772   5.317   1.150
 4611TIP3    H235393   4.624   5.284   1.153
 4612TIP3   OH235394   1.623   5.785   6.784
 4612TIP3    H135395   1.623   5.857   6.848
 4612TIP3    H235396   1.531   5.760   6.776
 4613TIP3   OH235397   5.448   5.314   1.475
 4613TIP3    H135398   5.353   5.307   1.482
 4613TIP3    H235399   5.474   5.238   1.423
 4614TIP3   OH235400   5.817   4.461   1.490
 4614TIP3    H135401   5.900   4.506   1.474
 4614TIP3    H235402   5.838   4.368   1.485
 4615TIP3   OH235403   6.032   6.071   1.579
 4615TIP3    H135404   5.945   6.033   1.588
 4615TIP3    H235405   6.056   6.057   1.487
 4616TIP3   OH235406   3.912   1.413   1.630
 4616TIP3    H135407   3.955   1.381   1.709
 4616TIP3    H235408   3.826   1.442   1.660
 4617TIP3   OH235409   5.178   3.576   7.255
 4617TIP3    H135410   5.270   3.564   7.232
 4617TIP3    H235411   5.161   3.669   7.239
 4618TIP3   OH235412   4.906   5.187   0.461
 4618TIP3    H135413   4.900   5.116   0.397
 4618TIP3    H235414   4.894   5.143   0.546
 4619TIP3   OH235415   2.398   5.419   1.918
 4619TIP3    H135416   2.483   5.403   1.959
 4619TIP3    H235417   2.420   5.463   1.836
 4620TIP3   OH235418   5.314   0.890   1.823
 4620TIP3    H135419   5.315   0.977   1.864
 4620TIP3    H235420   5.321   0.908   1.730
 4621TIP3   OH235421   0.747   5.649   0.431
 4621TIP3    H135422   0.834   5.615   0.407
 4621TIP3    H235423   0.723   5.708   0.360
 4622TIP3   OH235424   3.271   0.844   8.185
 4622TIP3    H135425   3.298   0.752   8.192
 4622TIP3    H235426   3.220   0.859   8.264
 4623TIP3   OH235427   4.541   2.792   1.009
 4623TIP3    H135428   4.599   2.839   1.069
 4623TIP3    H235429   4.588   2.792   0.926
 4624TIP3   OH235430   5.078   5.493   8.067
 4624TIP3    H135431   4.989   5.496   8.101
 4624TIP3    H235432   5.128   5.550   8.126
 4625TIP3   OH235433   3.827   3.885   7.967
 4625TIP3    H135434   3.856   3.945   7.897
 4625TIP3    H235435   3.909   3.856   8.007
 4626TIP3   OH235436   3.689   4.124   0.481
 4626TIP3    H135437   3.740   4.083   0.551
 4626TIP3    H235438   3.735   4.206   0.463
 4627TIP3   OH235439   3.071   5.499   7.289
 4627TIP3    H135440   3.026   5.421   7.320
 4627TIP3    H235441   3.070   5.491   7.194
 4628TIP3   OH235442   0.257   1.354   1.819
 4628TIP3    H135443   0.298   1.333   1.735
 4628TIP3    H235444   0.195   1.283   1.834
 4629TIP3   OH235445   1.076   5.930   1.539
 4629TIP3    H135446   0.993   5.968   1.568
 4629TIP3    H235447   1.061   5.907   1.448
 4630TIP3   OH235448   5.549   3.741   1.844
 4630TIP3    H135449   5.482   3.715   1.907
 4630TIP3    H235450   5.570   3.831   1.868
 4631TIP3   OH235451   1.066   4.057   1.578
 4631TIP3    H135452   0.972   4.041   1.566
 4631TIP3    H235453   1.079   4.053   1.673
 4632TIP3   OH235454   4.776   3.794   0.603
 4632TIP3    H135455   4.814   3.714   0.640
 4632TIP3    H235456   4.683   3.774   0.595
 4633TIP3   OH235457   2.533   5.123   0.731
 4633TIP3    H135458   2.522   5.037   0.772
 4633TIP3    H235459   2.468   5.124   0.661
 4634TIP3   OH235460   5.998   2.084   6.742
 4634TIP3    H135461   5.907   2.094   6.772
 4634TIP3    H235462   6.051   2.097   6.820
 4635TIP3   OH235463   2.583   2.553   6.316
 4635TIP3    H135464   2.564   2.561   6.223
 4635TIP3    H235465   2.667   2.597   6.328
 4636TIP3   OH235466   0.125   5.880   7.846
 4636TIP3    H135467   0.143   5.812   7.911
 4636TIP3    H235468   0.040   5.916   7.872
 4637TIP3   OH235469   3.470   0.657   7.205
 4637TIP3    H135470   3.558   0.677   7.239
 4637TIP3    H235471   3.412   0.675   7.278
 4638TIP3   OH235472   2.944   4.856   1.926
 4638TIP3    H135473   2.902   4.771   1.908
 4638TIP3    H235474   3.037   4.836   1.928
 4639TIP3   OH235475   6.780   2.369   7.721
 4639TIP3    H135476   6.738   2.407   7.644
 4639TIP3    H235477   6.868   2.345   7.691
 4640TIP3   OH235478   3.978   4.831   1.691
 4640TIP3    H135479   3.944   4.777   1.762
 4640TIP3    H235480   4.004   4.768   1.623
 4641TIP3   OH235481   1.899   2.842   7.516
 4641TIP3    H135482   1.897   2.905   7.444
 4641TIP3    H235483   1.924   2.894   7.593
 4642TIP3   OH235484   3.231   2.900   1.396
 4642TIP3    H135485   3.268   2.978   1.438
 4642TIP3    H235486   3.307   2.851   1.365
 4643TIP3   OH235487   4.829   3.870   7.076
 4643TIP3    H135488   4.852   3.959   7.101
 4643TIP3    H235489   4.795   3.831   7.157
 4644TIP3   OH235490   5.141   3.996   8.585
 4644TIP3    H135491   5.130   4.077   8.536
 4644TIP3    H235492   5.118   4.020   0.044
 4645TIP3   OH235493   2.753   6.756   6.923
 4645TIP3    H135494   2.752   6.826   6.858
 4645TIP3    H235495   2.661   6.729   6.930
 4646TIP3   OH235496   3.599   6.266   0.049
 4646TIP3    H135497   3.660   6.328   0.090
 4646TIP3    H235498   3.655   6.202   0.005
 4647TIP3   OH235499   6.134   0.068   1.695
 4647TIP3    H135500   6.165   0.124   1.766
 4647TIP3    H235501   6.046   0.042   1.722
 4648TIP3   OH235502   6.723   4.449   0.247
 4648TIP3    H135503   6.790   4.483   0.308
 4648TIP3    H235504   6.725   4.510   0.174
 4649TIP3   OH235505   3.869   4.191   8.361
 4649TIP3    H135506   3.845   4.278   8.328
 4649TIP3    H235507   3.964   4.196   8.372
 4650TIP3   OH235508   3.619   1.602   2.046
 4650TIP3    H135509   3.686   1.658   2.008
 4650TIP3    H235510   3.545   1.608   1.984
 4651TIP3   OH235511   1.180   0.871   8.299
 4651TIP3    H135512   1.247   0.804   8.287
 4651TIP3    H235513   1.120   0.834   8.363
 4652TIP3   OH235514   1.744   0.326   1.821
 4652TIP3    H135515   1.819   0.282   1.782
 4652TIP3    H235516   1.772   0.345   1.911
 4653TIP3   OH235517   0.599   0.146   0.456
 4653TIP3    H135518   0.507   0.159   0.434
 4653TIP3    H235519   0.609   0.183   0.544
 4654TIP3   OH235520   4.075   0.361   1.472
 4654TIP3    H135521   4.134   0.394   1.541
 4654TIP3    H235522   4.066   0.434   1.411
 4655TIP3   OH235523   0.462   6.020   7.819
 4655TIP3    H135524   0.437   6.096   7.768
 4655TIP3    H235525   0.530   5.978   7.766
 4656TIP3   OH235526   1.861   5.590   1.909
 4656TIP3    H135527   1.912   5.653   1.959
 4656TIP3    H235528   1.810   5.543   1.974
 4657TIP3   OH235529   5.518   3.203   7.771
 4657TIP3    H135530   5.505   3.298   7.774
 4657TIP3    H235531   5.612   3.191   7.779
 4658TIP3   OH235532   1.545   0.371   2.157
 4658TIP3    H135533   1.453   0.350   2.172
 4658TIP3    H235534   1.572   0.312   2.087
 4659TIP3   OH235535   4.756   6.615   6.362
 4659TIP3    H135536   4.749   6.600   6.456
 4659TIP3    H235537   4.684   6.676   6.342
 4660TIP3   OH235538   1.026   5.883   1.248
 4660TIP3    H135539   0.934   5.859   1.242
 4660TIP3    H235540   1.036   5.957   1.188
 4661TIP3   OH235541   2.289   2.679   6.177
 4661TIP3    H135542   2.250   2.765   6.192
 4661TIP3    H235543   2.239   2.619   6.232
 4662TIP3   OH235544   2.349   5.921   8.456
 4662TIP3    H135545   2.317   5.842   8.412
 4662TIP3    H235546   2.444   5.916   8.447
 4663TIP3   OH235547   0.453   5.995   7.274
 4663TIP3    H135548   0.377   6.003   7.332
 4663TIP3    H235549   0.469   5.901   7.268
 4664TIP3   OH235550   5.544   5.133   1.315
 4664TIP3    H135551   5.609   5.164   1.252
 4664TIP3    H235552   5.500   5.060   1.270
 4665TIP3   OH235553   4.598   0.465   0.686
 4665TIP3    H135554   4.572   0.381   0.648
 4665TIP3    H235555   4.672   0.494   0.633
 4666TIP3   OH235556   3.726   0.997   0.585
 4666TIP3    H135557   3.685   1.073   0.543
 4666TIP3    H235558   3.771   0.952   0.513
 4667TIP3   OH235559   0.856   2.313   1.099
 4667TIP3    H135560   0.886   2.404   1.105
 4667TIP3    H235561   0.935   2.261   1.110
 4668TIP3   OH235562   0.483   2.642   0.607
 4668TIP3    H135563   0.392   2.650   0.578
 4668TIP3    H235564   0.476   2.616   0.699
 4669TIP3   OH235565   5.582   6.083   6.661
 4669TIP3    H135566   5.585   5.988   6.652
 4669TIP3    H235567   5.489   6.102   6.675
 4670TIP3   OH235568   4.063   4.665   7.392
 4670TIP3    H135569   4.011   4.710   7.326
 4670TIP3    H235570   4.133   4.727   7.414
 4671TIP3   OH235571   3.243   4.178   0.312
 4671TIP3    H135572   3.329   4.137   0.304
 4671TIP3    H235573   3.184   4.107   0.337
 4672TIP3   OH235574   4.969   0.675   6.571
 4672TIP3    H135575   5.056   0.673   6.530
 4672TIP3    H235576   4.909   0.650   6.501
 4673TIP3   OH235577   6.732   6.654   2.199
 4673TIP3    H135578   6.691   6.740   2.187
 4673TIP3    H235579   6.684   6.614   2.271
 4674TIP3   OH235580   6.386   0.426   8.182
 4674TIP3    H135581   6.409   0.519   8.178
 4674TIP3    H235582   6.468   0.379   8.170
 4675TIP3   OH235583   2.966   1.593   0.012
 4675TIP3    H135584   2.998   1.533   8.577
 4675TIP3    H235585   2.902   1.542   0.062
 4676TIP3   OH235586   4.321   3.960   0.881
 4676TIP3    H135587   4.278   3.878   0.905
 4676TIP3    H235588   4.405   3.957   0.926
 4677TIP3   OH235589   3.355   0.950   8.547
 4677TIP3    H135590   3.316   1.002   8.478
 4677TIP3    H235591   3.439   0.991   8.564
 4678TIP3   OH235592   1.439   5.376   8.276
 4678TIP3    H135593   1.409   5.368   8.185
 4678TIP3    H235594   1.402   5.301   8.321
 4679TIP3   OH235595   3.841   4.338   0.397
 4679TIP3    H135596   3.790   4.416   0.375
 4679TIP3    H235597   3.925   4.372   0.429
 4680TIP3   OH235598   2.045   0.036   2.258
 4680TIP3    H135599   2.038   6.843   2.316
 4680TIP3    H235600   1.992   0.013   2.182
 4681TIP3   OH235601   1.003   5.209   6.130
 4681TIP3    H135602   0.991   5.300   6.102
 4681TIP3    H235603   1.052   5.215   6.212
 4682TIP3   OH235604   3.478   5.625   2.161
 4682TIP3    H135605   3.564   5.586   2.150
 4682TIP3    H235606   3.423   5.582   2.096
 4683TIP3   OH235607   2.111   4.137   8.394
 4683TIP3    H135608   2.150   4.170   8.313
 4683TIP3    H235609   2.179   4.147   8.460
 4684TIP3   OH235610   6.717   4.692   8.278
 4684TIP3    H135611   6.676   4.778   8.284
 4684TIP3    H235612   6.810   4.709   8.298
 4685TIP3   OH235613   5.811   2.626   6.907
 4685TIP3    H135614   5.798   2.550   6.850
 4685TIP3    H235615   5.723   2.648   6.937
 4686TIP3   OH235616   0.297   5.587   6.218
 4686TIP3    H135617   0.332   5.634   6.142
 4686TIP3    H235618   0.232   5.647   6.255
 4687TIP3   OH235619   4.115   0.976   6.800
 4687TIP3    H135620   4.168   0.931   6.866
 4687TIP3    H235621   4.155   0.951   6.716
 4688TIP3   OH235622   2.948   0.480   1.053
 4688TIP3    H135623   2.991   0.480   1.139
 4688TIP3    H235624   2.870   0.426   1.066
 4689TIP3   OH235625   3.655   5.936   6.734
 4689TIP3    H135626   3.588   5.871   6.715
 4689TIP3    H235627   3.616   5.992   6.801
 4690TIP3   OH235628   5.461   0.139   2.078
 4690TIP3    H135629   5.368   0.151   2.097
 4690TIP3    H235630   5.501   0.124   2.164
 4691TIP3   OH235631   0.476   5.710   7.323
 4691TIP3    H135632   0.537   5.714   7.249
 4691TIP3    H235633   0.528   5.675   7.396
 4692TIP3   OH235634   4.487   0.488   1.466
 4692TIP3    H135635   4.410   0.542   1.484
 4692TIP3    H235636   4.537   0.538   1.401
 4693TIP3   OH235637   6.611   0.361   1.368
 4693TIP3    H135638   6.678   0.298   1.397
 4693TIP3    H235639   6.588   0.409   1.447
 4694TIP3   OH235640   6.020   1.208   8.631
 4694TIP3    H135641   6.002   1.265   0.074
 4694TIP3    H235642   6.095   1.155   0.026
 4695TIP3   OH235643   5.333   6.798   1.917
 4695TIP3    H135644   5.389   6.838   1.984
 4695TIP3    H235645   5.323   6.867   1.851
 4696TIP3   OH235646   4.758   6.173   1.620
 4696TIP3    H135647   4.698   6.242   1.590
 4696TIP3    H235648   4.704   6.095   1.627
 4697TIP3   OH235649   6.524   4.563   1.792
 4697TIP3    H135650   6.472   4.492   1.830
 4697TIP3    H235651   6.613   4.528   1.788
 4698TIP3   OH235652   1.954   4.009   7.993
 4698TIP3    H135653   1.970   3.940   7.928
 4698TIP3    H235654   2.030   4.006   8.051
 4699TIP3   OH235655   0.050   4.026   7.446
 4699TIP3    H135656   0.096   3.996   7.367
 4699TIP3    H235657   0.114   4.082   7.491
 4700TIP3   OH235658   2.644   5.053   6.792
 4700TIP3    H135659   2.595   4.971   6.792
 4700TIP3    H235660   2.708   5.043   6.721
 4701TIP3   OH235661   2.706   2.550   0.418
 4701TIP3    H135662   2.688   2.529   0.326
 4701TIP3    H235663   2.751   2.473   0.452
 4702TIP3   OH235664   6.080   2.484   0.132
 4702TIP3    H135665   6.159   2.494   0.079
 4702TIP3    H235666   6.112   2.485   0.222
 4703TIP3   OH235667   4.364   0.778   2.714
 4703TIP3    H135668   4.435   0.754   2.774
 4703TIP3    H235669   4.293   0.717   2.735
 4704TIP3   OH235670   1.201   2.324   1.274
 4704TIP3    H135671   1.221   2.328   1.368
 4704TIP3    H235672   1.208   2.231   1.252
 4705TIP3   OH235673   2.241   1.303   8.498
 4705TIP3    H135674   2.223   1.346   8.414
 4705TIP3    H235675   2.194   1.356   8.562
 4706TIP3   OH235676   2.161   1.786   0.038
 4706TIP3    H135677   2.131   1.831   0.117
 4706TIP3    H235678   2.249   1.754   0.060
 4707TIP3   OH235679   2.545   6.394   2.802
 4707TIP3    H135680   2.632   6.382   2.841
 4707TIP3    H235681   2.542   6.329   2.732
 4708TIP3   OH235682   3.946   2.187   0.663
 4708TIP3    H135683   3.900   2.104   0.650
 4708TIP3    H235684   4.031   2.173   0.621
 4709TIP3   OH235685   1.895   4.743   2.430
 4709TIP3    H135686   1.853   4.795   2.362
 4709TIP3    H235687   1.907   4.657   2.390
 4710TIP3   OH235688   2.366   1.620   0.606
 4710TIP3    H135689   2.330   1.668   0.681
 4710TIP3    H235690   2.324   1.660   0.530
 4711TIP3   OH235691   3.811   4.886   7.645
 4711TIP3    H135692   3.788   4.959   7.703
 4711TIP3    H235693   3.759   4.812   7.678
 4712TIP3   OH235694   1.418   2.435   1.684
 4712TIP3    H135695   1.385   2.520   1.711
 4712TIP3    H235696   1.513   2.440   1.698
 4713TIP3   OH235697   1.169   5.538   7.149
 4713TIP3    H135698   1.199   5.468   7.092
 4713TIP3    H235699   1.216   5.523   7.231
 4714TIP3   OH235700   4.574   3.382   2.178
 4714TIP3    H135701   4.542   3.375   2.268
 4714TIP3    H235702   4.547   3.468   2.149
 4715TIP3   OH235703   2.862   5.014   1.131
 4715TIP3    H135704   2.787   5.065   1.100
 4715TIP3    H235705   2.938   5.068   1.111
 4716TIP3   OH235706   3.802   5.887   0.608
 4716TIP3    H135707   3.802   5.877   0.703
 4716TIP3    H235708   3.710   5.877   0.583
 4717TIP3   OH235709   1.405   6.629   0.891
 4717TIP3    H135710   1.466   6.701   0.876
 4717TIP3    H235711   1.325   6.671   0.922
 4718TIP3   OH235712   0.969   2.159   6.605
 4718TIP3    H135713   0.984   2.109   6.686
 4718TIP3    H235714   0.918   2.100   6.550
 4719TIP3   OH235715   2.719   1.876   8.057
 4719TIP3    H135716   2.644   1.829   8.022
 4719TIP3    H235717   2.772   1.898   7.980
 4720TIP3   OH235718   5.231   4.760   0.501
 4720TIP3    H135719   5.230   4.708   0.420
 4720TIP3    H235720   5.198   4.700   0.568
 4721TIP3   OH235721   3.320   3.905   0.396
 4721TIP3    H135722   3.353   3.823   0.432
 4721TIP3    H235723   3.397   3.961   0.390
 4722TIP3   OH235724   2.466   1.629   6.816
 4722TIP3    H135725   2.535   1.632   6.750
 4722TIP3    H235726   2.389   1.666   6.772
 4723TIP3   OH235727   6.082   1.073   7.743
 4723TIP3    H135728   6.085   1.148   7.802
 4723TIP3    H235729   5.992   1.041   7.750
 4724TIP3   OH235730   5.227   3.531   0.872
 4724TIP3    H135731   5.247   3.455   0.927
 4724TIP3    H235732   5.183   3.493   0.795
 4725TIP3   OH235733   0.696   3.377   7.122
 4725TIP3    H135734   0.780   3.331   7.120
 4725TIP3    H235735   0.712   3.454   7.176
 4726TIP3   OH235736   3.110   3.547   1.803
 4726TIP3    H135737   3.151   3.541   1.890
 4726TIP3    H235738   3.018   3.567   1.822
 4727TIP3   OH235739   3.521   2.191   1.909
 4727TIP3    H135740   3.572   2.220   1.984
 4727TIP3    H235741   3.524   2.096   1.913
 4728TIP3   OH235742   6.407   1.432   1.298
 4728TIP3    H135743   6.367   1.455   1.215
 4728TIP3    H235744   6.501   1.426   1.279
 4729TIP3   OH235745   6.631   0.307   8.424
 4729TIP3    H135746   6.560   0.366   8.402
 4729TIP3    H235747   6.707   0.342   8.377
 4730TIP3   OH235748   1.368   1.871   6.754
 4730TIP3    H135749   1.404   1.783   6.756
 4730TIP3    H235750   1.410   1.912   6.678
 4731TIP3   OH235751   6.595   4.509   1.502
 4731TIP3    H135752   6.515   4.523   1.451
 4731TIP3    H235753   6.565   4.471   1.585
 4732TIP3   OH235754   3.762   5.379   1.312
 4732TIP3    H135755   3.792   5.304   1.363
 4732TIP3    H235756   3.782   5.455   1.367
 4733TIP3   OH235757   0.928   5.427   0.649
 4733TIP3    H135758   0.923   5.522   0.658
 4733TIP3    H235759   0.982   5.399   0.723
 4734TIP3   OH235760   3.411   0.075   2.743
 4734TIP3    H135761   3.364   0.136   2.800
 4734TIP3    H235762   3.368   0.085   2.658
 4735TIP3   OH235763   0.829   3.581   7.282
 4735TIP3    H135764   0.833   3.546   7.371
 4735TIP3    H235765   0.913   3.557   7.243
 4736TIP3   OH235766   6.452   3.226   0.038
 4736TIP3    H135767   6.380   3.258   8.615
 4736TIP3    H235768   6.501   3.305   0.060
 4737TIP3   OH235769   5.078   1.690   7.328
 4737TIP3    H135770   5.072   1.719   7.237
 4737TIP3    H235771   5.172   1.681   7.344
 4738TIP3   OH235772   2.039   5.991   8.224
 4738TIP3    H135773   2.043   5.896   8.239
 4738TIP3    H235774   2.125   6.023   8.250
 4739TIP3   OH235775   1.660   4.436   0.593
 4739TIP3    H135776   1.587   4.494   0.576
 4739TIP3    H235777   1.716   4.485   0.654
 4740TIP3   OH235778   0.804   6.556   7.336
 4740TIP3    H135779   0.758   6.501   7.272
 4740TIP3    H235780   0.739   6.574   7.404
 4741TIP3   OH235781   6.692   5.542   8.483
 4741TIP3    H135782   6.658   5.458   8.452
 4741TIP3    H235783   6.759   5.566   8.418
 4742TIP3   OH235784   1.773   5.678   0.818
 4742TIP3    H135785   1.695   5.733   0.823
 4742TIP3    H235786   1.761   5.611   0.886
 4743TIP3   OH235787   1.100   3.594   2.307
 4743TIP3    H135788   1.181   3.640   2.283
 4743TIP3    H235789   1.034   3.632   2.248
 4744TIP3   OH235790   1.271   6.118   8.163
 4744TIP3    H135791   1.319   6.077   8.236
 4744TIP3    H235792   1.268   6.211   8.186
 4745TIP3   OH235793   6.203   0.834   1.556
 4745TIP3    H135794   6.190   0.927   1.533
 4745TIP3    H235795   6.298   0.824   1.559
 4746TIP3   OH235796   0.043   1.642   7.726
 4746TIP3    H135797   6.847   1.626   7.779
 4746TIP3    H235798   0.110   1.665   7.791
 4747TIP3   OH235799   0.752   5.732   7.859
 4747TIP3    H135800   0.760   5.654   7.914
 4747TIP3    H235801   0.835   5.736   7.810
 4748TIP3   OH235802   5.697   4.736   7.353
 4748TIP3    H135803   5.658   4.765   7.435
 4748TIP3    H235804   5.640   4.665   7.323
 4749TIP3   OH235805   3.626   2.341   2.145
 4749TIP3    H135806   3.573   2.311   2.218
 4749TIP3    H235807   3.711   2.299   2.159
 4750TIP3   OH235808   4.357   0.706   7.748
 4750TIP3    H135809   4.300   0.779   7.773
 4750TIP3    H235810   4.300   0.645   7.702
 4751TIP3   OH235811   0.601   6.358   7.445
 4751TIP3    H135812   0.593   6.337   7.539
 4751TIP3    H235813   0.653   6.286   7.410
 4752TIP3   OH235814   5.453   2.469   7.993
 4752TIP3    H135815   5.537   2.476   8.037
 4752TIP3    H235816   5.405   2.547   8.020
 4753TIP3   OH235817   2.532   4.263   7.978
 4753TIP3    H135818   2.512   4.351   8.011
 4753TIP3    H235819   2.530   4.208   8.056
 4754TIP3   OH235820   6.605   6.060   7.219
 4754TIP3    H135821   6.515   6.076   7.191
 4754TIP3    H235822   6.596   6.016   7.304
 4755TIP3   OH235823   0.250   1.238   0.452
 4755TIP3    H135824   0.340   1.250   0.482
 4755TIP3    H235825   0.258   1.195   0.367
 4756TIP3   OH235826   1.522   5.856   0.848
 4756TIP3    H135827   1.515   5.928   0.785
 4756TIP3    H235828   1.438   5.856   0.894
 4757TIP3   OH235829   5.687   4.245   0.216
 4757TIP3    H135830   5.690   4.155   0.247
 4757TIP3    H235831   5.596   4.260   0.191
 4758TIP3   OH235832   6.368   2.930   0.910
 4758TIP3    H135833   6.381   3.014   0.867
 4758TIP3    H235834   6.277   2.907   0.892
 4759TIP3   OH235835   3.875   6.586   7.355
 4759TIP3    H135836   3.829   6.559   7.276
 4759TIP3    H235837   3.949   6.638   7.323
 4760TIP3   OH235838   6.872   3.152   2.326
 4760TIP3    H135839   6.799   3.187   2.274
 4760TIP3    H235840   0.025   3.228   2.371
 4761TIP3   OH235841   5.148   3.038   1.876
 4761TIP3    H135842   5.191   3.049   1.961
 4761TIP3    H235843   5.137   2.944   1.866
 4762TIP3   OH235844   2.364   3.213   0.599
 4762TIP3    H135845   2.398   3.129   0.567
 4762TIP3    H235846   2.431   3.245   0.659
 4763TIP3   OH235847   1.650   3.620   1.266
 4763TIP3    H135848   1.650   3.585   1.177
 4763TIP3    H235849   1.734   3.593   1.303
 4764TIP3   OH235850   0.017   6.595   8.296
 4764TIP3    H135851   6.835   6.635   8.353
 4764TIP3    H235852   0.040   6.512   8.339
 4765TIP3   OH235853   4.281   3.518   7.541
 4765TIP3    H135854   4.332   3.450   7.584
 4765TIP3    H235855   4.306   3.599   7.585
 4766TIP3   OH235856   5.787   5.560   0.907
 4766TIP3    H135857   5.797   5.625   0.977
 4766TIP3    H235858   5.692   5.545   0.902
 4767TIP3   OH235859   0.848   0.016   6.545
 4767TIP3    H135860   0.766   0.050   6.580
 4767TIP3    H235861   0.821   6.848   6.468
 4768TIP3   OH235862   3.397   3.921   6.372
 4768TIP3    H135863   3.312   3.895   6.408
 4768TIP3    H235864   3.376   3.983   6.302
 4769TIP3   OH235865   4.267   0.052   0.321
 4769TIP3    H135866   4.275   0.114   0.394
 4769TIP3    H235867   4.174   0.033   0.315
 4770TIP3   OH235868   5.880   2.234   6.544
 4770TIP3    H135869   5.929   2.166   6.590
 4770TIP3    H235870   5.828   2.186   6.479
 4771TIP3   OH235871   5.729   4.002   1.129
 4771TIP3    H135872   5.807   3.955   1.100
 4771TIP3    H235873   5.660   3.936   1.127
 4772TIP3   OH235874   6.670   3.432   0.087
 4772TIP3    H135875   6.750   3.393   0.051
 4772TIP3    H235876   6.699   3.516   0.123
 4773TIP3   OH235877   6.312   5.858   7.219
 4773TIP3    H135878   6.309   5.933   7.159
 4773TIP3    H235879   6.278   5.785   7.167
 4774TIP3   OH235880   1.482   0.906   7.748
 4774TIP3    H135881   1.412   0.872   7.804
 4774TIP3    H235882   1.448   0.898   7.659
 4775TIP3   OH235883   2.500   3.406   0.771
 4775TIP3    H135884   2.574   3.345   0.770
 4775TIP3    H235885   2.502   3.446   0.858
 4776TIP3   OH235886   3.356   1.548   0.112
 4776TIP3    H135887   3.358   1.498   0.031
 4776TIP3    H235888   3.413   1.623   0.095
 4777TIP3   OH235889   1.849   0.533   0.870
 4777TIP3    H135890   1.906   0.463   0.900
 4777TIP3    H235891   1.799   0.495   0.798
 4778TIP3   OH235892   0.697   2.482   6.476
 4778TIP3    H135893   0.751   2.418   6.428
 4778TIP3    H235894   0.611   2.475   6.435
 4779TIP3   OH235895   3.941   0.207   0.230
 4779TIP3    H135896   3.980   0.127   0.196
 4779TIP3    H235897   3.938   0.194   0.325
 4780TIP3   OH235898   6.665   6.304   0.862
 4780TIP3    H135899   6.722   6.309   0.938
 4780TIP3    H235900   6.588   6.255   0.892
 4781TIP3   OH235901   2.308   5.099   0.577
 4781TIP3    H135902   2.278   5.010   0.558
 4781TIP3    H235903   2.238   5.137   0.631
 4782TIP3   OH235904   5.208   6.829   6.453
 4782TIP3    H135905   5.128   6.834   6.402
 4782TIP3    H235906   5.182   6.855   6.542
 4783TIP3   OH235907   2.057   1.167   0.996
 4783TIP3    H135908   2.152   1.153   0.996
 4783TIP3    H235909   2.029   1.142   1.085
 4784TIP3   OH235910   0.269   3.905   1.709
 4784TIP3    H135911   0.184   3.904   1.751
 4784TIP3    H235912   0.330   3.876   1.776
 4785TIP3   OH235913   3.169   5.089   0.218
 4785TIP3    H135914   3.088   5.057   0.179
 4785TIP3    H235915   3.163   5.063   0.310
 4786TIP3   OH235916   2.486   2.040   0.728
 4786TIP3    H135917   2.393   2.035   0.747
 4786TIP3    H235918   2.529   2.024   0.812
 4787TIP3   OH235919   3.119   6.306   8.147
 4787TIP3    H135920   3.030   6.289   8.117
 4787TIP3    H235921   3.110   6.378   8.210
 4788TIP3   OH235922   0.169   1.100   1.581
 4788TIP3    H135923   0.149   1.120   1.673
 4788TIP3    H235924   0.256   1.138   1.567
 4789TIP3   OH235925   6.368   2.637   0.540
 4789TIP3    H135926   6.414   2.586   0.607
 4789TIP3    H235927   6.395   2.727   0.556
 4790TIP3   OH235928   4.426   5.668   0.072
 4790TIP3    H135929   4.334   5.664   0.095
 4790TIP3    H235930   4.466   5.722   0.140
 4791TIP3   OH235931   1.802   1.552   7.044
 4791TIP3    H135932   1.729   1.495   7.067
 4791TIP3    H235933   1.761   1.627   7.000
 4792TIP3   OH235934   4.231   3.787   0.570
 4792TIP3    H135935   4.234   3.862   0.630
 4792TIP3    H235936   4.183   3.720   0.617
 4793TIP3   OH235937   5.839   0.424   8.361
 4793TIP3    H135938   5.934   0.438   8.369
 4793TIP3    H235939   5.823   0.341   8.406
 4794TIP3   OH235940   4.519   6.799   0.362
 4794TIP3    H135941   4.523   6.735   0.291
 4794TIP3    H235942   4.426   6.817   0.373
 4795TIP3   OH235943   5.856   4.877   0.743
 4795TIP3    H135944   5.885   4.864   0.653
 4795TIP3    H235945   5.931   4.921   0.786
 4796TIP3   OH235946   6.303   1.836   2.636
 4796TIP3    H135947   6.320   1.885   2.555
 4796TIP3    H235948   6.235   1.887   2.680
 4797TIP3   OH235949   3.719   0.646   2.571
 4797TIP3    H135950   3.739   0.622   2.661
 4797TIP3    H235951   3.626   0.625   2.561
 4798TIP3   OH235952   0.471   4.064   1.345
 4798TIP3    H135953   0.525   4.140   1.322
 4798TIP3    H235954   0.389   4.101   1.377
 4799TIP3   OH235955   3.057   0.561   7.524
 4799TIP3    H135956   3.039   0.596   7.612
 4799TIP3    H235957   2.972   0.533   7.491
 4800TIP3   OH235958   3.829   5.818   1.091
 4800TIP3    H135959   3.895   5.796   1.157
 4800TIP3    H235960   3.851   5.906   1.063
 4801TIP3   OH235961   5.721   6.401   1.382
 4801TIP3    H135962   5.792   6.424   1.442
 4801TIP3    H235963   5.759   6.410   1.295
 4802TIP3   OH235964   2.822   6.014   7.177
 4802TIP3    H135965   2.732   6.014   7.209
 4802TIP3    H235966   2.815   6.003   7.083
 4803TIP3   OH235967   4.413   6.142   7.493
 4803TIP3    H135968   4.383   6.055   7.519
 4803TIP3    H235969   4.486   6.125   7.434
 4804TIP3   OH235970   1.749   1.951   7.835
 4804TIP3    H135971   1.791   1.866   7.848
 4804TIP3    H235972   1.674   1.950   7.895
 4805TIP3   OH235973   1.924   3.567   8.490
 4805TIP3    H135974   1.847   3.510   8.489
 4805TIP3    H235975   1.889   3.655   8.502
 4806TIP3   OH235976   6.036   1.703   0.175
 4806TIP3    H135977   6.128   1.710   0.149
 4806TIP3    H235978   6.035   1.728   0.268
 4807TIP3   OH235979   4.687   5.057   8.347
 4807TIP3    H135980   4.596   5.081   8.328
 4807TIP3    H235981   4.680   4.972   8.391
 4808TIP3   OH235982   5.341   2.473   6.509
 4808TIP3    H135983   5.281   2.401   6.490
 4808TIP3    H235984   5.386   2.490   6.427
 4809TIP3   OH235985   3.360   1.949   8.617
 4809TIP3    H135986   3.351   1.865   8.573
 4809TIP3    H235987   3.295   2.005   8.576
 4810TIP3   OH235988   0.605   3.207   7.709
 4810TIP3    H135989   0.664   3.159   7.651
 4810TIP3    H235990   0.534   3.236   7.652
 4811TIP3   OH235991   3.248   1.582   7.263
 4811TIP3    H135992   3.310   1.570   7.190
 4811TIP3    H235993   3.175   1.631   7.224
 4812TIP3   OH235994   5.752   0.143   8.513
 4812TIP3    H135995   5.674   0.161   8.460
 4812TIP3    H235996   5.783   0.058   8.480
 4813TIP3   OH235997   1.916   1.366   8.473
 4813TIP3    H135998   2.006   1.393   8.491
 4813TIP3    H235999   1.863   1.420   8.532
 4814TIP3   OH236000   4.329   6.588   7.008
 4814TIP3    H136001   4.253   6.566   6.955
 4814TIP3    H236002   4.393   6.621   6.945
 4815TIP3   OH236003   5.662   6.808   2.640
 4815TIP3    H136004   5.610   6.882   2.609
 4815TIP3    H236005   5.730   6.797   2.574
 4816TIP3   OH236006   4.837   1.099   0.545
 4816TIP3    H136007   4.800   1.103   0.457
 4816TIP3    H236008   4.801   1.019   0.582
 4817TIP3   OH236009   6.860   0.671   6.374
 4817TIP3    H136010   0.027   0.749   6.350
 4817TIP3    H236011   0.019   0.600   6.325
 4818TIP3   OH236012   5.789   1.992   6.436
 4818TIP3    H136013   5.750   1.927   6.377
 4818TIP3    H236014   5.715   2.022   6.490
 4819TIP3   OH236015   4.064   4.132   0.752
 4819TIP3    H136016   4.137   4.161   0.697
 4819TIP3    H236017   4.095   4.144   0.842
 4820TIP3   OH236018   5.218   0.708   6.478
 4820TIP3    H136019   5.266   0.675   6.402
 4820TIP3    H236020   5.275   0.775   6.515
 4821TIP3   OH236021   2.921   1.499   7.925
 4821TIP3    H136022   2.944   1.566   7.989
 4821TIP3    H236023   2.994   1.498   7.863
 4822TIP3   OH236024   3.924   0.013   7.789
 4822TIP3    H136025   3.938   6.802   7.782
 4822TIP3    H236026   3.969   0.050   7.713
 4823TIP3   OH236027   2.321   5.310   7.247
 4823TIP3    H136028   2.245   5.367   7.248
 4823TIP3    H236029   2.338   5.294   7.154
 4824TIP3   OH236030   3.840   2.845   1.176
 4824TIP3    H136031   3.836   2.757   1.138
 4824TIP3    H236032   3.802   2.835   1.263
 4825TIP3   OH236033   2.287   4.847   7.880
 4825TIP3    H136034   2.231   4.778   7.844
 4825TIP3    H236035   2.358   4.856   7.816
 4826TIP3   OH236036   4.818   4.277   7.235
 4826TIP3    H136037   4.815   4.218   7.160
 4826TIP3    H236038   4.910   4.302   7.243
 4827TIP3   OH236039   0.466   5.684   1.644
 4827TIP3    H136040   0.555   5.665   1.612
 4827TIP3    H236041   0.409   5.629   1.590
 4828TIP3   OH236042   4.962   3.691   2.346
 4828TIP3    H136043   4.942   3.732   2.262
 4828TIP3    H236044   5.057   3.677   2.345
 4829TIP3   OH236045   0.305   4.460   7.450
 4829TIP3    H136046   0.309   4.514   7.529
 4829TIP3    H236047   0.213   4.432   7.446
 4830TIP3   OH236048   6.813   2.728   8.207
 4830TIP3    H136049   6.837   2.639   8.180
 4830TIP3    H236050   6.729   2.744   8.164
 4831TIP3   OH236051   2.295   3.629   8.131
 4831TIP3    H136052   2.203   3.656   8.128
 4831TIP3    H236053   2.301   3.574   8.209
 4832TIP3   OH236054   1.543   2.906   8.208
 4832TIP3    H136055   1.502   2.928   8.124
 4832TIP3    H236056   1.486   2.944   8.274
 4833TIP3   OH236057   0.862   5.292   0.293
 4833TIP3    H136058   0.904   5.210   0.268
 4833TIP3    H236059   0.932   5.357   0.287
 4834TIP3   OH236060   6.875   0.895   7.691
 4834TIP3    H136061   6.799   0.917   7.744
 4834TIP3    H236062   0.067   0.909   7.749
 4835TIP3   OH236063   1.964   2.550   1.631
 4835TIP3    H136064   2.044   2.501   1.610
 4835TIP3    H236065   1.908   2.536   1.555
 4836TIP3   OH236066   1.913   3.275   6.969
 4836TIP3    H136067   1.988   3.333   6.959
 4836TIP3    H236068   1.873   3.271   6.882
 4837TIP3   OH236069   5.219   5.599   7.343
 4837TIP3    H136070   5.131   5.628   7.365
 4837TIP3    H236071   5.255   5.568   7.426
 4838TIP3   OH236072   3.755   3.510   8.128
 4838TIP3    H136073   3.835   3.501   8.180
 4838TIP3    H236074   3.696   3.443   8.164
 4839TIP3   OH236075   5.253   6.705   0.902
 4839TIP3    H136076   5.319   6.637   0.917
 4839TIP3    H236077   5.212   6.717   0.988
 4840TIP3   OH236078   0.820   2.578   0.540
 4840TIP3    H136079   0.816   2.494   0.585
 4840TIP3    H236080   0.793   2.559   0.451
 4841TIP3   OH236081   0.968   2.229   7.275
 4841TIP3    H136082   1.047   2.281   7.261
 4841TIP3    H236083   0.918   2.278   7.340
 4842TIP3   OH236084   3.734   6.307   1.267
 4842TIP3    H136085   3.711   6.243   1.334
 4842TIP3    H236086   3.829   6.318   1.275
 4843TIP3   OH236087   4.186   3.919   7.369
 4843TIP3    H136088   4.131   3.842   7.359
 4843TIP3    H236089   4.216   3.916   7.460
 4844TIP3   OH236090   3.596   0.811   8.048
 4844TIP3    H136091   3.502   0.829   8.054
 4844TIP3    H236092   3.617   0.823   7.956
 4845TIP3   OH236093   6.123   2.556   0.401
 4845TIP3    H136094   6.095   2.644   0.376
 4845TIP3    H236095   6.214   2.566   0.430
 4846TIP3   OH236096   1.349   6.292   1.652
 4846TIP3    H136097   1.307   6.324   1.732
 4846TIP3    H236098   1.328   6.358   1.586
 4847TIP3   OH236099   3.619   1.813   7.915
 4847TIP3    H136100   3.586   1.736   7.870
 4847TIP3    H236101   3.568   1.886   7.877
 4848TIP3   OH236102   6.873   5.301   1.272
 4848TIP3    H136103   0.003   5.389   1.236
 4848TIP3    H236104   6.803   5.311   1.336
 4849TIP3   OH236105   6.470   6.387   7.692
 4849TIP3    H136106   6.505   6.307   7.654
 4849TIP3    H236107   6.428   6.432   7.618
 4850TIP3   OH236108   3.947   0.400   7.813
 4850TIP3    H136109   3.901   0.354   7.884
 4850TIP3    H236110   3.909   0.363   7.733
 4851TIP3   OH236111   3.855   2.910   6.724
 4851TIP3    H136112   3.814   2.956   6.797
 4851TIP3    H236113   3.832   2.962   6.647
 4852TIP3   OH236114   0.267   6.387   8.394
 4852TIP3    H136115   0.318   6.450   8.343
 4852TIP3    H236116   0.331   6.324   8.426
 4853TIP3   OH236117   2.445   0.381   8.517
 4853TIP3    H136118   2.517   0.437   8.544
 4853TIP3    H236119   2.458   0.369   8.423
 4854TIP3   OH236120   1.967   5.471   2.228
 4854TIP3    H136121   1.967   5.553   2.278
 4854TIP3    H236122   2.054   5.465   2.190
 4855TIP3   OH236123   1.516   4.900   1.055
 4855TIP3    H136124   1.570   4.940   0.986
 4855TIP3    H236125   1.426   4.921   1.030
 4856TIP3   OH236126   1.767   5.703   1.288
 4856TIP3    H136127   1.737   5.732   1.374
 4856TIP3    H236128   1.763   5.782   1.233
 4857TIP3   OH236129   5.303   2.492   1.445
 4857TIP3    H136130   5.280   2.578   1.478
 4857TIP3    H236131   5.313   2.438   1.523
 4858TIP3   OH236132   5.338   2.518   0.125
 4858TIP3    H136133   5.273   2.460   0.085
 4858TIP3    H236134   5.289   2.569   0.190
 4859TIP3   OH236135   6.822   0.252   0.722
 4859TIP3    H136136   6.790   0.163   0.732
 4859TIP3    H236137   0.032   0.243   0.703
 4860TIP3   OH236138   6.512   2.179   6.163
 4860TIP3    H136139   6.577   2.216   6.223
 4860TIP3    H236140   6.429   2.217   6.191
 4861TIP3   OH236141   1.992   6.640   2.345
 4861TIP3    H136142   1.993   6.553   2.306
 4861TIP3    H236143   1.903   6.652   2.377
 4862TIP3   OH236144   0.815   3.199   1.960
 4862TIP3    H136145   0.859   3.115   1.953
 4862TIP3    H236146   0.877   3.255   2.007
 4863TIP3   OH236147   2.193   2.327   1.181
 4863TIP3    H136148   2.118   2.324   1.121
 4863TIP3    H236149   2.212   2.420   1.190
 4864TIP3   OH236150   6.511   5.955   2.286
 4864TIP3    H136151   6.596   5.997   2.271
 4864TIP3    H236152   6.513   5.932   2.379
 4865TIP3   OH236153   1.930   5.852   1.584
 4865TIP3    H136154   1.972   5.915   1.643
 4865TIP3    H236155   1.884   5.906   1.519
 4866TIP3   OH236156   3.742   0.031   1.449
 4866TIP3    H136157   3.668   6.853   1.439
 4866TIP3    H236158   3.701   0.113   1.478
 4867TIP3   OH236159   3.274   1.800   0.741
 4867TIP3    H136160   3.220   1.725   0.716
 4867TIP3    H236161   3.239   1.873   0.691
 4868TIP3   OH236162   2.400   0.602   7.867
 4868TIP3    H136163   2.356   0.685   7.852
 4868TIP3    H236164   2.398   0.590   7.962
 4869TIP3   OH236165   6.183   0.080   0.914
 4869TIP3    H136166   6.159   0.111   0.827
 4869TIP3    H236167   6.099   0.066   0.958
 4870TIP3   OH236168   6.335   4.484   0.719
 4870TIP3    H136169   6.248   4.458   0.689
 4870TIP3    H236170   6.395   4.442   0.658
 4871TIP3   OH236171   3.688   2.671   7.152
 4871TIP3    H136172   3.773   2.678   7.107
 4871TIP3    H236173   3.699   2.721   7.232
 4872TIP3   OH236174   1.772   4.698   0.734
 4872TIP3    H136175   1.812   4.721   0.818
 4872TIP3    H236176   1.680   4.719   0.744
 4873TIP3   OH236177   0.584   0.277   7.738
 4873TIP3    H136178   0.560   0.243   7.825
 4873TIP3    H236179   0.679   0.263   7.733
 4874TIP3   OH236180   5.691   3.671   0.544
 4874TIP3    H136181   5.654   3.735   0.605
 4874TIP3    H236182   5.635   3.594   0.553
 4875TIP3   OH236183   5.986   3.123   0.687
 4875TIP3    H136184   6.080   3.114   0.675
 4875TIP3    H236185   5.955   3.159   0.603
 4876TIP3   OH236186   1.565   6.157   2.326
 4876TIP3    H136187   1.639   6.096   2.330
 4876TIP3    H236188   1.595   6.228   2.269
 4877TIP3   OH236189   6.397   3.018   0.193
 4877TIP3    H136190   6.458   3.032   0.266
 4877TIP3    H236191   6.409   3.095   0.137
 4878TIP3   OH236192   5.039   1.402   5.967
 4878TIP3    H136193   4.961   1.450   5.940
 4878TIP3    H236194   5.010   1.311   5.972
 4879TIP3   OH236195   2.673   6.347   0.633
 4879TIP3    H136196   2.672   6.384   0.545
 4879TIP3    H236197   2.623   6.410   0.685
 4880TIP3   OH236198   4.413   5.902   0.690
 4880TIP3    H136199   4.332   5.941   0.658
 4880TIP3    H236200   4.479   5.969   0.675
 4881TIP3   OH236201   4.114   3.984   1.511
 4881TIP3    H136202   4.101   4.072   1.545
 4881TIP3    H236203   4.033   3.938   1.534
 4882TIP3   OH236204   6.303   4.009   8.126
 4882TIP3    H136205   6.294   3.979   8.036
 4882TIP3    H236206   6.220   4.052   8.146
 4883TIP3   OH236207   4.784   1.277   1.269
 4883TIP3    H136208   4.694   1.309   1.279
 4883TIP3    H236209   4.829   1.306   1.349
 4884TIP3   OH236210   5.401   0.031   1.298
 4884TIP3    H136211   5.462   6.853   1.340
 4884TIP3    H236212   5.354   0.072   1.370
 4885TIP3   OH236213   2.217   2.619   1.203
 4885TIP3    H136214   2.157   2.676   1.252
 4885TIP3    H236215   2.299   2.622   1.253
 4886TIP3   OH236216   0.898   6.703   0.094
 4886TIP3    H136217   0.938   6.670   0.174
 4886TIP3    H236218   0.805   6.683   0.104
 4887TIP3   OH236219   0.018   3.355   0.003
 4887TIP3    H136220   0.098   3.407   8.628
 4887TIP3    H236221   0.048   3.265   0.011
 4888TIP3   OH236222   2.583   6.664   1.508
 4888TIP3    H136223   2.593   6.753   1.542
 4888TIP3    H236224   2.673   6.634   1.495
 4889TIP3   OH236225   0.361   0.263   1.602
 4889TIP3    H136226   0.296   0.206   1.642
 4889TIP3    H236227   0.422   0.203   1.558
 4890TIP3   OH236228   2.533   6.596   0.665
 4890TIP3    H136229   2.446   6.582   0.628
 4890TIP3    H236230   2.578   6.652   0.602
 4891TIP3   OH236231   1.301   5.578   7.732
 4891TIP3    H136232   1.318   5.566   7.825
 4891TIP3    H236233   1.372   5.634   7.701
 4892TIP3   OH236234   3.933   2.154   1.718
 4892TIP3    H136235   3.889   2.236   1.698
 4892TIP3    H236236   3.930   2.147   1.813
 4893TIP3   OH236237   2.992   3.804   0.227
 4893TIP3    H136238   3.040   3.723   0.242
 4893TIP3    H236239   2.916   3.778   0.175
 4894TIP3   OH236240   6.365   5.392   0.906
 4894TIP3    H136241   6.442   5.427   0.952
 4894TIP3    H236242   6.373   5.428   0.817
 4895TIP3   OH236243   6.753   2.541   0.121
 4895TIP3    H136244   6.753   2.539   0.025
 4895TIP3    H236245   6.699   2.617   0.143
 4896TIP3   OH236246   3.434   4.918   7.203
 4896TIP3    H136247   3.379   4.934   7.280
 4896TIP3    H236248   3.523   4.933   7.234
 4897TIP3   OH236249   1.922   5.693   6.861
 4897TIP3    H136250   1.873   5.768   6.825
 4897TIP3    H236251   1.866   5.661   6.932
 4898TIP3   OH236252   3.903   6.180   0.602
 4898TIP3    H136253   3.973   6.170   0.667
 4898TIP3    H236254   3.861   6.094   0.600
 4899TIP3   OH236255   4.881   1.829   8.560
 4899TIP3    H136256   4.975   1.842   8.549
 4899TIP3    H236257   4.848   1.916   8.586
 4900TIP3   OH236258   4.460   3.990   8.171
 4900TIP3    H136259   4.498   3.902   8.159
 4900TIP3    H236260   4.404   4.001   8.094
 4901TIP3   OH236261   2.743   5.643   0.003
 4901TIP3    H136262   2.785   5.557   0.003
 4901TIP3    H236263   2.703   5.650   8.548
 4902TIP3   OH236264   0.716   6.174   1.153
 4902TIP3    H136265   0.685   6.094   1.196
 4902TIP3    H236266   0.638   6.208   1.108
 4903TIP3   OH236267   3.835   4.924   7.969
 4903TIP3    H136268   3.919   4.881   7.954
 4903TIP3    H236269   3.786   4.863   8.025
 4904TIP3   OH236270   1.524   1.984   6.547
 4904TIP3    H136271   1.533   1.911   6.486
 4904TIP3    H236272   1.614   2.010   6.566
 4905TIP3   OH236273   3.140   5.257   7.680
 4905TIP3    H136274   3.160   5.204   7.757
 4905TIP3    H236275   3.094   5.197   7.621
 4906TIP3   OH236276   2.467   6.504   2.556
 4906TIP3    H136277   2.489   6.483   2.646
 4906TIP3    H236278   2.372   6.508   2.554
 4907TIP3   OH236279   1.149   6.532   2.268
 4907TIP3    H136280   1.209   6.463   2.241
 4907TIP3    H236281   1.064   6.505   2.233
 4908TIP3   OH236282   6.196   4.436   0.196
 4908TIP3    H136283   6.107   4.457   0.166
 4908TIP3    H236284   6.253   4.487   0.139
 4909TIP3   OH236285   5.454   1.738   1.165
 4909TIP3    H136286   5.367   1.698   1.168
 4909TIP3    H236287   5.471   1.753   1.072
 4910TIP3   OH236288   6.143   5.130   1.762
 4910TIP3    H136289   6.125   5.137   1.856
 4910TIP3    H236290   6.109   5.044   1.738
 4911TIP3   OH236291   3.460   2.935   1.612
 4911TIP3    H136292   3.538   2.960   1.661
 4911TIP3    H236293   3.400   2.901   1.678
 4912TIP3   OH236294   3.865   2.441   0.893
 4912TIP3    H136295   3.940   2.410   0.843
 4912TIP3    H236296   3.898   2.516   0.943
 4913TIP3   OH236297   5.904   3.558   6.250
 4913TIP3    H136298   5.908   3.490   6.318
 4913TIP3    H236299   5.989   3.603   6.258
 4914TIP3   OH236300   1.676   3.941   1.103
 4914TIP3    H136301   1.630   3.966   1.184
 4914TIP3    H236302   1.715   4.023   1.072
 4915TIP3   OH236303   6.374   0.522   7.776
 4915TIP3    H136304   6.411   0.438   7.803
 4915TIP3    H236305   6.447   0.570   7.737
 4916TIP3   OH236306   2.448   2.345   0.975
 4916TIP3    H136307   2.520   2.359   1.036
 4916TIP3    H236308   2.478   2.382   0.892
 4917TIP3   OH236309   5.150   2.275   6.456
 4917TIP3    H136310   5.205   2.212   6.409
 4917TIP3    H236311   5.072   2.286   6.401
 4918TIP3   OH236312   0.195   6.709   7.712
 4918TIP3    H136313   0.242   6.691   7.631
 4918TIP3    H236314   0.136   6.634   7.722
 4919TIP3   OH236315   0.876   1.878   6.569
 4919TIP3    H136316   0.854   1.808   6.507
 4919TIP3    H236317   0.791   1.913   6.596
 4920TIP3   OH236318   5.871   1.330   8.434
 4920TIP3    H136319   5.897   1.283   8.355
 4920TIP3    H236320   5.922   1.289   8.504
 4921TIP3   OH236321   2.307   1.064   8.628
 4921TIP3    H136322   2.386   1.079   8.576
 4921TIP3    H236323   2.251   1.139   8.608
 4922TIP3   OH236324   3.911   1.497   1.955
 4922TIP3    H136325   3.859   1.424   1.923
 4922TIP3    H236326   3.865   1.575   1.924
 4923TIP3   OH236327   1.408   3.858   0.581
 4923TIP3    H136328   1.448   3.906   0.653
 4923TIP3    H236329   1.384   3.927   0.518
 4924TIP3   OH236330   1.458   4.322   8.583
 4924TIP3    H136331   1.413   4.399   8.550
 4924TIP3    H236332   1.433   4.252   8.524
 4925TIP3   OH236333   5.122   5.352   0.524
 4925TIP3    H136334   5.149   5.287   0.588
 4925TIP3    H236335   5.043   5.316   0.484
 4926TIP3   OH236336   4.581   0.797   7.600
 4926TIP3    H136337   4.577   0.757   7.513
 4926TIP3    H236338   4.502   0.765   7.644
 4927TIP3   OH236339   3.938   0.737   7.246
 4927TIP3    H136340   3.985   0.655   7.229
 4927TIP3    H236341   3.994   0.785   7.308
 4928TIP3   OH236342   4.810   0.879   6.053
 4928TIP3    H136343   4.818   0.801   5.998
 4928TIP3    H236344   4.716   0.887   6.069
 4929TIP3   OH236345   5.950   4.580   7.752
 4929TIP3    H136346   5.896   4.502   7.764
 4929TIP3    H236347   6.039   4.552   7.773
 4930TIP3   OH236348   5.149   2.025   8.427
 4930TIP3    H136349   5.235   2.034   8.386
 4930TIP3    H236350   5.087   2.046   8.357
 4931TIP3   OH236351   2.442   3.403   8.275
 4931TIP3    H136352   2.404   3.396   8.187
 4931TIP3    H236353   2.384   3.350   8.330
 4932TIP3   OH236354   2.597   1.209   1.148
 4932TIP3    H136355   2.606   1.251   1.234
 4932TIP3    H236356   2.686   1.195   1.118
 4933TIP3   OH236357   4.806   2.588   0.695
 4933TIP3    H136358   4.798   2.627   0.607
 4933TIP3    H236359   4.843   2.502   0.679
 4934TIP3   OH236360   6.100   2.474   7.341
 4934TIP3    H136361   6.066   2.498   7.255
 4934TIP3    H236362   6.022   2.453   7.392
 4935TIP3   OH236363   5.785   4.836   1.523
 4935TIP3    H136364   5.727   4.774   1.567
 4935TIP3    H236365   5.864   4.837   1.577
 4936TIP3   OH236366   0.383   5.776   6.517
 4936TIP3    H136367   0.371   5.835   6.443
 4936TIP3    H236368   0.330   5.813   6.587
 4937TIP3   OH236369   5.319   0.769   1.223
 4937TIP3    H136370   5.377   0.749   1.297
 4937TIP3    H236371   5.261   0.838   1.255
 4938TIP3   OH236372   1.592   2.720   1.318
 4938TIP3    H136373   1.619   2.686   1.233
 4938TIP3    H236374   1.643   2.670   1.381
 4939TIP3   OH236375   1.805   4.082   0.508
 4939TIP3    H136376   1.725   4.091   0.559
 4939TIP3    H236377   1.852   4.165   0.521
 4940TIP3   OH236378   6.061   5.082   1.136
 4940TIP3    H136379   6.078   5.003   1.086
 4940TIP3    H236380   6.054   5.151   1.070
 4941TIP3   OH236381   6.828   2.777   2.002
 4941TIP3    H136382   6.771   2.814   1.934
 4941TIP3    H236383   6.823   2.683   1.988
 4942TIP3   OH236384   0.558   5.642   8.385
 4942TIP3    H136385   0.624   5.659   8.318
 4942TIP3    H236386   0.594   5.568   8.435
 4943TIP3   OH236387   3.053   5.306   0.455
 4943TIP3    H136388   3.121   5.368   0.428
 4943TIP3    H236389   2.984   5.316   0.390
 4944TIP3   OH236390   3.553   2.637   1.590
 4944TIP3    H136391   3.487   2.573   1.616
 4944TIP3    H236392   3.540   2.711   1.650
 4945TIP3   OH236393   2.083   0.293   8.084
 4945TIP3    H136394   2.065   0.370   8.030
 4945TIP3    H236395   2.125   0.231   8.025
 4946TIP3   OH236396   0.831   0.415   0.913
 4946TIP3    H136397   0.865   0.426   0.825
 4946TIP3    H236398   0.850   0.498   0.957
 4947TIP3   OH236399   0.656   1.935   6.277
 4947TIP3    H136400   0.567   1.900   6.281
 4947TIP3    H236401   0.645   2.024   6.242
 4948TIP3   OH236402   0.085   6.319   6.478
 4948TIP3    H136403   0.137   6.385   6.431
 4948TIP3    H236404   0.125   6.235   6.454
 4949TIP3   OH236405   1.870   6.757   6.933
 4949TIP3    H136406   1.848   6.681   6.879
 4949TIP3    H236407   1.965   6.755   6.940
 4950TIP3   OH236408   1.564   3.624   0.540
 4950TIP3    H136409   1.491   3.566   0.564
 4950TIP3    H236410   1.536   3.710   0.569
 4951TIP3   OH236411   6.173   4.764   0.644
 4951TIP3    H136412   6.118   4.802   0.575
 4951TIP3    H236413   6.121   4.692   0.679
 4952TIP3   OH236414   0.697   6.719   8.156
 4952TIP3    H136415   0.709   6.804   8.113
 4952TIP3    H236416   0.775   6.669   8.133
 4953TIP3   OH236417   4.962   4.333   1.560
 4953TIP3    H136418   4.980   4.416   1.517
 4953TIP3    H236419   5.048   4.300   1.586
 4954TIP3   OH236420   4.249   0.764   8.365
 4954TIP3    H136421   4.181   0.721   8.416
 4954TIP3    H236422   4.208   0.785   8.281
 4955TIP3   OH236423   0.610   5.501   7.010
 4955TIP3    H136424   0.679   5.435   7.002
 4955TIP3    H236425   0.644   5.565   7.073
 4956TIP3   OH236426   2.147   0.337   8.628
 4956TIP3    H136427   2.222   0.396   8.631
 4956TIP3    H236428   2.123   0.334   8.535
 4957TIP3   OH236429   6.811   1.066   7.461
 4957TIP3    H136430   6.792   1.001   7.393
 4957TIP3    H236431   6.840   1.014   7.536
 4958TIP3   OH236432   2.721   2.480   7.490
 4958TIP3    H136433   2.650   2.500   7.551
 4958TIP3    H236434   2.789   2.442   7.545
 4959TIP3   OH236435   2.709   3.568   7.906
 4959TIP3    H136436   2.707   3.637   7.973
 4959TIP3    H236437   2.802   3.547   7.896
 4960TIP3   OH236438   3.378   2.443   1.690
 4960TIP3    H136439   3.290   2.417   1.660
 4960TIP3    H236440   3.363   2.482   1.776
 4961TIP3   OH236441   4.497   3.940   7.775
 4961TIP3    H136442   4.478   3.888   7.853
 4961TIP3    H236443   4.557   4.008   7.806
 4962TIP3   OH236444   4.409   0.846   7.238
 4962TIP3    H136445   4.405   0.928   7.288
 4962TIP3    H236446   4.464   0.868   7.163
 4963TIP3   OH236447   3.045   1.708   7.130
 4963TIP3    H136448   2.998   1.791   7.132
 4963TIP3    H236449   3.090   1.709   7.045
 4964TIP3   OH236450   1.479   5.601   6.486
 4964TIP3    H136451   1.529   5.548   6.425
 4964TIP3    H236452   1.395   5.554   6.495
 4965TIP3   OH236453   6.605   2.756   7.509
 4965TIP3    H136454   6.602   2.849   7.532
 4965TIP3    H236455   6.557   2.750   7.426
 4966TIP3   OH236456   2.015   3.911   0.486
 4966TIP3    H136457   2.035   3.870   0.401
 4966TIP3    H236458   1.936   3.962   0.470
 4967TIP3   OH236459   0.801   3.993   7.718
 4967TIP3    H136460   0.766   4.082   7.730
 4967TIP3    H236461   0.837   3.969   7.803
 4968TIP3   OH236462   4.976   1.650   0.590
 4968TIP3    H136463   5.021   1.598   0.656
 4968TIP3    H236464   4.910   1.699   0.639
 4969TIP3   OH236465   0.603   4.301   1.309
 4969TIP3    H136466   0.677   4.358   1.288
 4969TIP3    H236467   0.527   4.346   1.271
 4970TIP3   OH236468   0.626   6.638   6.644
 4970TIP3    H136469   0.614   6.720   6.595
 4970TIP3    H236470   0.537   6.602   6.653
 4971TIP3   OH236471   0.923   6.418   2.122
 4971TIP3    H136472   0.915   6.337   2.173
 4971TIP3    H236473   0.907   6.391   2.031
 4972TIP3   OH236474   0.551   6.878   2.497
 4972TIP3    H136475   0.474   0.011   2.551
 4972TIP3    H236476   0.529   6.801   2.445
 4973TIP3   OH236477   6.702   5.777   2.640
 4973TIP3    H136478   6.632   5.736   2.691
 4973TIP3    H236479   6.706   5.725   2.560
 4974TIP3   OH236480   6.239   6.111   2.072
 4974TIP3    H136481   6.223   6.065   2.155
 4974TIP3    H236482   6.287   6.190   2.097
 4975TIP3   OH236483   0.191   6.024   0.712
 4975TIP3    H136484   0.106   6.060   0.687
 4975TIP3    H236485   0.231   5.997   0.630
 4976TIP3   OH236486   4.857   4.288   0.588
 4976TIP3    H136487   4.790   4.319   0.526
 4976TIP3    H236488   4.885   4.367   0.634
 4977TIP3   OH236489   1.623   4.546   8.595
 4977TIP3    H136490   1.709   4.520   8.626
 4977TIP3    H236491   1.568   4.469   8.611
 4978TIP3   OH236492   1.446   2.118   0.076
 4978TIP3    H136493   1.411   2.033   0.051
 4978TIP3    H236494   1.377   2.181   0.054
 4979TIP3   OH236495   2.239   4.420   0.795
 4979TIP3    H136496   2.157   4.410   0.746
 4979TIP3    H236497   2.233   4.356   0.865
 4980TIP3   OH236498   6.086   4.376   1.410
 4980TIP3    H136499   6.130   4.421   1.483
 4980TIP3    H236500   6.018   4.323   1.452
 4981TIP3   OH236501   1.197   1.076   2.673
 4981TIP3    H136502   1.251   1.122   2.608
 4981TIP3    H236503   1.118   1.050   2.625
 4982TIP3   OH236504   6.048   5.851   1.325
 4982TIP3    H136505   5.953   5.867   1.327
 4982TIP3    H236506   6.072   5.839   1.417
 4983TIP3   OH236507   5.613   4.497   0.385
 4983TIP3    H136508   5.615   4.557   0.459
 4983TIP3    H236509   5.561   4.542   0.319
 4984TIP3   OH236510   4.981   1.222   1.056
 4984TIP3    H136511   4.888   1.201   1.046
 4984TIP3    H236512   5.025   1.168   0.990
 4985TIP3   OH236513   6.259   5.763   2.460
 4985TIP3    H136514   6.245   5.728   2.372
 4985TIP3    H236515   6.261   5.858   2.448
 4986TIP3   OH236516   2.702   5.297   7.401
 4986TIP3    H136517   2.625   5.296   7.344
 4986TIP3    H236518   2.686   5.369   7.461
 4987TIP3   OH236519   6.240   0.301   7.418
 4987TIP3    H136520   6.194   0.367   7.367
 4987TIP3    H236521   6.203   0.308   7.506
 4988TIP3   OH236522   5.382   0.074   0.825
 4988TIP3    H136523   5.332   0.007   0.871
 4988TIP3    H236524   5.467   0.075   0.868
 4989TIP3   OH236525   0.561   3.243   6.838
 4989TIP3    H136526   0.503   3.300   6.789
 4989TIP3    H236527   0.649   3.275   6.818
 4990TIP3   OH236528   5.781   4.293   0.788
 4990TIP3    H136529   5.766   4.280   0.694
 4990TIP3    H236530   5.874   4.314   0.795
 4991TIP3   OH236531   4.975   0.714   0.282
 4991TIP3    H136532   5.035   0.753   0.218
 4991TIP3    H236533   5.001   0.753   0.366
 4992TIP3   OH236534   5.858   4.709   8.134
 4992TIP3    H136535   5.876   4.615   8.121
 4992TIP3    H236536   5.880   4.725   8.226
 4993TIP3   OH236537   3.183   4.255   6.696
 4993TIP3    H136538   3.252   4.266   6.630
 4993TIP3    H236539   3.127   4.332   6.684
 4994TIP3   OH236540   0.009   2.908   7.834
 4994TIP3    H136541   6.803   2.891   7.866
 4994TIP3    H236542   0.058   2.829   7.854
 4995TIP3   OH236543   0.059   2.770   0.811
 4995TIP3    H136544   0.067   2.680   0.780
 4995TIP3    H236545   0.101   2.769   0.898
 4996TIP3   OH236546   3.286   0.189   8.557
 4996TIP3    H136547   3.226   0.162   8.627
 4996TIP3    H236548   3.243   0.162   8.476
 4997TIP3   OH236549   3.181   2.232   8.031
 4997TIP3    H136550   3.140   2.316   8.008
 4997TIP3    H236551   3.202   2.192   7.946
 4998TIP3   OH236552   1.432   1.408   1.475
 4998TIP3    H136553   1.389   1.348   1.537
 4998TIP3    H236554   1.494   1.353   1.427
 4999TIP3   OH236555   1.916   2.513   7.459
 4999TIP3    H136556   1.968   2.555   7.527
 4999TIP3    H236557   1.870   2.586   7.417
 5000TIP3   OH236558   2.192   4.191   8.121
 5000TIP3    H136559   2.198   4.276   8.076
 5000TIP3    H236560   2.191   4.127   8.050
 5001TIP3   OH236561   6.599   3.718   1.980
 5001TIP3    H136562   6.643   3.633   1.978
 5001TIP3    H236563   6.522   3.703   2.034
 5002TIP3   OH236564   3.040   2.340   6.452
 5002TIP3    H136565   3.083   2.406   6.506
 5002TIP3    H236566   3.099   2.264   6.455
 5003TIP3   OH236567   5.053   6.274   8.224
 5003TIP3    H136568   5.055   6.226   8.306
 5003TIP3    H236569   5.021   6.210   8.160
 5004TIP3   OH236570   1.975   3.248   0.431
 5004TIP3    H136571   1.959   3.177   0.370
 5004TIP3    H236572   1.889   3.284   0.450
 5005TIP3   OH236573   0.403   5.372   7.202
 5005TIP3    H136574   0.314   5.350   7.174
 5005TIP3    H236575   0.458   5.338   7.132
 5006TIP3   OH236576   5.976   0.249   8.618
 5006TIP3    H136577   5.893   0.221   8.579
 5006TIP3    H236578   5.955   0.333   0.028
 5007TIP3   OH236579   2.138   2.237   1.454
 5007TIP3    H136580   2.173   2.267   1.370
 5007TIP3    H236581   2.143   2.314   1.511
 5008TIP3   OH236582   3.912   3.265   1.451
 5008TIP3    H136583   3.871   3.327   1.511
 5008TIP3    H236584   3.884   3.179   1.482
 5009TIP3   OH236585   6.228   4.164   7.700
 5009TIP3    H136586   6.265   4.085   7.659
 5009TIP3    H236587   6.159   4.192   7.641
 5010TIP3   OH236588   3.619   3.923   1.539
 5010TIP3    H136589   3.551   3.990   1.534
 5010TIP3    H236590   3.576   3.846   1.575
 5011TIP3   OH236591   5.226   6.700   7.407
 5011TIP3    H136592   5.249   6.787   7.375
 5011TIP3    H236593   5.307   6.650   7.399
 5012TIP3   OH236594   2.394   0.776   1.760
 5012TIP3    H136595   2.404   0.813   1.848
 5012TIP3    H236596   2.300   0.776   1.744
 5013TIP3   OH236597   6.493   4.874   6.598
 5013TIP3    H136598   6.492   4.964   6.567
 5013TIP3    H236599   6.545   4.827   6.533
 5014TIP3   OH236600   4.519   0.932   6.966
 5014TIP3    H136601   4.502   1.006   6.907
 5014TIP3    H236602   4.614   0.925   6.969
 5015TIP3   OH236603   4.881   0.705   2.754
 5015TIP3    H136604   4.889   0.795   2.724
 5015TIP3    H236605   4.798   0.702   2.802
 5016TIP3   OH236606   0.780   4.026   0.694
 5016TIP3    H136607   0.740   3.939   0.690
 5016TIP3    H236608   0.858   4.019   0.638
 5017TIP3   OH236609   1.291   4.320   7.058
 5017TIP3    H136610   1.341   4.346   6.981
 5017TIP3    H236611   1.227   4.391   7.070
 5018TIP3   OH236612   0.064   3.744   6.826
 5018TIP3    H136613   6.861   3.733   6.784
 5018TIP3    H236614   0.114   3.668   6.799
 5019TIP3   OH236615   4.777   3.406   8.073
 5019TIP3    H136616   4.858   3.456   8.083
 5019TIP3    H236617   4.763   3.365   8.158
 5020TIP3   OH236618   5.321   3.786   0.869
 5020TIP3    H136619   5.299   3.696   0.895
 5020TIP3    H236620   5.247   3.838   0.900
 5021TIP3   OH236621   4.749   4.235   0.128
 5021TIP3    H136622   4.684   4.249   0.197
 5021TIP3    H236623   4.819   4.186   0.171
 5022TIP3   OH236624   4.909   3.010   7.925
 5022TIP3    H136625   4.986   3.067   7.934
 5022TIP3    H236626   4.877   3.027   7.836
 5023TIP3   OH236627   6.173   5.207   0.670
 5023TIP3    H136628   6.261   5.224   0.704
 5023TIP3    H236629   6.121   5.280   0.701
 5024TIP3   OH236630   4.175   4.988   8.263
 5024TIP3    H136631   4.265   5.020   8.273
 5024TIP3    H236632   4.185   4.896   8.240
 5025TIP3   OH236633   4.028   4.214   6.858
 5025TIP3    H136634   4.025   4.241   6.950
 5025TIP3    H236635   4.045   4.294   6.809
 5026TIP3   OH236636   1.868   4.225   8.434
 5026TIP3    H136637   1.849   4.289   8.366
 5026TIP3    H236638   1.957   4.195   8.414
 5027TIP3   OH236639   0.507   4.109   8.400
 5027TIP3    H136640   0.437   4.045   8.396
 5027TIP3    H236641   0.587   4.056   8.396
 5028TIP3   OH236642   1.319   1.921   8.572
 5028TIP3    H136643   1.223   1.932   8.572
 5028TIP3    H236644   1.335   1.856   8.504
 5029TIP3   OH236645   1.425   5.178   8.069
 5029TIP3    H136646   1.493   5.193   8.134
 5029TIP3    H236647   1.433   5.085   8.047
 5030TIP3   OH236648   5.487   0.822   8.340
 5030TIP3    H136649   5.555   0.755   8.328
 5030TIP3    H236650   5.436   0.792   8.415
 5031TIP3   OH236651   0.318   0.684   8.278
 5031TIP3    H136652   0.397   0.734   8.296
 5031TIP3    H236653   0.248   0.733   8.322
 5032TIP3   OH236654   4.335   2.298   7.421
 5032TIP3    H136655   4.282   2.224   7.391
 5032TIP3    H236656   4.408   2.302   7.360
 5033TIP3   OH236657   1.392   0.821   7.177
 5033TIP3    H136658   1.444   0.745   7.202
 5033TIP3    H236659   1.392   0.821   7.081
 5034TIP3   OH236660   1.410   3.106   0.312
 5034TIP3    H136661   1.493   3.129   0.355
 5034TIP3    H236662   1.410   3.010   0.311
 5035TIP3   OH236663   6.864   2.501   7.324
 5035TIP3    H136664   0.004   2.585   7.364
 5035TIP3    H236665   0.013   2.507   7.234
 5036TIP3   OH236666   2.442   1.286   0.356
 5036TIP3    H136667   2.394   1.352   0.406
 5036TIP3    H236668   2.484   1.231   0.422
 5037TIP3   OH236669   2.013   1.801   7.640
 5037TIP3    H136670   2.081   1.734   7.643
 5037TIP3    H236671   1.969   1.794   7.724
 5038TIP3   OH236672   1.838   4.856   7.528
 5038TIP3    H136673   1.811   4.850   7.620
 5038TIP3    H236674   1.906   4.923   7.527
 5039TIP3   OH236675   2.924   0.955   2.076
 5039TIP3    H136676   2.977   1.014   2.130
 5039TIP3    H236677   2.950   0.974   1.986
 5040TIP3   OH236678   1.525   2.463   0.740
 5040TIP3    H136679   1.441   2.433   0.775
 5040TIP3    H236680   1.531   2.555   0.766
 5041TIP3   OH236681   2.755   1.319   8.487
 5041TIP3    H136682   2.807   1.338   8.566
 5041TIP3    H236683   2.667   1.302   8.521
 5042TIP3   OH236684   5.780   3.356   1.460
 5042TIP3    H136685   5.757   3.416   1.531
 5042TIP3    H236686   5.710   3.291   1.461
 5043TIP3   OH236687   6.091   6.645   0.967
 5043TIP3    H136688   6.170   6.658   1.019
 5043TIP3    H236689   6.027   6.707   1.002
 5044TIP3   OH236690   1.653   6.474   6.226
 5044TIP3    H136691   1.615   6.386   6.228
 5044TIP3    H236692   1.619   6.516   6.305
 5045TIP3   OH236693   3.913   1.703   8.547
 5045TIP3    H136694   3.883   1.620   8.584
 5045TIP3    H236695   3.988   1.728   8.601
 5046TIP3   OH236696   3.701   0.051   1.896
 5046TIP3    H136697   3.632   0.083   1.838
 5046TIP3    H236698   3.698   0.110   1.972
 5047TIP3   OH236699   5.602   1.944   8.305
 5047TIP3    H136700   5.589   1.904   8.219
 5047TIP3    H236701   5.681   1.902   8.339
 5048TIP3   OH236702   5.905   6.800   2.119
 5048TIP3    H136703   5.903   0.013   2.120
 5048TIP3    H236704   5.998   6.778   2.115
 5049TIP3   OH236705   6.277   0.976   1.152
 5049TIP3    H136706   6.254   0.884   1.152
 5049TIP3    H236707   6.372   0.977   1.142
 5050TIP3   OH236708   1.940   3.807   0.202
 5050TIP3    H136709   1.957   3.716   0.175
 5050TIP3    H236710   1.848   3.807   0.230
 5051TIP3   OH236711   1.819   0.942   0.613
 5051TIP3    H136712   1.850   0.855   0.586
 5051TIP3    H236713   1.892   0.978   0.662
 5052TIP3   OH236714   2.984   4.755   8.487
 5052TIP3    H136715   2.928   4.747   8.565
 5052TIP3    H236716   3.064   4.796   8.519
 5053TIP3   OH236717   2.622   0.829   2.630
 5053TIP3    H136718   2.657   0.909   2.669
 5053TIP3    H236719   2.564   0.859   2.560
 5054TIP3   OH236720   1.556   5.069   2.203
 5054TIP3    H136721   1.563   5.164   2.214
 5054TIP3    H236722   1.512   5.039   2.283
 5055TIP3   OH236723   3.171   6.585   1.696
 5055TIP3    H136724   3.246   6.610   1.642
 5055TIP3    H236725   3.206   6.518   1.755
 5056TIP3   OH236726   4.127   2.910   8.469
 5056TIP3    H136727   4.177   2.891   8.391
 5056TIP3    H236728   4.184   2.886   8.542
 5057TIP3   OH236729   4.181   2.275   2.200
 5057TIP3    H136730   4.219   2.309   2.281
 5057TIP3    H236731   4.181   2.180   2.211
 5058TIP3   OH236732   0.571   0.359   6.932
 5058TIP3    H136733   0.595   0.353   7.025
 5058TIP3    H236734   0.512   0.434   6.927
 5059TIP3   OH236735   0.189   4.355   0.152
 5059TIP3    H136736   0.222   4.442   0.172
 5059TIP3    H236737   0.134   4.332   0.227
 5060TIP3   OH236738   6.564   1.163   8.037
 5060TIP3    H136739   6.556   1.137   8.129
 5060TIP3    H236740   6.565   1.258   8.039
 5061TIP3   OH236741   4.754   3.240   0.956
 5061TIP3    H136742   4.711   3.269   1.037
 5061TIP3    H236743   4.816   3.309   0.936
 5062TIP3   OH236744   6.084   5.037   8.042
 5062TIP3    H136745   6.030   4.969   8.001
 5062TIP3    H236746   6.168   5.032   7.995
 5063TIP3   OH236747   1.155   4.010   2.081
 5063TIP3    H136748   1.200   4.091   2.059
 5063TIP3    H236749   1.199   3.978   2.160
 5064TIP3   OH236750   1.993   5.201   0.003
 5064TIP3    H136751   1.910   5.247   8.624
 5064TIP3    H236752   1.978   5.114   8.599
 5065TIP3   OH236753   5.757   6.696   0.834
 5065TIP3    H136754   5.820   6.711   0.763
 5065TIP3    H236755   5.706   6.777   0.839
 5066TIP3   OH236756   5.662   5.361   1.162
 5066TIP3    H136757   5.628   5.405   1.085
 5066TIP3    H236758   5.596   5.377   1.230
 5067TIP3   OH236759   1.546   5.266   1.164
 5067TIP3    H136760   1.580   5.296   1.080
 5067TIP3    H236761   1.474   5.208   1.141
 5068TIP3   OH236762   5.083   6.274   1.211
 5068TIP3    H136763   5.010   6.277   1.149
 5068TIP3    H236764   5.059   6.205   1.273
 5069TIP3   OH236765   5.555   3.920   2.404
 5069TIP3    H136766   5.533   3.836   2.363
 5069TIP3    H236767   5.493   3.929   2.476
 5070TIP3   OH236768   1.785   2.990   1.176
 5070TIP3    H136769   1.752   2.905   1.148
 5070TIP3    H236770   1.833   3.023   1.100
 5071TIP3   OH236771   3.333   6.540   1.430
 5071TIP3    H136772   3.371   6.557   1.345
 5071TIP3    H236773   3.259   6.482   1.412
 5072TIP3   OH236774   0.392   1.384   0.874
 5072TIP3    H136775   0.368   1.477   0.867
 5072TIP3    H236776   0.448   1.380   0.951
 5073TIP3   OH236777   6.710   3.380   0.803
 5073TIP3    H136778   6.665   3.433   0.868
 5073TIP3    H236779   6.795   3.422   0.793
 5074TIP3   OH236780   4.943   5.867   8.162
 5074TIP3    H136781   4.902   5.921   8.230
 5074TIP3    H236782   4.964   5.784   8.206
 5075TIP3   OH236783   4.198   2.926   6.199
 5075TIP3    H136784   4.129   2.941   6.264
 5075TIP3    H236785   4.190   2.999   6.138
 5076TIP3   OH236786   4.977   0.058   8.161
 5076TIP3    H136787   5.066   0.050   8.198
 5076TIP3    H236788   4.991   0.057   8.066
 5077TIP3   OH236789   3.230   4.683   7.911
 5077TIP3    H136790   3.152   4.699   7.964
 5077TIP3    H236791   3.236   4.588   7.903
 5078TIP3   OH236792   4.487   1.975   7.049
 5078TIP3    H136793   4.485   1.949   7.142
 5078TIP3    H236794   4.459   1.897   7.002
 5079TIP3   OH236795   0.553   3.315   8.259
 5079TIP3    H136796   0.536   3.266   8.179
 5079TIP3    H236797   0.599   3.253   8.316
 5080TIP3   OH236798   4.208   4.683   6.407
 5080TIP3    H136799   4.265   4.759   6.412
 5080TIP3    H236800   4.224   4.636   6.489
 5081TIP3   OH236801   6.592   2.805   8.069
 5081TIP3    H136802   6.616   2.894   8.094
 5081TIP3    H236803   6.616   2.798   7.977
 5082TIP3   OH236804   3.619   6.691   2.009
 5082TIP3    H136805   3.641   6.778   1.978
 5082TIP3    H236806   3.643   6.632   1.937
 5083TIP3   OH236807   4.087   0.991   7.836
 5083TIP3    H136808   4.063   0.904   7.866
 5083TIP3    H236809   4.068   0.990   7.742
 5084TIP3   OH236810   6.821   0.109   2.229
 5084TIP3    H136811   6.732   0.073   2.226
 5084TIP3    H236812   6.812   0.193   2.274
 5085TIP3   OH236813   6.604   1.607   0.859
 5085TIP3    H136814   6.587   1.513   0.868
 5085TIP3    H236815   6.641   1.616   0.771
 5086TIP3   OH236816   4.893   0.234   0.324
 5086TIP3    H136817   4.954   0.262   0.256
 5086TIP3    H236818   4.818   0.199   0.277
 5087TIP3   OH236819   5.674   1.366   0.076
 5087TIP3    H136820   5.652   1.297   0.014
 5087TIP3    H236821   5.757   1.402   0.044
 5088TIP3   OH236822   6.160   3.622   0.421
 5088TIP3    H136823   6.115   3.621   0.505
 5088TIP3    H236824   6.110   3.563   0.365
 5089TIP3   OH236825   0.873   0.795   0.117
 5089TIP3    H136826   0.923   0.741   0.178
 5089TIP3    H236827   0.917   0.880   0.119
 5090TIP3   OH236828   4.408   3.186   0.924
 5090TIP3    H136829   4.343   3.155   0.987
 5090TIP3    H236830   4.434   3.272   0.957
 5091TIP3   OH236831   2.785   4.780   0.051
 5091TIP3    H136832   2.782   4.686   0.072
 5091TIP3    H236833   2.697   4.812   0.071
 5092TIP3   OH236834   2.649   5.076   0.045
 5092TIP3    H136835   2.594   5.002   0.070
 5092TIP3    H236836   2.593   5.153   0.059
 5093TIP3   OH236837   2.119   2.508   8.405
 5093TIP3    H136838   2.091   2.419   8.425
 5093TIP3    H236839   2.212   2.509   8.424
 5094TIP3   OH236840   6.107   3.131   7.529
 5094TIP3    H136841   6.169   3.078   7.579
 5094TIP3    H236842   6.021   3.099   7.555
 5095TIP3   OH236843   4.013   0.660   2.497
 5095TIP3    H136844   4.041   0.748   2.518
 5095TIP3    H236845   3.919   0.658   2.516
 5096TIP3   OH236846   5.069   3.531   8.450
 5096TIP3    H136847   5.005   3.586   8.405
 5096TIP3    H236848   5.130   3.594   8.490
 5097TIP3   OH236849   4.229   5.770   1.653
 5097TIP3    H136850   4.303   5.798   1.707
 5097TIP3    H236851   4.265   5.699   1.599
 5098TIP3   OH236852   5.699   3.147   8.556
 5098TIP3    H136853   5.659   3.111   8.477
 5098TIP3    H236854   5.772   3.088   8.574
 5099TIP3   OH236855   6.657   0.621   7.241
 5099TIP3    H136856   6.627   0.567   7.313
 5099TIP3    H236857   6.585   0.683   7.225
 5100TIP3   OH236858   5.804   2.084   0.190
 5100TIP3    H136859   5.814   2.163   0.243
 5100TIP3    H236860   5.876   2.027   0.218
 5101TIP3   OH236861   0.995   2.812   6.842
 5101TIP3    H136862   0.982   2.892   6.892
 5101TIP3    H236863   1.086   2.786   6.862
 5102TIP3   OH236864   5.562   0.489   7.745
 5102TIP3    H136865   5.601   0.558   7.800
 5102TIP3    H236866   5.487   0.531   7.704
 5103TIP3   OH236867   3.558   5.651   1.458
 5103TIP3    H136868   3.565   5.559   1.483
 5103TIP3    H236869   3.593   5.654   1.369
 5104TIP3   OH236870   5.049   2.823   0.618
 5104TIP3    H136871   5.029   2.745   0.566
 5104TIP3    H236872   4.964   2.854   0.648
 5105TIP3   OH236873   2.765   3.812   0.052
 5105TIP3    H136874   2.695   3.747   0.063
 5105TIP3    H236875   2.732   3.871   8.615
 5106TIP3   OH236876   2.545   4.482   8.172
 5106TIP3    H136877   2.527   4.570   8.139
 5106TIP3    H236878   2.476   4.466   8.237
 5107TIP3   OH236879   0.661   4.211   7.801
 5107TIP3    H136880   0.631   4.280   7.742
 5107TIP3    H236881   0.614   4.226   7.883
 5108TIP3   OH236882   0.841   0.638   6.751
 5108TIP3    H136883   0.882   0.578   6.688
 5108TIP3    H236884   0.760   0.665   6.708
 5109TIP3   OH236885   2.478   3.961   0.695
 5109TIP3    H136886   2.524   4.045   0.683
 5109TIP3    H236887   2.547   3.895   0.690
 5110TIP3   OH236888   2.247   0.987   7.367
 5110TIP3    H136889   2.312   1.054   7.389
 5110TIP3    H236890   2.258   0.920   7.435
 5111TIP3   OH236891   0.244   2.174   0.747
 5111TIP3    H136892   0.179   2.238   0.777
 5111TIP3    H236893   0.212   2.148   0.661
 5112TIP3   OH236894   2.660   3.740   0.928
 5112TIP3    H136895   2.578   3.696   0.950
 5112TIP3    H236896   2.693   3.774   1.011
 5113TIP3   OH236897   0.521   0.957   0.569
 5113TIP3    H136898   0.556   0.869   0.558
 5113TIP3    H236899   0.430   0.950   0.538
 5114TIP3   OH236900   4.365   1.418   7.922
 5114TIP3    H136901   4.292   1.398   7.863
 5114TIP3    H236902   4.425   1.344   7.910
 5115TIP3   OH236903   3.864   3.049   0.968
 5115TIP3    H136904   3.844   2.983   1.034
 5115TIP3    H236905   3.866   3.000   0.885
 5116TIP3   OH236906   5.226   1.615   1.158
 5116TIP3    H136907   5.142   1.656   1.176
 5116TIP3    H236908   5.211   1.521   1.173
 5117TIP3   OH236909   5.920   1.603   7.899
 5117TIP3    H136910   5.869   1.538   7.948
 5117TIP3    H236911   5.966   1.552   7.832
 5118TIP3   OH236912   3.202   5.818   1.288
 5118TIP3    H136913   3.237   5.781   1.369
 5118TIP3    H236914   3.245   5.904   1.280
 5119TIP3   OH236915   0.198   5.618   7.314
 5119TIP3    H136916   0.288   5.642   7.290
 5119TIP3    H236917   0.177   5.545   7.256
 5120TIP3   OH236918   3.599   4.346   7.109
 5120TIP3    H136919   3.609   4.316   7.200
 5120TIP3    H236920   3.670   4.302   7.062
 5121TIP3   OH236921   5.384   1.859   8.499
 5121TIP3    H136922   5.303   1.859   8.550
 5121TIP3    H236923   5.358   1.828   8.412
 5122TIP3   OH236924   5.711   1.965   7.663
 5122TIP3    H136925   5.798   1.994   7.635
 5122TIP3    H236926   5.702   1.876   7.628
 5123TIP3   OH236927   2.848   2.505   7.807
 5123TIP3    H136928   2.807   2.426   7.844
 5123TIP3    H236929   2.805   2.577   7.854
 5124TIP3   OH236930   5.636   0.354   7.437
 5124TIP3    H136931   5.710   0.320   7.488
 5124TIP3    H236932   5.563   0.353   7.498
 5125TIP3   OH236933   4.880   2.019   1.307
 5125TIP3    H136934   4.906   1.937   1.348
 5125TIP3    H236935   4.900   2.007   1.214
 5126TIP3   OH236936   5.901   3.637   1.819
 5126TIP3    H136937   5.875   3.546   1.831
 5126TIP3    H236938   5.913   3.671   1.907
 5127TIP3   OH236939   3.203   2.565   8.307
 5127TIP3    H136940   3.237   2.485   8.347
 5127TIP3    H236941   3.277   2.625   8.307
 5128TIP3   OH236942   3.936   0.212   8.218
 5128TIP3    H136943   3.906   0.224   8.128
 5128TIP3    H236944   4.029   0.236   8.216
 5129TIP3   OH236945   1.846   3.006   1.680
 5129TIP3    H136946   1.798   3.063   1.619
 5129TIP3    H236947   1.791   3.004   1.759
 5130TIP3   OH236948   1.272   6.347   1.012
 5130TIP3    H136949   1.244   6.437   0.992
 5130TIP3    H236950   1.343   6.358   1.075
 5131TIP3   OH236951   2.064   5.757   0.241
 5131TIP3    H136952   2.070   5.667   0.209
 5131TIP3    H236953   1.973   5.765   0.272
 5132TIP3   OH236954   3.326   0.440   6.727
 5132TIP3    H136955   3.313   0.477   6.640
 5132TIP3    H236956   3.378   0.506   6.773
 5133TIP3   OH236957   6.756   0.629   8.349
 5133TIP3    H136958   6.727   0.692   8.414
 5133TIP3    H236959   6.820   0.574   8.394
 5134TIP3   OH236960   5.850   1.776   6.760
 5134TIP3    H136961   5.860   1.847   6.823
 5134TIP3    H236962   5.757   1.778   6.736
 5135TIP3   OH236963   6.740   4.256   1.174
 5135TIP3    H136964   6.651   4.270   1.206
 5135TIP3    H236965   6.729   4.210   1.091
 5136TIP3   OH236966   2.234   6.486   7.288
 5136TIP3    H136967   2.214   6.579   7.302
 5136TIP3    H236968   2.248   6.479   7.194
 5137TIP3   OH236969   3.688   5.487   2.091
 5137TIP3    H136970   3.686   5.428   2.016
 5137TIP3    H236971   3.757   5.549   2.071
 5138TIP3   OH236972   1.208   0.073   0.666
 5138TIP3    H136973   1.178   0.096   0.754
 5138TIP3    H236974   1.154   6.881   0.641
 5139TIP3   OH236975   4.659   5.099   1.412
 5139TIP3    H136976   4.677   5.174   1.355
 5139TIP3    H236977   4.700   5.025   1.367
 5140TIP3   OH236978   2.963   5.208   7.352
 5140TIP3    H136979   2.878   5.231   7.388
 5140TIP3    H236980   2.985   5.125   7.393
 5141TIP3   OH236981   4.407   4.382   0.928
 5141TIP3    H136982   4.370   4.302   0.965
 5141TIP3    H236983   4.435   4.357   0.840
 5142TIP3   OH236984   2.493   4.818   2.120
 5142TIP3    H136985   2.523   4.905   2.145
 5142TIP3    H236986   2.559   4.759   2.157
 5143TIP3   OH236987   4.682   1.201   8.199
 5143TIP3    H136988   4.705   1.284   8.159
 5143TIP3    H236989   4.757   1.178   8.254
 5144TIP3   OH236990   5.524   5.834   1.618
 5144TIP3    H136991   5.587   5.902   1.639
 5144TIP3    H236992   5.467   5.829   1.694
 5145TIP3   OH236993   1.744   6.199   0.739
 5145TIP3    H136994   1.683   6.219   0.810
 5145TIP3    H236995   1.772   6.284   0.706
 5146TIP3   OH236996   4.446   1.022   1.684
 5146TIP3    H136997   4.530   1.017   1.639
 5146TIP3    H236998   4.387   0.966   1.633
 5147TIP3   OH236999   1.901   4.519   1.215
 5147TIP3    H137000   1.955   4.548   1.288
 5147TIP3    H237001   1.955   4.454   1.170
 5148TIP3   OH237002   3.099   4.544   1.479
 5148TIP3    H137003   3.137   4.602   1.545
 5148TIP3    H237004   3.101   4.457   1.518
 5149TIP3   OH237005   3.909   1.014   8.362
 5149TIP3    H137006   3.884   1.067   8.438
 5149TIP3    H237007   4.003   1.001   8.372
 5150TIP3   OH237008   5.098   6.717   7.103
 5150TIP3    H137009   5.116   6.762   7.185
 5150TIP3    H237010   5.165   6.649   7.097
 5151TIP3   OH237011   2.659   5.758   1.495
 5151TIP3    H137012   2.678   5.664   1.505
 5151TIP3    H237013   2.744   5.797   1.474
 5152TIP3   OH237014   2.450   6.391   8.588
 5152TIP3    H137015   2.397   6.461   8.624
 5152TIP3    H237016   2.419   6.379   8.499
 5153TIP3   OH237017   5.878   3.013   0.189
 5153TIP3    H137018   5.893   2.919   0.181
 5153TIP3    H237019   5.904   3.049   0.104
 5154TIP3   OH237020   0.525   4.429   7.689
 5154TIP3    H137021   0.508   4.494   7.757
 5154TIP3    H237022   0.526   4.480   7.607
 5155TIP3   OH237023   4.965   5.724   0.315
 5155TIP3    H137024   4.893   5.683   0.361
 5155TIP3    H237025   5.044   5.683   0.351
 5156TIP3   OH237026   1.405   6.771   6.666
 5156TIP3    H137027   1.344   6.698   6.661
 5156TIP3    H237028   1.421   6.795   6.575
 5157TIP3   OH237029   6.748   6.239   7.599
 5157TIP3    H137030   6.671   6.182   7.597
 5157TIP3    H237031   6.821   6.179   7.619
 5158TIP3   OH237032   3.620   6.102   2.249
 5158TIP3    H137033   3.553   6.099   2.181
 5158TIP3    H237034   3.682   6.034   2.224
 5159TIP3   OH237035   0.957   6.403   6.150
 5159TIP3    H137036   0.927   6.331   6.094
 5159TIP3    H237037   1.050   6.384   6.165
 5160TIP3   OH237038   6.491   0.902   7.597
 5160TIP3    H137039   6.500   0.952   7.516
 5160TIP3    H237040   6.397   0.888   7.606
 5161TIP3   OH237041   0.620   3.805   7.268
 5161TIP3    H137042   0.609   3.850   7.352
 5161TIP3    H237043   0.691   3.743   7.282
 5162TIP3   OH237044   3.958   5.535   7.626
 5162TIP3    H137045   3.947   5.610   7.567
 5162TIP3    H237046   3.936   5.459   7.572
 5163TIP3   OH237047   0.103   6.123   7.704
 5163TIP3    H137048   0.184   6.163   7.734
 5163TIP3    H237049   0.111   6.031   7.727
 5164TIP3   OH237050   0.228   4.166   6.391
 5164TIP3    H137051   0.263   4.170   6.480
 5164TIP3    H237052   0.270   4.240   6.346
 5165TIP3   OH237053   4.776   2.731   7.053
 5165TIP3    H137054   4.683   2.708   7.048
 5165TIP3    H237055   4.804   2.736   6.962
 5166TIP3   OH237056   1.290   1.312   1.699
 5166TIP3    H137057   1.377   1.330   1.734
 5166TIP3    H237058   1.232   1.319   1.775
 5167TIP3   OH237059   4.539   2.798   8.517
 5167TIP3    H137060   4.456   2.819   8.559
 5167TIP3    H237061   4.572   2.723   8.566
 5168TIP3   OH237062   4.168   5.249   2.592
 5168TIP3    H137063   4.156   5.325   2.535
 5168TIP3    H237064   4.133   5.175   2.541
 5169TIP3   OH237065   4.699   0.416   7.234
 5169TIP3    H137066   4.623   0.433   7.179
 5169TIP3    H237067   4.671   0.346   7.294
 5170TIP3   OH237068   6.593   0.660   7.674
 5170TIP3    H137069   6.681   0.645   7.638
 5170TIP3    H237070   6.551   0.716   7.609
 5171TIP3   OH237071   3.015   6.752   2.228
 5171TIP3    H137072   3.014   6.848   2.234
 5171TIP3    H237073   3.093   6.726   2.277
 5172TIP3   OH237074   0.163   4.130   7.679
 5172TIP3    H137075   0.252   4.107   7.707
 5172TIP3    H237076   0.105   4.084   7.739
 5173TIP3   OH237077   1.375   1.259   1.196
 5173TIP3    H137078   1.376   1.175   1.151
 5173TIP3    H237079   1.457   1.301   1.170
 5174TIP3   OH237080   1.480   4.915   8.093
 5174TIP3    H137081   1.461   4.849   8.027
 5174TIP3    H237082   1.478   4.867   8.176
 5175TIP3   OH237083   0.868   5.315   6.540
 5175TIP3    H137084   0.945   5.272   6.504
 5175TIP3    H237085   0.864   5.399   6.494
 5176TIP3   OH237086   4.930   0.536   8.209
 5176TIP3    H137087   4.882   0.616   8.229
 5176TIP3    H237088   4.864   0.467   8.211
 5177TIP3   OH237089   2.756   6.104   0.375
 5177TIP3    H137090   2.663   6.088   0.386
 5177TIP3    H237091   2.795   6.083   0.460
 5178TIP3   OH237092   5.939   1.642   8.199
 5178TIP3    H137093   5.964   1.550   8.206
 5178TIP3    H237094   6.012   1.684   8.152
 5179TIP3   OH237095   1.842   0.644   2.433
 5179TIP3    H137096   1.798   0.560   2.425
 5179TIP3    H237097   1.777   0.702   2.471
 5180TIP3   OH237098   0.526   6.641   7.926
 5180TIP3    H137099   0.537   6.675   7.837
 5180TIP3    H237100   0.596   6.682   7.976
 5181TIP3   OH237101   2.168   1.332   8.229
 5181TIP3    H137102   2.212   1.318   8.146
 5181TIP3    H237103   2.097   1.268   8.230
 5182TIP3   OH237104   0.753   0.816   0.982
 5182TIP3    H137105   0.795   0.890   0.939
 5182TIP3    H237106   0.659   0.830   0.970
 5183TIP3   OH237107   1.299   6.785   0.270
 5183TIP3    H137108   1.259   6.798   0.356
 5183TIP3    H237109   1.391   6.763   0.289
 5184TIP3   OH237110   6.151   1.879   0.662
 5184TIP3    H137111   6.122   1.799   0.705
 5184TIP3    H237112   6.147   1.946   0.730
 5185TIP3   OH237113   5.900   6.424   8.233
 5185TIP3    H137114   5.880   6.469   8.315
 5185TIP3    H237115   5.832   6.454   8.173
 5186TIP3   OH237116   6.827   6.031   2.283
 5186TIP3    H137117   0.030   6.066   2.305
 5186TIP3    H237118   6.773   6.109   2.269
 5187TIP3   OH237119   2.178   0.136   7.635
 5187TIP3    H137120   2.086   0.156   7.617
 5187TIP3    H237121   2.211   0.215   7.679
 5188TIP3   OH237122   3.800   0.313   1.495
 5188TIP3    H137123   3.743   0.374   1.449
 5188TIP3    H237124   3.888   0.334   1.465
 5189TIP3   OH237125   5.511   3.544   7.913
 5189TIP3    H137126   5.538   3.613   7.852
 5189TIP3    H237127   5.581   3.542   7.978
 5190TIP3   OH237128   2.351   6.747   8.017
 5190TIP3    H137129   2.406   6.752   8.095
 5190TIP3    H237130   2.300   6.667   8.028
 5191TIP3   OH237131   6.832   1.532   0.214
 5191TIP3    H137132   0.003   1.453   0.215
 5191TIP3    H237133   6.880   1.595   0.267
 5192TIP3   OH237134   1.698   4.169   1.316
 5192TIP3    H137135   1.662   4.232   1.253
 5192TIP3    H237136   1.777   4.211   1.350
 5193TIP3   OH237137   4.173   5.781   7.691
 5193TIP3    H137138   4.228   5.775   7.613
 5193TIP3    H237139   4.084   5.765   7.659
 5194TIP3   OH237140   4.928   4.005   1.375
 5194TIP3    H137141   4.853   4.003   1.435
 5194TIP3    H237142   5.005   4.005   1.432
 5195TIP3   OH237143   6.499   1.068   0.770
 5195TIP3    H137144   6.539   1.072   0.857
 5195TIP3    H237145   6.451   1.151   0.762
 5196TIP3   OH237146   5.222   4.737   0.196
 5196TIP3    H137147   5.171   4.658   0.175
 5196TIP3    H237148   5.188   4.803   0.136
 5197TIP3   OH237149   6.626   2.409   7.014
 5197TIP3    H137150   6.562   2.358   7.063
 5197TIP3    H237151   6.625   2.371   6.926
 5198TIP3   OH237152   2.240   3.487   0.780
 5198TIP3    H137153   2.240   3.450   0.869
 5198TIP3    H237154   2.317   3.448   0.738
 5199TIP3   OH237155   4.543   1.956   1.796
 5199TIP3    H137156   4.564   1.965   1.703
 5199TIP3    H237157   4.473   2.020   1.811
 5200TIP3   OH237158   0.309   6.575   0.355
 5200TIP3    H137159   0.292   6.481   0.348
 5200TIP3    H237160   0.356   6.584   0.438
 5201TIP3   OH237161   3.850   2.648   1.990
 5201TIP3    H137162   3.759   2.624   1.978
 5201TIP3    H237163   3.853   2.742   1.977
 5202TIP3   OH237164   5.632   6.734   1.466
 5202TIP3    H137165   5.721   6.715   1.495
 5202TIP3    H237166   5.588   6.766   1.544
 5203TIP3   OH237167   4.937   2.693   0.987
 5203TIP3    H137168   4.893   2.749   0.924
 5203TIP3    H237169   4.901   2.719   1.072
 5204TIP3   OH237170   1.274   4.406   8.356
 5204TIP3    H137171   1.291   4.489   8.400
 5204TIP3    H237172   1.181   4.389   8.371
 5205TIP3   OH237173   2.456   0.885   2.430
 5205TIP3    H137174   2.468   0.922   2.343
 5205TIP3    H237175   2.414   0.800   2.415
 5206TIP3   OH237176   5.588   5.163   7.092
 5206TIP3    H137177   5.533   5.224   7.042
 5206TIP3    H237178   5.571   5.078   7.052
 5207TIP3   OH237179   3.341   1.055   6.850
 5207TIP3    H137180   3.338   0.970   6.894
 5207TIP3    H237181   3.396   1.041   6.774
 5208TIP3   OH237182   6.786   3.020   7.323
 5208TIP3    H137183   6.714   3.028   7.386
 5208TIP3    H237184   6.864   3.009   7.378
 5209TIP3   OH237185   5.561   5.302   0.080
 5209TIP3    H137186   5.596   5.219   0.114
 5209TIP3    H237187   5.611   5.370   0.125
 5210TIP3   OH237188   6.499   2.307   0.211
 5210TIP3    H137189   6.560   2.303   0.137
 5210TIP3    H237190   6.448   2.387   0.196
 5211TIP3   OH237191   2.357   4.895   1.651
 5211TIP3    H137192   2.343   4.951   1.727
 5211TIP3    H237193   2.312   4.941   1.579
 5212TIP3   OH237194   0.525   1.546   6.482
 5212TIP3    H137195   0.489   1.458   6.494
 5212TIP3    H237196   0.618   1.536   6.504
 5213TIP3   OH237197   0.116   0.586   0.931
 5213TIP3    H137198   0.143   0.655   0.870
 5213TIP3    H237199   0.142   0.505   0.887
 5214TIP3   OH237200   1.282   5.137   8.298
 5214TIP3    H137201   1.257   5.136   8.206
 5214TIP3    H237202   1.200   5.158   8.344
 5215TIP3   OH237203   4.639   1.404   8.448
 5215TIP3    H137204   4.724   1.387   8.409
 5215TIP3    H237205   4.657   1.457   8.525
 5216TIP3   OH237206   4.369   5.694   6.457
 5216TIP3    H137207   4.354   5.786   6.477
 5216TIP3    H237208   4.330   5.646   6.529
 5217TIP3   OH237209   6.865   2.422   1.643
 5217TIP3    H137210   0.021   2.477   1.575
 5217TIP3    H237211   6.838   2.342   1.598
 5218TIP3   OH237212   4.608   6.201   6.895
 5218TIP3    H137213   4.625   6.276   6.837
 5218TIP3    H237214   4.530   6.226   6.945
 5219TIP3   OH237215   5.667   0.681   7.928
 5219TIP3    H137216   5.694   0.766   7.962
 5219TIP3    H237217   5.729   0.618   7.965
 5220TIP3   OH237218   6.655   0.057   7.767
 5220TIP3    H137219   6.691   0.102   7.691
 5220TIP3    H237220   6.726   0.058   7.831
 5221TIP3   OH237221   0.668   5.951   7.645
 5221TIP3    H137222   0.738   5.886   7.655
 5221TIP3    H237223   0.663   5.966   7.551
 5222TIP3   OH237224   5.826   2.395   7.319
 5222TIP3    H137225   5.748   2.435   7.360
 5222TIP3    H237226   5.800   2.379   7.228
 5223TIP3   OH237227   5.922   6.568   1.853
 5223TIP3    H137228   5.934   6.647   1.905
 5223TIP3    H237229   5.987   6.574   1.784
 5224TIP3   OH237230   1.934   6.098   7.993
 5224TIP3    H137231   1.941   6.029   8.058
 5224TIP3    H237232   1.967   6.176   8.036
 5225TIP3   OH237233   1.470   1.552   1.219
 5225TIP3    H137234   1.411   1.619   1.185
 5225TIP3    H237235   1.418   1.505   1.285
 5226TIP3   OH237236   3.665   1.394   0.745
 5226TIP3    H137237   3.659   1.349   0.829
 5226TIP3    H237238   3.575   1.404   0.715
 5227TIP3   OH237239   4.224   0.264   2.343
 5227TIP3    H137240   4.282   0.236   2.272
 5227TIP3    H237241   4.245   0.205   2.416
 5228TIP3   OH237242   4.367   1.584   8.156
 5228TIP3    H137243   4.393   1.531   8.081
 5228TIP3    H237244   4.442   1.581   8.215
 5229TIP3   OH237245   6.777   3.446   6.743
 5229TIP3    H137246   6.857   3.415   6.702
 5229TIP3    H237247   6.753   3.524   6.694
 5230TIP3   OH237248   3.872   4.439   8.237
 5230TIP3    H137249   3.919   4.519   8.260
 5230TIP3    H237250   3.790   4.469   8.198
 5231TIP3   OH237251   1.000   4.273   7.330
 5231TIP3    H137252   0.938   4.345   7.327
 5231TIP3    H237253   0.977   4.218   7.254
 5232TIP3   OH237254   5.339   5.279   6.978
 5232TIP3    H137255   5.407   5.337   6.943
 5232TIP3    H237256   5.258   5.327   6.965
 5233TIP3   OH237257   1.212   4.204   0.921
 5233TIP3    H137258   1.147   4.135   0.933
 5233TIP3    H237259   1.176   4.279   0.969
 5234TIP3   OH237260   0.901   4.402   1.713
 5234TIP3    H137261   0.842   4.468   1.676
 5234TIP3    H237262   0.843   4.329   1.736
 5235TIP3   OH237263   5.158   5.870   0.484
 5235TIP3    H137264   5.252   5.859   0.496
 5235TIP3    H237265   5.118   5.812   0.549
 5236TIP3   OH237266   6.178   2.471   8.508
 5236TIP3    H137267   6.272   2.491   8.502
 5236TIP3    H237268   6.139   2.522   8.437
 5237TIP3   OH237269   5.474   1.181   7.147
 5237TIP3    H137270   5.444   1.092   7.131
 5237TIP3    H237271   5.394   1.233   7.155
 5238TIP3   OH237272   5.191   3.711   1.483
 5238TIP3    H137273   5.186   3.793   1.532
 5238TIP3    H237274   5.285   3.697   1.470
 5239TIP3   OH237275   0.520   5.010   6.847
 5239TIP3    H137276   0.550   5.097   6.821
 5239TIP3    H237277   0.597   4.954   6.840
 5240TIP3   OH237278   3.609   0.841   0.980
 5240TIP3    H137279   3.624   0.754   1.016
 5240TIP3    H237280   3.515   0.855   0.990
 5241TIP3   OH237281   6.566   2.630   0.346
 5241TIP3    H137282   6.496   2.628   0.411
 5241TIP3    H237283   6.534   2.573   0.275
 5242TIP3   OH237284   0.835   0.498   8.549
 5242TIP3    H137285   0.756   0.444   8.546
 5242TIP3    H237286   0.804   0.585   8.574
 5243TIP3   OH237287   1.371   0.500   7.371
 5243TIP3    H137288   1.408   0.489   7.283
 5243TIP3    H237289   1.279   0.522   7.356
 5244TIP3   OH237290   2.704   0.728   1.039
 5244TIP3    H137291   2.755   0.808   1.055
 5244TIP3    H237292   2.614   0.758   1.030
 5245TIP3   OH237293   4.678   3.499   0.499
 5245TIP3    H137294   4.703   3.459   0.416
 5245TIP3    H237295   4.590   3.533   0.484
 5246TIP3   OH237296   6.868   4.435   0.753
 5246TIP3    H137297   6.805   4.393   0.811
 5246TIP3    H237298   6.863   4.386   0.671
 5247TIP3   OH237299   1.622   3.830   7.825
 5247TIP3    H137300   1.668   3.776   7.890
 5247TIP3    H237301   1.680   3.904   7.809
 5248TIP3   OH237302   6.723   4.107   2.642
 5248TIP3    H137303   6.757   4.086   2.555
 5248TIP3    H237304   6.800   4.127   2.694
 5249TIP3   OH237305   2.765   0.511   7.392
 5249TIP3    H137306   2.763   0.496   7.297
 5249TIP3    H237307   2.789   0.426   7.429
 5250TIP3   OH237308   5.784   1.624   2.017
 5250TIP3    H137309   5.795   1.636   2.111
 5250TIP3    H237310   5.833   1.697   1.978
 5251TIP3   OH237311   2.026   5.950   7.179
 5251TIP3    H137312   2.074   6.001   7.244
 5251TIP3    H237313   2.028   5.860   7.212
 5252TIP3   OH237314   2.540   6.007   1.537
 5252TIP3    H137315   2.562   5.992   1.629
 5252TIP3    H237316   2.572   5.930   1.491
 5253TIP3   OH237317   4.843   0.847   2.101
 5253TIP3    H137318   4.825   0.865   2.194
 5253TIP3    H237319   4.854   0.934   2.062
 5254TIP3   OH237320   6.793   5.249   0.176
 5254TIP3    H137321   6.699   5.254   0.161
 5254TIP3    H237322   6.802   5.249   0.272
 5255TIP3   OH237323   1.822   1.823   7.409
 5255TIP3    H137324   1.877   1.900   7.392
 5255TIP3    H237325   1.871   1.772   7.473
 5256TIP3   OH237326   4.193   0.902   0.202
 5256TIP3    H137327   4.245   0.849   0.142
 5256TIP3    H237328   4.217   0.871   0.289
 5257TIP3   OH237329   5.902   1.671   7.515
 5257TIP3    H137330   5.911   1.615   7.438
 5257TIP3    H237331   5.945   1.753   7.491
 5258TIP3   OH237332   0.955   6.392   1.446
 5258TIP3    H137333   0.977   6.303   1.474
 5258TIP3    H237334   0.870   6.410   1.487
 5259TIP3   OH237335   6.149   4.739   6.334
 5259TIP3    H137336   6.123   4.794   6.260
 5259TIP3    H237337   6.066   4.716   6.376
 5260TIP3   OH237338   0.183   5.822   8.234
 5260TIP3    H137339   0.231   5.794   8.312
 5260TIP3    H237340   0.251   5.846   8.171
 5261TIP3   OH237341   2.688   3.512   8.332
 5261TIP3    H137342   2.606   3.472   8.303
 5261TIP3    H237343   2.731   3.444   8.384
 5262TIP3   OH237344   6.427   1.888   1.679
 5262TIP3    H137345   6.474   1.807   1.697
 5262TIP3    H237346   6.396   1.917   1.765
 5263TIP3   OH237347   5.204   1.591   8.409
 5263TIP3    H137348   5.192   1.509   8.458
 5263TIP3    H237349   5.123   1.601   8.359
 5264TIP3   OH237350   0.482   5.736   7.728
 5264TIP3    H137351   0.470   5.807   7.665
 5264TIP3    H237352   0.551   5.767   7.786
 5265TIP3   OH237353   5.410   4.471   7.426
 5265TIP3    H137354   5.390   4.461   7.519
 5265TIP3    H237355   5.332   4.512   7.389
 5266TIP3   OH237356   5.059   5.623   7.592
 5266TIP3    H137357   5.080   5.585   7.678
 5266TIP3    H237358   5.007   5.700   7.613
 5267TIP3   OH237359   4.859   0.129   0.585
 5267TIP3    H137360   4.852   0.168   0.497
 5267TIP3    H237361   4.769   0.116   0.613
 5268TIP3   OH237362   4.310   5.956   0.139
 5268TIP3    H137363   4.377   5.979   0.075
 5268TIP3    H237364   4.227   5.967   0.092
 5269TIP3   OH237365   2.023   3.868   7.214
 5269TIP3    H137366   2.116   3.888   7.223
 5269TIP3    H237367   1.987   3.939   7.162
 5270TIP3   OH237368   1.585   5.195   6.969
 5270TIP3    H137369   1.491   5.181   6.977
 5270TIP3    H237370   1.608   5.154   6.885
 5271TIP3   OH237371   3.307   6.193   2.373
 5271TIP3    H137372   3.326   6.277   2.332
 5271TIP3    H237373   3.393   6.154   2.389
 5272TIP3   OH237374   4.009   3.396   8.223
 5272TIP3    H137375   4.081   3.459   8.225
 5272TIP3    H237376   4.025   3.343   8.146
 5273TIP3   OH237377   3.773   0.282   7.611
 5273TIP3    H137378   3.713   0.257   7.680
 5273TIP3    H237379   3.772   0.208   7.550
 5274TIP3   OH237380   4.793   2.628   0.411
 5274TIP3    H137381   4.841   2.594   0.335
 5274TIP3    H237382   4.705   2.590   0.402
 5275TIP3   OH237383   3.413   5.100   6.928
 5275TIP3    H137384   3.391   5.059   7.011
 5275TIP3    H237385   3.342   5.163   6.914
 5276TIP3   OH237386   4.765   1.408   6.596
 5276TIP3    H137387   4.756   1.431   6.503
 5276TIP3    H237388   4.677   1.418   6.631
 5277TIP3   OH237389   2.173   3.668   7.360
 5277TIP3    H137390   2.120   3.743   7.331
 5277TIP3    H237391   2.248   3.708   7.404
 5278TIP3   OH237392   1.815   3.325   0.104
 5278TIP3    H137393   1.874   3.251   0.091
 5278TIP3    H237394   1.872   3.395   0.137
 5279TIP3   OH237395   0.624   6.765   0.485
 5279TIP3    H137396   0.546   6.712   0.501
 5279TIP3    H237397   0.590   6.853   0.469
 5280TIP3   OH237398   6.368   6.780   1.018
 5280TIP3    H137399   6.321   6.844   0.965
 5280TIP3    H237400   6.414   6.725   0.955
 5281TIP3   OH237401   4.189   5.400   2.359
 5281TIP3    H137402   4.276   5.414   2.321
 5281TIP3    H237403   4.153   5.325   2.311
 5282TIP3   OH237404   2.826   4.521   0.952
 5282TIP3    H137405   2.860   4.435   0.977
 5282TIP3    H237406   2.903   4.578   0.952
 5283TIP3   OH237407   5.747   3.726   1.452
 5283TIP3    H137408   5.773   3.800   1.507
 5283TIP3    H237409   5.725   3.657   1.514
 5284TIP3   OH237410   0.250   1.614   0.219
 5284TIP3    H137411   0.236   1.597   0.312
 5284TIP3    H237412   0.207   1.698   0.203
 5285TIP3   OH237413   2.864   0.165   0.756
 5285TIP3    H137414   2.926   0.201   0.820
 5285TIP3    H237415   2.860   0.231   0.687
 5286TIP3   OH237416   1.299   6.146   2.208
 5286TIP3    H137417   1.378   6.121   2.256
 5286TIP3    H237418   1.323   6.227   2.163
 5287TIP3   OH237419   0.812   4.132   1.530
 5287TIP3    H137420   0.756   4.178   1.593
 5287TIP3    H237421   0.800   4.179   1.448
 5288TIP3   OH237422   1.822   6.179   1.105
 5288TIP3    H137423   1.802   6.090   1.075
 5288TIP3    H237424   1.759   6.195   1.175
 5289TIP3   OH237425   0.748   0.589   7.377
 5289TIP3    H137426   0.664   0.627   7.404
 5289TIP3    H237427   0.805   0.664   7.361
 5290TIP3   OH237428   3.293   6.125   8.248
 5290TIP3    H137429   3.343   6.166   8.318
 5290TIP3    H237430   3.229   6.191   8.221
 5291TIP3   OH237431   4.097   0.756   7.627
 5291TIP3    H137432   4.106   0.665   7.655
 5291TIP3    H237433   4.004   0.765   7.603
 5292TIP3   OH237434   1.121   5.098   8.541
 5292TIP3    H137435   1.033   5.098   8.504
 5292TIP3    H237436   1.125   5.019   8.595
 5293TIP3   OH237437   3.443   1.869   8.156
 5293TIP3    H137438   3.520   1.813   8.144
 5293TIP3    H237439   3.370   1.808   8.158
 5294TIP3   OH237440   1.943   3.979   1.326
 5294TIP3    H137441   1.875   3.913   1.340
 5294TIP3    H237442   1.949   3.987   1.231
 5295TIP3   OH237443   5.248   0.630   1.687
 5295TIP3    H137444   5.223   0.713   1.727
 5295TIP3    H237445   5.182   0.614   1.620
 5296TIP3   OH237446   5.250   5.955   7.235
 5296TIP3    H137447   5.324   5.907   7.273
 5296TIP3    H237448   5.181   5.949   7.302
 5297TIP3   OH237449   0.051   1.946   7.726
 5297TIP3    H137450   0.023   1.906   7.643
 5297TIP3    H237451   0.136   1.906   7.744
 5298TIP3   OH237452   6.420   2.086   6.704
 5298TIP3    H137453   6.397   2.090   6.611
 5298TIP3    H237454   6.477   2.162   6.717
 5299TIP3   OH237455   5.684   4.901   1.936
 5299TIP3    H137456   5.737   4.975   1.906
 5299TIP3    H237457   5.597   4.939   1.950
 5300TIP3   OH237458   0.781   2.347   7.446
 5300TIP3    H137459   0.741   2.433   7.461
 5300TIP3    H237460   0.707   2.286   7.447
 5301TIP3   OH237461   6.745   0.646   8.005
 5301TIP3    H137462   6.739   0.710   7.934
 5301TIP3    H237463   6.689   0.682   8.074
 5302TIP3   OH237464   4.926   1.314   1.837
 5302TIP3    H137465   4.899   1.404   1.856
 5302TIP3    H237466   5.018   1.321   1.813
 5303TIP3   OH237467   5.409   0.457   1.858
 5303TIP3    H137468   5.495   0.484   1.891
 5303TIP3    H237469   5.379   0.533   1.808
 5304TIP3   OH237470   1.244   0.175   7.921
 5304TIP3    H137471   1.277   0.086   7.934
 5304TIP3    H237472   1.322   0.226   7.899
 5305TIP3   OH237473   1.066   5.019   7.069
 5305TIP3    H137474   1.011   5.014   6.991
 5305TIP3    H237475   1.102   5.108   7.068
 5306TIP3   OH237476   0.697   2.237   6.928
 5306TIP3    H137477   0.778   2.195   6.957
 5306TIP3    H237478   0.720   2.279   6.845
 5307TIP3   OH237479   0.528   6.755   0.840
 5307TIP3    H137480   0.527   6.701   0.919
 5307TIP3    H237481   0.604   6.812   0.851
 5308TIP3   OH237482   4.876   1.016   8.599
 5308TIP3    H137483   4.800   0.959   8.587
 5308TIP3    H237484   4.921   1.013   8.515
 5309TIP3   OH237485   4.641   5.527   1.796
 5309TIP3    H137486   4.650   5.454   1.735
 5309TIP3    H237487   4.727   5.535   1.837
 5310TIP3   OH237488   0.054   5.471   8.011
 5310TIP3    H137489   0.031   5.455   7.919
 5310TIP3    H237490   0.149   5.479   8.011
 5311TIP3   OH237491   4.474   1.518   7.338
 5311TIP3    H137492   4.477   1.523   7.243
 5311TIP3    H237493   4.551   1.567   7.367
 5312TIP3   OH237494   3.025   6.580   2.014
 5312TIP3    H137495   3.111   6.595   1.977
 5312TIP3    H237496   3.018   6.642   2.086
 5313TIP3   OH237497   1.946   5.683   7.244
 5313TIP3    H137498   1.872   5.678   7.305
 5313TIP3    H237499   1.908   5.662   7.159
 5314TIP3   OH237500   1.471   2.954   7.964
 5314TIP3    H137501   1.540   2.897   7.929
 5314TIP3    H237502   1.490   3.040   7.928
 5315TIP3   OH237503   0.852   4.427   0.856
 5315TIP3    H137504   0.921   4.422   0.923
 5315TIP3    H237505   0.798   4.351   0.872
 5316TIP3   OH237506   6.638   5.121   0.935
 5316TIP3    H137507   6.648   5.117   0.840
 5316TIP3    H237508   6.626   5.030   0.962
 5317TIP3   OH237509   3.550   6.740   7.397
 5317TIP3    H137510   3.591   6.718   7.313
 5317TIP3    H237511   3.466   6.778   7.373
 5318TIP3   OH237512   3.659   5.865   1.894
 5318TIP3    H137513   3.727   5.932   1.905
 5318TIP3    H237514   3.646   5.829   1.981
 5319TIP3   OH237515   0.817   1.787   7.078
 5319TIP3    H137516   0.851   1.827   6.998
 5319TIP3    H237517   0.895   1.764   7.128
 5320TIP3   OH237518   5.190   5.578   0.382
 5320TIP3    H137519   5.156   5.502   0.430
 5320TIP3    H237520   5.228   5.634   0.449
 5321TIP3   OH237521   3.180   3.136   0.651
 5321TIP3    H137522   3.224   3.051   0.650
 5321TIP3    H237523   3.248   3.198   0.622
 5322TIP3   OH237524   2.007   6.389   7.110
 5322TIP3    H137525   2.035   6.432   7.029
 5322TIP3    H237526   2.086   6.345   7.142
 5323TIP3   OH237527   1.263   1.817   0.567
 5323TIP3    H137528   1.239   1.796   0.657
 5323TIP3    H237529   1.258   1.734   0.520
 5324TIP3   OH237530   0.340   4.281   7.247
 5324TIP3    H137531   0.253   4.311   7.220
 5324TIP3    H237532   0.361   4.335   7.323
 5325TIP3   OH237533   4.724   0.960   1.555
 5325TIP3    H137534   4.686   1.009   1.482
 5325TIP3    H237535   4.781   1.024   1.599
 5326TIP3   OH237536   4.343   6.648   7.272
 5326TIP3    H137537   4.255   6.620   7.298
 5326TIP3    H237538   4.354   6.614   7.183
 5327TIP3   OH237539   3.698   1.467   5.732
 5327TIP3    H137540   3.766   1.411   5.768
 5327TIP3    H237541   3.635   1.477   5.804
 5328TIP3   OH237542   4.668   0.435   6.598
 5328TIP3    H137543   4.733   0.392   6.654
 5328TIP3    H237544   4.588   0.383   6.610
 5329TIP3   OH237545   2.603   1.596   2.015
 5329TIP3    H137546   2.614   1.556   2.101
 5329TIP3    H237547   2.527   1.652   2.024
 5330TIP3   OH237548   2.872   6.713   6.192
 5330TIP3    H137549   2.935   6.650   6.226
 5330TIP3    H237550   2.912   6.745   6.111
 5331TIP3   OH237551   5.861   1.858   7.014
 5331TIP3    H137552   5.790   1.883   7.073
 5331TIP3    H237553   5.854   1.763   7.006
 5332TIP3   OH237554   5.008   1.339   0.400
 5332TIP3    H137555   5.032   1.425   0.364
 5332TIP3    H237556   4.915   1.349   0.422
 5333TIP3   OH237557   0.004   6.373   7.391
 5333TIP3    H137558   6.834   6.341   7.465
 5333TIP3    H237559   6.822   6.408   7.329
 5334TIP3   OH237560   2.009   5.757   2.072
 5334TIP3    H137561   1.997   5.851   2.063
 5334TIP3    H237562   2.026   5.744   2.166
 5335TIP3   OH237563   6.815   4.141   0.313
 5335TIP3    H137564   6.745   4.203   0.335
 5335TIP3    H237565   6.821   4.144   0.218
 5336TIP3   OH237566   0.192   0.649   6.741
 5336TIP3    H137567   0.172   0.729   6.692
 5336TIP3    H237568   0.222   0.587   6.674
 5337TIP3   OH237569   3.146   5.641   8.585
 5337TIP3    H137570   3.202   5.669   0.025
 5337TIP3    H237571   3.095   5.568   8.622
 5338TIP3   OH237572   5.498   6.100   6.971
 5338TIP3    H137573   5.459   6.128   6.888
 5338TIP3    H237574   5.557   6.030   6.947
 5339TIP3   OH237575   0.762   4.435   7.315
 5339TIP3    H137576   0.668   4.453   7.309
 5339TIP3    H237577   0.798   4.508   7.365
 5340TIP3   OH237578   4.986   4.640   7.093
 5340TIP3    H137579   4.969   4.722   7.046
 5340TIP3    H237580   5.002   4.576   7.023
 5341TIP3   OH237581   5.084   3.036   0.425
 5341TIP3    H137582   5.050   2.982   0.496
 5341TIP3    H237583   5.160   2.987   0.392
 5342TIP3   OH237584   0.873   6.623   0.879
 5342TIP3    H137585   0.856   6.715   0.862
 5342TIP3    H237586   0.802   6.596   0.938
 5343TIP3   OH237587   0.261   6.021   0.437
 5343TIP3    H137588   0.308   5.944   0.405
 5343TIP3    H237589   0.174   6.015   0.397
 5344TIP3   OH237590   0.228   1.838   1.254
 5344TIP3    H137591   0.253   1.806   1.167
 5344TIP3    H237592   0.226   1.934   1.244
 5345TIP3   OH237593   6.295   6.607   8.080
 5345TIP3    H137594   6.355   6.588   8.007
 5345TIP3    H237595   6.219   6.551   8.064
 5346TIP3   OH237596   5.101   4.477   7.546
 5346TIP3    H137597   5.135   4.539   7.610
 5346TIP3    H237598   5.062   4.531   7.478
 5347TIP3   OH237599   6.239   5.243   0.078
 5347TIP3    H137600   6.223   5.311   0.143
 5347TIP3    H237601   6.271   5.290   0.001
 5348TIP3   OH237602   3.000   6.000   8.087
 5348TIP3    H137603   3.095   6.001   8.077
 5348TIP3    H237604   2.968   5.955   8.009
 5349TIP3   OH237605   4.284   4.480   0.407
 5349TIP3    H137606   4.378   4.481   0.423
 5349TIP3    H237607   4.276   4.503   0.314
 5350TIP3   OH237608   6.513   0.306   2.453
 5350TIP3    H137609   6.604   0.301   2.425
 5350TIP3    H237610   6.517   0.345   2.541
 5351TIP3   OH237611   3.290   3.989   6.696
 5351TIP3    H137612   3.253   3.939   6.623
 5351TIP3    H237613   3.258   4.078   6.684
 5352TIP3   OH237614   5.819   2.784   8.483
 5352TIP3    H137615   5.735   2.800   8.526
 5352TIP3    H237616   5.846   2.697   8.514
 5353TIP3   OH237617   3.046   4.485   6.684
 5353TIP3    H137618   3.083   4.573   6.695
 5353TIP3    H237619   2.993   4.492   6.605
 5354TIP3   OH237620   2.389   3.612   7.112
 5354TIP3    H137621   2.324   3.683   7.115
 5354TIP3    H237622   2.443   3.626   7.190
 5355TIP3   OH237623   3.269   6.879   2.132
 5355TIP3    H137624   3.264   6.831   2.215
 5355TIP3    H237625   3.190   0.051   2.132
 5356TIP3   OH237626   2.212   0.429   7.500
 5356TIP3    H137627   2.289   0.410   7.447
 5356TIP3    H237628   2.237   0.403   7.589
 5357TIP3   OH237629   1.141   0.631   7.327
 5357TIP3    H137630   1.182   0.713   7.299
 5357TIP3    H237631   1.120   0.644   7.419
 5358TIP3   OH237632   1.794   1.921   1.250
 5358TIP3    H137633   1.707   1.933   1.286
 5358TIP3    H237634   1.784   1.854   1.183
 5359TIP3   OH237635   4.347   0.253   2.091
 5359TIP3    H137636   4.419   0.251   2.028
 5359TIP3    H237637   4.331   0.161   2.112
 5360TIP3   OH237638   1.501   2.975   1.460
 5360TIP3    H137639   1.549   3.055   1.442
 5360TIP3    H237640   1.507   2.924   1.379
 5361TIP3   OH237641   6.027   2.524   1.709
 5361TIP3    H137642   6.093   2.454   1.705
 5361TIP3    H237643   5.945   2.482   1.685
 5362TIP3   OH237644   2.999   5.006   8.140
 5362TIP3    H137645   3.083   4.964   8.155
 5362TIP3    H237646   2.962   5.018   8.228
 5363TIP3   OH237647   5.264   0.462   2.405
 5363TIP3    H137648   5.206   0.394   2.372
 5363TIP3    H237649   5.297   0.427   2.489
 5364TIP3   OH237650   2.626   3.833   1.852
 5364TIP3    H137651   2.627   3.748   1.896
 5364TIP3    H237652   2.555   3.881   1.895
 5365TIP3   OH237653   3.443   0.924   0.329
 5365TIP3    H137654   3.440   0.874   0.411
 5365TIP3    H237655   3.431   0.858   0.261
 5366TIP3   OH237656   3.116   3.775   7.608
 5366TIP3    H137657   3.184   3.785   7.674
 5366TIP3    H237658   3.079   3.688   7.624
 5367TIP3   OH237659   3.716   3.869   1.107
 5367TIP3    H137660   3.801   3.830   1.124
 5367TIP3    H237661   3.716   3.950   1.158
 5368TIP3   OH237662   1.203   3.128   1.960
 5368TIP3    H137663   1.291   3.166   1.956
 5368TIP3    H237664   1.203   3.060   1.893
 5369TIP3   OH237665   0.566   5.960   0.300
 5369TIP3    H137666   0.516   5.925   0.226
 5369TIP3    H237667   0.609   6.039   0.265
 5370TIP3   OH237668   5.072   6.462   7.399
 5370TIP3    H137669   5.138   6.446   7.332
 5370TIP3    H237670   5.107   6.534   7.451
 5371TIP3   OH237671   1.166   2.280   8.335
 5371TIP3    H137672   1.197   2.201   8.379
 5371TIP3    H237673   1.125   2.249   8.255
 5372TIP3   OH237674   0.457   0.808   0.197
 5372TIP3    H137675   0.394   0.877   0.219
 5372TIP3    H237676   0.538   0.833   0.242
 5373TIP3   OH237677   3.652   5.617   1.199
 5373TIP3    H137678   3.672   5.525   1.184
 5373TIP3    H237679   3.703   5.664   1.134
 5374TIP3   OH237680   5.517   1.453   0.651
 5374TIP3    H137681   5.446   1.395   0.625
 5374TIP3    H237682   5.474   1.527   0.694
 5375TIP3   OH237683   3.368   2.594   0.324
 5375TIP3    H137684   3.402   2.522   0.378
 5375TIP3    H237685   3.409   2.673   0.359
 5376TIP3   OH237686   4.899   6.563   2.352
 5376TIP3    H137687   4.840   6.614   2.297
 5376TIP3    H237688   4.849   6.545   2.431
 5377TIP3   OH237689   4.627   6.629   2.605
 5377TIP3    H137690   4.576   6.616   2.525
 5377TIP3    H237691   4.603   6.555   2.661
 5378TIP3   OH237692   3.528   0.534   1.709
 5378TIP3    H137693   3.524   0.523   1.614
 5378TIP3    H237694   3.559   0.624   1.721
 5379TIP3   OH237695   4.520   1.770   0.191
 5379TIP3    H137696   4.523   1.858   0.152
 5379TIP3    H237697   4.572   1.779   0.272
 5380TIP3   OH237698   4.925   3.391   1.806
 5380TIP3    H137699   4.889   3.303   1.815
 5380TIP3    H237700   4.852   3.445   1.778
 5381TIP3   OH237701   2.179   4.468   2.486
 5381TIP3    H137702   2.258   4.417   2.504
 5381TIP3    H237703   2.178   4.536   2.553
 5382TIP3   OH237704   6.279   3.891   0.760
 5382TIP3    H137705   6.244   3.864   0.844
 5382TIP3    H237706   6.364   3.848   0.754
 5383TIP3   OH237707   4.666   2.434   7.570
 5383TIP3    H137708   4.667   2.495   7.644
 5383TIP3    H237709   4.601   2.368   7.594
 5384TIP3   OH237710   5.586   6.138   2.701
 5384TIP3    H137711   5.664   6.194   2.708
 5384TIP3    H237712   5.561   6.143   2.609
 5385TIP3   OH237713   4.361   2.341   1.686
 5385TIP3    H137714   4.365   2.416   1.627
 5385TIP3    H237715   4.451   2.309   1.691
 5386TIP3   OH237716   0.633   2.660   6.973
 5386TIP3    H137717   0.691   2.624   7.040
 5386TIP3    H237718   0.685   2.653   6.892
 5387TIP3   OH237719   2.634   5.963   7.386
 5387TIP3    H137720   2.657   5.876   7.418
 5387TIP3    H237721   2.618   6.014   7.465
 5388TIP3   OH237722   5.912   2.724   0.151
 5388TIP3    H137723   5.828   2.709   0.194
 5388TIP3    H237724   5.931   2.641   0.106
 5389TIP3   OH237725   0.042   3.136   1.113
 5389TIP3    H137726   0.064   3.226   1.089
 5389TIP3    H237727   6.833   3.140   1.141
 5390TIP3   OH237728   4.760   3.411   1.533
 5390TIP3    H137729   4.761   3.317   1.554
 5390TIP3    H237730   4.800   3.416   1.446
 5391TIP3   OH237731   6.231   1.837   1.470
 5391TIP3    H137732   6.170   1.780   1.517
 5391TIP3    H237733   6.301   1.856   1.534
 5392TIP3   OH237734   2.065   5.881   6.647
 5392TIP3    H137735   2.115   5.923   6.577
 5392TIP3    H237736   1.976   5.875   6.613
 5393TIP3   OH237737   2.061   1.578   1.366
 5393TIP3    H137738   2.145   1.532   1.361
 5393TIP3    H237739   1.995   1.509   1.358
 5394TIP3   OH237740   4.562   2.212   0.674
 5394TIP3    H137741   4.569   2.176   0.763
 5394TIP3    H237742   4.515   2.294   0.685
 5395TIP3   OH237743   4.660   0.707   1.093
 5395TIP3    H137744   4.660   0.677   1.002
 5395TIP3    H237745   4.644   0.801   1.087
 5396TIP3   OH237746   3.014   2.561   0.743
 5396TIP3    H137747   2.996   2.472   0.715
 5396TIP3    H237748   3.106   2.561   0.768
 5397TIP3   OH237749   1.408   1.568   0.223
 5397TIP3    H137750   1.389   1.580   0.316
 5397TIP3    H237751   1.331   1.603   0.178
 5398TIP3   OH237752   0.768   5.705   1.310
 5398TIP3    H137753   0.842   5.645   1.317
 5398TIP3    H237754   0.691   5.649   1.319
 5399TIP3   OH237755   4.986   2.539   7.676
 5399TIP3    H137756   5.043   2.572   7.745
 5399TIP3    H237757   4.967   2.616   7.622
 5400TIP3   OH237758   0.797   3.307   6.714
 5400TIP3    H137759   0.875   3.257   6.691
 5400TIP3    H237760   0.794   3.378   6.650
 5401TIP3   OH237761   5.714   1.086   1.413
 5401TIP3    H137762   5.733   0.994   1.397
 5401TIP3    H237763   5.656   1.085   1.490
 5402TIP3   OH237764   4.445   3.909   2.230
 5402TIP3    H137765   4.363   3.943   2.195
 5402TIP3    H237766   4.483   3.982   2.278
 5403TIP3   OH237767   4.065   2.902   0.365
 5403TIP3    H137768   4.106   2.963   0.304
 5403TIP3    H237769   4.139   2.857   0.406
 5404TIP3   OH237770   4.955   4.414   8.200
 5404TIP3    H137771   4.964   4.336   8.254
 5404TIP3    H237772   4.900   4.473   8.251
 5405TIP3   OH237773   2.982   0.848   1.783
 5405TIP3    H137774   2.891   0.860   1.755
 5405TIP3    H237775   2.992   0.753   1.793
 5406TIP3   OH237776   1.105   0.206   0.893
 5406TIP3    H137777   1.143   0.268   0.956
 5406TIP3    H237778   1.098   0.124   0.942
 5407TIP3   OH237779   5.760   6.321   7.389
 5407TIP3    H137780   5.702   6.245   7.401
 5407TIP3    H237781   5.764   6.362   7.475
 5408TIP3   OH237782   5.307   0.956   1.559
 5408TIP3    H137783   5.384   0.902   1.537
 5408TIP3    H237784   5.325   1.040   1.518
 5409TIP3   OH237785   5.252   2.073   7.242
 5409TIP3    H137786   5.308   2.123   7.302
 5409TIP3    H237787   5.303   1.995   7.221
 5410TIP3   OH237788   1.174   3.191   1.386
 5410TIP3    H137789   1.178   3.109   1.336
 5410TIP3    H237790   1.108   3.243   1.340
 5411TIP3   OH237791   5.965   3.890   7.251
 5411TIP3    H137792   5.950   3.799   7.277
 5411TIP3    H237793   5.962   3.889   7.156
 5412TIP3   OH237794   6.689   0.147   7.524
 5412TIP3    H137795   6.624   0.168   7.457
 5412TIP3    H237796   6.761   0.105   7.476
 5413TIP3   OH237797   3.138   6.097   7.572
 5413TIP3    H137798   3.094   6.031   7.519
 5413TIP3    H237799   3.116   6.180   7.530
 5414TIP3   OH237800   0.077   0.889   1.431
 5414TIP3    H137801   0.111   0.963   1.481
 5414TIP3    H237802   0.154   0.852   1.388
 5415TIP3   OH237803   1.349   1.000   1.793
 5415TIP3    H137804   1.398   1.077   1.822
 5415TIP3    H237805   1.269   1.001   1.847
 5416TIP3   OH237806   2.433   0.901   0.416
 5416TIP3    H137807   2.345   0.933   0.432
 5416TIP3    H237808   2.487   0.980   0.412
 5417TIP3   OH237809   4.505   2.117   8.436
 5417TIP3    H137810   4.423   2.080   8.403
 5417TIP3    H237811   4.487   2.210   8.445
 5418TIP3   OH237812   4.975   0.828   6.259
 5418TIP3    H137813   4.921   0.847   6.182
 5418TIP3    H237814   4.950   0.739   6.285
 5419TIP3   OH237815   5.041   4.134   0.466
 5419TIP3    H137816   4.967   4.165   0.518
 5419TIP3    H237817   5.082   4.066   0.520
 5420TIP3   OH237818   6.303   0.606   0.887
 5420TIP3    H137819   6.385   0.646   0.918
 5420TIP3    H237820   6.235   0.670   0.909
 5421TIP3   OH237821   2.997   1.904   8.626
 5421TIP3    H137822   3.048   1.829   0.023
 5421TIP3    H237823   2.918   1.866   8.588
 5422TIP3   OH237824   5.284   0.311   0.726
 5422TIP3    H137825   5.248   0.305   0.637
 5422TIP3    H237826   5.310   0.222   0.747
 5423TIP3   OH237827   4.923   1.598   1.635
 5423TIP3    H137828   4.964   1.583   1.720
 5423TIP3    H237829   4.840   1.641   1.655
 5424TIP3   OH237830   0.675   4.256   1.753
 5424TIP3    H137831   0.662   4.223   1.842
 5424TIP3    H237832   0.587   4.276   1.722
 5425TIP3   OH237833   0.645   4.653   1.849
 5425TIP3    H137834   0.726   4.649   1.900
 5425TIP3    H237835   0.576   4.631   1.912
 5426TIP3   OH237836   6.454   4.645   0.341
 5426TIP3    H137837   6.531   4.686   0.303
 5426TIP3    H237838   6.392   4.637   0.267
 5427TIP3   OH237839   3.793   6.605   2.690
 5427TIP3    H137840   3.714   6.660   2.685
 5427TIP3    H237841   3.833   6.628   2.773
 5428TIP3   OH237842   6.013   5.693   6.939
 5428TIP3    H137843   5.928   5.699   6.897
 5428TIP3    H237844   6.075   5.677   6.868
 5429TIP3   OH237845   6.119   4.494   7.997
 5429TIP3    H137846   6.142   4.547   8.073
 5429TIP3    H237847   6.047   4.438   8.027
 5430TIP3   OH237848   3.897   0.032   0.957
 5430TIP3    H137849   3.875   0.098   0.891
 5430TIP3    H237850   3.989   0.011   0.940
 5431TIP3   OH237851   2.213   3.378   0.093
 5431TIP3    H137852   2.297   3.419   0.116
 5431TIP3    H237853   2.216   3.292   0.135
 5432TIP3   OH237854   2.620   6.773   6.276
 5432TIP3    H137855   2.558   6.702   6.256
 5432TIP3    H237856   2.698   6.752   6.226
 5433TIP3   OH237857   6.079   6.192   1.317
 5433TIP3    H137858   6.077   6.259   1.385
 5433TIP3    H237859   6.027   6.229   1.246
 5434TIP3   OH237860   4.509   5.455   0.632
 5434TIP3    H137861   4.495   5.532   0.576
 5434TIP3    H237862   4.499   5.489   0.721
 5435TIP3   OH237863   6.472   2.995   1.561
 5435TIP3    H137864   6.561   2.961   1.570
 5435TIP3    H237865   6.448   3.022   1.650
 5436TIP3   OH237866   0.102   0.554   8.108
 5436TIP3    H137867   0.023   0.603   8.085
 5436TIP3    H237868   0.165   0.621   8.133
 5437TIP3   OH237869   6.028   5.871   0.192
 5437TIP3    H137870   6.113   5.853   0.232
 5437TIP3    H237871   6.001   5.788   0.152
 5438TIP3   OH237872   5.458   4.197   7.365
 5438TIP3    H137873   5.504   4.208   7.282
 5438TIP3    H237874   5.464   4.283   7.407
 5439TIP3   OH237875   6.259   3.830   1.352
 5439TIP3    H137876   6.252   3.908   1.406
 5439TIP3    H237877   6.315   3.771   1.403
 5440TIP3   OH237878   1.539   3.488   7.878
 5440TIP3    H137879   1.481   3.505   7.803
 5440TIP3    H237880   1.598   3.419   7.848
 5441TIP3   OH237881   0.323   0.672   7.954
 5441TIP3    H137882   0.408   0.657   7.912
 5441TIP3    H237883   0.268   0.601   7.922
 5442TIP3   OH237884   1.008   6.028   7.117
 5442TIP3    H137885   1.052   6.043   7.033
 5442TIP3    H237886   0.952   5.952   7.101
 5443TIP3   OH237887   1.712   4.756   0.456
 5443TIP3    H137888   1.624   4.739   0.421
 5443TIP3    H237889   1.716   4.702   0.535
 5444TIP3   OH237890   2.441   0.844   0.141
 5444TIP3    H137891   2.446   0.855   0.236
 5444TIP3    H237892   2.374   0.906   0.113
 5445TIP3   OH237893   5.686   6.449   1.737
 5445TIP3    H137894   5.613   6.506   1.763
 5445TIP3    H237895   5.764   6.499   1.759
 5446TIP3   OH237896   0.803   5.454   7.291
 5446TIP3    H137897   0.742   5.527   7.298
 5446TIP3    H237898   0.797   5.409   7.375
 5447TIP3   OH237899   6.437   2.916   0.604
 5447TIP3    H137900   6.463   2.902   0.695
 5447TIP3    H237901   6.484   2.995   0.577
 5448TIP3   OH237902   5.341   0.360   1.017
 5448TIP3    H137903   5.323   0.360   0.923
 5448TIP3    H237904   5.436   0.365   1.024
 5449TIP3   OH237905   5.182   1.367   7.459
 5449TIP3    H137906   5.230   1.306   7.515
 5449TIP3    H237907   5.090   1.355   7.483
 5450TIP3   OH237908   6.215   3.188   0.956
 5450TIP3    H137909   6.140   3.226   0.911
 5450TIP3    H237910   6.289   3.203   0.898
 5451TIP3   OH237911   5.757   3.853   0.334
 5451TIP3    H137912   5.846   3.883   0.353
 5451TIP3    H237913   5.732   3.799   0.409
 5452TIP3   OH237914   1.756   3.379   1.035
 5452TIP3    H137915   1.666   3.385   1.006
 5452TIP3    H237916   1.777   3.286   1.032
 5453TIP3   OH237917   0.187   4.579   2.391
 5453TIP3    H137918   0.119   4.646   2.394
 5453TIP3    H237919   0.268   4.627   2.409
 5454TIP3   OH237920   3.843   0.702   0.729
 5454TIP3    H137921   3.852   0.757   0.806
 5454TIP3    H237922   3.790   0.753   0.668
 5455TIP3   OH237923   2.775   6.121   2.071
 5455TIP3    H137924   2.793   6.205   2.029
 5455TIP3    H237925   2.805   6.132   2.161
 5456TIP3   OH237926   0.916   0.349   1.457
 5456TIP3    H137927   0.822   0.358   1.467
 5456TIP3    H237928   0.952   0.421   1.509
 5457TIP3   OH237929   4.960   0.855   1.154
 5457TIP3    H137930   4.882   0.906   1.133
 5457TIP3    H237931   4.977   0.875   1.246
 5458TIP3   OH237932   6.101   2.401   7.655
 5458TIP3    H137933   6.017   2.357   7.668
 5458TIP3    H237934   6.088   2.453   7.576
 5459TIP3   OH237935   1.322   6.796   7.183
 5459TIP3    H137936   1.329   6.882   7.225
 5459TIP3    H237937   1.397   6.791   7.124
 5460TIP3   OH237938   1.370   3.151   1.688
 5460TIP3    H137939   1.411   3.069   1.661
 5460TIP3    H237940   1.410   3.172   1.773
 5461TIP3   OH237941   0.690   5.708   0.140
 5461TIP3    H137942   0.772   5.745   0.107
 5461TIP3    H237943   0.622   5.752   0.090
 5462TIP3   OH237944   0.573   4.191   6.778
 5462TIP3    H137945   0.502   4.252   6.796
 5462TIP3    H237946   0.578   4.185   6.683
 5463TIP3   OH237947   5.661   5.953   2.351
 5463TIP3    H137948   5.734   5.995   2.395
 5463TIP3    H237949   5.583   5.987   2.396
 5464TIP3   OH237950   1.585   6.543   7.820
 5464TIP3    H137951   1.501   6.549   7.866
 5464TIP3    H237952   1.564   6.501   7.737
 5465TIP3   OH237953   1.737   0.432   8.038
 5465TIP3    H137954   1.799   0.426   8.111
 5465TIP3    H237955   1.697   0.346   8.033
 5466TIP3   OH237956   2.822   4.986   8.344
 5466TIP3    H137957   2.731   4.959   8.358
 5466TIP3    H237958   2.869   4.954   8.421
 5467TIP3   OH237959   1.481   3.168   7.808
 5467TIP3    H137960   1.560   3.167   7.754
 5467TIP3    H237961   1.410   3.144   7.749
 5468TIP3   OH237962   2.184   3.219   7.524
 5468TIP3    H137963   2.261   3.235   7.470
 5468TIP3    H237964   2.173   3.299   7.575
 5469TIP3   OH237965   2.187   1.220   7.141
 5469TIP3    H137966   2.238   1.283   7.193
 5469TIP3    H237967   2.125   1.274   7.092
 5470TIP3   OH237968   2.730   0.993   7.455
 5470TIP3    H137969   2.803   0.931   7.453
 5470TIP3    H237970   2.667   0.958   7.391
 5471TIP3   OH237971   5.730   4.275   0.516
 5471TIP3    H137972   5.695   4.339   0.454
 5471TIP3    H237973   5.810   4.242   0.475
 5472TIP3   OH237974   4.412   2.321   7.946
 5472TIP3    H137975   4.465   2.267   8.004
 5472TIP3    H237976   4.460   2.403   7.938
 5473TIP3   OH237977   2.075   6.856   0.549
 5473TIP3    H137978   2.101   6.798   0.621
 5473TIP3    H237979   2.088   0.061   0.584
 5474TIP3   OH237980   5.377   4.816   7.234
 5474TIP3    H137981   5.408   4.819   7.143
 5474TIP3    H237982   5.444   4.863   7.283
 5475TIP3   OH237983   2.255   4.576   8.218
 5475TIP3    H137984   2.321   4.632   8.176
 5475TIP3    H237985   2.196   4.552   8.146
 5476TIP3   OH237986   4.919   5.794   7.900
 5476TIP3    H137987   4.842   5.848   7.882
 5476TIP3    H237988   4.936   5.805   7.994
 5477TIP3   OH237989   5.973   4.800   7.547
 5477TIP3    H137990   6.064   4.771   7.536
 5477TIP3    H237991   5.925   4.720   7.565
 5478TIP3   OH237992   3.809   0.167   1.214
 5478TIP3    H137993   3.894   0.128   1.199
 5478TIP3    H237994   3.782   0.133   1.300
 5479TIP3   OH237995   2.198   5.461   7.970
 5479TIP3    H137996   2.249   5.457   7.889
 5479TIP3    H237997   2.198   5.554   7.993
 5480TIP3   OH237998   0.151   2.758   1.072
 5480TIP3    H137999   0.238   2.769   1.110
 5480TIP3    H238000   0.091   2.762   1.147
 5481TIP3   OH238001   4.627   5.924   7.170
 5481TIP3    H138002   4.613   5.846   7.223
 5481TIP3    H238003   4.639   5.994   7.235
 5482TIP3   OH238004   0.012   1.902   7.458
 5482TIP3    H138005   6.830   1.834   7.442
 5482TIP3    H238006   6.856   1.982   7.422
 5483TIP3   OH238007   3.943   3.837   0.366
 5483TIP3    H138008   3.915   3.901   0.301
 5483TIP3    H238009   3.962   3.890   0.444
 5484TIP3   OH238010   1.569   0.694   6.738
 5484TIP3    H138011   1.590   0.608   6.774
 5484TIP3    H238012   1.525   0.676   6.655
 5485TIP3   OH238013   1.163   5.754   6.470
 5485TIP3    H138014   1.067   5.749   6.472
 5485TIP3    H238015   1.192   5.664   6.483
 5486TIP3   OH238016   3.502   3.727   8.433
 5486TIP3    H138017   3.546   3.674   8.498
 5486TIP3    H238018   3.572   3.760   8.377
 5487TIP3   OH238019   3.112   2.121   1.546
 5487TIP3    H138020   3.166   2.097   1.621
 5487TIP3    H238021   3.074   2.039   1.515
 5488TIP3   OH238022   1.618   2.761   0.569
 5488TIP3    H138023   1.536   2.726   0.605
 5488TIP3    H238024   1.647   2.825   0.634
 5489TIP3   OH238025   0.321   0.515   6.968
 5489TIP3    H138026   0.288   0.559   6.889
 5489TIP3    H238027   0.335   0.586   7.031
 5490TIP3   OH238028   5.421   4.001   8.382
 5490TIP3    H138029   5.328   4.007   8.360
 5490TIP3    H238030   5.440   3.907   8.386
 5491TIP3   OH238031   4.176   1.814   2.514
 5491TIP3    H138032   4.124   1.806   2.434
 5491TIP3    H238033   4.112   1.812   2.585
 5492TIP3   OH238034   5.158   2.416   2.294
 5492TIP3    H138035   5.249   2.446   2.297
 5492TIP3    H238036   5.110   2.478   2.348
 5493TIP3   OH238037   6.603   6.337   0.089
 5493TIP3    H138038   6.594   6.379   0.003
 5493TIP3    H238039   6.605   6.410   0.151
 5494TIP3   OH238040   0.147   6.673   8.073
 5494TIP3    H138041   0.096   6.641   8.147
 5494TIP3    H238042   0.194   6.596   8.041
 5495TIP3   OH238043   0.292   2.223   1.831
 5495TIP3    H138044   0.263   2.306   1.869
 5495TIP3    H238045   0.223   2.198   1.770
 5496TIP3   OH238046   1.877   6.860   2.044
 5496TIP3    H138047   1.871   0.071   2.058
 5496TIP3    H238048   1.848   6.846   1.954
 5497TIP3   OH238049   1.536   1.959   8.000
 5497TIP3    H138050   1.519   2.003   8.084
 5497TIP3    H238051   1.469   1.891   7.995
 5498TIP3   OH238052   3.139   0.911   0.109
 5498TIP3    H138053   3.086   0.988   0.091
 5498TIP3    H238054   3.220   0.926   0.061
 5499TIP3   OH238055   4.357   2.494   2.054
 5499TIP3    H138056   4.394   2.554   1.989
 5499TIP3    H238057   4.355   2.544   2.135
 5500TIP3   OH238058   2.835   6.578   7.658
 5500TIP3    H138059   2.909   6.630   7.691
 5500TIP3    H238060   2.839   6.588   7.563
 5501TIP3   OH238061   2.537   0.200   7.804
 5501TIP3    H138062   2.567   0.139   7.737
 5501TIP3    H238063   2.560   0.158   7.887
 5502TIP3   OH238064   5.070   0.105   0.764
 5502TIP3    H138065   5.133   0.049   0.717
 5502TIP3    H238066   4.991   0.102   0.710
 5503TIP3   OH238067   1.258   0.523   1.408
 5503TIP3    H138068   1.279   0.524   1.501
 5503TIP3    H238069   1.190   0.456   1.399
 5504TIP3   OH238070   0.637   4.470   0.151
 5504TIP3    H138071   0.583   4.430   0.082
 5504TIP3    H238072   0.642   4.403   0.219
 5505TIP3   OH238073   2.170   4.135   0.653
 5505TIP3    H138074   2.120   4.150   0.733
 5505TIP3    H238075   2.136   4.053   0.618
 5506TIP3   OH238076   0.730   4.101   0.259
 5506TIP3    H138077   0.661   4.141   0.310
 5506TIP3    H238078   0.713   4.129   0.169
 5507TIP3   OH238079   4.238   2.833   1.411
 5507TIP3    H138080   4.169   2.773   1.437
 5507TIP3    H238081   4.301   2.830   1.484
 5508TIP3   OH238082   4.597   6.469   7.046
 5508TIP3    H138083   4.529   6.401   7.052
 5508TIP3    H238084   4.604   6.487   6.953
 5509TIP3   OH238085   1.541   4.481   7.902
 5509TIP3    H138086   1.496   4.477   7.818
 5509TIP3    H238087   1.476   4.513   7.964
 5510TIP3   OH238088   0.830   2.082   8.032
 5510TIP3    H138089   0.796   2.053   8.116
 5510TIP3    H238090   0.829   2.004   7.977
 5511TIP3   OH238091   0.372   0.374   0.882
 5511TIP3    H138092   0.288   0.359   0.925
 5511TIP3    H238093   0.428   0.410   0.951
 5512TIP3   OH238094   5.254   3.007   1.620
 5512TIP3    H138095   5.177   2.989   1.566
 5512TIP3    H238096   5.219   3.023   1.708
 5513TIP3   OH238097   6.297   0.089   1.185
 5513TIP3    H138098   6.317   0.010   1.134
 5513TIP3    H238099   6.328   0.161   1.130
 5514TIP3   OH238100   4.279   0.607   0.633
 5514TIP3    H138101   4.317   0.553   0.563
 5514TIP3    H238102   4.334   0.591   0.709
 5515TIP3   OH238103   1.373   2.417   7.990
 5515TIP3    H138104   1.388   2.491   7.930
 5515TIP3    H238105   1.333   2.457   8.067
 5516TIP3   OH238106   4.277   0.121   0.616
 5516TIP3    H138107   4.277   0.155   0.706
 5516TIP3    H238108   4.279   0.026   0.626
 5517TIP3   OH238109   5.069   6.216   1.521
 5517TIP3    H138110   5.056   6.311   1.514
 5517TIP3    H238111   4.993   6.184   1.569
 5518TIP3   OH238112   4.429   2.072   1.234
 5518TIP3    H138113   4.396   2.148   1.186
 5518TIP3    H238114   4.524   2.073   1.218
 5519TIP3   OH238115   6.744   1.910   0.464
 5519TIP3    H138116   6.796   1.987   0.487
 5519TIP3    H238117   6.679   1.943   0.402
 5520TIP3   OH238118   2.497   0.323   2.631
 5520TIP3    H138119   2.567   0.264   2.604
 5520TIP3    H238120   2.540   0.408   2.643
 5521TIP3   OH238121   3.696   0.563   1.056
 5521TIP3    H138122   3.787   0.563   1.028
 5521TIP3    H238123   3.696   0.611   1.138
 5522TIP3   OH238124   0.472   5.397   7.460
 5522TIP3    H138125   0.465   5.407   7.366
 5522TIP3    H238126   0.563   5.420   7.480
 5523TIP3   OH238127   0.899   3.280   0.325
 5523TIP3    H138128   0.851   3.327   0.394
 5523TIP3    H238129   0.989   3.311   0.332
 5524TIP3   OH238130   3.923   5.053   1.818
 5524TIP3    H138131   3.974   4.981   1.783
 5524TIP3    H238132   3.946   5.057   1.911
 5525TIP3   OH238133   5.935   2.048   1.263
 5525TIP3    H138134   6.028   2.068   1.262
 5525TIP3    H238135   5.892   2.132   1.276
 5526TIP3   OH238136   5.684   5.999   1.791
 5526TIP3    H138137   5.650   6.086   1.812
 5526TIP3    H238138   5.621   5.939   1.830
 5527TIP3   OH238139   3.647   6.863   8.569
 5527TIP3    H138140   3.552   6.861   8.563
 5527TIP3    H238141   3.665   6.872   0.031
 5528TIP3   OH238142   0.856   1.744   1.054
 5528TIP3    H138143   0.914   1.798   1.000
 5528TIP3    H238144   0.785   1.803   1.078
 5529TIP3   OH238145   3.726   1.960   8.180
 5529TIP3    H138146   3.735   2.050   8.149
 5529TIP3    H238147   3.637   1.956   8.215
 5530TIP3   OH238148   5.688   0.827   8.615
 5530TIP3    H138149   5.650   0.796   8.532
 5530TIP3    H238150   5.770   0.777   8.623
 5531TIP3   OH238151   5.559   4.609   1.526
 5531TIP3    H138152   5.479   4.653   1.498
 5531TIP3    H238153   5.567   4.629   1.619
 5532TIP3   OH238154   1.306   6.518   6.636
 5532TIP3    H138155   1.277   6.518   6.544
 5532TIP3    H238156   1.287   6.429   6.666
 5533TIP3   OH238157   3.639   6.814   1.146
 5533TIP3    H138158   3.667   0.022   1.138
 5533TIP3    H238159   3.708   6.772   1.198
 5534TIP3   OH238160   0.543   2.918   1.797
 5534TIP3    H138161   0.596   2.894   1.873
 5534TIP3    H238162   0.453   2.920   1.831
 5535TIP3   OH238163   2.083   1.065   1.246
 5535TIP3    H138164   2.178   1.050   1.244
 5535TIP3    H238165   2.045   0.978   1.257
 5536TIP3   OH238166   5.991   5.809   2.075
 5536TIP3    H138167   5.939   5.744   2.029
 5536TIP3    H238168   6.061   5.759   2.118
 5537TIP3   OH238169   0.886   1.845   7.908
 5537TIP3    H138170   0.818   1.839   7.842
 5537TIP3    H238171   0.964   1.873   7.861
 5538TIP3   OH238172   5.937   6.186   7.630
 5538TIP3    H138173   5.844   6.205   7.637
 5538TIP3    H238174   5.943   6.091   7.642
 5539TIP3   OH238175   3.344   1.195   0.199
 5539TIP3    H138176   3.383   1.276   0.232
 5539TIP3    H238177   3.394   1.125   0.242
 5540TIP3   OH238178   5.665   2.723   1.708
 5540TIP3    H138179   5.647   2.740   1.616
 5540TIP3    H238180   5.584   2.746   1.753
 5541TIP3   OH238181   2.807   1.942   0.427
 5541TIP3    H138182   2.778   1.872   0.486
 5541TIP3    H238183   2.744   2.013   0.440
 5542TIP3   OH238184   2.291   4.479   7.733
 5542TIP3    H138185   2.241   4.405   7.768
 5542TIP3    H238186   2.250   4.497   7.648
 5543TIP3   OH238187   2.568   5.395   0.588
 5543TIP3    H138188   2.596   5.321   0.535
 5543TIP3    H238189   2.564   5.362   0.677
 5544TIP3   OH238190   6.270   1.326   7.587
 5544TIP3    H138191   6.186   1.357   7.555
 5544TIP3    H238192   6.248   1.264   7.657
 5545TIP3   OH238193   0.425   2.755   6.326
 5545TIP3    H138194   0.401   2.834   6.277
 5545TIP3    H238195   0.377   2.684   6.285
 5546TIP3   OH238196   3.108   6.256   2.126
 5546TIP3    H138197   3.185   6.260   2.183
 5546TIP3    H238198   3.114   6.334   2.072
 5547TIP3   OH238199   3.239   6.410   0.523
 5547TIP3    H138200   3.254   6.414   0.428
 5547TIP3    H238201   3.144   6.403   0.532
 5548TIP3   OH238202   1.418   2.376   6.853
 5548TIP3    H138203   1.416   2.292   6.807
 5548TIP3    H238204   1.453   2.438   6.789
 5549TIP3   OH238205   1.043   1.712   8.414
 5549TIP3    H138206   1.088   1.772   8.353
 5549TIP3    H238207   1.015   1.769   8.486
 5550TIP3   OH238208   5.798   0.282   7.108
 5550TIP3    H138209   5.788   0.189   7.129
 5550TIP3    H238210   5.765   0.291   7.019
 5551TIP3   OH238211   2.633   4.201   7.125
 5551TIP3    H138212   2.701   4.134   7.118
 5551TIP3    H238213   2.580   4.189   7.045
 5552TIP3   OH238214   5.292   3.765   6.310
 5552TIP3    H138215   5.261   3.822   6.380
 5552TIP3    H238216   5.364   3.812   6.269
 5553TIP3   OH238217   4.942   4.765   0.125
 5553TIP3    H138218   4.984   4.802   0.048
 5553TIP3    H238219   4.943   4.671   0.110
 5554TIP3   OH238220   0.858   5.707   0.706
 5554TIP3    H138221   0.795   5.714   0.634
 5554TIP3    H238222   0.898   5.794   0.712
 5555TIP3   OH238223   6.441   6.782   6.963
 5555TIP3    H138224   6.494   6.728   6.904
 5555TIP3    H238225   6.355   6.740   6.961
 5556TIP3   OH238226   0.672   0.514   8.296
 5556TIP3    H138227   0.745   0.575   8.300
 5556TIP3    H238228   0.594   0.571   8.295
 5557TIP3   OH238229   3.779   3.997   7.204
 5557TIP3    H138230   3.846   4.032   7.263
 5557TIP3    H238231   3.819   3.919   7.166
 5558TIP3   OH238232   5.628   1.717   7.856
 5558TIP3    H138233   5.555   1.753   7.905
 5558TIP3    H238234   5.705   1.735   7.910
 5559TIP3   OH238235   2.872   3.897   8.379
 5559TIP3    H138236   2.786   3.860   8.399
 5559TIP3    H238237   2.919   3.827   8.334
 5560TIP3   OH238238   3.270   4.860   8.520
 5560TIP3    H138239   3.287   4.896   8.607
 5560TIP3    H238240   3.347   4.806   8.502
 5561TIP3   OH238241   0.739   1.000   6.744
 5561TIP3    H138242   0.665   0.947   6.773
 5561TIP3    H238243   0.721   1.016   6.651
 5562TIP3   OH238244   1.396   5.291   1.834
 5562TIP3    H138245   1.320   5.302   1.777
 5562TIP3    H238246   1.390   5.363   1.896
 5563TIP3   OH238247   3.736   1.149   7.882
 5563TIP3    H138248   3.729   1.134   7.977
 5563TIP3    H238249   3.647   1.168   7.854
 5564TIP3   OH238250   2.200   3.450   7.737
 5564TIP3    H138251   2.276   3.507   7.750
 5564TIP3    H238252   2.190   3.403   7.819
 5565TIP3   OH238253   3.712   4.734   2.337
 5565TIP3    H138254   3.717   4.818   2.381
 5565TIP3    H238255   3.793   4.730   2.285
 5566TIP3   OH238256   6.231   2.429   0.799
 5566TIP3    H138257   6.170   2.463   0.864
 5566TIP3    H238258   6.182   2.361   0.753
 5567TIP3   OH238259   6.174   0.401   0.479
 5567TIP3    H138260   6.255   0.451   0.488
 5567TIP3    H238261   6.105   0.459   0.512
 5568TIP3   OH238262   3.791   6.746   8.364
 5568TIP3    H138263   3.732   6.783   8.429
 5568TIP3    H238264   3.735   6.726   8.289
 5569TIP3   OH238265   1.038   3.071   7.852
 5569TIP3    H138266   1.026   3.158   7.891
 5569TIP3    H238267   1.112   3.034   7.901
 5570TIP3   OH238268   5.867   3.798   7.009
 5570TIP3    H138269   5.911   3.826   6.928
 5570TIP3    H238270   5.892   3.707   7.020
 5571TIP3   OH238271   2.731   4.235   1.158
 5571TIP3    H138272   2.820   4.231   1.192
 5571TIP3    H238273   2.729   4.170   1.088
 5572TIP3   OH238274   1.025   3.269   7.609
 5572TIP3    H138275   1.017   3.276   7.704
 5572TIP3    H238276   1.066   3.184   7.594
 5573TIP3   OH238277   4.402   5.546   7.516
 5573TIP3    H138278   4.404   5.493   7.436
 5573TIP3    H238279   4.416   5.483   7.587
 5574TIP3   OH238280   4.070   1.379   7.942
 5574TIP3    H138281   4.090   1.454   7.998
 5574TIP3    H238282   4.107   1.304   7.989
 5575TIP3   OH238283   1.745   6.482   1.055
 5575TIP3    H138284   1.796   6.504   0.977
 5575TIP3    H238285   1.716   6.392   1.041
 5576TIP3   OH238286   3.906   0.389   8.429
 5576TIP3    H138287   3.874   0.311   8.385
 5576TIP3    H238288   3.935   0.447   8.359
 5577TIP3   OH238289   3.277   3.469   0.859
 5577TIP3    H138290   3.248   3.409   0.929
 5577TIP3    H238291   3.358   3.431   0.827
 5578TIP3   OH238292   1.300   5.781   1.545
 5578TIP3    H138293   1.224   5.840   1.551
 5578TIP3    H238294   1.266   5.696   1.574
 5579TIP3   OH238295   6.234   2.714   7.896
 5579TIP3    H138296   6.261   2.797   7.856
 5579TIP3    H238297   6.242   2.730   7.991
 5580TIP3   OH238298   2.339   1.850   8.047
 5580TIP3    H138299   2.319   1.757   8.039
 5580TIP3    H238300   2.253   1.891   8.062
 5581TIP3   OH238301   1.392   4.381   7.676
 5581TIP3    H138302   1.348   4.323   7.614
 5581TIP3    H238303   1.435   4.322   7.738
 5582TIP3   OH238304   0.010   1.454   1.434
 5582TIP3    H138305   0.068   1.400   1.380
 5582TIP3    H238306   0.067   1.485   1.505
 5583TIP3   OH238307   6.587   4.823   1.950
 5583TIP3    H138308   6.659   4.885   1.966
 5583TIP3    H238309   6.623   4.739   1.976
 5584TIP3   OH238310   2.185   2.881   8.284
 5584TIP3    H138311   2.271   2.852   8.314
 5584TIP3    H238312   2.143   2.916   8.362
 5585TIP3   OH238313   1.153   4.697   1.668
 5585TIP3    H138314   1.210   4.749   1.725
 5585TIP3    H238315   1.092   4.653   1.728
 5586TIP3   OH238316   0.777   5.290   7.511
 5586TIP3    H138317   0.741   5.326   7.592
 5586TIP3    H238318   0.780   5.195   7.527
 5587TIP3   OH238319   1.071   2.124   0.734
 5587TIP3    H138320   0.977   2.125   0.720
 5587TIP3    H238321   1.109   2.109   0.647
 5588TIP3   OH238322   1.546   1.013   8.136
 5588TIP3    H138323   1.460   1.041   8.104
 5588TIP3    H238324   1.533   0.923   8.166
 5589TIP3   OH238325   3.004   1.379   8.435
 5589TIP3    H138326   3.039   1.353   8.349
 5589TIP3    H238327   2.914   1.350   8.434
 5590TIP3   OH238328   6.284   4.673   6.587
 5590TIP3    H138329   6.354   4.735   6.602
 5590TIP3    H238330   6.247   4.699   6.502
 5591TIP3   OH238331   4.890   2.101   7.005
 5591TIP3    H138332   4.820   2.163   7.025
 5591TIP3    H238333   4.912   2.061   7.089
 5592TIP3   OH238334   3.696   0.149   6.230
 5592TIP3    H138335   3.684   0.244   6.229
 5592TIP3    H238336   3.643   0.119   6.303
 5593TIP3   OH238337   4.981   0.344   6.862
 5593TIP3    H138338   4.954   0.294   6.786
 5593TIP3    H238339   5.012   0.278   6.925
 5594TIP3   OH238340   5.672   0.062   6.734
 5594TIP3    H138341   5.711   0.145   6.762
 5594TIP3    H238342   5.675   0.006   6.811
 5595TIP3   OH238343   2.937   1.884   0.910
 5595TIP3    H138344   2.964   1.957   0.854
 5595TIP3    H238345   2.929   1.921   0.997
 5596TIP3   OH238346   4.033   5.927   0.021
 5596TIP3    H138347   4.052   5.904   8.562
 5596TIP3    H238348   3.984   6.009   0.015
 5597TIP3   OH238349   4.943   0.032   6.914
 5597TIP3    H138350   4.864   0.029   6.969
 5597TIP3    H238351   4.997   6.842   6.946
 5598TIP3   OH238352   5.567   6.155   7.478
 5598TIP3    H138353   5.517   6.164   7.397
 5598TIP3    H238354   5.509   6.108   7.537
 5599TIP3   OH238355   4.833   3.266   7.363
 5599TIP3    H138356   4.849   3.273   7.457
 5599TIP3    H238357   4.919   3.281   7.323
 5600TIP3   OH238358   4.596   1.723   8.345
 5600TIP3    H138359   4.622   1.693   8.432
 5600TIP3    H238360   4.503   1.745   8.354
 5601TIP3   OH238361   0.135   1.218   7.196
 5601TIP3    H138362   0.049   1.258   7.197
 5601TIP3    H238363   0.176   1.248   7.115
 5602TIP3   OH238364   3.957   2.367   6.980
 5602TIP3    H138365   3.983   2.316   6.904
 5602TIP3    H238366   3.965   2.458   6.952
 5603TIP3   OH238367   4.459   3.330   1.334
 5603TIP3    H138368   4.372   3.302   1.364
 5603TIP3    H238369   4.500   3.249   1.302
 5604TIP3   OH238370   5.476   0.748   1.462
 5604TIP3    H138371   5.569   0.768   1.449
 5604TIP3    H238372   5.475   0.659   1.495
 5605TIP3   OH238373   1.418   2.668   7.847
 5605TIP3    H138374   1.349   2.735   7.842
 5605TIP3    H238375   1.472   2.684   7.770
 5606TIP3   OH238376   4.354   3.581   1.528
 5606TIP3    H138377   4.370   3.491   1.496
 5606TIP3    H238378   4.361   3.574   1.623
 5607TIP3   OH238379   2.133   6.664   0.803
 5607TIP3    H138380   2.133   6.570   0.820
 5607TIP3    H238381   2.217   6.694   0.837
 5608TIP3   OH238382   4.553   4.999   0.231
 5608TIP3    H138383   4.590   5.064   0.290
 5608TIP3    H238384   4.460   5.023   0.224
 5609TIP3   OH238385   6.343   2.333   6.314
 5609TIP3    H138386   6.379   2.422   6.313
 5609TIP3    H238387   6.286   2.332   6.391
 5610TIP3   OH238388   2.838   0.943   0.303
 5610TIP3    H138389   2.835   0.921   0.210
 5610TIP3    H238390   2.782   0.878   0.345
 5611TIP3   OH238391   3.951   3.732   1.211
 5611TIP3    H138392   3.937   3.638   1.209
 5611TIP3    H238393   4.039   3.745   1.178
 5612TIP3   OH238394   2.062   6.607   0.441
 5612TIP3    H138395   2.080   6.697   0.466
 5612TIP3    H238396   1.967   6.603   0.433
 5613TIP3   OH238397   3.401   3.687   2.383
 5613TIP3    H138398   3.334   3.650   2.325
 5613TIP3    H238399   3.483   3.652   2.349
 5614TIP3   OH238400   3.677   6.638   7.176
 5614TIP3    H138401   3.651   6.710   7.119
 5614TIP3    H238402   3.690   6.564   7.116
 5615TIP3   OH238403   4.096   1.334   2.523
 5615TIP3    H138404   4.191   1.324   2.527
 5615TIP3    H238405   4.067   1.265   2.464
 5616TIP3   OH238406   0.649   6.356   8.281
 5616TIP3    H138407   0.717   6.333   8.217
 5616TIP3    H238408   0.637   6.278   8.334
 5617TIP3   OH238409   1.485   4.625   0.388
 5617TIP3    H138410   1.452   4.537   0.376
 5617TIP3    H238411   1.478   4.666   0.302
 5618TIP3   OH238412   4.469   6.749   1.650
 5618TIP3    H138413   4.421   6.716   1.574
 5618TIP3    H238414   4.543   6.797   1.613
 5619TIP3   OH238415   6.715   2.067   7.822
 5619TIP3    H138416   6.783   2.015   7.778
 5619TIP3    H238417   6.739   2.158   7.805
 5620TIP3   OH238418   3.933   6.481   6.213
 5620TIP3    H138419   3.945   6.394   6.176
 5620TIP3    H238420   3.883   6.528   6.146
 5621TIP3   OH238421   0.572   0.663   2.186
 5621TIP3    H138422   0.548   0.582   2.231
 5621TIP3    H238423   0.653   0.691   2.228
 5622TIP3   OH238424   3.065   1.400   0.951
 5622TIP3    H138425   3.024   1.384   0.866
 5622TIP3    H238426   3.071   1.495   0.957
 5623TIP3   OH238427   5.846   4.255   8.623
 5623TIP3    H138428   5.814   4.261   0.081
 5623TIP3    H238429   5.774   4.216   8.574
 5624TIP3   OH238430   3.027   2.216   7.753
 5624TIP3    H138431   3.005   2.269   7.676
 5624TIP3    H238432   3.122   2.219   7.757
 5625TIP3   OH238433   3.899   6.274   1.664
 5625TIP3    H138434   3.980   6.314   1.634
 5625TIP3    H238435   3.888   6.306   1.753
 5626TIP3   OH238436   6.641   2.400   7.463
 5626TIP3    H138437   6.576   2.470   7.457
 5626TIP3    H238438   6.721   2.439   7.429
 5627TIP3   OH238439   0.372   5.881   6.963
 5627TIP3    H138440   0.357   5.810   7.025
 5627TIP3    H238441   0.328   5.852   6.883
 5628TIP3   OH238442   4.018   4.752   7.803
 5628TIP3    H138443   3.950   4.774   7.740
 5628TIP3    H238444   4.084   4.820   7.792
 5629TIP3   OH238445   5.068   0.678   2.446
 5629TIP3    H138446   5.123   0.601   2.433
 5629TIP3    H238447   4.985   0.644   2.478
 5630TIP3   OH238448   2.477   2.783   1.107
 5630TIP3    H138449   2.550   2.841   1.125
 5630TIP3    H238450   2.496   2.746   1.021
 5631TIP3   OH238451   2.128   6.301   6.819
 5631TIP3    H138452   2.153   6.324   6.729
 5631TIP3    H238453   2.042   6.261   6.811
 5632TIP3   OH238454   5.153   6.804   8.481
 5632TIP3    H138455   5.112   6.799   8.567
 5632TIP3    H238456   5.089   6.766   8.421
 5633TIP3   OH238457   3.200   0.588   8.500
 5633TIP3    H138458   3.197   0.629   8.413
 5633TIP3    H238459   3.137   0.638   8.552
 5634TIP3   OH238460   6.412   2.226   7.128
 5634TIP3    H138461   6.358   2.245   7.205
 5634TIP3    H238462   6.386   2.137   7.102
 5635TIP3   OH238463   1.380   6.368   1.355
 5635TIP3    H138464   1.320   6.433   1.393
 5635TIP3    H238465   1.426   6.416   1.286
 5636TIP3   OH238466   2.406   2.614   8.477
 5636TIP3    H138467   2.363   2.678   8.533
 5636TIP3    H238468   2.395   2.647   8.388
 5637TIP3   OH238469   5.749   3.034   1.242
 5637TIP3    H138470   5.793   2.959   1.203
 5637TIP3    H238471   5.808   3.107   1.227
 5638TIP3   OH238472   4.678   4.725   6.481
 5638TIP3    H138473   4.614   4.654   6.487
 5638TIP3    H238474   4.755   4.683   6.443
 5639TIP3   OH238475   3.106   0.691   7.157
 5639TIP3    H138476   3.024   0.676   7.111
 5639TIP3    H238477   3.151   0.607   7.155
 5640TIP3   OH238478   4.518   1.952   6.719
 5640TIP3    H138479   4.610   1.929   6.737
 5640TIP3    H238480   4.514   1.959   6.624
 5641TIP3   OH238481   3.053   0.783   1.491
 5641TIP3    H138482   3.022   0.827   1.411
 5641TIP3    H238483   3.060   0.853   1.555
 5642TIP3   OH238484   6.476   5.790   6.206
 5642TIP3    H138485   6.516   5.715   6.162
 5642TIP3    H238486   6.383   5.767   6.211
 5643TIP3   OH238487   6.267   4.624   6.961
 5643TIP3    H138488   6.342   4.680   6.938
 5643TIP3    H238489   6.268   4.621   7.057
 5644TIP3   OH238490   5.153   4.664   6.656
 5644TIP3    H138491   5.103   4.617   6.722
 5644TIP3    H238492   5.096   4.736   6.630
 5645TIP3   OH238493   3.745   1.021   1.678
 5645TIP3    H138494   3.832   1.031   1.640
 5645TIP3    H238495   3.685   1.031   1.604
 5646TIP3   OH238496   0.384   0.074   6.715
 5646TIP3    H138497   0.474   0.043   6.731
 5646TIP3    H238498   0.347   0.008   6.657
 5647TIP3   OH238499   0.193   5.437   1.084
 5647TIP3    H138500   0.264   5.491   1.118
 5647TIP3    H238501   0.230   5.349   1.078
 5648TIP3   OH238502   3.079   3.727   8.589
 5648TIP3    H138503   3.153   3.731   0.018
 5648TIP3    H238504   3.058   3.819   8.571
 5649TIP3   OH238505   6.372   6.473   1.602
 5649TIP3    H138506   6.392   6.413   1.674
 5649TIP3    H238507   6.453   6.476   1.551
 5650TIP3   OH238508   0.640   1.298   1.016
 5650TIP3    H138509   0.684   1.372   0.975
 5650TIP3    H238510   0.674   1.221   0.970
 5651TIP3   OH238511   1.534   3.940   0.194
 5651TIP3    H138512   1.550   4.028   0.230
 5651TIP3    H238513   1.456   3.951   0.141
 5652TIP3   OH238514   6.380   5.594   1.754
 5652TIP3    H138515   6.343   5.681   1.773
 5652TIP3    H238516   6.319   5.556   1.690
 5653TIP3   OH238517   6.045   4.878   1.959
 5653TIP3    H138518   6.046   4.963   2.003
 5653TIP3    H238519   6.137   4.862   1.935
 5654TIP3   OH238520   6.640   5.269   8.415
 5654TIP3    H138521   6.588   5.194   8.445
 5654TIP3    H238522   6.730   5.237   8.417
 5655TIP3   OH238523   5.173   5.516   7.815
 5655TIP3    H138524   5.252   5.563   7.842
 5655TIP3    H238525   5.127   5.496   7.896
 5656TIP3   OH238526   1.117   5.384   8.012
 5656TIP3    H138527   1.142   5.426   8.095
 5656TIP3    H238528   1.053   5.442   7.973
 5657TIP3   OH238529   1.876   3.327   7.474
 5657TIP3    H138530   1.926   3.402   7.507
 5657TIP3    H238531   1.922   3.302   7.394
 5658TIP3   OH238532   1.785   5.909   6.608
 5658TIP3    H138533   1.746   5.893   6.522
 5658TIP3    H238534   1.731   5.858   6.668
 5659TIP3   OH238535   3.679   4.478   7.824
 5659TIP3    H138536   3.740   4.495   7.896
 5659TIP3    H238537   3.648   4.389   7.839
 5660TIP3   OH238538   3.702   4.942   6.955
 5660TIP3    H138539   3.733   5.017   7.006
 5660TIP3    H238540   3.614   4.968   6.925
 5661TIP3   OH238541   5.984   0.030   1.348
 5661TIP3    H138542   5.988   0.048   1.254
 5661TIP3    H238543   5.989   0.116   1.389
 5662TIP3   OH238544   5.198   6.686   8.054
 5662TIP3    H138545   5.222   6.716   7.967
 5662TIP3    H238546   5.102   6.685   8.054
 5663TIP3   OH238547   3.786   5.580   0.783
 5663TIP3    H138548   3.781   5.552   0.692
 5663TIP3    H238549   3.694   5.592   0.809
 5664TIP3   OH238550   1.188   1.004   8.071
 5664TIP3    H138551   1.186   0.958   8.155
 5664TIP3    H238552   1.096   1.013   8.046
 5665TIP3   OH238553   1.762   4.841   2.230
 5665TIP3    H138554   1.682   4.790   2.215
 5665TIP3    H238555   1.733   4.932   2.230
 5666TIP3   OH238556   2.323   6.291   7.058
 5666TIP3    H138557   2.277   6.308   6.976
 5666TIP3    H238558   2.314   6.197   7.072
 5667TIP3   OH238559   6.466   3.925   7.342
 5667TIP3    H138560   6.539   3.867   7.320
 5667TIP3    H238561   6.393   3.866   7.359
 5668TIP3   OH238562   0.639   4.278   0.643
 5668TIP3    H138563   0.565   4.260   0.702
 5668TIP3    H238564   0.692   4.198   0.646
 5669TIP3   OH238565   4.535   1.380   6.874
 5669TIP3    H138566   4.578   1.458   6.838
 5669TIP3    H238567   4.591   1.353   6.947
 5670TIP3   OH238568   3.292   6.033   6.749
 5670TIP3    H138569   3.312   5.972   6.679
 5670TIP3    H238570   3.196   6.033   6.754
 5671TIP3   OH238571   0.784   4.304   6.928
 5671TIP3    H138572   0.723   4.265   6.866
 5671TIP3    H238573   0.859   4.329   6.875
 5672TIP3   OH238574   2.153   2.012   1.036
 5672TIP3    H138575   2.068   2.055   1.048
 5672TIP3    H238576   2.194   2.016   1.123
 5673TIP3   OH238577   0.675   1.471   1.220
 5673TIP3    H138578   0.770   1.461   1.232
 5673TIP3    H238579   0.643   1.381   1.211
 5674TIP3   OH238580   1.658   5.088   1.352
 5674TIP3    H138581   1.695   5.012   1.306
 5674TIP3    H238582   1.648   5.154   1.284
 5675TIP3   OH238583   2.038   5.290   1.650
 5675TIP3    H138584   2.018   5.380   1.623
 5675TIP3    H238585   1.955   5.243   1.638
 5676TIP3   OH238586   5.326   2.928   7.460
 5676TIP3    H138587   5.353   2.877   7.383
 5676TIP3    H238588   5.242   2.966   7.435
 5677TIP3   OH238589   4.692   3.986   1.527
 5677TIP3    H138590   4.651   4.009   1.611
 5677TIP3    H238591   4.695   3.891   1.527
 5678TIP3   OH238592   0.759   6.265   8.065
 5678TIP3    H138593   0.794   6.301   7.983
 5678TIP3    H238594   0.715   6.184   8.039
 5679TIP3   OH238595   6.832   5.778   2.175
 5679TIP3    H138596   6.820   5.870   2.196
 5679TIP3    H238597   6.756   5.735   2.213
 5680TIP3   OH238598   1.975   0.348   1.061
 5680TIP3    H138599   2.031   0.271   1.063
 5680TIP3    H238600   1.886   0.313   1.053
 5681TIP3   OH238601   2.301   5.878   0.346
 5681TIP3    H138602   2.245   5.891   0.422
 5681TIP3    H238603   2.241   5.850   0.277
 5682TIP3   OH238604   3.128   2.987   8.175
 5682TIP3    H138605   3.176   3.025   8.249
 5682TIP3    H238606   3.130   2.892   8.190
 5683TIP3   OH238607   1.188   3.115   0.008
 5683TIP3    H138608   1.114   3.091   0.065
 5683TIP3    H238609   1.221   3.197   0.044
 5684TIP3   OH238610   3.443   1.679   0.926
 5684TIP3    H138611   3.385   1.736   0.876
 5684TIP3    H238612   3.525   1.680   0.877
 5685TIP3   OH238613   0.934   5.833   0.031
 5685TIP3    H138614   0.969   5.863   0.114
 5685TIP3    H238615   1.010   5.794   8.617
 5686TIP3   OH238616   4.757   0.770   8.281
 5686TIP3    H138617   4.780   0.759   8.374
 5686TIP3    H238618   4.668   0.805   8.283
 5687TIP3   OH238619   6.327   6.013   7.922
 5687TIP3    H138620   6.413   6.047   7.945
 5687TIP3    H238621   6.268   6.049   7.988
 5688TIP3   OH238622   3.247   5.525   1.291
 5688TIP3    H138623   3.191   5.522   1.369
 5688TIP3    H238624   3.327   5.479   1.316
 5689TIP3   OH238625   4.733   1.336   0.219
 5689TIP3    H138626   4.736   1.419   0.265
 5689TIP3    H238627   4.784   1.351   0.139
 5690TIP3   OH238628   5.390   3.250   7.246
 5690TIP3    H138629   5.437   3.213   7.321
 5690TIP3    H238630   5.422   3.199   7.171
 5691TIP3   OH238631   5.733   0.206   1.936
 5691TIP3    H138632   5.796   0.194   2.007
 5691TIP3    H238633   5.648   0.191   1.977
 5692TIP3   OH238634   2.117   4.269   7.789
 5692TIP3    H138635   2.156   4.221   7.716
 5692TIP3    H238636   2.029   4.289   7.761
 5693TIP3   OH238637   3.519   1.244   7.732
 5693TIP3    H138638   3.534   1.310   7.665
 5693TIP3    H238639   3.511   1.162   7.683
 5694TIP3   OH238640   5.481   2.361   0.861
 5694TIP3    H138641   5.477   2.321   0.948
 5694TIP3    H238642   5.532   2.299   0.809
 5695TIP3   OH238643   4.545   2.970   0.793
 5695TIP3    H138644   4.495   3.048   0.817
 5695TIP3    H238645   4.499   2.935   0.716
 5696TIP3   OH238646   6.688   2.170   1.801
 5696TIP3    H138647   6.629   2.142   1.730
 5696TIP3    H238648   6.630   2.213   1.864
 5697TIP3   OH238649   0.788   4.860   1.385
 5697TIP3    H138650   0.717   4.870   1.447
 5697TIP3    H238651   0.849   4.800   1.428
 5698TIP3   OH238652   0.809   3.887   0.971
 5698TIP3    H138653   0.819   3.819   0.904
 5698TIP3    H238654   0.898   3.920   0.985
 5699TIP3   OH238655   5.651   0.521   1.244
 5699TIP3    H138656   5.669   0.499   1.153
 5699TIP3    H238657   5.555   0.523   1.250
 5700TIP3   OH238658   5.988   3.122   1.479
 5700TIP3    H138659   5.930   3.177   1.426
 5700TIP3    H238660   6.050   3.183   1.519
 5701TIP3   OH238661   5.513   0.086   7.047
 5701TIP3    H138662   5.572   0.013   7.028
 5701TIP3    H238663   5.427   0.056   7.017
 5702TIP3   OH238664   1.555   5.002   7.190
 5702TIP3    H138665   1.519   4.913   7.183
 5702TIP3    H238666   1.512   5.051   7.120
 5703TIP3   OH238667   6.828   5.059   1.186
 5703TIP3    H138668   6.873   4.996   1.242
 5703TIP3    H238669   6.853   5.144   1.221
 5704TIP3   OH238670   1.723   4.203   8.108
 5704TIP3    H138671   1.775   4.253   8.045
 5704TIP3    H238672   1.771   4.122   8.120
 5705TIP3   OH238673   3.673   4.690   7.306
 5705TIP3    H138674   3.655   4.684   7.400
 5705TIP3    H238675   3.747   4.750   7.299
 5706TIP3   OH238676   6.530   5.431   6.979
 5706TIP3    H138677   6.607   5.417   6.924
 5706TIP3    H238678   6.455   5.418   6.921
 5707TIP3   OH238679   4.055   1.542   1.131
 5707TIP3    H138680   4.109   1.471   1.166
 5707TIP3    H238681   4.002   1.571   1.206
 5708TIP3   OH238682   6.214   6.095   0.691
 5708TIP3    H138683   6.237   6.005   0.714
 5708TIP3    H238684   6.234   6.102   0.597
 5709TIP3   OH238685   1.319   5.270   8.617
 5709TIP3    H138686   1.244   5.214   8.596
 5709TIP3    H238687   1.395   5.222   8.584
 5710TIP3   OH238688   3.052   0.856   6.828
 5710TIP3    H138689   3.023   0.793   6.894
 5710TIP3    H238690   3.130   0.816   6.790
 5711TIP3   OH238691   3.547   3.627   6.771
 5711TIP3    H138692   3.456   3.612   6.742
 5711TIP3    H238693   3.592   3.655   6.691
 5712TIP3   OH238694   2.118   4.570   1.463
 5712TIP3    H138695   2.183   4.579   1.394
 5712TIP3    H238696   2.128   4.649   1.516
 5713TIP3   OH238697   6.602   2.716   0.750
 5713TIP3    H138698   6.666   2.734   0.681
 5713TIP3    H238699   6.641   2.755   0.829
 5714TIP3   OH238700   2.316   5.129   7.467
 5714TIP3    H138701   2.243   5.175   7.510
 5714TIP3    H238702   2.342   5.187   7.396
 5715TIP3   OH238703   5.859   3.588   1.005
 5715TIP3    H138704   5.866   3.667   0.952
 5715TIP3    H238705   5.880   3.617   1.094
 5716TIP3   OH238706   0.260   2.515   0.992
 5716TIP3    H138707   0.212   2.440   1.026
 5716TIP3    H238708   0.203   2.590   1.009
 5717TIP3   OH238709   5.356   3.502   7.625
 5717TIP3    H138710   5.315   3.589   7.626
 5717TIP3    H238711   5.431   3.513   7.566
 5718TIP3   OH238712   2.218   5.956   7.541
 5718TIP3    H138713   2.237   5.989   7.629
 5718TIP3    H238714   2.123   5.954   7.536
 5719TIP3   OH238715   4.590   3.067   7.898
 5719TIP3    H138716   4.590   3.163   7.900
 5719TIP3    H238717   4.683   3.043   7.894
 5720TIP3   OH238718   4.217   2.154   8.540
 5720TIP3    H138719   4.143   2.108   8.581
 5720TIP3    H238720   4.175   2.220   8.485
 5721TIP3   OH238721   0.288   6.847   1.562
 5721TIP3    H138722   0.284   6.790   1.485
 5721TIP3    H238723   0.267   6.790   1.636
 5722TIP3   OH238724   5.807   1.352   1.543
 5722TIP3    H138725   5.749   1.282   1.514
 5722TIP3    H238726   5.768   1.383   1.625
 5723TIP3   OH238727   4.086   6.435   6.507
 5723TIP3    H138728   4.120   6.376   6.574
 5723TIP3    H238729   3.995   6.410   6.495
 5724TIP3   OH238730   3.526   5.421   1.613
 5724TIP3    H138731   3.458   5.361   1.645
 5724TIP3    H238732   3.605   5.396   1.662
 5725TIP3   OH238733   2.905   5.916   1.454
 5725TIP3    H138734   2.979   5.860   1.433
 5725TIP3    H238735   2.943   6.004   1.464
 5726TIP3   OH238736   1.633   0.670   7.408
 5726TIP3    H138737   1.564   0.647   7.345
 5726TIP3    H238738   1.659   0.586   7.447
 5727TIP3   OH238739   5.039   2.174   0.225
 5727TIP3    H138740   4.947   2.163   0.249
 5727TIP3    H238741   5.061   2.097   0.173
 5728TIP3   OH238742   5.597   4.116   0.876
 5728TIP3    H138743   5.660   4.180   0.844
 5728TIP3    H238744   5.593   4.130   0.970
 5729TIP3   OH238745   0.008   2.878   0.222
 5729TIP3    H138746   6.812   2.910   0.267
 5729TIP3    H238747   0.005   2.919   0.136
 5730TIP3   OH238748   1.994   3.231   8.194
 5730TIP3    H138749   1.995   3.223   8.289
 5730TIP3    H238750   1.902   3.245   8.172
 5731TIP3   OH238751   1.951   4.923   0.549
 5731TIP3    H138752   1.871   4.890   0.508
 5731TIP3    H238753   1.925   4.941   0.640
 5732TIP3   OH238754   5.315   2.730   1.582
 5732TIP3    H138755   5.278   2.817   1.598
 5732TIP3    H238756   5.349   2.702   1.667
 5733TIP3   OH238757   6.344   0.172   8.008
 5733TIP3    H138758   6.350   0.231   8.082
 5733TIP3    H238759   6.389   0.217   7.937
 5734TIP3   OH238760   2.802   6.404   8.437
 5734TIP3    H138761   2.795   6.319   8.393
 5734TIP3    H238762   2.874   6.393   8.499
 5735TIP3   OH238763   1.606   1.735   8.201
 5735TIP3    H138764   1.611   1.818   8.153
 5735TIP3    H238765   1.692   1.725   8.240
 5736TIP3   OH238766   2.824   6.854   1.538
 5736TIP3    H138767   2.845   6.805   1.617
 5736TIP3    H238768   2.909   6.872   1.497
 5737TIP3   OH238769   4.892   4.358   1.840
 5737TIP3    H138770   4.855   4.281   1.797
 5737TIP3    H238771   4.966   4.383   1.786
 5738TIP3   OH238772   0.846   1.504   7.865
 5738TIP3    H138773   0.821   1.429   7.811
 5738TIP3    H238774   0.766   1.528   7.912
 5739TIP3   OH238775   6.870   2.853   6.971
 5739TIP3    H138776   0.023   2.767   6.949
 5739TIP3    H238777   0.014   2.868   7.061
 5740TIP3   OH238778   2.381   5.963   1.195
 5740TIP3    H138779   2.320   5.919   1.136
 5740TIP3    H238780   2.329   6.033   1.236
 5741TIP3   OH238781   1.566   6.116   6.414
 5741TIP3    H138782   1.524   6.030   6.405
 5741TIP3    H238783   1.549   6.160   6.331
 5742TIP3   OH238784   0.971   2.943   1.789
 5742TIP3    H138785   1.062   2.920   1.769
 5742TIP3    H238786   0.955   3.023   1.739
 5743TIP3   OH238787   5.159   2.101   6.245
 5743TIP3    H138788   5.161   2.008   6.221
 5743TIP3    H238789   5.068   2.117   6.270
 5744TIP3   OH238790   4.281   5.584   6.700
 5744TIP3    H138791   4.247   5.496   6.687
 5744TIP3    H238792   4.369   5.572   6.734
 5745TIP3   OH238793   1.181   3.463   7.820
 5745TIP3    H138794   1.243   3.413   7.873
 5745TIP3    H238795   1.235   3.508   7.756
 5746TIP3   OH238796   6.055   1.378   0.846
 5746TIP3    H138797   6.015   1.307   0.796
 5746TIP3    H238798   6.001   1.385   0.925
 5747TIP3   OH238799   1.926   3.645   6.270
 5747TIP3    H138800   1.852   3.684   6.223
 5747TIP3    H238801   1.950   3.568   6.217
 5748TIP3   OH238802   6.038   1.068   1.715
 5748TIP3    H138803   6.013   1.128   1.645
 5748TIP3    H238804   5.971   1.081   1.783
 5749TIP3   OH238805   3.725   6.126   1.506
 5749TIP3    H138806   3.811   6.155   1.536
 5749TIP3    H238807   3.729   6.031   1.511
 5750TIP3   OH238808   1.723   0.271   1.022
 5750TIP3    H138809   1.662   0.202   0.997
 5750TIP3    H238810   1.668   0.336   1.066
 5751TIP3   OH238811   0.853   0.188   7.251
 5751TIP3    H138812   0.816   0.114   7.300
 5751TIP3    H238813   0.907   0.234   7.315
 5752TIP3   OH238814   5.511   6.831   1.696
 5752TIP3    H138815   5.516   0.032   1.651
 5752TIP3    H238816   5.576   6.837   1.766
 5753TIP3   OH238817   0.314   2.043   0.975
 5753TIP3    H138818   0.403   2.074   0.991
 5753TIP3    H238819   0.294   2.073   0.886
 5754TIP3   OH238820   5.191   0.133   7.547
 5754TIP3    H138821   5.179   0.125   7.452
 5754TIP3    H238822   5.134   0.205   7.572
 5755TIP3   OH238823   1.018   1.248   0.883
 5755TIP3    H138824   0.992   1.306   0.811
 5755TIP3    H238825   1.113   1.261   0.891
 5756TIP3   OH238826   2.602   1.293   7.893
 5756TIP3    H138827   2.550   1.348   7.835
 5756TIP3    H238828   2.692   1.305   7.864
 5757TIP3   OH238829   5.140   4.207   7.451
 5757TIP3    H138830   5.125   4.293   7.491
 5757TIP3    H238831   5.177   4.228   7.364
 5758TIP3   OH238832   2.081   2.558   0.379
 5758TIP3    H138833   2.085   2.563   0.283
 5758TIP3    H238834   1.994   2.590   0.401
 5759TIP3   OH238835   2.016   4.295   1.053
 5759TIP3    H138836   1.986   4.223   0.999
 5759TIP3    H238837   2.107   4.275   1.073
 5760TIP3   OH238838   2.645   6.380   7.704
 5760TIP3    H138839   2.701   6.452   7.673
 5760TIP3    H238840   2.560   6.397   7.663
 5761TIP3   OH238841   2.743   4.439   7.029
 5761TIP3    H138842   2.676   4.428   6.962
 5761TIP3    H238843   2.721   4.375   7.096
 5762TIP3   OH238844   3.368   5.880   2.167
 5762TIP3    H138845   3.386   5.787   2.152
 5762TIP3    H238846   3.358   5.888   2.262
 5763TIP3   OH238847   6.731   3.695   0.183
 5763TIP3    H138848   6.826   3.698   0.194
 5763TIP3    H238849   6.711   3.772   0.129
 5764TIP3   OH238850   4.839   2.394   1.258
 5764TIP3    H138851   4.777   2.452   1.213
 5764TIP3    H238852   4.922   2.440   1.253
 5765TIP3   OH238853   5.748   2.519   1.485
 5765TIP3    H138854   5.769   2.479   1.569
 5765TIP3    H238855   5.661   2.485   1.463
 5766TIP3   OH238856   1.540   6.752   0.057
 5766TIP3    H138857   1.555   6.777   0.148
 5766TIP3    H238858   1.497   6.828   0.018
 5767TIP3   OH238859   4.438   3.301   1.962
 5767TIP3    H138860   4.346   3.324   1.977
 5767TIP3    H238861   4.472   3.282   2.050
 5768TIP3   OH238862   0.268   3.346   0.713
 5768TIP3    H138863   0.285   3.332   0.806
 5768TIP3    H238864   0.291   3.263   0.671
 5769TIP3   OH238865   5.755   2.160   7.929
 5769TIP3    H138866   5.816   2.103   7.883
 5769TIP3    H238867   5.669   2.122   7.913
 5770TIP3   OH238868   5.191   5.967   1.061
 5770TIP3    H138869   5.244   5.939   1.135
 5770TIP3    H238870   5.102   5.977   1.097
 5771TIP3   OH238871   3.334   3.952   1.458
 5771TIP3    H138872   3.325   4.035   1.504
 5771TIP3    H238873   3.285   3.889   1.511
 5772TIP3   OH238874   4.658   3.494   1.805
 5772TIP3    H138875   4.577   3.544   1.808
 5772TIP3    H238876   4.640   3.423   1.743
 5773TIP3   OH238877   1.852   4.819   8.189
 5773TIP3    H138878   1.927   4.849   8.140
 5773TIP3    H238879   1.865   4.853   8.278
 5774TIP3   OH238880   3.429   1.507   7.048
 5774TIP3    H138881   3.389   1.445   6.987
 5774TIP3    H238882   3.445   1.586   6.996
 5775TIP3   OH238883   2.275   1.285   7.983
 5775TIP3    H138884   2.313   1.200   7.961
 5775TIP3    H238885   2.195   1.290   7.929
 5776TIP3   OH238886   3.650   2.308   7.542
 5776TIP3    H138887   3.575   2.346   7.588
 5776TIP3    H238888   3.636   2.329   7.450
 5777TIP3   OH238889   4.621   1.950   0.632
 5777TIP3    H138890   4.545   1.900   0.662
 5777TIP3    H238891   4.603   2.040   0.659
 5778TIP3   OH238892   2.788   6.282   6.536
 5778TIP3    H138893   2.768   6.295   6.443
 5778TIP3    H238894   2.744   6.200   6.559
 5779TIP3   OH238895   6.849   6.562   1.895
 5779TIP3    H138896   6.757   6.547   1.915
 5779TIP3    H238897   0.008   6.572   1.980
 5780TIP3   OH238898   6.312   5.625   8.326
 5780TIP3    H138899   6.318   5.578   8.243
 5780TIP3    H238900   6.256   5.701   8.306
 5781TIP3   OH238901   4.645   1.737   6.505
 5781TIP3    H138902   4.669   1.801   6.438
 5781TIP3    H238903   4.592   1.672   6.458
 5782TIP3   OH238904   2.558   4.129   8.212
 5782TIP3    H138905   2.538   4.188   8.285
 5782TIP3    H238906   2.491   4.060   8.218
 5783TIP3   OH238907   2.257   0.546   6.181
 5783TIP3    H138908   2.344   0.530   6.143
 5783TIP3    H238909   2.230   0.629   6.141
 5784TIP3   OH238910   2.454   1.823   0.230
 5784TIP3    H138911   2.545   1.795   0.222
 5784TIP3    H238912   2.458   1.908   0.273
 5785TIP3   OH238913   5.811   4.666   1.051
 5785TIP3    H138914   5.765   4.631   1.127
 5785TIP3    H238915   5.755   4.737   1.020
 5786TIP3   OH238916   5.630   1.442   8.333
 5786TIP3    H138917   5.627   1.520   8.388
 5786TIP3    H238918   5.695   1.386   8.375
 5787TIP3   OH238919   1.949   6.369   0.135
 5787TIP3    H138920   2.018   6.435   0.144
 5787TIP3    H238921   1.994   6.291   0.105
 5788TIP3   OH238922   2.899   3.777   7.350
 5788TIP3    H138923   2.993   3.765   7.345
 5788TIP3    H238924   2.876   3.816   7.265
 5789TIP3   OH238925   3.538   4.401   0.355
 5789TIP3    H138926   3.531   4.323   0.301
 5789TIP3    H238927   3.448   4.422   0.379
 5790TIP3   OH238928   3.087   3.349   0.993
 5790TIP3    H138929   3.064   3.387   0.909
 5790TIP3    H238930   3.085   3.254   0.979
 5791TIP3   OH238931   0.635   0.301   8.572
 5791TIP3    H138932   0.649   0.207   8.561
 5791TIP3    H238933   0.576   0.309   0.015
 5792TIP3   OH238934   4.522   5.415   8.617
 5792TIP3    H138935   4.489   5.502   0.008
 5792TIP3    H238936   4.518   5.366   0.067
 5793TIP3   OH238937   1.080   6.435   1.743
 5793TIP3    H138938   1.134   6.392   1.809
 5793TIP3    H238939   0.990   6.410   1.765
 5794TIP3   OH238940   2.618   6.803   7.495
 5794TIP3    H138941   2.531   6.844   7.501
 5794TIP3    H238942   2.600   6.710   7.481
 5795TIP3   OH238943   2.983   4.759   0.288
 5795TIP3    H138944   2.900   4.715   0.272
 5795TIP3    H238945   3.046   4.709   0.236
 5796TIP3   OH238946   1.746   0.469   8.602
 5796TIP3    H138947   1.720   0.533   8.536
 5796TIP3    H238948   1.837   0.448   8.581
 5797TIP3   OH238949   3.222   1.968   1.169
 5797TIP3    H138950   3.223   2.028   1.095
 5797TIP3    H238951   3.186   2.019   1.241
 5798TIP3   OH238952   5.958   1.413   7.627
 5798TIP3    H138953   5.943   1.501   7.593
 5798TIP3    H238954   5.876   1.366   7.611
 5799TIP3   OH238955   6.642   3.384   8.280
 5799TIP3    H138956   6.631   3.475   8.307
 5799TIP3    H238957   6.641   3.387   8.184
 5800TIP3   OH238958   2.950   4.878   2.681
 5800TIP3    H138959   3.046   4.882   2.674
 5800TIP3    H238960   2.919   4.889   2.591
 5801TIP3   OH238961   4.874   4.493   1.012
 5801TIP3    H138962   4.934   4.500   0.937
 5801TIP3    H238963   4.869   4.400   1.030
 5802TIP3   OH238964   2.045   3.506   2.216
 5802TIP3    H138965   2.031   3.429   2.271
 5802TIP3    H238966   1.961   3.551   2.217
 5803TIP3   OH238967   4.998   2.394   6.979
 5803TIP3    H138968   4.984   2.300   6.985
 5803TIP3    H238969   5.032   2.408   6.891
 5804TIP3   OH238970   1.721   3.310   0.652
 5804TIP3    H138971   1.654   3.374   0.674
 5804TIP3    H238972   1.804   3.353   0.672
 5805TIP3   OH238973   2.011   3.723   8.131
 5805TIP3    H138974   1.925   3.722   8.089
 5805TIP3    H238975   2.002   3.784   8.204
 5806TIP3   OH238976   3.316   0.434   6.131
 5806TIP3    H138977   3.399   0.480   6.145
 5806TIP3    H238978   3.249   0.497   6.158
 5807TIP3   OH238979   3.685   3.414   1.080
 5807TIP3    H138980   3.609   3.379   1.125
 5807TIP3    H238981   3.653   3.435   0.992
 5808TIP3   OH238982   6.661   5.563   6.651
 5808TIP3    H138983   6.595   5.628   6.675
 5808TIP3    H238984   6.670   5.509   6.730
 5809TIP3   OH238985   3.346   5.259   0.856
 5809TIP3    H138986   3.309   5.174   0.881
 5809TIP3    H238987   3.288   5.324   0.896
 5810TIP3   OH238988   1.886   4.018   6.243
 5810TIP3    H138989   1.939   3.984   6.315
 5810TIP3    H238990   1.923   4.105   6.225
 5811TIP3   OH238991   5.861   1.839   8.374
 5811TIP3    H138992   5.936   1.898   8.374
 5811TIP3    H238993   5.882   1.773   8.308
 5812TIP3   OH238994   3.491   1.195   8.577
 5812TIP3    H138995   3.415   1.227   8.626
 5812TIP3    H238996   3.565   1.210   0.005
 5813TIP3   OH238997   5.923   6.861   0.971
 5813TIP3    H138998   5.857   6.832   0.907
 5813TIP3    H238999   5.889   0.062   1.002
 5814TIP3   OH239000   0.384   3.505   1.554
 5814TIP3    H139001   0.335   3.543   1.627
 5814TIP3    H239002   0.317   3.468   1.496
 5815TIP3   OH239003   0.826   1.294   0.100
 5815TIP3    H139004   0.889   1.360   0.128
 5815TIP3    H239005   0.798   1.252   0.181
 5816TIP3   OH239006   2.751   1.796   0.215
 5816TIP3    H139007   2.762   1.827   0.305
 5816TIP3    H239008   2.757   1.875   0.161
 5817TIP3   OH239009   6.827   6.681   1.159
 5817TIP3    H139010   6.798   6.672   1.250
 5817TIP3    H239011   6.837   6.591   1.127
 5818TIP3   OH239012   4.182   1.331   6.607
 5818TIP3    H139013   4.121   1.273   6.560
 5818TIP3    H239014   4.264   1.283   6.609
 5819TIP3   OH239015   1.572   4.717   6.718
 5819TIP3    H139016   1.611   4.643   6.670
 5819TIP3    H239017   1.616   4.716   6.803
 5820TIP3   OH239018   2.955   6.367   0.060
 5820TIP3    H139019   2.999   6.359   0.145
 5820TIP3    H239020   2.862   6.355   0.079
 5821TIP3   OH239021   1.773   5.372   7.069
 5821TIP3    H139022   1.699   5.319   7.042
 5821TIP3    H239023   1.743   5.462   7.060
 5822TIP3   OH239024   0.231   1.308   6.931
 5822TIP3    H139025   0.304   1.364   6.959
 5822TIP3    H239026   0.167   1.370   6.895
 5823TIP3   OH239027   2.827   4.516   0.133
 5823TIP3    H139028   2.909   4.472   0.112
 5823TIP3    H239029   2.777   4.452   0.182
 5824TIP3   OH239030   6.137   0.497   8.578
 5824TIP3    H139031   6.048   0.518   8.605
 5824TIP3    H239032   6.125   0.441   8.500
 5825TIP3   OH239033   6.664   4.186   1.935
 5825TIP3    H139034   6.672   4.099   1.895
 5825TIP3    H239035   6.614   4.170   2.015
 5826TIP3   OH239036   1.738   6.013   1.384
 5826TIP3    H139037   1.688   5.941   1.424
 5826TIP3    H239038   1.671   6.075   1.355
 5827TIP3   OH239039   4.684   4.433   8.121
 5827TIP3    H139040   4.777   4.437   8.099
 5827TIP3    H239041   4.645   4.382   8.051
 5828TIP3   OH239042   4.681   4.667   1.560
 5828TIP3    H139043   4.736   4.664   1.639
 5828TIP3    H239044   4.595   4.693   1.592
 5829TIP3   OH239045   6.697   3.806   7.248
 5829TIP3    H139046   6.754   3.826   7.174
 5829TIP3    H239047   6.686   3.711   7.245
 5830TIP3   OH239048   0.138   5.988   1.959
 5830TIP3    H139049   0.155   5.903   1.919
 5830TIP3    H239050   0.130   5.970   2.052
 5831TIP3   OH239051   6.477   4.251   1.240
 5831TIP3    H139052   6.445   4.340   1.256
 5831TIP3    H239053   6.402   4.206   1.202
 5832TIP3   OH239054   5.658   4.077   7.607
 5832TIP3    H139055   5.574   4.058   7.566
 5832TIP3    H239056   5.720   4.077   7.534
 5833TIP3   OH239057   5.988   3.666   8.121
 5833TIP3    H139058   5.995   3.762   8.115
 5833TIP3    H239059   6.046   3.634   8.052
 5834TIP3   OH239060   2.974   5.252   2.027
 5834TIP3    H139061   3.019   5.201   2.094
 5834TIP3    H239062   3.004   5.342   2.041
 5835TIP3   OH239063   1.545   5.815   0.218
 5835TIP3    H139064   1.609   5.840   0.151
 5835TIP3    H239065   1.597   5.789   0.293
 5836TIP3   OH239066   5.988   4.780   6.126
 5836TIP3    H139067   5.912   4.839   6.129
 5836TIP3    H239068   5.949   4.692   6.119
 5837TIP3   OH239069   2.974   5.945   7.820
 5837TIP3    H139070   2.915   5.877   7.786
 5837TIP3    H239071   2.950   6.023   7.770
 5838TIP3   OH239072   3.347   5.363   0.492
 5838TIP3    H139073   3.302   5.428   0.546
 5838TIP3    H239074   3.427   5.342   0.541
 5839TIP3   OH239075   2.344   2.161   1.608
 5839TIP3    H139076   2.274   2.173   1.543
 5839TIP3    H239077   2.302   2.178   1.692
 5840TIP3   OH239078   6.516   6.028   0.458
 5840TIP3    H139079   6.537   5.963   0.391
 5840TIP3    H239080   6.420   6.032   0.458
 5841TIP3   OH239081   0.839   0.072   8.578
 5841TIP3    H139082   0.799   0.099   0.029
 5841TIP3    H239083   0.921   0.030   8.604
 5842TIP3   OH239084   6.364   2.494   7.375
 5842TIP3    H139085   6.272   2.512   7.356
 5842TIP3    H239086   6.411   2.522   7.296
 5843TIP3   OH239087   4.041   1.164   1.276
 5843TIP3    H139088   3.965   1.203   1.234
 5843TIP3    H239089   4.087   1.238   1.316
 5844TIP3   OH239090   0.140   5.475   0.115
 5844TIP3    H139091   0.142   5.521   0.032
 5844TIP3    H239092   0.231   5.451   0.132
 5845TIP3   OH239093   4.355   4.480   8.320
 5845TIP3    H139094   4.399   4.402   8.353
 5845TIP3    H239095   4.426   4.543   8.306
 5846TIP3   OH239096   0.495   0.695   7.148
 5846TIP3    H139097   0.499   0.788   7.124
 5846TIP3    H239098   0.581   0.661   7.122
 5847TIP3   OH239099   0.620   1.889   1.036
 5847TIP3    H139100   0.621   1.932   1.122
 5847TIP3    H239101   0.551   1.823   1.044
 5848TIP3   OH239102   3.848   0.407   6.595
 5848TIP3    H139103   3.827   0.420   6.502
 5848TIP3    H239104   3.880   0.317   6.600
 5849TIP3   OH239105   5.762   3.531   8.030
 5849TIP3    H139106   5.816   3.475   7.975
 5849TIP3    H239107   5.825   3.588   8.075
 5850TIP3   OH239108   5.061   4.340   0.841
 5850TIP3    H139109   5.132   4.319   0.901
 5850TIP3    H239110   5.095   4.317   0.755
 5851TIP3   OH239111   0.088   5.553   2.030
 5851TIP3    H139112   0.033   5.498   2.086
 5851TIP3    H239113   0.055   5.642   2.045
 5852TIP3   OH239114   5.190   1.210   7.809
 5852TIP3    H139115   5.148   1.180   7.889
 5852TIP3    H239116   5.281   1.227   7.834
 5853TIP3   OH239117   3.237   1.012   0.560
 5853TIP3    H139118   3.230   1.107   0.555
 5853TIP3    H239119   3.185   0.980   0.485
 5854TIP3   OH239120   2.348   5.413   8.432
 5854TIP3    H139121   2.322   5.371   8.513
 5854TIP3    H239122   2.352   5.342   8.368
 5855TIP3   OH239123   1.735   6.417   0.314
 5855TIP3    H139124   1.655   6.393   0.267
 5855TIP3    H239125   1.806   6.396   0.254
 5856TIP3   OH239126   1.287   5.797   6.209
 5856TIP3    H139127   1.224   5.840   6.151
 5856TIP3    H239128   1.247   5.804   6.296
 5857TIP3   OH239129   3.454   0.601   0.394
 5857TIP3    H139130   3.511   0.649   0.455
 5857TIP3    H239131   3.367   0.608   0.432
 5858TIP3   OH239132   2.233   5.962   2.084
 5858TIP3    H139133   2.262   5.987   1.996
 5858TIP3    H239134   2.172   6.031   2.110
 5859TIP3   OH239135   0.531   4.581   7.384
 5859TIP3    H139136   0.509   4.674   7.399
 5859TIP3    H239137   0.448   4.535   7.400
 5860TIP3   OH239138   4.957   4.921   0.640
 5860TIP3    H139139   4.951   4.907   0.546
 5860TIP3    H239140   4.959   4.833   0.678
 5861TIP3   OH239141   2.506   4.548   1.277
 5861TIP3    H139142   2.549   4.575   1.195
 5861TIP3    H239143   2.572   4.496   1.322
 5862TIP3   OH239144   0.979   1.389   7.423
 5862TIP3    H139145   1.072   1.411   7.416
 5862TIP3    H239146   0.977   1.293   7.418
 5863TIP3   OH239147   1.249   1.320   6.848
 5863TIP3    H139148   1.327   1.372   6.829
 5863TIP3    H239149   1.221   1.285   6.764
 5864TIP3   OH239150   3.451   3.447   7.453
 5864TIP3    H139151   3.470   3.540   7.467
 5864TIP3    H239152   3.361   3.436   7.484
 5865TIP3   OH239153   1.760   0.482   6.767
 5865TIP3    H139154   1.714   0.402   6.744
 5865TIP3    H239155   1.792   0.467   6.856
 5866TIP3   OH239156   4.046   4.497   0.534
 5866TIP3    H139157   4.069   4.589   0.541
 5866TIP3    H239158   4.129   4.453   0.516
 5867TIP3   OH239159   3.646   4.118   6.451
 5867TIP3    H139160   3.678   4.072   6.529
 5867TIP3    H239161   3.724   4.134   6.398
 5868TIP3   OH239162   4.220   3.590   7.075
 5868TIP3    H139163   4.313   3.604   7.056
 5868TIP3    H239164   4.191   3.529   7.008
 5869TIP3   OH239165   4.301   0.030   7.909
 5869TIP3    H139166   4.253   6.843   7.865
 5869TIP3    H239167   4.391   6.880   7.914
 5870TIP3   OH239168   2.752   4.389   6.660
 5870TIP3    H139169   2.673   4.367   6.710
 5870TIP3    H239170   2.772   4.310   6.611
 5871TIP3   OH239171   2.202   6.478   1.093
 5871TIP3    H139172   2.189   6.444   1.004
 5871TIP3    H239173   2.261   6.552   1.082
 5872TIP3   OH239174   5.070   3.219   7.846
 5872TIP3    H139175   5.125   3.282   7.893
 5872TIP3    H239176   5.000   3.273   7.807
 5873TIP3   OH239177   6.618   1.136   8.284
 5873TIP3    H139178   6.560   1.168   8.354
 5873TIP3    H239179   6.702   1.179   8.302
 5874TIP3   OH239180   4.077   5.079   1.190
 5874TIP3    H139181   4.116   5.085   1.102
 5874TIP3    H239182   4.145   5.114   1.248
 5875TIP3   OH239183   5.541   2.529   1.909
 5875TIP3    H139184   5.584   2.534   1.994
 5875TIP3    H239185   5.466   2.588   1.916
 5876TIP3   OH239186   2.619   1.915   1.336
 5876TIP3    H139187   2.572   1.953   1.262
 5876TIP3    H239188   2.550   1.889   1.398
 5877TIP3   OH239189   0.672   2.898   1.528
 5877TIP3    H139190   0.628   2.915   1.445
 5877TIP3    H239191   0.607   2.924   1.594
 5878TIP3   OH239192   3.112   2.637   7.507
 5878TIP3    H139193   3.030   2.636   7.457
 5878TIP3    H239194   3.177   2.671   7.446
 5879TIP3   OH239195   3.286   0.814   1.682
 5879TIP3    H139196   3.298   0.724   1.653
 5879TIP3    H239197   3.260   0.861   1.602
 5880TIP3   OH239198   3.035   6.712   7.988
 5880TIP3    H139199   3.027   6.617   7.988
 5880TIP3    H239200   3.125   6.729   8.015
 5881TIP3   OH239201   2.242   5.473   2.162
 5881TIP3    H139202   2.271   5.437   2.078
 5881TIP3    H239203   2.289   5.556   2.169
 5882TIP3   OH239204   3.077   0.583   1.833
 5882TIP3    H139205   3.098   0.621   1.919
 5882TIP3    H239206   3.152   0.527   1.813
 5883TIP3   OH239207   3.190   0.445   7.878
 5883TIP3    H139208   3.228   0.386   7.943
 5883TIP3    H239209   3.195   0.532   7.918
 5884TIP3   OH239210   0.032   6.459   7.722
 5884TIP3    H139211   0.100   6.435   7.659
 5884TIP3    H239212   6.837   6.412   7.692
 5885TIP3   OH239213   1.710   2.350   0.567
 5885TIP3    H139214   1.684   2.346   0.475
 5885TIP3    H239215   1.640   2.402   0.608
 5886TIP3   OH239216   5.398   6.506   1.102
 5886TIP3    H139217   5.469   6.553   1.146
 5886TIP3    H239218   5.434   6.480   1.018
 5887TIP3   OH239219   1.154   5.772   8.503
 5887TIP3    H139220   1.180   5.839   8.441
 5887TIP3    H239221   1.237   5.734   8.534
 5888TIP3   OH239222   2.634   5.594   0.423
 5888TIP3    H139223   2.675   5.664   0.474
 5888TIP3    H239224   2.623   5.522   0.485
 5889TIP3   OH239225   6.294   1.483   0.998
 5889TIP3    H139226   6.237   1.446   0.930
 5889TIP3    H239227   6.332   1.561   0.958
 5890TIP3   OH239228   2.786   0.663   0.218
 5890TIP3    H139229   2.753   0.726   0.153
 5890TIP3    H239230   2.868   0.631   0.181
 5891TIP3   OH239231   5.187   4.599   7.304
 5891TIP3    H139232   5.236   4.678   7.281
 5891TIP3    H239233   5.122   4.591   7.234
 5892TIP3   OH239234   2.009   6.567   8.472
 5892TIP3    H139235   1.925   6.610   8.482
 5892TIP3    H239236   2.037   6.589   8.384
 5893TIP3   OH239237   6.774   0.714   6.621
 5893TIP3    H139238   6.857   0.762   6.633
 5893TIP3    H239239   6.771   0.695   6.527
 5894TIP3   OH239240   6.350   3.960   1.762
 5894TIP3    H139241   6.333   3.923   1.849
 5894TIP3    H239242   6.271   3.940   1.712
 5895TIP3   OH239243   4.676   1.172   7.551
 5895TIP3    H139244   4.607   1.238   7.556
 5895TIP3    H239245   4.731   1.199   7.478
 5896TIP3   OH239246   1.197   5.700   1.143
 5896TIP3    H139247   1.157   5.755   1.212
 5896TIP3    H239248   1.167   5.612   1.163
 5897TIP3   OH239249   4.434   3.756   1.056
 5897TIP3    H139250   4.511   3.726   1.105
 5897TIP3    H239251   4.471   3.805   0.983
 5898TIP3   OH239252   1.448   5.453   1.359
 5898TIP3    H139253   1.471   5.385   1.296
 5898TIP3    H239254   1.470   5.535   1.315
 5899TIP3   OH239255   0.769   1.350   7.247
 5899TIP3    H139256   0.685   1.383   7.278
 5899TIP3    H239257   0.832   1.383   7.311
 5900TIP3   OH239258   2.301   6.274   1.276
 5900TIP3    H139259   2.267   6.327   1.203
 5900TIP3    H239260   2.342   6.337   1.334
 5901TIP3   OH239261   2.226   4.099   1.355
 5901TIP3    H139262   2.131   4.108   1.359
 5901TIP3    H239263   2.256   4.181   1.317
 5902TIP3   OH239264   5.664   0.044   7.725
 5902TIP3    H139265   5.589   0.043   7.665
 5902TIP3    H239266   5.654   6.847   7.778
 5903TIP3   OH239267   2.091   6.713   1.286
 5903TIP3    H139268   2.170   6.722   1.233
 5903TIP3    H239269   2.019   6.728   1.225
 5904TIP3   OH239270   4.052   2.572   0.438
 5904TIP3    H139271   4.045   2.531   0.525
 5904TIP3    H239272   4.099   2.507   0.385
 5905TIP3   OH239273   5.769   1.736   2.265
 5905TIP3    H139274   5.846   1.720   2.320
 5905TIP3    H239275   5.744   1.826   2.283
 5906TIP3   OH239276   1.668   3.111   0.470
 5906TIP3    H139277   1.609   3.054   0.519
 5906TIP3    H239278   1.682   3.186   0.528
 5907TIP3   OH239279   2.625   2.719   6.882
 5907TIP3    H139280   2.711   2.700   6.846
 5907TIP3    H239281   2.641   2.781   6.953
 5908TIP3   OH239282   2.781   2.859   1.431
 5908TIP3    H139283   2.774   2.952   1.410
 5908TIP3    H239284   2.711   2.817   1.381
 5909TIP3   OH239285   4.108   2.746   8.056
 5909TIP3    H139286   4.013   2.748   8.065
 5909TIP3    H239287   4.128   2.659   8.023
 5910TIP3   OH239288   4.568   0.499   2.647
 5910TIP3    H139289   4.486   0.508   2.597
 5910TIP3    H239290   4.614   0.427   2.605
 5911TIP3   OH239291   3.608   6.167   0.837
 5911TIP3    H139292   3.585   6.140   0.926
 5911TIP3    H239293   3.532   6.142   0.784
 5912TIP3   OH239294   6.506   6.011   6.837
 5912TIP3    H139295   6.562   6.082   6.806
 5912TIP3    H239296   6.425   6.054   6.865
 5913TIP3   OH239297   0.587   1.903   7.841
 5913TIP3    H139298   0.533   1.977   7.813
 5913TIP3    H239299   0.544   1.871   7.920
 5914TIP3   OH239300   0.626   4.574   2.297
 5914TIP3    H139301   0.643   4.555   2.390
 5914TIP3    H239302   0.591   4.664   2.297
 5915TIP3   OH239303   2.591   6.078   1.870
 5915TIP3    H139304   2.624   6.117   1.951
 5915TIP3    H239305   2.668   6.036   1.831
 5916TIP3   OH239306   5.971   3.887   8.427
 5916TIP3    H139307   5.935   3.868   8.341
 5916TIP3    H239308   6.066   3.884   8.415
 5917TIP3   OH239309   5.135   3.956   1.970
 5917TIP3    H139310   5.112   3.975   2.061
 5917TIP3    H239311   5.058   3.980   1.919
 5918TIP3   OH239312   6.857   1.667   1.160
 5918TIP3    H139313   0.064   1.684   1.189
 5918TIP3    H239314   6.843   1.728   1.088
 5919TIP3   OH239315   0.196   3.080   7.157
 5919TIP3    H139316   0.275   3.128   7.129
 5919TIP3    H239317   0.126   3.117   7.104
 5920TIP3   OH239318   2.672   1.101   2.566
 5920TIP3    H139319   2.589   1.142   2.542
 5920TIP3    H239320   2.709   1.072   2.482
 5921TIP3   OH239321   3.678   0.025   0.240
 5921TIP3    H139322   3.594   6.880   0.276
 5921TIP3    H239323   3.705   0.097   0.297
 5922TIP3   OH239324   1.753   3.126   1.440
 5922TIP3    H139325   1.779   3.098   1.352
 5922TIP3    H239326   1.781   3.218   1.445
 5923TIP3   OH239327   5.573   4.357   2.330
 5923TIP3    H139328   5.615   4.441   2.347
 5923TIP3    H239329   5.483   4.379   2.307
 5924TIP3   OH239330   1.369   1.751   8.340
 5924TIP3    H139331   1.305   1.800   8.289
 5924TIP3    H239332   1.443   1.739   8.280
 5925TIP3   OH239333   3.842   4.382   2.098
 5925TIP3    H139334   3.885   4.297   2.086
 5925TIP3    H239335   3.886   4.420   2.174
 5926TIP3   OH239336   0.157   5.724   1.777
 5926TIP3    H139337   0.074   5.676   1.785
 5926TIP3    H239338   0.214   5.664   1.729
 5927TIP3   OH239339   2.591   4.981   0.995
 5927TIP3    H139340   2.544   5.035   1.059
 5927TIP3    H239341   2.589   4.893   1.033
 5928TIP3   OH239342   3.147   4.045   1.777
 5928TIP3    H139343   3.233   4.016   1.749
 5928TIP3    H239344   3.112   3.972   1.828
 5929TIP3   OH239345   0.186   0.841   7.420
 5929TIP3    H139346   0.162   0.915   7.476
 5929TIP3    H239347   0.267   0.807   7.457
 5930TIP3   OH239348   1.426   3.816   6.155
 5930TIP3    H139349   1.474   3.890   6.194
 5930TIP3    H239350   1.344   3.814   6.204
 5931TIP3   OH239351   5.732   2.017   0.542
 5931TIP3    H139352   5.674   2.042   0.471
 5931TIP3    H239353   5.685   1.948   0.589
 5932TIP3   OH239354   2.668   5.557   8.136
 5932TIP3    H139355   2.607   5.500   8.091
 5932TIP3    H239356   2.689   5.625   8.072
 5933TIP3   OH239357   6.222   0.867   7.630
 5933TIP3    H139358   6.157   0.844   7.564
 5933TIP3    H239359   6.188   0.947   7.670
 5934TIP3   OH239360   3.785   5.822   7.192
 5934TIP3    H139361   3.801   5.774   7.110
 5934TIP3    H239362   3.690   5.836   7.194
 5935TIP3   OH239363   4.665   2.569   1.538
 5935TIP3    H139364   4.760   2.560   1.545
 5935TIP3    H239365   4.633   2.479   1.532
 5936TIP3   OH239366   2.078   0.695   6.632
 5936TIP3    H139367   2.134   0.751   6.686
 5936TIP3    H239368   2.105   0.715   6.542
 5937TIP3   OH239369   2.195   5.083   1.491
 5937TIP3    H139370   2.104   5.105   1.470
 5937TIP3    H239371   2.221   5.148   1.556
 5938TIP3   OH239372   1.014   3.621   6.938
 5938TIP3    H139373   0.983   3.570   7.013
 5938TIP3    H239374   1.061   3.695   6.978
 5939TIP3   OH239375   4.211   3.110   1.878
 5939TIP3    H139376   4.155   3.179   1.914
 5939TIP3    H239377   4.194   3.112   1.783
 5940TIP3   OH239378   3.185   1.702   6.909
 5940TIP3    H139379   3.164   1.757   6.833
 5940TIP3    H239380   3.240   1.633   6.874
 5941TIP3   OH239381   3.167   2.975   2.242
 5941TIP3    H139382   3.083   2.983   2.198
 5941TIP3    H239383   3.196   2.886   2.224
 5942TIP3   OH239384   5.459   5.799   1.094
 5942TIP3    H139385   5.451   5.725   1.154
 5942TIP3    H239386   5.473   5.875   1.151
 5943TIP3   OH239387   1.543   6.812   1.169
 5943TIP3    H139388   1.459   6.819   1.215
 5943TIP3    H239389   1.533   6.870   1.093
 5944TIP3   OH239390   3.889   0.171   1.731
 5944TIP3    H139391   3.828   0.108   1.769
 5944TIP3    H239392   3.836   0.218   1.666
 5945TIP3   OH239393   1.294   2.740   0.090
 5945TIP3    H139394   1.350   2.795   0.145
 5945TIP3    H239395   1.241   2.689   0.151
 5946TIP3   OH239396   4.003   1.168   6.494
 5946TIP3    H139397   3.918   1.213   6.487
 5946TIP3    H239398   3.982   1.076   6.479
 5947TIP3   OH239399   0.595   6.748   7.684
 5947TIP3    H139400   0.515   6.767   7.635
 5947TIP3    H239401   0.646   6.829   7.678
 5948TIP3   OH239402   3.541   4.373   6.767
 5948TIP3    H139403   3.534   4.278   6.767
 5948TIP3    H239404   3.612   4.392   6.705
 5949TIP3   OH239405   2.320   0.788   7.596
 5949TIP3    H139406   2.291   0.709   7.552
 5949TIP3    H239407   2.414   0.793   7.578
 5950TIP3   OH239408   4.496   4.860   1.232
 5950TIP3    H139409   4.490   4.898   1.320
 5950TIP3    H239410   4.522   4.769   1.247
 5951TIP3   OH239411   5.957   3.663   0.610
 5951TIP3    H139412   5.937   3.668   0.703
 5951TIP3    H239413   5.871   3.668   0.567
 5952TIP3   OH239414   6.162   3.059   7.947
 5952TIP3    H139415   6.188   3.023   7.862
 5952TIP3    H239416   6.238   3.109   7.976
 5953TIP3   OH239417   1.847   6.119   7.336
 5953TIP3    H139418   1.886   6.084   7.256
 5953TIP3    H239419   1.835   6.212   7.318
 5954TIP3   OH239420   4.164   0.945   1.110
 5954TIP3    H139421   4.117   1.029   1.118
 5954TIP3    H239422   4.236   0.964   1.050
 5955TIP3   OH239423   0.886   4.523   0.003
 5955TIP3    H139424   0.858   4.615   0.002
 5955TIP3    H239425   0.805   4.474   0.018
 5956TIP3   OH239426   2.241   2.811   8.566
 5956TIP3    H139427   2.158   2.791   8.523
 5956TIP3    H239428   2.217   2.858   0.014
 5957TIP3   OH239429   4.125   4.281   8.383
 5957TIP3    H139430   4.206   4.311   8.341
 5957TIP3    H239431   4.127   4.319   8.470
 5958TIP3   OH239432   4.942   2.531   0.190
 5958TIP3    H139433   4.976   2.612   0.151
 5958TIP3    H239434   4.995   2.518   0.268
 5959TIP3   OH239435   0.334   2.262   1.437
 5959TIP3    H139436   0.255   2.273   1.384
 5959TIP3    H239437   0.342   2.167   1.448
 5960TIP3   OH239438   5.561   3.773   7.368
 5960TIP3    H139439   5.621   3.814   7.306
 5960TIP3    H239440   5.495   3.841   7.385
 5961TIP3   OH239441   2.952   5.289   1.060
 5961TIP3    H139442   2.891   5.303   0.988
 5961TIP3    H239443   3.039   5.306   1.023
 5962TIP3   OH239444   6.512   2.138   7.497
 5962TIP3    H139445   6.559   2.221   7.492
 5962TIP3    H239446   6.552   2.083   7.430
 5963TIP3   OH239447   4.079   4.209   1.650
 5963TIP3    H139448   4.057   4.141   1.713
 5963TIP3    H239449   4.038   4.289   1.686
 5964TIP3   OH239450   2.353   0.587   0.254
 5964TIP3    H139451   2.443   0.618   0.253
 5964TIP3    H239452   2.314   0.622   0.175
 5965TIP3   OH239453   6.596   1.694   6.866
 5965TIP3    H139454   6.596   1.598   6.872
 5965TIP3    H239455   6.684   1.716   6.835
 5966TIP3   OH239456   3.773   6.408   7.549
 5966TIP3    H139457   3.797   6.466   7.477
 5966TIP3    H239458   3.857   6.375   7.583
 5967TIP3   OH239459   1.388   4.640   6.494
 5967TIP3    H139460   1.403   4.699   6.568
 5967TIP3    H239461   1.304   4.668   6.458
 5968TIP3   OH239462   5.346   0.574   0.377
 5968TIP3    H139463   5.268   0.531   0.341
 5968TIP3    H239464   5.411   0.566   0.307
 5969TIP3   OH239465   0.588   4.879   7.686
 5969TIP3    H139466   0.521   4.940   7.718
 5969TIP3    H239467   0.664   4.894   7.742
 5970TIP3   OH239468   3.506   5.877   7.301
 5970TIP3    H139469   3.452   5.826   7.362
 5970TIP3    H239470   3.565   5.926   7.358
 5971TIP3   OH239471   1.916   1.115   0.032
 5971TIP3    H139472   1.840   1.072   8.624
 5971TIP3    H239473   1.923   1.199   8.618
 5972TIP3   OH239474   6.452   0.196   8.606
 5972TIP3    H139475   6.411   0.260   0.033
 5972TIP3    H239476   6.498   0.249   8.541
 5973TIP3   OH239477   5.444   6.857   8.614
 5973TIP3    H139478   5.499   6.790   8.572
 5973TIP3    H239479   5.356   6.840   8.581
 5974TIP3   OH239480   1.785   5.132   1.586
 5974TIP3    H139481   1.730   5.111   1.511
 5974TIP3    H239482   1.726   5.131   1.661
 5975TIP3   OH239483   1.236   5.876   0.686
 5975TIP3    H139484   1.292   5.811   0.645
 5975TIP3    H239485   1.148   5.857   0.651
 5976TIP3   OH239486   1.541   4.219   0.206
 5976TIP3    H139487   1.635   4.230   0.198
 5976TIP3    H239488   1.505   4.255   0.125
 5977TIP3   OH239489   6.585   0.373   1.874
 5977TIP3    H139490   6.505   0.381   1.821
 5977TIP3    H239491   6.607   0.463   1.898
 5978TIP3   OH239492   1.648   4.854   1.937
 5978TIP3    H139493   1.644   4.874   2.030
 5978TIP3    H239494   1.713   4.914   1.902
 5979TIP3   OH239495   2.304   0.349   7.754
 5979TIP3    H139496   2.328   0.426   7.807
 5979TIP3    H239497   2.386   0.301   7.744
 5980TIP3   OH239498   1.046   5.643   7.790
 5980TIP3    H139499   1.068   5.701   7.864
 5980TIP3    H239500   1.127   5.598   7.770
 5981TIP3   OH239501   5.483   6.043   0.495
 5981TIP3    H139502   5.464   6.124   0.446
 5981TIP3    H239503   5.432   6.052   0.576
 5982TIP3   OH239504   2.862   0.157   0.171
 5982TIP3    H139505   2.790   0.103   0.139
 5982TIP3    H239506   2.853   0.154   0.266
 5983TIP3   OH239507   0.349   1.091   8.159
 5983TIP3    H139508   0.267   1.048   8.134
 5983TIP3    H239509   0.364   1.154   8.089
 5984TIP3   OH239510   5.732   3.477   7.192
 5984TIP3    H139511   5.811   3.517   7.157
 5984TIP3    H239512   5.702   3.418   7.122
 5985TIP3   OH239513   2.271   1.661   7.388
 5985TIP3    H139514   2.263   1.619   7.473
 5985TIP3    H239515   2.314   1.744   7.406
 5986TIP3   OH239516   0.099   0.553   1.486
 5986TIP3    H139517   0.103   0.512   1.572
 5986TIP3    H239518   0.022   0.609   1.489
 5987TIP3   OH239519   0.746   0.650   7.057
 5987TIP3    H139520   0.832   0.692   7.058
 5987TIP3    H239521   0.735   0.620   6.967
 5988TIP3   OH239522   0.173   0.907   7.903
 5988TIP3    H139523   0.146   0.929   7.993
 5988TIP3    H239524   0.229   0.830   7.913
 5989TIP3   OH239525   3.513   4.003   7.028
 5989TIP3    H139526   3.566   3.925   7.011
 5989TIP3    H239527   3.558   4.047   7.101
 5990TIP3   OH239528   1.379   6.828   8.208
 5990TIP3    H139529   1.293   6.786   8.202
 5990TIP3    H239530   1.441   6.756   8.200
 5991TIP3   OH239531   5.329   0.837   7.457
 5991TIP3    H139532   5.423   0.827   7.471
 5991TIP3    H239533   5.312   0.796   7.372
 5992TIP3   OH239534   5.386   0.395   1.558
 5992TIP3    H139535   5.403   0.460   1.626
 5992TIP3    H239536   5.391   0.445   1.476
 5993TIP3   OH239537   3.087   6.747   8.427
 5993TIP3    H139538   3.024   6.733   8.498
 5993TIP3    H239539   3.169   6.769   8.471
 5994TIP3   OH239540   0.841   3.320   8.316
 5994TIP3    H139541   0.903   3.277   8.374
 5994TIP3    H239542   0.888   3.328   8.233
 5995TIP3   OH239543   2.218   0.847   7.947
 5995TIP3    H139544   2.164   0.796   7.887
 5995TIP3    H239545   2.248   0.922   7.895
 5996TIP3   OH239546   1.419   2.969   0.964
 5996TIP3    H139547   1.469   3.033   1.015
 5996TIP3    H239548   1.330   2.976   0.999
 5997TIP3   OH239549   3.128   3.264   7.954
 5997TIP3    H139550   3.094   3.183   7.916
 5997TIP3    H239551   3.223   3.254   7.950
 5998TIP3   OH239552   2.732   6.616   8.260
 5998TIP3    H139553   2.720   6.568   8.341
 5998TIP3    H239554   2.712   6.707   8.282
 5999TIP3   OH239555   1.027   1.039   2.430
 5999TIP3    H139556   0.988   1.124   2.450
 5999TIP3    H239557   0.984   1.011   2.349
 6000TIP3   OH239558   6.336   4.488   1.272
 6000TIP3    H139559   6.315   4.564   1.218
 6000TIP3    H239560   6.253   4.463   1.312
 6001TIP3   OH239561   0.509   3.655   1.309
 6001TIP3    H139562   0.468   3.655   1.396
 6001TIP3    H239563   0.493   3.567   1.274
 6002TIP3   OH239564   2.143   4.907   0.141
 6002TIP3    H139565   2.103   4.958   0.211
 6002TIP3    H239566   2.073   4.897   0.076
 6003TIP3   OH239567   2.999   2.456   1.328
 6003TIP3    H139568   2.910   2.467   1.362
 6003TIP3    H239569   3.007   2.524   1.261
 6004TIP3   OH239570   2.890   3.632   0.758
 6004TIP3    H139571   2.955   3.642   0.827
 6004TIP3    H239572   2.807   3.619   0.805
 6005TIP3   OH239573   4.384   0.264   6.047
 6005TIP3    H139574   4.418   0.196   6.106
 6005TIP3    H239575   4.343   0.215   5.976
 6006TIP3   OH239576   3.757   3.978   7.566
 6006TIP3    H139577   3.769   3.884   7.548
 6006TIP3    H239578   3.819   4.021   7.507
 6007TIP3   OH239579   0.069   4.744   1.907
 6007TIP3    H139580   0.143   4.743   1.967
 6007TIP3    H239581   0.109   4.740   1.820
 6008TIP3   OH239582   1.263   1.023   1.051
 6008TIP3    H139583   1.263   0.973   0.969
 6008TIP3    H239584   1.229   0.962   1.117
 6009TIP3   OH239585   3.483   2.654   7.909
 6009TIP3    H139586   3.461   2.742   7.942
 6009TIP3    H239587   3.411   2.632   7.851
 6010TIP3   OH239588   4.750   3.323   0.260
 6010TIP3    H139589   4.770   3.412   0.231
 6010TIP3    H239590   4.742   3.273   0.178
 6011TIP3   OH239591   5.999   5.617   0.407
 6011TIP3    H139592   5.952   5.538   0.433
 6011TIP3    H239593   5.972   5.683   0.472
 6012TIP3   OH239594   4.990   0.758   8.576
 6012TIP3    H139595   5.075   0.771   8.618
 6012TIP3    H239596   4.938   0.833   8.603
 6013TIP3   OH239597   5.261   4.081   7.107
 6013TIP3    H139598   5.239   4.170   7.134
 6013TIP3    H239599   5.329   4.092   7.040
 6014TIP3   OH239600   3.787   0.884   1.245
 6014TIP3    H139601   3.856   0.871   1.310
 6014TIP3    H239602   3.705   0.871   1.293
 6015TIP3   OH239603   6.881   3.464   1.621
 6015TIP3    H139604   6.823   3.540   1.614
 6015TIP3    H239605   0.001   3.428   1.533
 6016TIP3   OH239606   5.643   4.742   0.793
 6016TIP3    H139607   5.622   4.779   0.879
 6016TIP3    H239608   5.709   4.800   0.757
 6017TIP3   OH239609   0.580   2.117   7.300
 6017TIP3    H139610   0.522   2.098   7.373
 6017TIP3    H239611   0.647   2.048   7.304
 6018TIP3   OH239612   1.161   6.261   1.941
 6018TIP3    H139613   1.169   6.235   2.033
 6018TIP3    H239614   1.087   6.209   1.908
 6019TIP3   OH239615   0.275   0.616   2.311
 6019TIP3    H139616   0.195   0.577   2.347
 6019TIP3    H239617   0.343   0.551   2.327
 6020TIP3   OH239618   1.455   2.174   0.581
 6020TIP3    H139619   1.402   2.246   0.616
 6020TIP3    H239620   1.487   2.207   0.497
 6021TIP3   OH239621   1.251   1.261   0.053
 6021TIP3    H139622   1.195   1.241   8.609
 6021TIP3    H239623   1.322   1.314   0.016
 6022TIP3   OH239624   5.842   1.764   1.570
 6022TIP3    H139625   5.810   1.818   1.642
 6022TIP3    H239626   5.925   1.729   1.602
 6023TIP3   OH239627   3.237   6.607   7.432
 6023TIP3    H139628   3.240   6.690   7.384
 6023TIP3    H239629   3.279   6.627   7.516
 6024TIP3   OH239630   6.362   0.044   0.603
 6024TIP3    H139631   6.390   0.119   0.654
 6024TIP3    H239632   6.267   0.042   0.613
 6025TIP3   OH239633   2.303   2.294   8.363
 6025TIP3    H139634   2.395   2.303   8.387
 6025TIP3    H239635   2.272   2.221   8.416
 6026TIP3   OH239636   4.189   6.329   0.392
 6026TIP3    H139637   4.137   6.277   0.331
 6026TIP3    H239638   4.204   6.270   0.466
 6027TIP3   OH239639   3.691   4.899   0.296
 6027TIP3    H139640   3.622   4.871   0.356
 6027TIP3    H239641   3.765   4.843   0.318
 6028TIP3   OH239642   0.812   1.807   1.394
 6028TIP3    H139643   0.868   1.737   1.360
 6028TIP3    H239644   0.873   1.875   1.421
 6029TIP3   OH239645   6.755   5.406   0.644
 6029TIP3    H139646   6.771   5.418   0.738
 6029TIP3    H239647   6.785   5.487   0.603
 6030TIP3   OH239648   5.675   1.469   7.959
 6030TIP3    H139649   5.648   1.542   7.904
 6030TIP3    H239650   5.594   1.421   7.977
 6031TIP3   OH239651   0.249   5.601   7.832
 6031TIP3    H139652   0.327   5.656   7.837
 6031TIP3    H239653   0.248   5.570   7.742
 6032TIP3   OH239654   2.441   1.674   1.034
 6032TIP3    H139655   2.498   1.712   0.967
 6032TIP3    H239656   2.446   1.579   1.018
 6033TIP3   OH239657   0.558   3.417   0.613
 6033TIP3    H139658   0.581   3.326   0.632
 6033TIP3    H239659   0.500   3.442   0.685
 6034TIP3   OH239660   4.621   6.289   0.838
 6034TIP3    H139661   4.568   6.254   0.909
 6034TIP3    H239662   4.613   6.384   0.846
 6035TIP3   OH239663   2.669   4.388   1.435
 6035TIP3    H139664   2.700   4.318   1.377
 6035TIP3    H239665   2.704   4.365   1.521
 6036TIP3   OH239666   6.195   1.774   1.164
 6036TIP3    H139667   6.236   1.814   1.241
 6036TIP3    H239668   6.267   1.754   1.105
 6037TIP3   OH239669   0.409   4.439   0.805
 6037TIP3    H139670   0.386   4.347   0.822
 6037TIP3    H239671   0.492   4.452   0.851
 6038TIP3   OH239672   0.378   3.001   2.168
 6038TIP3    H139673   0.376   2.980   2.074
 6038TIP3    H239674   0.469   2.991   2.193
 6039TIP3   OH239675   2.016   2.337   7.919
 6039TIP3    H139676   2.062   2.326   8.002
 6039TIP3    H239677   2.063   2.279   7.858
 6040TIP3   OH239678   1.025   4.081   0.258
 6040TIP3    H139679   1.053   4.040   0.176
 6040TIP3    H239680   0.935   4.109   0.241
 6041TIP3   OH239681   0.785   0.827   6.424
 6041TIP3    H139682   0.753   0.917   6.423
 6041TIP3    H239683   0.707   0.773   6.422
 6042TIP3   OH239684   2.532   5.329   7.990
 6042TIP3    H139685   2.522   5.244   7.947
 6042TIP3    H239686   2.533   5.307   8.084
 6043TIP3   OH239687   2.420   2.328   7.985
 6043TIP3    H139688   2.441   2.235   7.973
 6043TIP3    H239689   2.332   2.327   8.023
 6044TIP3   OH239690   3.486   5.373   6.930
 6044TIP3    H139691   3.485   5.277   6.922
 6044TIP3    H239692   3.579   5.395   6.933
 6045TIP3   OH239693   2.450   1.932   1.535
 6045TIP3    H139694   2.434   1.855   1.589
 6045TIP3    H239695   2.383   1.995   1.563
 6046TIP3   OH239696   2.363   0.107   1.627
 6046TIP3    H139697   2.419   0.061   1.690
 6046TIP3    H239698   2.336   0.187   1.672
 6047TIP3   OH239699   1.084   5.188   2.307
 6047TIP3    H139700   1.105   5.252   2.375
 6047TIP3    H239701   0.989   5.177   2.313
 6048TIP3   OH239702   5.124   6.817   0.155
 6048TIP3    H139703   5.079   6.797   0.237
 6048TIP3    H239704   5.179   0.009   0.175
 6049TIP3   OH239705   4.974   4.228   1.152
 6049TIP3    H139706   5.049   4.222   1.212
 6049TIP3    H239707   4.932   4.142   1.158
 6050TIP3   OH239708   5.551   6.854   0.238
 6050TIP3    H139709   5.489   6.783   0.256
 6050TIP3    H239710   5.542   6.870   0.144
 6051TIP3   OH239711   5.907   6.439   7.833
 6051TIP3    H139712   5.996   6.471   7.821
 6051TIP3    H239713   5.893   6.380   7.759
 6052TIP3   OH239714   3.613   4.695   6.632
 6052TIP3    H139715   3.708   4.688   6.638
 6052TIP3    H239716   3.590   4.643   6.555
 6053TIP3   OH239717   4.827   6.779   1.369
 6053TIP3    H139718   4.875   6.801   1.449
 6053TIP3    H239719   4.894   6.775   1.301
 6054TIP3   OH239720   6.877   1.542   7.215
 6054TIP3    H139721   0.027   1.579   7.133
 6054TIP3    H239722   0.056   1.573   7.282
 6055TIP3   OH239723   0.958   1.158   1.381
 6055TIP3    H139724   1.039   1.109   1.397
 6055TIP3    H239725   0.941   1.146   1.288
 6056TIP3   OH239726   0.660   5.446   0.132
 6056TIP3    H139727   0.726   5.421   0.197
 6056TIP3    H239728   0.669   5.541   0.125
 6057TIP3   OH239729   1.981   1.477   1.963
 6057TIP3    H139730   2.062   1.527   1.955
 6057TIP3    H239731   1.926   1.510   1.892
 6058TIP3   OH239732   1.212   5.979   6.833
 6058TIP3    H139733   1.232   5.978   6.740
 6058TIP3    H239734   1.267   5.909   6.870
 6059TIP3   OH239735   4.024   5.902   7.053
 6059TIP3    H139736   3.938   5.880   7.089
 6059TIP3    H239737   4.031   5.849   6.974
 6060TIP3   OH239738   6.872   4.982   0.739
 6060TIP3    H139739   6.826   4.985   0.655
 6060TIP3    H239740   0.038   4.900   0.736
 6061TIP3   OH239741   3.135   3.543   8.408
 6061TIP3    H139742   3.126   3.614   8.471
 6061TIP3    H239743   3.075   3.566   8.337
 6062TIP3   OH239744   1.378   5.712   0.480
 6062TIP3    H139745   1.354   5.709   0.387
 6062TIP3    H239746   1.430   5.792   0.488
 6063TIP3   OH239747   2.937   4.289   8.187
 6063TIP3    H139748   2.905   4.200   8.171
 6063TIP3    H239749   2.927   4.334   8.103
 6064TIP3   OH239750   2.363   4.669   0.913
 6064TIP3    H139751   2.346   4.740   0.850
 6064TIP3    H239752   2.376   4.591   0.859
 6065TIP3   OH239753   5.905   6.153   0.711
 6065TIP3    H139754   5.999   6.144   0.695
 6065TIP3    H239755   5.865   6.088   0.654
 6066TIP3   OH239756   0.191   4.542   1.578
 6066TIP3    H139757   0.104   4.539   1.537
 6066TIP3    H239758   0.208   4.451   1.604
 6067TIP3   OH239759   3.921   4.421   1.761
 6067TIP3    H139760   3.846   4.365   1.779
 6067TIP3    H239761   3.910   4.496   1.819
 6068TIP3   OH239762   0.349   6.777   0.166
 6068TIP3    H139763   0.318   6.711   0.228
 6068TIP3    H239764   0.290   6.769   0.091
 6069TIP3   OH239765   2.417   0.712   6.536
 6069TIP3    H139766   2.419   0.730   6.630
 6069TIP3    H239767   2.377   0.790   6.497
 6070TIP3   OH239768   5.159   4.999   8.039
 6070TIP3    H139769   5.095   5.066   8.061
 6070TIP3    H239770   5.228   5.046   7.992
 6071TIP3   OH239771   3.890   5.744   0.158
 6071TIP3    H139772   3.832   5.706   0.092
 6071TIP3    H239773   3.950   5.799   0.109
 6072TIP3   OH239774   1.473   6.270   6.200
 6072TIP3    H139775   1.461   6.189   6.151
 6072TIP3    H239776   1.390   6.317   6.190
 6073TIP3   OH239777   3.407   0.063   1.650
 6073TIP3    H139778   3.449   0.140   1.689
 6073TIP3    H239779   3.390   0.006   1.725
 6074TIP3   OH239780   4.766   6.613   8.191
 6074TIP3    H139781   4.824   6.623   8.116
 6074TIP3    H239782   4.713   6.536   8.170
 6075TIP3   OH239783   0.742   2.850   1.167
 6075TIP3    H139784   0.651   2.850   1.137
 6075TIP3    H239785   0.763   2.757   1.179
 6076TIP3   OH239786   4.972   2.183   8.292
 6076TIP3    H139787   4.946   2.133   8.215
 6076TIP3    H239788   4.895   2.183   8.348
 6077TIP3   OH239789   4.292   2.091   1.921
 6077TIP3    H139790   4.361   2.064   1.981
 6077TIP3    H239791   4.251   2.009   1.894
 6078TIP3   OH239792   5.209   2.190   7.675
 6078TIP3    H139793   5.235   2.256   7.740
 6078TIP3    H239794   5.121   2.215   7.648
 6079TIP3   OH239795   0.869   1.299   1.605
 6079TIP3    H139796   0.919   1.265   1.679
 6079TIP3    H239797   0.906   1.254   1.529
 6080TIP3   OH239798   3.012   2.225   0.660
 6080TIP3    H139799   2.992   2.247   0.750
 6080TIP3    H239800   3.107   2.214   0.658
 6081TIP3   OH239801   5.286   1.079   8.458
 6081TIP3    H139802   5.309   1.028   8.380
 6081TIP3    H239803   5.213   1.030   8.497
 6082TIP3   OH239804   6.285   0.444   1.465
 6082TIP3    H139805   6.203   0.417   1.423
 6082TIP3    H239806   6.312   0.521   1.416
 6083TIP3   OH239807   2.361   5.430   7.721
 6083TIP3    H139808   2.432   5.366   7.727
 6083TIP3    H239809   2.406   5.513   7.704
 6084TIP3   OH239810   1.848   5.037   1.918
 6084TIP3    H139811   1.815   5.075   1.837
 6084TIP3    H239812   1.850   5.110   1.980
 6085TIP3   OH239813   4.085   0.081   1.524
 6085TIP3    H139814   4.015   0.073   1.589
 6085TIP3    H239815   4.078   0.171   1.493
 6086TIP3   OH239816   3.822   5.166   7.087
 6086TIP3    H139817   3.829   5.215   7.004
 6086TIP3    H239818   3.768   5.222   7.143
 6087TIP3   OH239819   5.122   2.203   1.404
 6087TIP3    H139820   5.062   2.140   1.363
 6087TIP3    H239821   5.115   2.186   1.498
 6088TIP3   OH239822   3.755   1.388   8.337
 6088TIP3    H139823   3.677   1.338   8.315
 6088TIP3    H239824   3.828   1.336   8.304
 6089TIP3   OH239825   1.287   5.885   0.961
 6089TIP3    H139826   1.241   5.897   0.878
 6089TIP3    H239827   1.228   5.831   1.013
 6090TIP3   OH239828   4.150   5.024   1.607
 6090TIP3    H139829   4.181   4.983   1.526
 6090TIP3    H239830   4.072   4.975   1.630
 6091TIP3   OH239831   6.432   5.136   7.935
 6091TIP3    H139832   6.475   5.178   8.010
 6091TIP3    H239833   6.451   5.194   7.861
 6092TIP3   OH239834   1.892   2.207   0.306
 6092TIP3    H139835   1.950   2.175   0.237
 6092TIP3    H239836   1.881   2.300   0.287
 6093TIP3   OH239837   1.373   3.517   0.738
 6093TIP3    H139838   1.397   3.453   0.805
 6093TIP3    H239839   1.278   3.510   0.730
 6094TIP3   OH239840   4.459   4.773   2.583
 6094TIP3    H139841   4.364   4.767   2.594
 6094TIP3    H239842   4.485   4.688   2.548
 6095TIP3   OH239843   1.304   0.197   1.822
 6095TIP3    H139844   1.287   0.169   1.732
 6095TIP3    H239845   1.252   0.277   1.832
 6096TIP3   OH239846   5.447   5.557   8.552
 6096TIP3    H139847   5.450   5.653   8.553
 6096TIP3    H239848   5.381   5.534   8.617
 6097TIP3   OH239849   5.421   1.862   6.329
 6097TIP3    H139850   5.401   1.955   6.321
 6097TIP3    H239851   5.507   1.852   6.289
 6098TIP3   OH239852   5.131   1.757   6.824
 6098TIP3    H139853   5.201   1.692   6.811
 6098TIP3    H239854   5.054   1.717   6.785
 6099TIP3   OH239855   5.232   3.788   0.348
 6099TIP3    H139856   5.143   3.823   0.355
 6099TIP3    H239857   5.268   3.794   0.437
 6100TIP3   OH239858   0.385   0.881   1.267
 6100TIP3    H139859   0.414   0.790   1.274
 6100TIP3    H239860   0.466   0.932   1.269
 6101TIP3   OH239861   6.852   4.585   1.436
 6101TIP3    H139862   6.771   4.568   1.484
 6101TIP3    H239863   6.834   4.555   1.346
 6102TIP3   OH239864   2.031   6.020   1.299
 6102TIP3    H139865   2.073   5.940   1.268
 6102TIP3    H239866   1.937   6.001   1.294
 6103TIP3   OH239867   1.089   6.645   6.056
 6103TIP3    H139868   1.058   6.588   6.126
 6103TIP3    H239869   1.181   6.661   6.078
 6104TIP3   OH239870   6.371   1.347   0.686
 6104TIP3    H139871   6.405   1.357   0.597
 6104TIP3    H239872   6.278   1.328   0.674
 6105TIP3   OH239873   5.040   0.928   1.460
 6105TIP3    H139874   5.131   0.957   1.453
 6105TIP3    H239875   5.011   0.962   1.545
 6106TIP3   OH239876   2.146   0.993   7.713
 6106TIP3    H139877   2.156   1.088   7.722
 6106TIP3    H239878   2.212   0.968   7.649
 6107TIP3   OH239879   1.392   4.750   1.468
 6107TIP3    H139880   1.472   4.761   1.416
 6107TIP3    H239881   1.422   4.756   1.559
 6108TIP3   OH239882   5.381   0.911   0.989
 6108TIP3    H139883   5.352   1.001   1.005
 6108TIP3    H239884   5.387   0.872   1.076
 6109TIP3   OH239885   3.168   6.115   1.245
 6109TIP3    H139886   3.132   6.163   1.320
 6109TIP3    H239887   3.244   6.166   1.219
 6110TIP3   OH239888   3.514   4.740   8.439
 6110TIP3    H139889   3.498   4.654   8.400
 6110TIP3    H239890   3.544   4.795   8.366
 6111TIP3   OH239891   4.032   6.419   0.667
 6111TIP3    H139892   4.034   6.481   0.594
 6111TIP3    H239893   4.107   6.362   0.652
 6112TIP3   OH239894   3.495   6.795   1.435
 6112TIP3    H139895   3.441   6.851   1.490
 6112TIP3    H239896   3.472   6.706   1.461
 6113TIP3   OH239897   0.502   0.328   0.167
 6113TIP3    H139898   0.441   0.400   0.153
 6113TIP3    H239899   0.449   0.258   0.204
 6114TIP3   OH239900   3.887   0.662   6.870
 6114TIP3    H139901   3.953   0.627   6.809
 6114TIP3    H239902   3.900   0.757   6.868
 6115TIP3   OH239903   2.646   2.345   1.196
 6115TIP3    H139904   2.668   2.405   1.267
 6115TIP3    H239905   2.720   2.350   1.136
 6116TIP3   OH239906   3.580   5.361   0.724
 6116TIP3    H139907   3.521   5.302   0.771
 6116TIP3    H239908   3.578   5.442   0.775
 6117TIP3   OH239909   4.389   6.413   2.008
 6117TIP3    H139910   4.480   6.411   2.038
 6117TIP3    H239911   4.347   6.477   2.065
 6118TIP3   OH239912   1.340   5.905   7.106
 6118TIP3    H139913   1.261   5.850   7.103
 6118TIP3    H239914   1.309   5.988   7.141
 6119TIP3   OH239915   1.918   4.390   8.226
 6119TIP3    H139916   1.849   4.432   8.175
 6119TIP3    H239917   1.997   4.401   8.174
 6120TIP3   OH239918   3.819   1.571   7.903
 6120TIP3    H139919   3.858   1.483   7.905
 6120TIP3    H239920   3.736   1.558   7.857
 6121TIP3   OH239921   3.219   4.036   7.998
 6121TIP3    H139922   3.260   4.044   7.912
 6121TIP3    H239923   3.125   4.035   7.980
 6122TIP3   OH239924   5.723   1.456   1.811
 6122TIP3    H139925   5.719   1.531   1.870
 6122TIP3    H239926   5.688   1.383   1.862
 6123TIP3   OH239927   2.370   4.503   6.925
 6123TIP3    H139928   2.434   4.550   6.978
 6123TIP3    H239929   2.409   4.417   6.910
 6124TIP3   OH239930   3.582   3.354   0.067
 6124TIP3    H139931   3.604   3.342   0.160
 6124TIP3    H239932   3.634   3.430   0.040
 6125TIP3   OH239933   3.788   6.369   0.791
 6125TIP3    H139934   3.818   6.340   0.705
 6125TIP3    H239935   3.701   6.331   0.800
 6126TIP3   OH239936   5.359   2.354   0.602
 6126TIP3    H139937   5.335   2.272   0.560
 6126TIP3    H239938   5.327   2.346   0.691
 6127TIP3   OH239939   2.632   3.762   8.421
 6127TIP3    H139940   2.538   3.761   8.404
 6127TIP3    H239941   2.665   3.681   8.381
 6128TIP3   OH239942   4.433   2.206   2.362
 6128TIP3    H139943   4.522   2.232   2.339
 6128TIP3    H239944   4.396   2.283   2.405
 6129TIP3   OH239945   2.680   6.735   6.535
 6129TIP3    H139946   2.687   6.724   6.440
 6129TIP3    H239947   2.601   6.686   6.559
 6130TIP3   OH239948   5.087   3.370   0.615
 6130TIP3    H139949   5.115   3.407   0.531
 6130TIP3    H239950   5.061   3.281   0.595
 6131TIP3   OH239951   2.151   6.376   1.545
 6131TIP3    H139952   2.103   6.411   1.620
 6131TIP3    H239953   2.206   6.449   1.516
 6132TIP3   OH239954   6.544   5.250   8.167
 6132TIP3    H139955   6.588   5.266   8.251
 6132TIP3    H239956   6.492   5.329   8.152
 6133TIP3   OH239957   1.346   3.079   7.543
 6133TIP3    H139958   1.258   3.048   7.521
 6133TIP3    H239959   1.377   3.122   7.464
 6134TIP3   OH239960   5.758   5.470   8.561
 6134TIP3    H139961   5.668   5.473   8.527
 6134TIP3    H239962   5.764   5.384   8.603
 6135TIP3   OH239963   2.631   2.835   6.429
 6135TIP3    H139964   2.640   2.917   6.381
 6135TIP3    H239965   2.705   2.782   6.400
 6136TIP3   OH239966   6.298   2.809   7.416
 6136TIP3    H139967   6.350   2.729   7.410
 6136TIP3    H239968   6.312   2.841   7.505
 6137TIP3   OH239969   4.247   6.655   0.913
 6137TIP3    H139970   4.319   6.643   0.851
 6137TIP3    H239971   4.276   6.610   0.992
 6138TIP3   OH239972   2.919   2.956   1.052
 6138TIP3    H139973   2.988   2.993   0.998
 6138TIP3    H239974   2.965   2.921   1.128
 6139TIP3   OH239975   5.517   1.481   1.036
 6139TIP3    H139976   5.590   1.536   1.066
 6139TIP3    H239977   5.455   1.542   0.996
 6140TIP3   OH239978   2.803   4.021   1.759
 6140TIP3    H139979   2.754   3.983   1.832
 6140TIP3    H239980   2.887   4.048   1.797
 6141TIP3   OH239981   3.977   5.369   0.175
 6141TIP3    H139982   3.996   5.290   0.225
 6141TIP3    H239983   3.886   5.358   0.147
 6142TIP3   OH239984   4.340   6.288   1.033
 6142TIP3    H139985   4.407   6.231   0.996
 6142TIP3    H239986   4.314   6.245   1.114
 6143TIP3   OH239987   3.366   1.467   0.708
 6143TIP3    H139988   3.364   1.520   0.788
 6143TIP3    H239989   3.397   1.526   0.640
 6144TIP3   OH239990   6.747   5.395   2.117
 6144TIP3    H139991   6.771   5.350   2.197
 6144TIP3    H239992   6.690   5.333   2.071
 6145TIP3   OH239993   2.589   6.743   7.855
 6145TIP3    H139994   2.495   6.755   7.863
 6145TIP3    H239995   2.601   6.696   7.772
 6146TIP3   OH239996   1.436   3.588   0.061
 6146TIP3    H139997   1.513   3.633   0.026
 6146TIP3    H239998   1.466   3.548   0.142
 6147TIP3   OH239999   5.384   3.770   0.589
 6147TIP3    H140000   5.444   3.842   0.569
 6147TIP3    H240001   5.381   3.768   0.685
 6148TIP3   OH240002   0.809   1.967   7.302
 6148TIP3    H140003   0.829   1.918   7.222
 6148TIP3    H240004   0.866   2.044   7.297
 6149TIP3   OH240005   4.341   1.182   1.268
 6149TIP3    H140006   4.337   1.200   1.174
 6149TIP3    H240007   4.276   1.240   1.306
 6150TIP3   OH240008   0.443   4.002   0.465
 6150TIP3    H140009   0.358   4.023   0.503
 6150TIP3    H240010   0.462   4.076   0.408
 6151TIP3   OH240011   1.021   2.588   0.162
 6151TIP3    H140012   0.938   2.558   0.200
 6151TIP3    H240013   1.033   2.534   0.085
 6152TIP3   OH240014   5.649   6.552   7.593
 6152TIP3    H140015   5.583   6.531   7.659
 6152TIP3    H240016   5.722   6.590   7.643
 6153TIP3   OH240017   1.454   0.845   0.217
 6153TIP3    H140018   1.531   0.788   0.217
 6153TIP3    H240019   1.433   0.856   0.124
 6154TIP3   OH240020   1.718   0.493   7.728
 6154TIP3    H140021   1.795   0.479   7.673
 6154TIP3    H240022   1.753   0.500   7.817
 6155TIP3   OH240023   0.707   6.491   6.025
 6155TIP3    H140024   0.655   6.411   6.031
 6155TIP3    H240025   0.791   6.469   6.065
 6156TIP3   OH240026   0.524   0.671   0.633
 6156TIP3    H140027   0.460   0.599   0.631
 6156TIP3    H240028   0.505   0.717   0.715
 6157TIP3   OH240029   6.398   0.704   8.179
 6157TIP3    H140030   6.394   0.744   8.092
 6157TIP3    H240031   6.478   0.738   8.218
 6158TIP3   OH240032   3.797   0.333   6.866
 6158TIP3    H140033   3.789   0.366   6.776
 6158TIP3    H240034   3.791   0.412   6.921
 6159TIP3   OH240035   6.567   4.112   0.664
 6159TIP3    H140036   6.537   4.028   0.629
 6159TIP3    H240037   6.570   4.170   0.588
 6160TIP3   OH240038   3.552   6.585   0.948
 6160TIP3    H140039   3.515   6.517   0.892
 6160TIP3    H240040   3.539   6.553   1.037
 6161TIP3   OH240041   6.076   2.035   7.026
 6161TIP3    H140042   6.012   1.965   7.038
 6161TIP3    H240043   6.064   2.092   7.103
 6162TIP3   OH240044   2.994   4.153   2.047
 6162TIP3    H140045   2.953   4.225   1.998
 6162TIP3    H240046   2.921   4.100   2.077
 6163TIP3   OH240047   3.957   1.773   2.664
 6163TIP3    H140048   3.934   1.713   2.735
 6163TIP3    H240049   3.873   1.798   2.626
 6164TIP3   OH240050   0.528   0.144   1.078
 6164TIP3    H140051   0.571   0.075   1.128
 6164TIP3    H240052   0.438   0.113   1.066
 6165TIP3   OH240053   4.970   6.752   7.553
 6165TIP3    H140054   5.063   6.765   7.535
 6165TIP3    H240055   4.939   6.837   7.583
 6166TIP3   OH240056   5.552   2.855   7.773
 6166TIP3    H140057   5.580   2.766   7.748
 6166TIP3    H240058   5.557   2.856   7.868
 6167TIP3   OH240059   0.319   1.934   7.183
 6167TIP3    H140060   0.311   1.843   7.211
 6167TIP3    H240061   0.370   1.976   7.251
 6168TIP3   OH240062   6.115   0.195   0.662
 6168TIP3    H140063   6.130   0.270   0.605
 6168TIP3    H240064   6.073   0.231   0.740
 6169TIP3   OH240065   0.507   1.743   0.328
 6169TIP3    H140066   0.476   1.751   0.238
 6169TIP3    H240067   0.481   1.826   0.369
 6170TIP3   OH240068   3.326   5.026   1.019
 6170TIP3    H140069   3.418   5.031   1.044
 6170TIP3    H240070   3.278   5.015   1.101
 6171TIP3   OH240071   6.791   0.489   7.530
 6171TIP3    H140072   6.839   0.507   7.449
 6171TIP3    H240073   6.706   0.457   7.501
 6172TIP3   OH240074   4.022   4.293   7.146
 6172TIP3    H140075   4.040   4.325   7.235
 6172TIP3    H240076   3.969   4.362   7.106
 6173TIP3   OH240077   2.502   1.462   7.674
 6173TIP3    H140078   2.434   1.524   7.649
 6173TIP3    H240079   2.565   1.515   7.724
 6174TIP3   OH240080   5.716   1.317   7.562
 6174TIP3    H140081   5.713   1.292   7.469
 6174TIP3    H240082   5.637   1.370   7.575
 6175TIP3   OH240083   1.207   6.406   8.228
 6175TIP3    H140084   1.121   6.419   8.270
 6175TIP3    H240085   1.268   6.449   8.287
 6176TIP3   OH240086   6.214   4.780   1.543
 6176TIP3    H140087   6.309   4.781   1.557
 6176TIP3    H240088   6.195   4.688   1.522
 6177TIP3   OH240089   5.314   3.187   0.763
 6177TIP3    H140090   5.221   3.184   0.743
 6177TIP3    H240091   5.339   3.095   0.776
 6178TIP3   OH240092   3.272   1.420   8.513
 6178TIP3    H140093   3.298   1.399   8.423
 6178TIP3    H240094   3.183   1.386   8.520
 6179TIP3   OH240095   1.502   1.416   6.790
 6179TIP3    H140096   1.504   1.508   6.762
 6179TIP3    H240097   1.529   1.367   6.712
 6180TIP3   OH240098   1.579   2.358   8.263
 6180TIP3    H140099   1.661   2.332   8.222
 6180TIP3    H240100   1.565   2.448   8.234
 6181TIP3   OH240101   5.181   1.364   6.254
 6181TIP3    H140102   5.181   1.269   6.264
 6181TIP3    H240103   5.095   1.384   6.216
 6182TIP3   OH240104   1.609   4.995   0.574
 6182TIP3    H140105   1.627   5.080   0.534
 6182TIP3    H240106   1.627   4.931   0.505
 6183TIP3   OH240107   6.218   5.268   7.062
 6183TIP3    H140108   6.234   5.341   7.002
 6183TIP3    H240109   6.280   5.282   7.133
 6184TIP3   OH240110   5.574   5.936   7.764
 6184TIP3    H140111   5.565   5.852   7.810
 6184TIP3    H240112   5.665   5.938   7.735
 6185TIP3   OH240113   2.803   2.091   6.689
 6185TIP3    H140114   2.790   2.136   6.606
 6185TIP3    H240115   2.742   2.134   6.749
 6186TIP3   OH240116   2.351   6.863   7.497
 6186TIP3    H140117   2.300   6.815   7.431
 6186TIP3    H240118   2.292   0.051   7.526
 6187TIP3   OH240119   0.753   2.779   0.124
 6187TIP3    H140120   0.741   2.817   0.211
 6187TIP3    H240121   0.743   2.853   0.063
 6188TIP3   OH240122   6.694   0.478   0.560
 6188TIP3    H140123   6.652   0.425   0.492
 6188TIP3    H240124   6.766   0.424   0.592
 6189TIP3   OH240125   6.473   0.871   1.948
 6189TIP3    H140126   6.397   0.924   1.927
 6189TIP3    H240127   6.470   0.861   2.043
 6190TIP3   OH240128   1.702   6.402   8.315
 6190TIP3    H140129   1.713   6.489   8.353
 6190TIP3    H240130   1.738   6.410   8.227
 6191TIP3   OH240131   1.836   1.907   7.041
 6191TIP3    H140132   1.794   1.849   6.977
 6191TIP3    H240133   1.771   1.916   7.111
 6192TIP3   OH240134   5.236   0.133   6.134
 6192TIP3    H140135   5.307   0.096   6.186
 6192TIP3    H240136   5.235   0.226   6.156
 6193TIP3   OH240137   4.955   2.034   7.250
 6193TIP3    H140138   4.913   2.110   7.291
 6193TIP3    H240139   5.024   2.009   7.310
 6194TIP3   OH240140   5.580   4.725   8.027
 6194TIP3    H140141   5.666   4.725   8.068
 6194TIP3    H240142   5.582   4.651   7.967
 6195TIP3   OH240143   3.558   6.655   0.582
 6195TIP3    H140144   3.590   6.572   0.545
 6195TIP3    H240145   3.522   6.702   0.507
 6196TIP3   OH240146   0.974   4.427   2.509
 6196TIP3    H140147   1.038   4.455   2.443
 6196TIP3    H240148   0.969   4.501   2.570
 6197TIP3   OH240149   3.868   4.382   1.336
 6197TIP3    H140150   3.791   4.331   1.360
 6197TIP3    H240151   3.942   4.324   1.354
 6198TIP3   OH240152   0.522   4.906   8.363
 6198TIP3    H140153   0.495   4.941   8.278
 6198TIP3    H240154   0.506   4.977   8.425
 6199TIP3   OH240155   6.136   6.554   0.217
 6199TIP3    H140156   6.080   6.628   0.193
 6199TIP3    H240157   6.182   6.531   0.136
 6200TIP3   OH240158   4.533   4.022   1.732
 6200TIP3    H140159   4.450   3.981   1.705
 6200TIP3    H240160   4.510   4.071   1.811
 6201TIP3   OH240161   0.248   3.215   1.658
 6201TIP3    H140162   0.339   3.186   1.644
 6201TIP3    H240163   0.241   3.296   1.608
 6202TIP3   OH240164   4.433   1.983   2.505
 6202TIP3    H140165   4.352   1.935   2.488
 6202TIP3    H240166   4.434   2.052   2.439
 6203TIP3   OH240167   3.407   5.720   1.115
 6203TIP3    H140168   3.475   5.711   1.181
 6203TIP3    H240169   3.328   5.686   1.156
 6204TIP3   OH240170   6.303   4.123   2.040
 6204TIP3    H140171   6.237   4.064   2.004
 6204TIP3    H240172   6.350   4.071   2.105
 6205TIP3   OH240173   1.224   0.705   6.663
 6205TIP3    H140174   1.294   0.712   6.598
 6205TIP3    H240175   1.245   0.625   6.711
 6206TIP3   OH240176   3.746   4.471   0.697
 6206TIP3    H140177   3.732   4.459   0.603
 6206TIP3    H240178   3.789   4.390   0.725
 6207TIP3   OH240179   1.704   5.400   8.011
 6207TIP3    H140180   1.684   5.344   8.085
 6207TIP3    H240181   1.730   5.340   7.941
 6208TIP3   OH240182   6.413   5.032   2.786
 6208TIP3    H140183   6.338   4.974   2.801
 6208TIP3    H240184   6.382   5.095   2.721
 6209TIP3   OH240185   6.817   3.219   7.908
 6209TIP3    H140186   6.869   3.300   7.913
 6209TIP3    H240187   6.816   3.197   7.815
 6210TIP3   OH240188   5.156   2.630   7.873
 6210TIP3    H140189   5.096   2.675   7.933
 6210TIP3    H240190   5.242   2.638   7.914
 6211TIP3   OH240191   1.363   6.567   7.999
 6211TIP3    H140192   1.297   6.629   8.030
 6211TIP3    H240193   1.344   6.486   8.046
 6212TIP3   OH240194   5.855   2.990   7.518
 6212TIP3    H140195   5.849   2.903   7.478
 6212TIP3    H240196   5.867   2.972   7.611
 6213TIP3   OH240197   5.432   1.284   8.185
 6213TIP3    H140198   5.497   1.296   8.254
 6213TIP3    H240199   5.434   1.190   8.165
 6214TIP3   OH240200   4.019   0.299   7.093
 6214TIP3    H140201   4.058   0.211   7.100
 6214TIP3    H240202   4.074   0.354   7.148
 6215TIP3   OH240203   3.386   4.930   0.141
 6215TIP3    H140204   3.319   4.989   0.176
 6215TIP3    H240205   3.408   4.873   0.214
 6216TIP3   OH240206   4.282   0.645   1.562
 6216TIP3    H140207   4.244   0.670   1.478
 6216TIP3    H240208   4.209   0.609   1.612
 6217TIP3   OH240209   3.996   5.730   6.839
 6217TIP3    H140210   3.934   5.662   6.866
 6217TIP3    H240211   4.072   5.682   6.807
 6218TIP3   OH240212   3.633   5.051   2.177
 6218TIP3    H140213   3.608   5.142   2.155
 6218TIP3    H240214   3.554   5.001   2.158
 6219TIP3   OH240215   0.613   3.152   0.630
 6219TIP3    H140216   0.534   3.159   0.577
 6219TIP3    H240217   0.630   3.058   0.636
 6220TIP3   OH240218   4.150   1.137   8.113
 6220TIP3    H140219   4.144   1.043   8.130
 6220TIP3    H240220   4.243   1.151   8.094
 6221TIP3   OH240221   4.707   3.273   8.606
 6221TIP3    H140222   4.648   3.320   0.034
 6221TIP3    H240223   4.705   3.183   0.006
 6222TIP3   OH240224   0.060   2.301   0.937
 6222TIP3    H140225   6.856   2.269   0.912
 6222TIP3    H240226   0.050   2.327   1.029
 6223TIP3   OH240227   5.063   0.241   0.087
 6223TIP3    H140228   5.135   0.184   0.059
 6223TIP3    H240229   4.992   0.222   0.025
 6224TIP3   OH240230   4.223   0.211   8.163
 6224TIP3    H140231   4.210   0.134   8.108
 6224TIP3    H240232   4.276   0.179   8.237
 6225TIP3   OH240233   5.792   0.226   1.098
 6225TIP3    H140234   5.887   0.230   1.106
 6225TIP3    H240235   5.761   0.212   1.187
 6226TIP3   OH240236   3.376   6.361   7.739
 6226TIP3    H140237   3.341   6.273   7.756
 6226TIP3    H240238   3.455   6.345   7.688
 6227TIP3   OH240239   1.155   2.186   8.596
 6227TIP3    H140240   1.108   2.266   8.575
 6227TIP3    H240241   1.086   2.120   8.606
 6228TIP3   OH240242   2.268   0.468   0.872
 6228TIP3    H140243   2.180   0.476   0.835
 6228TIP3    H240244   2.258   0.486   0.965
 6229TIP3   OH240245   0.820   5.332   7.048
 6229TIP3    H140246   0.823   5.382   7.129
 6229TIP3    H240247   0.785   5.247   7.073
 6230TIP3   OH240248   3.722   1.757   5.806
 6230TIP3    H140249   3.743   1.679   5.754
 6230TIP3    H240250   3.772   1.827   5.764
 6231TIP3   OH240251   6.808   4.983   1.574
 6231TIP3    H140252   6.844   4.962   1.488
 6231TIP3    H240253   6.836   4.910   1.630
 6232TIP3   OH240254   3.697   0.549   8.613
 6232TIP3    H140255   3.770   0.492   0.007
 6232TIP3    H240256   3.739   0.619   8.564
 6233TIP3   OH240257   2.908   5.317   7.094
 6233TIP3    H140258   2.938   5.274   7.175
 6233TIP3    H240259   2.925   5.252   7.026
 6234TIP3   OH240260   6.010   1.605   8.498
 6234TIP3    H140261   5.966   1.525   8.471
 6234TIP3    H240262   5.997   1.610   8.592
 6235TIP3   OH240263   6.277   1.262   1.684
 6235TIP3    H140264   6.231   1.194   1.635
 6235TIP3    H240265   6.301   1.219   1.767
 6236TIP3   OH240266   4.916   1.360   1.517
 6236TIP3    H140267   4.907   1.452   1.544
 6236TIP3    H240268   4.951   1.316   1.595
 6237TIP3   OH240269   6.272   6.371   0.799
 6237TIP3    H140270   6.264   6.290   0.750
 6237TIP3    H240271   6.331   6.426   0.747
 6238TIP3   OH240272   1.364   0.212   0.454
 6238TIP3    H140273   1.365   0.266   0.533
 6238TIP3    H240274   1.272   0.209   0.428
 6239TIP3   OH240275   3.545   0.457   6.974
 6239TIP3    H140276   3.536   0.546   6.939
 6239TIP3    H240277   3.572   0.469   7.065
 6240TIP3   OH240278   6.375   6.545   0.400
 6240TIP3    H140279   6.290   6.559   0.357
 6240TIP3    H240280   6.393   6.452   0.388
 6241TIP3   OH240281   3.580   3.772   8.008
 6241TIP3    H140282   3.589   3.775   8.103
 6241TIP3    H240283   3.655   3.822   7.976
 6242TIP3   OH240284   1.519   0.532   7.131
 6242TIP3    H140285   1.610   0.511   7.109
 6242TIP3    H240286   1.467   0.466   7.085
 6243TIP3   OH240287   2.070   0.685   7.080
 6243TIP3    H140288   2.098   0.761   7.030
 6243TIP3    H240289   2.147   0.628   7.083
 6244TIP3   OH240290   4.421   2.311   1.095
 6244TIP3    H140291   4.339   2.360   1.100
 6244TIP3    H240292   4.485   2.366   1.140
 6245TIP3   OH240293   5.597   0.572   1.652
 6245TIP3    H140294   5.576   0.641   1.714
 6245TIP3    H240295   5.639   0.504   1.705
 6246TIP3   OH240296   6.717   4.250   7.607
 6246TIP3    H140297   6.776   4.306   7.558
 6246TIP3    H240298   6.630   4.283   7.586
 6247TIP3   OH240299   5.052   6.089   8.011
 6247TIP3    H140300   5.095   6.005   7.999
 6247TIP3    H240301   5.097   6.148   7.949
 6248TIP3   OH240302   6.868   5.621   0.548
 6248TIP3    H140303   0.040   5.599   0.473
 6248TIP3    H240304   0.040   5.680   0.601
 6249TIP3   OH240305   6.316   5.035   0.382
 6249TIP3    H140306   6.264   5.116   0.382
 6249TIP3    H240307   6.330   5.015   0.474
 6250TIP3   OH240308   3.038   1.238   0.166
 6250TIP3    H140309   3.017   1.196   0.083
 6250TIP3    H240310   3.134   1.231   0.173
 6251TIP3   OH240311   3.759   5.226   7.602
 6251TIP3    H140312   3.850   5.206   7.579
 6251TIP3    H240313   3.724   5.269   7.524
 6252TIP3   OH240314   4.766   3.646   7.361
 6252TIP3    H140315   4.679   3.650   7.401
 6252TIP3    H240316   4.756   3.586   7.288
 6253TIP3   OH240317   4.954   1.246   7.521
 6253TIP3    H140318   4.938   1.196   7.601
 6253TIP3    H240319   4.983   1.181   7.457
 6254TIP3   OH240320   1.455   4.096   7.091
 6254TIP3    H140321   1.475   4.095   6.998
 6254TIP3    H240322   1.414   4.182   7.106
 6255TIP3   OH240323   6.004   5.974   2.341
 6255TIP3    H140324   6.003   5.933   2.255
 6255TIP3    H240325   6.094   6.005   2.351
 6256TIP3   OH240326   2.551   2.180   7.378
 6256TIP3    H140327   2.561   2.249   7.312
 6256TIP3    H240328   2.464   2.194   7.415
 6257TIP3   OH240329   4.180   0.666   0.983
 6257TIP3    H140330   4.253   0.635   0.929
 6257TIP3    H240331   4.207   0.753   1.013
 6258TIP3   OH240332   4.665   2.010   1.517
 6258TIP3    H140333   4.709   1.925   1.524
 6258TIP3    H240334   4.718   2.059   1.454
 6259TIP3   OH240335   6.492   5.737   6.766
 6259TIP3    H140336   6.403   5.702   6.755
 6259TIP3    H240337   6.481   5.832   6.761
 6260TIP3   OH240338   2.196   4.587   1.138
 6260TIP3    H140339   2.202   4.662   1.198
 6260TIP3    H240340   2.226   4.621   1.054
 6261TIP3   OH240341   4.038   4.983   7.526
 6261TIP3    H140342   3.952   4.968   7.566
 6261TIP3    H240343   4.034   4.937   7.442
 6262TIP3   OH240344   1.955   4.500   2.314
 6262TIP3    H140345   2.017   4.488   2.385
 6262TIP3    H240346   1.966   4.422   2.259
 6263TIP3   OH240347   0.803   3.967   8.544
 6263TIP3    H140348   0.743   3.929   8.480
 6263TIP3    H240349   0.790   3.914   8.623
 6264TIP3   OH240350   5.688   2.479   8.142
 6264TIP3    H140351   5.720   2.494   8.231
 6264TIP3    H240352   5.704   2.385   8.127
 6265TIP3   OH240353   3.935   1.530   2.503
 6265TIP3    H140354   3.994   1.455   2.515
 6265TIP3    H240355   3.979   1.602   2.548
 6266TIP3   OH240356   6.667   6.244   2.193
 6266TIP3    H140357   6.709   6.266   2.109
 6266TIP3    H240358   6.671   6.326   2.243
 6267TIP3   OH240359   4.421   1.704   0.606
 6267TIP3    H140360   4.433   1.732   0.697
 6267TIP3    H240361   4.471   1.623   0.599
 6268TIP3   OH240362   3.861   6.647   1.116
 6268TIP3    H140363   3.942   6.618   1.075
 6268TIP3    H240364   3.849   6.587   1.190
 6269TIP3   OH240365   2.984   6.623   0.335
 6269TIP3    H140366   3.034   6.645   0.414
 6269TIP3    H240367   2.926   6.552   0.362
 6270TIP3   OH240368   5.065   0.361   7.676
 6270TIP3    H140369   5.010   0.406   7.741
 6270TIP3    H240370   5.077   0.425   7.606
 6271TIP3   OH240371   5.893   2.330   0.286
 6271TIP3    H140372   5.955   2.384   0.236
 6271TIP3    H240373   5.819   2.388   0.304
 6272TIP3   OH240374   0.258   4.113   8.019
 6272TIP3    H140375   0.168   4.140   8.000
 6272TIP3    H240376   0.294   4.088   7.934
 6273TIP3   OH240377   4.682   2.159   1.210
 6273TIP3    H140378   4.692   2.250   1.239
 6273TIP3    H240379   4.762   2.116   1.241
 6274TIP3   OH240380   1.133   2.326   7.011
 6274TIP3    H140381   1.047   2.368   7.017
 6274TIP3    H240382   1.173   2.367   6.934
 6275TIP3   OH240383   0.060   4.335   7.487
 6275TIP3    H140384   0.042   4.289   7.406
 6275TIP3    H240385   0.085   4.266   7.549
 6276TIP3   OH240386   1.512   5.347   0.147
 6276TIP3    H140387   1.487   5.393   0.227
 6276TIP3    H240388   1.430   5.334   0.100
 6277TIP3   OH240389   2.810   3.271   0.239
 6277TIP3    H140390   2.820   3.238   0.150
 6277TIP3    H240391   2.736   3.223   0.275
 6278TIP3   OH240392   5.055   5.702   6.775
 6278TIP3    H140393   5.089   5.788   6.799
 6278TIP3    H240394   4.980   5.720   6.718
 6279TIP3   OH240395   5.916   6.069   0.985
 6279TIP3    H140396   5.985   6.129   1.013
 6279TIP3    H240397   5.910   6.081   0.890
 6280TIP3   OH240398   6.264   0.967   8.312
 6280TIP3    H140399   6.262   0.909   8.388
 6280TIP3    H240400   6.312   1.044   8.342
 6281TIP3   OH240401   5.264   4.611   2.025
 6281TIP3    H140402   5.217   4.534   2.056
 6281TIP3    H240403   5.287   4.659   2.104
 6282TIP3   OH240404   5.445   1.873   7.205
 6282TIP3    H140405   5.440   1.843   7.296
 6282TIP3    H240406   5.425   1.796   7.153
 6283TIP3   OH240407   3.671   1.758   7.604
 6283TIP3    H140408   3.634   1.836   7.645
 6283TIP3    H240409   3.621   1.685   7.640
 6284TIP3   OH240410   5.299   4.359   2.297
 6284TIP3    H140411   5.272   4.388   2.384
 6284TIP3    H240412   5.322   4.267   2.308
 6285TIP3   OH240413   1.424   0.404   6.225
 6285TIP3    H140414   1.478   0.354   6.164
 6285TIP3    H240415   1.480   0.477   6.252
 6286TIP3   OH240416   4.157   3.302   1.125
 6286TIP3    H140417   4.073   3.315   1.167
 6286TIP3    H240418   4.197   3.389   1.122
 6287TIP3   OH240419   5.720   5.685   0.154
 6287TIP3    H140420   5.675   5.601   0.164
 6287TIP3    H240421   5.681   5.741   0.221
 6288TIP3   OH240422   1.097   1.656   8.017
 6288TIP3    H140423   1.021   1.657   7.958
 6288TIP3    H240424   1.072   1.595   8.087
 6289TIP3   OH240425   0.973   4.981   0.527
 6289TIP3    H140426   0.894   4.936   0.559
 6289TIP3    H240427   0.948   5.074   0.525
 6290TIP3   OH240428   5.396   0.645   8.539
 6290TIP3    H140429   5.336   0.582   8.498
 6290TIP3    H240430   5.434   0.598   8.613
 6291TIP3   OH240431   5.043   3.140   0.757
 6291TIP3    H140432   4.967   3.083   0.741
 6291TIP3    H240433   5.008   3.212   0.810
 6292TIP3   OH240434   1.505   0.955   1.391
 6292TIP3    H140435   1.429   1.003   1.422
 6292TIP3    H240436   1.470   0.892   1.328
 6293TIP3   OH240437   6.036   5.888   8.043
 6293TIP3    H140438   6.043   5.832   7.966
 6293TIP3    H240439   6.000   5.970   8.010
 6294TIP3   OH240440   3.931   2.040   6.663
 6294TIP3    H140441   3.918   1.978   6.735
 6294TIP3    H240442   3.897   1.995   6.586
 6295TIP3   OH240443   1.988   3.898   8.478
 6295TIP3    H140444   2.041   3.869   8.552
 6295TIP3    H240445   2.048   3.950   8.424
 6296TIP3   OH240446   0.805   3.942   1.939
 6296TIP3    H140447   0.730   4.000   1.945
 6296TIP3    H240448   0.778   3.873   1.879
 6297TIP3   OH240449   4.311   5.849   6.850
 6297TIP3    H140450   4.402   5.875   6.861
 6297TIP3    H240451   4.310   5.803   6.765
 6298TIP3   OH240452   1.823   3.456   6.660
 6298TIP3    H140453   1.843   3.402   6.584
 6298TIP3    H240454   1.763   3.403   6.713
 6299TIP3   OH240455   2.118   6.617   7.554
 6299TIP3    H140456   2.024   6.610   7.537
 6299TIP3    H240457   2.155   6.640   7.469
 6300TIP3   OH240458   1.953   2.414   0.682
 6300TIP3    H140459   1.958   2.509   0.675
 6300TIP3    H240460   1.874   2.390   0.633
 6301TIP3   OH240461   0.821   3.877   0.421
 6301TIP3    H140462   0.786   3.956   0.380
 6301TIP3    H240463   0.911   3.871   0.390
 6302TIP3   OH240464   0.052   3.683   1.069
 6302TIP3    H140465   6.880   3.753   1.035
 6302TIP3    H240466   0.129   3.727   1.104
 6303TIP3   OH240467   2.050   3.242   7.271
 6303TIP3    H140468   2.107   3.223   7.345
 6303TIP3    H240469   2.107   3.285   7.207
 6304TIP3   OH240470   4.592   0.744   0.376
 6304TIP3    H140471   4.597   0.671   0.437
 6304TIP3    H240472   4.615   0.706   0.291
 6305TIP3   OH240473   5.405   5.572   8.259
 6305TIP3    H140474   5.426   5.541   8.347
 6305TIP3    H240475   5.475   5.538   8.204
 6306TIP3   OH240476   1.850   1.974   0.456
 6306TIP3    H140477   1.862   2.055   0.405
 6306TIP3    H240478   1.817   2.004   0.541
 6307TIP3   OH240479   5.076   2.470   6.717
 6307TIP3    H140480   5.140   2.541   6.717
 6307TIP3    H240481   5.011   2.496   6.651
 6308TIP3   OH240482   3.525   6.374   2.620
 6308TIP3    H140483   3.440   6.330   2.622
 6308TIP3    H240484   3.580   6.320   2.677
 6309TIP3   OH240485   4.851   0.587   5.956
 6309TIP3    H140486   4.929   0.596   5.900
 6309TIP3    H240487   4.884   0.547   6.037
 6310TIP3   OH240488   3.970   5.714   8.038
 6310TIP3    H140489   4.037   5.657   8.000
 6310TIP3    H240490   3.889   5.663   8.032
 6311TIP3   OH240491   2.598   1.591   0.098
 6311TIP3    H140492   2.649   1.670   0.115
 6311TIP3    H240493   2.664   1.523   0.081
 6312TIP3   OH240494   3.344   4.458   0.751
 6312TIP3    H140495   3.321   4.398   0.822
 6312TIP3    H240496   3.420   4.505   0.784
 6313TIP3   OH240497   1.215   2.597   1.162
 6313TIP3    H140498   1.230   2.599   1.068
 6313TIP3    H240499   1.224   2.504   1.185
 6314TIP3   OH240500   5.470   6.560   0.819
 6314TIP3    H140501   5.456   6.523   0.732
 6314TIP3    H240502   5.565   6.565   0.828
 6315TIP3   OH240503   2.664   6.055   6.644
 6315TIP3    H140504   2.579   6.009   6.645
 6315TIP3    H240505   2.728   5.986   6.660
 6316TIP3   OH240506   3.903   3.441   7.079
 6316TIP3    H140507   3.893   3.514   7.018
 6316TIP3    H240508   3.816   3.402   7.083
 6317TIP3   OH240509   2.460   6.235   0.792
 6317TIP3    H140510   2.531   6.239   0.727
 6317TIP3    H240511   2.380   6.251   0.742
 6318TIP3   OH240512   0.035   4.329   6.882
 6318TIP3    H140513   0.072   4.407   6.924
 6318TIP3    H240514   6.830   4.356   6.854
 6319TIP3   OH240515   4.328   3.016   0.323
 6319TIP3    H140516   4.281   3.081   0.271
 6319TIP3    H240517   4.395   3.067   0.370
 6320TIP3   OH240518   5.162   6.304   0.377
 6320TIP3    H140519   5.088   6.361   0.356
 6320TIP3    H240520   5.136   6.258   0.456
 6321TIP3   OH240521   1.052   6.159   0.159
 6321TIP3    H140522   1.062   6.117   0.074
 6321TIP3    H240523   1.138   6.196   0.178
 6322TIP3   OH240524   3.398   0.846   7.705
 6322TIP3    H140525   3.386   0.752   7.717
 6322TIP3    H240526   3.491   0.861   7.723
 6323TIP3   OH240527   5.382   6.636   8.265
 6323TIP3    H140528   5.356   6.683   8.345
 6323TIP3    H240529   5.320   6.666   8.199
 6324TIP3   OH240530   6.444   1.976   2.182
 6324TIP3    H140531   6.383   1.944   2.249
 6324TIP3    H240532   6.530   1.953   2.216
 6325TIP3   OH240533   1.625   3.273   6.741
 6325TIP3    H140534   1.604   3.258   6.649
 6325TIP3    H240535   1.700   3.217   6.758
 6326TIP3   OH240536   3.283   0.127   2.497
 6326TIP3    H140537   3.236   0.174   2.429
 6326TIP3    H240538   3.215   0.091   2.554
 6327TIP3   OH240539   4.296   1.881   1.045
 6327TIP3    H140540   4.209   1.857   1.078
 6327TIP3    H240541   4.342   1.915   1.122
 6328TIP3   OH240542   0.227   6.642   0.888
 6328TIP3    H140543   0.155   6.688   0.845
 6328TIP3    H240544   0.248   6.569   0.829
 6329TIP3   OH240545   5.304   0.113   0.201
 6329TIP3    H140546   5.341   0.191   0.243
 6329TIP3    H240547   5.379   0.069   0.162
 6330TIP3   OH240548   3.813   1.774   1.323
 6330TIP3    H140549   3.810   1.855   1.374
 6330TIP3    H240550   3.763   1.794   1.244
 6331TIP3   OH240551   6.811   6.583   0.037
 6331TIP3    H140552   6.789   6.549   0.123
 6331TIP3    H240553   6.726   6.606   8.629
 6332TIP3   OH240554   3.317   6.236   8.626
 6332TIP3    H140555   3.284   6.322   8.600
 6332TIP3    H240556   3.409   6.250   0.013
 6333TIP3   OH240557   4.797   1.915   6.776
 6333TIP3    H140558   4.873   1.939   6.722
 6333TIP3    H240559   4.810   1.961   6.859
 6334TIP3   OH240560   4.187   3.613   8.239
 6334TIP3    H140561   4.177   3.671   8.314
 6334TIP3    H240562   4.241   3.541   8.272
 6335TIP3   OH240563   0.131   0.267   2.045
 6335TIP3    H140564   0.130   0.199   2.113
 6335TIP3    H240565   0.106   0.347   2.091
 6336TIP3   OH240566   0.027   6.286   0.308
 6336TIP3    H140567   0.015   6.193   0.326
 6336TIP3    H240568   0.018   6.294   0.213
 6337TIP3   OH240569   6.206   5.488   0.668
 6337TIP3    H140570   6.123   5.534   0.682
 6337TIP3    H240571   6.271   5.557   0.655
 6338TIP3   OH240572   2.415   3.796   0.206
 6338TIP3    H140573   2.332   3.780   0.251
 6338TIP3    H240574   2.482   3.766   0.268
 6339TIP3   OH240575   4.697   6.048   1.337
 6339TIP3    H140576   4.712   6.032   1.430
 6339TIP3    H240577   4.627   6.113   1.335
 6340TIP3   OH240578   4.708   6.261   0.188
 6340TIP3    H140579   4.772   6.278   0.119
 6340TIP3    H240580   4.674   6.174   0.169
 6341TIP3   OH240581   5.076   2.785   1.752
 6341TIP3    H140582   5.061   2.747   1.666
 6341TIP3    H240583   4.999   2.762   1.803
 6342TIP3   OH240584   0.488   2.364   8.389
 6342TIP3    H140585   0.412   2.413   8.358
 6342TIP3    H240586   0.451   2.285   8.429
 6343TIP3   OH240587   4.300   5.241   0.660
 6343TIP3    H140588   4.368   5.305   0.684
 6343TIP3    H240589   4.327   5.160   0.704
 6344TIP3   OH240590   5.899   5.791   0.567
 6344TIP3    H140591   5.810   5.806   0.598
 6344TIP3    H240592   5.917   5.863   0.508
 6345TIP3   OH240593   4.129   0.673   2.807
 6345TIP3    H140594   4.038   0.650   2.820
 6345TIP3    H240595   4.126   0.753   2.754
 6346TIP3   OH240596   4.717   0.547   1.300
 6346TIP3    H140597   4.712   0.614   1.232
 6346TIP3    H240598   4.804   0.508   1.290
 6347TIP3   OH240599   1.190   6.117   0.424
 6347TIP3    H140600   1.251   6.126   0.497
 6347TIP3    H240601   1.105   6.099   0.465
 6348TIP3   OH240602   6.031   1.292   1.103
 6348TIP3    H140603   6.082   1.364   1.140
 6348TIP3    H240604   5.946   1.298   1.146
 6349TIP3   OH240605   1.817   0.770   1.468
 6349TIP3    H140606   1.903   0.810   1.454
 6349TIP3    H240607   1.778   0.823   1.538
 6350TIP3   OH240608   2.090   5.952   7.827
 6350TIP3    H140609   2.035   6.003   7.886
 6350TIP3    H240610   2.042   5.870   7.815
 6351TIP3   OH240611   0.292   3.035   0.127
 6351TIP3    H140612   0.369   3.066   0.079
 6351TIP3    H240613   0.294   2.940   0.117
 6352TIP3   OH240614   3.722   1.598   7.231
 6352TIP3    H140615   3.798   1.590   7.288
 6352TIP3    H240616   3.683   1.511   7.229
 6353TIP3   OH240617   0.569   0.061   6.127
 6353TIP3    H140618   0.510   0.018   6.189
 6353TIP3    H240619   0.511   0.102   6.063
 6354TIP3   OH240620   5.897   5.243   0.054
 6354TIP3    H140621   5.893   5.209   0.143
 6354TIP3    H240622   5.973   5.300   0.053
 6355TIP3   OH240623   2.065   2.659   8.172
 6355TIP3    H140624   2.106   2.741   8.200
 6355TIP3    H240625   2.058   2.607   8.251
 6356TIP3   OH240626   4.480   1.039   0.288
 6356TIP3    H140627   4.567   1.077   0.300
 6356TIP3    H240628   4.495   0.944   0.287
 6357TIP3   OH240629   6.078   0.169   6.717
 6357TIP3    H140630   6.012   0.136   6.656
 6357TIP3    H240631   6.144   0.210   6.661
 6358TIP3   OH240632   4.945   3.719   6.896
 6358TIP3    H140633   4.908   3.786   6.953
 6358TIP3    H240634   4.883   3.713   6.823
 6359TIP3   OH240635   3.759   3.586   7.858
 6359TIP3    H140636   3.667   3.602   7.841
 6359TIP3    H240637   3.764   3.570   7.952
 6360TIP3   OH240638   3.723   0.190   2.121
 6360TIP3    H140639   3.640   0.188   2.168
 6360TIP3    H240640   3.757   0.278   2.137
 6361TIP3   OH240641   5.132   1.500   2.353
 6361TIP3    H140642   5.041   1.529   2.358
 6361TIP3    H240643   5.157   1.484   2.444
 6362TIP3   OH240644   0.326   1.446   8.625
 6362TIP3    H140645   0.324   1.518   0.057
 6362TIP3    H240646   0.297   1.369   0.043
 6363TIP3   OH240647   4.274   0.053   1.743
 6363TIP3    H140648   4.233   0.073   1.659
 6363TIP3    H240649   4.356   0.009   1.720
 6364TIP3   OH240650   4.245   0.911   6.534
 6364TIP3    H140651   4.292   0.934   6.453
 6364TIP3    H240652   4.153   0.908   6.509
 6365TIP3   OH240653   3.517   3.800   0.099
 6365TIP3    H140654   3.572   3.729   0.067
 6365TIP3    H240655   3.561   3.880   0.069
 6366TIP3   OH240656   3.685   5.178   0.390
 6366TIP3    H140657   3.755   5.210   0.447
 6366TIP3    H240658   3.714   5.093   0.360
 6367TIP3   OH240659   2.513   2.053   7.986
 6367TIP3    H140660   2.574   1.995   8.034
 6367TIP3    H240661   2.427   2.016   8.004
 6368TIP3   OH240662   5.020   5.170   2.110
 6368TIP3    H140663   5.027   5.261   2.082
 6368TIP3    H240664   4.929   5.160   2.139
 6369TIP3   OH240665   4.735   5.135   7.486
 6369TIP3    H140666   4.712   5.207   7.428
 6369TIP3    H240667   4.805   5.088   7.439
 6370TIP3   OH240668   0.894   3.364   1.666
 6370TIP3    H140669   0.883   3.270   1.651
 6370TIP3    H240670   0.812   3.403   1.636
 6371TIP3   OH240671   2.878   1.939   1.593
 6371TIP3    H140672   2.927   1.859   1.572
 6371TIP3    H240673   2.796   1.908   1.630
 6372TIP3   OH240674   3.537   2.631   8.170
 6372TIP3    H140675   3.465   2.684   8.205
 6372TIP3    H240676   3.511   2.614   8.079
 6373TIP3   OH240677   0.341   5.597   7.030
 6373TIP3    H140678   0.296   5.545   7.096
 6373TIP3    H240679   0.418   5.546   7.008
 6374TIP3   OH240680   6.748   3.482   1.966
 6374TIP3    H140681   6.693   3.466   2.042
 6374TIP3    H240682   6.834   3.504   2.003
 6375TIP3   OH240683   6.702   3.508   2.398
 6375TIP3    H140684   6.732   3.552   2.318
 6375TIP3    H240685   6.617   3.547   2.416
 6376TIP3   OH240686   1.773   4.840   7.237
 6376TIP3    H140687   1.818   4.867   7.317
 6376TIP3    H240688   1.710   4.910   7.220
 6377TIP3   OH240689   0.712   0.497   8.023
 6377TIP3    H140690   0.747   0.585   8.036
 6377TIP3    H240691   0.675   0.472   8.108
 6378TIP3   OH240692   2.046   5.399   1.056
 6378TIP3    H140693   2.033   5.464   0.987
 6378TIP3    H240694   2.130   5.423   1.096
 6379TIP3   OH240695   5.032   1.754   2.471
 6379TIP3    H140696   5.077   1.765   2.554
 6379TIP3    H240697   5.097   1.778   2.405
 6380TIP3   OH240698   3.395   3.333   0.556
 6380TIP3    H140699   3.368   3.400   0.493
 6380TIP3    H240700   3.450   3.379   0.619
 6381TIP3   OH240701   5.959   0.124   7.880
 6381TIP3    H140702   5.988   0.161   7.963
 6381TIP3    H240703   5.881   0.175   7.857
 6382TIP3   OH240704   5.400   2.859   0.431
 6382TIP3    H140705   5.496   2.855   0.428
 6382TIP3    H240706   5.379   2.863   0.525
 6383TIP3   OH240707   0.735   6.230   6.963
 6383TIP3    H140708   0.814   6.201   6.917
 6383TIP3    H240709   0.753   6.320   6.988
 6384TIP3   OH240710   4.360   1.212   1.955
 6384TIP3    H140711   4.418   1.137   1.942
 6384TIP3    H240712   4.298   1.207   1.882
 6385TIP3   OH240713   3.774   3.101   7.980
 6385TIP3    H140714   3.789   3.066   8.068
 6385TIP3    H240715   3.779   3.196   7.991
 6386TIP3   OH240716   2.621   1.747   0.549
 6386TIP3    H140717   2.533   1.710   0.542
 6386TIP3    H240718   2.678   1.677   0.517
 6387TIP3   OH240719   0.097   0.626   1.959
 6387TIP3    H140720   0.189   0.599   1.972
 6387TIP3    H240721   0.047   0.560   2.008
 6388TIP3   OH240722   2.120   4.478   7.485
 6388TIP3    H140723   2.143   4.545   7.421
 6388TIP3    H240724   2.076   4.410   7.434
 6389TIP3   OH240725   2.801   3.607   1.444
 6389TIP3    H140726   2.840   3.672   1.503
 6389TIP3    H240727   2.767   3.659   1.371
 6390TIP3   OH240728   0.232   0.032   7.906
 6390TIP3    H140729   0.235   6.856   7.830
 6390TIP3    H240730   0.211   6.858   7.980
 6391TIP3   OH240731   5.526   5.476   0.953
 6391TIP3    H140732   5.459   5.538   0.984
 6391TIP3    H240733   5.479   5.419   0.892
 6392TIP3   OH240734   0.524   3.238   0.246
 6392TIP3    H140735   0.601   3.259   0.192
 6392TIP3    H240736   0.500   3.321   0.287
 6393TIP3   OH240737   4.766   4.357   1.337
 6393TIP3    H140738   4.831   4.399   1.281
 6393TIP3    H240739   4.818   4.316   1.407
 6394TIP3   OH240740   1.074   1.068   0.514
 6394TIP3    H140741   0.992   1.111   0.489
 6394TIP3    H240742   1.140   1.108   0.457
 6395TIP3   OH240743   3.500   4.062   1.244
 6395TIP3    H140744   3.433   4.019   1.297
 6395TIP3    H240745   3.525   4.139   1.296
 6396TIP3   OH240746   2.666   2.218   6.936
 6396TIP3    H140747   2.760   2.222   6.952
 6396TIP3    H240748   2.634   2.306   6.954
 6397TIP3   OH240749   2.473   5.894   7.755
 6397TIP3    H140750   2.428   5.941   7.825
 6397TIP3    H240751   2.482   5.960   7.685
 6398TIP3   OH240752   2.035   5.200   2.125
 6398TIP3    H140753   2.058   5.242   2.042
 6398TIP3    H240754   1.987   5.267   2.174
 6399TIP3   OH240755   4.873   0.090   7.698
 6399TIP3    H140756   4.783   0.098   7.666
 6399TIP3    H240757   4.863   0.060   7.788
 6400TIP3   OH240758   3.898   0.562   8.210
 6400TIP3    H140759   3.810   0.538   8.179
 6400TIP3    H240760   3.907   0.654   8.188
 6401TIP3   OH240761   1.116   2.771   8.133
 6401TIP3    H140762   1.075   2.762   8.220
 6401TIP3    H240763   1.174   2.695   8.126
 6402TIP3   OH240764   5.498   3.868   1.305
 6402TIP3    H140765   5.463   3.781   1.325
 6402TIP3    H240766   5.592   3.860   1.320
 6403TIP3   OH240767   0.451   0.202   7.967
 6403TIP3    H140768   0.445   0.200   8.063
 6403TIP3    H240769   0.390   0.134   7.938
 6404TIP3   OH240770   4.458   2.434   6.963
 6404TIP3    H140771   4.376   2.387   6.976
 6404TIP3    H240772   4.439   2.493   6.889
 6405TIP3   OH240773   3.216   6.527   0.961
 6405TIP3    H140774   3.266   6.589   1.014
 6405TIP3    H240775   3.255   6.533   0.874
 6406TIP3   OH240776   5.418   4.920   2.203
 6406TIP3    H140777   5.326   4.901   2.222
 6406TIP3    H240778   5.433   5.007   2.240
 6407TIP3   OH240779   3.319   2.453   0.028
 6407TIP3    H140780   3.323   2.374   0.081
 6407TIP3    H240781   3.332   2.422   8.569
 6408TIP3   OH240782   6.234   2.696   1.938
 6408TIP3    H140783   6.289   2.618   1.941
 6408TIP3    H240784   6.295   2.768   1.921
 6409TIP3   OH240785   0.443   1.709   1.790
 6409TIP3    H140786   0.446   1.648   1.864
 6409TIP3    H240787   0.502   1.780   1.815
 6410TIP3   OH240788   6.301   5.064   1.444
 6410TIP3    H140789   6.389   5.065   1.481
 6410TIP3    H240790   6.280   5.155   1.426
 6411TIP3   OH240791   3.252   4.886   8.237
 6411TIP3    H140792   3.218   4.800   8.261
 6411TIP3    H240793   3.272   4.928   8.320
 6412TIP3   OH240794   2.500   4.925   7.489
 6412TIP3    H140795   2.440   4.999   7.480
 6412TIP3    H240796   2.459   4.869   7.554
 6413TIP3   OH240797   4.683   6.682   2.227
 6413TIP3    H140798   4.610   6.673   2.288
 6413TIP3    H240799   4.703   6.775   2.228
 6414TIP3   OH240800   2.386   1.933   8.498
 6414TIP3    H140801   2.388   1.848   8.454
 6414TIP3    H240802   2.468   1.937   8.547
 6415TIP3   OH240803   2.989   0.313   6.634
 6415TIP3    H140804   2.967   0.396   6.592
 6415TIP3    H240805   2.964   0.246   6.570
 6416TIP3   OH240806   0.277   4.841   6.842
 6416TIP3    H140807   0.281   4.787   6.763
 6416TIP3    H240808   0.350   4.903   6.832
 6417TIP3   OH240809   6.431   2.598   6.320
 6417TIP3    H140810   6.412   2.680   6.274
 6417TIP3    H240811   6.524   2.604   6.344
 6418TIP3   OH240812   6.134   0.384   7.685
 6418TIP3    H140813   6.090   0.359   7.766
 6418TIP3    H240814   6.210   0.436   7.714
 6419TIP3   OH240815   5.460   4.679   1.822
 6419TIP3    H140816   5.448   4.773   1.836
 6419TIP3    H240817   5.372   4.642   1.828
 6420TIP3   OH240818   4.605   3.655   2.257
 6420TIP3    H140819   4.584   3.749   2.254
 6420TIP3    H240820   4.601   3.632   2.350
 6421TIP3   OH240821   4.841   5.207   1.876
 6421TIP3    H140822   4.783   5.177   1.946
 6421TIP3    H240823   4.888   5.281   1.913
 6422TIP3   OH240824   5.174   1.930   7.612
 6422TIP3    H140825   5.224   1.918   7.532
 6422TIP3    H240826   5.189   2.021   7.637
 6423TIP3   OH240827   5.507   0.663   2.109
 6423TIP3    H140828   5.422   0.686   2.146
 6423TIP3    H240829   5.526   0.577   2.146
 6424TIP3   OH240830   3.608   1.877   6.194
 6424TIP3    H140831   3.548   1.875   6.269
 6424TIP3    H240832   3.679   1.817   6.218
 6425TIP3   OH240833   4.365   5.393   7.307
 6425TIP3    H140834   4.356   5.417   7.214
 6425TIP3    H240835   4.347   5.299   7.309
 6426TIP3   OH240836   4.006   5.799   0.842
 6426TIP3    H140837   3.955   5.753   0.908
 6426TIP3    H240838   3.962   5.884   0.833
 6427TIP3   OH240839   1.100   3.319   2.323
 6427TIP3    H140840   1.122   3.411   2.340
 6427TIP3    H240841   1.164   3.269   2.373
 6428TIP3   OH240842   5.422   3.289   8.108
 6428TIP3    H140843   5.465   3.372   8.128
 6428TIP3    H240844   5.488   3.239   8.060
 6429TIP3   OH240845   6.654   3.058   7.086
 6429TIP3    H140846   6.582   2.997   7.100
 6429TIP3    H240847   6.708   3.050   7.164
 6430TIP3   OH240848   1.515   0.548   1.119
 6430TIP3    H140849   1.474   0.491   1.185
 6430TIP3    H240850   1.577   0.601   1.169
 6431TIP3   OH240851   0.049   4.518   2.689
 6431TIP3    H140852   0.013   4.565   2.764
 6431TIP3    H240853   0.107   4.582   2.647
 6432TIP3   OH240854   1.644   4.357   1.143
 6432TIP3    H140855   1.720   4.411   1.120
 6432TIP3    H240856   1.600   4.339   1.060
 6433TIP3   OH240857   4.729   5.569   6.951
 6433TIP3    H140858   4.752   5.650   6.997
 6433TIP3    H240859   4.808   5.516   6.954
 6434TIP3   OH240860   5.043   6.128   8.436
 6434TIP3    H140861   5.004   6.169   8.513
 6434TIP3    H240862   4.998   6.044   8.428
 6435TIP3   OH240863   1.732   1.240   1.146
 6435TIP3    H140864   1.723   1.218   1.238
 6435TIP3    H240865   1.826   1.248   1.132
 6436TIP3   OH240866   3.290   2.073   8.230
 6436TIP3    H140867   3.354   2.008   8.200
 6436TIP3    H240868   3.271   2.125   8.153
 6437TIP3   OH240869   3.755   3.970   8.481
 6437TIP3    H140870   3.781   3.920   8.404
 6437TIP3    H240871   3.775   4.061   8.460
 6438TIP3   OH240872   2.470   2.101   1.173
 6438TIP3    H140873   2.396   2.131   1.120
 6438TIP3    H240874   2.531   2.175   1.174
 6439TIP3   OH240875   6.604   3.556   1.540
 6439TIP3    H140876   6.614   3.554   1.444
 6439TIP3    H240877   6.515   3.587   1.554
 6440TIP3   OH240878   3.696   2.446   0.243
 6440TIP3    H140879   3.710   2.369   0.188
 6440TIP3    H240880   3.724   2.418   0.330
 6441TIP3   OH240881   3.488   6.515   1.805
 6441TIP3    H140882   3.537   6.539   1.727
 6441TIP3    H240883   3.527   6.432   1.833
 6442TIP3   OH240884   2.409   0.444   6.442
 6442TIP3    H140885   2.378   0.529   6.473
 6442TIP3    H240886   2.448   0.462   6.357
 6443TIP3   OH240887   0.092   3.410   1.074
 6443TIP3    H140888   0.093   3.467   0.997
 6443TIP3    H240889   0.063   3.467   1.146
 6444TIP3   OH240890   3.795   2.739   0.390
 6444TIP3    H140891   3.843   2.665   0.427
 6444TIP3    H240892   3.862   2.805   0.372
 6445TIP3   OH240893   6.583   6.532   1.973
 6445TIP3    H140894   6.615   6.531   2.063
 6445TIP3    H240895   6.533   6.613   1.966
 6446TIP3   OH240896   1.318   4.855   0.500
 6446TIP3    H140897   1.349   4.879   0.413
 6446TIP3    H240898   1.263   4.778   0.485
 6447TIP3   OH240899   1.980   0.332   2.290
 6447TIP3    H140900   1.948   0.397   2.353
 6447TIP3    H240901   1.931   0.252   2.312
 6448TIP3   OH240902   2.959   1.322   8.149
 6448TIP3    H140903   3.053   1.325   8.166
 6448TIP3    H240904   2.947   1.371   8.068
 6449TIP3   OH240905   3.964   4.596   1.534
 6449TIP3    H140906   3.933   4.549   1.457
 6449TIP3    H240907   3.977   4.528   1.600
 6450TIP3   OH240908   5.729   5.208   1.549
 6450TIP3    H140909   5.672   5.168   1.615
 6450TIP3    H240910   5.679   5.199   1.467
 6451TIP3   OH240911   4.465   1.747   1.955
 6451TIP3    H140912   4.482   1.830   1.909
 6451TIP3    H240913   4.397   1.769   2.019
 6452TIP3   OH240914   2.148   0.103   1.017
 6452TIP3    H140915   2.195   0.073   0.939
 6452TIP3    H240916   2.081   0.036   1.032
 6453TIP3   OH240917   2.221   5.091   8.357
 6453TIP3    H140918   2.178   5.164   8.312
 6453TIP3    H240919   2.154   5.024   8.365
 6454TIP3   OH240920   5.424   2.065   0.087
 6454TIP3    H140921   5.421   2.140   0.147
 6454TIP3    H240922   5.418   1.988   0.144
 6455TIP3   OH240923   2.763   1.013   0.877
 6455TIP3    H140924   2.820   0.971   0.813
 6455TIP3    H240925   2.698   1.060   0.824
 6456TIP3   OH240926   2.289   3.106   0.186
 6456TIP3    H140927   2.379   3.135   0.201
 6456TIP3    H240928   2.290   3.013   0.210
 6457TIP3   OH240929   0.921   1.388   0.664
 6457TIP3    H140930   0.842   1.353   0.621
 6457TIP3    H240931   0.985   1.393   0.593
 6458TIP3   OH240932   0.088   3.854   8.563
 6458TIP3    H140933   0.074   3.794   8.490
 6458TIP3    H240934   0.056   3.938   8.531
 6459TIP3   OH240935   2.997   0.522   6.051
 6459TIP3    H140936   3.045   0.605   6.048
 6459TIP3    H240937   2.912   0.545   6.090
 6460TIP3   OH240938   0.889   5.115   0.884
 6460TIP3    H140939   0.877   5.155   0.970
 6460TIP3    H240940   0.978   5.142   0.858
 6461TIP3   OH240941   5.745   5.905   7.195
 6461TIP3    H140942   5.821   5.963   7.195
 6461TIP3    H240943   5.721   5.897   7.103
 6462TIP3   OH240944   2.250   1.583   1.931
 6462TIP3    H140945   2.243   1.607   1.838
 6462TIP3    H240946   2.315   1.643   1.966
 6463TIP3   OH240947   4.228   5.319   6.661
 6463TIP3    H140948   4.137   5.304   6.687
 6463TIP3    H240949   4.224   5.331   6.566
 6464TIP3   OH240950   0.469   4.628   7.949
 6464TIP3    H140951   0.481   4.574   8.027
 6464TIP3    H240952   0.375   4.636   7.938
 6465TIP3   OH240953   6.061   2.773   7.647
 6465TIP3    H140954   6.147   2.795   7.682
 6465TIP3    H240955   6.002   2.837   7.687
 6466TIP3   OH240956   4.044   5.293   7.485
 6466TIP3    H140957   4.137   5.271   7.490
 6466TIP3    H240958   4.022   5.280   7.393
 6467TIP3   OH240959   2.515   4.321   7.586
 6467TIP3    H140960   2.456   4.259   7.628
 6467TIP3    H240961   2.496   4.405   7.628
 6468TIP3   OH240962   6.685   3.042   8.157
 6468TIP3    H140963   6.704   3.089   8.238
 6468TIP3    H240964   6.744   3.080   8.092
 6469TIP3   OH240965   4.398   3.182   7.732
 6469TIP3    H140966   4.382   3.142   7.647
 6469TIP3    H240967   4.449   3.117   7.781
 6470TIP3   OH240968   3.691   0.104   7.148
 6470TIP3    H140969   3.605   0.106   7.105
 6470TIP3    H240970   3.753   0.095   7.076
 6471TIP3   OH240971   6.610   3.636   8.378
 6471TIP3    H140972   6.580   3.701   8.314
 6471TIP3    H240973   6.590   3.676   8.463
 6472TIP3   OH240974   6.380   3.894   0.028
 6472TIP3    H140975   6.421   3.978   0.051
 6472TIP3    H240976   6.327   3.871   0.104
 6473TIP3   OH240977   3.619   4.519   2.196
 6473TIP3    H140978   3.649   4.588   2.255
 6473TIP3    H240979   3.699   4.483   2.157
 6474TIP3   OH240980   6.467   5.638   7.340
 6474TIP3    H140981   6.455   5.651   7.434
 6474TIP3    H240982   6.419   5.711   7.300
 6475TIP3   OH240983   3.299   5.994   7.996
 6475TIP3    H140984   3.321   6.051   7.923
 6475TIP3    H240985   3.315   6.048   8.074
 6476TIP3   OH240986   5.770   1.999   2.302
 6476TIP3    H140987   5.740   2.072   2.249
 6476TIP3    H240988   5.773   2.033   2.391
 6477TIP3   OH240989   5.167   5.697   8.254
 6477TIP3    H140990   5.253   5.655   8.257
 6477TIP3    H240991   5.184   5.788   8.277
 6478TIP3   OH240992   3.940   3.162   7.243
 6478TIP3    H140993   3.871   3.200   7.189
 6478TIP3    H240994   3.898   3.143   7.327
 6479TIP3   OH240995   1.967   1.314   6.607
 6479TIP3    H140996   2.035   1.382   6.602
 6479TIP3    H240997   1.892   1.352   6.562
 6480TIP3   OH240998   0.552   3.396   1.241
 6480TIP3    H140999   0.581   3.372   1.153
 6480TIP3    H241000   0.512   3.316   1.275
 6481TIP3   OH241001   6.334   1.945   6.930
 6481TIP3    H141002   6.367   1.992   6.853
 6481TIP3    H241003   6.256   1.994   6.956
 6482TIP3   OH241004   2.636   0.344   6.559
 6482TIP3    H141005   2.613   0.355   6.652
 6482TIP3    H241006   2.570   0.395   6.512
 6483TIP3   OH241007   4.165   0.021   0.954
 6483TIP3    H141008   4.150   0.018   1.049
 6483TIP3    H241009   4.205   6.819   0.934
 6484TIP3   OH241010   0.396   4.108   1.061
 6484TIP3    H141011   0.436   4.064   1.136
 6484TIP3    H241012   0.359   4.189   1.098
 6485TIP3   OH241013   5.879   5.310   2.697
 6485TIP3    H141014   5.974   5.300   2.692
 6485TIP3    H241015   5.865   5.382   2.758
 6486TIP3   OH241016   2.555   5.916   2.138
 6486TIP3    H141017   2.634   5.952   2.097
 6486TIP3    H241018   2.565   5.934   2.231
 6487TIP3   OH241019   4.231   1.889   8.206
 6487TIP3    H141020   4.201   1.830   8.137
 6487TIP3    H241021   4.275   1.832   8.269
 6488TIP3   OH241022   3.069   1.831   1.809
 6488TIP3    H141023   3.092   1.894   1.878
 6488TIP3    H241024   2.975   1.819   1.819
 6489TIP3   OH241025   5.977   0.398   7.296
 6489TIP3    H141026   5.925   0.337   7.244
 6489TIP3    H241027   6.001   0.467   7.235
 6490TIP3   OH241028   6.291   5.361   1.588
 6490TIP3    H141029   6.364   5.355   1.650
 6490TIP3    H241030   6.224   5.303   1.624
 6491TIP3   OH241031   1.819   1.077   1.953
 6491TIP3    H141032   1.803   1.168   1.978
 6491TIP3    H241033   1.890   1.049   2.011
 6492TIP3   OH241034   5.136   4.725   7.698
 6492TIP3    H141035   5.172   4.812   7.719
 6492TIP3    H241036   5.041   4.740   7.693
 6493TIP3   OH241037   0.443   5.495   0.733
 6493TIP3    H141038   0.486   5.477   0.816
 6493TIP3    H241039   0.361   5.447   0.737
 6494TIP3   OH241040   5.223   3.090   8.536
 6494TIP3    H141041   5.275   3.090   8.616
 6494TIP3    H241042   5.252   3.012   8.488
 6495TIP3   OH241043   6.388   4.941   0.667
 6495TIP3    H141044   6.324   4.870   0.660
 6495TIP3    H241045   6.381   4.972   0.757
 6496TIP3   OH241046   3.715   0.576   1.329
 6496TIP3    H141047   3.633   0.619   1.355
 6496TIP3    H241048   3.780   0.610   1.390
 6497TIP3   OH241049   1.968   1.021   6.602
 6497TIP3    H141050   2.063   1.014   6.593
 6497TIP3    H241051   1.949   1.114   6.592
 6498TIP3   OH241052   5.554   5.867   0.294
 6498TIP3    H141053   5.522   5.924   0.364
 6498TIP3    H241054   5.479   5.855   0.236
 6499TIP3   OH241055   5.968   4.203   0.393
 6499TIP3    H141056   6.034   4.266   0.364
 6499TIP3    H241057   5.991   4.122   0.348
 6500TIP3   OH241058   6.486   1.854   1.280
 6500TIP3    H141059   6.565   1.896   1.247
 6500TIP3    H241060   6.518   1.784   1.336
 6501TIP3   OH241061   6.476   2.473   8.457
 6501TIP3    H141062   6.570   2.484   8.468
 6501TIP3    H241063   6.465   2.434   8.371
 6502TIP3   OH241064   1.154   0.951   7.237
 6502TIP3    H141065   1.224   0.889   7.219
 6502TIP3    H241066   1.172   1.025   7.179
 6503TIP3   OH241067   5.402   0.707   8.045
 6503TIP3    H141068   5.481   0.710   7.991
 6503TIP3    H241069   5.410   0.783   8.103
 6504TIP3   OH241070   4.273   2.153   8.137
 6504TIP3    H141071   4.368   2.158   8.150
 6504TIP3    H241072   4.253   2.059   8.146
 6505TIP3   OH241073   5.906   6.880   2.781
 6505TIP3    H141074   5.812   6.881   2.766
 6505TIP3    H241075   5.945   0.011   2.694
 6506TIP3   OH241076   3.693   5.217   8.250
 6506TIP3    H141077   3.768   5.183   8.300
 6506TIP3    H241078   3.649   5.276   8.311
 6507TIP3   OH241079   5.510   5.419   6.855
 6507TIP3    H141080   5.478   5.414   6.764
 6507TIP3    H241081   5.551   5.505   6.861
 6508TIP3   OH241082   1.410   3.508   8.117
 6508TIP3    H141083   1.376   3.424   8.149
 6508TIP3    H241084   1.456   3.486   8.037
 6509TIP3   OH241085   5.236   0.142   1.487
 6509TIP3    H141086   5.196   0.223   1.455
 6509TIP3    H241087   5.273   0.166   1.572
 6510TIP3   OH241088   2.915   3.159   8.617
 6510TIP3    H141089   2.867   3.088   0.029
 6510TIP3    H241090   3.006   3.131   8.619
 6511TIP3   OH241091   6.270   1.536   7.903
 6511TIP3    H141092   6.237   1.580   7.982
 6511TIP3    H241093   6.279   1.606   7.838
 6512TIP3   OH241094   2.719   2.707   7.936
 6512TIP3    H141095   2.713   2.778   7.871
 6512TIP3    H241096   2.627   2.686   7.955
 6513TIP3   OH241097   1.069   6.467   6.949
 6513TIP3    H141098   1.163   6.483   6.951
 6513TIP3    H241099   1.050   6.452   6.856
 6514TIP3   OH241100   2.443   2.696   0.478
 6514TIP3    H141101   2.526   2.664   0.515
 6514TIP3    H241102   2.390   2.618   0.467
 6515TIP3   OH241103   2.381   1.619   8.401
 6515TIP3    H141104   2.417   1.655   8.320
 6515TIP3    H241105   2.448   1.559   8.433
 6516TIP3   OH241106   4.656   4.793   0.804
 6516TIP3    H141107   4.627   4.771   0.893
 6516TIP3    H241108   4.665   4.888   0.804
 6517TIP3   OH241109   2.840   0.615   8.481
 6517TIP3    H141110   2.748   0.639   8.487
 6517TIP3    H241111   2.875   0.629   8.569
 6518TIP3   OH241112   4.404   6.876   0.083
 6518TIP3    H141113   4.376   0.008   0.173
 6518TIP3    H241114   4.325   6.845   0.038
 6519TIP3   OH241115   1.580   0.218   6.065
 6519TIP3    H141116   1.524   0.208   5.988
 6519TIP3    H241117   1.661   0.172   6.041
 6520TIP3   OH241118   1.606   2.238   1.331
 6520TIP3    H141119   1.678   2.225   1.392
 6520TIP3    H241120   1.532   2.192   1.372
 6521TIP3   OH241121   0.427   2.740   8.091
 6521TIP3    H141122   0.479   2.660   8.091
 6521TIP3    H241123   0.492   2.810   8.099
 6522TIP3   OH241124   6.488   5.065   1.180
 6522TIP3    H141125   6.581   5.073   1.156
 6522TIP3    H241126   6.489   5.008   1.257
 6523TIP3   OH241127   6.459   3.169   6.572
 6523TIP3    H141128   6.376   3.138   6.609
 6523TIP3    H241129   6.518   3.175   6.647
 6524TIP3   OH241130   3.592   6.249   7.293
 6524TIP3    H141131   3.527   6.313   7.324
 6524TIP3    H241132   3.677   6.292   7.308
 6525TIP3   OH241133   2.327   6.671   7.726
 6525TIP3    H141134   2.359   6.732   7.659
 6525TIP3    H241135   2.235   6.657   7.703
 6526TIP3   OH241136   2.833   0.281   6.396
 6526TIP3    H141137   2.875   0.366   6.389
 6526TIP3    H241138   2.758   0.295   6.454
 6527TIP3   OH241139   1.604   0.309   6.598
 6527TIP3    H141140   1.650   0.235   6.638
 6527TIP3    H241141   1.571   0.275   6.515
 6528TIP3   OH241142   1.888   4.064   7.507
 6528TIP3    H141143   1.880   3.969   7.500
 6528TIP3    H241144   1.914   4.093   7.420
 6529TIP3   OH241145   4.065   0.906   5.821
 6529TIP3    H141146   4.158   0.903   5.798
 6529TIP3    H241147   4.019   0.895   5.738
 6530TIP3   OH241148   6.818   5.401   7.652
 6530TIP3    H141149   0.007   5.338   7.665
 6530TIP3    H241150   6.858   5.472   7.602
 6531TIP3   OH241151   6.084   3.647   1.636
 6531TIP3    H141152   6.067   3.565   1.589
 6531TIP3    H241153   6.016   3.651   1.704
 6532TIP3   OH241154   4.050   6.810   8.400
 6532TIP3    H141155   3.968   6.801   8.352
 6532TIP3    H241156   4.034   6.765   8.483
 6533TIP3   OH241157   0.494   5.190   0.233
 6533TIP3    H141158   0.518   5.174   0.142
 6533TIP3    H241159   0.402   5.162   0.239
 6534TIP3   OH241160   2.718   3.175   8.182
 6534TIP3    H141161   2.783   3.112   8.152
 6534TIP3    H241162   2.769   3.253   8.205
 6535TIP3   OH241163   4.811   5.850   0.932
 6535TIP3    H141164   4.765   5.770   0.956
 6535TIP3    H241165   4.786   5.866   0.841
 6536TIP3   OH241166   0.969   5.381   8.440
 6536TIP3    H141167   0.880   5.348   8.423
 6536TIP3    H241168   0.959   5.476   8.442
 6537TIP3   OH241169   4.233   3.994   0.359
 6537TIP3    H141170   4.194   3.982   0.446
 6537TIP3    H241171   4.321   4.026   0.376
 6538TIP3   OH241172   3.026   6.856   5.999
 6538TIP3    H141173   3.110   6.844   5.955
 6538TIP3    H241174   3.018   0.067   6.010
 6539TIP3   OH241175   2.588   6.300   7.272
 6539TIP3    H141176   2.506   6.251   7.263
 6539TIP3    H241177   2.603   6.339   7.186
 6540TIP3   OH241178   5.440   5.799   1.877
 6540TIP3    H141179   5.372   5.787   1.943
 6540TIP3    H241180   5.502   5.727   1.893
 6541TIP3   OH241181   0.188   6.369   7.176
 6541TIP3    H141182   0.131   6.321   7.236
 6541TIP3    H241183   0.217   6.303   7.113
 6542TIP3   OH241184   3.244   4.062   8.313
 6542TIP3    H141185   3.214   4.052   8.222
 6542TIP3    H241186   3.222   4.152   8.336
 6543TIP3   OH241187   4.347   4.384   7.532
 6543TIP3    H141188   4.435   4.346   7.530
 6543TIP3    H241189   4.358   4.466   7.580
 6544TIP3   OH241190   5.214   5.482   1.345
 6544TIP3    H141191   5.245   5.430   1.271
 6544TIP3    H241192   5.124   5.505   1.323
 6545TIP3   OH241193   3.708   6.356   8.259
 6545TIP3    H141194   3.774   6.424   8.276
 6545TIP3    H241195   3.678   6.373   8.169
 6546TIP3   OH241196   5.636   2.509   8.460
 6546TIP3    H141197   5.633   2.498   8.555
 6546TIP3    H241198   5.719   2.470   8.434
 6547TIP3   OH241199   6.007   1.498   1.856
 6547TIP3    H141200   6.031   1.444   1.931
 6547TIP3    H241201   5.912   1.496   1.854
 6548TIP3   OH241202   4.004   0.144   0.522
 6548TIP3    H141203   3.948   0.113   0.594
 6548TIP3    H241204   4.091   0.150   0.560
 6549TIP3   OH241205   4.976   1.702   1.212
 6549TIP3    H141206   4.958   1.712   1.305
 6549TIP3    H241207   4.928   1.623   1.186
 6550TIP3   OH241208   0.317   4.675   6.637
 6550TIP3    H141209   0.236   4.694   6.589
 6550TIP3    H241210   0.363   4.612   6.582
 6551TIP3   OH241211   3.432   3.762   1.084
 6551TIP3    H141212   3.433   3.796   0.995
 6551TIP3    H241213   3.479   3.828   1.135
 6552TIP3   OH241214   0.483   2.378   7.609
 6552TIP3    H141215   0.404   2.352   7.563
 6552TIP3    H241216   0.467   2.356   7.701
 6553TIP3   OH241217   0.970   3.273   1.220
 6553TIP3    H141218   0.934   3.244   1.136
 6553TIP3    H241219   0.946   3.365   1.226
 6554TIP3   OH241220   4.860   3.112   1.837
 6554TIP3    H141221   4.804   3.087   1.911
 6554TIP3    H241222   4.950   3.099   1.870
 6555TIP3   OH241223   6.578   6.097   8.357
 6555TIP3    H141224   6.516   6.165   8.385
 6555TIP3    H241225   6.625   6.137   8.284
 6556TIP3   OH241226   6.301   1.323   0.296
 6556TIP3    H141227   6.347   1.240   0.287
 6556TIP3    H241228   6.249   1.313   0.376
 6557TIP3   OH241229   0.655   3.369   0.982
 6557TIP3    H141230   0.644   3.459   0.951
 6557TIP3    H241231   0.699   3.324   0.910
 6558TIP3   OH241232   6.364   3.821   7.876
 6558TIP3    H141233   6.373   3.841   7.783
 6558TIP3    H241234   6.327   3.733   7.879
 6559TIP3   OH241235   2.569   5.574   8.401
 6559TIP3    H141236   2.562   5.558   8.307
 6559TIP3    H241237   2.505   5.514   8.440
 6560TIP3   OH241238   3.597   6.768   2.845
 6560TIP3    H141239   3.532   6.813   2.793
 6560TIP3    H241240   3.651   6.838   2.882
 6561TIP3   OH241241   6.475   6.010   1.892
 6561TIP3    H141242   6.418   6.017   1.969
 6561TIP3    H241243   6.443   5.933   1.845
 6562TIP3   OH241244   5.804   2.097   1.543
 6562TIP3    H141245   5.771   2.026   1.598
 6562TIP3    H241246   5.897   2.077   1.533
 6563TIP3   OH241247   4.800   3.118   1.353
 6563TIP3    H141248   4.884   3.099   1.397
 6563TIP3    H241249   4.799   3.213   1.344
 6564TIP3   OH241250   5.043   2.503   1.991
 6564TIP3    H141251   5.081   2.495   2.079
 6564TIP3    H241252   5.114   2.538   1.938
 6565TIP3   OH241253   2.981   1.084   8.580
 6565TIP3    H141254   2.901   1.060   8.534
 6565TIP3    H241255   3.050   1.074   8.515
 6566TIP3   OH241256   0.020   1.276   1.127
 6566TIP3    H141257   6.848   1.236   1.060
 6566TIP3    H241258   0.082   1.207   1.151
 6567TIP3   OH241259   3.840   3.444   7.480
 6567TIP3    H141260   3.800   3.386   7.414
 6567TIP3    H241261   3.884   3.385   7.541
 6568TIP3   OH241262   2.826   0.172   8.405
 6568TIP3    H141263   2.878   0.142   8.330
 6568TIP3    H241264   2.885   0.231   8.452
 6569TIP3   OH241265   1.241   3.722   8.097
 6569TIP3    H141266   1.290   3.747   8.019
 6569TIP3    H241267   1.294   3.652   8.137
 6570TIP3   OH241268   6.771   2.022   0.111
 6570TIP3    H141269   6.677   2.009   0.116
 6570TIP3    H241270   6.784   2.075   0.032
 6571TIP3   OH241271   3.920   6.027   6.750
 6571TIP3    H141272   3.962   5.956   6.799
 6571TIP3    H241273   3.827   6.003   6.748
 6572TIP3   OH241274   3.624   2.402   1.325
 6572TIP3    H141275   3.606   2.389   1.232
 6572TIP3    H241276   3.551   2.360   1.370
 6573TIP3   OH241277   4.547   3.096   6.152
 6573TIP3    H141278   4.614   3.088   6.085
 6573TIP3    H241279   4.464   3.097   6.104
 6574TIP3   OH241280   0.506   3.063   8.567
 6574TIP3    H141281   0.578   3.001   8.554
 6574TIP3    H241282   0.549   3.147   8.583
 6575TIP3   OH241283   4.775   3.343   6.920
 6575TIP3    H141284   4.739   3.255   6.924
 6575TIP3    H241285   4.816   3.348   6.833
 6576TIP3   OH241286   6.122   3.595   7.868
 6576TIP3    H141287   6.034   3.625   7.847
 6576TIP3    H241288   6.142   3.529   7.801
 6577TIP3   OH241289   2.505   5.168   1.224
 6577TIP3    H141290   2.420   5.213   1.216
 6577TIP3    H241291   2.570   5.237   1.210
 6578TIP3   OH241292   4.100   2.753   7.320
 6578TIP3    H141293   4.065   2.694   7.253
 6578TIP3    H241294   4.143   2.695   7.383
 6579TIP3   OH241295   3.451   6.841   0.389
 6579TIP3    H141296   3.380   6.863   0.330
 6579TIP3    H241297   3.472   0.040   0.434
 6580TIP3   OH241298   4.670   2.494   5.804
 6580TIP3    H141299   4.668   2.566   5.866
 6580TIP3    H241300   4.758   2.457   5.811
 6581TIP3   OH241301   5.084   2.095   6.668
 6581TIP3    H141302   5.026   2.058   6.602
 6581TIP3    H241303   5.135   2.161   6.622
 6582TIP3   OH241304   6.053   4.183   7.010
 6582TIP3    H141305   6.102   4.137   6.942
 6582TIP3    H241306   5.966   4.143   7.008
 6583TIP3   OH241307   3.281   0.172   7.520
 6583TIP3    H141308   3.346   0.240   7.537
 6583TIP3    H241309   3.214   0.186   7.587
 6584TIP3   OH241310   2.032   5.202   0.790
 6584TIP3    H141311   2.003   5.227   0.878
 6584TIP3    H241312   2.010   5.110   0.783
 6585TIP3   OH241313   0.758   5.021   8.158
 6585TIP3    H141314   0.663   5.014   8.154
 6585TIP3    H241315   0.789   4.940   8.117
 6586TIP3   OH241316   5.262   1.811   1.476
 6586TIP3    H141317   5.279   1.718   1.460
 6586TIP3    H241318   5.231   1.814   1.567
 6587TIP3   OH241319   0.454   2.874   1.362
 6587TIP3    H141320   0.452   2.857   1.267
 6587TIP3    H241321   0.376   2.830   1.396
 6588TIP3   OH241322   5.783   1.425   0.691
 6588TIP3    H141323   5.688   1.415   0.694
 6588TIP3    H241324   5.800   1.509   0.734
 6589TIP3   OH241325   6.086   3.232   1.779
 6589TIP3    H141326   6.034   3.279   1.844
 6589TIP3    H241327   6.090   3.142   1.811
 6590TIP3   OH241328   2.753   1.000   8.426
 6590TIP3    H141329   2.678   0.981   8.369
 6590TIP3    H241330   2.796   1.075   8.385
 6591TIP3   OH241331   2.180   1.889   6.892
 6591TIP3    H141332   2.202   1.837   6.815
 6591TIP3    H241333   2.137   1.967   6.857
 6592TIP3   OH241334   0.908   0.109   1.575
 6592TIP3    H141335   0.814   0.109   1.592
 6592TIP3    H241336   0.928   0.200   1.552
 6593TIP3   OH241337   1.267   4.996   0.938
 6593TIP3    H141338   1.185   4.951   0.918
 6593TIP3    H241339   1.296   5.031   0.853
 6594TIP3   OH241340   0.343   2.244   2.224
 6594TIP3    H141341   0.383   2.326   2.194
 6594TIP3    H241342   0.387   2.176   2.173
 6595TIP3   OH241343   6.810   4.233   8.595
 6595TIP3    H141344   6.848   4.321   8.589
 6595TIP3    H241345   6.853   4.184   8.525
 6596TIP3   OH241346   5.341   6.402   7.297
 6596TIP3    H141347   5.419   6.435   7.341
 6596TIP3    H241348   5.365   6.315   7.266
 6597TIP3   OH241349   1.325   5.546   6.133
 6597TIP3    H141350   1.312   5.638   6.153
 6597TIP3    H241351   1.326   5.502   6.218
 6598TIP3   OH241352   6.295   1.864   2.369
 6598TIP3    H141353   6.203   1.883   2.352
 6598TIP3    H241354   6.295   1.774   2.403
 6599TIP3   OH241355   5.008   0.932   2.555
 6599TIP3    H141356   5.055   0.866   2.504
 6599TIP3    H241357   5.063   1.010   2.550
 6600TIP3   OH241358   1.355   0.531   0.095
 6600TIP3    H141359   1.296   0.538   0.170
 6600TIP3    H241360   1.420   0.466   0.122
 6601TIP3   OH241361   5.936   0.816   1.594
 6601TIP3    H141362   6.024   0.852   1.585
 6601TIP3    H241363   5.908   0.842   1.682
 6602TIP3   OH241364   6.600   6.040   0.052
 6602TIP3    H141365   6.506   6.024   0.062
 6602TIP3    H241366   6.610   6.134   0.070
 6603TIP3   OH241367   2.692   4.566   7.717
 6603TIP3    H141368   2.755   4.554   7.787
 6603TIP3    H241369   2.737   4.538   7.638
 6604TIP3   OH241370   0.059   4.788   6.999
 6604TIP3    H141371   0.138   4.808   6.950
 6604TIP3    H241372   0.058   4.851   7.071
 6605TIP3   OH241373   6.854   5.632   1.519
 6605TIP3    H141374   6.802   5.617   1.440
 6605TIP3    H241375   0.024   5.709   1.498
 6606TIP3   OH241376   2.268   3.467   1.142
 6606TIP3    H141377   2.276   3.439   1.233
 6606TIP3    H241378   2.178   3.442   1.117
 6607TIP3   OH241379   4.265   6.729   0.603
 6607TIP3    H141380   4.299   6.692   0.521
 6607TIP3    H241381   4.288   6.664   0.670
 6608TIP3   OH241382   4.380   4.543   2.086
 6608TIP3    H141383   4.315   4.580   2.026
 6608TIP3    H241384   4.348   4.454   2.103
 6609TIP3   OH241385   5.428   4.147   0.114
 6609TIP3    H141386   5.417   4.061   0.154
 6609TIP3    H241387   5.464   4.129   0.027
 6610TIP3   OH241388   5.714   3.931   1.629
 6610TIP3    H141389   5.672   3.971   1.706
 6610TIP3    H241390   5.672   3.975   1.554
 6611TIP3   OH241391   6.833   5.818   0.006
 6611TIP3    H141392   6.816   5.793   0.097
 6611TIP3    H241393   6.877   5.742   8.600
 6612TIP3   OH241394   5.390   0.484   1.258
 6612TIP3    H141395   5.365   0.422   1.189
 6612TIP3    H241396   5.342   0.564   1.237
 6613TIP3   OH241397   0.670   1.428   1.912
 6613TIP3    H141398   0.724   1.502   1.941
 6613TIP3    H241399   0.584   1.444   1.952
 6614TIP3   OH241400   3.559   0.678   6.786
 6614TIP3    H141401   3.644   0.721   6.794
 6614TIP3    H241402   3.551   0.657   6.693
 6615TIP3   OH241403   5.883   2.446   8.308
 6615TIP3    H141404   5.886   2.361   8.264
 6615TIP3    H241405   5.961   2.492   8.278
 6616TIP3   OH241406   6.354   4.057   0.379
 6616TIP3    H141407   6.402   3.974   0.375
 6616TIP3    H241408   6.349   4.087   0.289
 6617TIP3   OH241409   1.437   2.832   0.341
 6617TIP3    H141410   1.365   2.854   0.400
 6617TIP3    H241411   1.505   2.796   0.398
 6618TIP3   OH241412   3.387   2.903   7.985
 6618TIP3    H141413   3.402   2.995   7.967
 6618TIP3    H241414   3.295   2.888   7.963
 6619TIP3   OH241415   1.002   1.055   0.185
 6619TIP3    H141416   0.942   1.078   0.256
 6619TIP3    H241417   1.077   1.113   0.197
 6620TIP3   OH241418   4.219   1.736   7.981
 6620TIP3    H141419   4.262   1.675   8.041
 6620TIP3    H241420   4.286   1.758   7.917
 6621TIP3   OH241421   5.171   3.892   8.290
 6621TIP3    H141422   5.140   3.868   8.378
 6621TIP3    H241423   5.102   3.860   8.231
 6622TIP3   OH241424   6.089   4.937   7.193
 6622TIP3    H141425   6.112   4.944   7.100
 6622TIP3    H241426   5.995   4.922   7.194
 6623TIP3   OH241427   1.298   4.227   0.670
 6623TIP3    H141428   1.253   4.307   0.643
 6623TIP3    H241429   1.280   4.220   0.764
 6624TIP3   OH241430   5.748   2.099   6.858
 6624TIP3    H141431   5.664   2.087   6.814
 6624TIP3    H241432   5.744   2.041   6.934
 6625TIP3   OH241433   0.912   3.158   0.988
 6625TIP3    H141434   0.920   3.207   0.906
 6625TIP3    H241435   0.921   3.066   0.963
 6626TIP3   OH241436   1.593   1.832   0.757
 6626TIP3    H141437   1.588   1.927   0.755
 6626TIP3    H241438   1.621   1.807   0.669
 6627TIP3   OH241439   3.892   1.889   6.879
 6627TIP3    H141440   3.898   1.895   6.975
 6627TIP3    H241441   3.799   1.878   6.861
 6628TIP3   OH241442   0.252   6.746   7.419
 6628TIP3    H141443   0.333   6.791   7.443
 6628TIP3    H241444   0.281   6.668   7.372
 6629TIP3   OH241445   2.557   4.719   6.990
 6629TIP3    H141446   2.534   4.784   6.923
 6629TIP3    H241447   2.506   4.745   7.067
 6630TIP3   OH241448   5.297   4.066   2.287
 6630TIP3    H141449   5.205   4.057   2.263
 6630TIP3    H241450   5.300   4.047   2.381
 6631TIP3   OH241451   3.896   1.319   7.761
 6631TIP3    H141452   3.841   1.254   7.806
 6631TIP3    H241453   3.960   1.345   7.827
 6632TIP3   OH241454   0.639   0.021   6.778
 6632TIP3    H141455   0.688   0.050   6.855
 6632TIP3    H241456   0.670   6.815   6.762
 6633TIP3   OH241457   3.822   5.241   0.736
 6633TIP3    H141458   3.843   5.251   0.829
 6633TIP3    H241459   3.735   5.280   0.726
 6634TIP3   OH241460   2.592   6.546   7.428
 6634TIP3    H141461   2.617   6.526   7.337
 6634TIP3    H241462   2.529   6.478   7.451
 6635TIP3   OH241463   1.953   6.533   6.637
 6635TIP3    H141464   2.044   6.510   6.657
 6635TIP3    H241465   1.938   6.499   6.549
 6636TIP3   OH241466   1.619   1.106   0.914
 6636TIP3    H141467   1.683   1.147   0.972
 6636TIP3    H241468   1.595   1.025   0.960
 6637TIP3   OH241469   0.594   2.306   1.838
 6637TIP3    H141470   0.670   2.248   1.829
 6637TIP3    H241471   0.530   2.254   1.886
 6638TIP3   OH241472   1.501   6.545   1.181
 6638TIP3    H141473   1.505   6.640   1.171
 6638TIP3    H241474   1.573   6.512   1.127
 6639TIP3   OH241475   0.342   5.908   1.345
 6639TIP3    H141476   0.323   5.891   1.437
 6639TIP3    H241477   0.285   5.981   1.321
 6640TIP3   OH241478   1.359   4.139   8.410
 6640TIP3    H141479   1.390   4.104   8.327
 6640TIP3    H241480   1.326   4.226   8.388
 6641TIP3   OH241481   6.167   5.473   1.243
 6641TIP3    H141482   6.082   5.446   1.278
 6641TIP3    H241483   6.146   5.529   1.169
 6642TIP3   OH241484   0.226   4.783   1.656
 6642TIP3    H141485   0.226   4.693   1.624
 6642TIP3    H241486   0.226   4.836   1.576
 6643TIP3   OH241487   0.881   1.896   0.437
 6643TIP3    H141488   0.913   1.808   0.457
 6643TIP3    H241489   0.887   1.944   0.520
 6644TIP3   OH241490   1.960   5.698   7.837
 6644TIP3    H141491   1.946   5.611   7.799
 6644TIP3    H241492   1.883   5.713   7.891
 6645TIP3   OH241493   5.261   2.738   1.102
 6645TIP3    H141494   5.167   2.729   1.114
 6645TIP3    H241495   5.271   2.819   1.051
 6646TIP3   OH241496   4.275   2.727   0.355
 6646TIP3    H141497   4.196   2.678   0.379
 6646TIP3    H241498   4.345   2.662   0.360
 6647TIP3   OH241499   5.241   1.388   0.862
 6647TIP3    H141500   5.272   1.479   0.855
 6647TIP3    H241501   5.273   1.345   0.783
 6648TIP3   OH241502   5.777   5.794   7.451
 6648TIP3    H141503   5.786   5.840   7.368
 6648TIP3    H241504   5.775   5.701   7.427
 6649TIP3   OH241505   3.617   4.331   8.469
 6649TIP3    H141506   3.701   4.289   8.452
 6649TIP3    H241507   3.618   4.351   8.562
 6650TIP3   OH241508   3.099   4.636   8.228
 6650TIP3    H141509   3.126   4.548   8.251
 6650TIP3    H241510   3.043   4.664   8.300
 6651TIP3   OH241511   4.208   1.172   0.778
 6651TIP3    H141512   4.230   1.240   0.716
 6651TIP3    H241513   4.113   1.179   0.789
 6652TIP3   OH241514   6.355   3.752   0.277
 6652TIP3    H141515   6.278   3.715   0.320
 6652TIP3    H241516   6.365   3.699   0.198
 6653TIP3   OH241517   3.608   2.065   1.042
 6653TIP3    H141518   3.576   2.059   0.952
 6653TIP3    H241519   3.701   2.088   1.033
 6654TIP3   OH241520   0.998   0.309   8.450
 6654TIP3    H141521   0.952   0.379   8.497
 6654TIP3    H241522   0.986   0.231   8.505
 6655TIP3   OH241523   3.986   0.579   0.374
 6655TIP3    H141524   4.070   0.624   0.368
 6655TIP3    H241525   3.991   0.528   0.454
 6656TIP3   OH241526   2.803   5.732   7.780
 6656TIP3    H141527   2.819   5.651   7.828
 6656TIP3    H241528   2.746   5.783   7.838
 6657TIP3   OH241529   4.881   5.811   1.710
 6657TIP3    H141530   4.864   5.748   1.780
 6657TIP3    H241531   4.960   5.777   1.666
 6658TIP3   OH241532   1.192   6.494   0.133
 6658TIP3    H141533   1.234   6.577   0.154
 6658TIP3    H241534   1.148   6.468   0.214
 6659TIP3   OH241535   6.011   3.916   0.403
 6659TIP3    H141536   6.051   3.977   0.466
 6659TIP3    H241537   6.049   3.831   0.424
 6660TIP3   OH241538   6.739   6.306   1.414
 6660TIP3    H141539   6.786   6.250   1.352
 6660TIP3    H241540   6.646   6.290   1.396
 6661TIP3   OH241541   5.963   0.953   0.224
 6661TIP3    H141542   5.908   1.031   0.214
 6661TIP3    H241543   5.948   0.924   0.313
 6662TIP3   OH241544   4.144   5.973   0.616
 6662TIP3    H141545   4.116   5.982   0.525
 6662TIP3    H241546   4.082   5.911   0.655
 6663TIP3   OH241547   3.273   6.703   6.626
 6663TIP3    H141548   3.363   6.735   6.617
 6663TIP3    H241549   3.257   6.703   6.720
 6664TIP3   OH241550   5.989   5.106   1.496
 6664TIP3    H141551   5.896   5.106   1.519
 6664TIP3    H241552   6.033   5.144   1.573
 6665TIP3   OH241553   2.418   1.234   6.958
 6665TIP3    H141554   2.399   1.177   7.032
 6665TIP3    H241555   2.332   1.261   6.925
 6666TIP3   OH241556   4.588   1.131   2.197
 6666TIP3    H141557   4.628   1.106   2.113
 6666TIP3    H241558   4.630   1.214   2.219
 6667TIP3   OH241559   5.793   0.021   7.191
 6667TIP3    H141560   5.788   6.825   7.136
 6667TIP3    H241561   5.808   6.870   7.280
 6668TIP3   OH241562   3.593   6.777   7.655
 6668TIP3    H141563   3.593   6.748   7.564
 6668TIP3    H241564   3.669   6.733   7.694
 6669TIP3   OH241565   0.661   6.172   1.770
 6669TIP3    H141566   0.610   6.248   1.796
 6669TIP3    H241567   0.612   6.097   1.805
 6670TIP3   OH241568   6.113   1.986   8.333
 6670TIP3    H141569   6.207   1.996   8.316
 6670TIP3    H241570   6.093   2.051   8.400
 6671TIP3   OH241571   4.704   1.347   7.065
 6671TIP3    H141572   4.663   1.303   7.139
 6671TIP3    H241573   4.786   1.383   7.101
 6672TIP3   OH241574   0.371   0.804   7.648
 6672TIP3    H141575   0.408   0.892   7.638
 6672TIP3    H241576   0.426   0.762   7.713
 6673TIP3   OH241577   0.666   5.980   7.093
 6673TIP3    H141578   0.581   6.009   7.128
 6673TIP3    H241579   0.693   6.051   7.034
 6674TIP3   OH241580   5.188   4.774   8.547
 6674TIP3    H141581   5.270   4.818   8.524
 6674TIP3    H241582   5.122   4.819   8.495
 6675TIP3   OH241583   1.923   4.714   0.248
 6675TIP3    H141584   1.855   4.735   0.312
 6675TIP3    H241585   2.005   4.720   0.297
 6676TIP3   OH241586   5.717   6.346   2.385
 6676TIP3    H141587   5.811   6.367   2.392
 6676TIP3    H241588   5.712   6.253   2.408
 6677TIP3   OH241589   5.046   4.970   7.086
 6677TIP3    H141590   5.064   5.005   7.173
 6677TIP3    H241591   4.952   4.954   7.085
 6678TIP3   OH241592   4.804   0.285   8.115
 6678TIP3    H141593   4.727   0.245   8.075
 6678TIP3    H241594   4.851   0.212   8.155
 6679TIP3   OH241595   2.631   6.163   1.274
 6679TIP3    H141596   2.602   6.138   1.362
 6679TIP3    H241597   2.568   6.123   1.215
 6680TIP3   OH241598   3.373   4.894   8.004
 6680TIP3    H141599   3.344   4.813   7.963
 6680TIP3    H241600   3.308   4.911   8.072
 6681TIP3   OH241601   3.134   5.976   2.386
 6681TIP3    H141602   3.184   6.050   2.352
 6681TIP3    H241603   3.199   5.917   2.421
 6682TIP3   OH241604   5.703   4.800   0.354
 6682TIP3    H141605   5.632   4.787   0.416
 6682TIP3    H241606   5.661   4.794   0.268
 6683TIP3   OH241607   1.998   5.711   2.342
 6683TIP3    H141608   2.059   5.747   2.407
 6683TIP3    H241609   1.912   5.741   2.371
 6684TIP3   OH241610   2.810   2.633   0.923
 6684TIP3    H141611   2.877   2.603   0.863
 6684TIP3    H241612   2.850   2.625   1.010
 6685TIP3   OH241613   2.619   4.623   0.384
 6685TIP3    H141614   2.584   4.590   0.302
 6685TIP3    H241615   2.608   4.718   0.378
 6686TIP3   OH241616   0.221   5.013   8.228
 6686TIP3    H141617   0.232   5.088   8.288
 6686TIP3    H241618   0.135   5.027   8.188
 6687TIP3   OH241619   4.792   0.846   6.934
 6687TIP3    H141620   4.846   0.894   6.996
 6687TIP3    H241621   4.852   0.821   6.864
 6688TIP3   OH241622   4.607   4.608   1.285
 6688TIP3    H141623   4.642   4.637   1.369
 6688TIP3    H241624   4.618   4.513   1.286
 6689TIP3   OH241625   5.640   2.168   7.412
 6689TIP3    H141626   5.696   2.216   7.474
 6689TIP3    H241627   5.552   2.176   7.448
 6690TIP3   OH241628   0.434   2.833   1.089
 6690TIP3    H141629   0.463   2.787   1.010
 6690TIP3    H241630   0.404   2.918   1.058
 6691TIP3   OH241631   3.286   2.881   7.075
 6691TIP3    H141632   3.308   2.793   7.045
 6691TIP3    H241633   3.191   2.881   7.083
 6692TIP3   OH241634   6.358   5.946   0.032
 6692TIP3    H141635   6.273   5.948   8.620
 6692TIP3    H241636   6.414   5.896   8.603
 6693TIP3   OH241637   0.366   5.942   0.079
 6693TIP3    H141638   0.341   6.031   0.105
 6693TIP3    H241639   0.315   5.885   0.138
 6694TIP3   OH241640   5.588   4.453   0.821
 6694TIP3    H141641   5.636   4.535   0.809
 6694TIP3    H241642   5.652   4.385   0.799
 6695TIP3   OH241643   3.677   1.647   8.219
 6695TIP3    H141644   3.659   1.555   8.235
 6695TIP3    H241645   3.762   1.663   8.261
 6696TIP3   OH241646   5.277   2.888   0.758
 6696TIP3    H141647   5.310   2.798   0.761
 6696TIP3    H241648   5.191   2.881   0.717
 6697TIP3   OH241649   5.933   3.533   8.363
 6697TIP3    H141650   5.967   3.591   8.294
 6697TIP3    H241651   5.987   3.454   8.356
 6698TIP3   OH241652   0.307   1.423   6.338
 6698TIP3    H141653   0.302   1.378   6.254
 6698TIP3    H241654   0.343   1.358   6.398
 6699TIP3   OH241655   1.064   2.615   0.710
 6699TIP3    H141656   0.984   2.598   0.660
 6699TIP3    H241657   1.050   2.701   0.749
 6700TIP3   OH241658   1.743   4.933   7.773
 6700TIP3    H141659   1.733   4.862   7.836
 6700TIP3    H241660   1.831   4.968   7.790
 6701TIP3   OH241661   5.647   0.234   1.344
 6701TIP3    H141662   5.600   0.196   1.418
 6701TIP3    H241663   5.602   0.318   1.329
 6702TIP3   OH241664   4.765   0.069   2.297
 6702TIP3    H141665   4.712   0.144   2.328
 6702TIP3    H241666   4.830   0.108   2.240
 6703TIP3   OH241667   5.492   5.104   1.681
 6703TIP3    H141668   5.446   5.187   1.667
 6703TIP3    H241669   5.489   5.091   1.776
 6704TIP3   OH241670   6.179   4.170   1.202
 6704TIP3    H141671   6.225   4.147   1.283
 6704TIP3    H241672   6.146   4.258   1.217
 6705TIP3   OH241673   2.948   3.660   8.221
 6705TIP3    H141674   2.868   3.612   8.239
 6705TIP3    H241675   2.961   3.651   8.126
 6706TIP3   OH241676   0.284   5.030   1.526
 6706TIP3    H141677   0.244   5.063   1.606
 6706TIP3    H241678   0.294   5.108   1.471
 6707TIP3   OH241679   6.100   1.658   1.654
 6707TIP3    H141680   6.154   1.596   1.607
 6707TIP3    H241681   6.053   1.606   1.718
 6708TIP3   OH241682   3.678   3.728   0.811
 6708TIP3    H141683   3.704   3.751   0.901
 6708TIP3    H241684   3.722   3.644   0.795
 6709TIP3   OH241685   2.714   3.400   6.726
 6709TIP3    H141686   2.693   3.473   6.668
 6709TIP3    H241687   2.678   3.425   6.811
 6710TIP3   OH241688   1.426   6.411   0.722
 6710TIP3    H141689   1.343   6.369   0.740
 6710TIP3    H241690   1.415   6.502   0.751
 6711TIP3   OH241691   6.129   3.029   2.311
 6711TIP3    H141692   6.065   3.069   2.370
 6711TIP3    H241693   6.211   3.028   2.361
 6712TIP3   OH241694   6.117   3.937   1.948
 6712TIP3    H141695   6.032   3.937   1.904
 6712TIP3    H241696   6.097   3.925   2.040
 6713TIP3   OH241697   1.169   2.048   6.797
 6713TIP3    H141698   1.234   1.978   6.792
 6713TIP3    H241699   1.201   2.114   6.735
 6714TIP3   OH241700   4.924   1.953   6.483
 6714TIP3    H141701   4.848   1.965   6.427
 6714TIP3    H241702   4.955   1.864   6.464
 6715TIP3   OH241703   2.012   6.343   1.242
 6715TIP3    H141704   1.933   6.316   1.196
 6715TIP3    H241705   2.056   6.403   1.182
 6716TIP3   OH241706   6.724   5.543   0.136
 6716TIP3    H141707   6.774   5.530   0.056
 6716TIP3    H241708   6.750   5.470   0.192
 6717TIP3   OH241709   5.342   6.030   0.724
 6717TIP3    H141710   5.273   6.064   0.782
 6717TIP3    H241711   5.415   6.011   0.782
 6718TIP3   OH241712   4.093   5.618   0.619
 6718TIP3    H141713   4.062   5.600   0.530
 6718TIP3    H241714   4.054   5.703   0.641
 6719TIP3   OH241715   3.003   2.355   8.431
 6719TIP3    H141716   3.003   2.450   8.434
 6719TIP3    H241717   2.945   2.332   8.358
 6720TIP3   OH241718   2.626   4.683   1.043
 6720TIP3    H141719   2.556   4.683   0.978
 6720TIP3    H241720   2.703   4.651   0.995
 6721TIP3   OH241721   4.076   1.174   7.502
 6721TIP3    H141722   4.096   1.097   7.448
 6721TIP3    H241723   4.130   1.244   7.465
 6722TIP3   OH241724   3.107   4.358   7.417
 6722TIP3    H141725   3.201   4.357   7.401
 6722TIP3    H241726   3.075   4.276   7.378
 6723TIP3   OH241727   3.600   4.587   6.389
 6723TIP3    H141728   3.556   4.530   6.327
 6723TIP3    H241729   3.689   4.552   6.395
 6724TIP3   OH241730   0.184   0.842   6.363
 6724TIP3    H141731   0.205   0.930   6.331
 6724TIP3    H241732   0.251   0.824   6.429
 6725TIP3   OH241733   5.547   1.541   6.534
 6725TIP3    H141734   5.595   1.590   6.601
 6725TIP3    H241735   5.604   1.467   6.514
 6726TIP3   OH241736   3.634   4.982   7.377
 6726TIP3    H141737   3.593   4.945   7.454
 6726TIP3    H241738   3.609   5.075   7.378
 6727TIP3   OH241739   2.284   5.059   2.196
 6727TIP3    H141740   2.327   5.075   2.112
 6727TIP3    H241741   2.191   5.075   2.180
 6728TIP3   OH241742   0.411   5.052   7.124
 6728TIP3    H141743   0.394   5.035   7.031
 6728TIP3    H241744   0.330   5.090   7.156
 6729TIP3   OH241745   6.346   2.442   1.129
 6729TIP3    H141746   6.308   2.511   1.184
 6729TIP3    H241747   6.271   2.388   1.103
 6730TIP3   OH241748   2.548   4.570   8.496
 6730TIP3    H141749   2.631   4.616   8.496
 6730TIP3    H241750   2.482   4.638   8.481
 6731TIP3   OH241751   5.277   0.914   0.407
 6731TIP3    H141752   5.269   0.829   0.450
 6731TIP3    H241753   5.264   0.977   0.478
 6732TIP3   OH241754   2.593   5.867   0.960
 6732TIP3    H141755   2.590   5.778   0.927
 6732TIP3    H241756   2.564   5.860   1.051
 6733TIP3   OH241757   3.263   3.958   7.316
 6733TIP3    H141758   3.355   3.969   7.341
 6733TIP3    H241759   3.256   3.865   7.293
 6734TIP3   OH241760   6.289   0.764   8.546
 6734TIP3    H141761   6.253   0.676   8.553
 6734TIP3    H241762   6.375   0.759   8.589
 6735TIP3   OH241763   1.064   1.797   7.284
 6735TIP3    H141764   1.124   1.805   7.210
 6735TIP3    H241765   1.114   1.828   7.359
 6736TIP3   OH241766   3.805   1.362   7.453
 6736TIP3    H141767   3.825   1.377   7.546
 6736TIP3    H241768   3.786   1.268   7.448
 6737TIP3   OH241769   0.879   1.646   7.406
 6737TIP3    H141770   0.908   1.555   7.417
 6737TIP3    H241771   0.953   1.689   7.363
 6738TIP3   OH241772   4.798   0.330   7.534
 6738TIP3    H141773   4.764   0.410   7.573
 6738TIP3    H241774   4.863   0.299   7.598
 6739TIP3   OH241775   4.319   2.902   1.705
 6739TIP3    H141776   4.304   2.970   1.771
 6739TIP3    H241777   4.413   2.885   1.709
 6740TIP3   OH241778   3.049   2.300   0.931
 6740TIP3    H141779   3.112   2.371   0.944
 6740TIP3    H241780   3.104   2.222   0.918
 6741TIP3   OH241781   0.694   2.172   8.508
 6741TIP3    H141782   0.611   2.141   8.473
 6741TIP3    H241783   0.745   2.092   8.523
 6742TIP3   OH241784   2.968   0.043   6.375
 6742TIP3    H141785   2.917   6.871   6.315
 6742TIP3    H241786   2.929   0.131   6.366
 6743TIP3   OH241787   0.233   4.306   2.512
 6743TIP3    H141788   0.203   4.396   2.498
 6743TIP3    H241789   0.328   4.310   2.501
 6744TIP3   OH241790   3.512   3.086   7.734
 6744TIP3    H141791   3.596   3.052   7.705
 6744TIP3    H241792   3.534   3.161   7.790
 6745TIP3   OH241793   5.366   1.956   7.971
 6745TIP3    H141794   5.423   2.014   7.921
 6745TIP3    H241795   5.305   1.920   7.906
 6746TIP3   OH241796   0.480   2.632   0.878
 6746TIP3    H141797   0.542   2.571   0.918
 6746TIP3    H241798   0.394   2.594   0.897
 6747TIP3   OH241799   4.672   4.912   6.834
 6747TIP3    H141800   4.699   5.003   6.848
 6747TIP3    H241801   4.741   4.860   6.874
 6748TIP3   OH241802   0.357   5.818   8.462
 6748TIP3    H141803   0.432   5.766   8.433
 6748TIP3    H241804   0.393   5.876   8.530
 6749TIP3   OH241805   4.794   6.667   7.343
 6749TIP3    H141806   4.720   6.725   7.363
 6749TIP3    H241807   4.847   6.668   7.423
 6750TIP3   OH241808   2.508   6.662   7.009
 6750TIP3    H141809   2.465   6.605   6.944
 6750TIP3    H241810   2.464   6.641   7.091
 6751TIP3   OH241811   0.860   0.037   0.435
 6751TIP3    H141812   0.769   0.035   0.464
 6751TIP3    H241813   0.910   0.044   0.516
 6752TIP3   OH241814   6.701   2.839   0.984
 6752TIP3    H141815   6.784   2.885   0.999
 6752TIP3    H241816   6.644   2.870   1.055
 6753TIP3   OH241817   1.485   3.010   0.672
 6753TIP3    H141818   1.417   2.958   0.630
 6753TIP3    H241819   1.448   3.035   0.757
 6754TIP3   OH241820   5.735   6.544   8.058
 6754TIP3    H141821   5.791   6.497   7.996
 6754TIP3    H241822   5.735   6.634   8.026
 6755TIP3   OH241823   4.055   6.471   0.945
 6755TIP3    H141824   4.006   6.421   0.879
 6755TIP3    H241825   4.116   6.524   0.894
 6756TIP3   OH241826   2.435   1.230   7.454
 6756TIP3    H141827   2.511   1.200   7.404
 6756TIP3    H241828   2.399   1.302   7.402
 6757TIP3   OH241829   0.114   4.719   0.763
 6757TIP3    H141830   0.063   4.639   0.770
 6757TIP3    H241831   0.199   4.697   0.801
 6758TIP3   OH241832   2.753   0.334   7.598
 6758TIP3    H141833   2.700   0.374   7.667
 6758TIP3    H241834   2.802   0.264   7.643
 6759TIP3   OH241835   0.754   6.520   8.467
 6759TIP3    H141836   0.787   6.468   8.540
 6759TIP3    H241837   0.711   6.455   8.410
 6760TIP3   OH241838   0.472   1.057   7.626
 6760TIP3    H141839   0.526   1.110   7.684
 6760TIP3    H241840   0.444   1.117   7.557
 6761TIP3   OH241841   4.439   5.512   7.020
 6761TIP3    H141842   4.468   5.427   6.989
 6761TIP3    H241843   4.520   5.563   7.028
 6762TIP3   OH241844   4.058   2.290   6.744
 6762TIP3    H141845   4.011   2.305   6.661
 6762TIP3    H241846   4.088   2.200   6.739
 6763TIP3   OH241847   0.622   5.290   8.099
 6763TIP3    H141848   0.710   5.274   8.063
 6763TIP3    H241849   0.577   5.206   8.089
 6764TIP3   OH241850   5.020   4.074   2.212
 6764TIP3    H141851   4.948   4.020   2.245
 6764TIP3    H241852   4.977   4.151   2.175
 6765TIP3   OH241853   0.513   1.288   8.503
 6765TIP3    H141854   0.574   1.358   8.482
 6765TIP3    H241855   0.444   1.330   8.554
 6766TIP3   OH241856   2.655   1.611   1.392
 6766TIP3    H141857   2.616   1.693   1.362
 6766TIP3    H241858   2.672   1.626   1.485
 6767TIP3   OH241859   4.750   1.426   7.420
 6767TIP3    H141860   4.789   1.501   7.374
 6767TIP3    H241861   4.824   1.387   7.468
 6768TIP3   OH241862   3.262   1.363   7.464
 6768TIP3    H141863   3.252   1.399   7.375
 6768TIP3    H241864   3.285   1.272   7.450
 6769TIP3   OH241865   4.117   6.513   6.826
 6769TIP3    H141866   4.086   6.427   6.798
 6769TIP3    H241867   4.067   6.575   6.773
 6770TIP3   OH241868   4.062   5.313   7.858
 6770TIP3    H141869   4.010   5.304   7.779
 6770TIP3    H241870   4.010   5.270   7.926
 6771TIP3   OH241871   4.181   1.097   8.446
 6771TIP3    H141872   4.236   1.171   8.420
 6771TIP3    H241873   4.224   1.062   8.524
 6772TIP3   OH241874   2.150   4.344   1.604
 6772TIP3    H141875   2.246   4.338   1.606
 6772TIP3    H241876   2.131   4.414   1.542
 6773TIP3   OH241877   5.451   1.016   8.167
 6773TIP3    H141878   5.536   1.022   8.122
 6773TIP3    H241879   5.467   0.959   8.241
 6774TIP3   OH241880   0.458   3.478   0.374
 6774TIP3    H141881   0.497   3.479   0.462
 6774TIP3    H241882   0.444   3.570   0.353
 6775TIP3   OH241883   0.925   1.330   1.165
 6775TIP3    H141884   0.922   1.319   1.070
 6775TIP3    H241885   1.011   1.370   1.182
 6776TIP3   OH241886   2.118   3.872   1.554
 6776TIP3    H141887   2.059   3.908   1.487
 6776TIP3    H241888   2.176   3.814   1.506
 6777TIP3   OH241889   4.684   0.880   0.596
 6777TIP3    H141890   4.604   0.931   0.597
 6777TIP3    H241891   4.682   0.833   0.512
 6778TIP3   OH241892   4.325   4.661   7.945
 6778TIP3    H141893   4.401   4.712   7.973
 6778TIP3    H241894   4.323   4.671   7.850
 6779TIP3   OH241895   5.187   3.627   1.186
 6779TIP3    H141896   5.224   3.637   1.274
 6779TIP3    H241897   5.210   3.537   1.160
 6780TIP3   OH241898   3.750   0.631   0.265
 6780TIP3    H141899   3.788   0.698   0.209
 6780TIP3    H241900   3.825   0.596   0.314
 6781TIP3   OH241901   5.748   4.294   7.850
 6781TIP3    H141902   5.687   4.261   7.784
 6781TIP3    H241903   5.785   4.215   7.890
 6782TIP3   OH241904   6.718   0.070   0.453
 6782TIP3    H141905   6.681   0.155   0.428
 6782TIP3    H241906   6.709   0.016   0.375
 6783TIP3   OH241907   3.479   0.743   0.094
 6783TIP3    H141908   3.555   0.801   0.092
 6783TIP3    H241909   3.424   0.774   0.022
 6784TIP3   OH241910   2.936   2.539   7.057
 6784TIP3    H141911   2.899   2.567   6.973
 6784TIP3    H241912   2.901   2.601   7.121
 6785TIP3   OH241913   0.202   1.546   1.632
 6785TIP3    H141914   0.266   1.557   1.561
 6785TIP3    H241915   0.250   1.497   1.699
 6786TIP3   OH241916   0.126   5.102   1.759
 6786TIP3    H141917   0.077   5.164   1.705
 6786TIP3    H241918   0.160   5.154   1.831
 6787TIP3   OH241919   6.068   4.472   7.334
 6787TIP3    H141920   6.104   4.558   7.358
 6787TIP3    H241921   5.994   4.493   7.277
 6788TIP3   OH241922   4.661   5.942   8.360
 6788TIP3    H141923   4.599   5.874   8.389
 6788TIP3    H241924   4.734   5.935   8.421
 6789TIP3   OH241925   2.792   5.210   0.851
 6789TIP3    H141926   2.753   5.127   0.820
 6789TIP3    H241927   2.722   5.274   0.841
 6790TIP3   OH241928   0.803   6.338   0.751
 6790TIP3    H141929   0.734   6.391   0.790
 6790TIP3    H241930   0.794   6.352   0.657
 6791TIP3   OH241931   2.593   5.197   7.026
 6791TIP3    H141932   2.507   5.229   6.998
 6791TIP3    H241933   2.630   5.157   6.947
 6792TIP3   OH241934   1.896   6.062   0.289
 6792TIP3    H141935   1.962   6.122   0.323
 6792TIP3    H241936   1.919   6.051   0.196
 6793TIP3   OH241937   1.673   3.928   1.428
 6793TIP3    H141938   1.681   4.021   1.449
 6793TIP3    H241939   1.587   3.919   1.388
 6794TIP3   OH241940   2.503   1.279   8.166
 6794TIP3    H141941   2.561   1.290   8.091
 6794TIP3    H241942   2.415   1.284   8.128
 6795TIP3   OH241943   2.900   0.753   7.372
 6795TIP3    H141944   2.971   0.728   7.314
 6795TIP3    H241945   2.842   0.677   7.374
 6796TIP3   OH241946   0.283   6.389   0.739
 6796TIP3    H141947   0.203   6.376   0.790
 6796TIP3    H241948   0.312   6.301   0.715
 6797TIP3   OH241949   5.596   3.557   0.850
 6797TIP3    H141950   5.535   3.534   0.780
 6797TIP3    H241951   5.620   3.473   0.890
 6798TIP3   OH241952   0.402   4.160   1.715
 6798TIP3    H141953   0.417   4.065   1.707
 6798TIP3    H241954   0.316   4.174   1.677
 6799TIP3   OH241955   5.958   1.914   7.864
 6799TIP3    H141956   5.924   1.831   7.899
 6799TIP3    H241957   5.951   1.904   7.769
 6800TIP3   OH241958   1.399   0.893   2.645
 6800TIP3    H141959   1.351   0.971   2.672
 6800TIP3    H241960   1.365   0.874   2.557
 6801TIP3   OH241961   3.014   3.023   2.497
 6801TIP3    H141962   3.000   2.929   2.507
 6801TIP3    H241963   3.085   3.030   2.432
 6802TIP3   OH241964   3.432   4.500   8.376
 6802TIP3    H141965   3.344   4.462   8.381
 6802TIP3    H241966   3.486   4.442   8.429
 6803TIP3   OH241967   0.822   3.030   8.208
 6803TIP3    H141968   0.902   3.041   8.258
 6803TIP3    H241969   0.835   3.082   8.129
 6804TIP3   OH241970   3.876   3.946   0.635
 6804TIP3    H141971   3.856   3.865   0.682
 6804TIP3    H241972   3.941   3.990   0.690
 6805TIP3   OH241973   3.658   1.104   0.915
 6805TIP3    H141974   3.578   1.102   0.864
 6805TIP3    H241975   3.676   1.013   0.937
 6806TIP3   OH241976   5.396   6.132   8.600
 6806TIP3    H141977   5.421   6.122   8.508
 6806TIP3    H241978   5.420   6.221   8.623
 6807TIP3   OH241979   3.761   4.135   6.959
 6807TIP3    H141980   3.836   4.113   7.014
 6807TIP3    H241981   3.794   4.203   6.900
 6808TIP3   OH241982   4.740   6.576   0.653
 6808TIP3    H141983   4.832   6.551   0.652
 6808TIP3    H241984   4.704   6.534   0.574
 6809TIP3   OH241985   0.026   3.052   0.489
 6809TIP3    H141986   0.063   3.139   0.503
 6809TIP3    H241987   0.101   2.993   0.490
 6810TIP3   OH241988   3.539   3.999   7.372
 6810TIP3    H141989   3.563   4.055   7.446
 6810TIP3    H241990   3.615   4.000   7.314
 6811TIP3   OH241991   4.407   2.762   7.369
 6811TIP3    H141992   4.337   2.702   7.392
 6811TIP3    H241993   4.488   2.714   7.388
 6812TIP3   OH241994   0.072   4.521   7.218
 6812TIP3    H141995   6.862   4.538   7.232
 6812TIP3    H241996   0.117   4.589   7.268
 6813TIP3   OH241997   0.832   2.358   6.698
 6813TIP3    H141998   0.890   2.312   6.637
 6813TIP3    H241999   0.778   2.414   6.642
 6814TIP3   OH242000   0.695   1.450   0.499
 6814TIP3    H142001   0.729   1.373   0.453
 6814TIP3    H242002   0.703   1.521   0.435
 6815TIP3   OH242003   6.158   6.241   8.545
 6815TIP3    H142004   6.131   6.232   8.453
 6815TIP3    H242005   6.184   6.153   8.571
 6816TIP3   OH242006   6.688   2.331   7.976
 6816TIP3    H142007   6.704   2.356   7.885
 6816TIP3    H242008   6.759   2.372   8.025
 6817TIP3   OH242009   1.444   2.219   6.623
 6817TIP3    H142010   1.469   2.137   6.581
 6817TIP3    H242011   1.496   2.286   6.578
 6818TIP3   OH242012   5.779   2.222   8.188
 6818TIP3    H142013   5.740   2.162   8.252
 6818TIP3    H242014   5.807   2.165   8.116
 6819TIP3   OH242015   5.157   3.014   1.037
 6819TIP3    H142016   5.088   2.969   0.987
 6819TIP3    H242017   5.146   3.106   1.014
 6820TIP3   OH242018   6.799   2.352   6.570
 6820TIP3    H142019   6.832   2.265   6.549
 6820TIP3    H242020   6.874   2.398   6.608
 6821TIP3   OH242021   0.411   2.104   7.923
 6821TIP3    H142022   0.360   2.184   7.934
 6821TIP3    H242023   0.450   2.088   8.010
 6822TIP3   OH242024   1.325   1.535   0.497
 6822TIP3    H142025   1.253   1.476   0.475
 6822TIP3    H242026   1.394   1.478   0.530
 6823TIP3   OH242027   4.813   6.286   8.022
 6823TIP3    H142028   4.904   6.258   8.016
 6823TIP3    H242029   4.773   6.225   8.084
 6824TIP3   OH242030   3.248   2.478   0.920
 6824TIP3    H142031   3.286   2.563   0.942
 6824TIP3    H242032   3.309   2.415   0.957
 6825TIP3   OH242033   5.748   0.784   1.373
 6825TIP3    H142034   5.828   0.765   1.422
 6825TIP3    H242035   5.730   0.704   1.324
 6826TIP3   OH242036   6.178   4.426   7.752
 6826TIP3    H142037   6.142   4.448   7.837
 6826TIP3    H242038   6.186   4.331   7.752
 6827TIP3   OH242039   0.268   0.250   7.055
 6827TIP3    H142040   0.317   0.328   7.027
 6827TIP3    H242041   0.326   0.207   7.117
 6828TIP3   OH242042   2.182   4.916   7.328
 6828TIP3    H142043   2.154   4.935   7.238
 6828TIP3    H242044   2.235   4.992   7.353
 6829TIP3   OH242045   6.456   1.846   7.489
 6829TIP3    H142046   6.528   1.882   7.438
 6829TIP3    H242047   6.378   1.866   7.436
 6830TIP3   OH242048   0.606   6.822   6.449
 6830TIP3    H142049   0.614   6.761   6.376
 6830TIP3    H242050   0.532   6.878   6.424
 6831TIP3   OH242051   0.629   0.354   7.205
 6831TIP3    H142052   0.653   0.434   7.251
 6831TIP3    H242053   0.703   0.295   7.218
 6832TIP3   OH242054   4.475   3.452   1.003
 6832TIP3    H142055   4.554   3.498   0.976
 6832TIP3    H242056   4.441   3.503   1.077
 6833TIP3   OH242057   3.261   1.623   8.192
 6833TIP3    H142058   3.266   1.529   8.204
 6833TIP3    H242059   3.167   1.643   8.194
 6834TIP3   OH242060   5.498   3.748   8.458
 6834TIP3    H142061   5.581   3.783   8.491
 6834TIP3    H242062   5.522   3.665   8.417
 6835TIP3   OH242063   5.861   1.111   1.923
 6835TIP3    H142064   5.862   1.092   2.017
 6835TIP3    H242065   5.777   1.154   1.908
 6836TIP3   OH242066   3.864   6.062   8.039
 6836TIP3    H142067   3.958   6.054   8.057
 6836TIP3    H242068   3.822   6.040   8.122
 6837TIP3   OH242069   6.387   3.587   7.159
 6837TIP3    H142070   6.324   3.570   7.229
 6837TIP3    H242071   6.333   3.619   7.086
 6838TIP3   OH242072   3.598   4.785   1.214
 6838TIP3    H142073   3.508   4.808   1.236
 6838TIP3    H242074   3.637   4.867   1.184
 6839TIP3   OH242075   0.850   2.958   7.174
 6839TIP3    H142076   0.928   2.906   7.152
 6839TIP3    H242077   0.812   2.913   7.249
 6840TIP3   OH242078   4.157   5.500   7.002
 6840TIP3    H142079   4.253   5.505   7.004
 6840TIP3    H242080   4.139   5.433   6.937
 6841TIP3   OH242081   1.957   2.907   7.246
 6841TIP3    H142082   1.910   2.823   7.249
 6841TIP3    H242083   2.049   2.882   7.230
 6842TIP3   OH242084   3.227   5.737   0.901
 6842TIP3    H142085   3.148   5.789   0.912
 6842TIP3    H242086   3.276   5.750   0.982
 6843TIP3   OH242087   4.858   0.778   0.813
 6843TIP3    H142088   4.890   0.840   0.878
 6843TIP3    H242089   4.801   0.829   0.756
 6844TIP3   OH242090   3.100   0.239   7.707
 6844TIP3    H142091   3.109   0.330   7.738
 6844TIP3    H242092   3.035   0.201   7.766
 6845TIP3   OH242093   0.380   0.622   1.977
 6845TIP3    H142094   0.439   0.615   1.903
 6845TIP3    H242095   0.436   0.647   2.051
 6846TIP3   OH242096   5.126   1.367   1.227
 6846TIP3    H142097   5.101   1.338   1.139
 6846TIP3    H242098   5.044   1.366   1.277
 6847TIP3   OH242099   0.364   0.172   5.965
 6847TIP3    H142100   0.327   0.090   5.933
 6847TIP3    H242101   0.319   0.240   5.915
 6848TIP3   OH242102   2.491   0.791   1.473
 6848TIP3    H142103   2.485   0.777   1.568
 6848TIP3    H242104   2.400   0.796   1.443
 6849TIP3   OH242105   2.868   4.672   7.952
 6849TIP3    H142106   2.797   4.714   7.999
 6849TIP3    H242107   2.852   4.578   7.963
 6850TIP3   OH242108   0.603   4.954   1.213
 6850TIP3    H142109   0.636   5.036   1.177
 6850TIP3    H242110   0.676   4.918   1.262
 6851TIP3   OH242111   0.244   1.368   7.656
 6851TIP3    H142112   0.183   1.431   7.616
 6851TIP3    H242113   0.257   1.301   7.589
 6852TIP3   OH242114   3.228   1.332   1.150
 6852TIP3    H142115   3.310   1.379   1.139
 6852TIP3    H242116   3.174   1.360   1.077
 6853TIP3   OH242117   6.034   1.652   0.779
 6853TIP3    H142118   5.941   1.670   0.789
 6853TIP3    H242119   6.045   1.562   0.808
 6854TIP3   OH242120   2.487   3.875   6.956
 6854TIP3    H142121   2.582   3.869   6.969
 6854TIP3    H242122   2.470   3.968   6.946
 6855TIP3   OH242123   4.021   6.831   0.165
 6855TIP3    H142124   3.954   6.788   0.219
 6855TIP3    H242125   4.056   6.761   0.110
 6856TIP3   OH242126   0.658   5.348   7.745
 6856TIP3    H142127   0.571   5.350   7.784
 6856TIP3    H242128   0.718   5.344   7.819
 6857TIP3   OH242129   1.429   0.317   1.240
 6857TIP3    H142130   1.372   0.336   1.315
 6857TIP3    H242131   1.495   0.256   1.275
 6858TIP3   OH242132   2.909   5.024   0.074
 6858TIP3    H142133   2.891   4.938   0.112
 6858TIP3    H242134   2.823   5.062   0.057
 6859TIP3   OH242135   0.909   3.926   6.774
 6859TIP3    H142136   0.988   3.974   6.798
 6859TIP3    H242137   0.844   3.953   6.839
 6860TIP3   OH242138   2.689   1.633   7.792
 6860TIP3    H142139   2.768   1.587   7.820
 6860TIP3    H242140   2.639   1.647   7.873
 6861TIP3   OH242141   1.167   3.876   7.459
 6861TIP3    H142142   1.073   3.863   7.467
 6861TIP3    H242143   1.176   3.943   7.391
 6862TIP3   OH242144   3.484   0.728   1.346
 6862TIP3    H142145   3.446   0.815   1.335
 6862TIP3    H242146   3.421   0.681   1.402
 6863TIP3   OH242147   4.077   4.532   7.950
 6863TIP3    H142148   4.055   4.573   7.866
 6863TIP3    H242149   4.157   4.577   7.978
 6864TIP3   OH242150   2.004   2.775   0.940
 6864TIP3    H142151   2.052   2.828   1.004
 6864TIP3    H242152   1.936   2.731   0.992
 6865TIP3   OH242153   5.539   4.487   7.904
 6865TIP3    H142154   5.493   4.435   7.970
 6865TIP3    H242155   5.617   4.436   7.883
 6866TIP3   OH242156   1.335   1.811   7.969
 6866TIP3    H142157   1.265   1.746   7.979
 6866TIP3    H242158   1.297   1.878   7.911
 6867TIP3   OH242159   5.825   6.862   7.453
 6867TIP3    H142160   5.822   0.063   7.499
 6867TIP3    H242161   5.812   6.797   7.522
 6868TIP3   OH242162   2.242   0.951   7.093
 6868TIP3    H142163   2.198   1.033   7.071
 6868TIP3    H242164   2.238   0.946   7.188
 6869TIP3   OH242165   1.851   0.668   0.547
 6869TIP3    H142166   1.755   0.660   0.545
 6869TIP3    H242167   1.882   0.591   0.499
 6870TIP3   OH242168   1.677   0.190   6.915
 6870TIP3    H142169   1.696   0.149   6.830
 6870TIP3    H242170   1.760   0.187   6.962
 6871TIP3   OH242171   6.753   3.847   0.973
 6871TIP3    H142172   6.753   3.836   0.878
 6871TIP3    H242173   6.699   3.925   0.988
 6872TIP3   OH242174   3.192   0.835   7.486
 6872TIP3    H142175   3.276   0.799   7.513
 6872TIP3    H242176   3.142   0.760   7.456
 6873TIP3   OH242177   1.143   0.143   8.193
 6873TIP3    H142178   1.096   0.069   8.232
 6873TIP3    H242179   1.233   0.113   8.186
 6874TIP3   OH242180   6.476   4.791   6.879
 6874TIP3    H142181   6.483   4.881   6.912
 6874TIP3    H242182   6.474   4.801   6.784
 6875TIP3   OH242183   5.893   0.300   1.456
 6875TIP3    H142184   5.863   0.312   1.546
 6875TIP3    H242185   5.820   0.254   1.413
 6876TIP3   OH242186   4.918   6.506   7.714
 6876TIP3    H142187   4.832   6.475   7.684
 6876TIP3    H242188   4.942   6.574   7.651
 6877TIP3   OH242189   5.018   4.563   0.572
 6877TIP3    H142190   4.971   4.544   0.490
 6877TIP3    H242191   5.086   4.495   0.577
 6878TIP3   OH242192   3.343   1.848   0.253
 6878TIP3    H142193   3.260   1.801   0.245
 6878TIP3    H242194   3.349   1.899   0.172
 6879TIP3   OH242195   5.412   4.997   0.352
 6879TIP3    H142196   5.410   5.029   0.262
 6879TIP3    H242197   5.352   4.922   0.352
 6880TIP3   OH242198   2.811   6.529   1.407
 6880TIP3    H142199   2.766   6.478   1.340
 6880TIP3    H242200   2.875   6.581   1.359
 6881TIP3   OH242201   4.589   0.777   2.028
 6881TIP3    H142202   4.674   0.794   2.070
 6881TIP3    H242203   4.596   0.687   1.996
 6882TIP3   OH242204   0.522   5.914   1.140
 6882TIP3    H142205   0.462   5.895   1.212
 6882TIP3    H242206   0.477   5.884   1.061
 6883TIP3   OH242207   0.658   2.072   6.512
 6883TIP3    H142208   0.640   2.161   6.482
 6883TIP3    H242209   0.648   2.018   6.434
 6884TIP3   OH242210   3.005   2.706   8.193
 6884TIP3    H142211   2.931   2.646   8.201
 6884TIP3    H242212   3.080   2.656   8.226
 6885TIP3   OH242213   3.345   2.410   7.338
 6885TIP3    H142214   3.435   2.439   7.324
 6885TIP3    H242215   3.297   2.489   7.362
 6886TIP3   OH242216   4.824   3.906   8.362
 6886TIP3    H142217   4.840   3.985   8.309
 6886TIP3    H242218   4.782   3.939   8.441
 6887TIP3   OH242219   4.582   1.850   1.199
 6887TIP3    H142220   4.557   1.910   1.269
 6887TIP3    H242221   4.540   1.767   1.222
 6888TIP3   OH242222   6.607   6.664   8.209
 6888TIP3    H142223   6.641   6.586   8.164
 6888TIP3    H242224   6.676   6.729   8.199
 6889TIP3   OH242225   1.248   5.174   1.158
 6889TIP3    H142226   1.254   5.124   1.239
 6889TIP3    H242227   1.223   5.109   1.091
 6890TIP3   OH242228   0.048   6.740   0.705
 6890TIP3    H142229   6.835   6.745   0.705
 6890TIP3    H242230   0.070   6.716   0.615
 6891TIP3   OH242231   3.297   2.146   7.431
 6891TIP3    H142232   3.202   2.133   7.434
 6891TIP3    H242233   3.308   2.239   7.410
 6892TIP3   OH242234   4.605   2.342   0.094
 6892TIP3    H142235   4.583   2.417   0.149
 6892TIP3    H242236   4.543   2.274   0.121
 6893TIP3   OH242237   3.234   3.094   8.403
 6893TIP3    H142238   3.238   3.062   8.494
 6893TIP3    H242239   3.293   3.170   8.402
 6894TIP3   OH242240   4.432   3.669   7.276
 6894TIP3    H142241   4.492   3.630   7.212
 6894TIP3    H242242   4.439   3.763   7.261
 6895TIP3   OH242243   3.774   1.137   1.148
 6895TIP3    H142244   3.715   1.127   1.073
 6895TIP3    H242245   3.782   1.048   1.184
 6896TIP3   OH242246   6.867   0.131   7.904
 6896TIP3    H142247   6.871   0.221   7.872
 6896TIP3    H242248   0.075   0.099   7.896
 6897TIP3   OH242249   3.412   5.812   6.626
 6897TIP3    H142250   3.397   5.745   6.693
 6897TIP3    H242251   3.429   5.761   6.546
 6898TIP3   OH242252   4.556   5.140   1.659
 6898TIP3    H142253   4.608   5.130   1.580
 6898TIP3    H242254   4.513   5.224   1.650
 6899TIP3   OH242255   6.087   2.592   8.205
 6899TIP3    H142256   6.139   2.571   8.128
 6899TIP3    H242257   6.073   2.687   8.199
 6900TIP3   OH242258   0.595   0.968   2.432
 6900TIP3    H142259   0.520   0.963   2.373
 6900TIP3    H242260   0.665   0.922   2.385
 6901TIP3   OH242261   4.842   2.004   1.837
 6901TIP3    H142262   4.894   1.925   1.851
 6901TIP3    H242263   4.759   1.987   1.882
 6902TIP3   OH242264   0.790   2.701   0.790
 6902TIP3    H142265   0.767   2.635   0.855
 6902TIP3    H242266   0.800   2.653   0.708
 6903TIP3   OH242267   6.428   2.079   1.448
 6903TIP3    H142268   6.424   1.997   1.400
 6903TIP3    H242269   6.404   2.055   1.538
 6904TIP3   OH242270   5.996   5.839   6.401
 6904TIP3    H142271   5.928   5.865   6.340
 6904TIP3    H242272   6.007   5.745   6.386
 6905TIP3   OH242273   6.058   5.664   1.081
 6905TIP3    H142274   6.048   5.708   0.997
 6905TIP3    H242275   6.021   5.724   1.145
 6906TIP3   OH242276   4.771   2.087   8.489
 6906TIP3    H142277   4.683   2.108   8.457
 6906TIP3    H242278   4.799   2.165   8.535
 6907TIP3   OH242279   1.604   4.724   8.252
 6907TIP3    H142280   1.697   4.745   8.241
 6907TIP3    H242281   1.602   4.629   8.263
 6908TIP3   OH242282   4.007   3.623   0.654
 6908TIP3    H142283   3.974   3.645   0.567
 6908TIP3    H242284   3.934   3.580   0.698
 6909TIP3   OH242285   0.061   0.486   7.285
 6909TIP3    H142286   0.141   0.458   7.240
 6909TIP3    H242287   0.012   0.534   7.218
 6910TIP3   OH242288   2.015   1.393   7.514
 6910TIP3    H142289   2.028   1.300   7.534
 6910TIP3    H242290   2.073   1.439   7.575
 6911TIP3   OH242291   3.851   2.783   0.098
 6911TIP3    H142292   3.799   2.720   0.148
 6911TIP3    H242293   3.895   2.730   0.031
 6912TIP3   OH242294   1.100   0.009   1.288
 6912TIP3    H142295   1.192   6.869   1.303
 6912TIP3    H242296   1.051   6.829   1.342
 6913TIP3   OH242297   3.843   0.994   6.804
 6913TIP3    H142298   3.843   0.995   6.900
 6913TIP3    H242299   3.933   1.016   6.780
 6914TIP3   OH242300   0.516   0.663   1.539
 6914TIP3    H142301   0.453   0.625   1.479
 6914TIP3    H242302   0.549   0.741   1.493
 6915TIP3   OH242303   4.086   4.173   0.205
 6915TIP3    H142304   4.121   4.110   0.268
 6915TIP3    H242305   3.991   4.162   0.211
 6916TIP3   OH242306   4.023   3.813   8.179
 6916TIP3    H142307   4.081   3.739   8.197
 6916TIP3    H242308   4.072   3.890   8.207
 6917TIP3   OH242309   1.688   5.190   8.194
 6917TIP3    H142310   1.737   5.110   8.176
 6917TIP3    H242311   1.732   5.229   8.269
 6918TIP3   OH242312   4.806   1.788   0.731
 6918TIP3    H142313   4.726   1.832   0.705
 6918TIP3    H242314   4.790   1.762   0.822
 6919TIP3   OH242315   5.735   6.546   0.119
 6919TIP3    H142316   5.716   6.554   0.026
 6919TIP3    H242317   5.816   6.595   0.131
 6920TIP3   OH242318   5.168   3.598   0.168
 6920TIP3    H142319   5.197   3.631   0.083
 6920TIP3    H242320   5.178   3.672   0.228
 6921TIP3   OH242321   5.031   0.090   1.756
 6921TIP3    H142322   5.058   0.019   1.698
 6921TIP3    H242323   5.111   0.139   1.775
 6922TIP3   OH242324   0.686   6.834   1.266
 6922TIP3    H142325   0.725   6.752   1.297
 6922TIP3    H242326   0.745   0.019   1.298
 6923TIP3   OH242327   3.320   0.153   6.108
 6923TIP3    H142328   3.334   0.247   6.119
 6923TIP3    H242329   3.403   0.121   6.072
 6924TIP3   OH242330   0.641   1.466   1.630
 6924TIP3    H142331   0.602   1.427   1.708
 6924TIP3    H242332   0.725   1.420   1.620
 6925TIP3   OH242333   1.611   3.173   8.408
 6925TIP3    H142334   1.524   3.135   8.398
 6925TIP3    H242335   1.660   3.109   8.458
 6926TIP3   OH242336   4.510   6.429   2.744
 6926TIP3    H142337   4.489   6.336   2.751
 6926TIP3    H242338   4.431   6.474   2.774
 6927TIP3   OH242339   0.804   3.442   6.489
 6927TIP3    H142340   0.874   3.484   6.439
 6927TIP3    H242341   0.761   3.384   6.427
 6928TIP3   OH242342   6.677   1.463   8.477
 6928TIP3    H142343   6.675   1.381   8.525
 6928TIP3    H242344   6.760   1.504   8.502
 6929TIP3   OH242345   3.719   4.728   8.118
 6929TIP3    H142346   3.666   4.650   8.103
 6929TIP3    H242347   3.659   4.790   8.160
 6930TIP3   OH242348   4.406   5.232   1.141
 6930TIP3    H142349   4.360   5.279   1.072
 6930TIP3    H242350   4.439   5.153   1.098
 6931TIP3   OH242351   5.918   4.562   0.463
 6931TIP3    H142352   5.937   4.474   0.497
 6931TIP3    H242353   5.824   4.560   0.444
 6932TIP3   OH242354   0.310   2.436   7.195
 6932TIP3    H142355   0.313   2.521   7.150
 6932TIP3    H242356   0.402   2.410   7.203
 6933TIP3   OH242357   0.270   4.250   6.678
 6933TIP3    H142358   0.228   4.166   6.660
 6933TIP3    H242359   0.198   4.309   6.697
 6934TIP3   OH242360   5.419   2.778   1.832
 6934TIP3    H142361   5.460   2.860   1.860
 6934TIP3    H242362   5.336   2.775   1.880
 6935TIP3   OH242363   4.130   0.503   7.293
 6935TIP3    H142364   4.201   0.535   7.349
 6935TIP3    H242365   4.061   0.478   7.354
 6936TIP3   OH242366   1.212   6.093   7.559
 6936TIP3    H142367   1.274   6.146   7.611
 6936TIP3    H242368   1.127   6.113   7.597
 6937TIP3   OH242369   2.637   6.770   0.441
 6937TIP3    H142370   2.651   6.724   0.359
 6937TIP3    H242371   2.700   6.843   0.440
 6938TIP3   OH242372   2.307   1.433   1.343
 6938TIP3    H142373   2.338   1.432   1.252
 6938TIP3    H242374   2.315   1.342   1.372
 6939TIP3   OH242375   4.926   1.094   7.759
 6939TIP3    H142376   5.017   1.074   7.782
 6939TIP3    H242377   4.881   1.009   7.764
 6940TIP3   OH242378   2.846   0.236   7.840
 6940TIP3    H142379   2.857   0.267   7.930
 6940TIP3    H242380   2.841   0.141   7.848
 6941TIP3   OH242381   4.208   3.196   0.699
 6941TIP3    H142382   4.161   3.121   0.734
 6941TIP3    H242383   4.265   3.225   0.770
 6942TIP3   OH242384   5.338   1.231   0.665
 6942TIP3    H142385   5.402   1.163   0.688
 6942TIP3    H242386   5.266   1.183   0.625
 6943TIP3   OH242387   3.815   4.121   0.181
 6943TIP3    H142388   3.754   4.163   0.121
 6943TIP3    H242389   3.808   4.171   0.262
 6944TIP3   OH242390   4.164   3.722   6.756
 6944TIP3    H142391   4.191   3.691   6.670
 6944TIP3    H242392   4.157   3.642   6.809
 6945TIP3   OH242393   1.607   0.168   1.415
 6945TIP3    H142394   1.700   0.156   1.398
 6945TIP3    H242395   1.604   0.212   1.500
 6946TIP3   OH242396   1.157   6.697   8.191
 6946TIP3    H142397   1.092   6.658   8.133
 6946TIP3    H242398   1.121   6.685   8.279
 6947TIP3   OH242399   5.659   3.002   0.486
 6947TIP3    H142400   5.645   3.095   0.466
 6947TIP3    H242401   5.662   3.000   0.582
 6948TIP3   OH242402   5.975   4.402   8.408
 6948TIP3    H142403   6.051   4.344   8.422
 6948TIP3    H242404   5.916   4.382   8.481
 6949TIP3   OH242405   0.107   2.694   7.447
 6949TIP3    H142406   0.169   2.733   7.509
 6949TIP3    H242407   0.139   2.721   7.361
 6950TIP3   OH242408   4.130   5.932   8.159
 6950TIP3    H142409   4.063   5.880   8.115
 6950TIP3    H242410   4.213   5.898   8.125
 6951TIP3   OH242411   5.514   0.036   2.329
 6951TIP3    H142412   5.557   6.844   2.370
 6951TIP3    H242413   5.425   0.034   2.362
 6952TIP3   OH242414   4.052   3.014   1.291
 6952TIP3    H142415   4.098   2.949   1.345
 6952TIP3    H242416   3.962   2.983   1.289
 6953TIP3   OH242417   6.560   3.463   7.972
 6953TIP3    H142418   6.608   3.506   7.901
 6953TIP3    H242419   6.585   3.371   7.967
 6954TIP3   OH242420   0.255   5.510   1.468
 6954TIP3    H142421   0.274   5.416   1.465
 6954TIP3    H242422   0.160   5.515   1.471
 6955TIP3   OH242423   2.144   6.787   6.864
 6955TIP3    H142424   2.192   6.733   6.801
 6955TIP3    H242425   2.114   6.862   6.814
 6956TIP3   OH242426   6.539   0.448   7.446
 6956TIP3    H142427   6.514   0.360   7.416
 6956TIP3    H242428   6.455   0.493   7.456
 6957TIP3   OH242429   4.739   3.542   7.760
 6957TIP3    H142430   4.712   3.523   7.850
 6957TIP3    H242431   4.658   3.544   7.710
 6958TIP3   OH242432   4.516   0.279   8.182
 6958TIP3    H142433   4.580   0.307   8.248
 6958TIP3    H242434   4.443   0.341   8.192
 6959TIP3   OH242435   3.125   3.217   7.117
 6959TIP3    H142436   3.068   3.253   7.049
 6959TIP3    H242437   3.197   3.279   7.123
 6960TIP3   OH242438   1.340   0.368   0.693
 6960TIP3    H142439   1.264   0.337   0.741
 6960TIP3    H242440   1.391   0.417   0.757
 6961TIP3   OH242441   0.905   0.151   0.692
 6961TIP3    H142442   0.825   0.195   0.720
 6961TIP3    H242443   0.967   0.166   0.763
 6962TIP3   OH242444   0.081   3.454   7.869
 6962TIP3    H142445   0.130   3.436   7.789
 6962TIP3    H242446   0.013   3.516   7.843
 6963TIP3   OH242447   5.142   0.679   0.977
 6963TIP3    H142448   5.225   0.679   1.025
 6963TIP3    H242449   5.076   0.659   1.043
 6964TIP3   OH242450   6.411   4.347   8.295
 6964TIP3    H142451   6.429   4.406   8.223
 6964TIP3    H242452   6.460   4.382   8.369
 6965TIP3   OH242453   6.077   5.224   0.396
 6965TIP3    H142454   6.094   5.208   0.489
 6965TIP3    H242455   5.991   5.184   0.380
 6966TIP3   OH242456   0.857   0.239   7.756
 6966TIP3    H142457   0.900   0.159   7.723
 6966TIP3    H242458   0.920   0.278   7.816
 6967TIP3   OH242459   2.627   3.200   7.490
 6967TIP3    H142460   2.571   3.161   7.557
 6967TIP3    H242461   2.566   3.243   7.430
 6968TIP3   OH242462   5.935   1.209   0.680
 6968TIP3    H142463   5.881   1.288   0.679
 6968TIP3    H242464   5.887   1.147   0.624
 6969TIP3   OH242465   1.511   2.733   0.862
 6969TIP3    H142466   1.562   2.697   0.935
 6969TIP3    H242467   1.482   2.819   0.893
 6970TIP3   OH242468   0.334   5.199   1.058
 6970TIP3    H142469   0.293   5.114   1.040
 6970TIP3    H242470   0.411   5.201   1.001
 6971TIP3   OH242471   3.192   1.495   7.742
 6971TIP3    H142472   3.252   1.465   7.811
 6971TIP3    H242473   3.219   1.445   7.664
 6972TIP3   OH242474   2.573   3.668   0.390
 6972TIP3    H142475   2.666   3.669   0.369
 6972TIP3    H242476   2.568   3.702   0.479
 6973TIP3   OH242477   3.348   3.370   7.200
 6973TIP3    H142478   3.399   3.398   7.123
 6973TIP3    H242479   3.396   3.406   7.274
 6974TIP3   OH242480   6.100   0.245   0.266
 6974TIP3    H142481   6.121   0.310   0.333
 6974TIP3    H242482   6.111   0.291   0.183
 6975TIP3   OH242483   2.248   1.081   1.664
 6975TIP3    H142484   2.288   1.047   1.744
 6975TIP3    H242485   2.180   1.140   1.695
 6976TIP3   OH242486   0.423   3.255   7.479
 6976TIP3    H142487   0.383   3.334   7.443
 6976TIP3    H242488   0.483   3.225   7.411
 6977TIP3   OH242489   0.407   6.349   1.169
 6977TIP3    H142490   0.336   6.408   1.146
 6977TIP3    H242491   0.467   6.402   1.222
 6978TIP3   OH242492   5.503   6.615   7.367
 6978TIP3    H142493   5.570   6.645   7.305
 6978TIP3    H242494   5.552   6.593   7.446
 6979TIP3   OH242495   5.301   5.574   0.143
 6979TIP3    H142496   5.333   5.664   0.142
 6979TIP3    H242497   5.263   5.563   0.230
 6980TIP3   OH242498   3.719   1.084   8.149
 6980TIP3    H142499   3.787   1.085   8.216
 6980TIP3    H242500   3.637   1.086   8.199
 6981TIP3   OH242501   3.549   0.025   6.044
 6981TIP3    H142502   3.609   0.058   6.111
 6981TIP3    H242503   3.576   6.817   6.031
 6982TIP3   OH242504   2.727   2.136   8.401
 6982TIP3    H142505   2.669   2.212   8.401
 6982TIP3    H242506   2.792   2.155   8.334
 6983TIP3   OH242507   5.451   5.553   1.665
 6983TIP3    H142508   5.517   5.503   1.618
 6983TIP3    H242509   5.500   5.605   1.729
 6984TIP3   OH242510   5.011   0.732   7.526
 6984TIP3    H142511   5.069   0.773   7.590
 6984TIP3    H242512   4.975   0.656   7.571
 6985TIP3   OH242513   4.255   3.560   7.966
 6985TIP3    H142514   4.241   3.588   8.056
 6985TIP3    H242515   4.262   3.464   7.971
 6986TIP3   OH242516   3.111   1.662   0.540
 6986TIP3    H142517   3.036   1.622   0.585
 6986TIP3    H242518   3.115   1.617   0.456
 6987TIP3   OH242519   2.672   5.699   7.462
 6987TIP3    H142520   2.606   5.668   7.524
 6987TIP3    H242521   2.651   5.653   7.380
 6988TIP3   OH242522   4.401   0.034   7.233
 6988TIP3    H142523   4.376   0.064   7.146
 6988TIP3    H242524   4.352   6.835   7.245
 6989TIP3   OH242525   2.198   2.430   1.620
 6989TIP3    H142526   2.263   2.498   1.598
 6989TIP3    H242527   2.190   2.435   1.715
 6990TIP3   OH242528   4.623   3.291   0.687
 6990TIP3    H142529   4.596   3.295   0.779
 6990TIP3    H242530   4.610   3.380   0.655
 6991TIP3   OH242531   6.303   3.698   6.907
 6991TIP3    H142532   6.223   3.739   6.872
 6991TIP3    H242533   6.372   3.726   6.847
 6992TIP3   OH242534   2.898   4.931   7.177
 6992TIP3    H142535   2.815   4.947   7.131
 6992TIP3    H242536   2.875   4.940   7.270
 6993TIP3   OH242537   4.382   5.857   8.132
 6993TIP3    H142538   4.448   5.818   8.074
 6993TIP3    H242539   4.428   5.866   8.216
 6994TIP3   OH242540   1.949   6.256   7.729
 6994TIP3    H142541   1.912   6.170   7.746
 6994TIP3    H242542   2.041   6.248   7.754
 6995TIP3   OH242543   3.012   1.790   6.412
 6995TIP3    H142544   2.925   1.802   6.374
 6995TIP3    H242545   3.044   1.708   6.373
 6996TIP3   OH242546   0.698   4.802   7.998
 6996TIP3    H142547   0.611   4.764   7.999
 6996TIP3    H242548   0.749   4.745   7.941
 6997TIP3   OH242549   2.189   2.141   7.771
 6997TIP3    H142550   2.274   2.171   7.739
 6997TIP3    H242551   2.143   2.110   7.693
 6998TIP3   OH242552   4.709   6.441   0.395
 6998TIP3    H142553   4.701   6.364   0.339
 6998TIP3    H242554   4.802   6.445   0.417
 6999TIP3   OH242555   6.031   6.786   8.156
 6999TIP3    H142556   5.951   6.747   8.123
 6999TIP3    H242557   6.100   6.751   8.099
 7000TIP3   OH242558   6.793   4.325   2.253
 7000TIP3    H142559   6.739   4.246   2.243
 7000TIP3    H242560   6.778   4.353   2.343
 7001TIP3   OH242561   1.930   0.083   8.428
 7001TIP3    H142562   2.016   0.096   8.468
 7001TIP3    H242563   1.868   0.092   8.501
 7002TIP3   OH242564   1.083   4.802   8.386
 7002TIP3    H142565   1.137   4.872   8.350
 7002TIP3    H242566   1.005   4.846   8.420
 7003TIP3   OH242567   2.329   4.663   1.795
 7003TIP3    H142568   2.348   4.740   1.741
 7003TIP3    H242569   2.325   4.591   1.732
 7004TIP3   OH242570   2.524   5.210   8.246
 7004TIP3    H142571   2.532   5.136   8.307
 7004TIP3    H242572   2.430   5.221   8.235
 7005TIP3   OH242573   3.667   5.619   0.056
 7005TIP3    H142574   3.581   5.591   0.088
 7005TIP3    H242575   3.649   5.658   8.602
 7006TIP3   OH242576   5.866   4.525   6.132
 7006TIP3    H142577   5.773   4.530   6.108
 7006TIP3    H242578   5.895   4.440   6.098
 7007TIP3   OH242579   5.889   5.564   2.030
 7007TIP3    H142580   5.855   5.481   2.063
 7007TIP3    H242581   5.932   5.541   1.947
 7008TIP3   OH242582   1.033   3.925   0.036
 7008TIP3    H142583   0.984   3.972   8.601
 7008TIP3    H242584   1.010   3.834   0.023
 7009TIP3   OH242585   4.080   3.667   7.430
 7009TIP3    H142586   4.087   3.687   7.523
 7009TIP3    H242587   3.989   3.638   7.419
 7010TIP3   OH242588   3.877   4.121   7.843
 7010TIP3    H142589   3.786   4.150   7.839
 7010TIP3    H242590   3.915   4.171   7.915
 7011TIP3   OH242591   3.087   6.283   0.877
 7011TIP3    H142592   3.124   6.362   0.917
 7011TIP3    H242593   3.052   6.312   0.793
 7012TIP3   OH242594   4.702   1.835   0.396
 7012TIP3    H142595   4.666   1.853   0.483
 7012TIP3    H242596   4.723   1.922   0.361
 7013TIP3   OH242597   0.463   4.125   7.038
 7013TIP3    H142598   0.500   4.198   6.988
 7013TIP3    H242599   0.385   4.163   7.079
 7014TIP3   OH242600   6.227   4.976   0.120
 7014TIP3    H142601   6.271   4.985   0.205
 7014TIP3    H242602   6.239   5.061   0.078
 7015TIP3   OH242603   0.856   6.088   1.586
 7015TIP3    H142604   0.792   6.100   1.656
 7015TIP3    H242605   0.806   6.048   1.515
 7016TIP3   OH242606   6.816   3.165   1.681
 7016TIP3    H142607   6.837   3.180   1.589
 7016TIP3    H242608   0.017   3.171   1.727
 7017TIP3   OH242609   3.711   0.478   2.240
 7017TIP3    H142610   3.721   0.447   2.330
 7017TIP3    H242611   3.621   0.509   2.235
 7018TIP3   OH242612   0.280   2.356   0.418
 7018TIP3    H142613   0.243   2.437   0.453
 7018TIP3    H242614   0.203   2.303   0.394
 7019TIP3   OH242615   5.621   1.125   8.593
 7019TIP3    H142616   5.677   1.128   8.515
 7019TIP3    H242617   5.592   1.034   8.598
 7020TIP3   OH242618   0.615   5.255   1.560
 7020TIP3    H142619   0.640   5.164   1.572
 7020TIP3    H242620   0.524   5.260   1.591
 7021TIP3   OH242621   3.130   2.794   7.910
 7021TIP3    H142622   3.067   2.765   7.976
 7021TIP3    H242623   3.083   2.861   7.860
 7022TIP3   OH242624   3.327   2.686   7.321
 7022TIP3    H142625   3.325   2.767   7.270
 7022TIP3    H242626   3.396   2.699   7.385
 7023TIP3   OH242627   1.735   5.677   7.058
 7023TIP3    H142628   1.729   5.766   7.023
 7023TIP3    H242629   1.645   5.654   7.082
 7024TIP3   OH242630   5.594   4.680   2.160
 7024TIP3    H142631   5.620   4.649   2.247
 7024TIP3    H242632   5.527   4.746   2.177
 7025TIP3   OH242633   1.655   4.023   6.854
 7025TIP3    H142634   1.560   4.024   6.846
 7025TIP3    H242635   1.676   3.938   6.894
 7026TIP3   OH242636   5.689   2.502   0.335
 7026TIP3    H142637   5.699   2.597   0.332
 7026TIP3    H242638   5.658   2.483   0.423
 7027TIP3   OH242639   3.900   4.827   8.532
 7027TIP3    H142640   3.815   4.837   8.574
 7027TIP3    H242641   3.880   4.790   8.446
 7028TIP3   OH242642   0.245   0.384   7.863
 7028TIP3    H142643   0.237   0.439   7.941
 7028TIP3    H242644   0.317   0.325   7.882
 7029TIP3   OH242645   5.597   2.497   0.573
 7029TIP3    H142646   5.618   2.544   0.653
 7029TIP3    H242647   5.526   2.438   0.597
 7030TIP3   OH242648   0.951   2.987   1.257
 7030TIP3    H142649   0.951   3.071   1.211
 7030TIP3    H242650   0.881   2.937   1.214
 7031TIP3   OH242651   4.367   0.298   0.142
 7031TIP3    H142652   4.316   0.256   0.211
 7031TIP3    H242653   4.308   0.297   0.066
 7032TIP3   OH242654   2.449   4.504   6.655
 7032TIP3    H142655   2.385   4.569   6.684
 7032TIP3    H242656   2.524   4.516   6.714
 7033TIP3   OH242657   3.205   4.921   6.936
 7033TIP3    H142658   3.112   4.914   6.912
 7033TIP3    H242659   3.238   4.992   6.882
 7034TIP3   OH242660   2.435   2.757   8.239
 7034TIP3    H142661   2.493   2.823   8.201
 7034TIP3    H242662   2.473   2.673   8.211
 7035TIP3   OH242663   2.475   2.221   7.703
 7035TIP3    H142664   2.451   2.230   7.611
 7035TIP3    H242665   2.559   2.176   7.702
 7036TIP3   OH242666   6.552   6.296   1.792
 7036TIP3    H142667   6.558   6.201   1.806
 7036TIP3    H242668   6.555   6.334   1.879
 7037TIP3   OH242669   4.429   5.099   7.973
 7037TIP3    H142670   4.421   5.184   8.016
 7037TIP3    H242671   4.340   5.064   7.972
 7038TIP3   OH242672   0.904   6.294   1.024
 7038TIP3    H142673   0.879   6.313   0.933
 7038TIP3    H242674   0.828   6.250   1.061
 7039TIP3   OH242675   1.792   4.415   7.955
 7039TIP3    H142676   1.823   4.445   7.869
 7039TIP3    H242677   1.697   4.427   7.951
 7040TIP3   OH242678   1.993   3.904   0.778
 7040TIP3    H142679   1.944   3.828   0.810
 7040TIP3    H242680   2.001   3.890   0.684
 7041TIP3   OH242681   1.048   3.425   0.030
 7041TIP3    H142682   1.124   3.385   0.072
 7041TIP3    H242683   1.035   3.507   0.077
 7042TIP3   OH242684   4.120   0.890   7.391
 7042TIP3    H142685   4.210   0.907   7.366
 7042TIP3    H242686   4.126   0.840   7.473
 7043TIP3   OH242687   3.517   4.122   0.283
 7043TIP3    H142688   3.567   4.116   0.364
 7043TIP3    H242689   3.577   4.088   0.216
 7044TIP3   OH242690   4.706   5.465   7.471
 7044TIP3    H142691   4.648   5.452   7.546
 7044TIP3    H242692   4.789   5.427   7.499
 7045TIP3   OH242693   4.330   4.503   1.580
 7045TIP3    H142694   4.368   4.472   1.498
 7045TIP3    H242695   4.403   4.545   1.626
 7046TIP3   OH242696   2.468   5.875   8.162
 7046TIP3    H142697   2.417   5.797   8.184
 7046TIP3    H242698   2.402   5.943   8.150
 7047TIP3   OH242699   6.372   5.815   0.280
 7047TIP3    H142700   6.410   5.727   0.269
 7047TIP3    H242701   6.369   5.851   0.192
 7048TIP3   OH242702   6.470   1.617   8.577
 7048TIP3    H142703   6.542   1.571   8.535
 7048TIP3    H242704   6.504   1.646   0.030
 7049TIP3   OH242705   2.753   0.645   1.382
 7049TIP3    H142706   2.792   0.679   1.301
 7049TIP3    H242707   2.685   0.708   1.404
 7050TIP3   OH242708   3.933   0.478   7.479
 7050TIP3    H142709   3.903   0.392   7.510
 7050TIP3    H242710   3.858   0.535   7.490
 7051TIP3   OH242711   4.811   5.631   8.333
 7051TIP3    H142712   4.738   5.635   8.272
 7051TIP3    H242713   4.792   5.555   8.388
 7052TIP3   OH242714   5.803   1.256   1.244
 7052TIP3    H142715   5.816   1.339   1.289
 7052TIP3    H242716   5.764   1.199   1.311
 7053TIP3   OH242717   5.604   2.237   1.386
 7053TIP3    H142718   5.675   2.195   1.434
 7053TIP3    H242719   5.532   2.174   1.388
 7054TIP3   OH242720   4.209   1.837   1.838
 7054TIP3    H142721   4.144   1.852   1.907
 7054TIP3    H242722   4.169   1.771   1.781
 7055TIP3   OH242723   5.417   6.189   2.142
 7055TIP3    H142724   5.378   6.247   2.208
 7055TIP3    H242725   5.368   6.107   2.151
 7056TIP3   OH242726   2.158   5.521   1.439
 7056TIP3    H142727   2.099   5.473   1.381
 7056TIP3    H242728   2.104   5.542   1.516
 7057TIP3   OH242729   1.160   2.278   7.892
 7057TIP3    H142730   1.240   2.328   7.907
 7057TIP3    H242731   1.090   2.337   7.920
 7058TIP3   OH242732   1.721   6.341   2.162
 7058TIP3    H142733   1.678   6.404   2.105
 7058TIP3    H242734   1.805   6.382   2.184
 7059TIP3   OH242735   1.140   1.638   6.882
 7059TIP3    H142736   1.234   1.623   6.893
 7059TIP3    H242737   1.116   1.698   6.953
 7060TIP3   OH242738   6.472   3.200   7.787
 7060TIP3    H142739   6.435   3.211   7.875
 7060TIP3    H242740   6.441   3.114   7.759
 7061TIP3   OH242741   3.458   1.408   0.344
 7061TIP3    H142742   3.427   1.452   0.265
 7061TIP3    H242743   3.465   1.478   0.409
 7062TIP3   OH242744   6.874   1.935   1.410
 7062TIP3    H142745   0.012   2.028   1.418
 7062TIP3    H242746   0.068   1.896   1.369
 7063TIP3   OH242747   1.178   3.592   7.459
 7063TIP3    H142748   1.112   3.579   7.528
 7063TIP3    H242749   1.189   3.687   7.454
 7064TIP3   OH242750   6.518   1.402   0.436
 7064TIP3    H142751   6.544   1.494   0.440
 7064TIP3    H242752   6.469   1.394   0.354
 7065TIP3   OH242753   4.481   5.221   6.690
 7065TIP3    H142754   4.385   5.229   6.689
 7065TIP3    H242755   4.513   5.311   6.690
 7066TIP3   OH242756   0.151   4.090   6.898
 7066TIP3    H142757   0.175   4.054   6.812
 7066TIP3    H242758   0.116   4.177   6.878
 7067TIP3   OH242759   6.547   4.130   7.852
 7067TIP3    H142760   6.504   4.215   7.857
 7067TIP3    H242761   6.496   4.081   7.787
 7068TIP3   OH242762   0.601   1.636   7.330
 7068TIP3    H142763   0.569   1.656   7.243
 7068TIP3    H242764   0.688   1.675   7.333
 7069TIP3   OH242765   0.075   1.243   8.596
 7069TIP3    H142766   0.074   1.307   0.035
 7069TIP3    H242767   0.151   1.188   8.614
 7070TIP3   OH242768   5.139   2.215   1.127
 7070TIP3    H142769   5.221   2.195   1.083
 7070TIP3    H242770   5.164   2.234   1.217
 7071TIP3   OH242771   3.370   5.627   8.199
 7071TIP3    H142772   3.365   5.577   8.118
 7071TIP3    H242773   3.336   5.568   8.266
 7072LIG      O42774   4.418   4.881   6.357
 7072LIG     C142775   4.510   4.932   6.263
 7072LIG     C242776   4.477   4.874   6.123
 7072LIG     C342777   4.508   5.080   6.282
 7072LIG     H142778   4.614   4.902   6.286
 7072LIG     H242779   4.468   4.763   6.125
 7072LIG     H342780   4.555   4.896   6.047
 7072LIG     H442781   4.384   4.921   6.083
 7072LIG     H542782   4.582   5.130   6.216
 7072LIG     H642783   4.541   5.124   6.378
 7072LIG     H742784   4.406   5.114   6.255
 7072LIG     H842785   4.475   4.879   6.435
   6.88281   6.88281   8.63153
