Title t= 1400.00000 step= 700000
42785
    1SAPS     N    1   4.177   3.743   6.731
    1SAPS   HN1    2   4.244   3.763   6.654
    1SAPS   HN2    3   4.080   3.754   6.696
    1SAPS   HN3    4   4.192   3.799   6.818
    1SAPS   C12    5   4.182   3.597   6.774
    1SAPS  H12A    6   4.288   3.587   6.787
    1SAPS   C13    7   4.109   3.556   6.907
    1SAPS  O13A    8   4.041   3.649   6.967
    1SAPS  O13B    9   4.132   3.448   6.953
    1SAPS   C11   10   4.127   3.513   6.663
    1SAPS  H11A   11   4.158   3.410   6.691
    1SAPS  H11B   12   4.179   3.518   6.564
    1SAPS     P   13   3.908   3.615   6.559
    1SAPS   O13   14   3.762   3.575   6.563
    1SAPS   O14   15   3.948   3.755   6.600
    1SAPS   O12   16   3.984   3.514   6.648
    1SAPS   O11   17   3.983   3.596   6.425
    1SAPS    C1   18   3.977   3.467   6.359
    1SAPS    HA   19   4.069   3.417   6.396
    1SAPS    HB   20   3.880   3.417   6.381
    1SAPS    C2   21   3.980   3.478   6.201
    1SAPS    HS   22   3.991   3.376   6.160
    1SAPS   O21   23   4.080   3.572   6.155
    1SAPS   C21   24   4.206   3.521   6.163
    1SAPS   O22   25   4.237   3.415   6.206
    1SAPS   C22   26   4.303   3.618   6.091
    1SAPS   H2R   27   4.276   3.725   6.106
    1SAPS   H2S   28   4.396   3.593   6.146
    1SAPS    C3   29   3.844   3.532   6.156
    1SAPS    HX   30   3.822   3.634   6.194
    1SAPS    HY   31   3.762   3.474   6.204
    1SAPS   O31   32   3.823   3.509   6.015
    1SAPS   C31   33   3.817   3.617   5.944
    1SAPS   O32   34   3.789   3.727   5.987
    1SAPS   C32   35   3.843   3.592   5.794
    1SAPS   H2X   36   3.764   3.519   5.767
    1SAPS   H2Y   37   3.939   3.538   5.779
    1SAPS   C23   38   4.325   3.588   5.933
    1SAPS   H3R   39   4.355   3.481   5.933
    1SAPS   H3S   40   4.416   3.640   5.898
    1SAPS   C24   41   4.207   3.610   5.846
    1SAPS   H4R   42   4.124   3.542   5.872
    1SAPS   H4S   43   4.227   3.584   5.740
    1SAPS   C25   44   4.161   3.757   5.860
    1SAPS   H5R   45   4.100   3.785   5.948
    1SAPS   C26   46   4.183   3.854   5.773
    1SAPS   H6R   47   4.148   3.953   5.804
    1SAPS   C27   48   4.251   3.852   5.638
    1SAPS   H7R   49   4.179   3.877   5.557
    1SAPS   H7S   50   4.293   3.750   5.623
    1SAPS   C28   51   4.355   3.958   5.631
    1SAPS   H8R   52   4.388   3.995   5.729
    1SAPS   C29   53   4.413   4.003   5.516
    1SAPS   H9R   54   4.503   4.067   5.522
    1SAPS  C210   55   4.371   3.969   5.376
    1SAPS  H10R   56   4.276   3.912   5.385
    1SAPS  H10S   57   4.454   3.908   5.333
    1SAPS  C211   58   4.341   4.097   5.305
    1SAPS  H11R   59   4.291   4.170   5.370
    1SAPS  C212   60   4.372   4.129   5.181
    1SAPS  H12R   61   4.339   4.227   5.142
    1SAPS  C213   62   4.454   4.052   5.082
    1SAPS  H13R   63   4.400   4.052   4.985
    1SAPS  H13S   64   4.464   3.946   5.113
    1SAPS  C214   65   4.594   4.100   5.057
    1SAPS  H14R   66   4.640   4.152   5.142
    1SAPS  C215   67   4.674   4.061   4.959
    1SAPS  H15R   68   4.778   4.095   4.950
    1SAPS  C216   69   4.636   3.975   4.845
    1SAPS  H16R   70   4.527   3.981   4.824
    1SAPS  H16S   71   4.657   3.871   4.879
    1SAPS  C217   72   4.718   4.014   4.715
    1SAPS  H17R   73   4.698   3.928   4.646
    1SAPS  H17S   74   4.826   4.011   4.740
    1SAPS  C218   75   4.661   4.147   4.659
    1SAPS  H18R   76   4.673   4.235   4.725
    1SAPS  H18S   77   4.553   4.133   4.640
    1SAPS  C219   78   4.730   4.174   4.515
    1SAPS  H19R   79   4.729   4.080   4.457
    1SAPS  H19S   80   4.838   4.198   4.527
    1SAPS  C220   81   4.666   4.285   4.431
    1SAPS  H20R   82   4.686   4.389   4.462
    1SAPS  H20S   83   4.557   4.272   4.412
    1SAPS  H20T   84   4.710   4.273   4.330
    1SAPS   C33   85   3.831   3.719   5.702
    1SAPS   H3X   86   3.899   3.796   5.745
    1SAPS   H3Y   87   3.735   3.775   5.708
    1SAPS   C34   88   3.870   3.692   5.555
    1SAPS   H4X   89   3.820   3.602   5.514
    1SAPS   H4Y   90   3.978   3.670   5.540
    1SAPS   C35   91   3.845   3.802   5.452
    1SAPS   H5X   92   3.854   3.901   5.502
    1SAPS   H5Y   93   3.741   3.792   5.415
    1SAPS   C36   94   3.924   3.782   5.331
    1SAPS   H6X   95   3.908   3.676   5.301
    1SAPS   H6Y   96   4.032   3.799   5.353
    1SAPS   C37   97   3.880   3.876   5.217
    1SAPS   H7X   98   3.912   3.979   5.244
    1SAPS   H7Y   99   3.769   3.887   5.218
    1SAPS   C38  100   3.943   3.820   5.082
    1SAPS   H8X  101   3.890   3.722   5.071
    1SAPS   H8Y  102   4.051   3.810   5.105
    1SAPS   C39  103   3.927   3.898   4.949
    1SAPS   H9X  104   4.007   3.852   4.887
    1SAPS   H9Y  105   3.961   4.003   4.963
    1SAPS  C310  106   3.786   3.895   4.886
    1SAPS  H10X  107   3.707   3.942   4.948
    1SAPS  H10Y  108   3.757   3.789   4.870
    1SAPS  C311  109   3.785   3.972   4.755
    1SAPS  H11X  110   3.868   3.939   4.690
    1SAPS  H11Y  111   3.803   4.078   4.782
    1SAPS  C312  112   3.651   3.961   4.686
    1SAPS  H12X  113   3.573   3.990   4.760
    1SAPS  H12Y  114   3.626   3.855   4.661
    1SAPS  C313  115   3.655   4.045   4.563
    1SAPS  H13X  116   3.746   4.009   4.510
    1SAPS  H13Y  117   3.661   4.155   4.579
    1SAPS  C314  118   3.538   4.010   4.470
    1SAPS  H14X  119   3.448   4.071   4.492
    1SAPS  H14Y  120   3.509   3.903   4.479
    1SAPS  C315  121   3.576   4.040   4.315
    1SAPS  H15X  122   3.662   3.971   4.308
    1SAPS  H15Y  123   3.611   4.145   4.325
    1SAPS  C316  124   3.458   4.020   4.216
    1SAPS  H16X  125   3.399   3.936   4.258
    1SAPS  H16Y  126   3.503   3.983   4.121
    1SAPS  C317  127   3.364   4.140   4.209
    1SAPS  H17X  128   3.404   4.235   4.168
    1SAPS  H17Y  129   3.329   4.160   4.313
    1SAPS  C318  130   3.231   4.129   4.127
    1SAPS  H18X  131   3.192   4.025   4.130
    1SAPS  H18Y  132   3.240   4.160   4.021
    1SAPS  H18Z  133   3.149   4.186   4.176
    2SAPS     N  134   4.550   6.606   6.703
    2SAPS   HN1  135   4.590   6.515   6.735
    2SAPS   HN2  136   4.619   6.655   6.642
    2SAPS   HN3  137   4.536   6.672   6.782
    2SAPS   C12  138   4.427   6.582   6.628
    2SAPS  H12A  139   4.345   6.567   6.698
    2SAPS   C13  140   4.398   6.701   6.531
    2SAPS  O13A  141   4.471   6.804   6.530
    2SAPS  O13B  142   4.288   6.690   6.466
    2SAPS   C11  143   4.448   6.460   6.543
    2SAPS  H11A  144   4.536   6.483   6.480
    2SAPS  H11B  145   4.357   6.438   6.483
    2SAPS     P  146   4.539   6.216   6.531
    2SAPS   O13  147   4.682   6.234   6.516
    2SAPS   O14  148   4.498   6.089   6.600
    2SAPS   O12  149   4.485   6.345   6.620
    2SAPS   O11  150   4.478   6.225   6.387
    2SAPS    C1  151   4.502   6.121   6.285
    2SAPS    HA  152   4.488   6.162   6.182
    2SAPS    HB  153   4.609   6.096   6.295
    2SAPS    C2  154   4.416   5.988   6.305
    2SAPS    HS  155   4.435   5.950   6.407
    2SAPS   O21  156   4.440   5.891   6.203
    2SAPS   C21  157   4.549   5.826   6.225
    2SAPS   O22  158   4.630   5.834   6.318
    2SAPS   C22  159   4.573   5.734   6.104
    2SAPS   H2R  160   4.637   5.654   6.147
    2SAPS   H2S  161   4.476   5.696   6.066
    2SAPS    C3  162   4.264   6.039   6.297
    2SAPS    HX  163   4.248   6.097   6.391
    2SAPS    HY  164   4.189   5.957   6.309
    2SAPS   O31  165   4.250   6.115   6.171
    2SAPS   C31  166   4.202   6.040   6.075
    2SAPS   O32  167   4.154   5.928   6.084
    2SAPS   C32  168   4.218   6.112   5.943
    2SAPS   H2X  169   4.326   6.112   5.915
    2SAPS   H2Y  170   4.186   6.218   5.949
    2SAPS   C23  171   4.658   5.790   5.985
    2SAPS   H3R  172   4.656   5.713   5.905
    2SAPS   H3S  173   4.761   5.808   6.023
    2SAPS   C24  174   4.602   5.927   5.927
    2SAPS   H4R  175   4.600   5.989   6.019
    2SAPS   H4S  176   4.499   5.909   5.890
    2SAPS   C25  177   4.684   5.984   5.818
    2SAPS   H5R  178   4.775   6.031   5.858
    2SAPS   C26  179   4.644   5.998   5.694
    2SAPS   H6R  180   4.721   6.052   5.636
    2SAPS   C27  181   4.503   5.971   5.635
    2SAPS   H7R  182   4.494   6.035   5.545
    2SAPS   H7S  183   4.435   6.015   5.711
    2SAPS   C28  184   4.465   5.830   5.604
    2SAPS   H8R  185   4.449   5.762   5.689
    2SAPS   C29  186   4.490   5.774   5.487
    2SAPS   H9R  187   4.450   5.672   5.477
    2SAPS  C210  188   4.548   5.836   5.366
    2SAPS  H10R  189   4.617   5.766   5.315
    2SAPS  H10S  190   4.619   5.909   5.410
    2SAPS  C211  191   4.449   5.901   5.276
    2SAPS  H11R  192   4.401   5.986   5.326
    2SAPS  C212  193   4.428   5.885   5.143
    2SAPS  H12R  194   4.347   5.942   5.097
    2SAPS  C213  195   4.497   5.769   5.066
    2SAPS  H13R  196   4.504   5.678   5.128
    2SAPS  H13S  197   4.599   5.792   5.028
    2SAPS  C214  198   4.429   5.723   4.943
    2SAPS  H14R  199   4.343   5.658   4.965
    2SAPS  C215  200   4.463   5.746   4.807
    2SAPS  H15R  201   4.398   5.693   4.736
    2SAPS  C216  202   4.572   5.829   4.752
    2SAPS  H16R  203   4.651   5.867   4.820
    2SAPS  H16S  204   4.533   5.918   4.697
    2SAPS  C217  205   4.642   5.735   4.646
    2SAPS  H17R  206   4.567   5.709   4.567
    2SAPS  H17S  207   4.690   5.648   4.694
    2SAPS  C218  208   4.759   5.809   4.577
    2SAPS  H18R  209   4.837   5.826   4.654
    2SAPS  H18S  210   4.712   5.896   4.526
    2SAPS  C219  211   4.827   5.723   4.472
    2SAPS  H19R  212   4.915   5.782   4.436
    2SAPS  H19S  213   4.758   5.709   4.386
    2SAPS  C220  214   4.864   5.583   4.517
    2SAPS  H20R  215   4.913   5.583   4.617
    2SAPS  H20S  216   4.912   5.523   4.437
    2SAPS  H20T  217   4.773   5.525   4.545
    2SAPS   C33  218   4.133   6.033   5.838
    2SAPS   H3X  219   4.029   6.011   5.868
    2SAPS   H3Y  220   4.182   5.934   5.828
    2SAPS   C34  221   4.147   6.114   5.705
    2SAPS   H4X  222   4.248   6.151   5.676
    2SAPS   H4Y  223   4.095   6.209   5.729
    2SAPS   C35  224   4.081   6.041   5.586
    2SAPS   H5X  225   3.990   5.983   5.612
    2SAPS   H5Y  226   4.140   5.952   5.556
    2SAPS   C36  227   4.055   6.128   5.455
    2SAPS   H6X  228   4.138   6.199   5.436
    2SAPS   H6Y  229   3.966   6.193   5.470
    2SAPS   C37  230   4.032   6.041   5.334
    2SAPS   H7X  231   3.953   5.967   5.359
    2SAPS   H7Y  232   4.124   5.984   5.309
    2SAPS   C38  233   3.978   6.110   5.209
    2SAPS   H8X  234   4.057   6.180   5.175
    2SAPS   H8Y  235   3.884   6.168   5.217
    2SAPS   C39  236   3.943   6.011   5.094
    2SAPS   H9X  237   3.881   5.924   5.124
    2SAPS   H9Y  238   4.034   5.970   5.044
    2SAPS  C310  239   3.861   6.076   4.978
    2SAPS  H10X  240   3.901   6.179   4.969
    2SAPS  H10Y  241   3.757   6.079   5.015
    2SAPS  C311  242   3.875   6.009   4.843
    2SAPS  H11X  243   3.982   6.015   4.812
    2SAPS  H11Y  244   3.825   6.077   4.770
    2SAPS  C312  245   3.809   5.875   4.830
    2SAPS  H12X  246   3.703   5.894   4.859
    2SAPS  H12Y  247   3.851   5.812   4.912
    2SAPS  C313  248   3.824   5.814   4.695
    2SAPS  H13X  249   3.787   5.709   4.705
    2SAPS  H13Y  250   3.934   5.802   4.686
    2SAPS  C314  251   3.755   5.896   4.581
    2SAPS  H14X  252   3.790   6.001   4.572
    2SAPS  H14Y  253   3.646   5.897   4.602
    2SAPS  C315  254   3.789   5.830   4.448
    2SAPS  H15X  255   3.733   5.739   4.418
    2SAPS  H15Y  256   3.899   5.814   4.447
    2SAPS  C316  257   3.763   5.922   4.325
    2SAPS  H16X  258   3.793   6.023   4.360
    2SAPS  H16Y  259   3.654   5.920   4.302
    2SAPS  C317  260   3.837   5.884   4.198
    2SAPS  H17X  261   3.782   5.801   4.149
    2SAPS  H17Y  262   3.942   5.863   4.225
    2SAPS  C318  263   3.831   6.001   4.096
    2SAPS  H18X  264   3.893   6.081   4.141
    2SAPS  H18Y  265   3.730   6.037   4.067
    2SAPS  H18Z  266   3.874   5.971   3.997
    3SAPS     N  267   4.396   4.239   6.806
    3SAPS   HN1  268   4.311   4.261   6.750
    3SAPS   HN2  269   4.384   4.278   6.901
    3SAPS   HN3  270   4.475   4.289   6.760
    3SAPS   C12  271   4.424   4.095   6.823
    3SAPS  H12A  272   4.507   4.094   6.891
    3SAPS   C13  273   4.316   4.025   6.898
    3SAPS  O13A  274   4.262   4.097   6.986
    3SAPS  O13B  275   4.304   3.899   6.894
    3SAPS   C11  276   4.452   4.036   6.674
    3SAPS  H11A  277   4.354   4.009   6.629
    3SAPS  H11B  278   4.502   3.939   6.699
    3SAPS     P  279   4.580   4.044   6.457
    3SAPS   O13  280   4.695   3.962   6.493
    3SAPS   O14  281   4.468   3.970   6.393
    3SAPS   O12  282   4.531   4.120   6.583
    3SAPS   O11  283   4.627   4.157   6.360
    3SAPS    C1  284   4.544   4.205   6.254
    3SAPS    HA  285   4.531   4.134   6.170
    3SAPS    HB  286   4.446   4.214   6.306
    3SAPS    C2  287   4.587   4.335   6.192
    3SAPS    HS  288   4.491   4.380   6.161
    3SAPS   O21  289   4.685   4.329   6.081
    3SAPS   C21  290   4.631   4.310   5.960
    3SAPS   O22  291   4.512   4.296   5.937
    3SAPS   C22  292   4.740   4.282   5.856
    3SAPS   H2R  293   4.739   4.172   5.847
    3SAPS   H2S  294   4.697   4.329   5.765
    3SAPS    C3  295   4.634   4.433   6.303
    3SAPS    HX  296   4.733   4.397   6.339
    3SAPS    HY  297   4.555   4.413   6.379
    3SAPS   O31  298   4.630   4.573   6.261
    3SAPS   C31  299   4.754   4.631   6.257
    3SAPS   O32  300   4.856   4.568   6.264
    3SAPS   C32  301   4.734   4.778   6.226
    3SAPS   H2X  302   4.765   4.824   6.322
    3SAPS   H2Y  303   4.625   4.793   6.214
    3SAPS   C23  304   4.881   4.330   5.902
    3SAPS   H3R  305   4.912   4.306   6.006
    3SAPS   H3S  306   4.897   4.440   5.892
    3SAPS   C24  307   4.981   4.261   5.809
    3SAPS   H4R  308   4.972   4.153   5.831
    3SAPS   H4S  309   5.084   4.290   5.839
    3SAPS   C25  310   4.965   4.288   5.660
    3SAPS   H5R  311   4.994   4.391   5.634
    3SAPS   C26  312   4.912   4.201   5.564
    3SAPS   H6R  313   4.915   4.223   5.457
    3SAPS   C27  314   4.854   4.066   5.597
    3SAPS   H7R  315   4.771   4.067   5.670
    3SAPS   H7S  316   4.938   4.011   5.645
    3SAPS   C28  317   4.802   3.989   5.478
    3SAPS   H8R  318   4.766   4.059   5.401
    3SAPS   C29  319   4.799   3.858   5.469
    3SAPS   H9R  320   4.743   3.817   5.383
    3SAPS  C210  321   4.850   3.758   5.574
    3SAPS  H10R  322   4.807   3.656   5.566
    3SAPS  H10S  323   4.813   3.788   5.674
    3SAPS  C211  324   5.001   3.754   5.588
    3SAPS  H11R  325   5.053   3.833   5.532
    3SAPS  C212  326   5.077   3.674   5.662
    3SAPS  H12R  327   5.186   3.686   5.665
    3SAPS  C213  328   5.021   3.567   5.753
    3SAPS  H13R  329   5.058   3.470   5.714
    3SAPS  H13S  330   4.911   3.551   5.754
    3SAPS  C214  331   5.061   3.593   5.898
    3SAPS  H14R  332   5.169   3.608   5.909
    3SAPS  C215  333   4.973   3.586   6.004
    3SAPS  H15R  334   5.026   3.589   6.100
    3SAPS  C216  335   4.822   3.545   6.003
    3SAPS  H16R  336   4.797   3.500   6.101
    3SAPS  H16S  337   4.800   3.470   5.925
    3SAPS  C217  338   4.728   3.663   5.965
    3SAPS  H17R  339   4.631   3.612   5.981
    3SAPS  H17S  340   4.733   3.682   5.856
    3SAPS  C218  341   4.750   3.791   6.053
    3SAPS  H18R  342   4.857   3.821   6.057
    3SAPS  H18S  343   4.720   3.768   6.158
    3SAPS  C219  344   4.676   3.911   6.002
    3SAPS  H19R  345   4.715   3.995   6.064
    3SAPS  H19S  346   4.706   3.926   5.897
    3SAPS  C220  347   4.525   3.914   6.030
    3SAPS  H20R  348   4.519   3.900   6.140
    3SAPS  H20S  349   4.479   3.831   5.972
    3SAPS  H20T  350   4.476   4.010   6.004
    3SAPS   C33  351   4.811   4.821   6.103
    3SAPS   H3X  352   4.913   4.777   6.104
    3SAPS   H3Y  353   4.827   4.930   6.094
    3SAPS   C34  354   4.745   4.774   5.976
    3SAPS   H4X  355   4.642   4.817   5.980
    3SAPS   H4Y  356   4.732   4.665   5.961
    3SAPS   C35  357   4.824   4.832   5.855
    3SAPS   H5X  358   4.824   4.942   5.867
    3SAPS   H5Y  359   4.929   4.798   5.857
    3SAPS   C36  360   4.773   4.789   5.717
    3SAPS   H6X  361   4.665   4.812   5.700
    3SAPS   H6Y  362   4.784   4.680   5.700
    3SAPS   C37  363   4.847   4.874   5.614
    3SAPS   H7X  364   4.958   4.880   5.614
    3SAPS   H7Y  365   4.814   4.978   5.634
    3SAPS   C38  366   4.807   4.830   5.473
    3SAPS   H8X  367   4.703   4.864   5.454
    3SAPS   H8Y  368   4.817   4.720   5.462
    3SAPS   C39  369   4.904   4.882   5.361
    3SAPS   H9X  370   5.007   4.848   5.385
    3SAPS   H9Y  371   4.897   4.992   5.373
    3SAPS  C310  372   4.858   4.826   5.224
    3SAPS  H10X  373   4.845   4.716   5.227
    3SAPS  H10Y  374   4.940   4.860   5.158
    3SAPS  C311  375   4.722   4.889   5.168
    3SAPS  H11X  376   4.722   5.000   5.167
    3SAPS  H11Y  377   4.644   4.856   5.239
    3SAPS  C312  378   4.697   4.838   5.024
    3SAPS  H12X  379   4.592   4.863   4.999
    3SAPS  H12Y  380   4.721   4.729   5.019
    3SAPS  C313  381   4.787   4.913   4.922
    3SAPS  H13X  382   4.896   4.897   4.937
    3SAPS  H13Y  383   4.777   5.024   4.928
    3SAPS  C314  384   4.739   4.884   4.778
    3SAPS  H14X  385   4.645   4.942   4.778
    3SAPS  H14Y  386   4.714   4.776   4.772
    3SAPS  C315  387   4.831   4.927   4.667
    3SAPS  H15X  388   4.925   4.871   4.688
    3SAPS  H15Y  389   4.855   5.035   4.676
    3SAPS  C316  390   4.785   4.911   4.522
    3SAPS  H16X  391   4.693   4.972   4.517
    3SAPS  H16Y  392   4.768   4.805   4.493
    3SAPS  C317  393   4.883   4.974   4.423
    3SAPS  H17X  394   4.978   4.917   4.419
    3SAPS  H17Y  395   4.914   5.076   4.452
    3SAPS  C318  396   4.814   4.966   4.293
    3SAPS  H18X  397   4.854   5.028   4.210
    3SAPS  H18Y  398   4.709   5.004   4.302
    3SAPS  H18Z  399   4.800   4.863   4.255
    4SAPS     N  400   2.020   2.241   6.817
    4SAPS   HN1  401   2.048   2.162   6.880
    4SAPS   HN2  402   2.037   2.203   6.722
    4SAPS   HN3  403   2.079   2.326   6.828
    4SAPS   C12  404   1.876   2.265   6.828
    4SAPS  H12A  405   1.822   2.185   6.781
    4SAPS   C13  406   1.827   2.286   6.972
    4SAPS  O13A  407   1.899   2.257   7.069
    4SAPS  O13B  408   1.720   2.343   6.993
    4SAPS   C11  409   1.852   2.405   6.758
    4SAPS  H11A  410   1.901   2.492   6.806
    4SAPS  H11B  411   1.741   2.409   6.749
    4SAPS     P  412   1.964   2.498   6.533
    4SAPS   O13  413   2.012   2.612   6.615
    4SAPS   O14  414   2.068   2.427   6.457
    4SAPS   O12  415   1.891   2.393   6.624
    4SAPS   O11  416   1.855   2.548   6.429
    4SAPS    C1  417   1.773   2.446   6.366
    4SAPS    HA  418   1.829   2.387   6.290
    4SAPS    HB  419   1.722   2.373   6.432
    4SAPS    C2  420   1.647   2.510   6.288
    4SAPS    HS  421   1.575   2.429   6.263
    4SAPS   O21  422   1.698   2.583   6.171
    4SAPS   C21  423   1.765   2.520   6.076
    4SAPS   O22  424   1.774   2.396   6.069
    4SAPS   C22  425   1.823   2.623   5.985
    4SAPS   H2R  426   1.749   2.704   5.966
    4SAPS   H2S  427   1.892   2.689   6.043
    4SAPS    C3  428   1.578   2.604   6.384
    4SAPS    HX  429   1.632   2.701   6.382
    4SAPS    HY  430   1.586   2.567   6.489
    4SAPS   O31  431   1.442   2.621   6.332
    4SAPS   C31  432   1.343   2.619   6.414
    4SAPS   O32  433   1.339   2.617   6.535
    4SAPS   C32  434   1.217   2.630   6.315
    4SAPS   H2X  435   1.230   2.697   6.227
    4SAPS   H2Y  436   1.136   2.674   6.378
    4SAPS   C23  437   1.886   2.562   5.861
    4SAPS   H3R  438   1.821   2.485   5.814
    4SAPS   H3S  439   1.987   2.522   5.886
    4SAPS   C24  440   1.927   2.677   5.767
    4SAPS   H4R  441   1.999   2.643   5.690
    4SAPS   H4S  442   1.981   2.749   5.832
    4SAPS   C25  443   1.809   2.731   5.689
    4SAPS   H5R  444   1.717   2.742   5.748
    4SAPS   C26  445   1.794   2.737   5.552
    4SAPS   H6R  446   1.701   2.781   5.514
    4SAPS   C27  447   1.887   2.709   5.442
    4SAPS   H7R  448   1.857   2.612   5.396
    4SAPS   H7S  449   1.989   2.693   5.482
    4SAPS   C28  450   1.897   2.829   5.343
    4SAPS   H8R  451   1.937   2.919   5.392
    4SAPS   C29  452   1.859   2.840   5.211
    4SAPS   H9R  453   1.896   2.925   5.153
    4SAPS  C210  454   1.806   2.734   5.125
    4SAPS  H10R  455   1.778   2.648   5.190
    4SAPS  H10S  456   1.891   2.689   5.070
    4SAPS  C211  457   1.692   2.788   5.041
    4SAPS  H11R  458   1.599   2.804   5.098
    4SAPS  C212  459   1.691   2.829   4.912
    4SAPS  H12R  460   1.593   2.859   4.873
    4SAPS  C213  461   1.802   2.829   4.818
    4SAPS  H13R  462   1.901   2.824   4.868
    4SAPS  H13S  463   1.803   2.932   4.777
    4SAPS  C214  464   1.797   2.718   4.715
    4SAPS  H14R  465   1.828   2.618   4.750
    4SAPS  C215  466   1.748   2.733   4.591
    4SAPS  H15R  467   1.751   2.647   4.521
    4SAPS  C216  468   1.703   2.868   4.528
    4SAPS  H16R  469   1.712   2.957   4.594
    4SAPS  H16S  470   1.598   2.861   4.494
    4SAPS  C217  471   1.781   2.917   4.395
    4SAPS  H17R  472   1.781   2.833   4.323
    4SAPS  H17S  473   1.889   2.931   4.413
    4SAPS  C218  474   1.721   3.052   4.334
    4SAPS  H18R  475   1.738   3.136   4.405
    4SAPS  H18S  476   1.611   3.034   4.332
    4SAPS  C219  477   1.787   3.084   4.200
    4SAPS  H19R  478   1.758   3.005   4.128
    4SAPS  H19S  479   1.897   3.073   4.193
    4SAPS  C220  480   1.737   3.220   4.147
    4SAPS  H20R  481   1.628   3.240   4.140
    4SAPS  H20S  482   1.790   3.236   4.050
    4SAPS  H20T  483   1.781   3.300   4.210
    4SAPS   C33  484   1.186   2.491   6.256
    4SAPS   H3X  485   1.085   2.491   6.209
    4SAPS   H3Y  486   1.158   2.423   6.340
    4SAPS   C34  487   1.287   2.432   6.157
    4SAPS   H4X  488   1.232   2.341   6.124
    4SAPS   H4Y  489   1.375   2.387   6.209
    4SAPS   C35  490   1.331   2.522   6.042
    4SAPS   H5X  491   1.410   2.597   6.066
    4SAPS   H5Y  492   1.240   2.572   6.003
    4SAPS   C36  493   1.386   2.438   5.922
    4SAPS   H6X  494   1.310   2.362   5.895
    4SAPS   H6Y  495   1.467   2.385   5.978
    4SAPS   C37  496   1.434   2.522   5.809
    4SAPS   H7X  497   1.544   2.530   5.815
    4SAPS   H7Y  498   1.400   2.627   5.813
    4SAPS   C38  499   1.399   2.458   5.675
    4SAPS   H8X  500   1.291   2.470   5.651
    4SAPS   H8Y  501   1.412   2.348   5.678
    4SAPS   C39  502   1.491   2.519   5.572
    4SAPS   H9X  503   1.593   2.476   5.572
    4SAPS   H9Y  504   1.510   2.628   5.581
    4SAPS  C310  505   1.447   2.482   5.429
    4SAPS  H10X  506   1.347   2.527   5.410
    4SAPS  H10Y  507   1.432   2.372   5.428
    4SAPS  C311  508   1.541   2.524   5.316
    4SAPS  H11X  509   1.634   2.465   5.333
    4SAPS  H11Y  510   1.564   2.632   5.310
    4SAPS  C312  511   1.508   2.483   5.171
    4SAPS  H12X  512   1.586   2.520   5.101
    4SAPS  H12Y  513   1.413   2.536   5.149
    4SAPS  C313  514   1.501   2.327   5.157
    4SAPS  H13X  515   1.410   2.295   5.212
    4SAPS  H13Y  516   1.602   2.286   5.180
    4SAPS  C314  517   1.496   2.291   5.010
    4SAPS  H14X  518   1.419   2.348   4.954
    4SAPS  H14Y  519   1.464   2.185   5.002
    4SAPS  C315  520   1.619   2.305   4.923
    4SAPS  H15X  521   1.689   2.224   4.952
    4SAPS  H15Y  522   1.652   2.407   4.952
    4SAPS  C316  523   1.568   2.289   4.774
    4SAPS  H16X  524   1.470   2.340   4.768
    4SAPS  H16Y  525   1.554   2.180   4.765
    4SAPS  C317  526   1.666   2.354   4.681
    4SAPS  H17X  527   1.659   2.465   4.678
    4SAPS  H17Y  528   1.643   2.318   4.579
    4SAPS  C318  529   1.813   2.334   4.715
    4SAPS  H18X  530   1.849   2.374   4.813
    4SAPS  H18Y  531   1.873   2.378   4.632
    4SAPS  H18Z  532   1.826   2.224   4.720
    5SAPS     N  533   4.915   4.523   6.824
    5SAPS   HN1  534   4.943   4.576   6.739
    5SAPS   HN2  535   4.886   4.586   6.902
    5SAPS   HN3  536   5.001   4.471   6.849
    5SAPS   C12  537   4.797   4.441   6.797
    5SAPS  H12A  538   4.776   4.379   6.883
    5SAPS   C13  539   4.664   4.515   6.754
    5SAPS  O13A  540   4.659   4.638   6.752
    5SAPS  O13B  541   4.560   4.444   6.731
    5SAPS   C11  542   4.830   4.331   6.684
    5SAPS  H11A  543   4.870   4.393   6.602
    5SAPS  H11B  544   4.741   4.275   6.649
    5SAPS     P  545   5.081   4.242   6.675
    5SAPS   O13  546   5.130   4.365   6.728
    5SAPS   O14  547   5.164   4.123   6.714
    5SAPS   O12  548   4.932   4.237   6.730
    5SAPS   O11  549   5.063   4.257   6.515
    5SAPS    C1  550   4.990   4.168   6.429
    5SAPS    HA  551   4.988   4.062   6.463
    5SAPS    HB  552   4.882   4.195   6.423
    5SAPS    C2  553   5.050   4.160   6.290
    5SAPS    HS  554   5.153   4.122   6.303
    5SAPS   O21  555   5.058   4.294   6.229
    5SAPS   C21  556   5.162   4.325   6.169
    5SAPS   O22  557   5.261   4.257   6.159
    5SAPS   C22  558   5.140   4.475   6.118
    5SAPS   H2R  559   5.037   4.480   6.077
    5SAPS   H2S  560   5.150   4.541   6.207
    5SAPS    C3  561   4.972   4.061   6.194
    5SAPS    HX  562   4.874   4.106   6.168
    5SAPS    HY  563   4.964   3.965   6.250
    5SAPS   O31  564   5.030   4.041   6.062
    5SAPS   C31  565   5.123   3.950   6.062
    5SAPS   O32  566   5.160   3.885   6.155
    5SAPS   C32  567   5.168   3.929   5.918
    5SAPS   H2X  568   5.080   3.956   5.855
    5SAPS   H2Y  569   5.193   3.821   5.906
    5SAPS   C23  570   5.255   4.521   6.027
    5SAPS   H3R  571   5.276   4.443   5.951
    5SAPS   H3S  572   5.352   4.547   6.073
    5SAPS   C24  573   5.207   4.647   5.952
    5SAPS   H4R  574   5.161   4.723   6.018
    5SAPS   H4S  575   5.122   4.613   5.888
    5SAPS   C25  576   5.332   4.693   5.878
    5SAPS   H5R  577   5.394   4.755   5.944
    5SAPS   C26  578   5.372   4.669   5.752
    5SAPS   H6R  579   5.460   4.724   5.714
    5SAPS   C27  580   5.297   4.577   5.656
    5SAPS   H7R  581   5.262   4.488   5.713
    5SAPS   H7S  582   5.368   4.541   5.578
    5SAPS   C28  583   5.177   4.649   5.601
    5SAPS   H8R  584   5.143   4.741   5.651
    5SAPS   C29  585   5.098   4.602   5.497
    5SAPS   H9R  586   5.007   4.656   5.464
    5SAPS  C210  587   5.129   4.483   5.408
    5SAPS  H10R  588   5.051   4.405   5.405
    5SAPS  H10S  589   5.217   4.439   5.460
    5SAPS  C211  590   5.154   4.533   5.265
    5SAPS  H11R  591   5.240   4.601   5.256
    5SAPS  C212  592   5.080   4.507   5.153
    5SAPS  H12R  593   5.102   4.553   5.055
    5SAPS  C213  594   4.955   4.430   5.147
    5SAPS  H13R  595   4.871   4.502   5.143
    5SAPS  H13S  596   4.942   4.359   5.232
    5SAPS  C214  597   4.937   4.346   5.021
    5SAPS  H14R  598   4.956   4.239   5.036
    5SAPS  C215  599   4.900   4.389   4.897
    5SAPS  H15R  600   4.882   4.316   4.816
    5SAPS  C216  601   4.867   4.524   4.847
    5SAPS  H16R  602   4.862   4.596   4.930
    5SAPS  H16S  603   4.769   4.528   4.793
    5SAPS  C217  604   4.968   4.562   4.739
    5SAPS  H17R  605   5.069   4.579   4.782
    5SAPS  H17S  606   4.930   4.659   4.701
    5SAPS  C218  607   4.991   4.469   4.618
    5SAPS  H18R  608   4.890   4.443   4.579
    5SAPS  H18S  609   5.036   4.377   4.661
    5SAPS  C219  610   5.083   4.531   4.515
    5SAPS  H19R  611   5.156   4.456   4.478
    5SAPS  H19S  612   5.153   4.605   4.560
    5SAPS  C220  613   5.007   4.583   4.390
    5SAPS  H20R  614   4.932   4.508   4.356
    5SAPS  H20S  615   5.064   4.617   4.301
    5SAPS  H20T  616   4.944   4.670   4.418
    5SAPS   C33  617   5.295   4.013   5.883
    5SAPS   H3X  618   5.376   3.979   5.950
    5SAPS   H3Y  619   5.269   4.119   5.901
    5SAPS   C34  620   5.341   4.005   5.740
    5SAPS   H4X  621   5.244   4.018   5.688
    5SAPS   H4Y  622   5.395   3.909   5.732
    5SAPS   C35  623   5.438   4.121   5.695
    5SAPS   H5X  624   5.543   4.085   5.706
    5SAPS   H5Y  625   5.427   4.223   5.737
    5SAPS   C36  626   5.417   4.151   5.547
    5SAPS   H6X  627   5.503   4.213   5.515
    5SAPS   H6Y  628   5.326   4.216   5.545
    5SAPS   C37  629   5.411   4.034   5.451
    5SAPS   H7X  630   5.319   3.973   5.459
    5SAPS   H7Y  631   5.495   3.962   5.466
    5SAPS   C38  632   5.432   4.078   5.305
    5SAPS   H8X  633   5.468   4.001   5.233
    5SAPS   H8Y  634   5.503   4.163   5.300
    5SAPS   C39  635   5.300   4.122   5.242
    5SAPS   H9X  636   5.255   4.212   5.290
    5SAPS   H9Y  637   5.226   4.050   5.283
    5SAPS  C310  638   5.304   4.104   5.090
    5SAPS  H10X  639   5.205   4.124   5.045
    5SAPS  H10Y  640   5.336   4.006   5.050
    5SAPS  C311  641   5.383   4.219   5.031
    5SAPS  H11X  642   5.489   4.200   5.057
    5SAPS  H11Y  643   5.369   4.320   5.075
    5SAPS  C312  644   5.378   4.228   4.873
    5SAPS  H12X  645   5.275   4.246   4.837
    5SAPS  H12Y  646   5.401   4.129   4.830
    5SAPS  C313  647   5.469   4.336   4.816
    5SAPS  H13X  648   5.573   4.298   4.820
    5SAPS  H13Y  649   5.465   4.416   4.893
    5SAPS  C314  650   5.442   4.400   4.676
    5SAPS  H14X  651   5.343   4.450   4.684
    5SAPS  H14Y  652   5.422   4.318   4.604
    5SAPS  C315  653   5.550   4.488   4.610
    5SAPS  H15X  654   5.647   4.434   4.605
    5SAPS  H15Y  655   5.556   4.566   4.688
    5SAPS  C316  656   5.496   4.571   4.486
    5SAPS  H16X  657   5.538   4.673   4.480
    5SAPS  H16Y  658   5.387   4.588   4.502
    5SAPS  C317  659   5.532   4.511   4.346
    5SAPS  H17X  660   5.511   4.402   4.343
    5SAPS  H17Y  661   5.641   4.520   4.326
    5SAPS  C318  662   5.451   4.568   4.234
    5SAPS  H18X  663   5.435   4.500   4.148
    5SAPS  H18Y  664   5.486   4.669   4.203
    5SAPS  H18Z  665   5.357   4.598   4.286
    6SAPS     N  666   2.516   4.400   7.063
    6SAPS   HN1  667   2.468   4.437   7.147
    6SAPS   HN2  668   2.456   4.433   6.985
    6SAPS   HN3  669   2.502   4.297   7.056
    6SAPS   C12  670   2.662   4.433   7.049
    6SAPS  H12A  671   2.656   4.538   7.028
    6SAPS   C13  672   2.753   4.405   7.167
    6SAPS  O13A  673   2.708   4.380   7.281
    6SAPS  O13B  674   2.874   4.435   7.151
    6SAPS   C11  675   2.722   4.360   6.914
    6SAPS  H11A  676   2.703   4.254   6.940
    6SAPS  H11B  677   2.832   4.364   6.897
    6SAPS     P  678   2.562   4.324   6.704
    6SAPS   O13  679   2.475   4.230   6.781
    6SAPS   O14  680   2.500   4.408   6.603
    6SAPS   O12  681   2.647   4.407   6.803
    6SAPS   O11  682   2.664   4.234   6.634
    6SAPS    C1  683   2.776   4.279   6.562
    6SAPS    HA  684   2.754   4.384   6.536
    6SAPS    HB  685   2.872   4.285   6.618
    6SAPS    C2  686   2.795   4.198   6.431
    6SAPS    HS  687   2.883   4.233   6.373
    6SAPS   O21  688   2.675   4.199   6.347
    6SAPS   C21  689   2.659   4.308   6.274
    6SAPS   O22  690   2.726   4.411   6.290
    6SAPS   C22  691   2.544   4.293   6.172
    6SAPS   H2R  692   2.591   4.276   6.074
    6SAPS   H2S  693   2.476   4.207   6.193
    6SAPS    C3  694   2.817   4.046   6.464
    6SAPS    HX  695   2.731   4.020   6.529
    6SAPS    HY  696   2.907   4.047   6.529
    6SAPS   O31  697   2.818   3.961   6.344
    6SAPS   C31  698   2.920   3.971   6.262
    6SAPS   O32  699   3.022   4.034   6.282
    6SAPS   C32  700   2.897   3.873   6.135
    6SAPS   H2X  701   2.864   3.778   6.180
    6SAPS   H2Y  702   2.994   3.876   6.080
    6SAPS   C23  703   2.457   4.419   6.156
    6SAPS   H3R  704   2.525   4.505   6.135
    6SAPS   H3S  705   2.411   4.442   6.254
    6SAPS   C24  706   2.346   4.442   6.048
    6SAPS   H4R  707   2.257   4.381   6.073
    6SAPS   H4S  708   2.377   4.403   5.948
    6SAPS   C25  709   2.302   4.584   6.041
    6SAPS   H5R  710   2.288   4.631   6.140
    6SAPS   C26  711   2.285   4.662   5.934
    6SAPS   H6R  712   2.243   4.762   5.946
    6SAPS   C27  713   2.315   4.621   5.792
    6SAPS   H7R  714   2.250   4.537   5.762
    6SAPS   H7S  715   2.419   4.582   5.800
    6SAPS   C28  716   2.302   4.721   5.682
    6SAPS   H8R  717   2.226   4.696   5.606
    6SAPS   C29  718   2.348   4.844   5.679
    6SAPS   H9R  719   2.325   4.913   5.596
    6SAPS  C210  720   2.451   4.896   5.779
    6SAPS  H10R  721   2.537   4.935   5.720
    6SAPS  H10S  722   2.494   4.813   5.839
    6SAPS  C211  723   2.374   4.994   5.863
    6SAPS  H11R  724   2.277   4.949   5.887
    6SAPS  C212  725   2.411   5.122   5.887
    6SAPS  H12R  726   2.344   5.177   5.955
    6SAPS  C213  727   2.533   5.190   5.826
    6SAPS  H13R  728   2.535   5.177   5.716
    6SAPS  H13S  729   2.622   5.139   5.870
    6SAPS  C214  730   2.539   5.342   5.856
    6SAPS  H14R  731   2.499   5.373   5.953
    6SAPS  C215  732   2.588   5.439   5.780
    6SAPS  H15R  733   2.586   5.546   5.807
    6SAPS  C216  734   2.659   5.419   5.648
    6SAPS  H16R  735   2.590   5.382   5.570
    6SAPS  H16S  736   2.738   5.342   5.662
    6SAPS  C217  737   2.730   5.544   5.592
    6SAPS  H17R  738   2.814   5.569   5.661
    6SAPS  H17S  739   2.673   5.639   5.583
    6SAPS  C218  740   2.757   5.529   5.444
    6SAPS  H18R  741   2.659   5.516   5.395
    6SAPS  H18S  742   2.821   5.440   5.424
    6SAPS  C219  743   2.820   5.647   5.364
    6SAPS  H19R  744   2.916   5.677   5.411
    6SAPS  H19S  745   2.748   5.732   5.357
    6SAPS  C220  746   2.859   5.593   5.220
    6SAPS  H20R  747   2.775   5.551   5.161
    6SAPS  H20S  748   2.919   5.500   5.231
    6SAPS  H20T  749   2.917   5.669   5.164
    6SAPS   C33  750   2.790   3.937   6.053
    6SAPS   H3X  751   2.695   3.957   6.108
    6SAPS   H3Y  752   2.764   3.884   5.959
    6SAPS   C34  753   2.842   4.061   5.988
    6SAPS   H4X  754   2.935   4.044   5.930
    6SAPS   H4Y  755   2.871   4.135   6.066
    6SAPS   C35  756   2.741   4.137   5.892
    6SAPS   H5X  757   2.749   4.246   5.873
    6SAPS   H5Y  758   2.638   4.125   5.931
    6SAPS   C36  759   2.746   4.069   5.754
    6SAPS   H6X  760   2.741   3.958   5.767
    6SAPS   H6Y  761   2.847   4.081   5.709
    6SAPS   C37  762   2.643   4.097   5.654
    6SAPS   H7X  763   2.538   4.093   5.691
    6SAPS   H7Y  764   2.644   4.009   5.586
    6SAPS   C38  765   2.659   4.227   5.587
    6SAPS   H8X  766   2.764   4.229   5.551
    6SAPS   H8Y  767   2.641   4.314   5.654
    6SAPS   C39  768   2.566   4.241   5.462
    6SAPS   H9X  769   2.580   4.341   5.416
    6SAPS   H9Y  770   2.463   4.221   5.498
    6SAPS  C310  771   2.577   4.126   5.360
    6SAPS  H10X  772   2.568   4.021   5.397
    6SAPS  H10Y  773   2.684   4.117   5.332
    6SAPS  C311  774   2.499   4.147   5.234
    6SAPS  H11X  775   2.395   4.184   5.252
    6SAPS  H11Y  776   2.492   4.047   5.187
    6SAPS  C312  777   2.571   4.227   5.128
    6SAPS  H12X  778   2.681   4.216   5.130
    6SAPS  H12Y  779   2.530   4.330   5.135
    6SAPS  C313  780   2.527   4.186   4.986
    6SAPS  H13X  781   2.417   4.193   4.976
    6SAPS  H13Y  782   2.540   4.076   4.986
    6SAPS  C314  783   2.610   4.243   4.871
    6SAPS  H14X  784   2.715   4.208   4.871
    6SAPS  H14Y  785   2.613   4.354   4.868
    6SAPS  C315  786   2.563   4.176   4.740
    6SAPS  H15X  787   2.456   4.196   4.719
    6SAPS  H15Y  788   2.582   4.067   4.748
    6SAPS  C316  789   2.651   4.208   4.614
    6SAPS  H16X  790   2.757   4.208   4.646
    6SAPS  H16Y  791   2.628   4.309   4.575
    6SAPS  C317  792   2.637   4.105   4.497
    6SAPS  H17X  793   2.536   4.100   4.450
    6SAPS  H17Y  794   2.657   4.003   4.535
    6SAPS  C318  795   2.729   4.140   4.378
    6SAPS  H18X  796   2.830   4.170   4.416
    6SAPS  H18Y  797   2.683   4.218   4.313
    6SAPS  H18Z  798   2.738   4.048   4.317
    7SAPS     N  799   2.070   0.816   6.577
    7SAPS   HN1  800   2.048   0.875   6.494
    7SAPS   HN2  801   2.016   0.841   6.662
    7SAPS   HN3  802   2.170   0.841   6.593
    7SAPS   C12  803   2.060   0.674   6.532
    7SAPS  H12A  804   2.073   0.618   6.624
    7SAPS   C13  805   1.905   0.645   6.505
    7SAPS  O13A  806   1.824   0.722   6.567
    7SAPS  O13B  807   1.874   0.528   6.482
    7SAPS   C11  808   2.151   0.642   6.409
    7SAPS  H11A  809   2.104   0.704   6.329
    7SAPS  H11B  810   2.141   0.534   6.386
    7SAPS     P  811   2.408   0.580   6.439
    7SAPS   O13  812   2.504   0.654   6.518
    7SAPS   O14  813   2.364   0.458   6.500
    7SAPS   O12  814   2.288   0.674   6.414
    7SAPS   O11  815   2.458   0.556   6.297
    7SAPS    C1  816   2.386   0.520   6.178
    7SAPS    HA  817   2.280   0.550   6.193
    7SAPS    HB  818   2.427   0.565   6.085
    7SAPS    C2  819   2.381   0.365   6.144
    7SAPS    HS  820   2.349   0.312   6.237
    7SAPS   O21  821   2.514   0.320   6.106
    7SAPS   C21  822   2.531   0.185   6.103
    7SAPS   O22  823   2.443   0.107   6.141
    7SAPS   C22  824   2.665   0.151   6.052
    7SAPS   H2R  825   2.708   0.244   6.008
    7SAPS   H2S  826   2.722   0.119   6.142
    7SAPS    C3  827   2.270   0.330   6.038
    7SAPS    HX  828   2.170   0.364   6.074
    7SAPS    HY  829   2.260   0.221   6.020
    7SAPS   O31  830   2.305   0.417   5.929
    7SAPS   C31  831   2.284   0.356   5.816
    7SAPS   O32  832   2.231   0.247   5.806
    7SAPS   C32  833   2.353   0.435   5.701
    7SAPS   H2X  834   2.460   0.420   5.725
    7SAPS   H2Y  835   2.330   0.544   5.693
    7SAPS   C23  836   2.673   0.040   5.945
    7SAPS   H3R  837   2.607   6.842   5.973
    7SAPS   H3S  838   2.779   0.007   5.933
    7SAPS   C24  839   2.640   0.098   5.809
    7SAPS   H4R  840   2.718   0.172   5.780
    7SAPS   H4S  841   2.547   0.158   5.810
    7SAPS   C25  842   2.625   6.868   5.711
    7SAPS   H5R  843   2.538   6.804   5.733
    7SAPS   C26  844   2.690   6.846   5.600
    7SAPS   H6R  845   2.664   6.757   5.541
    7SAPS   C27  846   2.804   0.044   5.543
    7SAPS   H7R  847   2.899   6.874   5.536
    7SAPS   H7S  848   2.824   0.130   5.610
    7SAPS   C28  849   2.791   0.094   5.399
    7SAPS   H8R  850   2.697   0.073   5.346
    7SAPS   C29  851   2.881   0.153   5.315
    7SAPS   H9R  852   2.853   0.183   5.212
    7SAPS  C210  853   3.029   0.191   5.357
    7SAPS  H10R  854   3.028   0.253   5.449
    7SAPS  H10S  855   3.066   0.253   5.273
    7SAPS  C211  856   3.099   0.057   5.376
    7SAPS  H11R  857   3.090   0.014   5.477
    7SAPS  C212  858   3.171   6.879   5.281
    7SAPS  H12R  859   3.220   6.781   5.295
    7SAPS  C213  860   3.204   0.048   5.139
    7SAPS  H13R  861   3.121   0.112   5.099
    7SAPS  H13S  862   3.211   6.848   5.070
    7SAPS  C214  863   3.330   0.134   5.140
    7SAPS  H14R  864   3.368   0.161   5.240
    7SAPS  C215  865   3.406   0.165   5.034
    7SAPS  H15R  866   3.510   0.201   5.041
    7SAPS  C216  867   3.373   0.132   4.892
    7SAPS  H16R  868   3.388   0.225   4.832
    7SAPS  H16S  869   3.268   0.100   4.872
    7SAPS  C217  870   3.475   0.040   4.824
    7SAPS  H17R  871   3.470   6.820   4.856
    7SAPS  H17S  872   3.575   0.072   4.858
    7SAPS  C218  873   3.459   0.044   4.679
    7SAPS  H18R  874   3.353   0.066   4.651
    7SAPS  H18S  875   3.486   6.831   4.641
    7SAPS  C219  876   3.543   0.144   4.595
    7SAPS  H19R  877   3.649   0.127   4.623
    7SAPS  H19S  878   3.520   0.247   4.629
    7SAPS  C220  879   3.533   0.122   4.444
    7SAPS  H20R  880   3.430   0.126   4.403
    7SAPS  H20S  881   3.563   0.017   4.420
    7SAPS  H20T  882   3.603   0.197   4.400
    7SAPS   C33  883   2.328   0.357   5.566
    7SAPS   H3X  884   2.339   0.246   5.574
    7SAPS   H3Y  885   2.399   0.397   5.491
    7SAPS   C34  886   2.192   0.393   5.508
    7SAPS   H4X  887   2.178   0.503   5.497
    7SAPS   H4Y  888   2.109   0.359   5.574
    7SAPS   C35  889   2.170   0.319   5.379
    7SAPS   H5X  890   2.159   0.217   5.420
    7SAPS   H5Y  891   2.268   0.310   5.327
    7SAPS   C36  892   2.063   0.370   5.279
    7SAPS   H6X  893   2.112   0.454   5.225
    7SAPS   H6Y  894   1.970   0.392   5.336
    7SAPS   C37  895   2.031   0.265   5.174
    7SAPS   H7X  896   2.009   0.162   5.208
    7SAPS   H7Y  897   2.125   0.257   5.115
    7SAPS   C38  898   1.912   0.307   5.087
    7SAPS   H8X  899   1.944   0.409   5.055
    7SAPS   H8Y  900   1.828   0.318   5.159
    7SAPS   C39  901   1.873   0.214   4.977
    7SAPS   H9X  902   1.837   0.118   5.019
    7SAPS   H9Y  903   1.972   0.180   4.941
    7SAPS  C310  904   1.786   0.271   4.866
    7SAPS  H10X  905   1.850   0.350   4.823
    7SAPS  H10Y  906   1.698   0.313   4.919
    7SAPS  C311  907   1.749   0.181   4.742
    7SAPS  H11X  908   1.833   0.112   4.725
    7SAPS  H11Y  909   1.733   0.243   4.651
    7SAPS  C312  910   1.616   0.102   4.762
    7SAPS  H12X  911   1.531   0.170   4.785
    7SAPS  H12Y  912   1.621   0.025   4.841
    7SAPS  C313  913   1.574   0.041   4.627
    7SAPS  H13X  914   1.650   6.855   4.592
    7SAPS  H13Y  915   1.572   0.118   4.547
    7SAPS  C314  916   1.442   6.848   4.621
    7SAPS  H14X  917   1.358   0.013   4.673
    7SAPS  H14Y  918   1.448   6.757   4.683
    7SAPS  C315  919   1.400   6.806   4.482
    7SAPS  H15X  920   1.303   6.754   4.500
    7SAPS  H15Y  921   1.485   6.753   4.434
    7SAPS  C316  922   1.360   0.025   4.377
    7SAPS  H16X  923   1.450   0.070   4.331
    7SAPS  H16Y  924   1.311   0.104   4.437
    7SAPS  C317  925   1.259   6.867   4.272
    7SAPS  H17X  926   1.174   6.820   4.326
    7SAPS  H17Y  927   1.297   6.786   4.206
    7SAPS  C318  928   1.196   0.104   4.198
    7SAPS  H18X  929   1.096   0.079   4.158
    7SAPS  H18Y  930   1.272   0.139   4.125
    7SAPS  H18Z  931   1.181   0.193   4.264
    8SAPS     N  932   1.549   1.711   6.502
    8SAPS   HN1  933   1.517   1.809   6.513
    8SAPS   HN2  934   1.623   1.705   6.429
    8SAPS   HN3  935   1.473   1.651   6.466
    8SAPS   C12  936   1.607   1.658   6.625
    8SAPS  H12A  937   1.676   1.735   6.658
    8SAPS   C13  938   1.502   1.622   6.730
    8SAPS  O13A  939   1.396   1.687   6.727
    8SAPS  O13B  940   1.537   1.554   6.831
    8SAPS   C11  941   1.704   1.543   6.587
    8SAPS  H11A  942   1.639   1.469   6.535
    8SAPS  H11B  943   1.743   1.486   6.674
    8SAPS     P  944   1.959   1.585   6.545
    8SAPS   O13  945   1.993   1.708   6.628
    8SAPS   O14  946   1.983   1.454   6.608
    8SAPS   O12  947   1.810   1.596   6.498
    8SAPS   O11  948   2.039   1.583   6.406
    8SAPS    C1  949   2.183   1.606   6.411
    8SAPS    HA  950   2.215   1.673   6.493
    8SAPS    HB  951   2.230   1.505   6.416
    8SAPS    C2  952   2.224   1.673   6.282
    8SAPS    HS  953   2.156   1.760   6.269
    8SAPS   O21  954   2.208   1.575   6.173
    8SAPS   C21  955   2.189   1.623   6.058
    8SAPS   O22  956   2.178   1.742   6.025
    8SAPS   C22  957   2.167   1.498   5.961
    8SAPS   H2R  958   2.137   1.419   6.033
    8SAPS   H2S  959   2.081   1.519   5.894
    8SAPS    C3  960   2.370   1.727   6.305
    8SAPS    HX  961   2.426   1.646   6.356
    8SAPS    HY  962   2.362   1.816   6.371
    8SAPS   O31  963   2.436   1.768   6.183
    8SAPS   C31  964   2.407   1.886   6.141
    8SAPS   O32  965   2.319   1.960   6.187
    8SAPS   C32  966   2.494   1.916   6.019
    8SAPS   H2X  967   2.594   1.877   6.048
    8SAPS   H2Y  968   2.497   2.027   6.015
    8SAPS   C23  969   2.293   1.467   5.881
    8SAPS   H3R  970   2.388   1.508   5.924
    8SAPS   H3S  971   2.287   1.529   5.789
    8SAPS   C24  972   2.313   1.320   5.852
    8SAPS   H4R  973   2.334   1.253   5.938
    8SAPS   H4S  974   2.412   1.320   5.803
    8SAPS   C25  975   2.198   1.255   5.781
    8SAPS   H5R  976   2.112   1.249   5.850
    8SAPS   C26  977   2.172   1.227   5.649
    8SAPS   H6R  978   2.084   1.170   5.615
    8SAPS   C27  979   2.281   1.260   5.546
    8SAPS   H7R  980   2.340   1.346   5.585
    8SAPS   H7S  981   2.243   1.316   5.458
    8SAPS   C28  982   2.382   1.149   5.509
    8SAPS   H8R  983   2.441   1.102   5.590
    8SAPS   C29  984   2.404   1.123   5.382
    8SAPS   H9R  985   2.475   1.043   5.356
    8SAPS  C210  986   2.340   1.190   5.262
    8SAPS  H10R  987   2.335   1.301   5.261
    8SAPS  H10S  988   2.232   1.167   5.251
    8SAPS  C211  989   2.415   1.158   5.137
    8SAPS  H11R  990   2.521   1.185   5.148
    8SAPS  C212  991   2.372   1.099   5.026
    8SAPS  H12R  992   2.445   1.089   4.944
    8SAPS  C213  993   2.240   1.030   4.989
    8SAPS  H13R  994   2.181   1.023   5.082
    8SAPS  H13S  995   2.251   0.923   4.961
    8SAPS  C214  996   2.152   1.084   4.873
    8SAPS  H14R  997   2.080   1.165   4.895
    8SAPS  C215  998   2.144   1.039   4.742
    8SAPS  H15R  999   2.081   1.099   4.675
    8SAPS  C216 1000   2.227   0.938   4.674
    8SAPS  H16R 1001   2.298   0.891   4.745
    8SAPS  H16S 1002   2.290   0.993   4.600
    8SAPS  C217 1003   2.125   0.833   4.614
    8SAPS  H17R 1004   2.192   0.756   4.571
    8SAPS  H17S 1005   2.056   0.884   4.543
    8SAPS  C218 1006   2.043   0.757   4.726
    8SAPS  H18R 1007   1.970   0.820   4.780
    8SAPS  H18S 1008   2.116   0.712   4.796
    8SAPS  C219 1009   1.972   0.629   4.681
    8SAPS  H19R 1010   1.937   0.645   4.577
    8SAPS  H19S 1011   1.885   0.611   4.747
    8SAPS  C220 1012   2.064   0.502   4.694
    8SAPS  H20R 1013   2.162   0.514   4.643
    8SAPS  H20S 1014   2.019   0.413   4.645
    8SAPS  H20T 1015   2.095   0.464   4.794
    8SAPS   C33 1016   2.442   1.860   5.885
    8SAPS   H3X 1017   2.337   1.893   5.869
    8SAPS   H3Y 1018   2.437   1.749   5.894
    8SAPS   C34 1019   2.529   1.908   5.760
    8SAPS   H4X 1020   2.626   1.866   5.796
    8SAPS   H4Y 1021   2.536   2.019   5.762
    8SAPS   C35 1022   2.497   1.849   5.621
    8SAPS   H5X 1023   2.586   1.821   5.560
    8SAPS   H5Y 1024   2.440   1.926   5.564
    8SAPS   C36 1025   2.403   1.727   5.618
    8SAPS   H6X 1026   2.305   1.756   5.662
    8SAPS   H6Y 1027   2.453   1.648   5.677
    8SAPS   C37 1028   2.376   1.674   5.475
    8SAPS   H7X 1029   2.352   1.764   5.415
    8SAPS   H7Y 1030   2.280   1.617   5.475
    8SAPS   C38 1031   2.489   1.610   5.402
    8SAPS   H8X 1032   2.525   1.519   5.455
    8SAPS   H8Y 1033   2.578   1.677   5.399
    8SAPS   C39 1034   2.443   1.588   5.257
    8SAPS   H9X 1035   2.400   1.676   5.203
    8SAPS   H9Y 1036   2.358   1.516   5.256
    8SAPS  C310 1037   2.548   1.541   5.153
    8SAPS  H10X 1038   2.593   1.447   5.191
    8SAPS  H10Y 1039   2.616   1.625   5.125
    8SAPS  C311 1040   2.466   1.505   5.028
    8SAPS  H11X 1041   2.400   1.591   5.004
    8SAPS  H11Y 1042   2.392   1.424   5.043
    8SAPS  C312 1043   2.548   1.465   4.900
    8SAPS  H12X 1044   2.633   1.397   4.923
    8SAPS  H12Y 1045   2.601   1.556   4.863
    8SAPS  C313 1046   2.462   1.407   4.783
    8SAPS  H13X 1047   2.387   1.488   4.769
    8SAPS  H13Y 1048   2.415   1.315   4.825
    8SAPS  C314 1049   2.527   1.383   4.650
    8SAPS  H14X 1050   2.457   1.338   4.576
    8SAPS  H14Y 1051   2.610   1.310   4.658
    8SAPS  C315 1052   2.603   1.507   4.589
    8SAPS  H15X 1053   2.661   1.470   4.501
    8SAPS  H15Y 1054   2.667   1.559   4.664
    8SAPS  C316 1055   2.513   1.607   4.517
    8SAPS  H16X 1056   2.563   1.704   4.494
    8SAPS  H16Y 1057   2.428   1.635   4.583
    8SAPS  C317 1058   2.456   1.566   4.381
    8SAPS  H17X 1059   2.350   1.600   4.379
    8SAPS  H17Y 1060   2.459   1.455   4.379
    8SAPS  C318 1061   2.531   1.618   4.255
    8SAPS  H18X 1062   2.494   1.718   4.224
    8SAPS  H18Y 1063   2.507   1.541   4.179
    8SAPS  H18Z 1064   2.636   1.629   4.290
    9SAPS     N 1065   0.981   4.322   6.809
    9SAPS   HN1 1066   0.993   4.229   6.854
    9SAPS   HN2 1067   0.890   4.366   6.834
    9SAPS   HN3 1068   0.970   4.307   6.707
    9SAPS   C12 1069   1.093   4.422   6.852
    9SAPS  H12A 1070   1.077   4.451   6.955
    9SAPS   C13 1071   1.231   4.342   6.845
    9SAPS  O13A 1072   1.233   4.220   6.827
    9SAPS  O13B 1073   1.332   4.417   6.833
    9SAPS   C11 1074   1.092   4.538   6.752
    9SAPS  H11A 1075   1.102   4.519   6.643
    9SAPS  H11B 1076   1.178   4.605   6.775
    9SAPS     P 1077   0.962   4.746   6.840
    9SAPS   O13 1078   0.820   4.789   6.850
    9SAPS   O14 1079   1.033   4.742   6.971
    9SAPS   O12 1080   0.972   4.604   6.774
    9SAPS   O11 1081   1.036   4.836   6.728
    9SAPS    C1 1082   0.991   4.826   6.586
    9SAPS    HA 1083   0.938   4.733   6.557
    9SAPS    HB 1084   0.917   4.908   6.573
    9SAPS    C2 1085   1.116   4.860   6.490
    9SAPS    HS 1086   1.168   4.953   6.521
    9SAPS   O21 1087   1.061   4.883   6.360
    9SAPS   C21 1088   0.997   4.998   6.339
    9SAPS   O22 1089   1.010   5.096   6.412
    9SAPS   C22 1090   0.909   4.996   6.217
    9SAPS   H2R 1091   0.912   4.892   6.179
    9SAPS   H2S 1092   0.804   5.011   6.250
    9SAPS    C3 1093   1.225   4.755   6.493
    9SAPS    HX 1094   1.194   4.661   6.444
    9SAPS    HY 1095   1.261   4.734   6.596
    9SAPS   O31 1096   1.342   4.808   6.425
    9SAPS   C31 1097   1.370   4.761   6.301
    9SAPS   O32 1098   1.314   4.672   6.248
    9SAPS   C32 1099   1.484   4.845   6.235
    9SAPS   H2X 1100   1.576   4.842   6.297
    9SAPS   H2Y 1101   1.451   4.951   6.242
    9SAPS   C23 1102   0.968   5.091   6.105
    9SAPS   H3R 1103   1.014   5.173   6.163
    9SAPS   H3S 1104   0.881   5.122   6.042
    9SAPS   C24 1105   1.078   5.019   6.024
    9SAPS   H4R 1106   1.026   4.933   5.977
    9SAPS   H4S 1107   1.163   4.982   6.085
    9SAPS   C25 1108   1.135   5.111   5.919
    9SAPS   H5R 1109   1.197   5.195   5.954
    9SAPS   C26 1110   1.109   5.104   5.788
    9SAPS   H6R 1111   1.153   5.186   5.729
    9SAPS   C27 1112   1.013   5.006   5.724
    9SAPS   H7R 1113   0.949   4.949   5.795
    9SAPS   H7S 1114   1.071   4.931   5.666
    9SAPS   C28 1115   0.925   5.095   5.639
    9SAPS   H8R 1116   0.844   5.144   5.696
    9SAPS   C29 1117   0.921   5.109   5.505
    9SAPS   H9R 1118   0.856   5.190   5.467
    9SAPS  C210 1119   1.008   5.045   5.398
    9SAPS  H10R 1120   1.081   4.975   5.444
    9SAPS  H10S 1121   1.073   5.120   5.348
    9SAPS  C211 1122   0.906   4.973   5.309
    9SAPS  H11R 1123   0.895   4.865   5.329
    9SAPS  C212 1124   0.848   5.016   5.198
    9SAPS  H12R 1125   0.781   4.949   5.142
    9SAPS  C213 1126   0.865   5.153   5.133
    9SAPS  H13R 1127   0.894   5.237   5.200
    9SAPS  H13S 1128   0.770   5.184   5.084
    9SAPS  C214 1129   0.970   5.147   5.030
    9SAPS  H14R 1130   1.077   5.137   5.055
    9SAPS  C215 1131   0.945   5.146   4.894
    9SAPS  H15R 1132   1.034   5.144   4.829
    9SAPS  C216 1133   0.819   5.167   4.810
    9SAPS  H16R 1134   0.845   5.219   4.716
    9SAPS  H16S 1135   0.749   5.233   4.866
    9SAPS  C217 1136   0.760   5.027   4.784
    9SAPS  H17R 1137   0.732   4.960   4.868
    9SAPS  H17S 1138   0.837   4.976   4.722
    9SAPS  C218 1139   0.640   5.045   4.695
    9SAPS  H18R 1140   0.660   5.135   4.633
    9SAPS  H18S 1141   0.562   5.081   4.766
    9SAPS  C219 1142   0.595   4.925   4.609
    9SAPS  H19R 1143   0.487   4.937   4.584
    9SAPS  H19S 1144   0.604   4.833   4.670
    9SAPS  C220 1145   0.682   4.899   4.484
    9SAPS  H20R 1146   0.789   4.878   4.504
    9SAPS  H20S 1147   0.678   4.994   4.427
    9SAPS  H20T 1148   0.647   4.823   4.411
    9SAPS   C33 1149   1.535   4.793   6.091
    9SAPS   H3X 1150   1.529   4.683   6.088
    9SAPS   H3Y 1151   1.642   4.820   6.085
    9SAPS   C34 1152   1.453   4.837   5.976
    9SAPS   H4X 1153   1.440   4.947   5.978
    9SAPS   H4Y 1154   1.351   4.794   5.982
    9SAPS   C35 1155   1.492   4.790   5.840
    9SAPS   H5X 1156   1.502   4.680   5.827
    9SAPS   H5Y 1157   1.594   4.822   5.809
    9SAPS   C36 1158   1.399   4.834   5.735
    9SAPS   H6X 1159   1.416   4.943   5.724
    9SAPS   H6Y 1160   1.291   4.822   5.758
    9SAPS   C37 1161   1.423   4.765   5.603
    9SAPS   H7X 1162   1.398   4.658   5.620
    9SAPS   H7Y 1163   1.530   4.771   5.573
    9SAPS   C38 1164   1.340   4.824   5.487
    9SAPS   H8X 1165   1.363   4.932   5.499
    9SAPS   H8Y 1166   1.233   4.805   5.512
    9SAPS   C39 1167   1.383   4.773   5.349
    9SAPS   H9X 1168   1.353   4.666   5.356
    9SAPS   H9Y 1169   1.494   4.773   5.345
    9SAPS  C310 1170   1.326   4.841   5.231
    9SAPS  H10X 1171   1.337   4.951   5.230
    9SAPS  H10Y 1172   1.219   4.812   5.237
    9SAPS  C311 1173   1.381   4.792   5.096
    9SAPS  H11X 1174   1.372   4.681   5.092
    9SAPS  H11Y 1175   1.492   4.802   5.087
    9SAPS  C312 1176   1.312   4.855   4.973
    9SAPS  H12X 1177   1.334   4.963   4.979
    9SAPS  H12Y 1178   1.203   4.839   4.985
    9SAPS  C313 1179   1.360   4.796   4.831
    9SAPS  H13X 1180   1.322   4.692   4.842
    9SAPS  H13Y 1181   1.471   4.791   4.840
    9SAPS  C314 1182   1.297   4.870   4.721
    9SAPS  H14X 1183   1.348   4.865   4.623
    9SAPS  H14Y 1184   1.301   4.976   4.754
    9SAPS  C315 1185   1.143   4.841   4.706
    9SAPS  H15X 1186   1.079   4.860   4.795
    9SAPS  H15Y 1187   1.142   4.735   4.671
    9SAPS  C316 1188   1.076   4.919   4.591
    9SAPS  H16X 1189   1.060   5.026   4.616
    9SAPS  H16Y 1190   0.971   4.885   4.595
    9SAPS  C317 1191   1.143   4.895   4.452
    9SAPS  H17X 1192   1.162   4.789   4.426
    9SAPS  H17Y 1193   1.244   4.940   4.460
    9SAPS  C318 1194   1.069   4.953   4.338
    9SAPS  H18X 1195   0.984   4.883   4.325
    9SAPS  H18Y 1196   1.127   4.954   4.243
    9SAPS  H18Z 1197   1.035   5.057   4.359
   10SAPS     N 1198   1.789   3.774   6.867
   10SAPS   HN1 1199   1.716   3.848   6.870
   10SAPS   HN2 1200   1.763   3.688   6.920
   10SAPS   HN3 1201   1.874   3.802   6.920
   10SAPS   C12 1202   1.830   3.746   6.721
   10SAPS  H12A 1203   1.833   3.841   6.670
   10SAPS   C13 1204   1.966   3.680   6.713
   10SAPS  O13A 1205   2.010   3.607   6.807
   10SAPS  O13B 1206   2.023   3.684   6.604
   10SAPS   C11 1207   1.725   3.667   6.649
   10SAPS  H11A 1208   1.702   3.568   6.694
   10SAPS  H11B 1209   1.761   3.637   6.548
   10SAPS     P 1210   1.547   3.801   6.521
   10SAPS   O13 1211   1.519   3.683   6.427
   10SAPS   O14 1212   1.440   3.895   6.550
   10SAPS   O12 1213   1.602   3.741   6.653
   10SAPS   O11 1214   1.670   3.880   6.465
   10SAPS    C1 1215   1.734   3.878   6.334
   10SAPS    HA 1216   1.836   3.837   6.353
   10SAPS    HB 1217   1.681   3.812   6.262
   10SAPS    C2 1218   1.744   4.020   6.279
   10SAPS    HS 1219   1.650   4.032   6.220
   10SAPS   O21 1220   1.854   4.028   6.191
   10SAPS   C21 1221   1.974   4.049   6.239
   10SAPS   O22 1222   2.010   4.049   6.355
   10SAPS   C22 1223   2.074   4.076   6.130
   10SAPS   H2R 1224   2.110   4.180   6.149
   10SAPS   H2S 1225   2.153   3.999   6.144
   10SAPS    C3 1226   1.741   4.129   6.391
   10SAPS    HX 1227   1.800   4.090   6.476
   10SAPS    HY 1228   1.642   4.136   6.441
   10SAPS   O31 1229   1.791   4.258   6.358
   10SAPS   C31 1230   1.710   4.345   6.313
   10SAPS   O32 1231   1.589   4.331   6.291
   10SAPS   C32 1232   1.802   4.470   6.307
   10SAPS   H2X 1233   1.832   4.502   6.409
   10SAPS   H2Y 1234   1.732   4.547   6.269
   10SAPS   C23 1235   2.030   4.042   5.991
   10SAPS   H3R 1236   1.951   4.117   5.968
   10SAPS   H3S 1237   1.990   3.939   5.984
   10SAPS   C24 1238   2.138   4.070   5.888
   10SAPS   H4R 1239   2.219   3.998   5.916
   10SAPS   H4S 1240   2.193   4.166   5.891
   10SAPS   C25 1241   2.099   4.044   5.746
   10SAPS   H5R 1242   2.074   3.941   5.717
   10SAPS   C26 1243   2.111   4.123   5.640
   10SAPS   H6R 1244   2.080   4.086   5.541
   10SAPS   C27 1245   2.166   4.263   5.639
   10SAPS   H7R 1246   2.261   4.273   5.582
   10SAPS   H7S 1247   2.202   4.294   5.739
   10SAPS   C28 1248   2.063   4.360   5.587
   10SAPS   H8R 1249   1.967   4.357   5.642
   10SAPS   C29 1250   2.067   4.444   5.484
   10SAPS   H9R 1251   1.979   4.507   5.470
   10SAPS  C210 1252   2.169   4.449   5.372
   10SAPS  H10R 1253   2.116   4.452   5.275
   10SAPS  H10S 1254   2.234   4.359   5.370
   10SAPS  C211 1255   2.251   4.573   5.384
   10SAPS  H11R 1256   2.325   4.577   5.465
   10SAPS  C212 1257   2.274   4.659   5.279
   10SAPS  H12R 1258   2.341   4.741   5.307
   10SAPS  C213 1259   2.223   4.665   5.135
   10SAPS  H13R 1260   2.239   4.766   5.090
   10SAPS  H13S 1261   2.113   4.650   5.135
   10SAPS  C214 1262   2.300   4.579   5.039
   10SAPS  H14R 1263   2.407   4.576   5.066
   10SAPS  C215 1264   2.270   4.500   4.941
   10SAPS  H15R 1265   2.342   4.439   4.885
   10SAPS  C216 1266   2.125   4.477   4.887
   10SAPS  H16R 1267   2.105   4.526   4.790
   10SAPS  H16S 1268   2.054   4.521   4.961
   10SAPS  C217 1269   2.098   4.327   4.865
   10SAPS  H17R 1270   2.166   4.293   4.784
   10SAPS  H17S 1271   1.998   4.336   4.817
   10SAPS  C218 1272   2.091   4.243   4.993
   10SAPS  H18R 1273   2.042   4.315   5.062
   10SAPS  H18S 1274   2.190   4.214   5.036
   10SAPS  C219 1275   2.016   4.110   4.983
   10SAPS  H19R 1276   2.061   4.044   4.905
   10SAPS  H19S 1277   1.914   4.141   4.952
   10SAPS  C220 1278   2.029   4.035   5.113
   10SAPS  H20R 1279   1.992   4.102   5.194
   10SAPS  H20S 1280   2.133   4.007   5.141
   10SAPS  H20T 1281   1.990   3.933   5.095
   10SAPS   C33 1282   1.918   4.456   6.213
   10SAPS   H3X 1283   1.971   4.362   6.236
   10SAPS   H3Y 1284   1.987   4.540   6.236
   10SAPS   C34 1285   1.892   4.453   6.062
   10SAPS   H4X 1286   1.806   4.387   6.037
   10SAPS   H4Y 1287   1.981   4.397   6.025
   10SAPS   C35 1288   1.893   4.591   6.000
   10SAPS   H5X 1289   1.989   4.647   5.998
   10SAPS   H5Y 1290   1.836   4.666   6.058
   10SAPS   C36 1291   1.841   4.597   5.858
   10SAPS   H6X 1292   1.730   4.606   5.853
   10SAPS   H6Y 1293   1.867   4.506   5.800
   10SAPS   C37 1294   1.901   4.722   5.792
   10SAPS   H7X 1295   2.010   4.700   5.795
   10SAPS   H7Y 1296   1.897   4.820   5.844
   10SAPS   C38 1297   1.866   4.742   5.649
   10SAPS   H8X 1298   1.759   4.772   5.648
   10SAPS   H8Y 1299   1.874   4.644   5.598
   10SAPS   C39 1300   1.938   4.867   5.587
   10SAPS   H9X 1301   2.043   4.864   5.623
   10SAPS   H9Y 1302   1.888   4.963   5.612
   10SAPS  C310 1303   1.941   4.867   5.436
   10SAPS  H10X 1304   1.939   4.761   5.402
   10SAPS  H10Y 1305   2.041   4.900   5.399
   10SAPS  C311 1306   1.832   4.946   5.354
   10SAPS  H11X 1307   1.801   5.038   5.408
   10SAPS  H11Y 1308   1.746   4.876   5.363
   10SAPS  C312 1309   1.878   4.951   5.212
   10SAPS  H12X 1310   1.925   4.853   5.189
   10SAPS  H12Y 1311   1.955   5.031   5.211
   10SAPS  C313 1312   1.768   4.985   5.114
   10SAPS  H13X 1313   1.728   5.088   5.130
   10SAPS  H13Y 1314   1.682   4.919   5.138
   10SAPS  C314 1315   1.805   4.962   4.970
   10SAPS  H14X 1316   1.821   4.854   4.950
   10SAPS  H14Y 1317   1.893   5.023   4.942
   10SAPS  C315 1318   1.701   5.015   4.876
   10SAPS  H15X 1319   1.696   5.126   4.879
   10SAPS  H15Y 1320   1.600   4.977   4.904
   10SAPS  C316 1321   1.723   4.954   4.738
   10SAPS  H16X 1322   1.725   4.843   4.733
   10SAPS  H16Y 1323   1.821   5.000   4.712
   10SAPS  C317 1324   1.616   5.011   4.634
   10SAPS  H17X 1325   1.638   5.120   4.622
   10SAPS  H17Y 1326   1.515   5.006   4.681
   10SAPS  C318 1327   1.610   4.935   4.501
   10SAPS  H18X 1328   1.669   4.991   4.425
   10SAPS  H18Y 1329   1.505   4.920   4.470
   10SAPS  H18Z 1330   1.651   4.836   4.529
   11SAPS     N 1331   3.632   3.428   1.923
   11SAPS   HN1 1332   3.563   3.402   1.997
   11SAPS   HN2 1333   3.726   3.392   1.951
   11SAPS   HN3 1334   3.638   3.532   1.923
   11SAPS   C12 1335   3.586   3.354   1.804
   11SAPS  H12A 1336   3.501   3.407   1.762
   11SAPS   C13 1337   3.685   3.332   1.683
   11SAPS  O13A 1338   3.806   3.370   1.691
   11SAPS  O13B 1339   3.650   3.260   1.586
   11SAPS   C11 1340   3.534   3.221   1.865
   11SAPS  H11A 1341   3.611   3.141   1.864
   11SAPS  H11B 1342   3.461   3.174   1.796
   11SAPS     P 1343   3.433   3.103   2.080
   11SAPS   O13 1344   3.358   3.156   2.193
   11SAPS   O14 1345   3.369   2.996   1.996
   11SAPS   O12 1346   3.471   3.224   1.989
   11SAPS   O11 1347   3.581   3.056   2.122
   11SAPS    C1 1348   3.654   3.145   2.214
   11SAPS    HA 1349   3.764   3.128   2.215
   11SAPS    HB 1350   3.644   3.252   2.187
   11SAPS    C2 1351   3.615   3.127   2.368
   11SAPS    HS 1352   3.520   3.182   2.383
   11SAPS   O21 1353   3.720   3.167   2.454
   11SAPS   C21 1354   3.710   3.299   2.478
   11SAPS   O22 1355   3.633   3.376   2.418
   11SAPS   C22 1356   3.794   3.356   2.589
   11SAPS   H2R 1357   3.845   3.267   2.633
   11SAPS   H2S 1358   3.857   3.429   2.535
   11SAPS    C3 1359   3.593   2.973   2.387
   11SAPS    HX 1360   3.693   2.926   2.394
   11SAPS    HY 1361   3.547   2.931   2.295
   11SAPS   O31 1362   3.511   2.961   2.502
   11SAPS   C31 1363   3.466   2.837   2.522
   11SAPS   O32 1364   3.487   2.735   2.457
   11SAPS   C32 1365   3.389   2.844   2.656
   11SAPS   H2X 1366   3.289   2.888   2.635
   11SAPS   H2Y 1367   3.443   2.917   2.720
   11SAPS   C23 1368   3.709   3.434   2.687
   11SAPS   H3R 1369   3.643   3.357   2.733
   11SAPS   H3S 1370   3.650   3.508   2.628
   11SAPS   C24 1371   3.801   3.504   2.789
   11SAPS   H4R 1372   3.866   3.576   2.734
   11SAPS   H4S 1373   3.869   3.431   2.837
   11SAPS   C25 1374   3.723   3.586   2.901
   11SAPS   H5R 1375   3.676   3.679   2.865
   11SAPS   C26 1376   3.707   3.553   3.032
   11SAPS   H6R 1377   3.647   3.621   3.095
   11SAPS   C27 1378   3.763   3.423   3.099
   11SAPS   H7R 1379   3.850   3.465   3.154
   11SAPS   H7S 1380   3.805   3.358   3.018
   11SAPS   C28 1381   3.670   3.361   3.198
   11SAPS   H8R 1382   3.596   3.291   3.158
   11SAPS   C29 1383   3.674   3.372   3.335
   11SAPS   H9R 1384   3.612   3.305   3.397
   11SAPS  C210 1385   3.773   3.458   3.416
   11SAPS  H10R 1386   3.864   3.481   3.357
   11SAPS  H10S 1387   3.805   3.409   3.510
   11SAPS  C211 1388   3.708   3.587   3.448
   11SAPS  H11R 1389   3.714   3.664   3.370
   11SAPS  C212 1390   3.675   3.625   3.571
   11SAPS  H12R 1391   3.639   3.725   3.598
   11SAPS  C213 1392   3.665   3.534   3.686
   11SAPS  H13R 1393   3.644   3.428   3.662
   11SAPS  H13S 1394   3.566   3.556   3.732
   11SAPS  C214 1395   3.778   3.535   3.790
   11SAPS  H14R 1396   3.851   3.616   3.780
   11SAPS  C215 1397   3.799   3.445   3.889
   11SAPS  H15R 1398   3.883   3.470   3.954
   11SAPS  C216 1399   3.709   3.329   3.931
   11SAPS  H16R 1400   3.763   3.236   3.904
   11SAPS  H16S 1401   3.615   3.333   3.871
   11SAPS  C217 1402   3.651   3.337   4.071
   11SAPS  H17R 1403   3.731   3.358   4.146
   11SAPS  H17S 1404   3.593   3.244   4.090
   11SAPS  C218 1405   3.548   3.455   4.089
   11SAPS  H18R 1406   3.478   3.446   4.004
   11SAPS  H18S 1407   3.603   3.550   4.072
   11SAPS  C219 1408   3.476   3.460   4.226
   11SAPS  H19R 1409   3.551   3.459   4.308
   11SAPS  H19S 1410   3.420   3.367   4.250
   11SAPS  C220 1411   3.388   3.579   4.246
   11SAPS  H20R 1412   3.354   3.574   4.352
   11SAPS  H20S 1413   3.297   3.573   4.183
   11SAPS  H20T 1414   3.442   3.672   4.218
   11SAPS   C33 1415   3.365   2.708   2.722
   11SAPS   H3X 1416   3.448   2.641   2.752
   11SAPS   H3Y 1417   3.313   2.648   2.644
   11SAPS   C34 1418   3.263   2.714   2.835
   11SAPS   H4X 1419   3.233   2.610   2.856
   11SAPS   H4Y 1420   3.178   2.775   2.797
   11SAPS   C35 1421   3.321   2.771   2.971
   11SAPS   H5X 1422   3.231   2.782   3.035
   11SAPS   H5Y 1423   3.373   2.868   2.957
   11SAPS   C36 1424   3.411   2.672   3.044
   11SAPS   H6X 1425   3.493   2.645   2.975
   11SAPS   H6Y 1426   3.357   2.575   3.053
   11SAPS   C37 1427   3.470   2.718   3.179
   11SAPS   H7X 1428   3.522   2.816   3.171
   11SAPS   H7Y 1429   3.551   2.648   3.210
   11SAPS   C38 1430   3.361   2.714   3.288
   11SAPS   H8X 1431   3.297   2.623   3.290
   11SAPS   H8Y 1432   3.297   2.803   3.270
   11SAPS   C39 1433   3.424   2.732   3.430
   11SAPS   H9X 1434   3.494   2.818   3.430
   11SAPS   H9Y 1435   3.491   2.645   3.442
   11SAPS  C310 1436   3.319   2.745   3.550
   11SAPS  H10X 1437   3.234   2.680   3.521
   11SAPS  H10Y 1438   3.283   2.850   3.554
   11SAPS  C311 1439   3.380   2.685   3.677
   11SAPS  H11X 1440   3.383   2.575   3.658
   11SAPS  H11Y 1441   3.309   2.690   3.762
   11SAPS  C312 1442   3.519   2.732   3.708
   11SAPS  H12X 1443   3.524   2.829   3.654
   11SAPS  H12Y 1444   3.594   2.669   3.656
   11SAPS  C313 1445   3.555   2.734   3.863
   11SAPS  H13X 1446   3.480   2.803   3.907
   11SAPS  H13Y 1447   3.659   2.770   3.873
   11SAPS  C314 1448   3.544   2.602   3.938
   11SAPS  H14X 1449   3.587   2.525   3.871
   11SAPS  H14Y 1450   3.439   2.579   3.964
   11SAPS  C315 1451   3.619   2.610   4.073
   11SAPS  H15X 1452   3.574   2.545   4.151
   11SAPS  H15Y 1453   3.610   2.714   4.109
   11SAPS  C316 1454   3.762   2.567   4.042
   11SAPS  H16X 1455   3.802   2.631   3.960
   11SAPS  H16Y 1456   3.766   2.467   3.994
   11SAPS  C317 1457   3.848   2.564   4.164
   11SAPS  H17X 1458   3.781   2.523   4.242
   11SAPS  H17Y 1459   3.867   2.668   4.200
   11SAPS  C318 1460   3.971   2.474   4.161
   11SAPS  H18X 1461   4.021   2.457   4.259
   11SAPS  H18Y 1462   4.055   2.502   4.094
   11SAPS  H18Z 1463   3.938   2.377   4.118
   12SAPS     N 1464   2.708   2.064   1.934
   12SAPS   HN1 1465   2.729   2.045   2.034
   12SAPS   HN2 1466   2.622   2.123   1.927
   12SAPS   HN3 1467   2.684   1.977   1.882
   12SAPS   C12 1468   2.822   2.132   1.868
   12SAPS  H12A 1469   2.899   2.058   1.858
   12SAPS   C13 1470   2.794   2.188   1.726
   12SAPS  O13A 1471   2.689   2.145   1.669
   12SAPS  O13B 1472   2.889   2.241   1.656
   12SAPS   C11 1473   2.871   2.257   1.954
   12SAPS  H11A 1474   2.786   2.329   1.960
   12SAPS  H11B 1475   2.955   2.298   1.893
   12SAPS     P 1476   3.007   2.286   2.173
   12SAPS   O13 1477   3.129   2.207   2.163
   12SAPS   O14 1478   3.023   2.429   2.149
   12SAPS   O12 1479   2.895   2.218   2.088
   12SAPS   O11 1480   2.953   2.275   2.324
   12SAPS    C1 1481   2.829   2.343   2.345
   12SAPS    HA 1482   2.851   2.451   2.343
   12SAPS    HB 1483   2.755   2.330   2.263
   12SAPS    C2 1484   2.739   2.296   2.468
   12SAPS    HS 1485   2.777   2.355   2.554
   12SAPS   O21 1486   2.748   2.152   2.478
   12SAPS   C21 1487   2.760   2.110   2.610
   12SAPS   O22 1488   2.742   2.178   2.703
   12SAPS   C22 1489   2.812   1.960   2.617
   12SAPS   H2R 1490   2.745   1.906   2.547
   12SAPS   H2S 1491   2.917   1.959   2.580
   12SAPS    C3 1492   2.601   2.335   2.430
   12SAPS    HX 1493   2.566   2.281   2.340
   12SAPS    HY 1494   2.611   2.444   2.408
   12SAPS   O31 1495   2.502   2.326   2.533
   12SAPS   C31 1496   2.431   2.211   2.545
   12SAPS   O32 1497   2.455   2.113   2.473
   12SAPS   C32 1498   2.332   2.215   2.662
   12SAPS   H2X 1499   2.266   2.126   2.654
   12SAPS   H2Y 1500   2.278   2.310   2.638
   12SAPS   C23 1501   2.811   1.909   2.764
   12SAPS   H3R 1502   2.845   1.997   2.824
   12SAPS   H3S 1503   2.873   1.818   2.775
   12SAPS   C24 1504   2.673   1.878   2.818
   12SAPS   H4R 1505   2.616   1.973   2.817
   12SAPS   H4S 1506   2.684   1.853   2.926
   12SAPS   C25 1507   2.620   1.753   2.748
   12SAPS   H5R 1508   2.683   1.663   2.761
   12SAPS   C26 1509   2.497   1.735   2.691
   12SAPS   H6R 1510   2.470   1.636   2.653
   12SAPS   C27 1511   2.374   1.827   2.675
   12SAPS   H7R 1512   2.360   1.864   2.571
   12SAPS   H7S 1513   2.393   1.918   2.736
   12SAPS   C28 1514   2.241   1.770   2.719
   12SAPS   H8R 1515   2.184   1.736   2.631
   12SAPS   C29 1516   2.181   1.749   2.838
   12SAPS   H9R 1517   2.096   1.680   2.848
   12SAPS  C210 1518   2.252   1.784   2.968
   12SAPS  H10R 1519   2.179   1.817   3.045
   12SAPS  H10S 1520   2.329   1.862   2.955
   12SAPS  C211 1521   2.306   1.665   3.037
   12SAPS  H11R 1522   2.281   1.567   2.995
   12SAPS  C212 1523   2.387   1.670   3.145
   12SAPS  H12R 1524   2.432   1.574   3.174
   12SAPS  C213 1525   2.431   1.790   3.213
   12SAPS  H13R 1526   2.360   1.876   3.215
   12SAPS  H13S 1527   2.513   1.835   3.153
   12SAPS  C214 1528   2.473   1.756   3.357
   12SAPS  H14R 1529   2.388   1.742   3.426
   12SAPS  C215 1530   2.593   1.724   3.394
   12SAPS  H15R 1531   2.615   1.704   3.500
   12SAPS  C216 1532   2.704   1.683   3.295
   12SAPS  H16R 1533   2.687   1.716   3.190
   12SAPS  H16S 1534   2.721   1.574   3.303
   12SAPS  C217 1535   2.831   1.754   3.345
   12SAPS  H17R 1536   2.913   1.718   3.279
   12SAPS  H17S 1537   2.842   1.732   3.453
   12SAPS  C218 1538   2.826   1.902   3.346
   12SAPS  H18R 1539   2.908   1.948   3.405
   12SAPS  H18S 1540   2.729   1.930   3.392
   12SAPS  C219 1541   2.825   1.962   3.201
   12SAPS  H19R 1542   2.743   1.915   3.142
   12SAPS  H19S 1543   2.918   1.928   3.151
   12SAPS  C220 1544   2.800   2.115   3.192
   12SAPS  H20R 1545   2.785   2.132   3.083
   12SAPS  H20S 1546   2.882   2.178   3.232
   12SAPS  H20T 1547   2.706   2.147   3.243
   12SAPS   C33 1548   2.401   2.228   2.800
   12SAPS   H3X 1549   2.452   2.327   2.801
   12SAPS   H3Y 1550   2.484   2.155   2.807
   12SAPS   C34 1551   2.300   2.203   2.915
   12SAPS   H4X 1552   2.235   2.118   2.886
   12SAPS   H4Y 1553   2.227   2.287   2.912
   12SAPS   C35 1554   2.366   2.165   3.048
   12SAPS   H5X 1555   2.448   2.235   3.075
   12SAPS   H5Y 1556   2.421   2.069   3.037
   12SAPS   C36 1557   2.272   2.170   3.164
   12SAPS   H6X 1558   2.204   2.083   3.147
   12SAPS   H6Y 1559   2.205   2.258   3.159
   12SAPS   C37 1560   2.327   2.163   3.301
   12SAPS   H7X 1561   2.420   2.224   3.305
   12SAPS   H7Y 1562   2.358   2.059   3.324
   12SAPS   C38 1563   2.227   2.198   3.416
   12SAPS   H8X 1564   2.138   2.132   3.421
   12SAPS   H8Y 1565   2.185   2.299   3.397
   12SAPS   C39 1566   2.285   2.200   3.563
   12SAPS   H9X 1567   2.332   2.298   3.586
   12SAPS   H9Y 1568   2.365   2.123   3.573
   12SAPS  C310 1569   2.181   2.172   3.674
   12SAPS  H10X 1570   2.115   2.095   3.630
   12SAPS  H10Y 1571   2.108   2.254   3.691
   12SAPS  C311 1572   2.246   2.116   3.801
   12SAPS  H11X 1573   2.283   2.017   3.768
   12SAPS  H11Y 1574   2.165   2.096   3.874
   12SAPS  C312 1575   2.346   2.213   3.859
   12SAPS  H12X 1576   2.301   2.315   3.854
   12SAPS  H12Y 1577   2.431   2.210   3.787
   12SAPS  C313 1578   2.393   2.168   3.997
   12SAPS  H13X 1579   2.313   2.162   4.074
   12SAPS  H13Y 1580   2.458   2.250   4.033
   12SAPS  C314 1581   2.466   2.031   3.995
   12SAPS  H14X 1582   2.383   1.958   3.991
   12SAPS  H14Y 1583   2.515   2.013   4.094
   12SAPS  C315 1584   2.572   1.989   3.888
   12SAPS  H15X 1585   2.516   1.972   3.793
   12SAPS  H15Y 1586   2.601   1.883   3.905
   12SAPS  C316 1587   2.690   2.087   3.884
   12SAPS  H16X 1588   2.760   2.072   3.970
   12SAPS  H16Y 1589   2.641   2.185   3.895
   12SAPS  C317 1590   2.767   2.069   3.753
   12SAPS  H17X 1591   2.795   1.962   3.753
   12SAPS  H17Y 1592   2.863   2.124   3.763
   12SAPS  C318 1593   2.689   2.093   3.628
   12SAPS  H18X 1594   2.749   2.107   3.536
   12SAPS  H18Y 1595   2.614   2.173   3.643
   12SAPS  H18Z 1596   2.630   2.000   3.611
   13SAPS     N 1597   4.822   2.235   1.970
   13SAPS   HN1 1598   4.856   2.173   2.047
   13SAPS   HN2 1599   4.861   2.223   1.875
   13SAPS   HN3 1600   4.845   2.333   1.994
   13SAPS   C12 1601   4.673   2.229   1.973
   13SAPS  H12A 1602   4.648   2.238   2.078
   13SAPS   C13 1603   4.611   2.351   1.894
   13SAPS  O13A 1604   4.685   2.446   1.854
   13SAPS  O13B 1605   4.492   2.366   1.898
   13SAPS   C11 1606   4.631   2.082   1.929
   13SAPS  H11A 1607   4.655   2.071   1.821
   13SAPS  H11B 1608   4.520   2.090   1.937
   13SAPS     P 1609   4.631   1.830   1.964
   13SAPS   O13 1610   4.540   1.837   1.850
   13SAPS   O14 1611   4.750   1.742   1.950
   13SAPS   O12 1612   4.685   1.972   2.006
   13SAPS   O11 1613   4.546   1.793   2.092
   13SAPS    C1 1614   4.580   1.834   2.220
   13SAPS    HA 1615   4.689   1.859   2.221
   13SAPS    HB 1616   4.520   1.922   2.251
   13SAPS    C2 1617   4.575   1.728   2.334
   13SAPS    HS 1618   4.641   1.647   2.297
   13SAPS   O21 1619   4.436   1.684   2.348
   13SAPS   C21 1620   4.428   1.561   2.403
   13SAPS   O22 1621   4.522   1.488   2.425
   13SAPS   C22 1622   4.277   1.522   2.427
   13SAPS   H2R 1623   4.211   1.603   2.390
   13SAPS   H2S 1624   4.254   1.431   2.368
   13SAPS    C3 1625   4.622   1.790   2.472
   13SAPS    HX 1626   4.547   1.866   2.502
   13SAPS    HY 1627   4.709   1.854   2.449
   13SAPS   O31 1628   4.640   1.700   2.581
   13SAPS   C31 1629   4.754   1.642   2.591
   13SAPS   O32 1630   4.847   1.661   2.518
   13SAPS   C32 1631   4.761   1.545   2.716
   13SAPS   H2X 1632   4.740   1.446   2.672
   13SAPS   H2Y 1633   4.677   1.579   2.780
   13SAPS   C23 1634   4.248   1.494   2.578
   13SAPS   H3R 1635   4.140   1.476   2.592
   13SAPS   H3S 1636   4.271   1.589   2.632
   13SAPS   C24 1637   4.327   1.375   2.632
   13SAPS   H4R 1638   4.436   1.393   2.646
   13SAPS   H4S 1639   4.325   1.284   2.568
   13SAPS   C25 1640   4.275   1.340   2.766
   13SAPS   H5R 1641   4.166   1.346   2.782
   13SAPS   C26 1642   4.354   1.293   2.867
   13SAPS   H6R 1643   4.310   1.248   2.957
   13SAPS   C27 1644   4.510   1.272   2.857
   13SAPS   H7R 1645   4.570   1.364   2.848
   13SAPS   H7S 1646   4.536   1.202   2.774
   13SAPS   C28 1647   4.557   1.212   2.988
   13SAPS   H8R 1648   4.570   1.103   2.986
   13SAPS   C29 1649   4.566   1.276   3.105
   13SAPS   H9R 1650   4.604   1.215   3.188
   13SAPS  C210 1651   4.522   1.417   3.130
   13SAPS  H10R 1652   4.457   1.451   3.047
   13SAPS  H10S 1653   4.609   1.484   3.113
   13SAPS  C211 1654   4.458   1.419   3.270
   13SAPS  H11R 1655   4.349   1.407   3.272
   13SAPS  C212 1656   4.520   1.432   3.386
   13SAPS  H12R 1657   4.464   1.426   3.480
   13SAPS  C213 1658   4.672   1.460   3.403
   13SAPS  H13R 1659   4.687   1.542   3.476
   13SAPS  H13S 1660   4.728   1.483   3.311
   13SAPS  C214 1661   4.739   1.343   3.472
   13SAPS  H14R 1662   4.762   1.257   3.408
   13SAPS  C215 1663   4.797   1.343   3.589
   13SAPS  H15R 1664   4.839   1.245   3.618
   13SAPS  C216 1665   4.804   1.447   3.696
   13SAPS  H16R 1666   4.811   1.550   3.655
   13SAPS  H16S 1667   4.894   1.431   3.759
   13SAPS  C217 1668   4.700   1.442   3.796
   13SAPS  H17R 1669   4.601   1.434   3.747
   13SAPS  H17S 1670   4.686   1.543   3.842
   13SAPS  C218 1671   4.718   1.332   3.907
   13SAPS  H18R 1672   4.771   1.240   3.874
   13SAPS  H18S 1673   4.614   1.313   3.942
   13SAPS  C219 1674   4.801   1.382   4.024
   13SAPS  H19R 1675   4.739   1.457   4.077
   13SAPS  H19S 1676   4.893   1.431   3.987
   13SAPS  C220 1677   4.843   1.271   4.121
   13SAPS  H20R 1678   4.901   1.192   4.068
   13SAPS  H20S 1679   4.762   1.201   4.151
   13SAPS  H20T 1680   4.895   1.311   4.211
   13SAPS   C33 1681   4.897   1.562   2.790
   13SAPS   H3X 1682   4.874   1.542   2.896
   13SAPS   H3Y 1683   4.936   1.665   2.794
   13SAPS   C34 1684   5.006   1.468   2.729
   13SAPS   H4X 1685   5.103   1.489   2.778
   13SAPS   H4Y 1686   5.020   1.492   2.622
   13SAPS   C35 1687   4.984   1.318   2.745
   13SAPS   H5X 1688   5.070   1.268   2.696
   13SAPS   H5Y 1689   4.905   1.286   2.674
   13SAPS   C36 1690   4.951   1.272   2.887
   13SAPS   H6X 1691   4.899   1.175   2.880
   13SAPS   H6Y 1692   4.876   1.338   2.935
   13SAPS   C37 1693   5.074   1.268   2.984
   13SAPS   H7X 1694   5.159   1.327   2.944
   13SAPS   H7Y 1695   5.104   1.161   2.982
   13SAPS   C38 1696   5.034   1.301   3.124
   13SAPS   H8X 1697   4.935   1.261   3.153
   13SAPS   H8Y 1698   5.044   1.411   3.137
   13SAPS   C39 1699   5.126   1.233   3.228
   13SAPS   H9X 1700   5.235   1.243   3.207
   13SAPS   H9Y 1701   5.108   1.124   3.215
   13SAPS  C310 1702   5.087   1.274   3.364
   13SAPS  H10X 1703   4.976   1.270   3.373
   13SAPS  H10Y 1704   5.113   1.382   3.371
   13SAPS  C311 1705   5.162   1.197   3.471
   13SAPS  H11X 1706   5.270   1.190   3.444
   13SAPS  H11Y 1707   5.129   1.092   3.468
   13SAPS  C312 1708   5.159   1.263   3.615
   13SAPS  H12X 1709   5.095   1.353   3.621
   13SAPS  H12Y 1710   5.261   1.301   3.639
   13SAPS  C313 1711   5.113   1.160   3.719
   13SAPS  H13X 1712   5.168   1.066   3.695
   13SAPS  H13Y 1713   5.006   1.132   3.708
   13SAPS  C314 1714   5.143   1.208   3.865
   13SAPS  H14X 1715   5.091   1.136   3.932
   13SAPS  H14Y 1716   5.110   1.314   3.873
   13SAPS  C315 1717   5.286   1.191   3.911
   13SAPS  H15X 1718   5.365   1.239   3.851
   13SAPS  H15Y 1719   5.313   1.083   3.911
   13SAPS  C316 1720   5.314   1.260   4.047
   13SAPS  H16X 1721   5.241   1.344   4.053
   13SAPS  H16Y 1722   5.406   1.321   4.047
   13SAPS  C317 1723   5.281   1.169   4.160
   13SAPS  H17X 1724   5.171   1.155   4.156
   13SAPS  H17Y 1725   5.287   1.231   4.253
   13SAPS  C318 1726   5.380   1.048   4.174
   13SAPS  H18X 1727   5.482   1.092   4.174
   13SAPS  H18Y 1728   5.370   0.984   4.083
   13SAPS  H18Z 1729   5.368   0.984   4.264
   14SAPS     N 1730   5.008   3.496   2.272
   14SAPS   HN1 1731   5.034   3.507   2.372
   14SAPS   HN2 1732   4.936   3.423   2.254
   14SAPS   HN3 1733   5.092   3.470   2.216
   14SAPS   C12 1734   4.947   3.615   2.214
   14SAPS  H12A 1735   4.931   3.585   2.111
   14SAPS   C13 1736   4.805   3.656   2.260
   14SAPS  O13A 1737   4.740   3.579   2.340
   14SAPS  O13B 1738   4.767   3.775   2.236
   14SAPS   C11 1739   5.046   3.739   2.243
   14SAPS  H11A 1740   5.032   3.758   2.351
   14SAPS  H11B 1741   5.023   3.829   2.182
   14SAPS     P 1742   5.302   3.795   2.244
   14SAPS   O13 1743   5.422   3.745   2.182
   14SAPS   O14 1744   5.249   3.931   2.217
   14SAPS   O12 1745   5.179   3.704   2.207
   14SAPS   O11 1746   5.320   3.772   2.400
   14SAPS    C1 1747   5.366   3.644   2.450
   14SAPS    HA 1748   5.313   3.557   2.405
   14SAPS    HB 1749   5.474   3.629   2.432
   14SAPS    C2 1750   5.344   3.634   2.610
   14SAPS    HS 1751   5.344   3.526   2.636
   14SAPS   O21 1752   5.219   3.685   2.653
   14SAPS   C21 1753   5.106   3.634   2.612
   14SAPS   O22 1754   5.093   3.550   2.523
   14SAPS   C22 1755   4.992   3.683   2.699
   14SAPS   H2R 1756   5.011   3.786   2.737
   14SAPS   H2S 1757   4.915   3.701   2.622
   14SAPS    C3 1758   5.464   3.703   2.683
   14SAPS    HX 1759   5.481   3.807   2.646
   14SAPS    HY 1760   5.551   3.647   2.643
   14SAPS   O31 1761   5.459   3.686   2.824
   14SAPS   C31 1762   5.400   3.783   2.893
   14SAPS   O32 1763   5.336   3.879   2.851
   14SAPS   C32 1764   5.452   3.762   3.039
   14SAPS   H2X 1765   5.552   3.808   3.052
   14SAPS   H2Y 1766   5.461   3.653   3.057
   14SAPS   C23 1767   4.943   3.580   2.803
   14SAPS   H3R 1768   4.983   3.483   2.767
   14SAPS   H3S 1769   4.832   3.579   2.791
   14SAPS   C24 1770   4.987   3.607   2.950
   14SAPS   H4R 1771   5.096   3.619   2.968
   14SAPS   H4S 1772   4.951   3.526   3.018
   14SAPS   C25 1773   4.909   3.736   2.990
   14SAPS   H5R 1774   4.963   3.828   2.963
   14SAPS   C26 1775   4.785   3.736   3.045
   14SAPS   H6R 1776   4.732   3.830   3.067
   14SAPS   C27 1777   4.704   3.623   3.093
   14SAPS   H7R 1778   4.767   3.584   3.176
   14SAPS   H7S 1779   4.707   3.531   3.030
   14SAPS   C28 1780   4.560   3.658   3.124
   14SAPS   H8R 1781   4.491   3.638   3.041
   14SAPS   C29 1782   4.517   3.723   3.238
   14SAPS   H9R 1783   4.408   3.727   3.257
   14SAPS  C210 1784   4.613   3.766   3.346
   14SAPS  H10R 1785   4.605   3.876   3.355
   14SAPS  H10S 1786   4.719   3.756   3.313
   14SAPS  C211 1787   4.595   3.704   3.480
   14SAPS  H11R 1788   4.499   3.731   3.526
   14SAPS  C212 1789   4.674   3.623   3.548
   14SAPS  H12R 1790   4.640   3.596   3.649
   14SAPS  C213 1791   4.808   3.563   3.497
   14SAPS  H13R 1792   4.809   3.554   3.387
   14SAPS  H13S 1793   4.828   3.458   3.525
   14SAPS  C214 1794   4.935   3.642   3.526
   14SAPS  H14R 1795   4.946   3.746   3.492
   14SAPS  C215 1796   5.047   3.607   3.594
   14SAPS  H15R 1797   5.117   3.691   3.612
   14SAPS  C216 1798   5.067   3.472   3.661
   14SAPS  H16R 1799   5.163   3.427   3.626
   14SAPS  H16S 1800   5.000   3.397   3.614
   14SAPS  C217 1801   5.074   3.470   3.815
   14SAPS  H17R 1802   5.084   3.363   3.843
   14SAPS  H17S 1803   4.986   3.520   3.861
   14SAPS  C218 1804   5.198   3.543   3.874
   14SAPS  H18R 1805   5.202   3.649   3.840
   14SAPS  H18S 1806   5.282   3.487   3.826
   14SAPS  C219 1807   5.200   3.532   4.026
   14SAPS  H19R 1808   5.291   3.470   4.042
   14SAPS  H19S 1809   5.111   3.479   4.067
   14SAPS  C220 1810   5.216   3.671   4.096
   14SAPS  H20R 1811   5.207   3.658   4.205
   14SAPS  H20S 1812   5.133   3.739   4.068
   14SAPS  H20T 1813   5.315   3.714   4.070
   14SAPS   C33 1814   5.348   3.809   3.146
   14SAPS   H3X 1815   5.274   3.727   3.159
   14SAPS   H3Y 1816   5.302   3.907   3.120
   14SAPS   C34 1817   5.420   3.821   3.284
   14SAPS   H4X 1818   5.506   3.891   3.272
   14SAPS   H4Y 1819   5.458   3.718   3.292
   14SAPS   C35 1820   5.328   3.853   3.402
   14SAPS   H5X 1821   5.232   3.800   3.383
   14SAPS   H5Y 1822   5.304   3.961   3.412
   14SAPS   C36 1823   5.380   3.802   3.538
   14SAPS   H6X 1824   5.381   3.691   3.525
   14SAPS   H6Y 1825   5.309   3.834   3.618
   14SAPS   C37 1826   5.519   3.853   3.580
   14SAPS   H7X 1827   5.541   3.955   3.543
   14SAPS   H7Y 1828   5.597   3.792   3.530
   14SAPS   C38 1829   5.546   3.851   3.729
   14SAPS   H8X 1830   5.453   3.884   3.780
   14SAPS   H8Y 1831   5.622   3.929   3.753
   14SAPS   C39 1832   5.576   3.712   3.787
   14SAPS   H9X 1833   5.643   3.656   3.718
   14SAPS   H9Y 1834   5.489   3.644   3.800
   14SAPS  C310 1835   5.641   3.718   3.927
   14SAPS  H10X 1836   5.576   3.781   3.992
   14SAPS  H10Y 1837   5.740   3.769   3.924
   14SAPS  C311 1838   5.650   3.575   3.976
   14SAPS  H11X 1839   5.714   3.506   3.916
   14SAPS  H11Y 1840   5.547   3.534   3.975
   14SAPS  C312 1841   5.693   3.576   4.128
   14SAPS  H12X 1842   5.791   3.627   4.137
   14SAPS  H12Y 1843   5.728   3.477   4.164
   14SAPS  C313 1844   5.593   3.639   4.232
   14SAPS  H13X 1845   5.494   3.590   4.219
   14SAPS  H13Y 1846   5.581   3.749   4.222
   14SAPS  C314 1847   5.628   3.623   4.378
   14SAPS  H14X 1848   5.550   3.673   4.440
   14SAPS  H14Y 1849   5.720   3.681   4.403
   14SAPS  C315 1850   5.647   3.486   4.442
   14SAPS  H15X 1851   5.656   3.502   4.551
   14SAPS  H15Y 1852   5.746   3.442   4.414
   14SAPS  C316 1853   5.534   3.387   4.415
   14SAPS  H16X 1854   5.522   3.359   4.308
   14SAPS  H16Y 1855   5.441   3.443   4.441
   14SAPS  C317 1856   5.546   3.262   4.505
   14SAPS  H17X 1857   5.539   3.292   4.611
   14SAPS  H17Y 1858   5.641   3.208   4.486
   14SAPS  C318 1859   5.441   3.154   4.477
   14SAPS  H18X 1860   5.464   3.122   4.374
   14SAPS  H18Y 1861   5.336   3.191   4.472
   14SAPS  H18Z 1862   5.446   3.069   4.549
   15SAPS     N 1863   4.045   3.274   1.773
   15SAPS   HN1 1864   3.952   3.306   1.741
   15SAPS   HN2 1865   4.085   3.214   1.698
   15SAPS   HN3 1866   4.034   3.212   1.856
   15SAPS   C12 1867   4.131   3.383   1.798
   15SAPS  H12A 1868   4.224   3.340   1.835
   15SAPS   C13 1869   4.159   3.478   1.684
   15SAPS  O13A 1870   4.121   3.448   1.565
   15SAPS  O13B 1871   4.257   3.559   1.697
   15SAPS   C11 1872   4.076   3.461   1.916
   15SAPS  H11A 1873   3.971   3.481   1.887
   15SAPS  H11B 1874   4.130   3.555   1.938
   15SAPS     P 1875   3.966   3.368   2.139
   15SAPS   O13 1876   3.850   3.332   2.062
   15SAPS   O14 1877   4.015   3.276   2.244
   15SAPS   O12 1878   4.088   3.381   2.039
   15SAPS   O11 1879   3.933   3.513   2.197
   15SAPS    C1 1880   4.025   3.617   2.223
   15SAPS    HA 1881   4.129   3.581   2.206
   15SAPS    HB 1882   4.006   3.711   2.168
   15SAPS    C2 1883   4.026   3.661   2.370
   15SAPS    HS 1884   4.095   3.747   2.384
   15SAPS   O21 1885   4.059   3.550   2.462
   15SAPS   C21 1886   4.190   3.523   2.456
   15SAPS   O22 1887   4.272   3.578   2.386
   15SAPS   C22 1888   4.224   3.406   2.544
   15SAPS   H2R 1889   4.133   3.391   2.606
   15SAPS   H2S 1890   4.244   3.314   2.485
   15SAPS    C3 1891   3.882   3.703   2.405
   15SAPS    HX 1892   3.839   3.610   2.448
   15SAPS    HY 1893   3.832   3.734   2.311
   15SAPS   O31 1894   3.882   3.801   2.508
   15SAPS   C31 1895   3.801   3.901   2.495
   15SAPS   O32 1896   3.699   3.906   2.428
   15SAPS   C32 1897   3.843   4.016   2.587
   15SAPS   H2X 1898   3.855   4.110   2.528
   15SAPS   H2Y 1899   3.931   3.991   2.649
   15SAPS   C23 1900   4.339   3.432   2.636
   15SAPS   H3R 1901   4.304   3.501   2.716
   15SAPS   H3S 1902   4.428   3.470   2.580
   15SAPS   C24 1903   4.399   3.310   2.717
   15SAPS   H4R 1904   4.482   3.347   2.780
   15SAPS   H4S 1905   4.447   3.247   2.639
   15SAPS   C25 1906   4.301   3.233   2.796
   15SAPS   H5R 1907   4.254   3.160   2.729
   15SAPS   C26 1908   4.281   3.236   2.932
   15SAPS   H6R 1909   4.219   3.155   2.972
   15SAPS   C27 1910   4.352   3.331   3.024
   15SAPS   H7R 1911   4.421   3.400   2.972
   15SAPS   H7S 1912   4.408   3.275   3.103
   15SAPS   C28 1913   4.247   3.413   3.098
   15SAPS   H8R 1914   4.167   3.446   3.030
   15SAPS   C29 1915   4.235   3.436   3.235
   15SAPS   H9R 1916   4.134   3.457   3.274
   15SAPS  C210 1917   4.332   3.405   3.347
   15SAPS  H10R 1918   4.326   3.504   3.396
   15SAPS  H10S 1919   4.434   3.386   3.309
   15SAPS  C211 1920   4.282   3.298   3.438
   15SAPS  H11R 1921   4.177   3.264   3.430
   15SAPS  C212 1922   4.360   3.246   3.542
   15SAPS  H12R 1923   4.309   3.177   3.611
   15SAPS  C213 1924   4.511   3.275   3.557
   15SAPS  H13R 1925   4.520   3.368   3.617
   15SAPS  H13S 1926   4.562   3.289   3.459
   15SAPS  C214 1927   4.573   3.146   3.606
   15SAPS  H14R 1928   4.572   3.071   3.526
   15SAPS  C215 1929   4.613   3.111   3.729
   15SAPS  H15R 1930   4.658   3.013   3.750
   15SAPS  C216 1931   4.632   3.204   3.842
   15SAPS  H16R 1932   4.566   3.184   3.929
   15SAPS  H16S 1933   4.616   3.311   3.816
   15SAPS  C217 1934   4.779   3.193   3.903
   15SAPS  H17R 1935   4.799   3.270   3.980
   15SAPS  H17S 1936   4.856   3.202   3.824
   15SAPS  C218 1937   4.802   3.050   3.964
   15SAPS  H18R 1938   4.827   2.981   3.880
   15SAPS  H18S 1939   4.704   3.010   3.999
   15SAPS  C219 1940   4.914   3.038   4.071
   15SAPS  H19R 1941   4.930   2.930   4.090
   15SAPS  H19S 1942   4.893   3.078   4.172
   15SAPS  C220 1943   5.041   3.099   4.019
   15SAPS  H20R 1944   5.059   3.051   3.921
   15SAPS  H20S 1945   5.126   3.094   4.090
   15SAPS  H20T 1946   5.025   3.208   4.001
   15SAPS   C33 1947   3.737   4.052   2.690
   15SAPS   H3X 1948   3.635   4.063   2.648
   15SAPS   H3Y 1949   3.757   4.157   2.722
   15SAPS   C34 1950   3.734   3.954   2.810
   15SAPS   H4X 1951   3.837   3.951   2.851
   15SAPS   H4Y 1952   3.703   3.853   2.774
   15SAPS   C35 1953   3.647   4.003   2.925
   15SAPS   H5X 1954   3.543   3.992   2.888
   15SAPS   H5Y 1955   3.664   4.111   2.945
   15SAPS   C36 1956   3.651   3.917   3.059
   15SAPS   H6X 1957   3.757   3.914   3.094
   15SAPS   H6Y 1958   3.618   3.816   3.028
   15SAPS   C37 1959   3.571   3.978   3.179
   15SAPS   H7X 1960   3.468   3.980   3.139
   15SAPS   H7Y 1961   3.608   4.082   3.196
   15SAPS   C38 1962   3.585   3.895   3.309
   15SAPS   H8X 1963   3.685   3.886   3.355
   15SAPS   H8Y 1964   3.547   3.794   3.283
   15SAPS   C39 1965   3.493   3.952   3.419
   15SAPS   H9X 1966   3.465   3.864   3.481
   15SAPS   H9Y 1967   3.398   3.995   3.381
   15SAPS  C310 1968   3.571   4.055   3.515
   15SAPS  H10X 1969   3.601   4.143   3.453
   15SAPS  H10Y 1970   3.660   4.002   3.555
   15SAPS  C311 1971   3.495   4.114   3.634
   15SAPS  H11X 1972   3.417   4.185   3.602
   15SAPS  H11Y 1973   3.560   4.165   3.709
   15SAPS  C312 1974   3.433   4.005   3.731
   15SAPS  H12X 1975   3.347   3.957   3.680
   15SAPS  H12Y 1976   3.387   4.060   3.816
   15SAPS  C313 1977   3.528   3.903   3.798
   15SAPS  H13X 1978   3.563   3.815   3.740
   15SAPS  H13Y 1979   3.466   3.850   3.874
   15SAPS  C314 1980   3.642   3.966   3.877
   15SAPS  H14X 1981   3.606   4.049   3.941
   15SAPS  H14Y 1982   3.718   4.012   3.809
   15SAPS  C315 1983   3.731   3.871   3.946
   15SAPS  H15X 1984   3.789   3.805   3.878
   15SAPS  H15Y 1985   3.668   3.797   4.000
   15SAPS  C316 1986   3.841   3.935   4.028
   15SAPS  H16X 1987   3.803   4.004   4.107
   15SAPS  H16Y 1988   3.894   4.010   3.965
   15SAPS  C317 1989   3.934   3.837   4.093
   15SAPS  H17X 1990   3.877   3.763   4.152
   15SAPS  H17Y 1991   3.980   3.893   4.177
   15SAPS  C318 1992   4.038   3.776   3.993
   15SAPS  H18X 1993   4.085   3.854   3.928
   15SAPS  H18Y 1994   3.987   3.698   3.934
   15SAPS  H18Z 1995   4.105   3.721   4.062
   16SAPS     N 1996   5.728   4.326   2.259
   16SAPS   HN1 1997   5.663   4.407   2.251
   16SAPS   HN2 1998   5.698   4.275   2.344
   16SAPS   HN3 1999   5.823   4.365   2.277
   16SAPS   C12 2000   5.729   4.255   2.127
   16SAPS  H12A 2001   5.641   4.193   2.131
   16SAPS   C13 2002   5.723   4.351   2.005
   16SAPS  O13A 2003   5.713   4.473   2.037
   16SAPS  O13B 2004   5.715   4.303   1.892
   16SAPS   C11 2005   5.866   4.182   2.123
   16SAPS  H11A 2006   5.943   4.260   2.143
   16SAPS  H11B 2007   5.873   4.138   2.021
   16SAPS     P 2008   5.997   4.000   2.252
   16SAPS   O13 2009   6.022   3.904   2.144
   16SAPS   O14 2010   6.100   4.094   2.285
   16SAPS   O12 2011   5.866   4.077   2.227
   16SAPS   O11 2012   5.966   3.923   2.388
   16SAPS    C1 2013   5.838   3.871   2.413
   16SAPS    HA 2014   5.777   3.871   2.321
   16SAPS    HB 2015   5.849   3.770   2.457
   16SAPS    C2 2016   5.760   3.952   2.520
   16SAPS    HS 2017   5.821   4.043   2.537
   16SAPS   O21 2018   5.750   3.881   2.643
   16SAPS   C21 2019   5.855   3.892   2.725
   16SAPS   O22 2020   5.965   3.935   2.689
   16SAPS   C22 2021   5.808   3.862   2.862
   16SAPS   H2R 2022   5.728   3.931   2.896
   16SAPS   H2S 2023   5.761   3.762   2.850
   16SAPS    C3 2024   5.620   3.990   2.464
   16SAPS    HX 2025   5.571   3.897   2.430
   16SAPS    HY 2026   5.621   4.038   2.364
   16SAPS   O31 2027   5.541   4.053   2.566
   16SAPS   C31 2028   5.549   4.193   2.567
   16SAPS   O32 2029   5.625   4.258   2.495
   16SAPS   C32 2030   5.446   4.245   2.660
   16SAPS   H2X 2031   5.366   4.171   2.682
   16SAPS   H2Y 2032   5.398   4.337   2.622
   16SAPS   C23 2033   5.927   3.867   2.961
   16SAPS   H3R 2034   5.959   3.974   2.961
   16SAPS   H3S 2035   6.007   3.807   2.913
   16SAPS   C24 2036   5.884   3.822   3.099
   16SAPS   H4R 2037   5.844   3.718   3.104
   16SAPS   H4S 2038   5.792   3.880   3.120
   16SAPS   C25 2039   5.987   3.847   3.203
   16SAPS   H5R 2040   6.092   3.838   3.172
   16SAPS   C26 2041   5.954   3.884   3.327
   16SAPS   H6R 2042   6.033   3.891   3.403
   16SAPS   C27 2043   5.817   3.911   3.385
   16SAPS   H7R 2044   5.818   3.882   3.492
   16SAPS   H7S 2045   5.757   3.834   3.332
   16SAPS   C28 2046   5.754   4.046   3.364
   16SAPS   H8R 2047   5.692   4.062   3.274
   16SAPS   C29 2048   5.774   4.155   3.445
   16SAPS   H9R 2049   5.755   4.259   3.413
   16SAPS  C210 2050   5.854   4.150   3.570
   16SAPS  H10R 2051   5.949   4.097   3.550
   16SAPS  H10S 2052   5.808   4.074   3.637
   16SAPS  C211 2053   5.883   4.270   3.660
   16SAPS  H11R 2054   5.954   4.347   3.626
   16SAPS  C212 2055   5.826   4.298   3.782
   16SAPS  H12R 2056   5.856   4.389   3.837
   16SAPS  C213 2057   5.729   4.214   3.862
   16SAPS  H13R 2058   5.741   4.229   3.971
   16SAPS  H13S 2059   5.750   4.108   3.836
   16SAPS  C214 2060   5.586   4.227   3.824
   16SAPS  H14R 2061   5.577   4.286   3.732
   16SAPS  C215 2062   5.483   4.184   3.894
   16SAPS  H15R 2063   5.379   4.194   3.857
   16SAPS  C216 2064   5.483   4.109   4.023
   16SAPS  H16R 2065   5.584   4.074   4.053
   16SAPS  H16S 2066   5.435   4.010   4.007
   16SAPS  C217 2067   5.413   4.187   4.134
   16SAPS  H17R 2068   5.310   4.219   4.107
   16SAPS  H17S 2069   5.474   4.279   4.140
   16SAPS  C218 2070   5.437   4.126   4.274
   16SAPS  H18R 2071   5.367   4.039   4.279
   16SAPS  H18S 2072   5.411   4.204   4.349
   16SAPS  C219 2073   5.572   4.059   4.304
   16SAPS  H19R 2074   5.657   4.125   4.274
   16SAPS  H19S 2075   5.580   3.967   4.243
   16SAPS  C220 2076   5.608   4.022   4.451
   16SAPS  H20R 2077   5.521   3.973   4.499
   16SAPS  H20S 2078   5.615   4.112   4.516
   16SAPS  H20T 2079   5.704   3.965   4.457
   16SAPS   C33 2080   5.510   4.279   2.799
   16SAPS   H3X 2081   5.440   4.350   2.850
   16SAPS   H3Y 2082   5.605   4.332   2.781
   16SAPS   C34 2083   5.535   4.156   2.887
   16SAPS   H4X 2084   5.577   4.080   2.817
   16SAPS   H4Y 2085   5.435   4.126   2.924
   16SAPS   C35 2086   5.627   4.177   3.003
   16SAPS   H5X 2087   5.732   4.186   2.970
   16SAPS   H5Y 2088   5.627   4.075   3.049
   16SAPS   C36 2089   5.579   4.283   3.104
   16SAPS   H6X 2090   5.531   4.372   3.057
   16SAPS   H6Y 2091   5.670   4.332   3.144
   16SAPS   C37 2092   5.482   4.243   3.219
   16SAPS   H7X 2093   5.532   4.184   3.298
   16SAPS   H7Y 2094   5.405   4.175   3.177
   16SAPS   C38 2095   5.420   4.373   3.277
   16SAPS   H8X 2096   5.378   4.433   3.193
   16SAPS   H8Y 2097   5.500   4.433   3.325
   16SAPS   C39 2098   5.298   4.355   3.377
   16SAPS   H9X 2099   5.340   4.283   3.451
   16SAPS   H9Y 2100   5.212   4.313   3.321
   16SAPS  C310 2101   5.274   4.482   3.453
   16SAPS  H10X 2102   5.358   4.525   3.511
   16SAPS  H10Y 2103   5.207   4.446   3.534
   16SAPS  C311 2104   5.198   4.587   3.362
   16SAPS  H11X 2105   5.121   4.543   3.294
   16SAPS  H11Y 2106   5.265   4.636   3.289
   16SAPS  C312 2107   5.134   4.705   3.445
   16SAPS  H12X 2108   5.210   4.761   3.505
   16SAPS  H12Y 2109   5.068   4.657   3.520
   16SAPS  C313 2110   5.063   4.807   3.357
   16SAPS  H13X 2111   5.016   4.759   3.269
   16SAPS  H13Y 2112   5.140   4.873   3.311
   16SAPS  C314 2113   4.972   4.905   3.439
   16SAPS  H14X 2114   5.037   4.950   3.518
   16SAPS  H14Y 2115   4.890   4.853   3.492
   16SAPS  C315 2116   4.899   5.012   3.347
   16SAPS  H15X 2117   4.816   4.970   3.287
   16SAPS  H15Y 2118   4.968   5.068   3.281
   16SAPS  C316 2119   4.827   5.109   3.442
   16SAPS  H16X 2120   4.881   5.155   3.527
   16SAPS  H16Y 2121   4.745   5.048   3.486
   16SAPS  C317 2122   4.761   5.221   3.363
   16SAPS  H17X 2123   4.674   5.263   3.418
   16SAPS  H17Y 2124   4.722   5.169   3.273
   16SAPS  C318 2125   4.843   5.345   3.317
   16SAPS  H18X 2126   4.870   5.401   3.409
   16SAPS  H18Y 2127   4.779   5.409   3.253
   16SAPS  H18Z 2128   4.934   5.323   3.257
   17SAPS     N 2129   1.586   2.306   1.709
   17SAPS   HN1 2130   1.522   2.387   1.695
   17SAPS   HN2 2131   1.545   2.253   1.788
   17SAPS   HN3 2132   1.675   2.345   1.748
   17SAPS   C12 2133   1.600   2.229   1.576
   17SAPS  H12A 2134   1.632   2.302   1.503
   17SAPS   C13 2135   1.695   2.108   1.597
   17SAPS  O13A 2136   1.749   2.082   1.709
   17SAPS  O13B 2137   1.713   2.032   1.496
   17SAPS   C11 2138   1.457   2.179   1.545
   17SAPS  H11A 2139   1.422   2.096   1.611
   17SAPS  H11B 2140   1.480   2.125   1.450
   17SAPS     P 2141   1.209   2.231   1.497
   17SAPS   O13 2142   1.124   2.350   1.463
   17SAPS   O14 2143   1.229   2.121   1.399
   17SAPS   O12 2144   1.355   2.278   1.533
   17SAPS   O11 2145   1.155   2.169   1.635
   17SAPS    C1 2146   1.153   2.257   1.755
   17SAPS    HA 2147   1.240   2.326   1.765
   17SAPS    HB 2148   1.064   2.324   1.748
   17SAPS    C2 2149   1.142   2.184   1.898
   17SAPS    HS 2150   1.173   2.249   1.983
   17SAPS   O21 2151   1.222   2.062   1.899
   17SAPS   C21 2152   1.354   2.067   1.890
   17SAPS   O22 2153   1.424   2.172   1.905
   17SAPS   C22 2154   1.413   1.931   1.871
   17SAPS   H2R 2155   1.342   1.855   1.913
   17SAPS   H2S 2156   1.434   1.912   1.764
   17SAPS    C3 2157   0.998   2.144   1.925
   17SAPS    HX 2158   0.966   2.069   1.849
   17SAPS    HY 2159   0.946   2.237   1.895
   17SAPS   O31 2160   0.972   2.094   2.059
   17SAPS   C31 2161   0.996   1.961   2.076
   17SAPS   O32 2162   1.023   1.884   1.979
   17SAPS   C32 2163   0.997   1.922   2.220
   17SAPS   H2X 2164   1.101   1.937   2.255
   17SAPS   H2Y 2165   0.975   1.814   2.225
   17SAPS   C23 2166   1.540   1.909   1.951
   17SAPS   H3R 2167   1.613   1.989   1.927
   17SAPS   H3S 2168   1.578   1.812   1.912
   17SAPS   C24 2169   1.513   1.886   2.106
   17SAPS   H4R 2170   1.426   1.822   2.131
   17SAPS   H4S 2171   1.491   1.988   2.145
   17SAPS   C25 2172   1.628   1.832   2.183
   17SAPS   H5R 2173   1.729   1.846   2.142
   17SAPS   C26 2174   1.619   1.771   2.303
   17SAPS   H6R 2175   1.707   1.732   2.357
   17SAPS   C27 2176   1.501   1.760   2.397
   17SAPS   H7R 2177   1.409   1.799   2.349
   17SAPS   H7S 2178   1.518   1.819   2.490
   17SAPS   C28 2179   1.472   1.619   2.458
   17SAPS   H8R 2180   1.415   1.553   2.390
   17SAPS   C29 2181   1.544   1.563   2.555
   17SAPS   H9R 2182   1.522   1.456   2.575
   17SAPS  C210 2183   1.659   1.614   2.641
   17SAPS  H10R 2184   1.702   1.709   2.602
   17SAPS  H10S 2185   1.737   1.536   2.633
   17SAPS  C211 2186   1.611   1.618   2.786
   17SAPS  H11R 2187   1.505   1.642   2.800
   17SAPS  C212 2188   1.680   1.602   2.898
   17SAPS  H12R 2189   1.636   1.636   2.992
   17SAPS  C213 2190   1.825   1.562   2.881
   17SAPS  H13R 2191   1.871   1.635   2.811
   17SAPS  H13S 2192   1.842   1.465   2.829
   17SAPS  C214 2193   1.903   1.566   3.011
   17SAPS  H14R 2194   1.904   1.664   3.062
   17SAPS  C215 2195   1.981   1.470   3.066
   17SAPS  H15R 2196   2.036   1.490   3.159
   17SAPS  C216 2197   1.999   1.336   2.998
   17SAPS  H16R 2198   2.096   1.322   2.945
   17SAPS  H16S 2199   1.909   1.324   2.934
   17SAPS  C217 2200   1.987   1.217   3.101
   17SAPS  H17R 2201   1.991   1.138   3.023
   17SAPS  H17S 2202   1.883   1.202   3.134
   17SAPS  C218 2203   2.098   1.203   3.210
   17SAPS  H18R 2204   2.088   1.290   3.278
   17SAPS  H18S 2205   2.200   1.220   3.169
   17SAPS  C219 2206   2.089   1.068   3.286
   17SAPS  H19R 2207   2.101   0.977   3.222
   17SAPS  H19S 2208   1.991   1.067   3.337
   17SAPS  C220 2209   2.194   1.068   3.401
   17SAPS  H20R 2210   2.196   1.161   3.462
   17SAPS  H20S 2211   2.292   1.034   3.361
   17SAPS  H20T 2212   2.166   0.996   3.481
   17SAPS   C33 2213   0.908   2.010   2.306
   17SAPS   H3X 2214   0.807   1.988   2.266
   17SAPS   H3Y 2215   0.922   2.117   2.279
   17SAPS   C34 2216   0.928   1.991   2.458
   17SAPS   H4X 2217   1.024   2.037   2.487
   17SAPS   H4Y 2218   0.935   1.887   2.497
   17SAPS   C35 2219   0.810   2.066   2.529
   17SAPS   H5X 2220   0.713   2.020   2.500
   17SAPS   H5Y 2221   0.812   2.167   2.482
   17SAPS   C36 2222   0.822   2.077   2.683
   17SAPS   H6X 2223   0.720   2.079   2.726
   17SAPS   H6Y 2224   0.871   2.174   2.708
   17SAPS   C37 2225   0.904   1.972   2.754
   17SAPS   H7X 2226   1.012   1.988   2.734
   17SAPS   H7Y 2227   0.877   1.876   2.705
   17SAPS   C38 2228   0.883   1.967   2.907
   17SAPS   H8X 2229   0.949   1.887   2.948
   17SAPS   H8Y 2230   0.781   1.932   2.936
   17SAPS   C39 2231   0.923   2.101   2.976
   17SAPS   H9X 2232   0.885   2.182   2.910
   17SAPS   H9Y 2233   1.034   2.095   2.976
   17SAPS  C310 2234   0.861   2.135   3.124
   17SAPS  H10X 2235   0.862   2.033   3.167
   17SAPS  H10Y 2236   0.754   2.166   3.118
   17SAPS  C311 2237   0.931   2.230   3.212
   17SAPS  H11X 2238   0.934   2.330   3.164
   17SAPS  H11Y 2239   1.038   2.207   3.230
   17SAPS  C312 2240   0.851   2.243   3.349
   17SAPS  H12X 2241   0.742   2.238   3.327
   17SAPS  H12Y 2242   0.873   2.349   3.377
   17SAPS  C313 2243   0.889   2.154   3.464
   17SAPS  H13X 2244   1.000   2.150   3.464
   17SAPS  H13Y 2245   0.848   2.052   3.443
   17SAPS  C314 2246   0.847   2.198   3.603
   17SAPS  H14X 2247   0.736   2.190   3.605
   17SAPS  H14Y 2248   0.863   2.304   3.631
   17SAPS  C315 2249   0.897   2.114   3.728
   17SAPS  H15X 2250   0.988   2.166   3.766
   17SAPS  H15Y 2251   0.917   2.011   3.692
   17SAPS  C316 2252   0.803   2.117   3.842
   17SAPS  H16X 2253   0.829   2.043   3.921
   17SAPS  H16Y 2254   0.700   2.082   3.818
   17SAPS  C317 2255   0.797   2.257   3.908
   17SAPS  H17X 2256   0.734   2.326   3.848
   17SAPS  H17Y 2257   0.902   2.294   3.903
   17SAPS  C318 2258   0.768   2.243   4.059
   17SAPS  H18X 2259   0.799   2.334   4.116
   17SAPS  H18Y 2260   0.822   2.157   4.105
   17SAPS  H18Z 2261   0.661   2.221   4.081
   18SAPS     N 2262   4.539   2.648   2.015
   18SAPS   HN1 2263   4.536   2.564   1.953
   18SAPS   HN2 2264   4.612   2.624   2.085
   18SAPS   HN3 2265   4.444   2.654   2.056
   18SAPS   C12 2266   4.578   2.775   1.940
   18SAPS  H12A 2267   4.685   2.773   1.923
   18SAPS   C13 2268   4.514   2.803   1.806
   18SAPS  O13A 2269   4.425   2.720   1.773
   18SAPS  O13B 2270   4.547   2.898   1.736
   18SAPS   C11 2271   4.559   2.896   2.029
   18SAPS  H11A 2272   4.588   2.987   1.971
   18SAPS  H11B 2273   4.632   2.895   2.113
   18SAPS     P 2274   4.354   2.859   2.200
   18SAPS   O13 2275   4.282   2.968   2.269
   18SAPS   O14 2276   4.273   2.744   2.150
   18SAPS   O12 2277   4.419   2.914   2.069
   18SAPS   O11 2278   4.465   2.799   2.293
   18SAPS    C1 2279   4.525   2.863   2.407
   18SAPS    HA 2280   4.629   2.831   2.430
   18SAPS    HB 2281   4.531   2.974   2.397
   18SAPS    C2 2282   4.457   2.831   2.543
   18SAPS    HS 2283   4.545   2.808   2.608
   18SAPS   O21 2284   4.364   2.719   2.540
   18SAPS   C21 2285   4.357   2.635   2.644
   18SAPS   O22 2286   4.436   2.630   2.738
   18SAPS   C22 2287   4.234   2.547   2.626
   18SAPS   H2R 2288   4.150   2.599   2.574
   18SAPS   H2S 2289   4.270   2.473   2.552
   18SAPS    C3 2290   4.395   2.958   2.606
   18SAPS    HX 2291   4.306   2.984   2.545
   18SAPS    HY 2292   4.473   3.037   2.598
   18SAPS   O31 2293   4.340   2.925   2.739
   18SAPS   C31 2294   4.427   2.932   2.844
   18SAPS   O32 2295   4.537   2.989   2.829
   18SAPS   C32 2296   4.361   2.870   2.965
   18SAPS   H2X 2297   4.376   2.760   2.960
   18SAPS   H2Y 2298   4.251   2.883   2.952
   18SAPS   C23 2299   4.173   2.487   2.757
   18SAPS   H3R 2300   4.071   2.448   2.738
   18SAPS   H3S 2301   4.165   2.572   2.828
   18SAPS   C24 2302   4.267   2.380   2.833
   18SAPS   H4R 2303   4.353   2.432   2.881
   18SAPS   H4S 2304   4.307   2.312   2.755
   18SAPS   C25 2305   4.198   2.291   2.935
   18SAPS   H5R 2306   4.127   2.220   2.890
   18SAPS   C26 2307   4.225   2.274   3.063
   18SAPS   H6R 2308   4.153   2.215   3.122
   18SAPS   C27 2309   4.317   2.355   3.145
   18SAPS   H7R 2310   4.268   2.447   3.184
   18SAPS   H7S 2311   4.396   2.398   3.080
   18SAPS   C28 2312   4.381   2.281   3.256
   18SAPS   H8R 2313   4.480   2.239   3.234
   18SAPS   C29 2314   4.320   2.257   3.370
   18SAPS   H9R 2315   4.373   2.210   3.454
   18SAPS  C210 2316   4.172   2.277   3.401
   18SAPS  H10R 2317   4.110   2.249   3.314
   18SAPS  H10S 2318   4.136   2.381   3.416
   18SAPS  C211 2319   4.129   2.193   3.519
   18SAPS  H11R 2320   4.068   2.104   3.502
   18SAPS  C212 2321   4.115   2.237   3.645
   18SAPS  H12R 2322   4.083   2.163   3.719
   18SAPS  C213 2323   4.181   2.365   3.690
   18SAPS  H13R 2324   4.113   2.437   3.639
   18SAPS  H13S 2325   4.283   2.379   3.648
   18SAPS  C214 2326   4.186   2.395   3.842
   18SAPS  H14R 2327   4.116   2.473   3.877
   18SAPS  C215 2328   4.257   2.322   3.936
   18SAPS  H15R 2329   4.268   2.352   4.041
   18SAPS  C216 2330   4.350   2.205   3.890
   18SAPS  H16R 2331   4.377   2.226   3.784
   18SAPS  H16S 2332   4.289   2.113   3.898
   18SAPS  C217 2333   4.477   2.192   3.975
   18SAPS  H17R 2334   4.543   2.281   3.982
   18SAPS  H17S 2335   4.542   2.114   3.930
   18SAPS  C218 2336   4.456   2.155   4.127
   18SAPS  H18R 2337   4.389   2.070   4.151
   18SAPS  H18S 2338   4.404   2.243   4.170
   18SAPS  C219 2339   4.591   2.132   4.198
   18SAPS  H19R 2340   4.670   2.205   4.168
   18SAPS  H19S 2341   4.626   2.037   4.152
   18SAPS  C220 2342   4.575   2.127   4.342
   18SAPS  H20R 2343   4.666   2.086   4.392
   18SAPS  H20S 2344   4.493   2.056   4.362
   18SAPS  H20T 2345   4.550   2.230   4.375
   18SAPS   C33 2346   4.415   2.906   3.109
   18SAPS   H3X 2347   4.392   3.012   3.130
   18SAPS   H3Y 2348   4.521   2.874   3.111
   18SAPS   C34 2349   4.347   2.815   3.211
   18SAPS   H4X 2350   4.353   2.707   3.184
   18SAPS   H4Y 2351   4.238   2.835   3.208
   18SAPS   C35 2352   4.393   2.851   3.358
   18SAPS   H5X 2353   4.350   2.949   3.389
   18SAPS   H5Y 2354   4.502   2.868   3.351
   18SAPS   C36 2355   4.350   2.754   3.460
   18SAPS   H6X 2356   4.392   2.655   3.433
   18SAPS   H6Y 2357   4.242   2.733   3.445
   18SAPS   C37 2358   4.395   2.784   3.607
   18SAPS   H7X 2359   4.398   2.894   3.614
   18SAPS   H7Y 2360   4.497   2.743   3.624
   18SAPS   C38 2361   4.306   2.736   3.725
   18SAPS   H8X 2362   4.310   2.625   3.721
   18SAPS   H8Y 2363   4.199   2.762   3.712
   18SAPS   C39 2364   4.362   2.778   3.866
   18SAPS   H9X 2365   4.364   2.889   3.866
   18SAPS   H9Y 2366   4.466   2.738   3.861
   18SAPS  C310 2367   4.283   2.718   3.984
   18SAPS  H10X 2368   4.286   2.608   3.994
   18SAPS  H10Y 2369   4.179   2.756   3.972
   18SAPS  C311 2370   4.341   2.762   4.118
   18SAPS  H11X 2371   4.337   2.872   4.130
   18SAPS  H11Y 2372   4.445   2.722   4.113
   18SAPS  C312 2373   4.257   2.705   4.225
   18SAPS  H12X 2374   4.270   2.596   4.206
   18SAPS  H12Y 2375   4.151   2.740   4.226
   18SAPS  C313 2376   4.319   2.724   4.371
   18SAPS  H13X 2377   4.244   2.670   4.433
   18SAPS  H13Y 2378   4.309   2.834   4.386
   18SAPS  C314 2379   4.465   2.693   4.394
   18SAPS  H14X 2380   4.521   2.766   4.332
   18SAPS  H14Y 2381   4.484   2.589   4.359
   18SAPS  C315 2382   4.501   2.707   4.542
   18SAPS  H15X 2383   4.425   2.643   4.591
   18SAPS  H15Y 2384   4.473   2.811   4.572
   18SAPS  C316 2385   4.643   2.676   4.580
   18SAPS  H16X 2386   4.665   2.580   4.528
   18SAPS  H16Y 2387   4.651   2.666   4.690
   18SAPS  C317 2388   4.751   2.772   4.530
   18SAPS  H17X 2389   4.734   2.876   4.566
   18SAPS  H17Y 2390   4.748   2.782   4.420
   18SAPS  C318 2391   4.887   2.719   4.579
   18SAPS  H18X 2392   4.966   2.774   4.524
   18SAPS  H18Y 2393   4.899   2.613   4.549
   18SAPS  H18Z 2394   4.908   2.737   4.687
   19SAPS     N 2395   4.090   4.765   2.316
   19SAPS   HN1 2396   3.987   4.770   2.300
   19SAPS   HN2 2397   4.105   4.686   2.250
   19SAPS   HN3 2398   4.100   4.739   2.416
   19SAPS   C12 2399   4.161   4.888   2.263
   19SAPS  H12A 2400   4.262   4.901   2.299
   19SAPS   C13 2401   4.173   4.902   2.109
   19SAPS  O13A 2402   4.130   4.803   2.037
   19SAPS  O13B 2403   4.236   5.002   2.068
   19SAPS   C11 2404   4.085   5.020   2.311
   19SAPS  H11A 2405   4.135   5.115   2.281
   19SAPS  H11B 2406   4.099   5.026   2.421
   19SAPS     P 2407   3.867   5.117   2.188
   19SAPS   O13 2408   3.950   5.231   2.168
   19SAPS   O14 2409   3.818   5.057   2.063
   19SAPS   O12 2410   3.941   5.006   2.274
   19SAPS   O11 2411   3.733   5.166   2.263
   19SAPS    C1 2412   3.641   5.074   2.327
   19SAPS    HA 2413   3.540   5.119   2.325
   19SAPS    HB 2414   3.637   4.976   2.275
   19SAPS    C2 2415   3.657   5.055   2.482
   19SAPS    HS 2416   3.573   4.994   2.523
   19SAPS   O21 2417   3.652   5.183   2.547
   19SAPS   C21 2418   3.533   5.220   2.589
   19SAPS   O22 2419   3.426   5.158   2.567
   19SAPS   C22 2420   3.542   5.351   2.681
   19SAPS   H2R 2421   3.609   5.326   2.765
   19SAPS   H2S 2422   3.576   5.431   2.612
   19SAPS    C3 2423   3.787   4.991   2.520
   19SAPS    HX 2424   3.864   5.068   2.496
   19SAPS    HY 2425   3.801   4.904   2.453
   19SAPS   O31 2426   3.796   4.944   2.654
   19SAPS   C31 2427   3.912   4.899   2.686
   19SAPS   O32 2428   4.013   4.909   2.627
   19SAPS   C32 2429   3.893   4.854   2.830
   19SAPS   H2X 2430   3.968   4.910   2.891
   19SAPS   H2Y 2431   3.905   4.745   2.845
   19SAPS   C23 2432   3.410   5.394   2.736
   19SAPS   H3R 2433   3.327   5.399   2.662
   19SAPS   H3S 2434   3.423   5.499   2.767
   19SAPS   C24 2435   3.361   5.301   2.846
   19SAPS   H4R 2436   3.433   5.222   2.873
   19SAPS   H4S 2437   3.279   5.239   2.805
   19SAPS   C25 2438   3.307   5.375   2.968
   19SAPS   H5R 2439   3.207   5.415   2.950
   19SAPS   C26 2440   3.353   5.373   3.090
   19SAPS   H6R 2441   3.285   5.405   3.170
   19SAPS   C27 2442   3.475   5.302   3.145
   19SAPS   H7R 2443   3.534   5.373   3.207
   19SAPS   H7S 2444   3.547   5.256   3.074
   19SAPS   C28 2445   3.420   5.188   3.236
   19SAPS   H8R 2446   3.416   5.096   3.176
   19SAPS   C29 2447   3.415   5.175   3.369
   19SAPS   H9R 2448   3.358   5.092   3.414
   19SAPS  C210 2449   3.464   5.274   3.476
   19SAPS  H10R 2450   3.550   5.328   3.430
   19SAPS  H10S 2451   3.519   5.227   3.560
   19SAPS  C211 2452   3.359   5.357   3.548
   19SAPS  H11R 2453   3.355   5.460   3.510
   19SAPS  C212 2454   3.297   5.323   3.660
   19SAPS  H12R 2455   3.226   5.397   3.702
   19SAPS  C213 2456   3.310   5.197   3.730
   19SAPS  H13R 2457   3.376   5.126   3.674
   19SAPS  H13S 2458   3.206   5.157   3.729
   19SAPS  C214 2459   3.359   5.216   3.873
   19SAPS  H14R 2460   3.434   5.294   3.892
   19SAPS  C215 2461   3.303   5.174   3.989
   19SAPS  H15R 2462   3.356   5.189   4.084
   19SAPS  C216 2463   3.198   5.067   4.002
   19SAPS  H16R 2464   3.147   5.038   3.908
   19SAPS  H16S 2465   3.105   5.094   4.056
   19SAPS  C217 2466   3.275   4.953   4.062
   19SAPS  H17R 2467   3.309   4.976   4.165
   19SAPS  H17S 2468   3.357   4.929   3.992
   19SAPS  C218 2469   3.203   4.816   4.047
   19SAPS  H18R 2470   3.171   4.800   3.942
   19SAPS  H18S 2471   3.119   4.806   4.118
   19SAPS  C219 2472   3.309   4.710   4.086
   19SAPS  H19R 2473   3.346   4.722   4.191
   19SAPS  H19S 2474   3.399   4.705   4.022
   19SAPS  C220 2475   3.261   4.562   4.074
   19SAPS  H20R 2476   3.341   4.486   4.085
   19SAPS  H20S 2477   3.215   4.544   3.975
   19SAPS  H20T 2478   3.187   4.535   4.153
   19SAPS   C33 2479   3.765   4.879   2.906
   19SAPS   H3X 2480   3.693   4.805   2.865
   19SAPS   H3Y 2481   3.733   4.983   2.885
   19SAPS   C34 2482   3.769   4.854   3.059
   19SAPS   H4X 2483   3.859   4.905   3.099
   19SAPS   H4Y 2484   3.784   4.744   3.067
   19SAPS   C35 2485   3.652   4.901   3.144
   19SAPS   H5X 2486   3.557   4.854   3.111
   19SAPS   H5Y 2487   3.642   5.010   3.122
   19SAPS   C36 2488   3.686   4.885   3.296
   19SAPS   H6X 2489   3.725   4.785   3.327
   19SAPS   H6Y 2490   3.591   4.885   3.354
   19SAPS   C37 2491   3.768   4.995   3.354
   19SAPS   H7X 2492   3.711   5.090   3.352
   19SAPS   H7Y 2493   3.860   5.010   3.293
   19SAPS   C38 2494   3.803   4.963   3.503
   19SAPS   H8X 2495   3.900   5.015   3.516
   19SAPS   H8Y 2496   3.806   4.853   3.519
   19SAPS   C39 2497   3.702   5.021   3.597
   19SAPS   H9X 2498   3.598   4.985   3.579
   19SAPS   H9Y 2499   3.699   5.130   3.576
   19SAPS  C310 2500   3.735   5.008   3.747
   19SAPS  H10X 2501   3.663   5.067   3.807
   19SAPS  H10Y 2502   3.835   5.055   3.755
   19SAPS  C311 2503   3.734   4.867   3.814
   19SAPS  H11X 2504   3.805   4.802   3.758
   19SAPS  H11Y 2505   3.629   4.830   3.815
   19SAPS  C312 2506   3.787   4.876   3.961
   19SAPS  H12X 2507   3.734   4.790   4.008
   19SAPS  H12Y 2508   3.748   4.971   4.003
   19SAPS  C313 2509   3.939   4.848   3.955
   19SAPS  H13X 2510   3.990   4.940   3.918
   19SAPS  H13Y 2511   3.963   4.769   3.880
   19SAPS  C314 2512   4.010   4.822   4.091
   19SAPS  H14X 2513   3.977   4.739   4.157
   19SAPS  H14Y 2514   3.981   4.911   4.150
   19SAPS  C315 2515   4.165   4.833   4.069
   19SAPS  H15X 2516   4.204   4.934   4.042
   19SAPS  H15Y 2517   4.184   4.766   3.982
   19SAPS  C316 2518   4.246   4.780   4.208
   19SAPS  H16X 2519   4.200   4.680   4.225
   19SAPS  H16Y 2520   4.229   4.860   4.284
   19SAPS  C317 2521   4.396   4.761   4.188
   19SAPS  H17X 2522   4.454   4.773   4.283
   19SAPS  H17Y 2523   4.429   4.828   4.106
   19SAPS  C318 2524   4.438   4.621   4.152
   19SAPS  H18X 2525   4.395   4.552   4.227
   19SAPS  H18Y 2526   4.548   4.615   4.138
   19SAPS  H18Z 2527   4.390   4.593   4.056
   20SAPS     N 2528   3.976   5.468   2.239
   20SAPS   HN1 2529   3.896   5.508   2.294
   20SAPS   HN2 2530   3.967   5.365   2.230
   20SAPS   HN3 2531   4.060   5.498   2.293
   20SAPS   C12 2532   3.966   5.537   2.109
   20SAPS  H12A 2533   3.943   5.460   2.037
   20SAPS   C13 2534   3.852   5.641   2.098
   20SAPS  O13A 2535   3.780   5.657   2.199
   20SAPS  O13B 2536   3.823   5.684   1.980
   20SAPS   C11 2537   4.108   5.604   2.078
   20SAPS  H11A 2538   4.108   5.662   1.983
   20SAPS  H11B 2539   4.180   5.520   2.065
   20SAPS     P 2540   4.289   5.759   2.179
   20SAPS   O13 2541   4.381   5.675   2.099
   20SAPS   O14 2542   4.262   5.897   2.146
   20SAPS   O12 2543   4.152   5.689   2.186
   20SAPS   O11 2544   4.336   5.754   2.330
   20SAPS    C1 2545   4.242   5.760   2.442
   20SAPS    HA 2546   4.158   5.693   2.417
   20SAPS    HB 2547   4.291   5.728   2.536
   20SAPS    C2 2548   4.186   5.904   2.465
   20SAPS    HS 2549   4.135   5.936   2.372
   20SAPS   O21 2550   4.298   5.995   2.506
   20SAPS   C21 2551   4.276   6.124   2.506
   20SAPS   O22 2552   4.169   6.183   2.484
   20SAPS   C22 2553   4.405   6.198   2.563
   20SAPS   H2R 2554   4.485   6.171   2.491
   20SAPS   H2S 2555   4.379   6.305   2.547
   20SAPS    C3 2556   4.071   5.909   2.573
   20SAPS    HX 2557   4.014   5.999   2.542
   20SAPS    HY 2558   4.115   5.941   2.670
   20SAPS   O31 2559   3.995   5.787   2.570
   20SAPS   C31 2560   3.860   5.815   2.598
   20SAPS   O32 2561   3.826   5.925   2.628
   20SAPS   C32 2562   3.776   5.691   2.604
   20SAPS   H2X 2563   3.823   5.615   2.670
   20SAPS   H2Y 2564   3.772   5.663   2.497
   20SAPS   C23 2565   4.442   6.157   2.702
   20SAPS   H3R 2566   4.467   6.050   2.717
   20SAPS   H3S 2567   4.355   6.178   2.767
   20SAPS   C24 2568   4.552   6.244   2.774
   20SAPS   H4R 2569   4.596   6.174   2.849
   20SAPS   H4S 2570   4.504   6.332   2.822
   20SAPS   C25 2571   4.643   6.288   2.661
   20SAPS   H5R 2572   4.681   6.204   2.601
   20SAPS   C26 2573   4.669   6.416   2.621
   20SAPS   H6R 2574   4.736   6.435   2.536
   20SAPS   C27 2575   4.613   6.546   2.676
   20SAPS   H7R 2576   4.590   6.528   2.783
   20SAPS   H7S 2577   4.516   6.561   2.625
   20SAPS   C28 2578   4.704   6.665   2.655
   20SAPS   H8R 2579   4.673   6.730   2.572
   20SAPS   C29 2580   4.808   6.699   2.737
   20SAPS   H9R 2581   4.869   6.788   2.715
   20SAPS  C210 2582   4.853   6.628   2.863
   20SAPS  H10R 2583   4.813   6.525   2.860
   20SAPS  H10S 2584   4.821   6.677   2.957
   20SAPS  C211 2585   5.002   6.607   2.880
   20SAPS  H11R 2586   5.052   6.605   2.782
   20SAPS  C212 2587   5.072   6.585   2.989
   20SAPS  H12R 2588   5.181   6.598   2.992
   20SAPS  C213 2589   5.008   6.581   3.125
   20SAPS  H13R 2590   5.019   6.479   3.167
   20SAPS  H13S 2591   4.897   6.584   3.122
   20SAPS  C214 2592   5.060   6.691   3.207
   20SAPS  H14R 2593   5.081   6.782   3.149
   20SAPS  C215 2594   5.094   6.689   3.342
   20SAPS  H15R 2595   5.131   6.781   3.388
   20SAPS  C216 2596   5.104   6.571   3.439
   20SAPS  H16R 2597   5.195   6.507   3.431
   20SAPS  H16S 2598   5.024   6.497   3.417
   20SAPS  C217 2599   5.093   6.618   3.580
   20SAPS  H17R 2600   4.991   6.655   3.606
   20SAPS  H17S 2601   5.145   6.715   3.595
   20SAPS  C218 2602   5.139   6.515   3.694
   20SAPS  H18R 2603   5.249   6.497   3.693
   20SAPS  H18S 2604   5.094   6.417   3.668
   20SAPS  C219 2605   5.094   6.553   3.842
   20SAPS  H19R 2606   5.125   6.660   3.853
   20SAPS  H19S 2607   5.157   6.494   3.912
   20SAPS  C220 2608   4.945   6.533   3.857
   20SAPS  H20R 2609   4.904   6.575   3.951
   20SAPS  H20S 2610   4.913   6.426   3.855
   20SAPS  H20T 2611   4.887   6.589   3.780
   20SAPS   C33 2612   3.647   5.723   2.680
   20SAPS   H3X 2613   3.572   5.644   2.661
   20SAPS   H3Y 2614   3.588   5.807   2.637
   20SAPS   C34 2615   3.671   5.739   2.833
   20SAPS   H4X 2616   3.615   5.830   2.861
   20SAPS   H4Y 2617   3.778   5.754   2.860
   20SAPS   C35 2618   3.629   5.622   2.927
   20SAPS   H5X 2619   3.680   5.530   2.889
   20SAPS   H5Y 2620   3.519   5.608   2.913
   20SAPS   C36 2621   3.673   5.642   3.071
   20SAPS   H6X 2622   3.783   5.654   3.074
   20SAPS   H6Y 2623   3.637   5.557   3.132
   20SAPS   C37 2624   3.617   5.770   3.134
   20SAPS   H7X 2625   3.513   5.731   3.136
   20SAPS   H7Y 2626   3.626   5.854   3.062
   20SAPS   C38 2627   3.677   5.810   3.270
   20SAPS   H8X 2628   3.639   5.907   3.308
   20SAPS   H8Y 2629   3.788   5.810   3.259
   20SAPS   C39 2630   3.638   5.712   3.381
   20SAPS   H9X 2631   3.701   5.620   3.378
   20SAPS   H9Y 2632   3.535   5.678   3.358
   20SAPS  C310 2633   3.639   5.791   3.514
   20SAPS  H10X 2634   3.574   5.881   3.508
   20SAPS  H10Y 2635   3.738   5.835   3.535
   20SAPS  C311 2636   3.586   5.713   3.636
   20SAPS  H11X 2637   3.630   5.611   3.631
   20SAPS  H11Y 2638   3.477   5.698   3.620
   20SAPS  C312 2639   3.602   5.783   3.768
   20SAPS  H12X 2640   3.554   5.883   3.769
   20SAPS  H12Y 2641   3.708   5.808   3.794
   20SAPS  C313 2642   3.540   5.706   3.884
   20SAPS  H13X 2643   3.443   5.667   3.847
   20SAPS  H13Y 2644   3.523   5.772   3.972
   20SAPS  C314 2645   3.630   5.593   3.916
   20SAPS  H14X 2646   3.730   5.635   3.940
   20SAPS  H14Y 2647   3.640   5.527   3.827
   20SAPS  C315 2648   3.580   5.508   4.037
   20SAPS  H15X 2649   3.619   5.404   4.039
   20SAPS  H15Y 2650   3.469   5.509   4.039
   20SAPS  C316 2651   3.622   5.571   4.171
   20SAPS  H16X 2652   3.580   5.672   4.191
   20SAPS  H16Y 2653   3.728   5.595   4.147
   20SAPS  C317 2654   3.630   5.484   4.292
   20SAPS  H17X 2655   3.699   5.522   4.370
   20SAPS  H17Y 2656   3.682   5.391   4.259
   20SAPS  C318 2657   3.497   5.461   4.365
   20SAPS  H18X 2658   3.517   5.400   4.455
   20SAPS  H18Y 2659   3.427   5.399   4.305
   20SAPS  H18Z 2660   3.439   5.548   4.402
   21CHL1    C3 2661   1.519   3.433   5.970
   21CHL1    H3 2662   1.591   3.352   5.949
   21CHL1    O3 2663   1.487   3.431   6.109
   21CHL1   H3' 2664   1.428   3.505   6.124
   21CHL1    C4 2665   1.570   3.571   5.946
   21CHL1   H4A 2666   1.491   3.640   5.983
   21CHL1   H4B 2667   1.651   3.594   6.018
   21CHL1    C5 2668   1.591   3.602   5.800
   21CHL1    C6 2669   1.710   3.654   5.761
   21CHL1    H6 2670   1.790   3.675   5.834
   21CHL1    C7 2671   1.751   3.682   5.624
   21CHL1   H7A 2672   1.800   3.781   5.613
   21CHL1   H7B 2673   1.831   3.610   5.598
   21CHL1    C8 2674   1.632   3.683   5.528
   21CHL1    H8 2675   1.578   3.773   5.563
   21CHL1   C14 2676   1.676   3.699   5.386
   21CHL1   H14 2677   1.729   3.603   5.366
   21CHL1   C15 2678   1.770   3.812   5.351
   21CHL1  H15A 2679   1.718   3.904   5.385
   21CHL1  H15B 2680   1.874   3.807   5.389
   21CHL1   C16 2681   1.768   3.812   5.199
   21CHL1  H16A 2682   1.753   3.916   5.165
   21CHL1  H16B 2683   1.871   3.781   5.169
   21CHL1   C17 2684   1.647   3.719   5.154
   21CHL1   H17 2685   1.689   3.619   5.131
   21CHL1   C13 2686   1.562   3.698   5.288
   21CHL1   C18 2687   1.465   3.816   5.306
   21CHL1  H18A 2688   1.422   3.812   5.408
   21CHL1  H18B 2689   1.518   3.912   5.290
   21CHL1  H18C 2690   1.384   3.807   5.230
   21CHL1   C12 2691   1.495   3.552   5.296
   21CHL1  H12A 2692   1.416   3.548   5.219
   21CHL1  H12B 2693   1.571   3.473   5.278
   21CHL1   C11 2694   1.445   3.527   5.437
   21CHL1  H11A 2695   1.352   3.585   5.451
   21CHL1  H11B 2696   1.414   3.420   5.445
   21CHL1    C9 2697   1.545   3.557   5.548
   21CHL1    H9 2698   1.621   3.476   5.545
   21CHL1   C10 2699   1.489   3.558   5.696
   21CHL1   C19 2700   1.371   3.669   5.706
   21CHL1  H19A 2701   1.281   3.626   5.657
   21CHL1  H19B 2702   1.338   3.696   5.808
   21CHL1  H19C 2703   1.404   3.758   5.647
   21CHL1    C1 2704   1.440   3.418   5.734
   21CHL1   H1A 2705   1.341   3.409   5.684
   21CHL1   H1B 2706   1.517   3.344   5.703
   21CHL1    C2 2707   1.400   3.408   5.880
   21CHL1   H2A 2708   1.372   3.302   5.902
   21CHL1   H2B 2709   1.315   3.475   5.907
   21CHL1   C20 2710   1.597   3.786   5.023
   21CHL1   H20 2711   1.565   3.886   5.059
   21CHL1   C21 2712   1.480   3.699   4.965
   21CHL1  H21A 2713   1.397   3.722   5.035
   21CHL1  H21B 2714   1.503   3.591   4.970
   21CHL1  H21C 2715   1.449   3.718   4.860
   21CHL1   C22 2716   1.706   3.795   4.915
   21CHL1  H22A 2717   1.806   3.817   4.958
   21CHL1  H22B 2718   1.699   3.697   4.863
   21CHL1   C23 2719   1.667   3.911   4.815
   21CHL1  H23A 2720   1.585   3.880   4.747
   21CHL1  H23B 2721   1.632   3.984   4.891
   21CHL1   C24 2722   1.789   3.957   4.735
   21CHL1  H24A 2723   1.878   3.983   4.797
   21CHL1  H24B 2724   1.810   3.858   4.690
   21CHL1   C25 2725   1.760   4.063   4.619
   21CHL1   H25 2726   1.714   4.144   4.679
   21CHL1   C26 2727   1.892   4.101   4.552
   21CHL1  H26A 2728   1.876   4.144   4.451
   21CHL1  H26B 2729   1.954   4.174   4.609
   21CHL1  H26C 2730   1.947   4.006   4.537
   21CHL1   C27 2731   1.656   4.007   4.522
   21CHL1  H27A 2732   1.686   3.903   4.496
   21CHL1  H27B 2733   1.554   4.014   4.567
   21CHL1  H27C 2734   1.649   4.064   4.427
   22CHL1    C3 2735   1.990   2.191   5.925
   22CHL1    H3 2736   2.038   2.291   5.910
   22CHL1    O3 2737   1.949   2.191   6.060
   22CHL1   H3' 2738   1.874   2.252   6.057
   22CHL1    C4 2739   1.859   2.168   5.840
   22CHL1   H4A 2740   1.805   2.074   5.863
   22CHL1   H4B 2741   1.790   2.251   5.866
   22CHL1    C5 2742   1.895   2.179   5.689
   22CHL1    C6 2743   1.842   2.265   5.600
   22CHL1    H6 2744   1.776   2.345   5.634
   22CHL1    C7 2745   1.873   2.248   5.451
   22CHL1   H7A 2746   1.779   2.272   5.397
   22CHL1   H7B 2747   1.946   2.326   5.422
   22CHL1    C8 2748   1.931   2.115   5.405
   22CHL1    H8 2749   1.851   2.039   5.418
   22CHL1   C14 2750   1.980   2.116   5.264
   22CHL1   H14 2751   2.059   2.193   5.266
   22CHL1   C15 2752   1.887   2.153   5.146
   22CHL1  H15A 2753   1.798   2.087   5.152
   22CHL1  H15B 2754   1.843   2.255   5.142
   22CHL1   C16 2755   1.973   2.124   5.028
   22CHL1  H16A 2756   1.903   2.087   4.950
   22CHL1  H16B 2757   2.023   2.217   4.991
   22CHL1   C17 2758   2.081   2.029   5.069
   22CHL1   H17 2759   2.164   2.102   5.074
   22CHL1   C13 2760   2.047   1.988   5.212
   22CHL1   C18 2761   1.952   1.867   5.213
   22CHL1  H18A 2762   2.011   1.773   5.214
   22CHL1  H18B 2763   1.891   1.867   5.306
   22CHL1  H18C 2764   1.888   1.866   5.122
   22CHL1   C12 2765   2.172   1.972   5.305
   22CHL1  H12A 2766   2.230   1.883   5.271
   22CHL1  H12B 2767   2.237   2.062   5.298
   22CHL1   C11 2768   2.125   1.954   5.451
   22CHL1  H11A 2769   2.074   1.856   5.458
   22CHL1  H11B 2770   2.223   1.942   5.502
   22CHL1    C9 2771   2.043   2.075   5.502
   22CHL1    H9 2772   2.103   2.167   5.489
   22CHL1   C10 2773   1.994   2.068   5.650
   22CHL1   C19 2774   1.904   1.948   5.661
   22CHL1  H19A 2775   1.801   1.959   5.621
   22CHL1  H19B 2776   1.957   1.861   5.617
   22CHL1  H19C 2777   1.891   1.915   5.766
   22CHL1    C1 2778   2.119   2.063   5.738
   22CHL1   H1A 2779   2.181   1.977   5.705
   22CHL1   H1B 2780   2.171   2.158   5.712
   22CHL1    C2 2781   2.089   2.073   5.891
   22CHL1   H2A 2782   2.185   2.067   5.945
   22CHL1   H2B 2783   2.032   1.980   5.914
   22CHL1   C20 2784   2.119   1.939   4.949
   22CHL1   H20 2785   2.036   1.870   4.925
   22CHL1   C21 2786   2.235   1.850   4.999
   22CHL1  H21A 2787   2.294   1.799   4.919
   22CHL1  H21B 2788   2.191   1.785   5.077
   22CHL1  H21C 2789   2.306   1.922   5.044
   22CHL1   C22 2790   2.155   2.007   4.825
   22CHL1  H22A 2791   2.100   2.102   4.806
   22CHL1  H22B 2792   2.262   2.039   4.830
   22CHL1   C23 2793   2.149   1.926   4.688
   22CHL1  H23A 2794   2.234   1.854   4.684
   22CHL1  H23B 2795   2.053   1.873   4.670
   22CHL1   C24 2796   2.153   2.021   4.561
   22CHL1  H24A 2797   2.073   2.097   4.576
   22CHL1  H24B 2798   2.248   2.079   4.561
   22CHL1   C25 2799   2.123   1.947   4.433
   22CHL1   H25 2800   2.033   1.883   4.445
   22CHL1   C26 2801   2.086   2.044   4.320
   22CHL1  H26A 2802   1.997   2.103   4.350
   22CHL1  H26B 2803   2.171   2.108   4.289
   22CHL1  H26C 2804   2.052   1.989   4.230
   22CHL1   C27 2805   2.239   1.857   4.394
   22CHL1  H27A 2806   2.339   1.902   4.411
   22CHL1  H27B 2807   2.237   1.762   4.452
   22CHL1  H27C 2808   2.220   1.831   4.288
   23CHL1    C3 2809   0.800   3.420   5.884
   23CHL1    H3 2810   0.718   3.493   5.865
   23CHL1    O3 2811   0.805   3.390   6.021
   23CHL1   H3' 2812   0.802   3.476   6.063
   23CHL1    C4 2813   0.771   3.295   5.808
   23CHL1   H4A 2814   0.855   3.225   5.829
   23CHL1   H4B 2815   0.671   3.267   5.848
   23CHL1    C5 2816   0.776   3.317   5.663
   23CHL1    C6 2817   0.673   3.279   5.589
   23CHL1    H6 2818   0.579   3.237   5.627
   23CHL1    C7 2819   0.674   3.297   5.444
   23CHL1   H7A 2820   0.624   3.206   5.405
   23CHL1   H7B 2821   0.629   3.390   5.403
   23CHL1    C8 2822   0.822   3.306   5.388
   23CHL1    H8 2823   0.869   3.208   5.409
   23CHL1   C14 2824   0.820   3.345   5.246
   23CHL1   H14 2825   0.783   3.450   5.243
   23CHL1   C15 2826   0.730   3.263   5.147
   23CHL1  H15A 2827   0.746   3.160   5.185
   23CHL1  H15B 2828   0.622   3.288   5.157
   23CHL1   C16 2829   0.782   3.282   5.009
   23CHL1  H16A 2830   0.808   3.178   4.977
   23CHL1  H16B 2831   0.707   3.327   4.940
   23CHL1   C17 2832   0.908   3.375   5.036
   23CHL1   H17 2833   0.863   3.477   5.036
   23CHL1   C13 2834   0.956   3.348   5.180
   23CHL1   C18 2835   1.022   3.211   5.191
   23CHL1  H18A 2836   0.953   3.132   5.152
   23CHL1  H18B 2837   1.120   3.214   5.139
   23CHL1  H18C 2838   1.042   3.186   5.297
   23CHL1   C12 2839   1.041   3.456   5.245
   23CHL1  H12A 2840   1.143   3.459   5.201
   23CHL1  H12B 2841   0.983   3.545   5.210
   23CHL1   C11 2842   1.042   3.436   5.394
   23CHL1  H11A 2843   1.115   3.355   5.412
   23CHL1  H11B 2844   1.086   3.530   5.434
   23CHL1    C9 2845   0.905   3.406   5.463
   23CHL1    H9 2846   0.846   3.499   5.447
   23CHL1   C10 2847   0.908   3.377   5.613
   23CHL1   C19 2848   1.022   3.273   5.634
   23CHL1  H19A 2849   1.003   3.186   5.568
   23CHL1  H19B 2850   1.122   3.318   5.618
   23CHL1  H19C 2851   1.025   3.234   5.738
   23CHL1    C1 2852   0.929   3.509   5.693
   23CHL1   H1A 2853   1.027   3.554   5.664
   23CHL1   H1B 2854   0.848   3.579   5.665
   23CHL1    C2 2855   0.926   3.495   5.841
   23CHL1   H2A 2856   0.927   3.598   5.884
   23CHL1   H2B 2857   1.018   3.440   5.868
   23CHL1   C20 2858   1.010   3.375   4.914
   23CHL1   H20 2859   1.080   3.297   4.951
   23CHL1   C21 2860   1.082   3.515   4.898
   23CHL1  H21A 2861   1.000   3.583   4.865
   23CHL1  H21B 2862   1.168   3.509   4.828
   23CHL1  H21C 2863   1.119   3.552   4.996
   23CHL1   C22 2864   0.945   3.332   4.782
   23CHL1  H22A 2865   0.896   3.232   4.782
   23CHL1  H22B 2866   0.859   3.398   4.758
   23CHL1   C23 2867   1.048   3.331   4.666
   23CHL1  H23A 2868   1.055   3.435   4.628
   23CHL1  H23B 2869   1.147   3.290   4.696
   23CHL1   C24 2870   0.986   3.260   4.540
   23CHL1  H24A 2871   0.947   3.160   4.569
   23CHL1  H24B 2872   0.898   3.323   4.516
   23CHL1   C25 2873   1.087   3.258   4.420
   23CHL1   H25 2874   1.143   3.354   4.417
   23CHL1   C26 2875   1.193   3.150   4.438
   23CHL1  H26A 2876   1.230   3.142   4.334
   23CHL1  H26B 2877   1.280   3.187   4.496
   23CHL1  H26C 2878   1.148   3.056   4.477
   23CHL1   C27 2879   1.014   3.237   4.289
   23CHL1  H27A 2880   1.084   3.209   4.207
   23CHL1  H27B 2881   0.943   3.153   4.309
   23CHL1  H27C 2882   0.962   3.329   4.255
   24CHL1    C3 2883   3.115   4.562   6.080
   24CHL1    H3 2884   3.093   4.671   6.075
   24CHL1    O3 2885   3.160   4.519   6.208
   24CHL1   H3' 2886   3.220   4.445   6.199
   24CHL1    C4 2887   2.985   4.490   6.049
   24CHL1   H4A 2888   2.996   4.380   6.065
   24CHL1   H4B 2889   2.925   4.520   6.138
   24CHL1    C5 2890   2.924   4.525   5.912
   24CHL1    C6 2891   2.806   4.582   5.897
   24CHL1    H6 2892   2.737   4.607   5.979
   24CHL1    C7 2893   2.755   4.635   5.766
   24CHL1   H7A 2894   2.645   4.622   5.770
   24CHL1   H7B 2895   2.763   4.745   5.768
   24CHL1    C8 2896   2.829   4.568   5.645
   24CHL1    H8 2897   2.793   4.464   5.638
   24CHL1   C14 2898   2.783   4.628   5.515
   24CHL1   H14 2899   2.817   4.732   5.533
   24CHL1   C15 2900   2.640   4.634   5.483
   24CHL1  H15A 2901   2.602   4.530   5.492
   24CHL1  H15B 2902   2.577   4.706   5.540
   24CHL1   C16 2903   2.635   4.679   5.339
   24CHL1  H16A 2904   2.586   4.598   5.282
   24CHL1  H16B 2905   2.596   4.777   5.305
   24CHL1   C17 2906   2.786   4.674   5.289
   24CHL1   H17 2907   2.832   4.775   5.291
   24CHL1   C13 2908   2.865   4.586   5.393
   24CHL1   C18 2909   2.861   4.435   5.360
   24CHL1  H18A 2910   2.757   4.412   5.328
   24CHL1  H18B 2911   2.924   4.411   5.272
   24CHL1  H18C 2912   2.886   4.370   5.446
   24CHL1   C12 2913   3.015   4.629   5.419
   24CHL1  H12A 2914   3.074   4.609   5.328
   24CHL1  H12B 2915   3.028   4.737   5.440
   24CHL1   C11 2916   3.069   4.553   5.544
   24CHL1  H11A 2917   3.077   4.445   5.517
   24CHL1  H11B 2918   3.174   4.587   5.553
   24CHL1    C9 2919   2.983   4.584   5.671
   24CHL1    H9 2920   2.992   4.691   5.699
   24CHL1   C10 2921   3.026   4.511   5.798
   24CHL1   C19 2922   3.040   4.362   5.773
   24CHL1  H19A 2923   3.069   4.311   5.868
   24CHL1  H19B 2924   2.953   4.311   5.728
   24CHL1  H19C 2925   3.129   4.360   5.707
   24CHL1    C1 2926   3.160   4.575   5.833
   24CHL1   H1A 2927   3.237   4.550   5.758
   24CHL1   H1B 2928   3.141   4.685   5.838
   24CHL1    C2 2929   3.221   4.537   5.976
   24CHL1   H2A 2930   3.307   4.603   6.002
   24CHL1   H2B 2931   3.256   4.432   5.981
   24CHL1   C20 2932   2.798   4.638   5.140
   24CHL1   H20 2933   2.767   4.532   5.124
   24CHL1   C21 2934   2.939   4.655   5.081
   24CHL1  H21A 2935   3.013   4.604   5.147
   24CHL1  H21B 2936   2.966   4.763   5.074
   24CHL1  H21C 2937   2.949   4.595   4.988
   24CHL1   C22 2938   2.706   4.728   5.050
   24CHL1  H22A 2939   2.602   4.725   5.089
   24CHL1  H22B 2940   2.740   4.833   5.066
   24CHL1   C23 2941   2.707   4.699   4.909
   24CHL1  H23A 2942   2.808   4.709   4.864
   24CHL1  H23B 2943   2.677   4.592   4.894
   24CHL1   C24 2944   2.614   4.790   4.836
   24CHL1  H24A 2945   2.523   4.774   4.898
   24CHL1  H24B 2946   2.637   4.899   4.838
   24CHL1   C25 2947   2.604   4.761   4.680
   24CHL1   H25 2948   2.586   4.652   4.671
   24CHL1   C26 2949   2.486   4.829   4.609
   24CHL1  H26A 2950   2.391   4.777   4.635
   24CHL1  H26B 2951   2.473   4.934   4.644
   24CHL1  H26C 2952   2.496   4.825   4.499
   24CHL1   C27 2953   2.740   4.795   4.607
   24CHL1  H27A 2954   2.747   4.905   4.603
   24CHL1  H27B 2955   2.823   4.748   4.664
   24CHL1  H27C 2956   2.732   4.747   4.507
   25CHL1    C3 2957   6.112   5.425   6.049
   25CHL1    H3 2958   6.215   5.448   6.015
   25CHL1    O3 2959   6.106   5.418   6.191
   25CHL1   H3' 2960   6.024   5.375   6.215
   25CHL1    C4 2961   6.022   5.541   6.005
   25CHL1   H4A 2962   5.921   5.535   6.052
   25CHL1   H4B 2963   6.052   5.638   6.051
   25CHL1    C5 2964   6.015   5.545   5.857
   25CHL1    C6 2965   6.029   5.661   5.786
   25CHL1    H6 2966   6.056   5.757   5.833
   25CHL1    C7 2967   6.023   5.673   5.639
   25CHL1   H7A 2968   5.957   5.760   5.621
   25CHL1   H7B 2969   6.118   5.696   5.585
   25CHL1    C8 2970   5.957   5.547   5.581
   25CHL1    H8 2971   5.850   5.556   5.608
   25CHL1   C14 2972   5.967   5.547   5.431
   25CHL1   H14 2973   6.074   5.550   5.400
   25CHL1   C15 2974   5.905   5.674   5.363
   25CHL1  H15A 2975   5.820   5.693   5.432
   25CHL1  H15B 2976   5.960   5.769   5.377
   25CHL1   C16 2977   5.874   5.626   5.222
   25CHL1  H16A 2978   5.767   5.637   5.195
   25CHL1  H16B 2979   5.930   5.683   5.145
   25CHL1   C17 2980   5.920   5.479   5.211
   25CHL1   H17 2981   6.028   5.476   5.182
   25CHL1   C13 2982   5.909   5.426   5.358
   25CHL1   C18 2983   5.761   5.390   5.399
   25CHL1  H18A 2984   5.693   5.478   5.393
   25CHL1  H18B 2985   5.727   5.302   5.341
   25CHL1  H18C 2986   5.743   5.374   5.507
   25CHL1   C12 2987   5.998   5.305   5.403
   25CHL1  H12A 2988   5.962   5.209   5.362
   25CHL1  H12B 2989   6.101   5.316   5.362
   25CHL1   C11 2990   5.988   5.297   5.559
   25CHL1  H11A 2991   5.890   5.252   5.586
   25CHL1  H11B 2992   6.066   5.223   5.585
   25CHL1    C9 2993   6.017   5.423   5.639
   25CHL1    H9 2994   6.127   5.434   5.630
   25CHL1   C10 2995   5.983   5.410   5.794
   25CHL1   C19 2996   5.831   5.391   5.825
   25CHL1  H19A 2997   5.766   5.464   5.772
   25CHL1  H19B 2998   5.788   5.292   5.797
   25CHL1  H19C 2999   5.800   5.390   5.932
   25CHL1    C1 3000   6.066   5.291   5.850
   25CHL1   H1A 3001   6.028   5.195   5.810
   25CHL1   H1B 3002   6.170   5.292   5.812
   25CHL1    C2 3003   6.073   5.286   6.005
   25CHL1   H2A 3004   6.148   5.210   6.034
   25CHL1   H2B 3005   5.975   5.255   6.049
   25CHL1   C20 3006   5.848   5.404   5.097
   25CHL1   H20 3007   5.738   5.406   5.116
   25CHL1   C21 3008   5.879   5.255   5.090
   25CHL1  H21A 3009   5.986   5.232   5.110
   25CHL1  H21B 3010   5.833   5.207   5.001
   25CHL1  H21C 3011   5.831   5.201   5.174
   25CHL1   C22 3012   5.856   5.475   4.961
   25CHL1  H22A 3013   5.792   5.417   4.892
   25CHL1  H22B 3014   5.809   5.575   4.970
   25CHL1   C23 3015   5.997   5.485   4.892
   25CHL1  H23A 3016   6.031   5.585   4.928
   25CHL1  H23B 3017   6.057   5.398   4.927
   25CHL1   C24 3018   5.997   5.481   4.740
   25CHL1  H24A 3019   5.944   5.391   4.702
   25CHL1  H24B 3020   5.931   5.564   4.707
   25CHL1   C25 3021   6.134   5.497   4.677
   25CHL1   H25 3022   6.182   5.584   4.727
   25CHL1   C26 3023   6.222   5.367   4.709
   25CHL1  H26A 3024   6.185   5.275   4.659
   25CHL1  H26B 3025   6.326   5.387   4.675
   25CHL1  H26C 3026   6.240   5.356   4.818
   25CHL1   C27 3027   6.125   5.517   4.525
   25CHL1  H27A 3028   6.079   5.617   4.507
   25CHL1  H27B 3029   6.220   5.519   4.467
   25CHL1  H27C 3030   6.066   5.434   4.481
   26CHL1    C3 3031   4.047   2.988   5.962
   26CHL1    H3 3032   4.138   2.949   5.912
   26CHL1    O3 3033   4.053   2.959   6.098
   26CHL1   H3' 3034   3.975   3.007   6.125
   26CHL1    C4 3035   4.020   3.139   5.945
   26CHL1   H4A 3036   3.928   3.161   6.003
   26CHL1   H4B 3037   4.103   3.188   5.999
   26CHL1    C5 3038   4.015   3.187   5.807
   26CHL1    C6 3039   4.093   3.280   5.750
   26CHL1    H6 3040   4.168   3.320   5.820
   26CHL1    C7 3041   4.088   3.325   5.605
   26CHL1   H7A 3042   4.076   3.435   5.600
   26CHL1   H7B 3043   4.182   3.308   5.548
   26CHL1    C8 3044   3.978   3.254   5.525
   26CHL1    H8 3045   3.883   3.312   5.533
   26CHL1   C14 3046   4.010   3.265   5.377
   26CHL1   H14 3047   4.100   3.203   5.356
   26CHL1   C15 3048   4.042   3.398   5.316
   26CHL1  H15A 3049   3.967   3.475   5.345
   26CHL1  H15B 3050   4.143   3.439   5.337
   26CHL1   C16 3051   4.037   3.373   5.169
   26CHL1  H16A 3052   3.978   3.448   5.112
   26CHL1  H16B 3053   4.137   3.359   5.122
   26CHL1   C17 3054   3.965   3.235   5.146
   26CHL1   H17 3055   4.043   3.157   5.134
   26CHL1   C13 3056   3.903   3.203   5.285
   26CHL1   C18 3057   3.768   3.282   5.295
   26CHL1  H18A 3058   3.775   3.385   5.252
   26CHL1  H18B 3059   3.688   3.224   5.244
   26CHL1  H18C 3060   3.742   3.291   5.403
   26CHL1   C12 3061   3.899   3.051   5.315
   26CHL1  H12A 3062   3.813   3.011   5.258
   26CHL1  H12B 3063   3.996   3.009   5.280
   26CHL1   C11 3064   3.868   3.024   5.474
   26CHL1  H11A 3065   3.762   3.054   5.486
   26CHL1  H11B 3066   3.871   2.913   5.484
   26CHL1    C9 3067   3.959   3.106   5.571
   26CHL1    H9 3068   4.054   3.056   5.543
   26CHL1   C10 3069   3.917   3.098   5.716
   26CHL1   C19 3070   3.774   3.155   5.736
   26CHL1  H19A 3071   3.703   3.110   5.663
   26CHL1  H19B 3072   3.730   3.124   5.833
   26CHL1  H19C 3073   3.763   3.265   5.726
   26CHL1    C1 3074   3.913   2.941   5.756
   26CHL1   H1A 3075   3.821   2.893   5.716
   26CHL1   H1B 3076   3.998   2.889   5.707
   26CHL1    C2 3077   3.928   2.911   5.904
   26CHL1   H2A 3078   3.950   2.802   5.914
   26CHL1   H2B 3079   3.838   2.939   5.964
   26CHL1   C20 3080   3.875   3.234   5.018
   26CHL1   H20 3081   3.800   3.313   5.038
   26CHL1   C21 3082   3.809   3.100   4.986
   26CHL1  H21A 3083   3.750   3.101   4.892
   26CHL1  H21B 3084   3.726   3.081   5.058
   26CHL1  H21C 3085   3.874   3.010   4.980
   26CHL1   C22 3086   3.946   3.288   4.891
   26CHL1  H22A 3087   4.001   3.378   4.926
   26CHL1  H22B 3088   4.024   3.220   4.852
   26CHL1   C23 3089   3.870   3.333   4.771
   26CHL1  H23A 3090   3.831   3.236   4.734
   26CHL1  H23B 3091   3.790   3.400   4.809
   26CHL1   C24 3092   3.964   3.411   4.670
   26CHL1  H24A 3093   4.008   3.505   4.709
   26CHL1  H24B 3094   4.051   3.344   4.653
   26CHL1   C25 3095   3.902   3.456   4.543
   26CHL1   H25 3096   3.889   3.366   4.479
   26CHL1   C26 3097   3.766   3.530   4.562
   26CHL1  H26A 3098   3.775   3.595   4.652
   26CHL1  H26B 3099   3.742   3.590   4.472
   26CHL1  H26C 3100   3.681   3.459   4.571
   26CHL1   C27 3101   4.004   3.549   4.462
   26CHL1  H27A 3102   4.095   3.493   4.432
   26CHL1  H27B 3103   3.950   3.588   4.373
   26CHL1  H27C 3104   4.032   3.639   4.520
   27CHL1    C3 3105   0.415   2.203   5.964
   27CHL1    H3 3106   0.350   2.118   5.934
   27CHL1    O3 3107   0.425   2.225   6.106
   27CHL1   H3' 3108   0.481   2.156   6.143
   27CHL1    C4 3109   0.555   2.170   5.913
   27CHL1   H4A 3110   0.625   2.248   5.948
   27CHL1   H4B 3111   0.583   2.070   5.953
   27CHL1    C5 3112   0.553   2.168   5.754
   27CHL1    C6 3113   0.602   2.058   5.692
   27CHL1    H6 3114   0.634   1.979   5.762
   27CHL1    C7 3115   0.627   2.055   5.542
   27CHL1   H7A 3116   0.729   2.016   5.522
   27CHL1   H7B 3117   0.554   1.980   5.504
   27CHL1    C8 3118   0.625   2.193   5.472
   27CHL1    H8 3119   0.716   2.250   5.502
   27CHL1   C14 3120   0.609   2.171   5.318
   27CHL1   H14 3121   0.519   2.106   5.316
   27CHL1   C15 3122   0.717   2.091   5.244
   27CHL1  H15A 3123   0.820   2.126   5.265
   27CHL1  H15B 3124   0.711   1.985   5.277
   27CHL1   C16 3125   0.684   2.113   5.095
   27CHL1  H16A 3126   0.780   2.142   5.048
   27CHL1  H16B 3127   0.656   2.021   5.038
   27CHL1   C17 3128   0.569   2.217   5.096
   27CHL1   H17 3129   0.477   2.156   5.095
   27CHL1   C13 3130   0.570   2.290   5.232
   27CHL1   C18 3131   0.678   2.407   5.235
   27CHL1  H18A 3132   0.637   2.497   5.184
   27CHL1  H18B 3133   0.707   2.430   5.340
   27CHL1  H18C 3134   0.770   2.377   5.180
   27CHL1   C12 3135   0.431   2.342   5.286
   27CHL1  H12A 3136   0.400   2.431   5.227
   27CHL1  H12B 3137   0.359   2.260   5.264
   27CHL1   C11 3138   0.432   2.383   5.434
   27CHL1  H11A 3139   0.482   2.480   5.452
   27CHL1  H11B 3140   0.325   2.390   5.465
   27CHL1    C9 3141   0.498   2.262   5.520
   27CHL1    H9 3142   0.419   2.185   5.511
   27CHL1   C10 3143   0.501   2.286   5.676
   27CHL1   C19 3144   0.597   2.404   5.700
   27CHL1  H19A 3145   0.606   2.463   5.606
   27CHL1  H19B 3146   0.572   2.472   5.784
   27CHL1  H19C 3147   0.699   2.374   5.731
   27CHL1    C1 3148   0.363   2.311   5.737
   27CHL1   H1A 3149   0.334   2.404   5.684
   27CHL1   H1B 3150   0.299   2.230   5.696
   27CHL1    C2 3151   0.355   2.323   5.890
   27CHL1   H2A 3152   0.250   2.328   5.926
   27CHL1   H2B 3153   0.413   2.410   5.928
   27CHL1   C20 3154   0.575   2.309   4.972
   27CHL1   H20 3155   0.639   2.398   4.987
   27CHL1   C21 3156   0.424   2.350   4.943
   27CHL1  H21A 3157   0.416   2.421   4.858
   27CHL1  H21B 3158   0.376   2.396   5.032
   27CHL1  H21C 3159   0.356   2.263   4.933
   27CHL1   C22 3160   0.630   2.244   4.837
   27CHL1  H22A 3161   0.727   2.193   4.852
   27CHL1  H22B 3162   0.560   2.169   4.793
   27CHL1   C23 3163   0.652   2.356   4.722
   27CHL1  H23A 3164   0.552   2.387   4.686
   27CHL1  H23B 3165   0.701   2.448   4.762
   27CHL1   C24 3166   0.722   2.296   4.604
   27CHL1  H24A 3167   0.817   2.252   4.643
   27CHL1  H24B 3168   0.657   2.215   4.563
   27CHL1   C25 3169   0.754   2.397   4.490
   27CHL1   H25 3170   0.768   2.497   4.536
   27CHL1   C26 3171   0.876   2.343   4.411
   27CHL1  H26A 3172   0.964   2.343   4.479
   27CHL1  H26B 3173   0.863   2.237   4.379
   27CHL1  H26C 3174   0.898   2.400   4.318
   27CHL1   C27 3175   0.646   2.403   4.385
   27CHL1  H27A 3176   0.610   2.301   4.358
   27CHL1  H27B 3177   0.681   2.460   4.296
   27CHL1  H27C 3178   0.562   2.460   4.431
   28CHL1    C3 3179   5.422   2.061   5.876
   28CHL1    H3 3180   5.529   2.051   5.903
   28CHL1    O3 3181   5.348   2.104   5.986
   28CHL1   H3' 3182   5.258   2.118   5.957
   28CHL1    C4 3183   5.406   2.153   5.754
   28CHL1   H4A 3184   5.299   2.173   5.734
   28CHL1   H4B 3185   5.454   2.250   5.779
   28CHL1    C5 3186   5.462   2.091   5.626
   28CHL1    C6 3187   5.559   2.158   5.562
   28CHL1    H6 3188   5.589   2.255   5.603
   28CHL1    C7 3189   5.634   2.104   5.447
   28CHL1   H7A 3190   5.645   2.187   5.373
   28CHL1   H7B 3191   5.736   2.078   5.479
   28CHL1    C8 3192   5.551   1.989   5.382
   28CHL1    H8 3193   5.462   2.025   5.327
   28CHL1   C14 3194   5.639   1.908   5.276
   28CHL1   H14 3195   5.729   1.883   5.337
   28CHL1   C15 3196   5.701   1.991   5.163
   28CHL1  H15A 3197   5.622   2.047   5.107
   28CHL1  H15B 3198   5.773   2.065   5.204
   28CHL1   C16 3199   5.765   1.872   5.082
   28CHL1  H16A 3200   5.747   1.898   4.976
   28CHL1  H16B 3201   5.875   1.870   5.098
   28CHL1   C17 3202   5.710   1.744   5.129
   28CHL1   H17 3203   5.791   1.709   5.197
   28CHL1   C13 3204   5.586   1.775   5.209
   28CHL1   C18 3205   5.463   1.813   5.119
   28CHL1  H18A 3206   5.396   1.876   5.181
   28CHL1  H18B 3207   5.486   1.884   5.036
   28CHL1  H18C 3208   5.413   1.718   5.091
   28CHL1   C12 3209   5.553   1.682   5.320
   28CHL1  H12A 3210   5.501   1.593   5.278
   28CHL1  H12B 3211   5.637   1.665   5.391
   28CHL1   C11 3212   5.453   1.754   5.418
   28CHL1  H11A 3213   5.359   1.788   5.371
   28CHL1  H11B 3214   5.430   1.683   5.500
   28CHL1    C9 3215   5.510   1.885   5.488
   28CHL1    H9 3216   5.598   1.856   5.550
   28CHL1   C10 3217   5.426   1.946   5.599
   28CHL1   C19 3218   5.273   1.960   5.547
   28CHL1  H19A 3219   5.261   2.025   5.458
   28CHL1  H19B 3220   5.241   1.856   5.524
   28CHL1  H19C 3221   5.208   2.003   5.626
   28CHL1    C1 3222   5.436   1.858   5.728
   28CHL1   H1A 3223   5.396   1.755   5.714
   28CHL1   H1B 3224   5.541   1.847   5.763
   28CHL1    C2 3225   5.366   1.922   5.851
   28CHL1   H2A 3226   5.379   1.855   5.939
   28CHL1   H2B 3227   5.257   1.935   5.831
   28CHL1   C20 3228   5.694   1.636   5.012
   28CHL1   H20 3229   5.603   1.671   4.958
   28CHL1   C21 3230   5.656   1.498   5.067
   28CHL1  H21A 3231   5.560   1.491   5.121
   28CHL1  H21B 3232   5.741   1.456   5.125
   28CHL1  H21C 3233   5.641   1.430   4.980
   28CHL1   C22 3234   5.805   1.627   4.904
   28CHL1  H22A 3235   5.856   1.726   4.893
   28CHL1  H22B 3236   5.880   1.557   4.947
   28CHL1   C23 3237   5.753   1.563   4.770
   28CHL1  H23A 3238   5.695   1.470   4.787
   28CHL1  H23B 3239   5.686   1.633   4.717
   28CHL1   C24 3240   5.859   1.534   4.664
   28CHL1  H24A 3241   5.931   1.619   4.675
   28CHL1  H24B 3242   5.909   1.440   4.696
   28CHL1   C25 3243   5.813   1.516   4.519
   28CHL1   H25 3244   5.784   1.616   4.482
   28CHL1   C26 3245   5.920   1.476   4.424
   28CHL1  H26A 3246   5.954   1.372   4.446
   28CHL1  H26B 3247   5.872   1.473   4.323
   28CHL1  H26C 3248   6.002   1.550   4.436
   28CHL1   C27 3249   5.695   1.414   4.506
   28CHL1  H27A 3250   5.613   1.447   4.572
   28CHL1  H27B 3251   5.662   1.403   4.400
   28CHL1  H27C 3252   5.733   1.316   4.541
   29CHL1    C3 3253   2.281   3.524   6.215
   29CHL1    H3 3254   2.392   3.515   6.206
   29CHL1    O3 3255   2.244   3.511   6.352
   29CHL1   H3' 3256   2.149   3.497   6.357
   29CHL1    C4 3257   2.244   3.662   6.167
   29CHL1   H4A 3258   2.136   3.681   6.182
   29CHL1   H4B 3259   2.298   3.737   6.230
   29CHL1    C5 3260   2.278   3.679   6.019
   29CHL1    C6 3261   2.372   3.763   5.974
   29CHL1    H6 3262   2.430   3.816   6.051
   29CHL1    C7 3263   2.416   3.774   5.822
   29CHL1   H7A 3264   2.426   3.881   5.792
   29CHL1   H7B 3265   2.513   3.723   5.805
   29CHL1    C8 3266   2.306   3.704   5.736
   29CHL1    H8 3267   2.217   3.770   5.729
   29CHL1   C14 3268   2.346   3.702   5.586
   29CHL1   H14 3269   2.436   3.636   5.579
   29CHL1   C15 3270   2.386   3.838   5.528
   29CHL1  H15A 3271   2.325   3.923   5.564
   29CHL1  H15B 3272   2.490   3.864   5.556
   29CHL1   C16 3273   2.370   3.820   5.376
   29CHL1  H16A 3274   2.295   3.893   5.338
   29CHL1  H16B 3275   2.471   3.837   5.332
   29CHL1   C17 3276   2.332   3.668   5.358
   29CHL1   H17 3277   2.423   3.605   5.371
   29CHL1   C13 3278   2.257   3.638   5.487
   29CHL1   C18 3279   2.118   3.708   5.491
   29CHL1  H18A 3280   2.120   3.819   5.480
   29CHL1  H18B 3281   2.047   3.661   5.419
   29CHL1  H18C 3282   2.072   3.690   5.590
   29CHL1   C12 3283   2.247   3.490   5.536
   29CHL1  H12A 3284   2.184   3.420   5.477
   29CHL1  H12B 3285   2.350   3.450   5.527
   29CHL1   C11 3286   2.195   3.476   5.677
   29CHL1  H11A 3287   2.089   3.508   5.665
   29CHL1  H11B 3288   2.207   3.370   5.707
   29CHL1    C9 3289   2.275   3.559   5.784
   29CHL1    H9 3290   2.377   3.517   5.781
   29CHL1   C10 3291   2.211   3.561   5.927
   29CHL1   C19 3292   2.061   3.598   5.919
   29CHL1  H19A 3293   2.000   3.514   5.879
   29CHL1  H19B 3294   2.008   3.616   6.015
   29CHL1  H19C 3295   2.049   3.685   5.851
   29CHL1    C1 3296   2.237   3.422   5.984
   29CHL1   H1A 3297   2.189   3.342   5.924
   29CHL1   H1B 3298   2.347   3.414   5.971
   29CHL1    C2 3299   2.209   3.411   6.132
   29CHL1   H2A 3300   2.243   3.317   6.182
   29CHL1   H2B 3301   2.098   3.414   6.136
   29CHL1   C20 3302   2.276   3.637   5.211
   29CHL1   H20 3303   2.185   3.700   5.199
   29CHL1   C21 3304   2.257   3.484   5.204
   29CHL1  H21A 3305   2.350   3.439   5.246
   29CHL1  H21B 3306   2.238   3.450   5.100
   29CHL1  H21C 3307   2.180   3.440   5.270
   29CHL1   C22 3308   2.376   3.676   5.104
   29CHL1  H22A 3309   2.429   3.771   5.130
   29CHL1  H22B 3310   2.444   3.591   5.080
   29CHL1   C23 3311   2.310   3.711   4.965
   29CHL1  H23A 3312   2.243   3.625   4.945
   29CHL1  H23B 3313   2.246   3.801   4.978
   29CHL1   C24 3314   2.401   3.747   4.837
   29CHL1  H24A 3315   2.436   3.848   4.866
   29CHL1  H24B 3316   2.478   3.666   4.833
   29CHL1   C25 3317   2.308   3.751   4.714
   29CHL1   H25 3318   2.274   3.648   4.690
   29CHL1   C26 3319   2.174   3.833   4.725
   29CHL1  H26A 3320   2.134   3.841   4.622
   29CHL1  H26B 3321   2.094   3.795   4.791
   29CHL1  H26C 3322   2.201   3.937   4.754
   29CHL1   C27 3323   2.386   3.799   4.588
   29CHL1  H27A 3324   2.385   3.909   4.604
   29CHL1  H27B 3325   2.487   3.754   4.598
   29CHL1  H27C 3326   2.342   3.765   4.492
   30CHL1    C3 3327   3.058   3.694   5.732
   30CHL1    H3 3328   3.037   3.803   5.733
   30CHL1    O3 3329   3.084   3.635   5.856
   30CHL1   H3' 3330   3.003   3.590   5.879
   30CHL1    C4 3331   2.932   3.624   5.671
   30CHL1   H4A 3332   2.939   3.513   5.682
   30CHL1   H4B 3333   2.845   3.644   5.736
   30CHL1    C5 3334   2.903   3.659   5.530
   30CHL1    C6 3335   2.786   3.710   5.490
   30CHL1    H6 3336   2.711   3.716   5.570
   30CHL1    C7 3337   2.744   3.733   5.351
   30CHL1   H7A 3338   2.651   3.675   5.337
   30CHL1   H7B 3339   2.722   3.841   5.336
   30CHL1    C8 3340   2.855   3.685   5.248
   30CHL1    H8 3341   2.829   3.579   5.227
   30CHL1   C14 3342   2.834   3.762   5.118
   30CHL1   H14 3343   2.858   3.868   5.139
   30CHL1   C15 3344   2.697   3.773   5.052
   30CHL1  H15A 3345   2.644   3.676   5.053
   30CHL1  H15B 3346   2.632   3.853   5.094
   30CHL1   C16 3347   2.736   3.806   4.909
   30CHL1  H16A 3348   2.707   3.720   4.845
   30CHL1  H16B 3349   2.680   3.892   4.866
   30CHL1   C17 3350   2.888   3.817   4.899
   30CHL1   H17 3351   2.905   3.924   4.925
   30CHL1   C13 3352   2.938   3.732   5.012
   30CHL1   C18 3353   2.924   3.581   4.972
   30CHL1  H18A 3354   2.949   3.515   5.058
   30CHL1  H18B 3355   2.819   3.557   4.943
   30CHL1  H18C 3356   2.986   3.561   4.882
   30CHL1   C12 3357   3.081   3.755   5.064
   30CHL1  H12A 3358   3.153   3.744   4.981
   30CHL1  H12B 3359   3.098   3.861   5.091
   30CHL1   C11 3360   3.104   3.683   5.194
   30CHL1  H11A 3361   3.110   3.573   5.178
   30CHL1  H11B 3362   3.205   3.712   5.231
   30CHL1    C9 3363   2.997   3.705   5.299
   30CHL1    H9 3364   3.004   3.813   5.324
   30CHL1   C10 3365   3.023   3.641   5.435
   30CHL1   C19 3366   3.059   3.485   5.410
   30CHL1  H19A 3367   3.159   3.480   5.360
   30CHL1  H19B 3368   3.071   3.433   5.507
   30CHL1  H19C 3369   2.989   3.436   5.339
   30CHL1    C1 3370   3.149   3.711   5.494
   30CHL1   H1A 3371   3.236   3.688   5.430
   30CHL1   H1B 3372   3.135   3.821   5.504
   30CHL1    C2 3373   3.180   3.672   5.643
   30CHL1   H2A 3374   3.267   3.727   5.685
   30CHL1   H2B 3375   3.193   3.562   5.648
   30CHL1   C20 3376   2.935   3.804   4.757
   30CHL1   H20 3377   2.943   3.699   4.721
   30CHL1   C21 3378   3.079   3.867   4.742
   30CHL1  H21A 3379   3.071   3.967   4.694
   30CHL1  H21B 3380   3.128   3.793   4.675
   30CHL1  H21C 3381   3.129   3.882   4.840
   30CHL1   C22 3382   2.842   3.867   4.651
   30CHL1  H22A 3383   2.736   3.834   4.661
   30CHL1  H22B 3384   2.854   3.977   4.654
   30CHL1   C23 3385   2.882   3.821   4.501
   30CHL1  H23A 3386   2.816   3.870   4.425
   30CHL1  H23B 3387   2.986   3.850   4.477
   30CHL1   C24 3388   2.866   3.670   4.477
   30CHL1  H24A 3389   2.915   3.615   4.561
   30CHL1  H24B 3390   2.758   3.643   4.478
   30CHL1   C25 3391   2.941   3.616   4.352
   30CHL1   H25 3392   3.041   3.663   4.359
   30CHL1   C26 3393   2.959   3.463   4.371
   30CHL1  H26A 3394   2.853   3.432   4.363
   30CHL1  H26B 3395   3.009   3.422   4.280
   30CHL1  H26C 3396   3.014   3.429   4.461
   30CHL1   C27 3397   2.860   3.654   4.227
   30CHL1  H27A 3398   2.764   3.599   4.216
   30CHL1  H27B 3399   2.826   3.760   4.225
   30CHL1  H27C 3400   2.924   3.628   4.141
   31CHL1    C3 3401   1.466   4.165   5.971
   31CHL1    H3 3402   1.378   4.230   5.950
   31CHL1    O3 3403   1.461   4.114   6.101
   31CHL1   H3' 3404   1.473   4.196   6.149
   31CHL1    C4 3405   1.490   4.053   5.869
   31CHL1   H4A 3406   1.585   3.998   5.886
   31CHL1   H4B 3407   1.403   3.984   5.882
   31CHL1    C5 3408   1.485   4.107   5.727
   31CHL1    C6 3409   1.396   4.067   5.633
   31CHL1    H6 3410   1.316   4.001   5.671
   31CHL1    C7 3411   1.388   4.127   5.494
   31CHL1   H7A 3412   1.364   4.051   5.417
   31CHL1   H7B 3413   1.318   4.211   5.479
   31CHL1    C8 3414   1.533   4.195   5.463
   31CHL1    H8 3415   1.608   4.114   5.450
   31CHL1   C14 3416   1.521   4.263   5.332
   31CHL1   H14 3417   1.435   4.331   5.348
   31CHL1   C15 3418   1.480   4.183   5.214
   31CHL1  H15A 3419   1.545   4.093   5.207
   31CHL1  H15B 3420   1.374   4.152   5.221
   31CHL1   C16 3421   1.517   4.267   5.087
   31CHL1  H16A 3422   1.585   4.205   5.024
   31CHL1  H16B 3423   1.419   4.293   5.042
   31CHL1   C17 3424   1.587   4.391   5.152
   31CHL1   H17 3425   1.515   4.474   5.165
   31CHL1   C13 3426   1.635   4.342   5.292
   31CHL1   C18 3427   1.759   4.249   5.271
   31CHL1  H18A 3428   1.844   4.318   5.250
   31CHL1  H18B 3429   1.789   4.209   5.371
   31CHL1  H18C 3430   1.748   4.168   5.196
   31CHL1   C12 3431   1.648   4.456   5.396
   31CHL1  H12A 3432   1.732   4.524   5.372
   31CHL1  H12B 3433   1.551   4.511   5.398
   31CHL1   C11 3434   1.672   4.399   5.543
   31CHL1  H11A 3435   1.771   4.347   5.539
   31CHL1  H11B 3436   1.679   4.474   5.624
   31CHL1    C9 3437   1.571   4.288   5.573
   31CHL1    H9 3438   1.481   4.350   5.593
   31CHL1   C10 3439   1.597   4.210   5.710
   31CHL1   C19 3440   1.726   4.120   5.699
   31CHL1  H19A 3441   1.754   4.085   5.801
   31CHL1  H19B 3442   1.711   4.035   5.629
   31CHL1  H19C 3443   1.801   4.196   5.669
   31CHL1    C1 3444   1.607   4.308   5.823
   31CHL1   H1A 3445   1.698   4.371   5.820
   31CHL1   H1B 3446   1.517   4.371   5.811
   31CHL1    C2 3447   1.592   4.255   5.964
   31CHL1   H2A 3448   1.573   4.343   6.029
   31CHL1   H2B 3449   1.680   4.199   6.004
   31CHL1   C20 3450   1.695   4.442   5.052
   31CHL1   H20 3451   1.767   4.360   5.033
   31CHL1   C21 3452   1.783   4.555   5.104
   31CHL1  H21A 3453   1.713   4.633   5.140
   31CHL1  H21B 3454   1.835   4.605   5.020
   31CHL1  H21C 3455   1.859   4.512   5.173
   31CHL1   C22 3456   1.630   4.501   4.923
   31CHL1  H22A 3457   1.550   4.429   4.896
   31CHL1  H22B 3458   1.571   4.589   4.958
   31CHL1   C23 3459   1.718   4.523   4.797
   31CHL1  H23A 3460   1.801   4.592   4.823
   31CHL1  H23B 3461   1.767   4.425   4.780
   31CHL1   C24 3462   1.637   4.563   4.677
   31CHL1  H24A 3463   1.549   4.495   4.678
   31CHL1  H24B 3464   1.600   4.664   4.704
   31CHL1   C25 3465   1.699   4.553   4.531
   31CHL1   H25 3466   1.635   4.610   4.460
   31CHL1   C26 3467   1.832   4.630   4.521
   31CHL1  H26A 3468   1.862   4.617   4.415
   31CHL1  H26B 3469   1.827   4.739   4.544
   31CHL1  H26C 3470   1.913   4.572   4.572
   31CHL1   C27 3471   1.714   4.410   4.482
   31CHL1  H27A 3472   1.810   4.383   4.531
   31CHL1  H27B 3473   1.642   4.343   4.534
   31CHL1  H27C 3474   1.716   4.393   4.372
   32CHL1    C3 3475   2.393   2.399   5.883
   32CHL1    H3 3476   2.354   2.295   5.870
   32CHL1    O3 3477   2.431   2.417   6.015
   32CHL1   H3' 3478   2.347   2.391   6.054
   32CHL1    C4 3479   2.514   2.391   5.787
   32CHL1   H4A 3480   2.576   2.479   5.814
   32CHL1   H4B 3481   2.583   2.316   5.832
   32CHL1    C5 3482   2.480   2.385   5.636
   32CHL1    C6 3483   2.518   2.283   5.559
   32CHL1    H6 3484   2.587   2.212   5.606
   32CHL1    C7 3485   2.493   2.275   5.414
   32CHL1   H7A 3486   2.589   2.248   5.367
   32CHL1   H7B 3487   2.428   2.189   5.389
   32CHL1    C8 3488   2.438   2.409   5.358
   32CHL1    H8 3489   2.510   2.492   5.343
   32CHL1   C14 3490   2.382   2.374   5.221
   32CHL1   H14 3491   2.302   2.298   5.236
   32CHL1   C15 3492   2.465   2.304   5.113
   32CHL1  H15A 3493   2.563   2.354   5.099
   32CHL1  H15B 3494   2.479   2.200   5.149
   32CHL1   C16 3495   2.386   2.324   4.988
   32CHL1  H16A 3496   2.458   2.376   4.922
   32CHL1  H16B 3497   2.356   2.230   4.935
   32CHL1   C17 3498   2.278   2.426   5.022
   32CHL1   H17 3499   2.184   2.372   5.047
   32CHL1   C13 3500   2.317   2.496   5.150
   32CHL1   C18 3501   2.423   2.613   5.118
   32CHL1  H18A 3502   2.365   2.701   5.084
   32CHL1  H18B 3503   2.478   2.630   5.213
   32CHL1  H18C 3504   2.492   2.580   5.037
   32CHL1   C12 3505   2.200   2.549   5.251
   32CHL1  H12A 3506   2.147   2.639   5.212
   32CHL1  H12B 3507   2.124   2.468   5.260
   32CHL1   C11 3508   2.247   2.585   5.388
   32CHL1  H11A 3509   2.319   2.668   5.372
   32CHL1  H11B 3510   2.165   2.607   5.459
   32CHL1    C9 3511   2.323   2.467   5.453
   32CHL1    H9 3512   2.252   2.383   5.469
   32CHL1   C10 3513   2.384   2.502   5.596
   32CHL1   C19 3514   2.461   2.633   5.596
   32CHL1  H19A 3515   2.400   2.720   5.563
   32CHL1  H19B 3516   2.499   2.662   5.696
   32CHL1  H19C 3517   2.546   2.643   5.526
   32CHL1    C1 3518   2.270   2.518   5.696
   32CHL1   H1A 3519   2.244   2.625   5.677
   32CHL1   H1B 3520   2.185   2.459   5.655
   32CHL1    C2 3521   2.294   2.504   5.841
   32CHL1   H2A 3522   2.195   2.490   5.887
   32CHL1   H2B 3523   2.337   2.600   5.877
   32CHL1   C20 3524   2.241   2.516   4.899
   32CHL1   H20 3525   2.319   2.591   4.878
   32CHL1   C21 3526   2.118   2.599   4.933
   32CHL1  H21A 3527   2.093   2.670   4.852
   32CHL1  H21B 3528   2.135   2.667   5.020
   32CHL1  H21C 3529   2.036   2.530   4.964
   32CHL1   C22 3530   2.225   2.426   4.780
   32CHL1  H22A 3531   2.328   2.395   4.752
   32CHL1  H22B 3532   2.155   2.344   4.804
   32CHL1   C23 3533   2.176   2.483   4.648
   32CHL1  H23A 3534   2.065   2.484   4.646
   32CHL1  H23B 3535   2.199   2.592   4.641
   32CHL1   C24 3536   2.224   2.410   4.526
   32CHL1  H24A 3537   2.333   2.390   4.516
   32CHL1  H24B 3538   2.176   2.311   4.544
   32CHL1   C25 3539   2.188   2.486   4.393
   32CHL1   H25 3540   2.212   2.591   4.421
   32CHL1   C26 3541   2.270   2.448   4.271
   32CHL1  H26A 3542   2.242   2.344   4.245
   32CHL1  H26B 3543   2.246   2.508   4.181
   32CHL1  H26C 3544   2.378   2.460   4.296
   32CHL1   C27 3545   2.035   2.474   4.364
   32CHL1  H27A 3546   1.977   2.516   4.449
   32CHL1  H27B 3547   2.013   2.534   4.274
   32CHL1  H27C 3548   1.997   2.370   4.353
   33CHL1    C3 3549   0.680   1.496   5.591
   33CHL1    H3 3550   0.770   1.560   5.582
   33CHL1    O3 3551   0.654   1.490   5.733
   33CHL1   H3' 3552   0.729   1.448   5.777
   33CHL1    C4 3553   0.571   1.586   5.528
   33CHL1   H4A 3554   0.476   1.532   5.551
   33CHL1   H4B 3555   0.576   1.688   5.571
   33CHL1    C5 3556   0.597   1.590   5.380
   33CHL1    C6 3557   0.615   1.707   5.322
   33CHL1    H6 3558   0.625   1.799   5.380
   33CHL1    C7 3559   0.624   1.719   5.175
   33CHL1   H7A 3560   0.556   1.805   5.158
   33CHL1   H7B 3561   0.725   1.755   5.144
   33CHL1    C8 3562   0.575   1.600   5.094
   33CHL1    H8 3563   0.464   1.602   5.096
   33CHL1   C14 3564   0.621   1.617   4.952
   33CHL1   H14 3565   0.731   1.627   4.951
   33CHL1   C15 3566   0.576   1.739   4.883
   33CHL1  H15A 3567   0.471   1.768   4.902
   33CHL1  H15B 3568   0.634   1.822   4.928
   33CHL1   C16 3569   0.581   1.705   4.732
   33CHL1  H16A 3570   0.486   1.713   4.675
   33CHL1  H16B 3571   0.649   1.778   4.682
   33CHL1   C17 3572   0.628   1.558   4.726
   33CHL1   H17 3573   0.739   1.557   4.722
   33CHL1   C13 3574   0.587   1.493   4.857
   33CHL1   C18 3575   0.431   1.473   4.849
   33CHL1  H18A 3576   0.375   1.476   4.945
   33CHL1  H18B 3577   0.390   1.554   4.785
   33CHL1  H18C 3578   0.396   1.378   4.804
   33CHL1   C12 3579   0.658   1.371   4.911
   33CHL1  H12A 3580   0.639   1.284   4.844
   33CHL1  H12B 3581   0.766   1.395   4.922
   33CHL1   C11 3582   0.616   1.351   5.055
   33CHL1  H11A 3583   0.510   1.320   5.066
   33CHL1  H11B 3584   0.674   1.263   5.090
   33CHL1    C9 3585   0.637   1.474   5.149
   33CHL1    H9 3586   0.745   1.497   5.151
   33CHL1   C10 3587   0.604   1.449   5.302
   33CHL1   C19 3588   0.463   1.389   5.301
   33CHL1  H19A 3589   0.414   1.405   5.399
   33CHL1  H19B 3590   0.390   1.432   5.229
   33CHL1  H19C 3591   0.482   1.282   5.281
   33CHL1    C1 3592   0.715   1.362   5.368
   33CHL1   H1A 3593   0.714   1.265   5.315
   33CHL1   H1B 3594   0.815   1.410   5.361
   33CHL1    C2 3595   0.694   1.360   5.529
   33CHL1   H2A 3596   0.784   1.315   5.574
   33CHL1   H2B 3597   0.606   1.296   5.554
   33CHL1   C20 3598   0.591   1.496   4.589
   33CHL1   H20 3599   0.482   1.515   4.591
   33CHL1   C21 3600   0.628   1.350   4.567
   33CHL1  H21A 3601   0.561   1.282   4.624
   33CHL1  H21B 3602   0.734   1.328   4.593
   33CHL1  H21C 3603   0.613   1.319   4.462
   33CHL1   C22 3604   0.634   1.580   4.462
   33CHL1  H22A 3605   0.610   1.525   4.369
   33CHL1  H22B 3606   0.590   1.682   4.459
   33CHL1   C23 3607   0.786   1.607   4.462
   33CHL1  H23A 3608   0.802   1.650   4.563
   33CHL1  H23B 3609   0.832   1.505   4.457
   33CHL1   C24 3610   0.823   1.713   4.360
   33CHL1  H24A 3611   0.742   1.788   4.372
   33CHL1  H24B 3612   0.916   1.760   4.396
   33CHL1   C25 3613   0.820   1.664   4.208
   33CHL1   H25 3614   0.713   1.656   4.177
   33CHL1   C26 3615   0.866   1.782   4.123
   33CHL1  H26A 3616   0.828   1.784   4.019
   33CHL1  H26B 3617   0.831   1.870   4.180
   33CHL1  H26C 3618   0.977   1.783   4.130
   33CHL1   C27 3619   0.903   1.539   4.172
   33CHL1  H27A 3620   0.879   1.450   4.235
   33CHL1  H27B 3621   0.907   1.521   4.063
   33CHL1  H27C 3622   1.008   1.552   4.207
   34CHL1    C3 3623   2.829   2.704   6.012
   34CHL1    H3 3624   2.723   2.671   6.014
   34CHL1    O3 3625   2.864   2.718   6.147
   34CHL1   H3' 3626   2.959   2.706   6.144
   34CHL1    C4 3627   2.926   2.606   5.940
   34CHL1   H4A 3628   3.029   2.645   5.956
   34CHL1   H4B 3629   2.929   2.509   5.995
   34CHL1    C5 3630   2.909   2.596   5.788
   34CHL1    C6 3631   2.886   2.477   5.728
   34CHL1    H6 3632   2.869   2.391   5.794
   34CHL1    C7 3633   2.874   2.453   5.578
   34CHL1   H7A 3634   2.939   2.370   5.542
   34CHL1   H7B 3635   2.770   2.421   5.551
   34CHL1    C8 3636   2.900   2.582   5.502
   34CHL1    H8 3637   3.009   2.588   5.485
   34CHL1   C14 3638   2.837   2.584   5.366
   34CHL1   H14 3639   2.728   2.599   5.378
   34CHL1   C15 3640   2.859   2.462   5.278
   34CHL1  H15A 3641   2.958   2.415   5.297
   34CHL1  H15B 3642   2.777   2.399   5.320
   34CHL1   C16 3643   2.857   2.517   5.135
   34CHL1  H16A 3644   2.952   2.508   5.078
   34CHL1  H16B 3645   2.791   2.449   5.078
   34CHL1   C17 3646   2.814   2.666   5.143
   34CHL1   H17 3647   2.705   2.660   5.167
   34CHL1   C13 3648   2.873   2.706   5.284
   34CHL1   C18 3649   3.029   2.734   5.260
   34CHL1  H18A 3650   3.041   2.825   5.197
   34CHL1  H18B 3651   3.073   2.755   5.360
   34CHL1  H18C 3652   3.078   2.648   5.209
   34CHL1   C12 3653   2.795   2.823   5.358
   34CHL1  H12A 3654   2.797   2.919   5.302
   34CHL1  H12B 3655   2.689   2.795   5.375
   34CHL1   C11 3656   2.862   2.847   5.490
   34CHL1  H11A 3657   2.966   2.884   5.482
   34CHL1  H11B 3658   2.802   2.928   5.539
   34CHL1    C9 3659   2.852   2.715   5.578
   34CHL1    H9 3660   2.743   2.700   5.597
   34CHL1   C10 3661   2.926   2.730   5.715
   34CHL1   C19 3662   3.077   2.760   5.708
   34CHL1  H19A 3663   3.137   2.676   5.667
   34CHL1  H19B 3664   3.103   2.845   5.641
   34CHL1  H19C 3665   3.116   2.786   5.808
   34CHL1    C1 3666   2.847   2.841   5.786
   34CHL1   H1A 3667   2.893   2.938   5.757
   34CHL1   H1B 3668   2.739   2.841   5.760
   34CHL1    C2 3669   2.852   2.843   5.947
   34CHL1   H2A 3670   2.775   2.916   5.980
   34CHL1   H2B 3671   2.954   2.876   5.975
   34CHL1   C20 3672   2.837   2.747   5.016
   34CHL1   H20 3673   2.945   2.741   4.992
   34CHL1   C21 3674   2.806   2.904   5.027
   34CHL1  H21A 3675   2.868   2.945   5.109
   34CHL1  H21B 3676   2.696   2.909   5.041
   34CHL1  H21C 3677   2.838   2.961   4.937
   34CHL1   C22 3678   2.757   2.693   4.895
   34CHL1  H22A 3679   2.764   2.582   4.896
   34CHL1  H22B 3680   2.652   2.727   4.905
   34CHL1   C23 3681   2.806   2.747   4.768
   34CHL1  H23A 3682   2.772   2.847   4.732
   34CHL1  H23B 3683   2.917   2.745   4.769
   34CHL1   C24 3684   2.770   2.646   4.648
   34CHL1  H24A 3685   2.849   2.663   4.571
   34CHL1  H24B 3686   2.772   2.540   4.681
   34CHL1   C25 3687   2.632   2.676   4.585
   34CHL1   H25 3688   2.614   2.781   4.617
   34CHL1   C26 3689   2.630   2.674   4.428
   34CHL1  H26A 3690   2.634   2.571   4.387
   34CHL1  H26B 3691   2.536   2.725   4.397
   34CHL1  H26C 3692   2.714   2.729   4.381
   34CHL1   C27 3693   2.525   2.575   4.635
   34CHL1  H27A 3694   2.422   2.603   4.604
   34CHL1  H27B 3695   2.544   2.474   4.594
   34CHL1  H27C 3696   2.538   2.563   4.745
   35CHL1    C3 3697   4.170   4.966   6.188
   35CHL1    H3 3698   4.193   4.859   6.168
   35CHL1    O3 3699   4.155   4.984   6.325
   35CHL1   H3' 3700   4.131   5.077   6.334
   35CHL1    C4 3701   4.278   5.055   6.124
   35CHL1   H4A 3702   4.251   5.160   6.152
   35CHL1   H4B 3703   4.374   5.035   6.177
   35CHL1    C5 3704   4.282   5.035   5.976
   35CHL1    C6 3705   4.397   4.992   5.920
   35CHL1    H6 3706   4.490   4.974   5.976
   35CHL1    C7 3707   4.408   4.952   5.779
   35CHL1   H7A 3708   4.504   4.989   5.737
   35CHL1   H7B 3709   4.426   4.843   5.769
   35CHL1    C8 3710   4.287   4.999   5.695
   35CHL1    H8 3711   4.306   5.106   5.672
   35CHL1   C14 3712   4.272   4.928   5.560
   35CHL1   H14 3713   4.252   4.819   5.573
   35CHL1   C15 3714   4.404   4.907   5.477
   35CHL1  H15A 3715   4.471   4.996   5.478
   35CHL1  H15B 3716   4.465   4.817   5.498
   35CHL1   C16 3717   4.356   4.894   5.329
   35CHL1  H16A 3718   4.391   4.974   5.261
   35CHL1  H16B 3719   4.401   4.801   5.288
   35CHL1   C17 3720   4.197   4.900   5.337
   35CHL1   H17 3721   4.172   4.793   5.356
   35CHL1   C13 3722   4.166   4.976   5.468
   35CHL1   C18 3723   4.186   5.127   5.435
   35CHL1  H18A 3724   4.174   5.185   5.529
   35CHL1  H18B 3725   4.288   5.148   5.397
   35CHL1  H18C 3726   4.110   5.168   5.364
   35CHL1   C12 3727   4.036   4.946   5.536
   35CHL1  H12A 3728   3.949   4.979   5.475
   35CHL1  H12B 3729   4.032   4.835   5.540
   35CHL1   C11 3730   4.025   5.018   5.670
   35CHL1  H11A 3731   4.007   5.124   5.642
   35CHL1  H11B 3732   3.936   4.971   5.718
   35CHL1    C9 3733   4.147   4.991   5.764
   35CHL1    H9 3734   4.144   4.882   5.783
   35CHL1   C10 3735   4.143   5.052   5.902
   35CHL1   C19 3736   4.113   5.205   5.882
   35CHL1  H19A 3737   4.119   5.257   5.980
   35CHL1  H19B 3738   4.199   5.236   5.819
   35CHL1  H19C 3739   4.014   5.230   5.839
   35CHL1    C1 3740   4.026   4.986   5.979
   35CHL1   H1A 3741   3.930   5.027   5.942
   35CHL1   H1B 3742   4.036   4.877   5.957
   35CHL1    C2 3743   4.031   4.998   6.132
   35CHL1   H2A 3744   3.953   4.931   6.174
   35CHL1   H2B 3745   4.015   5.105   6.156
   35CHL1   C20 3746   4.116   4.936   5.205
   35CHL1   H20 3747   4.129   5.045   5.185
   35CHL1   C21 3748   3.966   4.900   5.212
   35CHL1  H21A 3749   3.907   4.972   5.271
   35CHL1  H21B 3750   3.960   4.799   5.257
   35CHL1  H21C 3751   3.915   4.889   5.114
   35CHL1   C22 3752   4.171   4.861   5.079
   35CHL1  H22A 3753   4.279   4.841   5.093
   35CHL1  H22B 3754   4.126   4.760   5.073
   35CHL1   C23 3755   4.156   4.933   4.944
   35CHL1  H23A 3756   4.049   4.947   4.918
   35CHL1  H23B 3757   4.196   5.037   4.955
   35CHL1   C24 3758   4.225   4.865   4.823
   35CHL1  H24A 3759   4.317   4.818   4.865
   35CHL1  H24B 3760   4.161   4.778   4.797
   35CHL1   C25 3761   4.255   4.947   4.702
   35CHL1   H25 3762   4.298   5.042   4.740
   35CHL1   C26 3763   4.352   4.870   4.618
   35CHL1  H26A 3764   4.442   4.836   4.675
   35CHL1  H26B 3765   4.304   4.798   4.549
   35CHL1  H26C 3766   4.397   4.933   4.539
   35CHL1   C27 3767   4.128   4.996   4.623
   35CHL1  H27A 3768   4.076   4.902   4.594
   35CHL1  H27B 3769   4.068   5.045   4.703
   35CHL1  H27C 3770   4.156   5.060   4.537
   36CHL1    C3 3771   0.397   3.689   6.008
   36CHL1    H3 3772   0.427   3.584   5.991
   36CHL1    O3 3773   0.401   3.710   6.153
   36CHL1   H3' 3774   0.486   3.683   6.188
   36CHL1    C4 3775   0.502   3.777   5.938
   36CHL1   H4A 3776   0.480   3.884   5.961
   36CHL1   H4B 3777   0.604   3.754   5.975
   36CHL1    C5 3778   0.492   3.765   5.787
   36CHL1    C6 3779   0.595   3.728   5.710
   36CHL1    H6 3780   0.687   3.708   5.768
   36CHL1    C7 3781   0.602   3.714   5.558
   36CHL1   H7A 3782   0.693   3.765   5.520
   36CHL1   H7B 3783   0.621   3.607   5.537
   36CHL1    C8 3784   0.466   3.767   5.492
   36CHL1    H8 3785   0.480   3.877   5.482
   36CHL1   C14 3786   0.443   3.709   5.349
   36CHL1   H14 3787   0.427   3.602   5.372
   36CHL1   C15 3788   0.563   3.711   5.256
   36CHL1  H15A 3789   0.616   3.809   5.260
   36CHL1  H15B 3790   0.641   3.636   5.281
   36CHL1   C16 3791   0.508   3.682   5.125
   36CHL1  H16A 3792   0.537   3.755   5.046
   36CHL1  H16B 3793   0.540   3.579   5.099
   36CHL1   C17 3794   0.350   3.689   5.140
   36CHL1   H17 3795   0.317   3.583   5.149
   36CHL1   C13 3796   0.317   3.763   5.271
   36CHL1   C18 3797   0.327   3.915   5.249
   36CHL1  H18A 3798   0.330   3.962   5.349
   36CHL1  H18B 3799   0.412   3.947   5.185
   36CHL1  H18C 3800   0.238   3.957   5.196
   36CHL1   C12 3801   0.192   3.725   5.348
   36CHL1  H12A 3802   0.094   3.766   5.317
   36CHL1  H12B 3803   0.179   3.615   5.353
   36CHL1   C11 3804   0.211   3.765   5.501
   36CHL1  H11A 3805   0.196   3.875   5.500
   36CHL1  H11B 3806   0.123   3.731   5.559
   36CHL1    C9 3807   0.345   3.724   5.574
   36CHL1    H9 3808   0.348   3.613   5.583
   36CHL1   C10 3809   0.353   3.776   5.725
   36CHL1   C19 3810   0.322   3.930   5.717
   36CHL1  H19A 3811   0.357   3.981   5.809
   36CHL1  H19B 3812   0.378   3.970   5.629
   36CHL1  H19C 3813   0.214   3.946   5.698
   36CHL1    C1 3814   0.241   3.704   5.806
   36CHL1   H1A 3815   0.143   3.738   5.767
   36CHL1   H1B 3816   0.251   3.594   5.793
   36CHL1    C2 3817   0.258   3.730   5.959
   36CHL1   H2A 3818   0.188   3.665   6.016
   36CHL1   H2B 3819   0.225   3.829   5.998
   36CHL1   C20 3820   0.287   3.731   5.004
   36CHL1   H20 3821   0.322   3.831   4.970
   36CHL1   C21 3822   0.138   3.736   5.013
   36CHL1  H21A 3823   0.105   3.791   5.103
   36CHL1  H21B 3824   0.088   3.638   5.031
   36CHL1  H21C 3825   0.101   3.794   4.926
   36CHL1   C22 3826   0.335   3.639   4.885
   36CHL1  H22A 3827   0.445   3.625   4.886
   36CHL1  H22B 3828   0.307   3.532   4.897
   36CHL1   C23 3829   0.288   3.691   4.744
   36CHL1  H23A 3830   0.334   3.609   4.685
   36CHL1  H23B 3831   0.178   3.696   4.733
   36CHL1   C24 3832   0.345   3.827   4.693
   36CHL1  H24A 3833   0.283   3.907   4.739
   36CHL1  H24B 3834   0.450   3.833   4.727
   36CHL1   C25 3835   0.341   3.843   4.538
   36CHL1   H25 3836   0.384   3.751   4.494
   36CHL1   C26 3837   0.203   3.871   4.480
   36CHL1  H26A 3838   0.130   3.795   4.516
   36CHL1  H26B 3839   0.159   3.966   4.519
   36CHL1  H26C 3840   0.201   3.879   4.370
   36CHL1   C27 3841   0.441   3.955   4.501
   36CHL1  H27A 3842   0.442   3.971   4.391
   36CHL1  H27B 3843   0.410   4.053   4.544
   36CHL1  H27C 3844   0.544   3.932   4.536
   37CHL1    C3 3845   0.729   0.185   5.971
   37CHL1    H3 3846   0.816   0.120   5.947
   37CHL1    O3 3847   0.716   0.193   6.113
   37CHL1   H3' 3848   0.629   0.228   6.131
   37CHL1    C4 3849   0.754   0.324   5.921
   37CHL1   H4A 3850   0.678   0.394   5.962
   37CHL1   H4B 3851   0.855   0.354   5.957
   37CHL1    C5 3852   0.767   0.320   5.768
   37CHL1    C6 3853   0.877   0.357   5.709
   37CHL1    H6 3854   0.958   0.393   5.774
   37CHL1    C7 3855   0.895   0.366   5.564
   37CHL1   H7A 3856   0.937   0.465   5.535
   37CHL1   H7B 3857   0.966   0.289   5.527
   37CHL1    C8 3858   0.756   0.354   5.491
   37CHL1    H8 3859   0.704   0.452   5.488
   37CHL1   C14 3860   0.785   0.316   5.349
   37CHL1   H14 3861   0.846   0.223   5.354
   37CHL1   C15 3862   0.866   0.420   5.268
   37CHL1  H15A 3863   0.810   0.514   5.288
   37CHL1  H15B 3864   0.974   0.424   5.294
   37CHL1   C16 3865   0.845   0.383   5.120
   37CHL1  H16A 3866   0.816   0.473   5.062
   37CHL1  H16B 3867   0.942   0.352   5.077
   37CHL1   C17 3868   0.744   0.271   5.118
   37CHL1   H17 3869   0.802   0.176   5.118
   37CHL1   C13 3870   0.665   0.285   5.251
   37CHL1   C18 3871   0.565   0.406   5.237
   37CHL1  H18A 3872   0.494   0.381   5.156
   37CHL1  H18B 3873   0.523   0.436   5.335
   37CHL1  H18C 3874   0.628   0.490   5.202
   37CHL1   C12 3875   0.594   0.164   5.309
   37CHL1  H12A 3876   0.504   0.131   5.253
   37CHL1  H12B 3877   0.670   0.083   5.316
   37CHL1   C11 3878   0.548   0.200   5.450
   37CHL1  H11A 3879   0.470   0.279   5.448
   37CHL1  H11B 3880   0.502   0.110   5.496
   37CHL1    C9 3881   0.674   0.239   5.543
   37CHL1    H9 3882   0.744   0.153   5.537
   37CHL1   C10 3883   0.645   0.263   5.691
   37CHL1   C19 3884   0.531   0.372   5.696
   37CHL1  H19A 3885   0.443   0.317   5.657
   37CHL1  H19B 3886   0.513   0.415   5.796
   37CHL1  H19C 3887   0.556   0.455   5.626
   37CHL1    C1 3888   0.611   0.132   5.757
   37CHL1   H1A 3889   0.525   0.088   5.703
   37CHL1   H1B 3890   0.699   0.071   5.727
   37CHL1    C2 3891   0.603   0.136   5.903
   37CHL1   H2A 3892   0.586   0.034   5.944
   37CHL1   H2B 3893   0.522   0.207   5.931
   37CHL1   C20 3894   0.674   0.256   4.984
   37CHL1   H20 3895   0.631   0.356   4.963
   37CHL1   C21 3896   0.555   0.160   4.994
   37CHL1  H21A 3897   0.518   0.150   4.890
   37CHL1  H21B 3898   0.463   0.203   5.040
   37CHL1  H21C 3899   0.576   0.062   5.041
   37CHL1   C22 3900   0.773   0.222   4.869
   37CHL1  H22A 3901   0.748   0.278   4.776
   37CHL1  H22B 3902   0.868   0.273   4.894
   37CHL1   C23 3903   0.788   0.064   4.848
   37CHL1  H23A 3904   0.828   0.021   4.943
   37CHL1  H23B 3905   0.692   0.016   4.820
   37CHL1   C24 3906   0.891   0.022   4.736
   37CHL1  H24A 3907   0.992   0.039   4.779
   37CHL1  H24B 3908   0.887   6.798   4.735
   37CHL1   C25 3909   0.870   0.076   4.590
   37CHL1   H25 3910   0.862   0.186   4.597
   37CHL1   C26 3911   0.993   0.044   4.500
   37CHL1  H26A 3912   1.039   6.833   4.526
   37CHL1  H26B 3913   0.972   0.062   4.392
   37CHL1  H26C 3914   1.056   0.127   4.538
   37CHL1   C27 3915   0.740   0.030   4.534
   37CHL1  H27A 3916   0.658   0.081   4.589
   37CHL1  H27B 3917   0.729   0.058   4.427
   37CHL1  H27C 3918   0.722   6.807   4.534
   38CHL1    C3 3919   1.571   1.076   5.796
   38CHL1    H3 3920   1.494   0.996   5.809
   38CHL1    O3 3921   1.581   1.145   5.915
   38CHL1   H3' 3922   1.497   1.190   5.930
   38CHL1    C4 3923   1.703   1.002   5.746
   38CHL1   H4A 3924   1.780   1.082   5.743
   38CHL1   H4B 3925   1.731   0.939   5.833
   38CHL1    C5 3926   1.691   0.931   5.623
   38CHL1    C6 3927   1.712   0.800   5.618
   38CHL1    H6 3928   1.746   0.742   5.706
   38CHL1    C7 3929   1.697   0.728   5.484
   38CHL1   H7A 3930   1.779   0.653   5.479
   38CHL1   H7B 3931   1.602   0.671   5.478
   38CHL1    C8 3932   1.695   0.823   5.359
   38CHL1    H8 3933   1.799   0.856   5.334
   38CHL1   C14 3934   1.646   0.746   5.234
   38CHL1   H14 3935   1.541   0.715   5.253
   38CHL1   C15 3936   1.704   0.603   5.203
   38CHL1  H15A 3937   1.815   0.598   5.214
   38CHL1  H15B 3938   1.653   0.519   5.254
   38CHL1   C16 3939   1.675   0.586   5.052
   38CHL1  H16A 3940   1.776   0.578   5.007
   38CHL1  H16B 3941   1.607   0.500   5.032
   38CHL1   C17 3942   1.603   0.720   5.004
   38CHL1   H17 3943   1.493   0.710   5.015
   38CHL1   C13 3944   1.646   0.826   5.103
   38CHL1   C18 3945   1.790   0.879   5.053
   38CHL1  H18A 3946   1.867   0.801   5.032
   38CHL1  H18B 3947   1.785   0.969   4.988
   38CHL1  H18C 3948   1.825   0.923   5.148
   38CHL1   C12 3949   1.548   0.940   5.126
   38CHL1  H12A 3950   1.569   1.012   5.043
   38CHL1  H12B 3951   1.442   0.908   5.134
   38CHL1   C11 3952   1.570   1.017   5.257
   38CHL1  H11A 3953   1.665   1.069   5.232
   38CHL1  H11B 3954   1.495   1.098   5.268
   38CHL1    C9 3955   1.594   0.934   5.384
   38CHL1    H9 3956   1.496   0.888   5.406
   38CHL1   C10 3957   1.635   1.015   5.513
   38CHL1   C19 3958   1.736   1.127   5.469
   38CHL1  H19A 3959   1.698   1.199   5.394
   38CHL1  H19B 3960   1.771   1.194   5.551
   38CHL1  H19C 3961   1.828   1.075   5.434
   38CHL1    C1 3962   1.506   1.082   5.562
   38CHL1   H1A 3963   1.459   1.152   5.489
   38CHL1   H1B 3964   1.436   0.998   5.585
   38CHL1    C2 3965   1.528   1.169   5.683
   38CHL1   H2A 3966   1.432   1.220   5.707
   38CHL1   H2B 3967   1.610   1.241   5.660
   38CHL1   C20 3968   1.623   0.743   4.856
   38CHL1   H20 3969   1.728   0.775   4.840
   38CHL1   C21 3970   1.522   0.848   4.811
   38CHL1  H21A 3971   1.418   0.829   4.844
   38CHL1  H21B 3972   1.515   0.852   4.700
   38CHL1  H21C 3973   1.552   0.948   4.849
   38CHL1   C22 3974   1.607   0.608   4.769
   38CHL1  H22A 3975   1.687   0.535   4.792
   38CHL1  H22B 3976   1.512   0.562   4.801
   38CHL1   C23 3977   1.602   0.625   4.617
   38CHL1  H23A 3978   1.516   0.686   4.582
   38CHL1  H23B 3979   1.701   0.668   4.589
   38CHL1   C24 3980   1.602   0.485   4.545
   38CHL1  H24A 3981   1.690   0.427   4.579
   38CHL1  H24B 3982   1.510   0.428   4.570
   38CHL1   C25 3983   1.601   0.492   4.393
   38CHL1   H25 3984   1.520   0.558   4.354
   38CHL1   C26 3985   1.726   0.550   4.335
   38CHL1  H26A 3986   1.820   0.497   4.363
   38CHL1  H26B 3987   1.727   0.544   4.224
   38CHL1  H26C 3988   1.735   0.656   4.367
   38CHL1   C27 3989   1.578   0.350   4.350
   38CHL1  H27A 3990   1.578   0.342   4.239
   38CHL1  H27B 3991   1.647   0.273   4.390
   38CHL1  H27C 3992   1.478   0.309   4.373
   39CHL1    C3 3993   3.531   1.332   5.950
   39CHL1    H3 3994   3.438   1.343   5.889
   39CHL1    O3 3995   3.512   1.307   6.085
   39CHL1   H3' 3996   3.598   1.272   6.111
   39CHL1    C4 3997   3.614   1.220   5.883
   39CHL1   H4A 3998   3.704   1.206   5.946
   39CHL1   H4B 3999   3.563   1.122   5.892
   39CHL1    C5 4000   3.646   1.247   5.739
   39CHL1    C6 4001   3.604   1.172   5.634
   39CHL1    H6 4002   3.552   1.078   5.655
   39CHL1    C7 4003   3.645   1.200   5.494
   39CHL1   H7A 4004   3.664   1.107   5.436
   39CHL1   H7B 4005   3.560   1.252   5.444
   39CHL1    C8 4006   3.768   1.304   5.476
   39CHL1    H8 4007   3.856   1.247   5.514
   39CHL1   C14 4008   3.790   1.341   5.325
   39CHL1   H14 4009   3.688   1.379   5.300
   39CHL1   C15 4010   3.815   1.235   5.220
   39CHL1  H15A 4011   3.885   1.159   5.260
   39CHL1  H15B 4012   3.718   1.198   5.180
   39CHL1   C16 4013   3.886   1.315   5.108
   39CHL1  H16A 4014   3.990   1.283   5.086
   39CHL1  H16B 4015   3.822   1.308   5.018
   39CHL1   C17 4016   3.879   1.471   5.158
   39CHL1   H17 4017   3.773   1.502   5.151
   39CHL1   C13 4018   3.894   1.457   5.311
   39CHL1   C18 4019   4.031   1.407   5.355
   39CHL1  H18A 4020   4.067   1.315   5.305
   39CHL1  H18B 4021   4.116   1.473   5.325
   39CHL1  H18C 4022   4.043   1.387   5.464
   39CHL1   C12 4023   3.849   1.581   5.390
   39CHL1  H12A 4024   3.922   1.664   5.376
   39CHL1  H12B 4025   3.756   1.615   5.339
   39CHL1   C11 4026   3.817   1.553   5.543
   39CHL1  H11A 4027   3.923   1.546   5.578
   39CHL1  H11B 4028   3.783   1.648   5.589
   39CHL1    C9 4029   3.725   1.428   5.567
   39CHL1    H9 4030   3.622   1.457   5.537
   39CHL1   C10 4031   3.716   1.383   5.716
   39CHL1   C19 4032   3.860   1.369   5.785
   39CHL1  H19A 4033   3.918   1.284   5.744
   39CHL1  H19B 4034   3.927   1.457   5.777
   39CHL1  H19C 4035   3.856   1.360   5.896
   39CHL1    C1 4036   3.644   1.493   5.794
   39CHL1   H1A 4037   3.702   1.588   5.794
   39CHL1   H1B 4038   3.555   1.518   5.733
   39CHL1    C2 4039   3.597   1.468   5.943
   39CHL1   H2A 4040   3.533   1.544   5.993
   39CHL1   H2B 4041   3.684   1.459   6.012
   39CHL1   C20 4042   3.973   1.566   5.078
   39CHL1   H20 4043   4.009   1.644   5.148
   39CHL1   C21 4044   3.878   1.638   4.969
   39CHL1  H21A 4045   3.808   1.566   4.920
   39CHL1  H21B 4046   3.943   1.693   4.898
   39CHL1  H21C 4047   3.812   1.706   5.028
   39CHL1   C22 4048   4.096   1.496   5.018
   39CHL1  H22A 4049   4.152   1.434   5.091
   39CHL1  H22B 4050   4.075   1.423   4.938
   39CHL1   C23 4051   4.194   1.598   4.988
   39CHL1  H23A 4052   4.161   1.674   4.914
   39CHL1  H23B 4053   4.208   1.652   5.083
   39CHL1   C24 4054   4.334   1.541   4.946
   39CHL1  H24A 4055   4.404   1.626   4.956
   39CHL1  H24B 4056   4.359   1.459   5.016
   39CHL1   C25 4057   4.326   1.487   4.801
   39CHL1   H25 4058   4.240   1.417   4.814
   39CHL1   C26 4059   4.283   1.581   4.694
   39CHL1  H26A 4060   4.192   1.643   4.707
   39CHL1  H26B 4061   4.368   1.642   4.657
   39CHL1  H26C 4062   4.258   1.521   4.604
   39CHL1   C27 4063   4.457   1.413   4.763
   39CHL1  H27A 4064   4.456   1.374   4.659
   39CHL1  H27B 4065   4.537   1.487   4.786
   39CHL1  H27C 4066   4.478   1.327   4.831
   40CHL1    C3 4067   3.314   4.127   5.833
   40CHL1    H3 4068   3.268   4.228   5.846
   40CHL1    O3 4069   3.332   4.083   5.957
   40CHL1   H3' 4070   3.365   3.993   5.948
   40CHL1    C4 4071   3.248   4.014   5.754
   40CHL1   H4A 4072   3.308   3.921   5.747
   40CHL1   H4B 4073   3.150   3.986   5.799
   40CHL1    C5 4074   3.225   4.056   5.604
   40CHL1    C6 4075   3.106   4.074   5.544
   40CHL1    H6 4076   3.015   4.055   5.604
   40CHL1    C7 4077   3.078   4.113   5.403
   40CHL1   H7A 4078   2.989   4.061   5.363
   40CHL1   H7B 4079   3.054   4.221   5.403
   40CHL1    C8 4080   3.209   4.103   5.314
   40CHL1    H8 4081   3.213   3.999   5.275
   40CHL1   C14 4082   3.181   4.192   5.189
   40CHL1   H14 4083   3.166   4.294   5.229
   40CHL1   C15 4084   3.059   4.172   5.093
   40CHL1  H15A 4085   3.035   4.065   5.076
   40CHL1  H15B 4086   2.969   4.212   5.146
   40CHL1   C16 4087   3.089   4.244   4.963
   40CHL1  H16A 4088   3.080   4.175   4.877
   40CHL1  H16B 4089   3.023   4.333   4.954
   40CHL1   C17 4090   3.241   4.287   4.981
   40CHL1   H17 4091   3.242   4.391   5.019
   40CHL1   C13 4092   3.304   4.204   5.096
   40CHL1   C18 4093   3.346   4.066   5.042
   40CHL1  H18A 4094   3.258   4.018   4.995
   40CHL1  H18B 4095   3.430   4.067   4.968
   40CHL1  H18C 4096   3.373   3.990   5.118
   40CHL1   C12 4097   3.419   4.270   5.178
   40CHL1  H12A 4098   3.511   4.284   5.118
   40CHL1  H12B 4099   3.391   4.375   5.204
   40CHL1   C11 4100   3.452   4.189   5.305
   40CHL1  H11A 4101   3.490   4.089   5.276
   40CHL1  H11B 4102   3.538   4.235   5.360
   40CHL1    C9 4103   3.327   4.164   5.389
   40CHL1    H9 4104   3.298   4.261   5.436
   40CHL1   C10 4105   3.352   4.088   5.531
   40CHL1   C19 4106   3.432   3.956   5.497
   40CHL1  H19A 4107   3.533   3.976   5.456
   40CHL1  H19B 4108   3.434   3.892   5.589
   40CHL1  H19C 4109   3.381   3.901   5.415
   40CHL1    C1 4110   3.438   4.182   5.618
   40CHL1   H1A 4111   3.535   4.200   5.567
   40CHL1   H1B 4112   3.377   4.274   5.629
   40CHL1    C2 4113   3.452   4.135   5.767
   40CHL1   H2A 4114   3.519   4.205   5.821
   40CHL1   H2B 4115   3.502   4.036   5.766
   40CHL1   C20 4116   3.304   4.293   4.843
   40CHL1   H20 4117   3.306   4.193   4.796
   40CHL1   C21 4118   3.455   4.330   4.848
   40CHL1  H21A 4119   3.520   4.272   4.918
   40CHL1  H21B 4120   3.477   4.436   4.874
   40CHL1  H21C 4121   3.497   4.312   4.747
   40CHL1   C22 4122   3.229   4.393   4.754
   40CHL1  H22A 4123   3.119   4.381   4.758
   40CHL1  H22B 4124   3.266   4.489   4.795
   40CHL1   C23 4125   3.266   4.388   4.606
   40CHL1  H23A 4126   3.377   4.391   4.593
   40CHL1  H23B 4127   3.234   4.290   4.563
   40CHL1   C24 4128   3.204   4.497   4.529
   40CHL1  H24A 4129   3.194   4.594   4.583
   40CHL1  H24B 4130   3.265   4.518   4.438
   40CHL1   C25 4131   3.056   4.478   4.486
   40CHL1   H25 4132   2.984   4.448   4.565
   40CHL1   C26 4133   2.986   4.607   4.437
   40CHL1  H26A 4134   3.028   4.630   4.336
   40CHL1  H26B 4135   2.876   4.598   4.422
   40CHL1  H26C 4136   3.012   4.695   4.498
   40CHL1   C27 4137   3.044   4.366   4.384
   40CHL1  H27A 4138   3.079   4.268   4.422
   40CHL1  H27B 4139   2.942   4.344   4.348
   40CHL1  H27C 4140   3.107   4.387   4.295
   41CHL1    C3 4141   0.585   4.856   6.047
   41CHL1    H3 4142   0.479   4.886   6.041
   41CHL1    O3 4143   0.640   4.852   6.175
   41CHL1   H3' 4144   0.613   4.934   6.218
   41CHL1    C4 4145   0.577   4.709   5.992
   41CHL1   H4A 4146   0.666   4.643   6.008
   41CHL1   H4B 4147   0.505   4.665   6.064
   41CHL1    C5 4148   0.533   4.708   5.848
   41CHL1    C6 4149   0.422   4.639   5.812
   41CHL1    H6 4150   0.382   4.564   5.882
   41CHL1    C7 4151   0.356   4.642   5.677
   41CHL1   H7A 4152   0.323   4.539   5.649
   41CHL1   H7B 4153   0.266   4.705   5.694
   41CHL1    C8 4154   0.449   4.696   5.563
   41CHL1    H8 4155   0.521   4.613   5.546
   41CHL1   C14 4156   0.371   4.726   5.439
   41CHL1   H14 4157   0.302   4.802   5.482
   41CHL1   C15 4158   0.275   4.618   5.384
   41CHL1  H15A 4159   0.317   4.516   5.382
   41CHL1  H15B 4160   0.175   4.612   5.433
   41CHL1   C16 4161   0.250   4.663   5.237
   41CHL1  H16A 4162   0.296   4.590   5.167
   41CHL1  H16B 4163   0.142   4.678   5.211
   41CHL1   C17 4164   0.336   4.796   5.210
   41CHL1   H17 4165   0.273   4.880   5.246
   41CHL1   C13 4166   0.450   4.784   5.319
   41CHL1   C18 4167   0.554   4.680   5.266
   41CHL1  H18A 4168   0.504   4.596   5.214
   41CHL1  H18B 4169   0.621   4.739   5.199
   41CHL1  H18C 4170   0.618   4.643   5.349
   41CHL1   C12 4171   0.510   4.910   5.366
   41CHL1  H12A 4172   0.574   4.958   5.289
   41CHL1  H12B 4173   0.423   4.976   5.385
   41CHL1   C11 4174   0.593   4.893   5.496
   41CHL1  H11A 4175   0.680   4.836   5.454
   41CHL1  H11B 4176   0.632   4.992   5.529
   41CHL1    C9 4177   0.523   4.820   5.613
   41CHL1    H9 4178   0.437   4.888   5.632
   41CHL1   C10 4179   0.599   4.805   5.752
   41CHL1   C19 4180   0.730   4.738   5.717
   41CHL1  H19A 4181   0.806   4.717   5.795
   41CHL1  H19B 4182   0.718   4.646   5.655
   41CHL1  H19C 4183   0.784   4.807   5.649
   41CHL1    C1 4184   0.613   4.946   5.814
   41CHL1   H1A 4185   0.695   4.985   5.749
   41CHL1   H1B 4186   0.525   5.012   5.802
   41CHL1    C2 4187   0.668   4.950   5.962
   41CHL1   H2A 4188   0.675   5.056   5.995
   41CHL1   H2B 4189   0.763   4.893   5.963
   41CHL1   C20 4190   0.373   4.818   5.062
   41CHL1   H20 4191   0.444   4.737   5.033
   41CHL1   C21 4192   0.428   4.966   5.030
   41CHL1  H21A 4193   0.348   5.041   5.048
   41CHL1  H21B 4194   0.446   4.973   4.921
   41CHL1  H21C 4195   0.521   4.986   5.088
   41CHL1   C22 4196   0.256   4.790   4.966
   41CHL1  H22A 4197   0.179   4.714   4.992
   41CHL1  H22B 4198   0.206   4.890   4.962
   41CHL1   C23 4199   0.296   4.759   4.820
   41CHL1  H23A 4200   0.202   4.781   4.765
   41CHL1  H23B 4201   0.357   4.837   4.768
   41CHL1   C24 4202   0.354   4.619   4.781
   41CHL1  H24A 4203   0.373   4.612   4.671
   41CHL1  H24B 4204   0.456   4.602   4.822
   41CHL1   C25 4205   0.254   4.509   4.816
   41CHL1   H25 4206   0.251   4.499   4.927
   41CHL1   C26 4207   0.109   4.525   4.757
   41CHL1  H26A 4208   0.075   4.420   4.750
   41CHL1  H26B 4209   0.034   4.588   4.811
   41CHL1  H26C 4210   0.121   4.571   4.657
   41CHL1   C27 4211   0.307   4.371   4.762
   41CHL1  H27A 4212   0.241   4.283   4.754
   41CHL1  H27B 4213   0.345   4.388   4.659
   41CHL1  H27C 4214   0.378   4.331   4.837
   42CHL1    C3 4215   5.450   3.651   6.139
   42CHL1    H3 4216   5.346   3.670   6.104
   42CHL1    O3 4217   5.467   3.680   6.279
   42CHL1   H3' 4218   5.544   3.630   6.309
   42CHL1    C4 4219   5.498   3.511   6.099
   42CHL1   H4A 4220   5.601   3.498   6.138
   42CHL1   H4B 4221   5.432   3.443   6.156
   42CHL1    C5 4222   5.496   3.489   5.954
   42CHL1    C6 4223   5.412   3.398   5.897
   42CHL1    H6 4224   5.352   3.353   5.978
   42CHL1    C7 4225   5.387   3.370   5.753
   42CHL1   H7A 4226   5.377   3.264   5.721
   42CHL1   H7B 4227   5.293   3.425   5.729
   42CHL1    C8 4228   5.486   3.442   5.666
   42CHL1    H8 4229   5.584   3.390   5.673
   42CHL1   C14 4230   5.421   3.465   5.527
   42CHL1   H14 4231   5.335   3.533   5.548
   42CHL1   C15 4232   5.353   3.356   5.452
   42CHL1  H15A 4233   5.417   3.265   5.444
   42CHL1  H15B 4234   5.255   3.335   5.500
   42CHL1   C16 4235   5.344   3.403   5.300
   42CHL1  H16A 4236   5.393   3.331   5.231
   42CHL1  H16B 4237   5.238   3.407   5.268
   42CHL1   C17 4238   5.420   3.535   5.294
   42CHL1   H17 4239   5.348   3.619   5.311
   42CHL1   C13 4240   5.509   3.532   5.420
   42CHL1   C18 4241   5.634   3.451   5.392
   42CHL1  H18A 4242   5.705   3.514   5.334
   42CHL1  H18B 4243   5.689   3.421   5.484
   42CHL1  H18C 4244   5.615   3.357   5.335
   42CHL1   C12 4245   5.547   3.675   5.474
   42CHL1  H12A 4246   5.613   3.743   5.416
   42CHL1  H12B 4247   5.451   3.730   5.487
   42CHL1   C11 4248   5.617   3.665   5.614
   42CHL1  H11A 4249   5.714   3.615   5.593
   42CHL1  H11B 4250   5.620   3.768   5.654
   42CHL1    C9 4251   5.529   3.583   5.712
   42CHL1    H9 4252   5.433   3.638   5.712
   42CHL1   C10 4253   5.576   3.582   5.862
   42CHL1   C19 4254   5.735   3.564   5.865
   42CHL1  H19A 4255   5.773   3.571   5.969
   42CHL1  H19B 4256   5.785   3.475   5.820
   42CHL1  H19C 4257   5.790   3.647   5.816
   42CHL1    C1 4258   5.538   3.726   5.911
   42CHL1   H1A 4259   5.598   3.802   5.855
   42CHL1   H1B 4260   5.435   3.748   5.877
   42CHL1    C2 4261   5.542   3.753   6.064
   42CHL1   H2A 4262   5.508   3.854   6.097
   42CHL1   H2B 4263   5.641   3.729   6.108
   42CHL1   C20 4264   5.471   3.567   5.153
   42CHL1   H20 4265   5.545   3.486   5.133
   42CHL1   C21 4266   5.548   3.698   5.151
   42CHL1  H21A 4267   5.484   3.778   5.194
   42CHL1  H21B 4268   5.583   3.725   5.049
   42CHL1  H21C 4269   5.644   3.680   5.204
   42CHL1   C22 4270   5.353   3.566   5.053
   42CHL1  H22A 4271   5.333   3.457   5.043
   42CHL1  H22B 4272   5.267   3.628   5.088
   42CHL1   C23 4273   5.397   3.610   4.909
   42CHL1  H23A 4274   5.392   3.721   4.914
   42CHL1  H23B 4275   5.502   3.582   4.887
   42CHL1   C24 4276   5.287   3.577   4.807
   42CHL1  H24A 4277   5.283   3.466   4.802
   42CHL1  H24B 4278   5.183   3.609   4.830
   42CHL1   C25 4279   5.324   3.644   4.671
   42CHL1   H25 4280   5.412   3.590   4.630
   42CHL1   C26 4281   5.202   3.627   4.571
   42CHL1  H26A 4282   5.113   3.687   4.600
   42CHL1  H26B 4283   5.230   3.650   4.466
   42CHL1  H26C 4284   5.167   3.521   4.568
   42CHL1   C27 4285   5.355   3.793   4.671
   42CHL1  H27A 4286   5.452   3.809   4.723
   42CHL1  H27B 4287   5.376   3.830   4.568
   42CHL1  H27C 4288   5.273   3.847   4.722
   43CHL1    C3 4289   6.358   1.617   5.996
   43CHL1    H3 4290   6.272   1.579   5.937
   43CHL1    O3 4291   6.350   1.567   6.124
   43CHL1   H3' 4292   6.422   1.608   6.172
   43CHL1    C4 4293   6.490   1.572   5.925
   43CHL1   H4A 4294   6.583   1.608   5.975
   43CHL1   H4B 4295   6.502   1.462   5.922
   43CHL1    C5 4296   6.491   1.630   5.787
   43CHL1    C6 4297   6.492   1.552   5.682
   43CHL1    H6 4298   6.506   1.445   5.702
   43CHL1    C7 4299   6.488   1.603   5.538
   43CHL1   H7A 4300   6.540   1.531   5.470
   43CHL1   H7B 4301   6.379   1.607   5.516
   43CHL1    C8 4302   6.556   1.744   5.531
   43CHL1    H8 4303   6.666   1.736   5.545
   43CHL1   C14 4304   6.538   1.809   5.390
   43CHL1   H14 4305   6.428   1.807   5.376
   43CHL1   C15 4306   6.600   1.748   5.264
   43CHL1  H15A 4307   6.709   1.736   5.282
   43CHL1  H15B 4308   6.557   1.653   5.227
   43CHL1   C16 4309   6.588   1.869   5.154
   43CHL1  H16A 4310   6.681   1.887   5.097
   43CHL1  H16B 4311   6.511   1.851   5.076
   43CHL1   C17 4312   6.536   1.992   5.238
   43CHL1   H17 4313   6.425   1.981   5.241
   43CHL1   C13 4314   6.575   1.957   5.382
   43CHL1   C18 4315   6.726   1.972   5.394
   43CHL1  H18A 4316   6.788   1.932   5.312
   43CHL1  H18B 4317   6.752   2.080   5.389
   43CHL1  H18C 4318   6.765   1.929   5.489
   43CHL1   C12 4319   6.508   2.032   5.496
   43CHL1  H12A 4320   6.543   2.137   5.500
   43CHL1  H12B 4321   6.398   2.040   5.483
   43CHL1   C11 4322   6.547   1.977   5.629
   43CHL1  H11A 4323   6.653   1.999   5.653
   43CHL1  H11B 4324   6.482   2.039   5.695
   43CHL1    C9 4325   6.496   1.837   5.639
   43CHL1    H9 4326   6.387   1.844   5.620
   43CHL1   C10 4327   6.501   1.781   5.788
   43CHL1   C19 4328   6.631   1.849   5.855
   43CHL1  H19A 4329   6.656   1.795   5.950
   43CHL1  H19B 4330   6.718   1.832   5.788
   43CHL1  H19C 4331   6.611   1.956   5.876
   43CHL1    C1 4332   6.374   1.829   5.856
   43CHL1   H1A 4333   6.374   1.939   5.873
   43CHL1   H1B 4334   6.280   1.825   5.796
   43CHL1    C2 4335   6.359   1.769   6.000
   43CHL1   H2A 4336   6.267   1.813   6.043
   43CHL1   H2B 4337   6.445   1.799   6.064
   43CHL1   C20 4338   6.576   2.120   5.166
   43CHL1   H20 4339   6.685   2.130   5.152
   43CHL1   C21 4340   6.522   2.246   5.244
   43CHL1  H21A 4341   6.557   2.246   5.349
   43CHL1  H21B 4342   6.411   2.244   5.255
   43CHL1  H21C 4343   6.566   2.338   5.200
   43CHL1   C22 4344   6.519   2.126   5.019
   43CHL1  H22A 4345   6.529   2.030   4.964
   43CHL1  H22B 4346   6.411   2.148   5.033
   43CHL1   C23 4347   6.581   2.236   4.932
   43CHL1  H23A 4348   6.582   2.332   4.987
   43CHL1  H23B 4349   6.687   2.219   4.904
   43CHL1   C24 4350   6.497   2.252   4.802
   43CHL1  H24A 4351   6.395   2.293   4.819
   43CHL1  H24B 4352   6.552   2.327   4.740
   43CHL1   C25 4353   6.481   2.125   4.722
   43CHL1   H25 4354   6.442   2.052   4.797
   43CHL1   C26 4355   6.373   2.141   4.608
   43CHL1  H26A 4356   6.396   2.223   4.537
   43CHL1  H26B 4357   6.361   2.043   4.557
   43CHL1  H26C 4358   6.277   2.173   4.655
   43CHL1   C27 4359   6.611   2.078   4.667
   43CHL1  H27A 4360   6.668   2.019   4.741
   43CHL1  H27B 4361   6.581   2.006   4.587
   43CHL1  H27C 4362   6.671   2.159   4.620
   44CHL1    C3 4363   6.713   2.718   6.020
   44CHL1    H3 4364   6.655   2.629   5.987
   44CHL1    O3 4365   6.753   2.690   6.155
   44CHL1   H3' 4366   6.768   2.779   6.186
   44CHL1    C4 4367   6.840   2.722   5.936
   44CHL1   H4A 4368   0.012   2.803   5.983
   44CHL1   H4B 4369   0.026   2.638   5.941
   44CHL1    C5 4370   6.815   2.771   5.796
   44CHL1    C6 4371   6.866   2.710   5.689
   44CHL1    H6 4372   0.055   2.632   5.701
   44CHL1    C7 4373   6.854   2.768   5.550
   44CHL1   H7A 4374   0.067   2.769   5.502
   44CHL1   H7B 4375   6.795   2.692   5.494
   44CHL1    C8 4376   6.794   2.904   5.537
   44CHL1    H8 4377   6.878   2.971   5.565
   44CHL1   C14 4378   6.732   2.926   5.401
   44CHL1   H14 4379   6.644   2.858   5.394
   44CHL1   C15 4380   6.825   2.894   5.282
   44CHL1  H15A 4381   0.044   2.924   5.298
   44CHL1  H15B 4382   6.830   2.785   5.265
   44CHL1   C16 4383   6.751   2.961   5.167
   44CHL1  H16A 4384   6.825   3.027   5.117
   44CHL1  H16B 4385   6.709   2.900   5.084
   44CHL1   C17 4386   6.635   3.046   5.234
   44CHL1   H17 4387   6.552   2.972   5.234
   44CHL1   C13 4388   6.672   3.065   5.382
   44CHL1   C18 4389   6.791   3.167   5.387
   44CHL1  H18A 4390   6.756   3.267   5.354
   44CHL1  H18B 4391   6.835   3.183   5.488
   44CHL1  H18C 4392   6.872   3.129   5.322
   44CHL1   C12 4393   6.562   3.090   5.483
   44CHL1  H12A 4394   6.520   3.192   5.472
   44CHL1  H12B 4395   6.481   3.017   5.458
   44CHL1   C11 4396   6.615   3.069   5.631
   44CHL1  H11A 4397   6.688   3.151   5.648
   44CHL1  H11B 4398   6.532   3.085   5.702
   44CHL1    C9 4399   6.684   2.931   5.656
   44CHL1    H9 4400   6.603   2.860   5.629
   44CHL1   C10 4401   6.731   2.900   5.796
   44CHL1   C19 4402   6.818   3.009   5.851
   44CHL1  H19A 4403   0.029   3.006   5.800
   44CHL1  H19B 4404   6.770   3.110   5.847
   44CHL1  H19C 4405   6.846   2.998   5.958
   44CHL1    C1 4406   6.603   2.886   5.876
   44CHL1   H1A 4407   6.554   2.985   5.878
   44CHL1   H1B 4408   6.525   2.820   5.831
   44CHL1    C2 4409   6.630   2.846   6.024
   44CHL1   H2A 4410   6.532   2.826   6.074
   44CHL1   H2B 4411   6.688   2.929   6.069
   44CHL1   C20 4412   6.595   3.166   5.148
   44CHL1   H20 4413   6.684   3.232   5.138
   44CHL1   C21 4414   6.478   3.251   5.210
   44CHL1  H21A 4415   6.499   3.318   5.296
   44CHL1  H21B 4416   6.402   3.175   5.238
   44CHL1  H21C 4417   6.435   3.319   5.133
   44CHL1   C22 4418   6.561   3.116   5.003
   44CHL1  H22A 4419   6.654   3.069   4.965
   44CHL1  H22B 4420   6.474   3.047   5.003
   44CHL1   C23 4421   6.513   3.220   4.901
   44CHL1  H23A 4422   6.472   3.176   4.807
   44CHL1  H23B 4423   6.423   3.271   4.942
   44CHL1   C24 4424   6.629   3.324   4.879
   44CHL1  H24A 4425   6.644   3.375   4.976
   44CHL1  H24B 4426   6.720   3.266   4.851
   44CHL1   C25 4427   6.616   3.430   4.775
   44CHL1   H25 4428   6.521   3.488   4.779
   44CHL1   C26 4429   6.725   3.538   4.801
   44CHL1  H26A 4430   6.701   3.627   4.738
   44CHL1  H26B 4431   6.728   3.562   4.910
   44CHL1  H26C 4432   6.826   3.499   4.777
   44CHL1   C27 4433   6.632   3.377   4.636
   44CHL1  H27A 4434   6.715   3.305   4.620
   44CHL1  H27B 4435   6.539   3.335   4.593
   44CHL1  H27C 4436   6.659   3.467   4.575
   45CHL1    C3 4437   0.009   4.027   5.983
   45CHL1    H3 4438   0.107   3.979   5.964
   45CHL1    O3 4439   6.874   4.033   6.128
   45CHL1   H3' 4440   0.069   4.058   6.171
   45CHL1    C4 4441   0.012   4.167   5.926
   45CHL1   H4A 4442   6.812   4.227   5.960
   45CHL1   H4B 4443   0.099   4.208   5.980
   45CHL1    C5 4444   0.018   4.183   5.777
   45CHL1    C6 4445   0.117   4.242   5.706
   45CHL1    H6 4446   0.186   4.299   5.770
   45CHL1    C7 4447   0.133   4.263   5.558
   45CHL1   H7A 4448   0.159   4.370   5.542
   45CHL1   H7B 4449   0.208   4.189   5.524
   45CHL1    C8 4450   0.003   4.226   5.485
   45CHL1    H8 4451   6.820   4.311   5.497
   45CHL1   C14 4452   0.037   4.201   5.337
   45CHL1   H14 4453   0.105   4.114   5.334
   45CHL1   C15 4454   0.107   4.315   5.256
   45CHL1  H15A 4455   0.074   4.415   5.290
   45CHL1  H15B 4456   0.215   4.311   5.280
   45CHL1   C16 4457   0.070   4.281   5.118
   45CHL1  H16A 4458   0.014   4.363   5.068
   45CHL1  H16B 4459   0.155   4.252   5.054
   45CHL1   C17 4460   6.861   4.161   5.112
   45CHL1   H17 4461   0.037   4.070   5.101
   45CHL1   C13 4462   6.804   4.158   5.251
   45CHL1   C18 4463   6.694   4.261   5.268
   45CHL1  H18A 4464   6.598   4.236   5.219
   45CHL1  H18B 4465   6.666   4.274   5.375
   45CHL1  H18C 4466   6.720   4.355   5.214
   45CHL1   C12 4467   6.754   4.014   5.308
   45CHL1  H12A 4468   6.664   3.967   5.262
   45CHL1  H12B 4469   6.835   3.940   5.295
   45CHL1   C11 4470   6.722   4.023   5.460
   45CHL1  H11A 4471   6.627   4.081   5.463
   45CHL1  H11B 4472   6.703   3.920   5.496
   45CHL1    C9 4473   6.836   4.096   5.548
   45CHL1    H9 4474   0.034   4.026   5.537
   45CHL1   C10 4475   6.798   4.107   5.698
   45CHL1   C19 4476   6.665   4.183   5.716
   45CHL1  H19A 4477   6.639   4.201   5.822
   45CHL1  H19B 4478   6.676   4.287   5.679
   45CHL1  H19C 4479   6.578   4.121   5.684
   45CHL1    C1 4480   6.792   3.966   5.764
   45CHL1   H1A 4481   6.714   3.907   5.712
   45CHL1   H1B 4482   0.001   3.915   5.741
   45CHL1    C2 4483   6.780   3.952   5.915
   45CHL1   H2A 4484   6.783   3.845   5.946
   45CHL1   H2B 4485   6.682   3.989   5.952
   45CHL1   C20 4486   6.771   4.145   4.989
   45CHL1   H20 4487   6.691   4.222   4.992
   45CHL1   C21 4488   6.702   4.004   4.999
   45CHL1  H21A 4489   6.681   3.968   4.896
   45CHL1  H21B 4490   6.608   4.011   5.059
   45CHL1  H21C 4491   6.768   3.922   5.034
   45CHL1   C22 4492   6.855   4.153   4.857
   45CHL1  H22A 4493   0.046   4.231   4.875
   45CHL1  H22B 4494   0.016   4.053   4.857
   45CHL1   C23 4495   6.768   4.184   4.735
   45CHL1  H23A 4496   6.673   4.127   4.736
   45CHL1  H23B 4497   6.741   4.292   4.738
   45CHL1   C24 4498   6.851   4.154   4.613
   45CHL1  H24A 4499   0.068   4.192   4.619
   45CHL1  H24B 4500   6.860   4.045   4.591
   45CHL1   C25 4501   6.778   4.205   4.484
   45CHL1   H25 4502   6.670   4.180   4.498
   45CHL1   C26 4503   6.781   4.359   4.464
   45CHL1  H26A 4504   6.726   4.385   4.372
   45CHL1  H26B 4505   6.755   4.419   4.554
   45CHL1  H26C 4506   6.882   4.396   4.436
   45CHL1   C27 4507   6.830   4.134   4.352
   45CHL1  H27A 4508   6.762   4.174   4.274
   45CHL1  H27B 4509   0.051   4.151   4.331
   45CHL1  H27C 4510   6.809   4.025   4.355
   46CHL1    C3 4511   1.818   6.161   5.860
   46CHL1    H3 4512   1.868   6.062   5.869
   46CHL1    O3 4513   1.763   6.201   5.985
   46CHL1   H3' 4514   1.778   6.296   5.981
   46CHL1    C4 4515   1.937   6.252   5.825
   46CHL1   H4A 4516   1.890   6.353   5.830
   46CHL1   H4B 4517   2.010   6.240   5.908
   46CHL1    C5 4518   1.998   6.219   5.688
   46CHL1    C6 4519   2.127   6.187   5.673
   46CHL1    H6 4520   2.194   6.190   5.760
   46CHL1    C7 4521   2.194   6.168   5.539
   46CHL1   H7A 4522   2.291   6.222   5.536
   46CHL1   H7B 4523   2.227   6.061   5.541
   46CHL1    C8 4524   2.110   6.196   5.417
   46CHL1    H8 4525   2.123   6.304   5.395
   46CHL1   C14 4526   2.167   6.140   5.292
   46CHL1   H14 4527   2.147   6.032   5.309
   46CHL1   C15 4528   2.317   6.161   5.265
   46CHL1  H15A 4529   2.351   6.255   5.314
   46CHL1  H15B 4530   2.370   6.068   5.295
   46CHL1   C16 4531   2.331   6.169   5.111
   46CHL1  H16A 4532   2.362   6.274   5.095
   46CHL1  H16B 4533   2.418   6.105   5.085
   46CHL1   C17 4534   2.189   6.130   5.051
   46CHL1   H17 4535   2.196   6.019   5.041
   46CHL1   C13 4536   2.091   6.170   5.161
   46CHL1   C18 4537   2.075   6.324   5.139
   46CHL1  H18A 4538   2.008   6.375   5.211
   46CHL1  H18B 4539   2.174   6.374   5.136
   46CHL1  H18C 4540   2.035   6.343   5.037
   46CHL1   C12 4541   1.958   6.096   5.180
   46CHL1  H12A 4542   1.883   6.107   5.098
   46CHL1  H12B 4543   1.957   5.989   5.208
   46CHL1   C11 4544   1.875   6.156   5.305
   46CHL1  H11A 4545   1.855   6.261   5.277
   46CHL1  H11B 4546   1.781   6.096   5.304
   46CHL1    C9 4547   1.963   6.156   5.435
   46CHL1    H9 4548   1.961   6.047   5.458
   46CHL1   C10 4549   1.899   6.224   5.561
   46CHL1   C19 4550   1.859   6.375   5.527
   46CHL1  H19A 4551   1.839   6.439   5.616
   46CHL1  H19B 4552   1.953   6.421   5.489
   46CHL1  H19C 4553   1.769   6.387   5.464
   46CHL1    C1 4554   1.777   6.135   5.610
   46CHL1   H1A 4555   1.697   6.144   5.533
   46CHL1   H1B 4556   1.818   6.032   5.605
   46CHL1    C2 4557   1.716   6.163   5.747
   46CHL1   H2A 4558   1.631   6.096   5.773
   46CHL1   H2B 4559   1.673   6.264   5.728
   46CHL1   C20 4560   2.176   6.178   4.902
   46CHL1   H20 4561   2.185   6.289   4.903
   46CHL1   C21 4562   2.037   6.131   4.846
   46CHL1  H21A 4563   1.958   6.191   4.896
   46CHL1  H21B 4564   2.024   6.024   4.873
   46CHL1  H21C 4565   2.014   6.156   4.740
   46CHL1   C22 4566   2.287   6.133   4.807
   46CHL1  H22A 4567   2.367   6.209   4.822
   46CHL1  H22B 4568   2.319   6.028   4.820
   46CHL1   C23 4569   2.248   6.132   4.659
   46CHL1  H23A 4570   2.192   6.037   4.646
   46CHL1  H23B 4571   2.178   6.215   4.635
   46CHL1   C24 4572   2.366   6.155   4.557
   46CHL1  H24A 4573   2.330   6.141   4.453
   46CHL1  H24B 4574   2.388   6.264   4.549
   46CHL1   C25 4575   2.501   6.082   4.581
   46CHL1   H25 4576   2.527   6.097   4.688
   46CHL1   C26 4577   2.502   5.932   4.548
   46CHL1  H26A 4578   2.595   5.873   4.564
   46CHL1  H26B 4579   2.425   5.881   4.611
   46CHL1  H26C 4580   2.455   5.926   4.448
   46CHL1   C27 4581   2.614   6.146   4.502
   46CHL1  H27A 4582   2.622   6.252   4.537
   46CHL1  H27B 4583   2.702   6.087   4.534
   46CHL1  H27C 4584   2.597   6.143   4.392
   47CHL1    C3 4585   3.698   4.730   5.974
   47CHL1    H3 4586   3.724   4.835   6.000
   47CHL1    O3 4587   3.728   4.652   6.088
   47CHL1   H3' 4588   3.699   4.562   6.071
   47CHL1    C4 4589   3.553   4.709   5.919
   47CHL1   H4A 4590   3.522   4.602   5.921
   47CHL1   H4B 4591   3.491   4.754   5.999
   47CHL1    C5 4592   3.523   4.775   5.788
   47CHL1    C6 4593   3.428   4.868   5.778
   47CHL1    H6 4594   3.372   4.900   5.867
   47CHL1    C7 4595   3.388   4.917   5.644
   47CHL1   H7A 4596   3.278   4.926   5.641
   47CHL1   H7B 4597   3.432   5.019   5.637
   47CHL1    C8 4598   3.436   4.823   5.528
   47CHL1    H8 4599   3.377   4.730   5.538
   47CHL1   C14 4600   3.418   4.884   5.394
   47CHL1   H14 4601   3.486   4.972   5.400
   47CHL1   C15 4602   3.286   4.957   5.369
   47CHL1  H15A 4603   3.199   4.905   5.415
   47CHL1  H15B 4604   3.289   5.065   5.395
   47CHL1   C16 4605   3.268   4.963   5.212
   47CHL1  H16A 4606   3.193   4.886   5.184
   47CHL1  H16B 4607   3.237   5.065   5.180
   47CHL1   C17 4608   3.402   4.900   5.154
   47CHL1   H17 4609   3.479   4.980   5.150
   47CHL1   C13 4610   3.449   4.803   5.272
   47CHL1   C18 4611   3.361   4.666   5.264
   47CHL1  H18A 4612   3.389   4.613   5.358
   47CHL1  H18B 4613   3.253   4.693   5.256
   47CHL1  H18C 4614   3.405   4.604   5.184
   47CHL1   C12 4615   3.594   4.772   5.276
   47CHL1  H12A 4616   3.621   4.698   5.197
   47CHL1  H12B 4617   3.643   4.870   5.260
   47CHL1   C11 4618   3.630   4.711   5.415
   47CHL1  H11A 4619   3.578   4.613   5.409
   47CHL1  H11B 4620   3.736   4.679   5.422
   47CHL1    C9 4621   3.584   4.781   5.539
   47CHL1    H9 4622   3.641   4.877   5.538
   47CHL1   C10 4623   3.608   4.717   5.680
   47CHL1   C19 4624   3.572   4.566   5.664
   47CHL1  H19A 4625   3.588   4.516   5.762
   47CHL1  H19B 4626   3.466   4.568   5.632
   47CHL1  H19C 4627   3.629   4.503   5.593
   47CHL1    C1 4628   3.754   4.734   5.724
   47CHL1   H1A 4629   3.827   4.693   5.650
   47CHL1   H1B 4630   3.770   4.844   5.721
   47CHL1    C2 4631   3.789   4.671   5.864
   47CHL1   H2A 4632   3.896   4.685   5.889
   47CHL1   H2B 4633   3.763   4.564   5.852
   47CHL1   C20 4634   3.380   4.833   5.009
   47CHL1   H20 4635   3.333   4.732   5.012
   47CHL1   C21 4636   3.516   4.801   4.943
   47CHL1  H21A 4637   3.550   4.900   4.905
   47CHL1  H21B 4638   3.517   4.737   4.852
   47CHL1  H21C 4639   3.589   4.760   5.016
   47CHL1   C22 4640   3.290   4.922   4.918
   47CHL1  H22A 4641   3.187   4.911   4.959
   47CHL1  H22B 4642   3.321   5.028   4.921
   47CHL1   C23 4643   3.261   4.865   4.774
   47CHL1  H23A 4644   3.360   4.864   4.724
   47CHL1  H23B 4645   3.222   4.762   4.790
   47CHL1   C24 4646   3.166   4.952   4.687
   47CHL1  H24A 4647   3.058   4.929   4.696
   47CHL1  H24B 4648   3.178   5.061   4.706
   47CHL1   C25 4649   3.202   4.941   4.537
   47CHL1   H25 4650   3.186   4.834   4.510
   47CHL1   C26 4651   3.103   5.021   4.442
   47CHL1  H26A 4652   3.004   5.005   4.490
   47CHL1  H26B 4653   3.131   5.129   4.442
   47CHL1  H26C 4654   3.108   4.973   4.342
   47CHL1   C27 4655   3.340   4.987   4.494
   47CHL1  H27A 4656   3.349   4.953   4.388
   47CHL1  H27B 4657   3.357   5.097   4.488
   47CHL1  H27C 4658   3.426   4.931   4.538
   48CHL1    C3 4659   1.351   5.770   6.047
   48CHL1    H3 4660   1.369   5.856   5.979
   48CHL1    O3 4661   1.408   5.796   6.174
   48CHL1   H3' 4662   1.499   5.819   6.154
   48CHL1    C4 4663   1.199   5.735   6.066
   48CHL1   H4A 4664   1.175   5.636   6.110
   48CHL1   H4B 4665   1.154   5.813   6.133
   48CHL1    C5 4666   1.134   5.731   5.926
   48CHL1    C6 4667   1.040   5.814   5.891
   48CHL1    H6 4668   1.000   5.890   5.959
   48CHL1    C7 4669   0.982   5.821   5.752
   48CHL1   H7A 4670   0.871   5.825   5.751
   48CHL1   H7B 4671   1.032   5.904   5.698
   48CHL1    C8 4672   1.007   5.696   5.675
   48CHL1    H8 4673   0.943   5.613   5.712
   48CHL1   C14 4674   0.983   5.730   5.529
   48CHL1   H14 4675   1.062   5.806   5.513
   48CHL1   C15 4676   0.860   5.815   5.493
   48CHL1  H15A 4677   0.771   5.763   5.532
   48CHL1  H15B 4678   0.857   5.921   5.525
   48CHL1   C16 4679   0.849   5.792   5.342
   48CHL1  H16A 4680   0.749   5.757   5.309
   48CHL1  H16B 4681   0.875   5.876   5.274
   48CHL1   C17 4682   0.970   5.691   5.299
   48CHL1   H17 4683   1.045   5.768   5.271
   48CHL1   C13 4684   1.011   5.618   5.431
   48CHL1   C18 4685   0.913   5.504   5.461
   48CHL1  H18A 4686   0.946   5.460   5.557
   48CHL1  H18B 4687   0.812   5.542   5.484
   48CHL1  H18C 4688   0.911   5.422   5.386
   48CHL1   C12 4689   1.162   5.577   5.445
   48CHL1  H12A 4690   1.178   5.481   5.391
   48CHL1  H12B 4691   1.230   5.648   5.393
   48CHL1   C11 4692   1.201   5.542   5.589
   48CHL1  H11A 4693   1.148   5.451   5.623
   48CHL1  H11B 4694   1.310   5.521   5.590
   48CHL1    C9 4695   1.159   5.656   5.689
   48CHL1    H9 4696   1.210   5.752   5.668
   48CHL1   C10 4697   1.200   5.626   5.835
   48CHL1   C19 4698   1.138   5.493   5.880
   48CHL1  H19A 4699   1.161   5.466   5.985
   48CHL1  H19B 4700   1.027   5.489   5.882
   48CHL1  H19C 4701   1.182   5.410   5.821
   48CHL1    C1 4702   1.357   5.612   5.849
   48CHL1   H1A 4703   1.392   5.513   5.814
   48CHL1   H1B 4704   1.402   5.676   5.770
   48CHL1    C2 4705   1.413   5.647   5.987
   48CHL1   H2A 4706   1.522   5.661   5.973
   48CHL1   H2B 4707   1.391   5.563   6.057
   48CHL1   C20 4708   0.948   5.603   5.173
   48CHL1   H20 4709   0.898   5.509   5.203
   48CHL1   C21 4710   1.094   5.568   5.129
   48CHL1  H21A 4711   1.167   5.649   5.147
   48CHL1  H21B 4712   1.127   5.480   5.189
   48CHL1  H21C 4713   1.090   5.536   5.022
   48CHL1   C22 4714   0.871   5.658   5.053
   48CHL1  H22A 4715   0.894   5.765   5.032
   48CHL1  H22B 4716   0.914   5.600   4.969
   48CHL1   C23 4717   0.715   5.638   5.056
   48CHL1  H23A 4718   0.672   5.652   5.157
   48CHL1  H23B 4719   0.668   5.709   4.984
   48CHL1   C24 4720   0.679   5.487   5.025
   48CHL1  H24A 4721   0.708   5.452   4.924
   48CHL1  H24B 4722   0.737   5.422   5.093
   48CHL1   C25 4723   0.523   5.458   5.044
   48CHL1   H25 4724   0.491   5.492   5.145
   48CHL1   C26 4725   0.430   5.525   4.941
   48CHL1  H26A 4726   0.324   5.504   4.967
   48CHL1  H26B 4727   0.444   5.634   4.957
   48CHL1  H26C 4728   0.453   5.494   4.836
   48CHL1   C27 4729   0.509   5.309   5.042
   48CHL1  H27A 4730   0.550   5.260   4.951
   48CHL1  H27B 4731   0.564   5.259   5.125
   48CHL1  H27C 4732   0.403   5.278   5.060
   49CHL1    C3 4733   4.151   4.374   2.845
   49CHL1    H3 4734   4.226   4.293   2.864
   49CHL1    O3 4735   4.143   4.404   2.701
   49CHL1   H3' 4736   4.232   4.438   2.686
   49CHL1    C4 4737   4.015   4.340   2.901
   49CHL1   H4A 4738   3.954   4.430   2.878
   49CHL1   H4B 4739   3.980   4.253   2.841
   49CHL1    C5 4740   4.001   4.313   3.050
   49CHL1    C6 4741   3.946   4.197   3.097
   49CHL1    H6 4742   3.923   4.123   3.020
   49CHL1    C7 4743   3.940   4.164   3.245
   49CHL1   H7A 4744   3.843   4.121   3.276
   49CHL1   H7B 4745   4.027   4.102   3.275
   49CHL1    C8 4746   3.977   4.288   3.339
   49CHL1    H8 4747   3.886   4.353   3.337
   49CHL1   C14 4748   4.007   4.246   3.477
   49CHL1   H14 4749   4.099   4.184   3.471
   49CHL1   C15 4750   3.905   4.154   3.548
   49CHL1  H15A 4751   3.799   4.183   3.532
   49CHL1  H15B 4752   3.917   4.046   3.525
   49CHL1   C16 4753   3.938   4.169   3.699
   49CHL1  H16A 4754   3.847   4.219   3.739
   49CHL1  H16B 4755   3.971   4.074   3.746
   49CHL1   C17 4756   4.061   4.272   3.697
   49CHL1   H17 4757   4.157   4.215   3.695
   49CHL1   C13 4758   4.049   4.356   3.577
   49CHL1   C18 4759   3.932   4.458   3.589
   49CHL1  H18A 4760   3.901   4.505   3.494
   49CHL1  H18B 4761   3.848   4.411   3.644
   49CHL1  H18C 4762   3.971   4.546   3.644
   49CHL1   C12 4763   4.175   4.418   3.520
   49CHL1  H12A 4764   4.229   4.491   3.584
   49CHL1  H12B 4765   4.252   4.339   3.506
   49CHL1   C11 4766   4.154   4.473   3.376
   49CHL1  H11A 4767   4.080   4.557   3.373
   49CHL1  H11B 4768   4.251   4.518   3.348
   49CHL1    C9 4769   4.091   4.377   3.281
   49CHL1    H9 4770   4.173   4.302   3.282
   49CHL1   C10 4771   4.061   4.424   3.138
   49CHL1   C19 4772   3.961   4.541   3.134
   49CHL1  H19A 4773   3.988   4.612   3.216
   49CHL1  H19B 4774   3.961   4.604   3.042
   49CHL1  H19C 4775   3.856   4.514   3.158
   49CHL1    C1 4776   4.202   4.462   3.076
   49CHL1   H1A 4777   4.250   4.553   3.117
   49CHL1   H1B 4778   4.280   4.388   3.103
   49CHL1    C2 4779   4.201   4.497   2.924
   49CHL1   H2A 4780   4.302   4.532   2.894
   49CHL1   H2B 4781   4.117   4.567   2.906
   49CHL1   C20 4782   4.075   4.345   3.839
   49CHL1   H20 4783   3.989   4.412   3.859
   49CHL1   C21 4784   4.201   4.440   3.848
   49CHL1  H21A 4785   4.176   4.529   3.786
   49CHL1  H21B 4786   4.283   4.379   3.806
   49CHL1  H21C 4787   4.208   4.488   3.948
   49CHL1   C22 4788   4.078   4.236   3.953
   49CHL1  H22A 4789   3.974   4.196   3.960
   49CHL1  H22B 4790   4.163   4.166   3.940
   49CHL1   C23 4791   4.109   4.295   4.090
   49CHL1  H23A 4792   4.205   4.347   4.108
   49CHL1  H23B 4793   4.045   4.385   4.101
   49CHL1   C24 4794   4.089   4.191   4.202
   49CHL1  H24A 4795   3.983   4.162   4.189
   49CHL1  H24B 4796   4.159   4.104   4.199
   49CHL1   C25 4797   4.102   4.247   4.344
   49CHL1   H25 4798   4.208   4.280   4.356
   49CHL1   C26 4799   4.000   4.352   4.374
   49CHL1  H26A 4800   4.005   4.444   4.311
   49CHL1  H26B 4801   3.905   4.295   4.368
   49CHL1  H26C 4802   3.995   4.387   4.479
   49CHL1   C27 4803   4.075   4.134   4.453
   49CHL1  H27A 4804   3.968   4.107   4.443
   49CHL1  H27B 4805   4.137   4.042   4.461
   49CHL1  H27C 4806   4.096   4.189   4.548
   50CHL1    C3 4807   3.384   1.717   2.719
   50CHL1    H3 4808   3.387   1.827   2.709
   50CHL1    O3 4809   3.378   1.655   2.589
   50CHL1   H3' 4810   3.467   1.660   2.552
   50CHL1    C4 4811   3.496   1.654   2.809
   50CHL1   H4A 4812   3.485   1.544   2.801
   50CHL1   H4B 4813   3.590   1.680   2.757
   50CHL1    C5 4814   3.489   1.696   2.957
   50CHL1    C6 4815   3.596   1.740   3.023
   50CHL1    H6 4816   3.695   1.745   2.976
   50CHL1    C7 4817   3.598   1.788   3.166
   50CHL1   H7A 4818   3.683   1.747   3.224
   50CHL1   H7B 4819   3.590   1.899   3.170
   50CHL1    C8 4820   3.473   1.740   3.243
   50CHL1    H8 4821   3.493   1.634   3.270
   50CHL1   C14 4822   3.451   1.819   3.375
   50CHL1   H14 4823   3.439   1.926   3.348
   50CHL1   C15 4824   3.571   1.824   3.473
   50CHL1  H15A 4825   3.617   1.724   3.489
   50CHL1  H15B 4826   3.657   1.888   3.445
   50CHL1   C16 4827   3.498   1.857   3.607
   50CHL1  H16A 4828   3.520   1.787   3.690
   50CHL1  H16B 4829   3.528   1.959   3.638
   50CHL1   C17 4830   3.342   1.860   3.571
   50CHL1   H17 4831   3.324   1.963   3.534
   50CHL1   C13 4832   3.331   1.771   3.449
   50CHL1   C18 4833   3.345   1.625   3.498
   50CHL1  H18A 4834   3.428   1.606   3.569
   50CHL1  H18B 4835   3.248   1.597   3.545
   50CHL1  H18C 4836   3.364   1.557   3.412
   50CHL1   C12 4837   3.208   1.795   3.362
   50CHL1  H12A 4838   3.111   1.767   3.408
   50CHL1  H12B 4839   3.213   1.904   3.339
   50CHL1   C11 4840   3.217   1.722   3.229
   50CHL1  H11A 4841   3.204   1.612   3.244
   50CHL1  H11B 4842   3.127   1.752   3.171
   50CHL1    C9 4843   3.348   1.756   3.152
   50CHL1    H9 4844   3.341   1.864   3.126
   50CHL1   C10 4845   3.352   1.687   3.016
   50CHL1   C19 4846   3.323   1.534   3.030
   50CHL1  H19A 4847   3.216   1.525   3.060
   50CHL1  H19B 4848   3.344   1.474   2.939
   50CHL1  H19C 4849   3.389   1.482   3.102
   50CHL1    C1 4850   3.243   1.757   2.926
   50CHL1   H1A 4851   3.148   1.756   2.983
   50CHL1   H1B 4852   3.280   1.860   2.907
   50CHL1    C2 4853   3.238   1.697   2.787
   50CHL1   H2A 4854   3.165   1.759   2.731
   50CHL1   H2B 4855   3.220   1.587   2.783
   50CHL1   C20 4856   3.258   1.850   3.701
   50CHL1   H20 4857   3.255   1.745   3.737
   50CHL1   C21 4858   3.114   1.895   3.667
   50CHL1  H21A 4859   3.069   1.871   3.568
   50CHL1  H21B 4860   3.098   2.005   3.675
   50CHL1  H21C 4861   3.042   1.849   3.738
   50CHL1   C22 4862   3.311   1.939   3.813
   50CHL1  H22A 4863   3.419   1.917   3.832
   50CHL1  H22B 4864   3.297   2.043   3.778
   50CHL1   C23 4865   3.254   1.924   3.955
   50CHL1  H23A 4866   3.149   1.955   3.939
   50CHL1  H23B 4867   3.263   1.817   3.984
   50CHL1   C24 4868   3.328   2.017   4.054
   50CHL1  H24A 4869   3.420   1.964   4.084
   50CHL1  H24B 4870   3.364   2.115   4.016
   50CHL1   C25 4871   3.261   2.023   4.192
   50CHL1   H25 4872   3.163   2.073   4.174
   50CHL1   C26 4873   3.242   1.876   4.242
   50CHL1  H26A 4874   3.343   1.829   4.239
   50CHL1  H26B 4875   3.211   1.877   4.348
   50CHL1  H26C 4876   3.169   1.822   4.178
   50CHL1   C27 4877   3.333   2.100   4.308
   50CHL1  H27A 4878   3.438   2.064   4.318
   50CHL1  H27B 4879   3.347   2.210   4.297
   50CHL1  H27C 4880   3.284   2.086   4.407
   51CHL1    C3 4881   3.942   2.846   2.638
   51CHL1    H3 4882   4.032   2.782   2.655
   51CHL1    O3 4883   3.917   2.857   2.501
   51CHL1   H3' 4884   3.970   2.930   2.470
   51CHL1    C4 4885   3.822   2.774   2.713
   51CHL1   H4A 4886   3.731   2.830   2.680
   51CHL1   H4B 4887   3.824   2.670   2.675
   51CHL1    C5 4888   3.841   2.778   2.864
   51CHL1    C6 4889   3.850   2.672   2.941
   51CHL1    H6 4890   3.847   2.575   2.888
   51CHL1    C7 4891   3.873   2.671   3.088
   51CHL1   H7A 4892   3.809   2.601   3.147
   51CHL1   H7B 4893   3.978   2.641   3.107
   51CHL1    C8 4894   3.850   2.810   3.153
   51CHL1    H8 4895   3.741   2.827   3.160
   51CHL1   C14 4896   3.915   2.809   3.300
   51CHL1   H14 4897   4.025   2.795   3.294
   51CHL1   C15 4898   3.873   2.699   3.400
   51CHL1  H15A 4899   3.774   2.656   3.376
   51CHL1  H15B 4900   3.946   2.617   3.384
   51CHL1   C16 4901   3.893   2.760   3.541
   51CHL1  H16A 4902   3.795   2.766   3.593
   51CHL1  H16B 4903   3.970   2.703   3.598
   51CHL1   C17 4904   3.948   2.901   3.517
   51CHL1   H17 4905   4.059   2.901   3.511
   51CHL1   C13 4906   3.896   2.939   3.373
   51CHL1   C18 4907   3.751   2.974   3.386
   51CHL1  H18A 4908   3.690   2.967   3.293
   51CHL1  H18B 4909   3.710   2.904   3.462
   51CHL1  H18C 4910   3.740   3.076   3.428
   51CHL1   C12 4911   3.964   3.053   3.294
   51CHL1  H12A 4912   3.935   3.150   3.341
   51CHL1  H12B 4913   4.075   3.047   3.299
   51CHL1   C11 4914   3.914   3.061   3.145
   51CHL1  H11A 4915   3.809   3.097   3.154
   51CHL1  H11B 4916   3.973   3.136   3.089
   51CHL1    C9 4917   3.912   2.922   3.071
   51CHL1    H9 4918   4.020   2.897   3.066
   51CHL1   C10 4919   3.860   2.924   2.918
   51CHL1   C19 4920   3.717   2.984   2.912
   51CHL1  H19A 4921   3.644   2.924   2.971
   51CHL1  H19B 4922   3.722   3.087   2.954
   51CHL1  H19C 4923   3.683   2.979   2.806
   51CHL1    C1 4924   3.962   3.003   2.839
   51CHL1   H1A 4925   3.935   3.110   2.855
   51CHL1   H1B 4926   4.061   2.963   2.867
   51CHL1    C2 4927   3.962   2.993   2.687
   51CHL1   H2A 4928   4.057   3.039   2.651
   51CHL1   H2B 4929   3.864   3.037   2.658
   51CHL1   C20 4930   3.920   2.990   3.636
   51CHL1   H20 4931   3.811   3.010   3.642
   51CHL1   C21 4932   4.002   3.121   3.620
   51CHL1  H21A 4933   3.971   3.193   3.541
   51CHL1  H21B 4934   4.106   3.098   3.590
   51CHL1  H21C 4935   4.008   3.175   3.717
   51CHL1   C22 4936   3.957   2.925   3.775
   51CHL1  H22A 4937   3.918   2.821   3.780
   51CHL1  H22B 4938   4.067   2.925   3.785
   51CHL1   C23 4939   3.891   2.989   3.894
   51CHL1  H23A 4940   3.929   3.093   3.899
   51CHL1  H23B 4941   3.780   2.997   3.887
   51CHL1   C24 4942   3.934   2.922   4.024
   51CHL1  H24A 4943   3.895   2.819   4.040
   51CHL1  H24B 4944   4.045   2.915   4.017
   51CHL1   C25 4945   3.897   3.006   4.139
   51CHL1   H25 4946   3.926   3.108   4.107
   51CHL1   C26 4947   3.748   3.003   4.172
   51CHL1  H26A 4948   3.728   3.034   4.277
   51CHL1  H26B 4949   3.691   3.067   4.102
   51CHL1  H26C 4950   3.723   2.895   4.162
   51CHL1   C27 4951   3.966   2.975   4.270
   51CHL1  H27A 4952   3.935   3.048   4.347
   51CHL1  H27B 4953   3.940   2.874   4.308
   51CHL1  H27C 4954   4.077   2.982   4.271
   52CHL1    C3 4955   3.096   4.266   2.391
   52CHL1    H3 4956   2.985   4.267   2.385
   52CHL1    O3 4957   3.152   4.286   2.264
   52CHL1   H3' 4958   3.245   4.264   2.275
   52CHL1    C4 4959   3.147   4.377   2.487
   52CHL1   H4A 4960   3.253   4.405   2.465
   52CHL1   H4B 4961   3.085   4.465   2.460
   52CHL1    C5 4962   3.141   4.356   2.640
   52CHL1    C6 4963   3.087   4.453   2.718
   52CHL1    H6 4964   3.066   4.553   2.678
   52CHL1    C7 4965   3.066   4.445   2.862
   52CHL1   H7A 4966   3.115   4.529   2.915
   52CHL1   H7B 4967   2.956   4.444   2.881
   52CHL1    C8 4968   3.130   4.321   2.923
   52CHL1    H8 4969   3.240   4.330   2.939
   52CHL1   C14 4970   3.062   4.298   3.058
   52CHL1   H14 4971   2.958   4.280   3.022
   52CHL1   C15 4972   3.047   4.418   3.156
   52CHL1  H15A 4973   3.128   4.494   3.154
   52CHL1  H15B 4974   2.952   4.472   3.136
   52CHL1   C16 4975   3.032   4.344   3.292
   52CHL1  H16A 4976   3.123   4.356   3.354
   52CHL1  H16B 4977   2.943   4.377   3.349
   52CHL1   C17 4978   3.027   4.189   3.260
   52CHL1   H17 4979   2.920   4.178   3.236
   52CHL1   C13 4980   3.106   4.176   3.133
   52CHL1   C18 4981   3.261   4.190   3.160
   52CHL1  H18A 4982   3.282   4.283   3.217
   52CHL1  H18B 4983   3.310   4.100   3.204
   52CHL1  H18C 4984   3.316   4.195   3.064
   52CHL1   C12 4985   3.096   4.055   3.046
   52CHL1  H12A 4986   3.143   3.977   3.110
   52CHL1  H12B 4987   2.994   4.015   3.027
   52CHL1   C11 4988   3.154   4.065   2.910
   52CHL1  H11A 4989   3.264   4.068   2.918
   52CHL1  H11B 4990   3.129   3.984   2.837
   52CHL1    C9 4991   3.108   4.198   2.834
   52CHL1    H9 4992   2.999   4.188   2.819
   52CHL1   C10 4993   3.171   4.214   2.696
   52CHL1   C19 4994   3.328   4.191   2.692
   52CHL1  H19A 4995   3.357   4.206   2.586
   52CHL1  H19B 4996   3.372   4.271   2.755
   52CHL1  H19C 4997   3.353   4.086   2.719
   52CHL1    C1 4998   3.102   4.118   2.600
   52CHL1   H1A 4999   3.120   4.012   2.629
   52CHL1   H1B 5000   2.993   4.131   2.612
   52CHL1    C2 5001   3.141   4.128   2.449
   52CHL1   H2A 5002   3.091   4.059   2.378
   52CHL1   H2B 5003   3.252   4.121   2.438
   52CHL1   C20 5004   3.054   4.094   3.379
   52CHL1   H20 5005   3.161   4.103   3.406
   52CHL1   C21 5006   3.013   3.944   3.346
   52CHL1  H21A 5007   2.906   3.946   3.314
   52CHL1  H21B 5008   3.017   3.889   3.443
   52CHL1  H21C 5009   3.090   3.890   3.287
   52CHL1   C22 5010   2.985   4.163   3.502
   52CHL1  H22A 5011   3.035   4.262   3.514
   52CHL1  H22B 5012   2.876   4.168   3.483
   52CHL1   C23 5013   2.986   4.076   3.620
   52CHL1  H23A 5014   2.915   3.993   3.597
   52CHL1  H23B 5015   3.089   4.040   3.640
   52CHL1   C24 5016   2.930   4.136   3.751
   52CHL1  H24A 5017   2.992   4.219   3.791
   52CHL1  H24B 5018   2.825   4.165   3.732
   52CHL1   C25 5019   2.925   4.024   3.860
   52CHL1   H25 5020   2.849   3.950   3.825
   52CHL1   C26 5021   3.058   3.945   3.880
   52CHL1  H26A 5022   3.045   3.877   3.967
   52CHL1  H26B 5023   3.100   3.888   3.794
   52CHL1  H26C 5024   3.145   4.007   3.909
   52CHL1   C27 5025   2.871   4.079   3.992
   52CHL1  H27A 5026   2.873   3.996   4.065
   52CHL1  H27B 5027   2.937   4.158   4.035
   52CHL1  H27C 5028   2.772   4.129   3.977
   53CHL1    C3 5029   3.156   3.291   2.453
   53CHL1    H3 5030   3.222   3.381   2.454
   53CHL1    O3 5031   3.134   3.256   2.313
   53CHL1   H3' 5032   3.222   3.235   2.282
   53CHL1    C4 5033   3.232   3.171   2.515
   53CHL1   H4A 5034   3.178   3.079   2.486
   53CHL1   H4B 5035   3.332   3.158   2.468
   53CHL1    C5 5036   3.238   3.169   2.666
   53CHL1    C6 5037   3.348   3.181   2.734
   53CHL1    H6 5038   3.443   3.188   2.679
   53CHL1    C7 5039   3.363   3.174   2.885
   53CHL1   H7A 5040   3.448   3.106   2.911
   53CHL1   H7B 5041   3.378   3.280   2.913
   53CHL1    C8 5042   3.233   3.137   2.961
   53CHL1    H8 5043   3.216   3.027   2.957
   53CHL1   C14 5044   3.240   3.178   3.106
   53CHL1   H14 5045   3.257   3.288   3.101
   53CHL1   C15 5046   3.359   3.126   3.186
   53CHL1  H15A 5047   3.371   3.016   3.178
   53CHL1  H15B 5048   3.441   3.182   3.136
   53CHL1   C16 5049   3.330   3.164   3.327
   53CHL1  H16A 5050   3.326   3.069   3.384
   53CHL1  H16B 5051   3.411   3.232   3.362
   53CHL1   C17 5052   3.181   3.210   3.333
   53CHL1   H17 5053   3.189   3.320   3.317
   53CHL1   C13 5054   3.125   3.158   3.196
   53CHL1   C18 5055   3.072   3.011   3.218
   53CHL1  H18A 5056   3.148   2.943   3.263
   53CHL1  H18B 5057   2.986   3.010   3.288
   53CHL1  H18C 5058   3.046   2.962   3.122
   53CHL1   C12 5059   3.013   3.244   3.130
   53CHL1  H12A 5060   2.919   3.221   3.185
   53CHL1  H12B 5061   3.036   3.352   3.139
   53CHL1   C11 5062   2.991   3.201   2.978
   53CHL1  H11A 5063   2.960   3.095   2.990
   53CHL1  H11B 5064   2.908   3.266   2.943
   53CHL1    C9 5065   3.120   3.204   2.887
   53CHL1    H9 5066   3.141   3.313   2.886
   53CHL1   C10 5067   3.104   3.176   2.732
   53CHL1   C19 5068   3.020   3.050   2.724
   53CHL1  H19A 5069   2.922   3.065   2.776
   53CHL1  H19B 5070   2.999   3.018   2.620
   53CHL1  H19C 5071   3.065   2.959   2.768
   53CHL1    C1 5072   3.033   3.307   2.671
   53CHL1   H1A 5073   2.929   3.317   2.711
   53CHL1   H1B 5074   3.076   3.398   2.718
   53CHL1    C2 5075   3.020   3.311   2.518
   53CHL1   H2A 5076   2.990   3.410   2.479
   53CHL1   H2B 5077   2.948   3.237   2.477
   53CHL1   C20 5078   3.110   3.178   3.465
   53CHL1   H20 5079   3.094   3.069   3.474
   53CHL1   C21 5080   2.969   3.238   3.480
   53CHL1  H21A 5081   2.959   3.349   3.469
   53CHL1  H21B 5082   2.922   3.199   3.573
   53CHL1  H21C 5083   2.906   3.202   3.396
   53CHL1   C22 5084   3.193   3.218   3.590
   53CHL1  H22A 5085   3.300   3.189   3.579
   53CHL1  H22B 5086   3.199   3.328   3.604
   53CHL1   C23 5087   3.151   3.170   3.731
   53CHL1  H23A 5088   3.232   3.202   3.799
   53CHL1  H23B 5089   3.059   3.229   3.751
   53CHL1   C24 5090   3.117   3.021   3.750
   53CHL1  H24A 5091   3.040   2.989   3.677
   53CHL1  H24B 5092   3.201   2.950   3.734
   53CHL1   C25 5093   3.046   2.995   3.885
   53CHL1   H25 5094   2.958   3.062   3.894
   53CHL1   C26 5095   2.988   2.844   3.895
   53CHL1  H26A 5096   2.915   2.840   3.811
   53CHL1  H26B 5097   3.071   2.770   3.891
   53CHL1  H26C 5098   2.924   2.841   3.986
   53CHL1   C27 5099   3.145   3.026   3.998
   53CHL1  H27A 5100   3.153   3.137   3.993
   53CHL1  H27B 5101   3.104   3.006   4.099
   53CHL1  H27C 5102   3.242   2.973   3.982
   54CHL1    C3 5103   2.536   3.271   2.498
   54CHL1    H3 5104   2.617   3.339   2.533
   54CHL1    O3 5105   2.531   3.282   2.359
   54CHL1   H3' 5106   2.444   3.247   2.339
   54CHL1    C4 5107   2.533   3.126   2.538
   54CHL1   H4A 5108   2.447   3.072   2.493
   54CHL1   H4B 5109   2.622   3.078   2.492
   54CHL1    C5 5110   2.537   3.109   2.692
   54CHL1    C6 5111   2.635   3.031   2.744
   54CHL1    H6 5112   2.712   2.992   2.677
   54CHL1    C7 5113   2.646   3.009   2.895
   54CHL1   H7A 5114   2.674   2.906   2.926
   54CHL1   H7B 5115   2.738   3.067   2.919
   54CHL1    C8 5116   2.527   3.066   2.981
   54CHL1    H8 5117   2.453   2.983   2.983
   54CHL1   C14 5118   2.563   3.086   3.128
   54CHL1   H14 5119   2.646   3.158   3.143
   54CHL1   C15 5120   2.611   2.963   3.203
   54CHL1  H15A 5121   2.536   2.884   3.181
   54CHL1  H15B 5122   2.711   2.929   3.167
   54CHL1   C16 5123   2.602   3.013   3.351
   54CHL1  H16A 5124   2.557   2.926   3.403
   54CHL1  H16B 5125   2.705   3.037   3.385
   54CHL1   C17 5126   2.516   3.138   3.354
   54CHL1   H17 5127   2.582   3.227   3.348
   54CHL1   C13 5128   2.445   3.137   3.216
   54CHL1   C18 5129   2.326   3.041   3.220
   54CHL1  H18A 5130   2.234   3.092   3.255
   54CHL1  H18B 5131   2.295   3.002   3.121
   54CHL1  H18C 5132   2.342   2.952   3.285
   54CHL1   C12 5133   2.400   3.266   3.155
   54CHL1  H12A 5134   2.326   3.324   3.215
   54CHL1  H12B 5135   2.493   3.326   3.147
   54CHL1   C11 5136   2.353   3.254   3.011
   54CHL1  H11A 5137   2.257   3.199   3.012
   54CHL1  H11B 5138   2.322   3.355   2.978
   54CHL1    C9 5139   2.463   3.196   2.918
   54CHL1    H9 5140   2.545   3.270   2.927
   54CHL1   C10 5141   2.429   3.185   2.767
   54CHL1   C19 5142   2.293   3.112   2.751
   54CHL1  H19A 5143   2.278   3.021   2.813
   54CHL1  H19B 5144   2.218   3.180   2.797
   54CHL1  H19C 5145   2.280   3.087   2.644
   54CHL1    C1 5146   2.417   3.336   2.708
   54CHL1   H1A 5147   2.325   3.382   2.749
   54CHL1   H1B 5148   2.507   3.392   2.740
   54CHL1    C2 5149   2.413   3.341   2.550
   54CHL1   H2A 5150   2.412   3.449   2.522
   54CHL1   H2B 5151   2.322   3.290   2.510
   54CHL1   C20 5152   2.431   3.142   3.479
   54CHL1   H20 5153   2.378   3.045   3.487
   54CHL1   C21 5154   2.326   3.249   3.484
   54CHL1  H21A 5155   2.275   3.236   3.582
   54CHL1  H21B 5156   2.243   3.233   3.413
   54CHL1  H21C 5157   2.360   3.355   3.478
   54CHL1   C22 5158   2.525   3.155   3.603
   54CHL1  H22A 5159   2.461   3.156   3.694
   54CHL1  H22B 5160   2.604   3.077   3.611
   54CHL1   C23 5161   2.614   3.279   3.614
   54CHL1  H23A 5162   2.686   3.283   3.530
   54CHL1  H23B 5163   2.560   3.376   3.605
   54CHL1   C24 5164   2.701   3.275   3.739
   54CHL1  H24A 5165   2.761   3.182   3.743
   54CHL1  H24B 5166   2.778   3.354   3.723
   54CHL1   C25 5167   2.641   3.297   3.882
   54CHL1   H25 5168   2.573   3.210   3.895
   54CHL1   C26 5169   2.753   3.281   3.980
   54CHL1  H26A 5170   2.714   3.278   4.084
   54CHL1  H26B 5171   2.795   3.180   3.963
   54CHL1  H26C 5172   2.830   3.361   3.968
   54CHL1   C27 5173   2.580   3.436   3.877
   54CHL1  H27A 5174   2.527   3.475   3.967
   54CHL1  H27B 5175   2.652   3.517   3.857
   54CHL1  H27C 5176   2.493   3.430   3.808
   55CHL1    C3 5177   3.326   6.489   2.777
   55CHL1    H3 5178   3.238   6.544   2.815
   55CHL1    O3 5179   3.338   6.512   2.638
   55CHL1   H3' 5180   3.425   6.476   2.616
   55CHL1    C4 5181   3.456   6.546   2.837
   55CHL1   H4A 5182   3.542   6.499   2.786
   55CHL1   H4B 5183   3.460   6.656   2.818
   55CHL1    C5 5184   3.468   6.511   2.987
   55CHL1    C6 5185   3.491   6.599   3.083
   55CHL1    H6 5186   3.501   6.704   3.051
   55CHL1    C7 5187   3.506   6.586   3.232
   55CHL1   H7A 5188   3.597   6.627   3.281
   55CHL1   H7B 5189   3.424   6.641   3.282
   55CHL1    C8 5190   3.499   6.433   3.274
   55CHL1    H8 5191   3.594   6.377   3.262
   55CHL1   C14 5192   3.446   6.417   3.420
   55CHL1   H14 5193   3.340   6.451   3.420
   55CHL1   C15 5194   3.530   6.483   3.536
   55CHL1  H15A 5195   3.632   6.467   3.497
   55CHL1  H15B 5196   3.509   6.591   3.552
   55CHL1   C16 5197   3.507   6.400   3.659
   55CHL1  H16A 5198   3.596   6.359   3.710
   55CHL1  H16B 5199   3.459   6.471   3.730
   55CHL1   C17 5200   3.406   6.289   3.616
   55CHL1   H17 5201   3.305   6.335   3.620
   55CHL1   C13 5202   3.442   6.274   3.466
   55CHL1   C18 5203   3.580   6.204   3.462
   55CHL1  H18A 5204   3.593   6.104   3.509
   55CHL1  H18B 5205   3.614   6.194   3.357
   55CHL1  H18C 5206   3.660   6.269   3.503
   55CHL1   C12 5207   3.338   6.202   3.375
   55CHL1  H12A 5208   3.321   6.094   3.397
   55CHL1  H12B 5209   3.240   6.252   3.389
   55CHL1   C11 5210   3.367   6.213   3.228
   55CHL1  H11A 5211   3.459   6.152   3.222
   55CHL1  H11B 5212   3.286   6.172   3.164
   55CHL1    C9 5213   3.405   6.355   3.180
   55CHL1    H9 5214   3.305   6.402   3.193
   55CHL1   C10 5215   3.429   6.365   3.029
   55CHL1   C19 5216   3.547   6.277   3.005
   55CHL1  H19A 5217   3.597   6.299   2.908
   55CHL1  H19B 5218   3.619   6.292   3.088
   55CHL1  H19C 5219   3.521   6.169   3.012
   55CHL1    C1 5220   3.308   6.322   2.949
   55CHL1   H1A 5221   3.290   6.214   2.966
   55CHL1   H1B 5222   3.219   6.376   2.988
   55CHL1    C2 5223   3.312   6.343   2.800
   55CHL1   H2A 5224   3.215   6.311   2.755
   55CHL1   H2B 5225   3.405   6.294   2.764
   55CHL1   C20 5226   3.404   6.165   3.714
   55CHL1   H20 5227   3.511   6.137   3.710
   55CHL1   C21 5228   3.321   6.043   3.658
   55CHL1  H21A 5229   3.371   6.002   3.568
   55CHL1  H21B 5230   3.220   6.084   3.637
   55CHL1  H21C 5231   3.319   5.958   3.730
   55CHL1   C22 5232   3.369   6.208   3.854
   55CHL1  H22A 5233   3.428   6.299   3.877
   55CHL1  H22B 5234   3.264   6.244   3.846
   55CHL1   C23 5235   3.383   6.092   3.958
   55CHL1  H23A 5236   3.309   6.012   3.939
   55CHL1  H23B 5237   3.478   6.035   3.949
   55CHL1   C24 5238   3.374   6.144   4.102
   55CHL1  H24A 5239   3.441   6.233   4.102
   55CHL1  H24B 5240   3.276   6.193   4.116
   55CHL1   C25 5241   3.406   6.042   4.215
   55CHL1   H25 5242   3.499   5.986   4.190
   55CHL1   C26 5243   3.426   6.129   4.339
   55CHL1  H26A 5244   3.460   6.061   4.419
   55CHL1  H26B 5245   3.506   6.204   4.323
   55CHL1  H26C 5246   3.331   6.175   4.374
   55CHL1   C27 5247   3.284   5.948   4.226
   55CHL1  H27A 5248   3.267   5.888   4.134
   55CHL1  H27B 5249   3.277   5.896   4.324
   55CHL1  H27C 5250   3.199   6.020   4.221
   56CHL1    C3 5251   5.563   2.297   2.628
   56CHL1    H3 5252   5.597   2.403   2.633
   56CHL1    O3 5253   5.498   2.280   2.507
   56CHL1   H3' 5254   5.469   2.189   2.512
   56CHL1    C4 5255   5.679   2.202   2.632
   56CHL1   H4A 5256   5.644   2.103   2.596
   56CHL1   H4B 5257   5.749   2.245   2.557
   56CHL1    C5 5258   5.737   2.186   2.770
   56CHL1    C6 5259   5.869   2.206   2.788
   56CHL1    H6 5260   5.944   2.221   2.709
   56CHL1    C7 5261   5.935   2.198   2.924
   56CHL1   H7A 5262   6.033   2.147   2.912
   56CHL1   H7B 5263   5.965   2.298   2.960
   56CHL1    C8 5264   5.853   2.112   3.032
   56CHL1    H8 5265   5.849   2.007   2.997
   56CHL1   C14 5266   5.914   2.126   3.166
   56CHL1   H14 5267   5.897   2.235   3.182
   56CHL1   C15 5268   6.066   2.105   3.181
   56CHL1  H15A 5269   6.098   2.017   3.122
   56CHL1  H15B 5270   6.129   2.176   3.122
   56CHL1   C16 5271   6.083   2.091   3.329
   56CHL1  H16A 5272   6.115   1.986   3.343
   56CHL1  H16B 5273   6.157   2.161   3.374
   56CHL1   C17 5274   5.946   2.106   3.397
   56CHL1   H17 5275   5.930   2.215   3.414
   56CHL1   C13 5276   5.838   2.068   3.289
   56CHL1   C18 5277   5.833   1.912   3.271
   56CHL1  H18A 5278   5.932   1.861   3.259
   56CHL1  H18B 5279   5.777   1.861   3.352
   56CHL1  H18C 5280   5.777   1.890   3.178
   56CHL1   C12 5281   5.704   2.140   3.296
   56CHL1  H12A 5282   5.642   2.101   3.379
   56CHL1  H12B 5283   5.709   2.250   3.314
   56CHL1   C11 5284   5.627   2.136   3.161
   56CHL1  H11A 5285   5.602   2.028   3.154
   56CHL1  H11B 5286   5.535   2.198   3.162
   56CHL1    C9 5287   5.711   2.180   3.035
   56CHL1    H9 5288   5.726   2.288   3.055
   56CHL1   C10 5289   5.639   2.165   2.889
   56CHL1   C19 5290   5.589   2.027   2.866
   56CHL1  H19A 5291   5.538   2.007   2.769
   56CHL1  H19B 5292   5.666   1.947   2.872
   56CHL1  H19C 5293   5.513   1.992   2.939
   56CHL1    C1 5294   5.530   2.266   2.883
   56CHL1   H1A 5295   5.456   2.230   2.958
   56CHL1   H1B 5296   5.554   2.369   2.916
   56CHL1    C2 5297   5.462   2.269   2.744
   56CHL1   H2A 5298   5.371   2.332   2.746
   56CHL1   H2B 5299   5.434   2.164   2.723
   56CHL1   C20 5300   5.937   2.027   3.533
   56CHL1   H20 5301   5.965   1.922   3.512
   56CHL1   C21 5302   5.790   2.024   3.596
   56CHL1  H21A 5303   5.712   1.964   3.544
   56CHL1  H21B 5304   5.757   2.130   3.605
   56CHL1  H21C 5305   5.798   1.993   3.703
   56CHL1   C22 5306   6.034   2.086   3.637
   56CHL1  H22A 5307   6.122   2.126   3.582
   56CHL1  H22B 5308   5.987   2.163   3.702
   56CHL1   C23 5309   6.091   1.980   3.732
   56CHL1  H23A 5310   6.005   1.915   3.761
   56CHL1  H23B 5311   6.171   1.922   3.682
   56CHL1   C24 5312   6.125   2.052   3.863
   56CHL1  H24A 5313   6.214   2.116   3.842
   56CHL1  H24B 5314   6.045   2.122   3.892
   56CHL1   C25 5315   6.175   1.961   3.976
   56CHL1   H25 5316   6.254   1.898   3.930
   56CHL1   C26 5317   6.231   2.041   4.089
   56CHL1  H26A 5318   6.328   2.090   4.065
   56CHL1  H26B 5319   6.157   2.118   4.121
   56CHL1  H26C 5320   6.243   1.978   4.180
   56CHL1   C27 5321   6.060   1.866   4.016
   56CHL1  H27A 5322   6.040   1.792   3.935
   56CHL1  H27B 5323   6.088   1.795   4.097
   56CHL1  H27C 5324   5.969   1.913   4.060
   57CHL1    C3 5325   4.324   0.040   2.745
   57CHL1    H3 5326   4.332   0.142   2.790
   57CHL1    O3 5327   4.296   0.057   2.608
   57CHL1   H3' 5328   4.304   6.855   2.573
   57CHL1    C4 5329   4.464   6.866   2.760
   57CHL1   H4A 5330   4.468   6.772   2.702
   57CHL1   H4B 5331   4.524   0.054   2.705
   57CHL1    C5 5332   4.493   6.845   2.909
   57CHL1    C6 5333   4.606   0.009   2.961
   57CHL1    H6 5334   4.678   0.054   2.891
   57CHL1    C7 5335   4.645   0.016   3.103
   57CHL1   H7A 5336   4.751   6.868   3.104
   57CHL1   H7B 5337   4.633   0.115   3.152
   57CHL1    C8 5338   4.560   6.799   3.178
   57CHL1    H8 5339   4.583   6.696   3.143
   57CHL1   C14 5340   4.593   6.808   3.330
   57CHL1   H14 5341   4.561   0.020   3.368
   57CHL1   C15 5342   4.740   6.781   3.375
   57CHL1  H15A 5343   4.767   6.696   3.309
   57CHL1  H15B 5344   4.816   6.858   3.347
   57CHL1   C16 5345   4.721   6.737   3.519
   57CHL1  H16A 5346   4.775   6.640   3.529
   57CHL1  H16B 5347   4.769   6.810   3.587
   57CHL1   C17 5348   4.566   6.717   3.551
   57CHL1   H17 5349   4.530   6.815   3.589
   57CHL1   C13 5350   4.506   6.708   3.405
   57CHL1   C18 5351   4.522   6.560   3.361
   57CHL1  H18A 5352   4.614   6.519   3.408
   57CHL1  H18B 5353   4.449   6.487   3.403
   57CHL1  H18C 5354   4.514   6.545   3.251
   57CHL1   C12 5355   4.357   6.743   3.389
   57CHL1  H12A 5356   4.290   6.677   3.450
   57CHL1  H12B 5357   4.351   6.847   3.426
   57CHL1   C11 5358   4.318   6.738   3.245
   57CHL1  H11A 5359   4.303   6.629   3.227
   57CHL1  H11B 5360   4.214   6.775   3.235
   57CHL1    C9 5361   4.414   6.811   3.139
   57CHL1    H9 5362   4.397   0.034   3.148
   57CHL1   C10 5363   4.387   6.776   2.994
   57CHL1   C19 5364   4.400   6.624   2.970
   57CHL1  H19A 5365   4.329   6.563   3.028
   57CHL1  H19B 5366   4.393   6.604   2.861
   57CHL1  H19C 5367   4.501   6.585   2.993
   57CHL1    C1 5368   4.245   6.822   2.961
   57CHL1   H1A 5369   4.175   6.744   2.999
   57CHL1   H1B 5370   4.208   0.027   3.011
   57CHL1    C2 5371   4.221   6.841   2.811
   57CHL1   H2A 5372   4.120   0.001   2.806
   57CHL1   H2B 5373   4.226   6.749   2.749
   57CHL1   C20 5374   4.553   6.615   3.664
   57CHL1   H20 5375   4.623   6.536   3.628
   57CHL1   C21 5376   4.411   6.560   3.680
   57CHL1  H21A 5377   4.347   6.645   3.713
   57CHL1  H21B 5378   4.412   6.486   3.763
   57CHL1  H21C 5379   4.379   6.506   3.589
   57CHL1   C22 5380   4.601   6.669   3.806
   57CHL1  H22A 5381   4.607   6.582   3.875
   57CHL1  H22B 5382   4.698   6.717   3.782
   57CHL1   C23 5383   4.522   6.787   3.869
   57CHL1  H23A 5384   4.555   6.877   3.812
   57CHL1  H23B 5385   4.414   6.762   3.860
   57CHL1   C24 5386   4.549   6.801   4.027
   57CHL1  H24A 5387   4.558   6.703   4.077
   57CHL1  H24B 5388   4.646   6.855   4.029
   57CHL1   C25 5389   4.431   6.873   4.111
   57CHL1   H25 5390   4.354   6.792   4.104
   57CHL1   C26 5391   4.468   0.010   4.252
   57CHL1  H26A 5392   4.377   0.038   4.309
   57CHL1  H26B 5393   4.517   6.805   4.292
   57CHL1  H26C 5394   4.542   0.093   4.249
   57CHL1   C27 5395   4.372   0.119   4.045
   57CHL1  H27A 5396   4.333   0.093   3.945
   57CHL1  H27B 5397   4.298   0.165   4.114
   57CHL1  H27C 5398   4.451   0.194   4.022
   58CHL1    C3 5399   4.466   0.545   2.812
   58CHL1    H3 5400   4.571   0.521   2.836
   58CHL1    O3 5401   4.447   0.560   2.673
   58CHL1   H3' 5402   4.456   0.470   2.641
   58CHL1    C4 5403   4.365   0.444   2.871
   58CHL1   H4A 5404   4.261   0.470   2.841
   58CHL1   H4B 5405   4.382   0.344   2.825
   58CHL1    C5 5406   4.372   0.423   3.023
   58CHL1    C6 5407   4.389   0.299   3.088
   58CHL1    H6 5408   4.390   0.210   3.022
   58CHL1    C7 5409   4.392   0.278   3.236
   58CHL1   H7A 5410   4.318   0.204   3.271
   58CHL1   H7B 5411   4.490   0.238   3.271
   58CHL1    C8 5412   4.364   0.411   3.313
   58CHL1    H8 5413   4.254   0.424   3.320
   58CHL1   C14 5414   4.423   0.400   3.457
   58CHL1   H14 5415   4.533   0.405   3.440
   58CHL1   C15 5416   4.392   0.271   3.535
   58CHL1  H15A 5417   4.284   0.245   3.524
   58CHL1  H15B 5418   4.458   0.190   3.497
   58CHL1   C16 5419   4.413   0.310   3.678
   58CHL1  H16A 5420   4.333   0.282   3.749
   58CHL1  H16B 5421   4.509   0.259   3.702
   58CHL1   C17 5422   4.446   0.462   3.681
   58CHL1   H17 5423   4.555   0.481   3.670
   58CHL1   C13 5424   4.391   0.514   3.554
   58CHL1   C18 5425   4.237   0.538   3.567
   58CHL1  H18A 5426   4.204   0.561   3.463
   58CHL1  H18B 5427   4.181   0.451   3.606
   58CHL1  H18C 5428   4.211   0.629   3.625
   58CHL1   C12 5429   4.459   0.638   3.491
   58CHL1  H12A 5430   4.449   0.727   3.556
   58CHL1  H12B 5431   4.569   0.625   3.478
   58CHL1   C11 5432   4.404   0.662   3.348
   58CHL1  H11A 5433   4.303   0.706   3.365
   58CHL1  H11B 5434   4.467   0.745   3.309
   58CHL1    C9 5435   4.418   0.537   3.249
   58CHL1    H9 5436   4.528   0.524   3.241
   58CHL1   C10 5437   4.375   0.560   3.104
   58CHL1   C19 5438   4.232   0.613   3.109
   58CHL1  H19A 5439   4.196   0.618   3.004
   58CHL1  H19B 5440   4.168   0.536   3.157
   58CHL1  H19C 5441   4.225   0.711   3.160
   58CHL1    C1 5442   4.477   0.663   3.039
   58CHL1   H1A 5443   4.461   0.761   3.089
   58CHL1   H1B 5444   4.580   0.630   3.065
   58CHL1    C2 5445   4.466   0.680   2.885
   58CHL1   H2A 5446   4.543   0.753   2.854
   58CHL1   H2B 5447   4.364   0.721   2.868
   58CHL1   C20 5448   4.415   0.541   3.808
   58CHL1   H20 5449   4.391   0.647   3.784
   58CHL1   C21 5450   4.541   0.550   3.892
   58CHL1  H21A 5451   4.568   0.451   3.934
   58CHL1  H21B 5452   4.534   0.631   3.968
   58CHL1  H21C 5453   4.628   0.583   3.831
   58CHL1   C22 5454   4.296   0.483   3.897
   58CHL1  H22A 5455   4.200   0.475   3.844
   58CHL1  H22B 5456   4.328   0.381   3.928
   58CHL1   C23 5457   4.272   0.542   4.034
   58CHL1  H23A 5458   4.361   0.534   4.099
   58CHL1  H23B 5459   4.245   0.649   4.017
   58CHL1   C24 5460   4.159   0.471   4.111
   58CHL1  H24A 5461   4.060   0.511   4.080
   58CHL1  H24B 5462   4.158   0.365   4.078
   58CHL1   C25 5463   4.147   0.499   4.259
   58CHL1   H25 5464   4.249   0.504   4.303
   58CHL1   C26 5465   4.083   0.634   4.301
   58CHL1  H26A 5466   4.063   0.631   4.410
   58CHL1  H26B 5467   4.157   0.711   4.271
   58CHL1  H26C 5468   3.985   0.645   4.250
   58CHL1   C27 5469   4.066   0.383   4.326
   58CHL1  H27A 5470   3.967   0.375   4.276
   58CHL1  H27B 5471   4.109   0.282   4.314
   58CHL1  H27C 5472   4.050   0.405   4.434
   59CHL1    C3 5473   2.799   4.720   2.875
   59CHL1    H3 5474   2.878   4.650   2.911
   59CHL1    O3 5475   2.819   4.735   2.738
   59CHL1   H3' 5476   2.749   4.792   2.706
   59CHL1    C4 5477   2.656   4.672   2.894
   59CHL1   H4A 5478   2.587   4.738   2.836
   59CHL1   H4B 5479   2.641   4.576   2.840
   59CHL1    C5 5480   2.634   4.663   3.043
   59CHL1    C6 5481   2.594   4.552   3.099
   59CHL1    H6 5482   2.581   4.463   3.036
   59CHL1    C7 5483   2.547   4.539   3.240
   59CHL1   H7A 5484   2.460   4.472   3.231
   59CHL1   H7B 5485   2.625   4.482   3.295
   59CHL1    C8 5486   2.525   4.672   3.310
   59CHL1    H8 5487   2.424   4.704   3.276
   59CHL1   C14 5488   2.522   4.658   3.461
   59CHL1   H14 5489   2.624   4.634   3.498
   59CHL1   C15 5490   2.424   4.554   3.518
   59CHL1  H15A 5491   2.338   4.542   3.448
   59CHL1  H15B 5492   2.478   4.458   3.534
   59CHL1   C16 5493   2.383   4.620   3.652
   59CHL1  H16A 5494   2.279   4.659   3.641
   59CHL1  H16B 5495   2.366   4.550   3.737
   59CHL1   C17 5496   2.477   4.743   3.676
   59CHL1   H17 5497   2.573   4.695   3.705
   59CHL1   C13 5498   2.498   4.794   3.533
   59CHL1   C18 5499   2.367   4.851   3.474
   59CHL1  H18A 5500   2.286   4.776   3.475
   59CHL1  H18B 5501   2.339   4.926   3.552
   59CHL1  H18C 5502   2.384   4.910   3.382
   59CHL1   C12 5503   2.623   4.880   3.512
   59CHL1  H12A 5504   2.608   4.985   3.544
   59CHL1  H12B 5505   2.717   4.850   3.563
   59CHL1   C11 5506   2.648   4.892   3.356
   59CHL1  H11A 5507   2.581   4.972   3.317
   59CHL1  H11B 5508   2.744   4.949   3.351
   59CHL1    C9 5509   2.640   4.764   3.282
   59CHL1    H9 5510   2.730   4.707   3.316
   59CHL1   C10 5511   2.657   4.792   3.125
   59CHL1   C19 5512   2.543   4.890   3.075
   59CHL1  H19A 5513   2.569   4.988   3.120
   59CHL1  H19B 5514   2.544   4.906   2.965
   59CHL1  H19C 5515   2.446   4.858   3.120
   59CHL1    C1 5516   2.802   4.849   3.090
   59CHL1   H1A 5517   2.826   4.944   3.141
   59CHL1   H1B 5518   2.880   4.777   3.125
   59CHL1    C2 5519   2.832   4.856   2.937
   59CHL1   H2A 5520   2.938   4.882   2.916
   59CHL1   H2B 5521   2.760   4.935   2.907
   59CHL1   C20 5522   2.436   4.843   3.784
   59CHL1   H20 5523   2.371   4.922   3.741
   59CHL1   C21 5524   2.568   4.910   3.818
   59CHL1  H21A 5525   2.553   4.963   3.915
   59CHL1  H21B 5526   2.598   4.986   3.743
   59CHL1  H21C 5527   2.655   4.841   3.826
   59CHL1   C22 5528   2.378   4.781   3.914
   59CHL1  H22A 5529   2.286   4.722   3.895
   59CHL1  H22B 5530   2.456   4.719   3.963
   59CHL1   C23 5531   2.322   4.885   4.015
   59CHL1  H23A 5532   2.399   4.951   4.061
   59CHL1  H23B 5533   2.256   4.954   3.958
   59CHL1   C24 5534   2.251   4.825   4.132
   59CHL1  H24A 5535   2.202   4.727   4.111
   59CHL1  H24B 5536   2.323   4.803   4.213
   59CHL1   C25 5537   2.120   4.894   4.182
   59CHL1   H25 5538   2.044   4.912   4.103
   59CHL1   C26 5539   2.066   4.810   4.305
   59CHL1  H26A 5540   1.976   4.861   4.344
   59CHL1  H26B 5541   2.047   4.705   4.276
   59CHL1  H26C 5542   2.150   4.811   4.378
   59CHL1   C27 5543   2.144   5.030   4.248
   59CHL1  H27A 5544   2.228   5.032   4.322
   59CHL1  H27B 5545   2.157   5.093   4.158
   59CHL1  H27C 5546   2.044   5.050   4.293
   60CHL1    C3 5547   5.506   6.168   2.893
   60CHL1    H3 5548   5.613   6.148   2.917
   60CHL1    O3 5549   5.492   6.165   2.754
   60CHL1   H3' 5550   5.531   6.247   2.722
   60CHL1    C4 5551   5.422   6.050   2.956
   60CHL1   H4A 5552   5.315   6.074   2.937
   60CHL1   H4B 5553   5.446   5.956   2.901
   60CHL1    C5 5554   5.451   6.049   3.104
   60CHL1    C6 5555   5.511   5.942   3.155
   60CHL1    H6 5556   5.533   5.853   3.094
   60CHL1    C7 5557   5.545   5.936   3.300
   60CHL1   H7A 5558   5.530   5.834   3.341
   60CHL1   H7B 5559   5.653   5.959   3.312
   60CHL1    C8 5560   5.467   6.030   3.394
   60CHL1    H8 5561   5.359   6.002   3.402
   60CHL1   C14 5562   5.515   6.025   3.537
   60CHL1   H14 5563   5.621   6.057   3.534
   60CHL1   C15 5564   5.517   5.902   3.619
   60CHL1  H15A 5565   5.418   5.851   3.615
   60CHL1  H15B 5566   5.603   5.847   3.576
   60CHL1   C16 5567   5.534   5.945   3.768
   60CHL1  H16A 5568   5.446   5.909   3.826
   60CHL1  H16B 5569   5.633   5.919   3.810
   60CHL1   C17 5570   5.523   6.102   3.767
   60CHL1   H17 5571   5.627   6.139   3.754
   60CHL1   C13 5572   5.458   6.133   3.629
   60CHL1   C18 5573   5.302   6.117   3.651
   60CHL1  H18A 5574   5.245   6.099   3.557
   60CHL1  H18B 5575   5.287   6.034   3.724
   60CHL1  H18C 5576   5.265   6.214   3.691
   60CHL1   C12 5577   5.493   6.274   3.565
   60CHL1  H12A 5578   5.450   6.355   3.627
   60CHL1  H12B 5579   5.604   6.280   3.554
   60CHL1   C11 5580   5.436   6.285   3.423
   60CHL1  H11A 5581   5.326   6.289   3.442
   60CHL1  H11B 5582   5.460   6.380   3.371
   60CHL1    C9 5583   5.475   6.165   3.331
   60CHL1    H9 5584   5.583   6.187   3.313
   60CHL1   C10 5585   5.413   6.178   3.186
   60CHL1   C19 5586   5.260   6.198   3.199
   60CHL1  H19A 5587   5.217   6.115   3.259
   60CHL1  H19B 5588   5.240   6.298   3.244
   60CHL1  H19C 5589   5.198   6.212   3.107
   60CHL1    C1 5590   5.471   6.307   3.106
   60CHL1   H1A 5591   5.435   6.403   3.150
   60CHL1   H1B 5592   5.580   6.300   3.126
   60CHL1    C2 5593   5.464   6.300   2.956
   60CHL1   H2A 5594   5.537   6.369   2.909
   60CHL1   H2B 5595   5.362   6.326   2.920
   60CHL1   C20 5596   5.457   6.149   3.901
   60CHL1   H20 5597   5.357   6.104   3.918
   60CHL1   C21 5598   5.454   6.308   3.898
   60CHL1  H21A 5599   5.389   6.348   3.818
   60CHL1  H21B 5600   5.556   6.350   3.882
   60CHL1  H21C 5601   5.422   6.357   3.992
   60CHL1   C22 5602   5.552   6.106   4.011
   60CHL1  H22A 5603   5.565   5.996   4.007
   60CHL1  H22B 5604   5.654   6.150   4.006
   60CHL1   C23 5605   5.484   6.129   4.147
   60CHL1  H23A 5606   5.458   6.236   4.164
   60CHL1  H23B 5607   5.388   6.073   4.144
   60CHL1   C24 5608   5.549   6.062   4.270
   60CHL1  H24A 5609   5.494   6.079   4.365
   60CHL1  H24B 5610   5.562   5.954   4.247
   60CHL1   C25 5611   5.701   6.109   4.290
   60CHL1   H25 5612   5.762   6.074   4.204
   60CHL1   C26 5613   5.699   6.258   4.304
   60CHL1  H26A 5614   5.800   6.298   4.327
   60CHL1  H26B 5615   5.674   6.298   4.204
   60CHL1  H26C 5616   5.629   6.285   4.386
   60CHL1   C27 5617   5.771   6.041   4.409
   60CHL1  H27A 5618   5.750   5.932   4.407
   60CHL1  H27B 5619   5.879   6.057   4.392
   60CHL1  H27C 5620   5.748   6.091   4.506
   61CHL1    C3 5621   5.349   2.679   2.908
   61CHL1    H3 5622   5.418   2.600   2.872
   61CHL1    O3 5623   5.316   2.766   2.798
   61CHL1   H3' 5624   5.241   2.722   2.756
   61CHL1    C4 5625   5.220   2.619   2.967
   61CHL1   H4A 5626   5.157   2.705   2.997
   61CHL1   H4B 5627   5.171   2.561   2.885
   61CHL1    C5 5628   5.247   2.523   3.080
   61CHL1    C6 5629   5.205   2.396   3.073
   61CHL1    H6 5630   5.140   2.361   2.991
   61CHL1    C7 5631   5.224   2.296   3.187
   61CHL1   H7A 5632   5.124   2.248   3.191
   61CHL1   H7B 5633   5.299   2.218   3.160
   61CHL1    C8 5634   5.267   2.354   3.329
   61CHL1    H8 5635   5.173   2.397   3.369
   61CHL1   C14 5636   5.329   2.246   3.423
   61CHL1   H14 5637   5.422   2.210   3.374
   61CHL1   C15 5638   5.248   2.115   3.443
   61CHL1  H15A 5639   5.139   2.127   3.457
   61CHL1  H15B 5640   5.254   2.044   3.359
   61CHL1   C16 5641   5.309   2.060   3.572
   61CHL1  H16A 5642   5.238   2.047   3.656
   61CHL1  H16B 5643   5.363   1.963   3.563
   61CHL1   C17 5644   5.408   2.171   3.628
   61CHL1   H17 5645   5.511   2.154   3.590
   61CHL1   C13 5646   5.362   2.306   3.557
   61CHL1   C18 5647   5.231   2.354   3.631
   61CHL1  H18A 5648   5.269   2.415   3.715
   61CHL1  H18B 5649   5.168   2.426   3.575
   61CHL1  H18C 5650   5.167   2.277   3.679
   61CHL1   C12 5651   5.472   2.405   3.532
   61CHL1  H12A 5652   5.517   2.447   3.625
   61CHL1  H12B 5653   5.557   2.349   3.488
   61CHL1   C11 5654   5.429   2.518   3.439
   61CHL1  H11A 5655   5.358   2.592   3.481
   61CHL1  H11B 5656   5.519   2.579   3.419
   61CHL1    C9 5657   5.371   2.463   3.305
   61CHL1    H9 5658   5.450   2.415   3.243
   61CHL1   C10 5659   5.327   2.581   3.197
   61CHL1   C19 5660   5.231   2.682   3.267
   61CHL1  H19A 5661   5.191   2.757   3.196
   61CHL1  H19B 5662   5.136   2.633   3.300
   61CHL1  H19C 5663   5.278   2.732   3.354
   61CHL1    C1 5664   5.451   2.660   3.136
   61CHL1   H1A 5665   5.491   2.723   3.219
   61CHL1   H1B 5666   5.529   2.592   3.098
   61CHL1    C2 5667   5.426   2.755   3.024
   61CHL1   H2A 5668   5.520   2.797   2.982
   61CHL1   H2B 5669   5.366   2.844   3.052
   61CHL1   C20 5670   5.419   2.165   3.782
   61CHL1   H20 5671   5.318   2.186   3.823
   61CHL1   C21 5672   5.509   2.280   3.839
   61CHL1  H21A 5673   5.457   2.377   3.829
   61CHL1  H21B 5674   5.602   2.290   3.780
   61CHL1  H21C 5675   5.522   2.271   3.949
   61CHL1   C22 5676   5.459   2.021   3.837
   61CHL1  H22A 5677   5.378   1.949   3.813
   61CHL1  H22B 5678   5.555   1.991   3.790
   61CHL1   C23 5679   5.484   2.017   3.986
   61CHL1  H23A 5680   5.569   2.083   4.012
   61CHL1  H23B 5681   5.390   2.050   4.036
   61CHL1   C24 5682   5.511   1.868   4.018
   61CHL1  H24A 5683   5.419   1.807   4.009
   61CHL1  H24B 5684   5.589   1.839   3.944
   61CHL1   C25 5685   5.553   1.837   4.165
   61CHL1   H25 5686   5.649   1.890   4.183
   61CHL1   C26 5687   5.437   1.881   4.260
   61CHL1  H26A 5688   5.455   1.852   4.365
   61CHL1  H26B 5689   5.437   1.992   4.256
   61CHL1  H26C 5690   5.345   1.832   4.223
   61CHL1   C27 5691   5.571   1.688   4.180
   61CHL1  H27A 5692   5.603   1.659   4.283
   61CHL1  H27B 5693   5.474   1.634   4.168
   61CHL1  H27C 5694   5.651   1.652   4.112
   62CHL1    C3 5695   1.142   0.669   2.832
   62CHL1    H3 5696   1.092   0.768   2.836
   62CHL1    O3 5697   1.137   0.616   2.705
   62CHL1   H3' 5698   1.213   0.557   2.705
   62CHL1    C4 5699   1.288   0.685   2.873
   62CHL1   H4A 5700   1.345   0.590   2.883
   62CHL1   H4B 5701   1.342   0.749   2.799
   62CHL1    C5 5702   1.301   0.740   3.014
   62CHL1    C6 5703   1.357   0.858   3.041
   62CHL1    H6 5704   1.415   0.912   2.965
   62CHL1    C7 5705   1.387   0.909   3.187
   62CHL1   H7A 5706   1.494   0.937   3.199
   62CHL1   H7B 5707   1.323   0.999   3.198
   62CHL1    C8 5708   1.360   0.797   3.296
   62CHL1    H8 5709   1.444   0.723   3.292
   62CHL1   C14 5710   1.341   0.867   3.422
   62CHL1   H14 5711   1.255   0.938   3.418
   62CHL1   C15 5712   1.457   0.949   3.471
   62CHL1  H15A 5713   1.553   0.904   3.438
   62CHL1  H15B 5714   1.456   1.045   3.416
   62CHL1   C16 5715   1.429   0.969   3.624
   62CHL1  H16A 5716   1.514   0.936   3.687
   62CHL1  H16B 5717   1.411   1.074   3.653
   62CHL1   C17 5718   1.306   0.882   3.658
   62CHL1   H17 5719   1.210   0.938   3.654
   62CHL1   C13 5720   1.302   0.771   3.541
   62CHL1   C18 5721   1.413   0.672   3.562
   62CHL1  H18A 5722   1.387   0.618   3.655
   62CHL1  H18B 5723   1.427   0.603   3.475
   62CHL1  H18C 5724   1.506   0.726   3.589
   62CHL1   C12 5725   1.168   0.699   3.521
   62CHL1  H12A 5726   1.153   0.613   3.590
   62CHL1  H12B 5727   1.090   0.777   3.537
   62CHL1   C11 5728   1.167   0.638   3.380
   62CHL1  H11A 5729   1.218   0.540   3.389
   62CHL1  H11B 5730   1.059   0.626   3.355
   62CHL1    C9 5731   1.229   0.723   3.260
   62CHL1    H9 5732   1.162   0.812   3.252
   62CHL1   C10 5733   1.238   0.648   3.127
   62CHL1   C19 5734   1.303   0.517   3.139
   62CHL1  H19A 5735   1.309   0.458   3.045
   62CHL1  H19B 5736   1.406   0.531   3.177
   62CHL1  H19C 5737   1.244   0.461   3.216
   62CHL1    C1 5738   1.089   0.618   3.076
   62CHL1   H1A 5739   1.059   0.531   3.138
   62CHL1   H1B 5740   1.016   0.701   3.088
   62CHL1    C2 5741   1.077   0.570   2.928
   62CHL1   H2A 5742   0.971   0.541   2.912
   62CHL1   H2B 5743   1.133   0.474   2.928
   62CHL1   C20 5744   1.306   0.834   3.802
   62CHL1   H20 5745   1.385   0.761   3.831
   62CHL1   C21 5746   1.175   0.760   3.835
   62CHL1  H21A 5747   1.161   0.661   3.788
   62CHL1  H21B 5748   1.088   0.823   3.807
   62CHL1  H21C 5749   1.159   0.741   3.943
   62CHL1   C22 5750   1.319   0.954   3.903
   62CHL1  H22A 5751   1.410   1.012   3.881
   62CHL1  H22B 5752   1.231   1.022   3.898
   62CHL1   C23 5753   1.336   0.906   4.046
   62CHL1  H23A 5754   1.239   0.891   4.098
   62CHL1  H23B 5755   1.387   0.807   4.054
   62CHL1   C24 5756   1.427   1.000   4.124
   62CHL1  H24A 5757   1.533   0.992   4.090
   62CHL1  H24B 5758   1.403   1.103   4.088
   62CHL1   C25 5759   1.425   0.991   4.277
   62CHL1   H25 5760   1.327   0.985   4.328
   62CHL1   C26 5761   1.512   0.860   4.316
   62CHL1  H26A 5762   1.457   0.766   4.293
   62CHL1  H26B 5763   1.612   0.856   4.269
   62CHL1  H26C 5764   1.529   0.873   4.425
   62CHL1   C27 5765   1.483   1.114   4.342
   62CHL1  H27A 5766   1.516   1.094   4.446
   62CHL1  H27B 5767   1.574   1.158   4.297
   62CHL1  H27C 5768   1.401   1.190   4.345
   63CHL1    C3 5769   4.210   5.349   2.496
   63CHL1    H3 5770   4.224   5.241   2.518
   63CHL1    O3 5771   4.221   5.374   2.359
   63CHL1   H3' 5772   4.314   5.383   2.338
   63CHL1    C4 5773   4.069   5.393   2.545
   63CHL1   H4A 5774   4.041   5.496   2.516
   63CHL1   H4B 5775   3.993   5.331   2.493
   63CHL1    C5 5776   4.052   5.374   2.697
   63CHL1    C6 5777   3.957   5.293   2.743
   63CHL1    H6 5778   3.886   5.259   2.667
   63CHL1    C7 5779   3.929   5.270   2.887
   63CHL1   H7A 5780   3.820   5.289   2.897
   63CHL1   H7B 5781   3.949   5.165   2.919
   63CHL1    C8 5782   4.004   5.378   2.971
   63CHL1    H8 5783   3.958   5.478   2.956
   63CHL1   C14 5784   4.001   5.342   3.118
   63CHL1   H14 5785   4.043   5.240   3.126
   63CHL1   C15 5786   3.859   5.320   3.172
   63CHL1  H15A 5787   3.790   5.402   3.144
   63CHL1  H15B 5788   3.806   5.225   3.149
   63CHL1   C16 5789   3.893   5.323   3.324
   63CHL1  H16A 5790   3.832   5.393   3.385
   63CHL1  H16B 5791   3.887   5.227   3.379
   63CHL1   C17 5792   4.041   5.363   3.339
   63CHL1   H17 5793   4.102   5.271   3.337
   63CHL1   C13 5794   4.084   5.432   3.207
   63CHL1   C18 5795   4.033   5.579   3.212
   63CHL1  H18A 5796   4.050   5.627   3.113
   63CHL1  H18B 5797   3.923   5.570   3.221
   63CHL1  H18C 5798   4.072   5.641   3.295
   63CHL1   C12 5799   4.234   5.425   3.176
   63CHL1  H12A 5800   4.292   5.500   3.233
   63CHL1  H12B 5801   4.274   5.323   3.198
   63CHL1   C11 5802   4.240   5.463   3.024
   63CHL1  H11A 5803   4.207   5.569   3.012
   63CHL1  H11B 5804   4.343   5.454   2.983
   63CHL1    C9 5805   4.145   5.388   2.929
   63CHL1    H9 5806   4.180   5.283   2.939
   63CHL1   C10 5807   4.162   5.431   2.784
   63CHL1   C19 5808   4.152   5.588   2.772
   63CHL1  H19A 5809   4.239   5.634   2.824
   63CHL1  H19B 5810   4.164   5.623   2.667
   63CHL1  H19C 5811   4.056   5.631   2.809
   63CHL1    C1 5812   4.304   5.396   2.729
   63CHL1   H1A 5813   4.385   5.455   2.775
   63CHL1   H1B 5814   4.326   5.298   2.779
   63CHL1    C2 5815   4.322   5.408   2.574
   63CHL1   H2A 5816   4.416   5.355   2.545
   63CHL1   H2B 5817   4.340   5.515   2.551
   63CHL1   C20 5818   4.062   5.429   3.479
   63CHL1   H20 5819   4.000   5.521   3.481
   63CHL1   C21 5820   4.214   5.473   3.500
   63CHL1  H21A 5821   4.227   5.524   3.597
   63CHL1  H21B 5822   4.244   5.551   3.427
   63CHL1  H21C 5823   4.284   5.387   3.490
   63CHL1   C22 5824   4.026   5.335   3.595
   63CHL1  H22A 5825   3.919   5.312   3.574
   63CHL1  H22B 5826   4.092   5.247   3.584
   63CHL1   C23 5827   4.034   5.400   3.740
   63CHL1  H23A 5828   4.121   5.465   3.761
   63CHL1  H23B 5829   3.940   5.458   3.749
   63CHL1   C24 5830   4.037   5.293   3.853
   63CHL1  H24A 5831   3.938   5.243   3.859
   63CHL1  H24B 5832   4.111   5.214   3.827
   63CHL1   C25 5833   4.052   5.350   4.005
   63CHL1   H25 5834   3.993   5.444   4.012
   63CHL1   C26 5835   3.997   5.239   4.094
   63CHL1  H26A 5836   4.019   5.253   4.202
   63CHL1  H26B 5837   3.886   5.237   4.095
   63CHL1  H26C 5838   4.027   5.138   4.061
   63CHL1   C27 5839   4.200   5.370   4.039
   63CHL1  H27A 5840   4.255   5.277   4.016
   63CHL1  H27B 5841   4.252   5.458   3.995
   63CHL1  H27C 5842   4.209   5.387   4.149
   64CHL1    C3 5843   2.785   2.654   2.694
   64CHL1    H3 5844   2.795   2.762   2.720
   64CHL1    O3 5845   2.814   2.629   2.558
   64CHL1   H3' 5846   2.878   2.696   2.534
   64CHL1    C4 5847   2.875   2.569   2.778
   64CHL1   H4A 5848   2.863   2.461   2.755
   64CHL1   H4B 5849   2.981   2.583   2.751
   64CHL1    C5 5850   2.850   2.598   2.918
   64CHL1    C6 5851   2.941   2.665   2.996
   64CHL1    H6 5852   3.035   2.694   2.947
   64CHL1    C7 5853   2.922   2.695   3.142
   64CHL1   H7A 5854   3.012   2.695   3.208
   64CHL1   H7B 5855   2.888   2.801   3.139
   64CHL1    C8 5856   2.816   2.611   3.207
   64CHL1    H8 5857   2.841   2.503   3.211
   64CHL1   C14 5858   2.778   2.664   3.345
   64CHL1   H14 5859   2.746   2.768   3.326
   64CHL1   C15 5860   2.891   2.665   3.454
   64CHL1  H15A 5861   2.940   2.570   3.485
   64CHL1  H15B 5862   2.961   2.749   3.435
   64CHL1   C16 5863   2.811   2.691   3.591
   64CHL1  H16A 5864   2.853   2.618   3.663
   64CHL1  H16B 5865   2.830   2.795   3.625
   64CHL1   C17 5866   2.659   2.672   3.553
   64CHL1   H17 5867   2.617   2.771   3.525
   64CHL1   C13 5868   2.658   2.599   3.419
   64CHL1   C18 5869   2.690   2.453   3.445
   64CHL1  H18A 5870   2.599   2.407   3.488
   64CHL1  H18B 5871   2.718   2.404   3.349
   64CHL1  H18C 5872   2.776   2.448   3.515
   64CHL1   C12 5873   2.533   2.615   3.327
   64CHL1  H12A 5874   2.440   2.570   3.366
   64CHL1  H12B 5875   2.522   2.725   3.315
   64CHL1   C11 5876   2.560   2.550   3.189
   64CHL1  H11A 5877   2.572   2.443   3.215
   64CHL1  H11B 5878   2.480   2.551   3.111
   64CHL1    C9 5879   2.690   2.609   3.118
   64CHL1    H9 5880   2.658   2.716   3.115
   64CHL1   C10 5881   2.713   2.556   2.973
   64CHL1   C19 5882   2.716   2.401   2.974
   64CHL1  H19A 5883   2.619   2.361   3.007
   64CHL1  H19B 5884   2.736   2.363   2.871
   64CHL1  H19C 5885   2.800   2.358   3.032
   64CHL1    C1 5886   2.608   2.614   2.878
   64CHL1   H1A 5887   2.508   2.569   2.896
   64CHL1   H1B 5888   2.596   2.722   2.905
   64CHL1    C2 5889   2.648   2.604   2.727
   64CHL1   H2A 5890   2.568   2.660   2.673
   64CHL1   H2B 5891   2.651   2.495   2.707
   64CHL1   C20 5892   2.587   2.620   3.677
   64CHL1   H20 5893   2.626   2.516   3.687
   64CHL1   C21 5894   2.432   2.612   3.655
   64CHL1  H21A 5895   2.385   2.700   3.605
   64CHL1  H21B 5896   2.385   2.602   3.755
   64CHL1  H21C 5897   2.409   2.527   3.587
   64CHL1   C22 5898   2.623   2.696   3.810
   64CHL1  H22A 5899   2.555   2.653   3.886
   64CHL1  H22B 5900   2.723   2.679   3.856
   64CHL1   C23 5901   2.602   2.848   3.801
   64CHL1  H23A 5902   2.672   2.894   3.728
   64CHL1  H23B 5903   2.499   2.873   3.768
   64CHL1   C24 5904   2.626   2.923   3.934
   64CHL1  H24A 5905   2.717   2.874   3.974
   64CHL1  H24B 5906   2.654   3.025   3.900
   64CHL1   C25 5907   2.521   2.913   4.040
   64CHL1   H25 5908   2.532   2.808   4.076
   64CHL1   C26 5909   2.534   3.007   4.161
   64CHL1  H26A 5910   2.608   2.980   4.239
   64CHL1  H26B 5911   2.555   3.113   4.138
   64CHL1  H26C 5912   2.441   3.010   4.222
   64CHL1   C27 5913   2.374   2.917   3.998
   64CHL1  H27A 5914   2.306   2.887   4.081
   64CHL1  H27B 5915   2.358   3.023   3.969
   64CHL1  H27C 5916   2.366   2.848   3.911
   65CHL1    C3 5917   0.489   0.553   2.694
   65CHL1    H3 5918   0.405   0.485   2.721
   65CHL1    O3 5919   0.483   0.570   2.553
   65CHL1   H3' 5920   0.545   0.641   2.536
   65CHL1    C4 5921   0.468   0.696   2.744
   65CHL1   H4A 5922   0.558   0.756   2.720
   65CHL1   H4B 5923   0.386   0.744   2.686
   65CHL1    C5 5924   0.478   0.710   2.897
   65CHL1    C6 5925   0.373   0.765   2.961
   65CHL1    H6 5926   0.281   0.791   2.906
   65CHL1    C7 5927   0.365   0.791   3.109
   65CHL1   H7A 5928   0.341   0.894   3.145
   65CHL1   H7B 5929   0.294   0.717   3.152
   65CHL1    C8 5930   0.505   0.762   3.185
   65CHL1    H8 5931   0.567   0.851   3.161
   65CHL1   C14 5932   0.486   0.746   3.333
   65CHL1   H14 5933   0.425   0.654   3.345
   65CHL1   C15 5934   0.427   0.858   3.412
   65CHL1  H15A 5935   0.476   0.955   3.389
   65CHL1  H15B 5936   0.319   0.867   3.386
   65CHL1   C16 5937   0.443   0.812   3.557
   65CHL1  H16A 5938   0.465   0.904   3.615
   65CHL1  H16B 5939   0.343   0.777   3.588
   65CHL1   C17 5940   0.548   0.697   3.557
   65CHL1   H17 5941   0.487   0.605   3.565
   65CHL1   C13 5942   0.612   0.709   3.411
   65CHL1   C18 5943   0.716   0.820   3.394
   65CHL1  H18A 5944   0.808   0.783   3.444
   65CHL1  H18B 5945   0.723   0.837   3.284
   65CHL1  H18C 5946   0.681   0.917   3.435
   65CHL1   C12 5947   0.677   0.582   3.345
   65CHL1  H12A 5948   0.770   0.563   3.403
   65CHL1  H12B 5949   0.606   0.500   3.368
   65CHL1   C11 5950   0.709   0.590   3.200
   65CHL1  H11A 5951   0.794   0.661   3.189
   65CHL1  H11B 5952   0.728   0.490   3.154
   65CHL1    C9 5953   0.579   0.641   3.128
   65CHL1    H9 5954   0.514   0.552   3.143
   65CHL1   C10 5955   0.597   0.650   2.969
   65CHL1   C19 5956   0.724   0.733   2.945
   65CHL1  H19A 5957   0.716   0.823   3.009
   65CHL1  H19B 5958   0.817   0.681   2.977
   65CHL1  H19C 5959   0.734   0.754   2.837
   65CHL1    C1 5960   0.617   0.516   2.906
   65CHL1   H1A 5961   0.704   0.459   2.947
   65CHL1   H1B 5962   0.535   0.450   2.941
   65CHL1    C2 5963   0.621   0.510   2.749
   65CHL1   H2A 5964   0.641   0.404   2.725
   65CHL1   H2B 5965   0.707   0.575   2.721
   65CHL1   C20 5966   0.648   0.712   3.679
   65CHL1   H20 5967   0.695   0.813   3.672
   65CHL1   C21 5968   0.760   0.607   3.685
   65CHL1  H21A 5969   0.702   0.514   3.701
   65CHL1  H21B 5970   0.835   0.625   3.765
   65CHL1  H21C 5971   0.822   0.587   3.594
   65CHL1   C22 5972   0.571   0.698   3.810
   65CHL1  H22A 5973   0.476   0.756   3.803
   65CHL1  H22B 5974   0.530   0.594   3.820
   65CHL1   C23 5975   0.653   0.721   3.940
   65CHL1  H23A 5976   0.734   0.647   3.958
   65CHL1  H23B 5977   0.702   0.819   3.924
   65CHL1   C24 5978   0.567   0.741   4.063
   65CHL1  H24A 5979   0.490   0.817   4.037
   65CHL1  H24B 5980   0.516   0.648   4.097
   65CHL1   C25 5981   0.625   0.821   4.179
   65CHL1   H25 5982   0.661   0.918   4.138
   65CHL1   C26 5983   0.526   0.838   4.297
   65CHL1  H26A 5984   0.487   0.743   4.340
   65CHL1  H26B 5985   0.579   0.887   4.381
   65CHL1  H26C 5986   0.433   0.886   4.259
   65CHL1   C27 5987   0.763   0.760   4.228
   65CHL1  H27A 5988   0.808   0.836   4.295
   65CHL1  H27B 5989   0.750   0.658   4.270
   65CHL1  H27C 5990   0.828   0.742   4.140
   66CHL1    C3 5991   4.040   1.810   2.778
   66CHL1    H3 5992   3.931   1.829   2.786
   66CHL1    O3 5993   4.073   1.855   2.647
   66CHL1   H3' 5994   4.141   1.923   2.656
   66CHL1    C4 5995   4.133   1.887   2.883
   66CHL1   H4A 5996   4.237   1.853   2.865
   66CHL1   H4B 5997   4.130   1.995   2.858
   66CHL1    C5 5998   4.098   1.838   3.020
   66CHL1    C6 5999   4.061   1.924   3.118
   66CHL1    H6 6000   4.048   2.031   3.096
   66CHL1    C7 6001   4.023   1.886   3.258
   66CHL1   H7A 6002   4.079   1.940   3.338
   66CHL1   H7B 6003   3.914   1.900   3.273
   66CHL1    C8 6004   4.052   1.742   3.291
   66CHL1    H8 6005   4.160   1.739   3.317
   66CHL1   C14 6006   3.964   1.697   3.409
   66CHL1   H14 6007   3.867   1.701   3.355
   66CHL1   C15 6008   3.955   1.787   3.528
   66CHL1  H15A 6009   4.061   1.811   3.551
   66CHL1  H15B 6010   3.912   1.887   3.507
   66CHL1   C16 6011   3.896   1.697   3.639
   66CHL1  H16A 6012   3.971   1.696   3.721
   66CHL1  H16B 6013   3.798   1.738   3.673
   66CHL1   C17 6014   3.888   1.549   3.583
   66CHL1   H17 6015   3.789   1.528   3.539
   66CHL1   C13 6016   3.993   1.557   3.470
   66CHL1   C18 6017   4.141   1.555   3.507
   66CHL1  H18A 6018   4.166   1.460   3.559
   66CHL1  H18B 6019   4.207   1.573   3.420
   66CHL1  H18C 6020   4.165   1.634   3.582
   66CHL1   C12 6021   3.971   1.449   3.354
   66CHL1  H12A 6022   3.993   1.349   3.397
   66CHL1  H12B 6023   3.861   1.457   3.340
   66CHL1   C11 6024   4.042   1.497   3.224
   66CHL1  H11A 6025   4.148   1.473   3.246
   66CHL1  H11B 6026   4.000   1.435   3.142
   66CHL1    C9 6027   4.024   1.646   3.178
   66CHL1    H9 6028   3.921   1.660   3.140
   66CHL1   C10 6029   4.102   1.687   3.053
   66CHL1   C19 6030   4.248   1.655   3.060
   66CHL1  H19A 6031   4.290   1.708   3.147
   66CHL1  H19B 6032   4.247   1.544   3.071
   66CHL1  H19C 6033   4.314   1.679   2.974
   66CHL1    C1 6034   4.045   1.610   2.932
   66CHL1   H1A 6035   4.076   1.503   2.926
   66CHL1   H1B 6036   3.936   1.605   2.954
   66CHL1    C2 6037   4.078   1.661   2.796
   66CHL1   H2A 6038   4.030   1.601   2.716
   66CHL1   H2B 6039   4.188   1.656   2.779
   66CHL1   C20 6040   3.912   1.457   3.702
   66CHL1   H20 6041   4.016   1.463   3.742
   66CHL1   C21 6042   3.893   1.312   3.650
   66CHL1  H21A 6043   3.881   1.253   3.743
   66CHL1  H21B 6044   3.978   1.270   3.593
   66CHL1  H21C 6045   3.800   1.290   3.593
   66CHL1   C22 6046   3.813   1.492   3.816
   66CHL1  H22A 6047   3.839   1.435   3.907
   66CHL1  H22B 6048   3.820   1.598   3.848
   66CHL1   C23 6049   3.658   1.464   3.796
   66CHL1  H23A 6050   3.628   1.512   3.700
   66CHL1  H23B 6051   3.648   1.354   3.791
   66CHL1   C24 6052   3.580   1.524   3.908
   66CHL1  H24A 6053   3.646   1.536   3.997
   66CHL1  H24B 6054   3.555   1.629   3.884
   66CHL1   C25 6055   3.463   1.444   3.958
   66CHL1   H25 6056   3.503   1.343   3.984
   66CHL1   C26 6057   3.412   1.502   4.094
   66CHL1  H26A 6058   3.495   1.515   4.167
   66CHL1  H26B 6059   3.373   1.606   4.087
   66CHL1  H26C 6060   3.336   1.431   4.133
   66CHL1   C27 6061   3.352   1.440   3.850
   66CHL1  H27A 6062   3.264   1.378   3.878
   66CHL1  H27B 6063   3.399   1.415   3.753
   66CHL1  H27C 6064   3.306   1.540   3.840
   67CHL1    C3 6065   3.968   6.259   2.862
   67CHL1    H3 6066   3.917   6.338   2.921
   67CHL1    O3 6067   3.936   6.292   2.722
   67CHL1   H3' 6068   3.958   6.385   2.717
   67CHL1    C4 6069   4.119   6.249   2.887
   67CHL1   H4A 6070   4.157   6.174   2.814
   67CHL1   H4B 6071   4.182   6.337   2.862
   67CHL1    C5 6072   4.148   6.214   3.030
   67CHL1    C6 6073   4.222   6.296   3.104
   67CHL1    H6 6074   4.256   6.394   3.067
   67CHL1    C7 6075   4.256   6.277   3.248
   67CHL1   H7A 6076   4.367   6.279   3.246
   67CHL1   H7B 6077   4.218   6.368   3.298
   67CHL1    C8 6078   4.208   6.141   3.300
   67CHL1    H8 6079   4.287   6.069   3.271
   67CHL1   C14 6080   4.206   6.136   3.453
   67CHL1   H14 6081   4.134   6.216   3.480
   67CHL1   C15 6082   4.342   6.172   3.521
   67CHL1  H15A 6083   4.426   6.120   3.470
   67CHL1  H15B 6084   4.364   6.280   3.508
   67CHL1   C16 6085   4.331   6.117   3.662
   67CHL1  H16A 6086   4.410   6.040   3.679
   67CHL1  H16B 6087   4.338   6.190   3.745
   67CHL1   C17 6088   4.195   6.034   3.663
   67CHL1   H17 6089   4.118   6.098   3.712
   67CHL1   C13 6090   4.155   6.013   3.515
   67CHL1   C18 6091   4.237   5.890   3.470
   67CHL1  H18A 6092   4.184   5.793   3.481
   67CHL1  H18B 6093   4.272   5.898   3.364
   67CHL1  H18C 6094   4.333   5.874   3.525
   67CHL1   C12 6095   4.006   6.015   3.475
   67CHL1  H12A 6096   3.955   5.930   3.526
   67CHL1  H12B 6097   3.958   6.106   3.518
   67CHL1   C11 6098   3.991   5.992   3.325
   67CHL1  H11A 6099   4.044   5.898   3.302
   67CHL1  H11B 6100   3.885   5.980   3.294
   67CHL1    C9 6101   4.070   6.103   3.248
   67CHL1    H9 6102   4.007   6.192   3.266
   67CHL1   C10 6103   4.065   6.098   3.093
   67CHL1   C19 6104   4.117   5.956   3.053
   67CHL1  H19A 6105   4.051   5.873   3.084
   67CHL1  H19B 6106   4.119   5.950   2.942
   67CHL1  H19C 6107   4.220   5.939   3.092
   67CHL1    C1 6108   3.919   6.088   3.047
   67CHL1   H1A 6109   3.878   5.986   3.064
   67CHL1   H1B 6110   3.853   6.157   3.104
   67CHL1    C2 6111   3.903   6.124   2.893
   67CHL1   H2A 6112   3.794   6.134   2.871
   67CHL1   H2B 6113   3.947   6.040   2.835
   67CHL1   C20 6114   4.200   5.915   3.760
   67CHL1   H20 6115   4.262   5.828   3.729
   67CHL1   C21 6116   4.056   5.849   3.770
   67CHL1  H21A 6117   4.031   5.808   3.671
   67CHL1  H21B 6118   3.975   5.908   3.818
   67CHL1  H21C 6119   4.067   5.767   3.844
   67CHL1   C22 6120   4.251   5.960   3.900
   67CHL1  H22A 6121   4.347   6.011   3.879
   67CHL1  H22B 6122   4.172   6.028   3.939
   67CHL1   C23 6123   4.285   5.847   3.998
   67CHL1  H23A 6124   4.231   5.753   3.974
   67CHL1  H23B 6125   4.394   5.824   3.991
   67CHL1   C24 6126   4.256   5.874   4.152
   67CHL1  H24A 6127   4.311   5.969   4.169
   67CHL1  H24B 6128   4.147   5.891   4.166
   67CHL1   C25 6129   4.305   5.764   4.251
   67CHL1   H25 6130   4.246   5.672   4.230
   67CHL1   C26 6131   4.454   5.733   4.234
   67CHL1  H26A 6132   4.488   5.651   4.302
   67CHL1  H26B 6133   4.470   5.690   4.133
   67CHL1  H26C 6134   4.522   5.817   4.260
   67CHL1   C27 6135   4.275   5.799   4.401
   67CHL1  H27A 6136   4.336   5.887   4.429
   67CHL1  H27B 6137   4.169   5.822   4.423
   67CHL1  H27C 6138   4.312   5.722   4.472
   68CHL1    C3 6139   1.853   5.187   2.816
   68CHL1    H3 6140   1.790   5.095   2.814
   68CHL1    O3 6141   1.870   5.218   2.676
   68CHL1   H3' 6142   1.911   5.304   2.681
   68CHL1    C4 6143   1.786   5.302   2.890
   68CHL1   H4A 6144   1.860   5.384   2.898
   68CHL1   H4B 6145   1.700   5.339   2.831
   68CHL1    C5 6146   1.754   5.275   3.033
   68CHL1    C6 6147   1.630   5.284   3.080
   68CHL1    H6 6148   1.550   5.328   3.019
   68CHL1    C7 6149   1.591   5.247   3.225
   68CHL1   H7A 6150   1.514   5.317   3.264
   68CHL1   H7B 6151   1.528   5.155   3.217
   68CHL1    C8 6152   1.713   5.235   3.318
   68CHL1    H8 6153   1.751   5.339   3.328
   68CHL1   C14 6154   1.677   5.180   3.451
   68CHL1   H14 6155   1.648   5.074   3.433
   68CHL1   C15 6156   1.563   5.242   3.529
   68CHL1  H15A 6157   1.557   5.352   3.511
   68CHL1  H15B 6158   1.465   5.204   3.492
   68CHL1   C16 6159   1.589   5.195   3.670
   68CHL1  H16A 6160   1.603   5.280   3.741
   68CHL1  H16B 6161   1.505   5.129   3.702
   68CHL1   C17 6162   1.725   5.113   3.675
   68CHL1   H17 6163   1.690   5.008   3.663
   68CHL1   C13 6164   1.800   5.163   3.545
   68CHL1   C18 6165   1.882   5.296   3.567
   68CHL1  H18A 6166   1.810   5.363   3.620
   68CHL1  H18B 6167   1.971   5.281   3.632
   68CHL1  H18C 6168   1.890   5.334   3.463
   68CHL1   C12 6169   1.892   5.061   3.480
   68CHL1  H12A 6170   1.986   5.040   3.536
   68CHL1  H12B 6171   1.840   4.963   3.471
   68CHL1   C11 6172   1.928   5.105   3.337
   68CHL1  H11A 6173   1.997   5.191   3.344
   68CHL1  H11B 6174   1.994   5.021   3.305
   68CHL1    C9 6175   1.818   5.152   3.243
   68CHL1    H9 6176   1.763   5.059   3.215
   68CHL1   C10 6177   1.869   5.206   3.109
   68CHL1   C19 6178   1.960   5.333   3.135
   68CHL1  H19A 6179   2.049   5.302   3.194
   68CHL1  H19B 6180   1.994   5.381   3.040
   68CHL1  H19C 6181   1.902   5.399   3.203
   68CHL1    C1 6182   1.958   5.104   3.035
   68CHL1   H1A 6183   2.058   5.098   3.084
   68CHL1   H1B 6184   1.911   5.003   3.039
   68CHL1    C2 6185   1.985   5.148   2.893
   68CHL1   H2A 6186   2.039   5.071   2.835
   68CHL1   H2B 6187   2.054   5.234   2.886
   68CHL1   C20 6188   1.792   5.127   3.815
   68CHL1   H20 6189   1.810   5.235   3.832
   68CHL1   C21 6190   1.924   5.047   3.815
   68CHL1  H21A 6191   1.988   5.074   3.728
   68CHL1  H21B 6192   1.896   4.940   3.810
   68CHL1  H21C 6193   1.986   5.055   3.907
   68CHL1   C22 6194   1.699   5.090   3.929
   68CHL1  H22A 6195   1.601   5.143   3.920
   68CHL1  H22B 6196   1.677   4.982   3.919
   68CHL1   C23 6197   1.752   5.128   4.068
   68CHL1  H23A 6198   1.825   5.047   4.092
   68CHL1  H23B 6199   1.814   5.220   4.055
   68CHL1   C24 6200   1.645   5.127   4.181
   68CHL1  H24A 6201   1.581   5.037   4.167
   68CHL1  H24B 6202   1.683   5.125   4.285
   68CHL1   C25 6203   1.548   5.243   4.176
   68CHL1   H25 6204   1.465   5.234   4.102
   68CHL1   C26 6205   1.464   5.243   4.311
   68CHL1  H26A 6206   1.393   5.158   4.309
   68CHL1  H26B 6207   1.533   5.248   4.398
   68CHL1  H26C 6208   1.403   5.336   4.310
   68CHL1   C27 6209   1.616   5.385   4.151
   68CHL1  H27A 6210   1.658   5.397   4.049
   68CHL1  H27B 6211   1.540   5.466   4.152
   68CHL1  H27C 6212   1.699   5.408   4.221
   69CHL1    C3 6213   0.641   2.559   2.687
   69CHL1    H3 6214   0.701   2.467   2.706
   69CHL1    O3 6215   0.599   2.547   2.550
   69CHL1   H3' 6216   0.624   2.629   2.506
   69CHL1    C4 6217   0.524   2.570   2.774
   69CHL1   H4A 6218   0.463   2.660   2.751
   69CHL1   H4B 6219   0.457   2.483   2.757
   69CHL1    C5 6220   0.559   2.584   2.917
   69CHL1    C6 6221   0.514   2.499   3.009
   69CHL1    H6 6222   0.431   2.432   2.984
   69CHL1    C7 6223   0.551   2.511   3.151
   69CHL1   H7A 6224   0.458   2.505   3.213
   69CHL1   H7B 6225   0.612   2.419   3.164
   69CHL1    C8 6226   0.629   2.625   3.200
   69CHL1    H8 6227   0.565   2.716   3.212
   69CHL1   C14 6228   0.706   2.597   3.329
   69CHL1   H14 6229   0.780   2.517   3.303
   69CHL1   C15 6230   0.622   2.528   3.444
   69CHL1  H15A 6231   0.520   2.571   3.446
   69CHL1  H15B 6232   0.623   2.419   3.422
   69CHL1   C16 6233   0.697   2.573   3.573
   69CHL1  H16A 6234   0.624   2.632   3.631
   69CHL1  H16B 6235   0.719   2.477   3.623
   69CHL1   C17 6236   0.826   2.642   3.525
   69CHL1   H17 6237   0.904   2.567   3.502
   69CHL1   C13 6238   0.797   2.705   3.392
   69CHL1   C18 6239   0.702   2.828   3.426
   69CHL1  H18A 6240   0.659   2.880   3.337
   69CHL1  H18B 6241   0.619   2.788   3.487
   69CHL1  H18C 6242   0.755   2.902   3.490
   69CHL1   C12 6243   0.900   2.734   3.280
   69CHL1  H12A 6244   0.969   2.816   3.308
   69CHL1  H12B 6245   0.952   2.639   3.257
   69CHL1   C11 6246   0.833   2.783   3.143
   69CHL1  H11A 6247   0.775   2.877   3.155
   69CHL1  H11B 6248   0.912   2.791   3.066
   69CHL1    C9 6249   0.735   2.671   3.091
   69CHL1    H9 6250   0.806   2.585   3.080
   69CHL1   C10 6251   0.669   2.691   2.949
   69CHL1   C19 6252   0.597   2.832   2.951
   69CHL1  H19A 6253   0.543   2.844   2.854
   69CHL1  H19B 6254   0.530   2.819   3.039
   69CHL1  H19C 6255   0.669   2.916   2.957
   69CHL1    C1 6256   0.780   2.702   2.845
   69CHL1   H1A 6257   0.833   2.798   2.856
   69CHL1   H1B 6258   0.851   2.620   2.871
   69CHL1    C2 6259   0.735   2.679   2.697
   69CHL1   H2A 6260   0.822   2.667   2.629
   69CHL1   H2B 6261   0.678   2.772   2.674
   69CHL1   C20 6262   0.882   2.723   3.633
   69CHL1   H20 6263   0.805   2.787   3.681
   69CHL1   C21 6264   1.005   2.797   3.577
   69CHL1  H21A 6265   0.976   2.874   3.502
   69CHL1  H21B 6266   1.078   2.725   3.535
   69CHL1  H21C 6267   1.058   2.850   3.659
   69CHL1   C22 6268   0.935   2.630   3.756
   69CHL1  H22A 6269   0.848   2.571   3.792
   69CHL1  H22B 6270   1.011   2.559   3.718
   69CHL1   C23 6271   0.990   2.705   3.883
   69CHL1  H23A 6272   1.095   2.737   3.868
   69CHL1  H23B 6273   0.928   2.796   3.898
   69CHL1   C24 6274   0.988   2.621   4.010
   69CHL1  H24A 6275   0.902   2.552   4.022
   69CHL1  H24B 6276   1.072   2.548   4.005
   69CHL1   C25 6277   1.000   2.691   4.146
   69CHL1   H25 6278   1.021   2.617   4.226
   69CHL1   C26 6279   1.120   2.789   4.149
   69CHL1  H26A 6280   1.128   2.873   4.077
   69CHL1  H26B 6281   1.117   2.839   4.248
   69CHL1  H26C 6282   1.217   2.734   4.148
   69CHL1   C27 6283   0.872   2.769   4.180
   69CHL1  H27A 6284   0.883   2.827   4.274
   69CHL1  H27B 6285   0.863   2.849   4.103
   69CHL1  H27C 6286   0.781   2.706   4.177
   70CHL1    C3 6287   2.213   0.525   2.839
   70CHL1    H3 6288   2.290   0.593   2.796
   70CHL1    O3 6289   2.137   0.473   2.736
   70CHL1   H3' 6290   2.191   0.450   2.660
   70CHL1    C4 6291   2.266   0.403   2.907
   70CHL1   H4A 6292   2.185   0.329   2.929
   70CHL1   H4B 6293   2.331   0.347   2.836
   70CHL1    C5 6294   2.341   0.447   3.023
   70CHL1    C6 6295   2.471   0.416   3.046
   70CHL1    H6 6296   2.523   0.346   2.979
   70CHL1    C7 6297   2.555   0.435   3.172
   70CHL1   H7A 6298   2.600   0.340   3.205
   70CHL1   H7B 6299   2.635   0.511   3.162
   70CHL1    C8 6300   2.459   0.478   3.290
   70CHL1    H8 6301   2.407   0.387   3.328
   70CHL1   C14 6302   2.543   0.541   3.405
   70CHL1   H14 6303   2.595   0.626   3.357
   70CHL1   C15 6304   2.647   0.451   3.468
   70CHL1  H15A 6305   2.616   0.345   3.458
   70CHL1  H15B 6306   2.731   0.458   3.396
   70CHL1   C16 6307   2.670   0.510   3.608
   70CHL1  H16A 6308   2.645   0.434   3.685
   70CHL1  H16B 6309   2.775   0.545   3.613
   70CHL1   C17 6310   2.571   0.635   3.626
   70CHL1   H17 6311   2.617   0.722   3.574
   70CHL1   C13 6312   2.459   0.598   3.523
   70CHL1   C18 6313   2.368   0.496   3.589
   70CHL1  H18A 6314   2.289   0.449   3.526
   70CHL1  H18B 6315   2.424   0.411   3.633
   70CHL1  H18C 6316   2.312   0.556   3.663
   70CHL1   C12 6317   2.368   0.713   3.464
   70CHL1  H12A 6318   2.302   0.750   3.545
   70CHL1  H12B 6319   2.424   0.801   3.424
   70CHL1   C11 6320   2.281   0.673   3.351
   70CHL1  H11A 6321   2.196   0.617   3.395
   70CHL1  H11B 6322   2.235   0.765   3.309
   70CHL1    C9 6323   2.357   0.589   3.238
   70CHL1    H9 6324   2.417   0.668   3.189
   70CHL1   C10 6325   2.260   0.533   3.123
   70CHL1   C19 6326   2.139   0.463   3.187
   70CHL1  H19A 6327   2.066   0.405   3.125
   70CHL1  H19B 6328   2.171   0.400   3.273
   70CHL1  H19C 6329   2.078   0.548   3.225
   70CHL1    C1 6330   2.204   0.655   3.051
   70CHL1   H1A 6331   2.139   0.716   3.117
   70CHL1   H1B 6332   2.283   0.727   3.019
   70CHL1    C2 6333   2.125   0.615   2.920
   70CHL1   H2A 6334   2.105   0.708   2.863
   70CHL1   H2B 6335   2.027   0.568   2.944
   70CHL1   C20 6336   2.533   0.695   3.766
   70CHL1   H20 6337   2.453   0.772   3.762
   70CHL1   C21 6338   2.653   0.767   3.831
   70CHL1  H21A 6339   2.699   0.842   3.763
   70CHL1  H21B 6340   2.732   0.694   3.860
   70CHL1  H21C 6341   2.627   0.804   3.933
   70CHL1   C22 6342   2.474   0.606   3.881
   70CHL1  H22A 6343   2.421   0.519   3.839
   70CHL1  H22B 6344   2.559   0.553   3.930
   70CHL1   C23 6345   2.388   0.680   3.987
   70CHL1  H23A 6346   2.446   0.745   4.057
   70CHL1  H23B 6347   2.329   0.760   3.938
   70CHL1   C24 6348   2.305   0.578   4.069
   70CHL1  H24A 6349   2.214   0.555   4.010
   70CHL1  H24B 6350   2.357   0.482   4.088
   70CHL1   C25 6351   2.254   0.633   4.205
   70CHL1   H25 6352   2.349   0.639   4.262
   70CHL1   C26 6353   2.186   0.775   4.201
   70CHL1  H26A 6354   2.101   0.782   4.131
   70CHL1  H26B 6355   2.156   0.809   4.303
   70CHL1  H26C 6356   2.263   0.847   4.167
   70CHL1   C27 6357   2.166   0.528   4.286
   70CHL1  H27A 6358   2.120   0.585   4.369
   70CHL1  H27B 6359   2.087   0.482   4.221
   70CHL1  H27C 6360   2.231   0.448   4.329
   71CHL1    C3 6361   5.794   6.061   2.611
   71CHL1    H3 6362   5.688   6.085   2.632
   71CHL1    O3 6363   5.801   6.021   2.472
   71CHL1   H3' 6364   5.719   6.055   2.435
   71CHL1    C4 6365   5.868   6.193   2.634
   71CHL1   H4A 6366   5.965   6.198   2.580
   71CHL1   H4B 6367   5.814   6.269   2.575
   71CHL1    C5 6368   5.878   6.228   2.785
   71CHL1    C6 6369   5.851   6.343   2.825
   71CHL1    H6 6370   5.816   6.408   2.744
   71CHL1    C7 6371   5.849   6.391   2.966
   71CHL1   H7A 6372   5.890   6.493   2.984
   71CHL1   H7B 6373   5.742   6.389   2.997
   71CHL1    C8 6374   5.913   6.293   3.065
   71CHL1    H8 6375   6.022   6.312   3.051
   71CHL1   C14 6376   5.873   6.322   3.212
   71CHL1   H14 6377   5.765   6.299   3.224
   71CHL1   C15 6378   5.882   6.464   3.267
   71CHL1  H15A 6379   5.975   6.515   3.233
   71CHL1  H15B 6380   5.800   6.536   3.243
   71CHL1   C16 6381   5.889   6.444   3.422
   71CHL1  H16A 6382   5.966   6.511   3.466
   71CHL1  H16B 6383   5.787   6.475   3.452
   71CHL1   C17 6384   5.904   6.292   3.446
   71CHL1   H17 6385   5.802   6.254   3.464
   71CHL1   C13 6386   5.952   6.235   3.314
   71CHL1   C18 6387   6.103   6.261   3.294
   71CHL1  H18A 6388   6.167   6.195   3.356
   71CHL1  H18B 6389   6.140   6.232   3.193
   71CHL1  H18C 6390   6.120   6.368   3.316
   71CHL1   C12 6391   5.909   6.086   3.282
   71CHL1  H12A 6392   5.950   6.008   3.350
   71CHL1  H12B 6393   5.800   6.070   3.299
   71CHL1   C11 6394   5.937   6.042   3.141
   71CHL1  H11A 6395   6.046   6.025   3.130
   71CHL1  H11B 6396   5.893   5.940   3.133
   71CHL1    C9 6397   5.886   6.143   3.031
   71CHL1    H9 6398   5.775   6.135   3.031
   71CHL1   C10 6399   5.916   6.107   2.881
   71CHL1   C19 6400   6.074   6.089   2.868
   71CHL1  H19A 6401   6.105   6.083   2.761
   71CHL1  H19B 6402   6.121   6.176   2.919
   71CHL1  H19C 6403   6.112   5.998   2.918
   71CHL1    C1 6404   5.846   5.981   2.843
   71CHL1   H1A 6405   5.894   5.895   2.894
   71CHL1   H1B 6406   5.740   5.986   2.875
   71CHL1    C2 6407   5.856   5.949   2.690
   71CHL1   H2A 6408   5.780   5.869   2.677
   71CHL1   H2B 6409   5.953   5.908   2.655
   71CHL1   C20 6410   5.978   6.261   3.575
   71CHL1   H20 6411   6.082   6.299   3.575
   71CHL1   C21 6412   5.990   6.109   3.608
   71CHL1  H21A 6413   6.062   6.085   3.689
   71CHL1  H21B 6414   6.026   6.060   3.515
   71CHL1  H21C 6415   5.897   6.055   3.635
   71CHL1   C22 6416   5.910   6.335   3.699
   71CHL1  H22A 6417   5.895   6.442   3.673
   71CHL1  H22B 6418   5.806   6.299   3.719
   71CHL1   C23 6419   5.984   6.346   3.830
   71CHL1  H23A 6420   6.015   6.246   3.868
   71CHL1  H23B 6421   6.074   6.411   3.824
   71CHL1   C24 6422   5.890   6.398   3.941
   71CHL1  H24A 6423   5.803   6.329   3.941
   71CHL1  H24B 6424   5.937   6.385   4.041
   71CHL1   C25 6425   5.845   6.540   3.942
   71CHL1   H25 6426   5.801   6.570   3.845
   71CHL1   C26 6427   5.755   6.566   4.064
   71CHL1  H26A 6428   5.682   6.483   4.065
   71CHL1  H26B 6429   5.803   6.563   4.164
   71CHL1  H26C 6430   5.702   6.663   4.062
   71CHL1   C27 6431   5.958   6.649   3.948
   71CHL1  H27A 6432   6.025   6.645   4.037
   71CHL1  H27B 6433   6.018   6.655   3.855
   71CHL1  H27C 6434   5.899   6.741   3.966
   72CHL1    C3 6435   6.447   4.576   2.629
   72CHL1    H3 6436   6.451   4.683   2.597
   72CHL1    O3 6437   6.415   4.499   2.522
   72CHL1   H3' 6438   6.323   4.509   2.496
   72CHL1    C4 6439   6.587   4.541   2.692
   72CHL1   H4A 6440   6.581   4.432   2.715
   72CHL1   H4B 6441   6.658   4.562   2.610
   72CHL1    C5 6442   6.608   4.623   2.827
   72CHL1    C6 6443   6.710   4.702   2.853
   72CHL1    H6 6444   6.793   4.703   2.780
   72CHL1    C7 6445   6.739   4.759   2.989
   72CHL1   H7A 6446   6.847   4.766   3.015
   72CHL1   H7B 6447   6.728   4.869   2.997
   72CHL1    C8 6448   6.651   4.704   3.100
   72CHL1    H8 6449   6.692   4.607   3.137
   72CHL1   C14 6450   6.655   4.792   3.224
   72CHL1   H14 6451   6.614   4.891   3.197
   72CHL1   C15 6452   6.792   4.831   3.283
   72CHL1  H15A 6453   6.872   4.753   3.287
   72CHL1  H15B 6454   6.839   4.911   3.222
   72CHL1   C16 6455   6.763   4.875   3.424
   72CHL1  H16A 6456   6.825   4.822   3.501
   72CHL1  H16B 6457   6.783   4.984   3.434
   72CHL1   C17 6458   6.611   4.847   3.450
   72CHL1   H17 6459   6.554   4.941   3.433
   72CHL1   C13 6460   6.570   4.743   3.345
   72CHL1   C18 6461   6.616   4.604   3.394
   72CHL1  H18A 6462   6.574   4.527   3.326
   72CHL1  H18B 6463   6.723   4.592   3.421
   72CHL1  H18C 6464   6.575   4.583   3.496
   72CHL1   C12 6465   6.419   4.745   3.301
   72CHL1  H12A 6466   6.342   4.717   3.376
   72CHL1  H12B 6467   6.399   4.852   3.278
   72CHL1   C11 6468   6.399   4.677   3.163
   72CHL1  H11A 6469   6.389   4.568   3.182
   72CHL1  H11B 6470   6.303   4.704   3.113
   72CHL1    C9 6471   6.508   4.688   3.050
   72CHL1    H9 6472   6.493   4.787   3.001
   72CHL1   C10 6473   6.491   4.598   2.930
   72CHL1   C19 6474   6.507   4.453   2.980
   72CHL1  H19A 6475   6.484   4.381   2.898
   72CHL1  H19B 6476   6.612   4.435   3.011
   72CHL1  H19C 6477   6.439   4.422   3.062
   72CHL1    C1 6478   6.349   4.621   2.866
   72CHL1   H1A 6479   6.268   4.588   2.934
   72CHL1   H1B 6480   6.328   4.730   2.852
   72CHL1    C2 6481   6.332   4.552   2.728
   72CHL1   H2A 6482   6.240   4.593   2.681
   72CHL1   H2B 6483   6.317   4.446   2.758
   72CHL1   C20 6484   6.591   4.818   3.603
   72CHL1   H20 6485   6.651   4.730   3.635
   72CHL1   C21 6486   6.439   4.785   3.621
   72CHL1  H21A 6487   6.382   4.865   3.569
   72CHL1  H21B 6488   6.413   4.775   3.729
   72CHL1  H21C 6489   6.411   4.692   3.568
   72CHL1   C22 6490   6.628   4.939   3.694
   72CHL1  H22A 6491   6.725   4.981   3.659
   72CHL1  H22B 6492   6.559   5.021   3.664
   72CHL1   C23 6493   6.653   4.912   3.839
   72CHL1  H23A 6494   6.557   4.890   3.891
   72CHL1  H23B 6495   6.710   4.818   3.858
   72CHL1   C24 6496   6.726   5.022   3.914
   72CHL1  H24A 6497   6.824   5.044   3.866
   72CHL1  H24B 6498   6.670   5.118   3.915
   72CHL1   C25 6499   6.746   4.994   4.066
   72CHL1   H25 6500   6.790   4.893   4.078
   72CHL1   C26 6501   6.850   5.093   4.122
   72CHL1  H26A 6502   6.874   5.056   4.224
   72CHL1  H26B 6503   0.051   5.096   4.055
   72CHL1  H26C 6504   6.805   5.192   4.143
   72CHL1   C27 6505   6.618   4.994   4.161
   72CHL1  H27A 6506   6.641   4.950   4.260
   72CHL1  H27B 6507   6.580   5.098   4.172
   72CHL1  H27C 6508   6.539   4.932   4.112
   73CHL1    C3 6509   1.035   5.380   2.904
   73CHL1    H3 6510   1.137   5.425   2.906
   73CHL1    O3 6511   0.989   5.363   2.774
   73CHL1   H3' 6512   1.008   5.269   2.762
   73CHL1    C4 6513   1.041   5.249   2.982
   73CHL1   H4A 6514   0.952   5.186   2.957
   73CHL1   H4B 6515   1.128   5.203   2.930
   73CHL1    C5 6516   1.071   5.260   3.128
   73CHL1    C6 6517   1.175   5.199   3.187
   73CHL1    H6 6518   1.229   5.124   3.127
   73CHL1    C7 6519   1.209   5.212   3.334
   73CHL1   H7A 6520   1.223   5.119   3.393
   73CHL1   H7B 6521   1.305   5.267   3.343
   73CHL1    C8 6522   1.098   5.281   3.418
   73CHL1    H8 6523   1.015   5.208   3.430
   73CHL1   C14 6524   1.149   5.322   3.555
   73CHL1   H14 6525   1.238   5.385   3.534
   73CHL1   C15 6526   1.205   5.211   3.646
   73CHL1  H15A 6527   1.142   5.120   3.655
   73CHL1  H15B 6528   1.310   5.183   3.625
   73CHL1   C16 6529   1.211   5.289   3.779
   73CHL1  H16A 6530   1.166   5.222   3.855
   73CHL1  H16B 6531   1.320   5.291   3.803
   73CHL1   C17 6532   1.138   5.419   3.758
   73CHL1   H17 6533   1.216   5.496   3.735
   73CHL1   C13 6534   1.051   5.403   3.642
   73CHL1   C18 6535   0.933   5.312   3.678
   73CHL1  H18A 6536   0.862   5.365   3.745
   73CHL1  H18B 6537   0.865   5.283   3.595
   73CHL1  H18C 6538   0.968   5.221   3.731
   73CHL1   C12 6539   1.007   5.528   3.567
   73CHL1  H12A 6540   0.931   5.581   3.629
   73CHL1  H12B 6541   1.093   5.597   3.554
   73CHL1   C11 6542   0.955   5.498   3.429
   73CHL1  H11A 6543   0.850   5.474   3.452
   73CHL1  H11B 6544   0.950   5.598   3.379
   73CHL1    C9 6545   1.042   5.404   3.344
   73CHL1    H9 6546   1.126   5.472   3.320
   73CHL1   C10 6547   0.979   5.362   3.204
   73CHL1   C19 6548   0.841   5.292   3.221
   73CHL1  H19A 6549   0.768   5.370   3.251
   73CHL1  H19B 6550   0.809   5.236   3.130
   73CHL1  H19C 6551   0.850   5.216   3.302
   73CHL1    C1 6552   0.967   5.487   3.123
   73CHL1   H1A 6553   0.899   5.554   3.179
   73CHL1   H1B 6554   1.069   5.532   3.119
   73CHL1    C2 6555   0.934   5.475   2.976
   73CHL1   H2A 6556   0.933   5.575   2.928
   73CHL1   H2B 6557   0.837   5.427   2.952
   73CHL1   C20 6558   1.065   5.488   3.884
   73CHL1   H20 6559   0.972   5.533   3.844
   73CHL1   C21 6560   1.155   5.603   3.935
   73CHL1  H21A 6561   1.104   5.667   4.009
   73CHL1  H21B 6562   1.191   5.668   3.852
   73CHL1  H21C 6563   1.249   5.570   3.984
   73CHL1   C22 6564   1.035   5.386   4.003
   73CHL1  H22A 6565   0.973   5.300   3.970
   73CHL1  H22B 6566   1.133   5.342   4.033
   73CHL1   C23 6567   0.980   5.447   4.130
   73CHL1  H23A 6568   1.032   5.541   4.158
   73CHL1  H23B 6569   0.875   5.481   4.112
   73CHL1   C24 6570   0.985   5.361   4.251
   73CHL1  H24A 6571   0.924   5.274   4.221
   73CHL1  H24B 6572   1.084   5.316   4.278
   73CHL1   C25 6573   0.932   5.429   4.374
   73CHL1   H25 6574   0.847   5.489   4.336
   73CHL1   C26 6575   0.873   5.332   4.475
   73CHL1  H26A 6576   0.776   5.289   4.444
   73CHL1  H26B 6577   0.941   5.245   4.486
   73CHL1  H26C 6578   0.861   5.374   4.577
   73CHL1   C27 6579   1.039   5.529   4.433
   73CHL1  H27A 6580   1.118   5.455   4.458
   73CHL1  H27B 6581   1.073   5.610   4.366
   73CHL1  H27C 6582   1.000   5.571   4.528
   74CHL1    C3 6583   0.841   4.615   2.709
   74CHL1    H3 6584   0.768   4.698   2.712
   74CHL1    O3 6585   0.861   4.577   2.574
   74CHL1   H3' 6586   0.907   4.493   2.568
   74CHL1    C4 6587   0.969   4.650   2.781
   74CHL1   H4A 6588   1.047   4.570   2.777
   74CHL1   H4B 6589   1.003   4.736   2.719
   74CHL1    C5 6590   0.941   4.679   2.929
   74CHL1    C6 6591   0.958   4.804   2.970
   74CHL1    H6 6592   1.005   4.885   2.913
   74CHL1    C7 6593   0.922   4.853   3.110
   74CHL1   H7A 6594   0.992   4.925   3.157
   74CHL1   H7B 6595   0.828   4.912   3.121
   74CHL1    C8 6596   0.899   4.733   3.205
   74CHL1    H8 6597   0.994   4.679   3.226
   74CHL1   C14 6598   0.836   4.786   3.334
   74CHL1   H14 6599   0.733   4.823   3.313
   74CHL1   C15 6600   0.918   4.895   3.410
   74CHL1  H15A 6601   1.025   4.866   3.398
   74CHL1  H15B 6602   0.901   4.999   3.374
   74CHL1   C16 6603   0.870   4.892   3.555
   74CHL1  H16A 6604   0.961   4.861   3.610
   74CHL1  H16B 6605   0.842   4.991   3.595
   74CHL1   C17 6606   0.774   4.773   3.562
   74CHL1   H17 6607   0.677   4.816   3.529
   74CHL1   C13 6608   0.816   4.681   3.444
   74CHL1   C18 6609   0.950   4.609   3.477
   74CHL1  H18A 6610   1.032   4.678   3.507
   74CHL1  H18B 6611   0.945   4.548   3.569
   74CHL1  H18C 6612   0.982   4.543   3.393
   74CHL1   C12 6613   0.713   4.583   3.383
   74CHL1  H12A 6614   0.697   4.500   3.456
   74CHL1  H12B 6615   0.622   4.642   3.363
   74CHL1   C11 6616   0.763   4.520   3.251
   74CHL1  H11A 6617   0.849   4.450   3.266
   74CHL1  H11B 6618   0.683   4.456   3.208
   74CHL1    C9 6619   0.807   4.629   3.146
   74CHL1    H9 6620   0.710   4.680   3.135
   74CHL1   C10 6621   0.862   4.572   3.005
   74CHL1   C19 6622   0.946   4.452   3.028
   74CHL1  H19A 6623   0.994   4.414   2.935
   74CHL1  H19B 6624   1.027   4.474   3.100
   74CHL1  H19C 6625   0.882   4.372   3.072
   74CHL1    C1 6626   0.737   4.530   2.917
   74CHL1   H1A 6627   0.696   4.446   2.977
   74CHL1   H1B 6628   0.667   4.616   2.916
   74CHL1    C2 6629   0.770   4.499   2.776
   74CHL1   H2A 6630   0.678   4.489   2.715
   74CHL1   H2B 6631   0.823   4.402   2.761
   74CHL1   C20 6632   0.750   4.713   3.702
   74CHL1   H20 6633   0.825   4.634   3.725
   74CHL1   C21 6634   0.609   4.647   3.713
   74CHL1  H21A 6635   0.529   4.720   3.687
   74CHL1  H21B 6636   0.601   4.607   3.817
   74CHL1  H21C 6637   0.610   4.565   3.638
   74CHL1   C22 6638   0.761   4.820   3.818
   74CHL1  H22A 6639   0.756   4.765   3.915
   74CHL1  H22B 6640   0.859   4.871   3.820
   74CHL1   C23 6641   0.662   4.938   3.816
   74CHL1  H23A 6642   0.651   4.969   3.709
   74CHL1  H23B 6643   0.562   4.902   3.848
   74CHL1   C24 6644   0.705   5.057   3.905
   74CHL1  H24A 6645   0.737   5.032   4.008
   74CHL1  H24B 6646   0.780   5.127   3.862
   74CHL1   C25 6647   0.576   5.147   3.918
   74CHL1   H25 6648   0.486   5.087   3.945
   74CHL1   C26 6649   0.600   5.260   4.015
   74CHL1  H26A 6650   0.704   5.296   4.003
   74CHL1  H26B 6651   0.524   5.341   4.012
   74CHL1  H26C 6652   0.598   5.219   4.118
   74CHL1   C27 6653   0.529   5.202   3.782
   74CHL1  H27A 6654   0.506   5.117   3.715
   74CHL1  H27B 6655   0.433   5.256   3.800
   74CHL1  H27C 6656   0.600   5.272   3.733
   75CHL1    C3 6657   0.898   3.180   2.673
   75CHL1    H3 6658   0.792   3.150   2.687
   75CHL1    O3 6659   0.934   3.149   2.540
   75CHL1   H3' 6660   0.895   3.218   2.486
   75CHL1    C4 6661   0.910   3.327   2.696
   75CHL1   H4A 6662   1.018   3.351   2.688
   75CHL1   H4B 6663   0.861   3.386   2.616
   75CHL1    C5 6664   0.868   3.373   2.832
   75CHL1    C6 6665   0.772   3.464   2.847
   75CHL1    H6 6666   0.729   3.509   2.757
   75CHL1    C7 6667   0.723   3.517   2.981
   75CHL1   H7A 6668   0.712   3.627   2.983
   75CHL1   H7B 6669   0.620   3.482   3.007
   75CHL1    C8 6670   0.828   3.474   3.087
   75CHL1    H8 6671   0.924   3.530   3.086
   75CHL1   C14 6672   0.767   3.498   3.219
   75CHL1   H14 6673   0.676   3.435   3.227
   75CHL1   C15 6674   0.701   3.629   3.241
   75CHL1  H15A 6675   0.764   3.710   3.200
   75CHL1  H15B 6676   0.599   3.632   3.196
   75CHL1   C16 6677   0.700   3.636   3.401
   75CHL1  H16A 6678   0.761   3.726   3.426
   75CHL1  H16B 6679   0.600   3.656   3.444
   75CHL1   C17 6680   0.753   3.504   3.456
   75CHL1   H17 6681   0.662   3.441   3.448
   75CHL1   C13 6682   0.848   3.456   3.344
   75CHL1   C18 6683   0.988   3.537   3.353
   75CHL1  H18A 6684   0.977   3.648   3.358
   75CHL1  H18B 6685   1.052   3.506   3.438
   75CHL1  H18C 6686   1.044   3.529   3.258
   75CHL1   C12 6687   0.867   3.308   3.334
   75CHL1  H12A 6688   0.943   3.283   3.411
   75CHL1  H12B 6689   0.774   3.248   3.340
   75CHL1   C11 6690   0.937   3.268   3.203
   75CHL1  H11A 6691   1.042   3.304   3.210
   75CHL1  H11B 6692   0.941   3.157   3.196
   75CHL1    C9 6693   0.860   3.321   3.076
   75CHL1    H9 6694   0.762   3.268   3.084
   75CHL1   C10 6695   0.935   3.289   2.947
   75CHL1   C19 6696   1.081   3.336   2.966
   75CHL1  H19A 6697   1.134   3.253   3.016
   75CHL1  H19B 6698   1.130   3.357   2.869
   75CHL1  H19C 6699   1.090   3.422   3.036
   75CHL1    C1 6700   0.943   3.140   2.908
   75CHL1   H1A 6701   1.017   3.090   2.974
   75CHL1   H1B 6702   0.853   3.083   2.940
   75CHL1    C2 6703   0.989   3.102   2.761
   75CHL1   H2A 6704   0.978   2.992   2.757
   75CHL1   H2B 6705   1.090   3.134   2.727
   75CHL1   C20 6706   0.788   3.492   3.606
   75CHL1   H20 6707   0.895   3.523   3.614
   75CHL1   C21 6708   0.770   3.337   3.648
   75CHL1  H21A 6709   0.792   3.333   3.757
   75CHL1  H21B 6710   0.837   3.274   3.586
   75CHL1  H21C 6711   0.669   3.292   3.637
   75CHL1   C22 6712   0.710   3.583   3.696
   75CHL1  H22A 6713   0.717   3.685   3.653
   75CHL1  H22B 6714   0.607   3.542   3.684
   75CHL1   C23 6715   0.755   3.607   3.834
   75CHL1  H23A 6716   0.748   3.513   3.894
   75CHL1  H23B 6717   0.859   3.646   3.842
   75CHL1   C24 6718   0.654   3.698   3.905
   75CHL1  H24A 6719   0.679   3.802   3.875
   75CHL1  H24B 6720   0.549   3.680   3.876
   75CHL1   C25 6721   0.660   3.697   4.062
   75CHL1   H25 6722   0.608   3.604   4.096
   75CHL1   C26 6723   0.803   3.720   4.104
   75CHL1  H26A 6724   0.852   3.807   4.055
   75CHL1  H26B 6725   0.815   3.747   4.211
   75CHL1  H26C 6726   0.869   3.634   4.078
   75CHL1   C27 6727   0.588   3.814   4.120
   75CHL1  H27A 6728   0.630   3.910   4.084
   75CHL1  H27B 6729   0.480   3.814   4.095
   75CHL1  H27C 6730   0.584   3.813   4.231
   76CHL1    C3 6731   6.039   5.136   2.845
   76CHL1    H3 6732   6.149   5.121   2.849
   76CHL1    O3 6733   6.002   5.139   2.710
   76CHL1   H3' 6734   5.909   5.124   2.694
   76CHL1    C4 6735   5.976   5.013   2.915
   76CHL1   H4A 6736   5.867   5.013   2.892
   76CHL1   H4B 6737   6.021   4.919   2.876
   76CHL1    C5 6738   5.994   5.003   3.065
   76CHL1    C6 6739   6.033   4.888   3.132
   76CHL1    H6 6740   6.042   4.790   3.081
   76CHL1    C7 6741   6.052   4.877   3.276
   76CHL1   H7A 6742   6.024   4.776   3.310
   76CHL1   H7B 6743   6.161   4.878   3.300
   76CHL1    C8 6744   5.993   4.995   3.358
   76CHL1    H8 6745   5.882   4.991   3.365
   76CHL1   C14 6746   6.062   4.994   3.489
   76CHL1   H14 6747   6.171   4.992   3.470
   76CHL1   C15 6748   6.058   4.871   3.579
   76CHL1  H15A 6749   5.958   4.824   3.585
   76CHL1  H15B 6750   6.121   4.788   3.539
   76CHL1   C16 6751   6.107   4.918   3.709
   76CHL1  H16A 6752   6.039   4.877   3.787
   76CHL1  H16B 6753   6.211   4.880   3.722
   76CHL1   C17 6754   6.107   5.073   3.713
   76CHL1   H17 6755   6.213   5.097   3.689
   76CHL1   C13 6756   6.026   5.110   3.583
   76CHL1   C18 6757   5.879   5.115   3.623
   76CHL1  H18A 6758   5.815   5.111   3.532
   76CHL1  H18B 6759   5.846   5.037   3.696
   76CHL1  H18C 6760   5.859   5.212   3.672
   76CHL1   C12 6761   6.074   5.234   3.515
   76CHL1  H12A 6762   6.048   5.326   3.572
   76CHL1  H12B 6763   6.184   5.238   3.502
   76CHL1   C11 6764   6.006   5.252   3.373
   76CHL1  H11A 6765   5.898   5.270   3.388
   76CHL1  H11B 6766   6.046   5.346   3.330
   76CHL1    C9 6767   6.023   5.126   3.282
   76CHL1    H9 6768   6.133   5.119   3.270
   76CHL1   C10 6769   5.967   5.138   3.137
   76CHL1   C19 6770   5.819   5.165   3.142
   76CHL1  H19A 6771   5.774   5.082   3.200
   76CHL1  H19B 6772   5.801   5.259   3.199
   76CHL1  H19C 6773   5.775   5.159   3.040
   76CHL1    C1 6774   6.039   5.259   3.060
   76CHL1   H1A 6775   6.012   5.355   3.108
   76CHL1   H1B 6776   6.147   5.241   3.075
   76CHL1    C2 6777   5.998   5.266   2.917
   76CHL1   H2A 6778   6.059   5.344   2.866
   76CHL1   H2B 6779   5.890   5.293   2.905
   76CHL1   C20 6780   6.079   5.136   3.849
   76CHL1   H20 6781   5.975   5.104   3.875
   76CHL1   C21 6782   6.080   5.285   3.840
   76CHL1  H21A 6783   5.997   5.320   3.775
   76CHL1  H21B 6784   6.180   5.313   3.801
   76CHL1  H21C 6785   6.065   5.324   3.943
   76CHL1   C22 6786   6.181   5.090   3.957
   76CHL1  H22A 6787   6.231   4.995   3.926
   76CHL1  H22B 6788   6.263   5.164   3.971
   76CHL1   C23 6789   6.105   5.066   4.087
   76CHL1  H23A 6790   6.067   5.168   4.105
   76CHL1  H23B 6791   6.017   5.000   4.077
   76CHL1   C24 6792   6.194   5.027   4.195
   76CHL1  H24A 6793   6.252   4.932   4.187
   76CHL1  H24B 6794   6.268   5.107   4.213
   76CHL1   C25 6795   6.111   5.010   4.328
   76CHL1   H25 6796   6.046   4.925   4.298
   76CHL1   C26 6797   6.196   4.955   4.440
   76CHL1  H26A 6798   6.145   4.925   4.534
   76CHL1  H26B 6799   6.257   4.869   4.405
   76CHL1  H26C 6800   6.270   5.031   4.473
   76CHL1   C27 6801   6.038   5.139   4.371
   76CHL1  H27A 6802   5.952   5.155   4.302
   76CHL1  H27B 6803   6.004   5.141   4.477
   76CHL1  H27C 6804   6.109   5.221   4.350
   77SOPE     N 6805   3.757   3.290   6.634
   77SOPE   HN1 6806   3.831   3.245   6.577
   77SOPE   HN2 6807   3.767   3.390   6.610
   77SOPE   HN3 6808   3.781   3.278   6.734
   77SOPE   C12 6809   3.624   3.241   6.595
   77SOPE  H12A 6810   3.546   3.298   6.651
   77SOPE  H12B 6811   3.621   3.136   6.631
   77SOPE   C11 6812   3.615   3.262   6.443
   77SOPE  H11A 6813   3.601   3.369   6.417
   77SOPE  H11B 6814   3.522   3.208   6.419
   77SOPE     P 6815   3.721   3.081   6.293
   77SOPE   O13 6816   3.680   2.989   6.400
   77SOPE   O14 6817   3.839   3.049   6.208
   77SOPE   O12 6818   3.731   3.218   6.365
   77SOPE   O11 6819   3.607   3.104   6.194
   77SOPE    C1 6820   3.606   3.209   6.093
   77SOPE    HA 6821   3.615   3.155   5.996
   77SOPE    HB 6822   3.690   3.282   6.094
   77SOPE    C2 6823   3.474   3.291   6.105
   77SOPE    HS 6824   3.487   3.319   6.212
   77SOPE   O21 6825   3.365   3.204   6.082
   77SOPE   C21 6826   3.249   3.255   6.123
   77SOPE   O22 6827   3.233   3.348   6.207
   77SOPE   C22 6828   3.137   3.186   6.056
   77SOPE   H2R 6829   3.044   3.218   6.108
   77SOPE   H2S 6830   3.153   3.076   6.063
   77SOPE    C3 6831   3.468   3.419   6.016
   77SOPE    HX 6832   3.549   3.488   6.047
   77SOPE    HY 6833   3.369   3.464   6.040
   77SOPE   O31 6834   3.479   3.380   5.878
   77SOPE   C31 6835   3.480   3.482   5.793
   77SOPE   O32 6836   3.502   3.602   5.815
   77SOPE   C32 6837   3.454   3.430   5.648
   77SOPE   H2X 6838   3.343   3.438   5.656
   77SOPE   H2Y 6839   3.483   3.324   5.633
   77SOPE   C23 6840   3.123   3.220   5.903
   77SOPE   H3R 6841   3.141   3.328   5.887
   77SOPE   H3S 6842   3.018   3.194   5.881
   77SOPE   C24 6843   3.200   3.136   5.798
   77SOPE   H4R 6844   3.310   3.150   5.793
   77SOPE   H4S 6845   3.193   3.028   5.825
   77SOPE   C25 6846   3.125   3.155   5.663
   77SOPE   H5R 6847   3.026   3.106   5.662
   77SOPE   H5S 6848   3.115   3.264   5.643
   77SOPE   C26 6849   3.210   3.098   5.541
   77SOPE   H6R 6850   3.305   3.154   5.531
   77SOPE   H6S 6851   3.231   2.989   5.552
   77SOPE   C27 6852   3.128   3.115   5.415
   77SOPE   H7R 6853   3.019   3.094   5.431
   77SOPE   H7S 6854   3.129   3.223   5.389
   77SOPE   C28 6855   3.191   3.039   5.302
   77SOPE   H8R 6856   3.220   2.935   5.326
   77SOPE   H8S 6857   3.112   3.027   5.225
   77SOPE   C29 6858   3.317   3.110   5.245
   77SOPE   H91 6859   3.410   3.073   5.290
   77SOPE  C210 6860   3.303   3.207   5.150
   77SOPE  H101 6861   3.390   3.273   5.139
   77SOPE  C211 6862   3.182   3.263   5.092
   77SOPE  H11R 6863   3.204   3.362   5.045
   77SOPE  H11S 6864   3.115   3.284   5.178
   77SOPE  C212 6865   3.129   3.172   4.980
   77SOPE  H12R 6866   3.049   3.108   5.021
   77SOPE  H12S 6867   3.208   3.113   4.927
   77SOPE  C213 6868   3.051   3.255   4.876
   77SOPE  H13R 6869   3.108   3.350   4.867
   77SOPE  H13S 6870   2.947   3.278   4.909
   77SOPE  C214 6871   3.055   3.192   4.740
   77SOPE  H14R 6872   3.163   3.188   4.715
   77SOPE  H14S 6873   3.023   3.257   4.655
   77SOPE  C215 6874   2.999   3.056   4.723
   77SOPE  H15R 6875   2.889   3.064   4.741
   77SOPE  H15S 6876   3.048   2.993   4.800
   77SOPE  C216 6877   3.016   3.001   4.583
   77SOPE  H16R 6878   2.989   2.893   4.574
   77SOPE  H16S 6879   3.125   3.020   4.565
   77SOPE  C217 6880   2.945   3.063   4.461
   77SOPE  H17R 6881   2.940   2.991   4.376
   77SOPE  H17S 6882   2.995   3.154   4.420
   77SOPE  C218 6883   2.794   3.092   4.488
   77SOPE  H18R 6884   2.788   3.148   4.584
   77SOPE  H18S 6885   2.737   2.997   4.492
   77SOPE  H18T 6886   2.746   3.147   4.404
   77SOPE   C33 6887   3.517   3.524   5.539
   77SOPE   H3X 6888   3.628   3.528   5.547
   77SOPE   H3Y 6889   3.472   3.625   5.538
   77SOPE   C34 6890   3.490   3.484   5.386
   77SOPE   H4X 6891   3.381   3.477   5.367
   77SOPE   H4Y 6892   3.542   3.395   5.346
   77SOPE   C35 6893   3.535   3.599   5.283
   77SOPE   H5X 6894   3.646   3.593   5.271
   77SOPE   H5Y 6895   3.504   3.698   5.324
   77SOPE   C36 6896   3.480   3.573   5.139
   77SOPE   H6X 6897   3.371   3.552   5.136
   77SOPE   H6Y 6898   3.524   3.473   5.117
   77SOPE   C37 6899   3.523   3.677   5.035
   77SOPE   H7X 6900   3.633   3.689   5.039
   77SOPE   H7Y 6901   3.462   3.769   5.047
   77SOPE   C38 6902   3.492   3.634   4.886
   77SOPE   H8X 6903   3.548   3.539   4.870
   77SOPE   H8Y 6904   3.532   3.703   4.809
   77SOPE   C39 6905   3.348   3.601   4.843
   77SOPE   H9X 6906   3.312   3.706   4.836
   77SOPE   H9Y 6907   3.308   3.532   4.921
   77SOPE  C310 6908   3.336   3.526   4.704
   77SOPE  H10X 6909   3.386   3.591   4.629
   77SOPE  H10Y 6910   3.229   3.507   4.682
   77SOPE  C311 6911   3.400   3.385   4.712
   77SOPE  H11X 6912   3.364   3.323   4.797
   77SOPE  H11Y 6913   3.511   3.390   4.718
   77SOPE  C312 6914   3.366   3.316   4.581
   77SOPE  H12X 6915   3.414   3.372   4.498
   77SOPE  H12Y 6916   3.261   3.317   4.545
   77SOPE  C313 6917   3.433   3.172   4.569
   77SOPE  H13X 6918   3.403   3.119   4.662
   77SOPE  H13Y 6919   3.544   3.179   4.566
   77SOPE  C314 6920   3.388   3.089   4.450
   77SOPE  H14X 6921   3.395   3.156   4.361
   77SOPE  H14Y 6922   3.281   3.068   4.473
   77SOPE  C315 6923   3.463   2.954   4.413
   77SOPE  H15X 6924   3.468   2.882   4.498
   77SOPE  H15Y 6925   3.565   2.988   4.387
   77SOPE  C316 6926   3.390   2.878   4.305
   77SOPE  H16X 6927   3.450   2.794   4.264
   77SOPE  H16Y 6928   3.368   2.944   4.218
   77SOPE  C317 6929   3.261   2.809   4.345
   77SOPE  H17X 6930   3.199   2.897   4.373
   77SOPE  H17Y 6931   3.273   2.764   4.445
   77SOPE  C318 6932   3.187   2.725   4.246
   77SOPE  H18X 6933   3.180   2.776   4.148
   77SOPE  H18Y 6934   3.090   2.684   4.283
   77SOPE  H18Z 6935   3.241   2.631   4.223
   78SOPE     N 6936   2.273   3.617   6.629
   78SOPE   HN1 6937   2.183   3.656   6.661
   78SOPE   HN2 6938   2.263   3.586   6.530
   78SOPE   HN3 6939   2.300   3.535   6.687
   78SOPE   C12 6940   2.374   3.732   6.647
   78SOPE  H12A 6941   2.400   3.754   6.753
   78SOPE  H12B 6942   2.340   3.824   6.594
   78SOPE   C11 6943   2.506   3.694   6.576
   78SOPE  H11A 6944   2.575   3.781   6.578
   78SOPE  H11B 6945   2.469   3.679   6.472
   78SOPE     P 6946   2.689   3.519   6.579
   78SOPE   O13 6947   2.781   3.487   6.692
   78SOPE   O14 6948   2.743   3.596   6.464
   78SOPE   O12 6949   2.558   3.581   6.633
   78SOPE   O11 6950   2.647   3.367   6.529
   78SOPE    C1 6951   2.511   3.327   6.537
   78SOPE    HA 6952   2.436   3.400   6.497
   78SOPE    HB 6953   2.484   3.312   6.644
   78SOPE    C2 6954   2.496   3.200   6.456
   78SOPE    HS 6955   2.575   3.126   6.483
   78SOPE   O21 6956   2.510   3.237   6.323
   78SOPE   C21 6957   2.633   3.241   6.267
   78SOPE   O22 6958   2.732   3.180   6.312
   78SOPE   C22 6959   2.610   3.291   6.128
   78SOPE   H2R 6960   2.612   3.401   6.141
   78SOPE   H2S 6961   2.511   3.260   6.089
   78SOPE    C3 6962   2.357   3.120   6.470
   78SOPE    HX 6963   2.276   3.195   6.459
   78SOPE    HY 6964   2.351   3.078   6.572
   78SOPE   O31 6965   2.330   3.016   6.380
   78SOPE   C31 6966   2.385   2.897   6.399
   78SOPE   O32 6967   2.467   2.865   6.483
   78SOPE   C32 6968   2.334   2.797   6.299
   78SOPE   H2X 6969   2.240   2.755   6.341
   78SOPE   H2Y 6970   2.410   2.717   6.289
   78SOPE   C23 6971   2.706   3.250   6.022
   78SOPE   H3R 6972   2.692   3.140   6.016
   78SOPE   H3S 6973   2.808   3.273   6.059
   78SOPE   C24 6974   2.666   3.311   5.886
   78SOPE   H4R 6975   2.582   3.250   5.845
   78SOPE   H4S 6976   2.628   3.413   5.906
   78SOPE   C25 6977   2.770   3.290   5.776
   78SOPE   H5R 6978   2.868   3.336   5.798
   78SOPE   H5S 6979   2.795   3.182   5.769
   78SOPE   C26 6980   2.718   3.322   5.629
   78SOPE   H6R 6981   2.674   3.424   5.638
   78SOPE   H6S 6982   2.812   3.313   5.571
   78SOPE   C27 6983   2.605   3.238   5.563
   78SOPE   H7R 6984   2.634   3.132   5.582
   78SOPE   H7S 6985   2.514   3.242   5.628
   78SOPE   C28 6986   2.576   3.274   5.417
   78SOPE   H8R 6987   2.495   3.208   5.379
   78SOPE   H8S 6988   2.543   3.379   5.404
   78SOPE   C29 6989   2.704   3.235   5.341
   78SOPE   H91 6990   2.774   3.180   5.405
   78SOPE  C210 6991   2.741   3.275   5.216
   78SOPE  H101 6992   2.828   3.215   5.185
   78SOPE  C211 6993   2.660   3.355   5.116
   78SOPE  H11R 6994   2.712   3.452   5.102
   78SOPE  H11S 6995   2.557   3.360   5.156
   78SOPE  C212 6996   2.650   3.290   4.979
   78SOPE  H12R 6997   2.626   3.183   4.989
   78SOPE  H12S 6998   2.750   3.292   4.931
   78SOPE  C213 6999   2.558   3.373   4.889
   78SOPE  H13R 7000   2.598   3.477   4.883
   78SOPE  H13S 7001   2.450   3.377   4.915
   78SOPE  C214 7002   2.568   3.326   4.747
   78SOPE  H14R 7003   2.541   3.219   4.739
   78SOPE  H14S 7004   2.673   3.335   4.711
   78SOPE  C215 7005   2.460   3.391   4.654
   78SOPE  H15R 7006   2.462   3.502   4.651
   78SOPE  H15S 7007   2.359   3.378   4.700
   78SOPE  C216 7008   2.468   3.332   4.512
   78SOPE  H16R 7009   2.478   3.221   4.518
   78SOPE  H16S 7010   2.564   3.369   4.472
   78SOPE  C217 7011   2.346   3.369   4.432
   78SOPE  H17R 7012   2.351   3.477   4.404
   78SOPE  H17S 7013   2.265   3.348   4.505
   78SOPE  C218 7014   2.333   3.274   4.316
   78SOPE  H18R 7015   2.328   3.169   4.353
   78SOPE  H18S 7016   2.423   3.288   4.253
   78SOPE  H18T 7017   2.234   3.300   4.271
   78SOPE   C33 7018   2.325   2.836   6.155
   78SOPE   H3X 7019   2.231   2.888   6.127
   78SOPE   H3Y 7020   2.322   2.742   6.095
   78SOPE   C34 7021   2.450   2.908   6.094
   78SOPE   H4X 7022   2.541   2.847   6.113
   78SOPE   H4Y 7023   2.482   3.006   6.137
   78SOPE   C35 7024   2.444   2.934   5.945
   78SOPE   H5X 7025   2.429   2.839   5.889
   78SOPE   H5Y 7026   2.540   2.979   5.911
   78SOPE   C36 7027   2.319   3.030   5.930
   78SOPE   H6X 7028   2.331   3.105   6.011
   78SOPE   H6Y 7029   2.232   2.965   5.953
   78SOPE   C37 7030   2.298   3.095   5.795
   78SOPE   H7X 7031   2.385   3.160   5.776
   78SOPE   H7Y 7032   2.196   3.139   5.794
   78SOPE   C38 7033   2.294   2.994   5.680
   78SOPE   H8X 7034   2.217   2.918   5.707
   78SOPE   H8Y 7035   2.389   2.936   5.671
   78SOPE   C39 7036   2.273   3.047   5.539
   78SOPE   H9X 7037   2.349   3.122   5.510
   78SOPE   H9Y 7038   2.171   3.087   5.523
   78SOPE  C310 7039   2.284   2.937   5.434
   78SOPE  H10X 7040   2.214   2.861   5.474
   78SOPE  H10Y 7041   2.386   2.892   5.433
   78SOPE  C311 7042   2.242   2.982   5.286
   78SOPE  H11X 7043   2.144   3.034   5.297
   78SOPE  H11Y 7044   2.230   2.895   5.219
   78SOPE  C312 7045   2.330   3.080   5.209
   78SOPE  H12X 7046   2.434   3.043   5.205
   78SOPE  H12Y 7047   2.328   3.175   5.266
   78SOPE  C313 7048   2.281   3.113   5.069
   78SOPE  H13X 7049   2.335   3.197   5.021
   78SOPE  H13Y 7050   2.175   3.144   5.073
   78SOPE  C314 7051   2.298   2.992   4.974
   78SOPE  H14X 7052   2.217   2.917   4.982
   78SOPE  H14Y 7053   2.394   2.941   4.997
   78SOPE  C315 7054   2.290   3.046   4.829
   78SOPE  H15X 7055   2.388   3.095   4.813
   78SOPE  H15Y 7056   2.210   3.121   4.814
   78SOPE  C316 7057   2.273   2.933   4.721
   78SOPE  H16X 7058   2.191   2.864   4.751
   78SOPE  H16Y 7059   2.368   2.877   4.709
   78SOPE  C317 7060   2.240   2.989   4.582
   78SOPE  H17X 7061   2.287   3.088   4.563
   78SOPE  H17Y 7062   2.132   3.003   4.601
   78SOPE  C318 7063   2.258   2.884   4.473
   78SOPE  H18X 7064   2.228   2.937   4.379
   78SOPE  H18Y 7065   2.189   2.799   4.490
   78SOPE  H18Z 7066   2.362   2.851   4.452
   79SOPE     N 7067   5.077   0.805   6.396
   79SOPE   HN1 7068   5.120   0.767   6.483
   79SOPE   HN2 7069   5.155   0.842   6.339
   79SOPE   HN3 7070   5.009   0.879   6.423
   79SOPE   C12 7071   5.019   0.675   6.336
   79SOPE  H12A 7072   5.106   0.611   6.309
   79SOPE  H12B 7073   4.947   0.701   6.256
   79SOPE   C11 7074   4.950   0.606   6.458
   79SOPE  H11A 7075   5.026   0.570   6.530
   79SOPE  H11B 7076   4.896   0.514   6.428
   79SOPE     P 7077   4.715   0.651   6.573
   79SOPE   O13 7078   4.644   0.783   6.575
   79SOPE   O14 7079   4.723   0.562   6.692
   79SOPE   O12 7080   4.863   0.693   6.535
   79SOPE   O11 7081   4.663   0.573   6.447
   79SOPE    C1 7082   4.524   0.564   6.402
   79SOPE    HA 7083   4.461   0.606   6.483
   79SOPE    HB 7084   4.499   0.460   6.374
   79SOPE    C2 7085   4.497   0.651   6.265
   79SOPE    HS 7086   4.389   0.672   6.247
   79SOPE   O21 7087   4.572   0.593   6.157
   79SOPE   C21 7088   4.510   0.506   6.085
   79SOPE   O22 7089   4.398   0.470   6.098
   79SOPE   C22 7090   4.607   0.466   5.972
   79SOPE   H2R 7091   4.705   0.424   6.005
   79SOPE   H2S 7092   4.645   0.557   5.921
   79SOPE    C3 7093   4.554   0.791   6.271
   79SOPE    HX 7094   4.664   0.777   6.277
   79SOPE    HY 7095   4.512   0.838   6.363
   79SOPE   O31 7096   4.533   0.871   6.152
   79SOPE   C31 7097   4.407   0.907   6.125
   79SOPE   O32 7098   4.315   0.896   6.208
   79SOPE   C32 7099   4.393   0.961   5.978
   79SOPE   H2X 7100   4.331   0.888   5.921
   79SOPE   H2Y 7101   4.494   0.966   5.931
   79SOPE   C23 7102   4.542   0.379   5.854
   79SOPE   H3R 7103   4.489   0.291   5.896
   79SOPE   H3S 7104   4.625   0.340   5.791
   79SOPE   C24 7105   4.452   0.458   5.759
   79SOPE   H4R 7106   4.388   0.396   5.693
   79SOPE   H4S 7107   4.391   0.528   5.821
   79SOPE   C25 7108   4.550   0.537   5.669
   79SOPE   H5R 7109   4.638   0.582   5.719
   79SOPE   H5S 7110   4.598   0.478   5.588
   79SOPE   C26 7111   4.481   0.659   5.603
   79SOPE   H6R 7112   4.450   0.735   5.678
   79SOPE   H6S 7113   4.548   0.705   5.528
   79SOPE   C27 7114   4.359   0.620   5.519
   79SOPE   H7R 7115   4.358   0.692   5.433
   79SOPE   H7S 7116   4.371   0.520   5.474
   79SOPE   C28 7117   4.235   0.621   5.597
   79SOPE   H8R 7118   4.227   0.546   5.679
   79SOPE   H8S 7119   4.226   0.724   5.638
   79SOPE   C29 7120   4.112   0.590   5.520
   79SOPE   H91 7121   4.082   0.486   5.541
   79SOPE  C210 7122   4.039   0.670   5.450
   79SOPE  H101 7123   3.943   0.628   5.415
   79SOPE  C211 7124   4.058   0.816   5.425
   79SOPE  H11R 7125   4.163   0.846   5.446
   79SOPE  H11S 7126   3.986   0.873   5.487
   79SOPE  C212 7127   4.035   0.830   5.270
   79SOPE  H12R 7128   4.107   0.762   5.219
   79SOPE  H12S 7129   4.061   0.936   5.250
   79SOPE  C213 7130   3.885   0.808   5.221
   79SOPE  H13R 7131   3.818   0.838   5.304
   79SOPE  H13S 7132   3.857   0.702   5.207
   79SOPE  C214 7133   3.842   0.881   5.093
   79SOPE  H14R 7134   3.895   0.846   5.003
   79SOPE  H14S 7135   3.856   0.989   5.114
   79SOPE  C215 7136   3.690   0.860   5.065
   79SOPE  H15R 7137   3.637   0.913   5.146
   79SOPE  H15S 7138   3.663   0.752   5.067
   79SOPE  C216 7139   3.637   0.904   4.921
   79SOPE  H16R 7140   3.690   0.833   4.853
   79SOPE  H16S 7141   3.662   1.009   4.897
   79SOPE  C217 7142   3.481   0.878   4.914
   79SOPE  H17R 7143   3.437   0.935   4.998
   79SOPE  H17S 7144   3.472   0.769   4.935
   79SOPE  C218 7145   3.422   0.904   4.774
   79SOPE  H18R 7146   3.313   0.882   4.780
   79SOPE  H18S 7147   3.483   0.849   4.700
   79SOPE  H18T 7148   3.427   1.013   4.751
   79SOPE   C33 7149   4.331   1.097   5.990
   79SOPE   H3X 7150   4.392   1.155   6.063
   79SOPE   H3Y 7151   4.236   1.085   6.045
   79SOPE   C34 7152   4.305   1.177   5.861
   79SOPE   H4X 7153   4.399   1.195   5.805
   79SOPE   H4Y 7154   4.266   1.277   5.890
   79SOPE   C35 7155   4.214   1.113   5.756
   79SOPE   H5X 7156   4.122   1.087   5.814
   79SOPE   H5Y 7157   4.262   1.022   5.713
   79SOPE   C36 7158   4.185   1.201   5.638
   79SOPE   H6X 7159   4.132   1.287   5.685
   79SOPE   H6Y 7160   4.108   1.154   5.573
   79SOPE   C37 7161   4.310   1.250   5.559
   79SOPE   H7X 7162   4.372   1.310   5.629
   79SOPE   H7Y 7163   4.266   1.313   5.478
   79SOPE   C38 7164   4.389   1.131   5.498
   79SOPE   H8X 7165   4.318   1.050   5.469
   79SOPE   H8Y 7166   4.453   1.095   5.581
   79SOPE   C39 7167   4.479   1.157   5.372
   79SOPE   H9X 7168   4.534   1.068   5.335
   79SOPE   H9Y 7169   4.560   1.223   5.409
   79SOPE  C310 7170   4.406   1.223   5.251
   79SOPE  H10X 7171   4.482   1.256   5.176
   79SOPE  H10Y 7172   4.351   1.313   5.284
   79SOPE  C311 7173   4.317   1.115   5.189
   79SOPE  H11X 7174   4.221   1.099   5.242
   79SOPE  H11Y 7175   4.363   1.013   5.192
   79SOPE  C312 7176   4.309   1.143   5.036
   79SOPE  H12X 7177   4.412   1.145   4.992
   79SOPE  H12Y 7178   4.252   1.235   5.012
   79SOPE  C313 7179   4.231   1.033   4.955
   79SOPE  H13X 7180   4.124   1.049   4.984
   79SOPE  H13Y 7181   4.260   0.932   4.990
   79SOPE  C314 7182   4.242   1.041   4.802
   79SOPE  H14X 7183   4.244   1.149   4.773
   79SOPE  H14Y 7184   4.153   1.000   4.750
   79SOPE  C315 7185   4.369   0.970   4.761
   79SOPE  H15X 7186   4.349   0.864   4.786
   79SOPE  H15Y 7187   4.450   1.010   4.825
   79SOPE  C316 7188   4.389   0.980   4.608
   79SOPE  H16X 7189   4.381   1.089   4.587
   79SOPE  H16Y 7190   4.306   0.931   4.554
   79SOPE  C317 7191   4.524   0.910   4.575
   79SOPE  H17X 7192   4.528   0.867   4.473
   79SOPE  H17Y 7193   4.533   0.827   4.649
   79SOPE  C318 7194   4.646   0.991   4.594
   79SOPE  H18X 7195   4.637   1.094   4.554
   79SOPE  H18Y 7196   4.734   0.936   4.552
   79SOPE  H18Z 7197   4.663   1.006   4.703
   80SOPE     N 7198   1.685   2.605   6.987
   80SOPE   HN1 7199   1.688   2.502   6.973
   80SOPE   HN2 7200   1.681   2.651   6.893
   80SOPE   HN3 7201   1.779   2.624   7.026
   80SOPE   C12 7202   1.573   2.637   7.083
   80SOPE  H12A 7203   1.610   2.624   7.187
   80SOPE  H12B 7204   1.493   2.560   7.078
   80SOPE   C11 7205   1.528   2.778   7.060
   80SOPE  H11A 7206   1.453   2.796   7.140
   80SOPE  H11B 7207   1.476   2.791   6.962
   80SOPE     P 7208   1.684   2.956   6.968
   80SOPE   O13 7209   1.818   3.003   6.997
   80SOPE   O14 7210   1.587   3.061   6.925
   80SOPE   O12 7211   1.629   2.873   7.085
   80SOPE   O11 7212   1.694   2.842   6.849
   80SOPE    C1 7213   1.815   2.835   6.770
   80SOPE    HA 7214   1.804   2.741   6.712
   80SOPE    HB 7215   1.906   2.799   6.821
   80SOPE    C2 7216   1.841   2.947   6.670
   80SOPE    HS 7217   1.891   3.033   6.721
   80SOPE   O21 7218   1.709   2.984   6.624
   80SOPE   C21 7219   1.690   3.107   6.595
   80SOPE   O22 7220   1.765   3.201   6.606
   80SOPE   C22 7221   1.544   3.119   6.537
   80SOPE   H2R 7222   1.542   3.192   6.453
   80SOPE   H2S 7223   1.483   3.167   6.616
   80SOPE    C3 7224   1.932   2.912   6.552
   80SOPE    HX 7225   1.873   2.829   6.506
   80SOPE    HY 7226   2.028   2.865   6.584
   80SOPE   O31 7227   1.956   3.022   6.452
   80SOPE   C31 7228   1.994   2.990   6.332
   80SOPE   O32 7229   2.002   2.875   6.297
   80SOPE   C32 7230   2.023   3.115   6.245
   80SOPE   H2X 7231   2.050   3.073   6.145
   80SOPE   H2Y 7232   2.119   3.155   6.283
   80SOPE   C23 7233   1.488   2.984   6.482
   80SOPE   H3R 7234   1.458   2.922   6.569
   80SOPE   H3S 7235   1.569   2.929   6.430
   80SOPE   C24 7236   1.371   2.986   6.376
   80SOPE   H4R 7237   1.337   2.880   6.389
   80SOPE   H4S 7238   1.292   3.060   6.401
   80SOPE   C25 7239   1.414   3.001   6.238
   80SOPE   H5R 7240   1.460   3.100   6.217
   80SOPE   H5S 7241   1.491   2.922   6.221
   80SOPE   C26 7242   1.306   2.981   6.128
   80SOPE   H6R 7243   1.283   2.873   6.140
   80SOPE   H6S 7244   1.214   3.044   6.134
   80SOPE   C27 7245   1.377   3.018   5.992
   80SOPE   H7R 7246   1.441   3.108   5.996
   80SOPE   H7S 7247   1.448   2.933   5.991
   80SOPE   C28 7248   1.286   3.026   5.868
   80SOPE   H8R 7249   1.185   3.023   5.912
   80SOPE   H8S 7250   1.300   3.128   5.824
   80SOPE   C29 7251   1.304   2.911   5.771
   80SOPE   H91 7252   1.252   2.819   5.804
   80SOPE  C210 7253   1.382   2.909   5.664
   80SOPE  H101 7254   1.392   2.825   5.594
   80SOPE  C211 7255   1.458   3.028   5.605
   80SOPE  H11R 7256   1.550   3.052   5.663
   80SOPE  H11S 7257   1.396   3.120   5.616
   80SOPE  C212 7258   1.490   3.012   5.451
   80SOPE  H12R 7259   1.544   2.916   5.438
   80SOPE  H12S 7260   1.567   3.088   5.426
   80SOPE  C213 7261   1.362   3.034   5.363
   80SOPE  H13R 7262   1.313   3.124   5.406
   80SOPE  H13S 7263   1.285   2.955   5.376
   80SOPE  C214 7264   1.389   3.034   5.213
   80SOPE  H14R 7265   1.288   3.052   5.170
   80SOPE  H14S 7266   1.430   2.940   5.171
   80SOPE  C215 7267   1.464   3.157   5.155
   80SOPE  H15R 7268   1.574   3.143   5.166
   80SOPE  H15S 7269   1.429   3.248   5.207
   80SOPE  C216 7270   1.432   3.173   5.001
   80SOPE  H16R 7271   1.323   3.159   4.990
   80SOPE  H16S 7272   1.483   3.084   4.958
   80SOPE  C217 7273   1.480   3.315   4.947
   80SOPE  H17R 7274   1.574   3.346   4.997
   80SOPE  H17S 7275   1.405   3.391   4.976
   80SOPE  C218 7276   1.487   3.314   4.789
   80SOPE  H18R 7277   1.541   3.233   4.737
   80SOPE  H18S 7278   1.520   3.413   4.751
   80SOPE  H18T 7279   1.381   3.308   4.756
   80SOPE   C33 7280   1.902   3.212   6.235
   80SOPE   H3X 7281   1.923   3.293   6.162
   80SOPE   H3Y 7282   1.887   3.259   6.334
   80SOPE   C34 7283   1.780   3.137   6.189
   80SOPE   H4X 7284   1.688   3.200   6.199
   80SOPE   H4Y 7285   1.757   3.049   6.254
   80SOPE   C35 7286   1.785   3.100   6.034
   80SOPE   H5X 7287   1.685   3.071   5.994
   80SOPE   H5Y 7288   1.850   3.012   6.018
   80SOPE   C36 7289   1.842   3.210   5.941
   80SOPE   H6X 7290   1.951   3.201   5.955
   80SOPE   H6Y 7291   1.810   3.310   5.977
   80SOPE   C37 7292   1.802   3.175   5.802
   80SOPE   H7X 7293   1.692   3.188   5.792
   80SOPE   H7Y 7294   1.822   3.066   5.794
   80SOPE   C38 7295   1.863   3.259   5.694
   80SOPE   H8X 7296   1.973   3.247   5.692
   80SOPE   H8Y 7297   1.828   3.364   5.707
   80SOPE   C39 7298   1.814   3.222   5.553
   80SOPE   H9X 7299   1.705   3.232   5.531
   80SOPE   H9Y 7300   1.836   3.115   5.536
   80SOPE  C310 7301   1.889   3.309   5.443
   80SOPE  H10X 7302   1.999   3.288   5.446
   80SOPE  H10Y 7303   1.873   3.416   5.466
   80SOPE  C311 7304   1.830   3.288   5.304
   80SOPE  H11X 7305   1.735   3.345   5.307
   80SOPE  H11Y 7306   1.820   3.179   5.285
   80SOPE  C312 7307   1.932   3.368   5.214
   80SOPE  H12X 7308   2.025   3.308   5.204
   80SOPE  H12Y 7309   1.949   3.471   5.251
   80SOPE  C313 7310   1.876   3.359   5.069
   80SOPE  H13X 7311   1.772   3.398   5.068
   80SOPE  H13Y 7312   1.862   3.258   5.026
   80SOPE  C314 7313   1.972   3.438   4.974
   80SOPE  H14X 7314   2.067   3.381   4.983
   80SOPE  H14Y 7315   1.991   3.534   5.026
   80SOPE  C315 7316   1.930   3.452   4.829
   80SOPE  H15X 7317   2.007   3.516   4.781
   80SOPE  H15Y 7318   1.836   3.512   4.827
   80SOPE  C316 7319   1.914   3.323   4.747
   80SOPE  H16X 7320   1.855   3.249   4.806
   80SOPE  H16Y 7321   2.017   3.284   4.733
   80SOPE  C317 7322   1.862   3.358   4.607
   80SOPE  H17X 7323   1.760   3.401   4.614
   80SOPE  H17Y 7324   1.857   3.263   4.550
   80SOPE  C318 7325   1.949   3.460   4.535
   80SOPE  H18X 7326   1.935   3.456   4.425
   80SOPE  H18Y 7327   2.055   3.428   4.543
   80SOPE  H18Z 7328   1.937   3.563   4.575
   81SOPE     N 7329   4.608   0.046   6.328
   81SOPE   HN1 7330   4.696   6.883   6.305
   81SOPE   HN2 7331   4.570   0.001   6.415
   81SOPE   HN3 7332   4.558   0.035   6.238
   81SOPE   C12 7333   4.642   0.186   6.366
   81SOPE  H12A 7334   4.552   0.236   6.407
   81SOPE  H12B 7335   4.686   0.237   6.278
   81SOPE   C11 7336   4.762   0.186   6.465
   81SOPE  H11A 7337   4.722   0.135   6.555
   81SOPE  H11B 7338   4.772   0.292   6.498
   81SOPE     P 7339   5.014   0.166   6.467
   81SOPE   O13 7340   5.098   0.046   6.451
   81SOPE   O14 7341   4.991   0.220   6.601
   81SOPE   O12 7342   4.873   0.132   6.400
   81SOPE   O11 7343   5.075   0.281   6.372
   81SOPE    C1 7344   5.025   0.302   6.249
   81SOPE    HA 7345   4.958   0.391   6.241
   81SOPE    HB 7346   4.957   0.228   6.202
   81SOPE    C2 7347   5.141   0.307   6.151
   81SOPE    HS 7348   5.212   0.384   6.185
   81SOPE   O21 7349   5.095   0.333   6.015
   81SOPE   C21 7350   5.070   0.463   5.989
   81SOPE   O22 7351   5.040   0.544   6.076
   81SOPE   C22 7352   5.070   0.502   5.842
   81SOPE   H2R 7353   5.089   0.407   5.786
   81SOPE   H2S 7354   5.155   0.569   5.817
   81SOPE    C3 7355   5.218   0.175   6.148
   81SOPE    HX 7356   5.136   0.099   6.154
   81SOPE    HY 7357   5.268   0.154   6.245
   81SOPE   O31 7358   5.303   0.148   6.036
   81SOPE   C31 7359   5.400   0.227   6.016
   81SOPE   O32 7360   5.439   0.318   6.084
   81SOPE   C32 7361   5.457   0.190   5.883
   81SOPE   H2X 7362   5.442   0.081   5.875
   81SOPE   H2Y 7363   5.563   0.222   5.895
   81SOPE   C23 7364   4.934   0.560   5.781
   81SOPE   H3R 7365   4.847   0.506   5.823
   81SOPE   H3S 7366   4.933   0.531   5.674
   81SOPE   C24 7367   4.904   0.709   5.778
   81SOPE   H4R 7368   4.956   0.775   5.706
   81SOPE   H4S 7369   4.799   0.720   5.742
   81SOPE   C25 7370   4.898   0.772   5.922
   81SOPE   H5R 7371   4.824   0.709   5.976
   81SOPE   H5S 7372   4.997   0.751   5.968
   81SOPE   C26 7373   4.844   0.914   5.920
   81SOPE   H6R 7374   4.776   0.914   5.833
   81SOPE   H6S 7375   4.781   0.930   6.011
   81SOPE   C27 7376   4.949   1.021   5.930
   81SOPE   H7R 7377   5.012   0.997   6.018
   81SOPE   H7S 7378   5.023   1.018   5.847
   81SOPE   C28 7379   4.899   1.159   5.936
   81SOPE   H8R 7380   4.871   1.185   6.040
   81SOPE   H8S 7381   4.981   1.231   5.914
   81SOPE   C29 7382   4.781   1.191   5.848
   81SOPE   H91 7383   4.688   1.208   5.903
   81SOPE  C210 7384   4.786   1.237   5.724
   81SOPE  H101 7385   4.693   1.257   5.668
   81SOPE  C211 7386   4.908   1.237   5.633
   81SOPE  H11R 7387   4.994   1.255   5.700
   81SOPE  H11S 7388   4.900   1.317   5.556
   81SOPE  C212 7389   4.918   1.107   5.552
   81SOPE  H12R 7390   4.908   1.024   5.625
   81SOPE  H12S 7391   5.019   1.112   5.507
   81SOPE  C213 7392   4.827   1.087   5.430
   81SOPE  H13R 7393   4.829   1.176   5.364
   81SOPE  H13S 7394   4.725   1.093   5.472
   81SOPE  C214 7395   4.862   0.954   5.366
   81SOPE  H14R 7396   4.861   0.877   5.446
   81SOPE  H14S 7397   4.964   0.956   5.323
   81SOPE  C215 7398   4.747   0.907   5.268
   81SOPE  H15R 7399   4.730   0.978   5.184
   81SOPE  H15S 7400   4.654   0.900   5.329
   81SOPE  C216 7401   4.792   0.781   5.196
   81SOPE  H16R 7402   4.847   0.717   5.268
   81SOPE  H16S 7403   4.875   0.809   5.127
   81SOPE  C217 7404   4.699   0.708   5.103
   81SOPE  H17R 7405   4.631   0.648   5.167
   81SOPE  H17S 7406   4.764   0.639   5.045
   81SOPE  C218 7407   4.618   0.796   5.001
   81SOPE  H18R 7408   4.553   0.730   4.940
   81SOPE  H18S 7409   4.685   0.850   4.931
   81SOPE  H18T 7410   4.556   0.873   5.052
   81SOPE   C33 7411   5.382   0.259   5.771
   81SOPE   H3X 7412   5.273   0.249   5.792
   81SOPE   H3Y 7413   5.397   0.203   5.677
   81SOPE   C34 7414   5.417   0.409   5.760
   81SOPE   H4X 7415   5.394   0.470   5.851
   81SOPE   H4Y 7416   5.343   0.445   5.686
   81SOPE   C35 7417   5.554   0.436   5.699
   81SOPE   H5X 7418   5.635   0.389   5.759
   81SOPE   H5Y 7419   5.586   0.541   5.711
   81SOPE   C36 7420   5.564   0.404   5.544
   81SOPE   H6X 7421   5.489   0.465   5.489
   81SOPE   H6Y 7422   5.554   0.295   5.528
   81SOPE   C37 7423   5.710   0.451   5.499
   81SOPE   H7X 7424   5.781   0.404   5.571
   81SOPE   H7Y 7425   5.722   0.560   5.517
   81SOPE   C38 7426   5.752   0.427   5.351
   81SOPE   H8X 7427   5.831   0.505   5.339
   81SOPE   H8Y 7428   5.679   0.461   5.274
   81SOPE   C39 7429   5.803   0.281   5.315
   81SOPE   H9X 7430   5.714   0.224   5.280
   81SOPE   H9Y 7431   5.847   0.235   5.406
   81SOPE  C310 7432   5.910   0.294   5.206
   81SOPE  H10X 7433   5.985   0.368   5.240
   81SOPE  H10Y 7434   5.871   0.326   5.107
   81SOPE  C311 7435   5.999   0.171   5.181
   81SOPE  H11X 7436   5.925   0.089   5.173
   81SOPE  H11Y 7437   6.056   0.147   5.273
   81SOPE  C312 7438   6.094   0.182   5.070
   81SOPE  H12X 7439   6.183   0.122   5.097
   81SOPE  H12Y 7440   6.125   0.288   5.054
   81SOPE  C313 7441   6.029   0.128   4.935
   81SOPE  H13X 7442   5.924   0.154   4.913
   81SOPE  H13Y 7443   6.022   0.019   4.951
   81SOPE  C314 7444   6.122   0.141   4.814
   81SOPE  H14X 7445   6.100   0.065   4.736
   81SOPE  H14Y 7446   6.229   0.137   4.845
   81SOPE  C315 7447   6.110   0.274   4.735
   81SOPE  H15X 7448   6.131   0.360   4.802
   81SOPE  H15Y 7449   6.007   0.292   4.698
   81SOPE  C316 7450   6.217   0.279   4.622
   81SOPE  H16X 7451   6.197   0.197   4.550
   81SOPE  H16Y 7452   6.308   0.257   4.682
   81SOPE  C317 7453   6.227   0.415   4.555
   81SOPE  H17X 7454   6.255   0.493   4.630
   81SOPE  H17Y 7455   6.126   0.442   4.517
   81SOPE  C318 7456   6.324   0.410   4.440
   81SOPE  H18X 7457   6.412   0.361   4.487
   81SOPE  H18Y 7458   6.349   0.516   4.417
   81SOPE  H18Z 7459   6.300   0.349   4.351
   82SOPE     N 7460   2.066   1.272   6.365
   82SOPE   HN1 7461   2.104   1.346   6.428
   82SOPE   HN2 7462   2.046   1.177   6.403
   82SOPE   HN3 7463   2.144   1.250   6.301
   82SOPE   C12 7464   1.948   1.310   6.284
   82SOPE  H12A 7465   1.960   1.415   6.249
   82SOPE  H12B 7466   1.857   1.307   6.347
   82SOPE   C11 7467   1.932   1.222   6.164
   82SOPE  H11A 7468   2.022   1.223   6.099
   82SOPE  H11B 7469   1.862   1.271   6.094
   82SOPE     P 7470   1.964   0.962   6.244
   82SOPE   O13 7471   1.865   0.852   6.257
   82SOPE   O14 7472   2.031   0.998   6.367
   82SOPE   O12 7473   1.886   1.088   6.183
   82SOPE   O11 7474   2.061   0.915   6.132
   82SOPE    C1 7475   2.003   0.896   5.998
   82SOPE    HA 7476   1.964   0.995   5.967
   82SOPE    HB 7477   1.922   0.821   5.992
   82SOPE    C2 7478   2.115   0.850   5.909
   82SOPE    HS 7479   2.189   0.932   5.925
   82SOPE   O21 7480   2.067   0.864   5.775
   82SOPE   C21 7481   2.166   0.867   5.687
   82SOPE   O22 7482   2.281   0.860   5.706
   82SOPE   C22 7483   2.104   0.866   5.545
   82SOPE   H2R 7484   2.051   0.962   5.530
   82SOPE   H2S 7485   2.018   0.795   5.545
   82SOPE    C3 7486   2.163   0.707   5.950
   82SOPE    HX 7487   2.141   0.678   6.055
   82SOPE    HY 7488   2.274   0.698   5.943
   82SOPE   O31 7489   2.109   0.607   5.859
   82SOPE   C31 7490   1.991   0.564   5.889
   82SOPE   O32 7491   1.928   0.588   5.994
   82SOPE   C32 7492   1.926   0.472   5.780
   82SOPE   H2X 7493   1.971   0.370   5.781
   82SOPE   H2Y 7494   1.928   0.528   5.684
   82SOPE   C23 7495   2.200   0.832   5.433
   82SOPE   H3R 7496   2.273   0.755   5.466
   82SOPE   H3S 7497   2.259   0.915   5.388
   82SOPE   C24 7498   2.125   0.769   5.310
   82SOPE   H4R 7499   2.091   0.671   5.350
   82SOPE   H4S 7500   2.030   0.818   5.279
   82SOPE   C25 7501   2.207   0.726   5.184
   82SOPE   H5R 7502   2.162   0.653   5.113
   82SOPE   H5S 7503   2.248   0.807   5.120
   82SOPE   C26 7504   2.335   0.661   5.232
   82SOPE   H6R 7505   2.404   0.737   5.275
   82SOPE   H6S 7506   2.316   0.588   5.314
   82SOPE   C27 7507   2.420   0.606   5.115
   82SOPE   H7R 7508   2.377   0.517   5.065
   82SOPE   H7S 7509   2.429   0.692   5.045
   82SOPE   C28 7510   2.570   0.580   5.155
   82SOPE   H8R 7511   2.622   0.566   5.057
   82SOPE   H8S 7512   2.621   0.667   5.202
   82SOPE   C29 7513   2.577   0.456   5.249
   82SOPE   H91 7514   2.595   0.493   5.351
   82SOPE  C210 7515   2.587   0.328   5.216
   82SOPE  H101 7516   2.581   0.247   5.291
   82SOPE  C211 7517   2.583   0.265   5.079
   82SOPE  H11R 7518   2.682   0.219   5.057
   82SOPE  H11S 7519   2.563   0.339   4.999
   82SOPE  C212 7520   2.463   0.161   5.072
   82SOPE  H12R 7521   2.371   0.216   5.103
   82SOPE  H12S 7522   2.483   0.070   5.132
   82SOPE  C213 7523   2.442   0.108   4.929
   82SOPE  H13R 7524   2.401   0.006   4.939
   82SOPE  H13S 7525   2.545   0.101   4.890
   82SOPE  C214 7526   2.362   0.187   4.836
   82SOPE  H14R 7527   2.420   0.281   4.827
   82SOPE  H14S 7528   2.266   0.220   4.882
   82SOPE  C215 7529   2.345   0.126   4.694
   82SOPE  H15R 7530   2.311   0.022   4.713
   82SOPE  H15S 7531   2.440   0.113   4.638
   82SOPE  C216 7532   2.237   0.204   4.615
   82SOPE  H16R 7533   2.286   0.303   4.602
   82SOPE  H16S 7534   2.144   0.233   4.669
   82SOPE  C217 7535   2.204   0.145   4.478
   82SOPE  H17R 7536   2.292   0.098   4.430
   82SOPE  H17S 7537   2.175   0.227   4.408
   82SOPE  C218 7538   2.092   0.044   4.491
   82SOPE  H18R 7539   2.123   6.849   4.560
   82SOPE  H18S 7540   2.070   0.000   4.391
   82SOPE  H18T 7541   2.004   0.099   4.530
   82SOPE   C33 7542   1.777   0.467   5.808
   82SOPE   H3X 7543   1.745   0.573   5.816
   82SOPE   H3Y 7544   1.753   0.419   5.905
   82SOPE   C34 7545   1.679   0.401   5.709
   82SOPE   H4X 7546   1.699   0.292   5.716
   82SOPE   H4Y 7547   1.710   0.430   5.606
   82SOPE   C35 7548   1.533   0.434   5.741
   82SOPE   H5X 7549   1.519   0.544   5.752
   82SOPE   H5Y 7550   1.492   0.401   5.838
   82SOPE   C36 7551   1.442   0.385   5.624
   82SOPE   H6X 7552   1.457   0.278   5.596
   82SOPE   H6Y 7553   1.471   0.447   5.537
   82SOPE   C37 7554   1.294   0.398   5.660
   82SOPE   H7X 7555   1.273   0.344   5.755
   82SOPE   H7Y 7556   1.226   0.347   5.588
   82SOPE   C38 7557   1.241   0.549   5.669
   82SOPE   H8X 7558   1.297   0.585   5.758
   82SOPE   H8Y 7559   1.137   0.533   5.702
   82SOPE   C39 7560   1.267   0.639   5.537
   82SOPE   H9X 7561   1.374   0.623   5.516
   82SOPE   H9Y 7562   1.265   0.742   5.580
   82SOPE  C310 7563   1.179   0.604   5.424
   82SOPE  H10X 7564   1.080   0.647   5.451
   82SOPE  H10Y 7565   1.175   0.494   5.411
   82SOPE  C311 7566   1.228   0.664   5.298
   82SOPE  H11X 7567   1.325   0.626   5.260
   82SOPE  H11Y 7568   1.251   0.771   5.316
   82SOPE  C312 7569   1.127   0.653   5.179
   82SOPE  H12X 7570   1.045   0.721   5.208
   82SOPE  H12Y 7571   1.086   0.552   5.159
   82SOPE  C313 7572   1.179   0.706   5.043
   82SOPE  H13X 7573   1.269   0.652   5.005
   82SOPE  H13Y 7574   1.231   0.801   5.063
   82SOPE  C314 7575   1.074   0.713   4.935
   82SOPE  H14X 7576   0.991   0.785   4.953
   82SOPE  H14Y 7577   1.031   0.611   4.943
   82SOPE  C315 7578   1.122   0.741   4.794
   82SOPE  H15X 7579   1.038   0.705   4.731
   82SOPE  H15Y 7580   1.216   0.686   4.772
   82SOPE  C316 7581   1.145   0.892   4.780
   82SOPE  H16X 7582   1.228   0.927   4.846
   82SOPE  H16Y 7583   1.050   0.941   4.809
   82SOPE  C317 7584   1.185   0.928   4.634
   82SOPE  H17X 7585   1.249   0.844   4.597
   82SOPE  H17Y 7586   1.235   1.027   4.628
   82SOPE  C318 7587   1.070   0.928   4.532
   82SOPE  H18X 7588   1.104   0.938   4.427
   82SOPE  H18Y 7589   1.010   1.019   4.554
   82SOPE  H18Z 7590   0.993   0.849   4.526
   83SOPE     N 7591   0.990   2.544   1.588
   83SOPE   HN1 7592   1.061   2.478   1.549
   83SOPE   HN2 7593   0.993   2.545   1.692
   83SOPE   HN3 7594   0.899   2.515   1.549
   83SOPE   C12 7595   1.020   2.681   1.535
   83SOPE  H12A 7596   0.932   2.746   1.550
   83SOPE  H12B 7597   1.050   2.673   1.428
   83SOPE   C11 7598   1.141   2.734   1.610
   83SOPE  H11A 7599   1.107   2.755   1.714
   83SOPE  H11B 7600   1.169   2.834   1.571
   83SOPE     P 7601   1.341   2.623   1.741
   83SOPE   O13 7602   1.396   2.750   1.789
   83SOPE   O14 7603   1.438   2.519   1.716
   83SOPE   O12 7604   1.260   2.647   1.607
   83SOPE   O11 7605   1.234   2.578   1.846
   83SOPE    C1 7606   1.250   2.623   1.985
   83SOPE    HA 7607   1.151   2.610   2.034
   83SOPE    HB 7608   1.274   2.732   1.984
   83SOPE    C2 7609   1.353   2.555   2.077
   83SOPE    HS 7610   1.429   2.505   2.013
   83SOPE   O21 7611   1.295   2.454   2.162
   83SOPE   C21 7612   1.378   2.369   2.218
   83SOPE   O22 7613   1.500   2.356   2.210
   83SOPE   C22 7614   1.299   2.291   2.327
   83SOPE   H2R 7615   1.217   2.231   2.282
   83SOPE   H2S 7616   1.244   2.365   2.389
   83SOPE    C3 7617   1.434   2.653   2.161
   83SOPE    HX 7618   1.501   2.712   2.095
   83SOPE    HY 7619   1.504   2.609   2.235
   83SOPE   O31 7620   1.350   2.743   2.228
   83SOPE   C31 7621   1.302   2.706   2.345
   83SOPE   O32 7622   1.332   2.604   2.402
   83SOPE   C32 7623   1.218   2.815   2.411
   83SOPE   H2X 7624   1.112   2.781   2.412
   83SOPE   H2Y 7625   1.224   2.904   2.345
   83SOPE   C23 7626   1.385   2.209   2.414
   83SOPE   H3R 7627   1.459   2.279   2.456
   83SOPE   H3S 7628   1.434   2.125   2.359
   83SOPE   C24 7629   1.300   2.165   2.538
   83SOPE   H4R 7630   1.222   2.242   2.557
   83SOPE   H4S 7631   1.258   2.066   2.511
   83SOPE   C25 7632   1.388   2.162   2.665
   83SOPE   H5R 7633   1.466   2.084   2.655
   83SOPE   H5S 7634   1.438   2.261   2.667
   83SOPE   C26 7635   1.308   2.142   2.795
   83SOPE   H6R 7636   1.240   2.225   2.824
   83SOPE   H6S 7637   1.240   2.055   2.784
   83SOPE   C27 7638   1.397   2.124   2.921
   83SOPE   H7R 7639   1.482   2.057   2.897
   83SOPE   H7S 7640   1.440   2.222   2.950
   83SOPE   C28 7641   1.332   2.084   3.056
   83SOPE   H8R 7642   1.409   2.092   3.135
   83SOPE   H8S 7643   1.257   2.161   3.082
   83SOPE   C29 7644   1.265   1.948   3.050
   83SOPE   H91 7645   1.255   1.901   2.951
   83SOPE  C210 7646   1.206   1.901   3.161
   83SOPE  H101 7647   1.163   1.799   3.161
   83SOPE  C211 7648   1.211   1.964   3.299
   83SOPE  H11R 7649   1.108   1.987   3.334
   83SOPE  H11S 7650   1.257   2.065   3.295
   83SOPE  C212 7651   1.279   1.892   3.413
   83SOPE  H12R 7652   1.213   1.803   3.423
   83SOPE  H12S 7653   1.261   1.937   3.513
   83SOPE  C213 7654   1.435   1.868   3.385
   83SOPE  H13R 7655   1.488   1.965   3.397
   83SOPE  H13S 7656   1.445   1.843   3.278
   83SOPE  C214 7657   1.493   1.763   3.482
   83SOPE  H14R 7658   1.573   1.708   3.429
   83SOPE  H14S 7659   1.414   1.692   3.516
   83SOPE  C215 7660   1.560   1.829   3.599
   83SOPE  H15R 7661   1.510   1.919   3.640
   83SOPE  H15S 7662   1.663   1.855   3.565
   83SOPE  C216 7663   1.591   1.735   3.717
   83SOPE  H16R 7664   1.662   1.658   3.679
   83SOPE  H16S 7665   1.502   1.677   3.748
   83SOPE  C217 7666   1.658   1.801   3.834
   83SOPE  H17R 7667   1.574   1.872   3.847
   83SOPE  H17S 7668   1.756   1.846   3.810
   83SOPE  C218 7669   1.661   1.700   3.954
   83SOPE  H18R 7670   1.741   1.629   3.926
   83SOPE  H18S 7671   1.560   1.657   3.975
   83SOPE  H18T 7672   1.689   1.744   4.052
   83SOPE   C33 7673   1.262   2.849   2.556
   83SOPE   H3X 7674   1.242   2.757   2.615
   83SOPE   H3Y 7675   1.194   2.923   2.605
   83SOPE   C34 7676   1.418   2.873   2.570
   83SOPE   H4X 7677   1.449   2.937   2.484
   83SOPE   H4Y 7678   1.463   2.772   2.577
   83SOPE   C35 7679   1.461   2.937   2.704
   83SOPE   H5X 7680   1.446   3.047   2.702
   83SOPE   H5Y 7681   1.571   2.933   2.718
   83SOPE   C36 7682   1.396   2.885   2.835
   83SOPE   H6X 7683   1.427   2.779   2.842
   83SOPE   H6Y 7684   1.286   2.879   2.828
   83SOPE   C37 7685   1.429   2.974   2.953
   83SOPE   H7X 7686   1.439   3.081   2.922
   83SOPE   H7Y 7687   1.523   2.938   2.999
   83SOPE   C38 7688   1.330   2.960   3.067
   83SOPE   H8X 7689   1.316   2.855   3.101
   83SOPE   H8Y 7690   1.233   3.002   3.032
   83SOPE   C39 7691   1.353   3.044   3.193
   83SOPE   H9X 7692   1.367   3.149   3.161
   83SOPE   H9Y 7693   1.446   3.010   3.242
   83SOPE  C310 7694   1.236   3.032   3.289
   83SOPE  H10X 7695   1.240   2.930   3.332
   83SOPE  H10Y 7696   1.139   3.057   3.242
   83SOPE  C311 7697   1.252   3.141   3.401
   83SOPE  H11X 7698   1.220   3.236   3.353
   83SOPE  H11Y 7699   1.359   3.153   3.426
   83SOPE  C312 7700   1.180   3.096   3.527
   83SOPE  H12X 7701   1.192   2.989   3.554
   83SOPE  H12Y 7702   1.071   3.104   3.510
   83SOPE  C313 7703   1.220   3.185   3.651
   83SOPE  H13X 7704   1.225   3.291   3.618
   83SOPE  H13Y 7705   1.314   3.148   3.698
   83SOPE  C314 7706   1.119   3.190   3.770
   83SOPE  H14X 7707   1.107   3.084   3.799
   83SOPE  H14Y 7708   1.020   3.220   3.729
   83SOPE  C315 7709   1.154   3.287   3.888
   83SOPE  H15X 7710   1.069   3.289   3.960
   83SOPE  H15Y 7711   1.177   3.386   3.844
   83SOPE  C316 7712   1.287   3.241   3.951
   83SOPE  H16X 7713   1.315   3.298   4.043
   83SOPE  H16Y 7714   1.374   3.224   3.884
   83SOPE  C317 7715   1.267   3.095   4.008
   83SOPE  H17X 7716   1.259   3.025   3.923
   83SOPE  H17Y 7717   1.170   3.098   4.062
   83SOPE  C318 7718   1.376   3.057   4.106
   83SOPE  H18X 7719   1.465   3.039   4.041
   83SOPE  H18Y 7720   1.350   2.957   4.147
   83SOPE  H18Z 7721   1.395   3.127   4.189
   84SOPE     N 7722   6.514   1.236   2.354
   84SOPE   HN1 7723   6.473   1.324   2.390
   84SOPE   HN2 7724   6.446   1.158   2.367
   84SOPE   HN3 7725   6.590   1.216   2.423
   84SOPE   C12 7726   6.566   1.251   2.214
   84SOPE  H12A 7727   6.625   1.344   2.198
   84SOPE  H12B 7728   6.475   1.258   2.151
   84SOPE   C11 7729   6.656   1.132   2.161
   84SOPE  H11A 7730   6.652   1.145   2.051
   84SOPE  H11B 7731   6.599   1.043   2.196
   84SOPE     P 7732   6.871   1.015   2.172
   84SOPE   O13 7733   0.123   1.061   2.141
   84SOPE   O14 7734   6.805   0.935   2.067
   84SOPE   O12 7735   6.786   1.141   2.216
   84SOPE   O11 7736   6.875   0.931   2.304
   84SOPE    C1 7737   6.793   0.930   2.417
   84SOPE    HA 7738   6.751   0.828   2.428
   84SOPE    HB 7739   6.704   0.994   2.404
   84SOPE    C2 7740   6.877   0.979   2.539
   84SOPE    HS 7741   6.810   0.977   2.627
   84SOPE   O21 7742   0.041   1.107   2.509
   84SOPE   C21 7743   6.837   1.202   2.507
   84SOPE   O22 7744   6.716   1.188   2.525
   84SOPE   C22 7745   0.008   1.341   2.465
   84SOPE   H2R 7746   6.806   1.407   2.453
   84SOPE   H2S 7747   0.061   1.336   2.367
   84SOPE    C3 7748   0.111   0.899   2.564
   84SOPE    HX 7749   0.174   0.956   2.635
   84SOPE    HY 7750   0.163   0.889   2.466
   84SOPE   O31 7751   0.091   0.765   2.604
   84SOPE   C31 7752   0.051   0.750   2.731
   84SOPE   O32 7753   0.018   0.837   2.805
   84SOPE   C32 7754   0.047   0.601   2.773
   84SOPE   H2X 7755   0.152   0.573   2.793
   84SOPE   H2Y 7756   0.012   0.540   2.687
   84SOPE   C23 7757   0.102   1.410   2.575
   84SOPE   H3R 7758   0.054   1.420   2.674
   84SOPE   H3S 7759   0.135   1.510   2.538
   84SOPE   C24 7760   0.236   1.336   2.594
   84SOPE   H4R 7761   0.245   1.257   2.516
   84SOPE   H4S 7762   0.313   1.415   2.583
   84SOPE   C25 7763   0.247   1.261   2.726
   84SOPE   H5R 7764   0.234   1.342   2.801
   84SOPE   H5S 7765   0.163   1.189   2.721
   84SOPE   C26 7766   0.378   1.182   2.743
   84SOPE   H6R 7767   0.372   1.094   2.675
   84SOPE   H6S 7768   0.460   1.249   2.710
   84SOPE   C27 7769   0.417   1.130   2.887
   84SOPE   H7R 7770   0.329   1.124   2.955
   84SOPE   H7S 7771   0.468   1.035   2.863
   84SOPE   C28 7772   0.530   1.214   2.939
   84SOPE   H8R 7773   0.610   1.234   2.865
   84SOPE   H8S 7774   0.500   1.318   2.965
   84SOPE   C29 7775   0.594   1.149   3.060
   84SOPE   H91 7776   0.660   1.063   3.041
   84SOPE  C210 7777   0.569   1.181   3.188
   84SOPE  H101 7778   0.614   1.117   3.265
   84SOPE  C211 7779   0.471   1.285   3.234
   84SOPE  H11R 7780   0.394   1.291   3.154
   84SOPE  H11S 7781   0.533   1.377   3.242
   84SOPE  C212 7782   0.395   1.252   3.361
   84SOPE  H12R 7783   0.356   1.148   3.364
   84SOPE  H12S 7784   0.312   1.325   3.376
   84SOPE  C213 7785   0.486   1.276   3.486
   84SOPE  H13R 7786   0.534   1.376   3.481
   84SOPE  H13S 7787   0.562   1.197   3.471
   84SOPE  C214 7788   0.412   1.262   3.614
   84SOPE  H14R 7789   0.364   1.163   3.595
   84SOPE  H14S 7790   0.331   1.336   3.630
   84SOPE  C215 7791   0.491   1.258   3.737
   84SOPE  H15R 7792   0.520   1.357   3.780
   84SOPE  H15S 7793   0.584   1.198   3.726
   84SOPE  C216 7794   0.412   1.178   3.848
   84SOPE  H16R 7795   0.387   1.079   3.803
   84SOPE  H16S 7796   0.323   1.228   3.891
   84SOPE  C217 7797   0.496   1.153   3.981
   84SOPE  H17R 7798   0.585   1.097   3.945
   84SOPE  H17S 7799   0.445   1.075   4.043
   84SOPE  C218 7800   0.536   1.280   4.060
   84SOPE  H18R 7801   0.587   1.359   4.002
   84SOPE  H18S 7802   0.610   1.264   4.141
   84SOPE  H18T 7803   0.449   1.326   4.112
   84SOPE   C33 7804   6.853   0.576   2.899
   84SOPE   H3X 7805   6.844   0.465   2.893
   84SOPE   H3Y 7806   6.756   0.629   2.911
   84SOPE   C34 7807   0.058   0.599   3.021
   84SOPE   H4X 7808   0.119   0.691   3.012
   84SOPE   H4Y 7809   0.123   0.509   3.019
   84SOPE   C35 7810   6.865   0.601   3.152
   84SOPE   H5X 7811   6.830   0.499   3.180
   84SOPE   H5Y 7812   6.769   0.657   3.148
   84SOPE   C36 7813   0.047   0.652   3.273
   84SOPE   H6X 7814   0.056   0.763   3.270
   84SOPE   H6Y 7815   0.139   0.591   3.284
   84SOPE   C37 7816   6.862   0.627   3.407
   84SOPE   H7X 7817   6.821   0.524   3.406
   84SOPE   H7Y 7818   6.788   0.709   3.421
   84SOPE   C38 7819   0.069   0.623   3.525
   84SOPE   H8X 7820   0.131   0.715   3.516
   84SOPE   H8Y 7821   0.136   0.535   3.525
   84SOPE   C39 7822   0.001   0.638   3.663
   84SOPE   H9X 7823   6.827   0.548   3.686
   84SOPE   H9Y 7824   6.825   0.728   3.643
   84SOPE  C310 7825   0.079   0.684   3.783
   84SOPE  H10X 7826   0.004   0.721   3.855
   84SOPE  H10Y 7827   0.151   0.767   3.764
   84SOPE  C311 7828   0.161   0.563   3.843
   84SOPE  H11X 7829   0.235   0.540   3.764
   84SOPE  H11Y 7830   0.097   0.472   3.842
   84SOPE  C312 7831   0.233   0.599   3.968
   84SOPE  H12X 7832   0.287   0.694   3.946
   84SOPE  H12Y 7833   0.296   0.517   4.009
   84SOPE  C313 7834   0.139   0.638   4.076
   84SOPE  H13X 7835   0.071   0.552   4.091
   84SOPE  H13Y 7836   0.084   0.729   4.043
   84SOPE  C314 7837   0.206   0.680   4.207
   84SOPE  H14X 7838   0.268   0.771   4.190
   84SOPE  H14Y 7839   0.271   0.605   4.256
   84SOPE  C315 7840   0.103   0.717   4.310
   84SOPE  H15X 7841   0.016   0.649   4.318
   84SOPE  H15Y 7842   0.060   0.817   4.286
   84SOPE  C316 7843   0.169   0.735   4.447
   84SOPE  H16X 7844   0.247   0.815   4.452
   84SOPE  H16Y 7845   0.209   0.645   4.497
   84SOPE  C317 7846   0.062   0.775   4.559
   84SOPE  H17X 7847   6.875   0.694   4.544
   84SOPE  H17Y 7848   0.008   0.870   4.539
   84SOPE  C318 7849   0.104   0.776   4.706
   84SOPE  H18X 7850   0.117   0.673   4.745
   84SOPE  H18Y 7851   0.018   0.815   4.765
   84SOPE  H18Z 7852   0.194   0.840   4.722
   85SOPE     N 7853   5.163   5.163   2.246
   85SOPE   HN1 7854   5.127   5.111   2.328
   85SOPE   HN2 7855   5.202   5.250   2.289
   85SOPE   HN3 7856   5.083   5.192   2.187
   85SOPE   C12 7857   5.258   5.069   2.184
   85SOPE  H12A 7858   5.295   5.122   2.093
   85SOPE  H12B 7859   5.198   4.979   2.162
   85SOPE   C11 7860   5.376   5.041   2.282
   85SOPE  H11A 7861   5.425   5.134   2.318
   85SOPE  H11B 7862   5.449   4.986   2.218
   85SOPE     P 7863   5.334   4.816   2.393
   85SOPE   O13 7864   5.435   4.760   2.300
   85SOPE   O14 7865   5.191   4.778   2.373
   85SOPE   O12 7866   5.340   4.969   2.401
   85SOPE   O11 7867   5.369   4.769   2.537
   85SOPE    C1 7868   5.305   4.846   2.640
   85SOPE    HA 7869   5.268   4.949   2.615
   85SOPE    HB 7870   5.382   4.866   2.717
   85SOPE    C2 7871   5.190   4.772   2.713
   85SOPE    HS 7872   5.098   4.755   2.653
   85SOPE   O21 7873   5.169   4.848   2.835
   85SOPE   C21 7874   5.085   4.940   2.834
   85SOPE   O22 7875   5.052   5.007   2.739
   85SOPE   C22 7876   5.037   4.955   2.976
   85SOPE   H2R 7877   5.061   5.059   3.005
   85SOPE   H2S 7878   5.088   4.883   3.044
   85SOPE    C3 7879   5.223   4.627   2.757
   85SOPE    HX 7880   5.291   4.648   2.842
   85SOPE    HY 7881   5.287   4.582   2.679
   85SOPE   O31 7882   5.103   4.560   2.808
   85SOPE   C31 7883   5.062   4.462   2.722
   85SOPE   O32 7884   5.115   4.451   2.610
   85SOPE   C32 7885   4.938   4.377   2.772
   85SOPE   H2X 7886   4.936   4.288   2.705
   85SOPE   H2Y 7887   4.850   4.443   2.757
   85SOPE   C23 7888   4.883   4.927   2.985
   85SOPE   H3R 7889   4.836   4.987   2.904
   85SOPE   H3S 7890   4.843   4.957   3.083
   85SOPE   C24 7891   4.843   4.779   2.976
   85SOPE   H4R 7892   4.867   4.738   2.875
   85SOPE   H4S 7893   4.922   4.732   3.040
   85SOPE   C25 7894   4.702   4.743   3.024
   85SOPE   H5R 7895   4.671   4.792   3.118
   85SOPE   H5S 7896   4.625   4.776   2.952
   85SOPE   C26 7897   4.676   4.596   3.041
   85SOPE   H6R 7898   4.565   4.587   3.039
   85SOPE   H6S 7899   4.713   4.546   2.948
   85SOPE   C27 7900   4.745   4.526   3.166
   85SOPE   H7R 7901   4.721   4.418   3.167
   85SOPE   H7S 7902   4.855   4.536   3.153
   85SOPE   C28 7903   4.712   4.588   3.297
   85SOPE   H8R 7904   4.771   4.682   3.290
   85SOPE   H8S 7905   4.604   4.613   3.310
   85SOPE   C29 7906   4.774   4.521   3.417
   85SOPE   H91 7907   4.878   4.486   3.409
   85SOPE  C210 7908   4.726   4.524   3.543
   85SOPE  H101 7909   4.779   4.472   3.623
   85SOPE  C211 7910   4.602   4.608   3.589
   85SOPE  H11R 7911   4.565   4.554   3.678
   85SOPE  H11S 7912   4.520   4.592   3.515
   85SOPE  C212 7913   4.613   4.760   3.618
   85SOPE  H12R 7914   4.509   4.797   3.636
   85SOPE  H12S 7915   4.647   4.823   3.533
   85SOPE  C213 7916   4.701   4.790   3.740
   85SOPE  H13R 7917   4.802   4.744   3.730
   85SOPE  H13S 7918   4.661   4.746   3.834
   85SOPE  C214 7919   4.711   4.939   3.764
   85SOPE  H14R 7920   4.795   4.978   3.703
   85SOPE  H14S 7921   4.748   4.941   3.869
   85SOPE  C215 7922   4.584   5.020   3.750
   85SOPE  H15R 7923   4.497   4.991   3.812
   85SOPE  H15S 7924   4.545   5.007   3.647
   85SOPE  C216 7925   4.622   5.174   3.768
   85SOPE  H16R 7926   4.691   5.196   3.684
   85SOPE  H16S 7927   4.674   5.185   3.866
   85SOPE  C217 7928   4.504   5.267   3.756
   85SOPE  H17R 7929   4.409   5.210   3.753
   85SOPE  H17S 7930   4.521   5.331   3.666
   85SOPE  C218 7931   4.502   5.375   3.867
   85SOPE  H18R 7932   4.607   5.411   3.873
   85SOPE  H18S 7933   4.490   5.352   3.975
   85SOPE  H18T 7934   4.437   5.465   3.857
   85SOPE   C33 7935   4.943   4.318   2.913
   85SOPE   H3X 7936   4.840   4.283   2.935
   85SOPE   H3Y 7937   4.963   4.398   2.988
   85SOPE   C34 7938   5.056   4.203   2.921
   85SOPE   H4X 7939   5.153   4.248   2.950
   85SOPE   H4Y 7940   5.078   4.165   2.819
   85SOPE   C35 7941   5.030   4.090   3.016
   85SOPE   H5X 7942   5.116   4.022   3.006
   85SOPE   H5Y 7943   4.938   4.034   2.988
   85SOPE   C36 7944   5.008   4.141   3.166
   85SOPE   H6X 7945   4.923   4.212   3.168
   85SOPE   H6Y 7946   5.096   4.193   3.209
   85SOPE   C37 7947   4.974   4.019   3.258
   85SOPE   H7X 7948   5.053   3.941   3.260
   85SOPE   H7Y 7949   4.889   3.972   3.203
   85SOPE   C38 7950   4.919   4.049   3.404
   85SOPE   H8X 7951   4.909   3.951   3.454
   85SOPE   H8Y 7952   4.815   4.083   3.382
   85SOPE   C39 7953   5.004   4.146   3.476
   85SOPE   H9X 7954   4.977   4.248   3.439
   85SOPE   H9Y 7955   5.106   4.118   3.442
   85SOPE  C310 7956   4.997   4.142   3.631
   85SOPE  H10X 7957   4.894   4.166   3.666
   85SOPE  H10Y 7958   5.063   4.222   3.671
   85SOPE  C311 7959   5.046   4.001   3.687
   85SOPE  H11X 7960   5.115   3.951   3.616
   85SOPE  H11Y 7961   4.950   3.946   3.702
   85SOPE  C312 7962   5.133   4.003   3.815
   85SOPE  H12X 7963   5.234   4.046   3.795
   85SOPE  H12Y 7964   5.152   3.898   3.849
   85SOPE  C313 7965   5.069   4.076   3.935
   85SOPE  H13X 7966   4.973   4.121   3.902
   85SOPE  H13Y 7967   5.132   4.162   3.964
   85SOPE  C314 7968   5.033   3.982   4.053
   85SOPE  H14X 7969   5.131   3.955   4.100
   85SOPE  H14Y 7970   4.980   3.894   4.010
   85SOPE  C315 7971   4.957   4.042   4.171
   85SOPE  H15X 7972   4.861   4.088   4.138
   85SOPE  H15Y 7973   5.027   4.121   4.205
   85SOPE  C316 7974   4.943   3.939   4.288
   85SOPE  H16X 7975   4.909   3.841   4.248
   85SOPE  H16Y 7976   4.862   3.977   4.354
   85SOPE  C317 7977   5.064   3.890   4.366
   85SOPE  H17X 7978   5.133   3.836   4.299
   85SOPE  H17Y 7979   5.030   3.816   4.442
   85SOPE  C318 7980   5.144   3.996   4.436
   85SOPE  H18X 7981   5.216   3.945   4.503
   85SOPE  H18Y 7982   5.081   4.051   4.510
   85SOPE  H18Z 7983   5.184   4.071   4.365
   86SOPE     N 7984   5.314   1.968   1.939
   86SOPE   HN1 7985   5.368   2.056   1.931
   86SOPE   HN2 7986   5.384   1.891   1.941
   86SOPE   HN3 7987   5.257   1.953   1.854
   86SOPE   C12 7988   5.230   1.969   2.067
   86SOPE  H12A 7989   5.152   1.891   2.059
   86SOPE  H12B 7990   5.177   2.067   2.069
   86SOPE   C11 7991   5.312   1.942   2.197
   86SOPE  H11A 7992   5.246   1.972   2.281
   86SOPE  H11B 7993   5.400   2.009   2.209
   86SOPE     P 7994   5.480   1.752   2.250
   86SOPE   O13 7995   5.516   1.804   2.381
   86SOPE   O14 7996   5.574   1.777   2.143
   86SOPE   O12 7997   5.341   1.805   2.211
   86SOPE   O11 7998   5.452   1.591   2.259
   86SOPE    C1 7999   5.322   1.534   2.271
   86SOPE    HA 8000   5.281   1.501   2.173
   86SOPE    HB 8001   5.244   1.601   2.314
   86SOPE    C2 8002   5.324   1.414   2.364
   86SOPE    HS 8003   5.221   1.396   2.402
   86SOPE   O21 8004   5.416   1.429   2.471
   86SOPE   C21 8005   5.394   1.525   2.554
   86SOPE   O22 8006   5.285   1.584   2.574
   86SOPE   C22 8007   5.518   1.554   2.635
   86SOPE   H2R 8008   5.581   1.618   2.570
   86SOPE   H2S 8009   5.553   1.450   2.654
   86SOPE    C3 8010   5.361   1.284   2.280
   86SOPE    HX 8011   5.469   1.306   2.263
   86SOPE    HY 8012   5.303   1.277   2.186
   86SOPE   O31 8013   5.347   1.169   2.369
   86SOPE   C31 8014   5.230   1.103   2.369
   86SOPE   O32 8015   5.125   1.141   2.319
   86SOPE   C32 8016   5.258   0.984   2.461
   86SOPE   H2X 8017   5.365   0.955   2.449
   86SOPE   H2Y 8018   5.203   0.901   2.412
   86SOPE   C23 8019   5.485   1.646   2.758
   86SOPE   H3R 8020   5.395   1.710   2.743
   86SOPE   H3S 8021   5.572   1.712   2.772
   86SOPE   C24 8022   5.478   1.572   2.895
   86SOPE   H4R 8023   5.406   1.487   2.888
   86SOPE   H4S 8024   5.569   1.522   2.934
   86SOPE   C25 8025   5.425   1.660   3.007
   86SOPE   H5R 8026   5.475   1.760   3.008
   86SOPE   H5S 8027   5.316   1.678   2.993
   86SOPE   C26 8028   5.437   1.583   3.146
   86SOPE   H6R 8029   5.357   1.507   3.135
   86SOPE   H6S 8030   5.538   1.539   3.131
   86SOPE   C27 8031   5.434   1.659   3.280
   86SOPE   H7R 8032   5.512   1.738   3.287
   86SOPE   H7S 8033   5.340   1.717   3.273
   86SOPE   C28 8034   5.450   1.570   3.403
   86SOPE   H8R 8035   5.381   1.484   3.387
   86SOPE   H8S 8036   5.551   1.526   3.410
   86SOPE   C29 8037   5.411   1.657   3.517
   86SOPE   H91 8038   5.328   1.727   3.501
   86SOPE  C210 8039   5.448   1.633   3.641
   86SOPE  H101 8040   5.412   1.707   3.715
   86SOPE  C211 8041   5.547   1.526   3.680
   86SOPE  H11R 8042   5.589   1.466   3.597
   86SOPE  H11S 8043   5.488   1.447   3.731
   86SOPE  C212 8044   5.666   1.572   3.774
   86SOPE  H12R 8045   5.624   1.624   3.863
   86SOPE  H12S 8046   5.730   1.646   3.722
   86SOPE  C213 8047   5.737   1.452   3.838
   86SOPE  H13R 8048   5.766   1.380   3.759
   86SOPE  H13S 8049   5.659   1.406   3.904
   86SOPE  C214 8050   5.856   1.504   3.920
   86SOPE  H14R 8051   5.812   1.555   4.009
   86SOPE  H14S 8052   5.916   1.580   3.867
   86SOPE  C215 8053   5.952   1.390   3.967
   86SOPE  H15R 8054   6.043   1.450   3.987
   86SOPE  H15S 8055   5.973   1.327   3.878
   86SOPE  C216 8056   5.899   1.307   4.079
   86SOPE  H16R 8057   5.789   1.293   4.071
   86SOPE  H16S 8058   5.917   1.362   4.173
   86SOPE  C217 8059   5.967   1.166   4.081
   86SOPE  H17R 8060   6.077   1.182   4.088
   86SOPE  H17S 8061   5.932   1.121   3.985
   86SOPE  C218 8062   5.941   1.076   4.200
   86SOPE  H18R 8063   5.996   0.980   4.189
   86SOPE  H18S 8064   5.830   1.062   4.205
   86SOPE  H18T 8065   5.966   1.121   4.298
   86SOPE   C33 8066   5.218   1.010   2.610
   86SOPE   H3X 8067   5.116   1.053   2.619
   86SOPE   H3Y 8068   5.274   1.090   2.663
   86SOPE   C34 8069   5.211   0.881   2.693
   86SOPE   H4X 8070   5.304   0.819   2.695
   86SOPE   H4Y 8071   5.124   0.820   2.660
   86SOPE   C35 8072   5.183   0.916   2.843
   86SOPE   H5X 8073   5.073   0.925   2.858
   86SOPE   H5Y 8074   5.244   1.004   2.871
   86SOPE   C36 8075   5.236   0.797   2.930
   86SOPE   H6X 8076   5.346   0.783   2.925
   86SOPE   H6Y 8077   5.192   0.701   2.894
   86SOPE   C37 8078   5.203   0.821   3.078
   86SOPE   H7X 8079   5.094   0.843   3.087
   86SOPE   H7Y 8080   5.262   0.908   3.113
   86SOPE   C38 8081   5.250   0.704   3.167
   86SOPE   H8X 8082   5.360   0.694   3.161
   86SOPE   H8Y 8083   5.214   0.607   3.128
   86SOPE   C39 8084   5.220   0.713   3.321
   86SOPE   H9X 8085   5.251   0.618   3.370
   86SOPE   H9Y 8086   5.112   0.723   3.341
   86SOPE  C310 8087   5.299   0.827   3.383
   86SOPE  H10X 8088   5.247   0.924   3.370
   86SOPE  H10Y 8089   5.398   0.841   3.334
   86SOPE  C311 8090   5.312   0.799   3.537
   86SOPE  H11X 8091   5.362   0.893   3.570
   86SOPE  H11Y 8092   5.381   0.715   3.561
   86SOPE  C312 8093   5.183   0.785   3.623
   86SOPE  H12X 8094   5.148   0.682   3.598
   86SOPE  H12Y 8095   5.110   0.860   3.587
   86SOPE  C313 8096   5.213   0.794   3.771
   86SOPE  H13X 8097   5.280   0.881   3.787
   86SOPE  H13Y 8098   5.272   0.704   3.798
   86SOPE  C314 8099   5.091   0.807   3.862
   86SOPE  H14X 8100   5.021   0.723   3.841
   86SOPE  H14Y 8101   5.045   0.907   3.846
   86SOPE  C315 8102   5.130   0.791   4.010
   86SOPE  H15X 8103   5.196   0.879   4.024
   86SOPE  H15Y 8104   5.199   0.706   4.020
   86SOPE  C316 8105   5.006   0.774   4.096
   86SOPE  H16X 8106   4.945   0.702   4.037
   86SOPE  H16Y 8107   4.937   0.861   4.094
   86SOPE  C317 8108   5.040   0.735   4.237
   86SOPE  H17X 8109   5.040   0.624   4.242
   86SOPE  H17Y 8110   4.947   0.774   4.284
   86SOPE  C318 8111   5.161   0.800   4.290
   86SOPE  H18X 8112   5.148   0.910   4.276
   86SOPE  H18Y 8113   5.260   0.779   4.244
   86SOPE  H18Z 8114   5.168   0.794   4.401
   87SOPE     N 8115   6.149   0.569   2.348
   87SOPE   HN1 8116   6.195   0.643   2.292
   87SOPE   HN2 8117   6.166   0.475   2.306
   87SOPE   HN3 8118   6.046   0.582   2.353
   87SOPE   C12 8119   6.197   0.587   2.489
   87SOPE  H12A 8120   6.305   0.562   2.488
   87SOPE  H12B 8121   6.142   0.523   2.562
   87SOPE   C11 8122   6.181   0.739   2.534
   87SOPE  H11A 8123   6.215   0.766   2.636
   87SOPE  H11B 8124   6.072   0.761   2.545
   87SOPE     P 8125   6.386   0.885   2.460
   87SOPE   O13 8126   6.403   0.989   2.358
   87SOPE   O14 8127   6.482   0.772   2.456
   87SOPE   O12 8128   6.240   0.827   2.446
   87SOPE   O11 8129   6.380   0.939   2.606
   87SOPE    C1 8130   6.491   0.944   2.695
   87SOPE    HA 8131   6.542   1.040   2.671
   87SOPE    HB 8132   6.557   0.857   2.674
   87SOPE    C2 8133   6.450   0.928   2.849
   87SOPE    HS 8134   6.380   0.843   2.857
   87SOPE   O21 8135   6.385   1.049   2.895
   87SOPE   C21 8136   6.284   1.028   2.982
   87SOPE   O22 8137   6.248   0.929   3.041
   87SOPE   C22 8138   6.222   1.169   2.998
   87SOPE   H2R 8139   6.202   1.210   2.896
   87SOPE   H2S 8140   6.293   1.224   3.062
   87SOPE    C3 8141   6.576   0.900   2.938
   87SOPE    HX 8142   6.633   0.995   2.933
   87SOPE    HY 8143   6.645   0.822   2.899
   87SOPE   O31 8144   6.539   0.883   3.073
   87SOPE   C31 8145   6.509   0.759   3.107
   87SOPE   O32 8146   6.515   0.663   3.033
   87SOPE   C32 8147   6.451   0.754   3.256
   87SOPE   H2X 8148   6.380   0.839   3.264
   87SOPE   H2Y 8149   6.539   0.768   3.323
   87SOPE   C23 8150   6.081   1.183   3.072
   87SOPE   H3R 8151   6.006   1.107   3.039
   87SOPE   H3S 8152   6.043   1.283   3.042
   87SOPE   C24 8153   6.097   1.182   3.226
   87SOPE   H4R 8154   6.126   1.082   3.265
   87SOPE   H4S 8155   6.183   1.251   3.246
   87SOPE   C25 8156   5.969   1.232   3.304
   87SOPE   H5R 8157   5.886   1.161   3.282
   87SOPE   H5S 8158   6.001   1.239   3.410
   87SOPE   C26 8159   5.931   1.372   3.254
   87SOPE   H6R 8160   6.022   1.434   3.235
   87SOPE   H6S 8161   5.885   1.358   3.154
   87SOPE   C27 8162   5.831   1.465   3.333
   87SOPE   H7R 8163   5.810   1.552   3.267
   87SOPE   H7S 8164   5.735   1.413   3.355
   87SOPE   C28 8165   5.889   1.507   3.476
   87SOPE   H8R 8166   5.804   1.563   3.521
   87SOPE   H8S 8167   5.898   1.417   3.540
   87SOPE   C29 8168   6.017   1.590   3.468
   87SOPE   H91 8169   6.015   1.666   3.388
   87SOPE  C210 8170   6.141   1.575   3.527
   87SOPE  H101 8171   6.222   1.648   3.509
   87SOPE  C211 8172   6.181   1.468   3.629
   87SOPE  H11R 8173   6.251   1.396   3.581
   87SOPE  H11S 8174   6.092   1.410   3.661
   87SOPE  C212 8175   6.243   1.519   3.761
   87SOPE  H12R 8176   6.159   1.577   3.804
   87SOPE  H12S 8177   6.324   1.587   3.727
   87SOPE  C213 8178   6.296   1.408   3.851
   87SOPE  H13R 8179   6.389   1.363   3.811
   87SOPE  H13S 8180   6.218   1.329   3.850
   87SOPE  C214 8181   6.332   1.462   3.990
   87SOPE  H14R 8182   6.243   1.510   4.035
   87SOPE  H14S 8183   6.410   1.541   3.983
   87SOPE  C215 8184   6.393   1.364   4.097
   87SOPE  H15R 8185   6.460   1.294   4.043
   87SOPE  H15S 8186   6.311   1.295   4.126
   87SOPE  C216 8187   6.436   1.439   4.221
   87SOPE  H16R 8188   6.364   1.517   4.253
   87SOPE  H16S 8189   6.539   1.478   4.205
   87SOPE  C217 8190   6.433   1.339   4.338
   87SOPE  H17R 8191   6.519   1.376   4.398
   87SOPE  H17S 8192   6.460   1.241   4.293
   87SOPE  C218 8193   6.303   1.339   4.415
   87SOPE  H18R 8194   6.315   1.279   4.507
   87SOPE  H18S 8195   6.225   1.302   4.345
   87SOPE  H18T 8196   6.274   1.445   4.428
   87SOPE   C33 8197   6.386   0.616   3.295
   87SOPE   H3X 8198   6.462   0.535   3.290
   87SOPE   H3Y 8199   6.300   0.604   3.225
   87SOPE   C34 8200   6.328   0.609   3.437
   87SOPE   H4X 8201   6.271   0.514   3.439
   87SOPE   H4Y 8202   6.259   0.692   3.466
   87SOPE   C35 8203   6.434   0.574   3.539
   87SOPE   H5X 8204   6.501   0.662   3.551
   87SOPE   H5Y 8205   6.496   0.483   3.520
   87SOPE   C36 8206   6.369   0.549   3.678
   87SOPE   H6X 8207   6.321   0.449   3.691
   87SOPE   H6Y 8208   6.294   0.627   3.702
   87SOPE   C37 8209   6.464   0.548   3.803
   87SOPE   H7X 8210   6.412   0.550   3.901
   87SOPE   H7Y 8211   6.534   0.634   3.798
   87SOPE   C38 8212   6.549   0.423   3.796
   87SOPE   H8X 8213   6.596   0.418   3.696
   87SOPE   H8Y 8214   6.484   0.333   3.809
   87SOPE   C39 8215   6.654   0.420   3.911
   87SOPE   H9X 8216   6.742   0.488   3.904
   87SOPE   H9Y 8217   6.695   0.318   3.897
   87SOPE  C310 8218   6.600   0.424   4.054
   87SOPE  H10X 8219   6.500   0.376   4.052
   87SOPE  H10Y 8220   6.592   0.530   4.084
   87SOPE  C311 8221   6.705   0.372   4.159
   87SOPE  H11X 8222   6.666   0.388   4.261
   87SOPE  H11Y 8223   6.797   0.434   4.150
   87SOPE  C312 8224   6.747   0.225   4.151
   87SOPE  H12X 8225   6.846   0.224   4.200
   87SOPE  H12Y 8226   6.774   0.197   4.047
   87SOPE  C313 8227   6.640   0.132   4.207
   87SOPE  H13X 8228   6.543   0.150   4.155
   87SOPE  H13Y 8229   6.623   0.162   4.313
   87SOPE  C314 8230   6.671   6.870   4.196
   87SOPE  H14X 8231   6.697   6.840   4.092
   87SOPE  H14Y 8232   6.582   6.812   4.228
   87SOPE  C315 8233   6.787   6.827   4.293
   87SOPE  H15X 8234   6.748   6.850   4.394
   87SOPE  H15Y 8235   6.877   0.003   4.280
   87SOPE  C316 8236   6.820   6.678   4.290
   87SOPE  H16X 8237   6.880   6.641   4.376
   87SOPE  H16Y 8238   6.875   6.677   4.194
   87SOPE  C317 8239   6.703   6.582   4.277
   87SOPE  H17X 8240   6.638   6.615   4.193
   87SOPE  H17Y 8241   6.647   6.588   4.373
   87SOPE  C318 8242   6.754   6.434   4.254
   87SOPE  H18X 8243   6.807   6.401   4.346
   87SOPE  H18Y 8244   6.823   6.430   4.167
   87SOPE  H18Z 8245   6.662   6.373   4.245
   88SOPE     N 8246   0.935   5.526   2.111
   88SOPE   HN1 8247   0.964   5.621   2.080
   88SOPE   HN2 8248   1.022   5.471   2.129
   88SOPE   HN3 8249   0.891   5.479   2.029
   88SOPE   C12 8250   0.841   5.541   2.227
   88SOPE  H12A 8251   0.898   5.578   2.315
   88SOPE  H12B 8252   0.802   5.438   2.244
   88SOPE   C11 8253   0.739   5.647   2.189
   88SOPE  H11A 8254   0.645   5.647   2.247
   88SOPE  H11B 8255   0.700   5.623   2.088
   88SOPE     P 8256   0.712   5.912   2.175
   88SOPE   O13 8257   0.581   5.886   2.113
   88SOPE   O14 8258   0.787   6.013   2.099
   88SOPE   O12 8259   0.797   5.777   2.184
   88SOPE   O11 8260   0.675   5.960   2.322
   88SOPE    C1 8261   0.676   5.893   2.441
   88SOPE    HA 8262   0.713   5.788   2.437
   88SOPE    HB 8263   0.575   5.896   2.485
   88SOPE    C2 8264   0.779   5.958   2.532
   88SOPE    HS 8265   0.777   5.897   2.625
   88SOPE   O21 8266   0.751   6.097   2.547
   88SOPE   C21 8267   0.656   6.111   2.644
   88SOPE   O22 8268   0.585   6.020   2.686
   88SOPE   C22 8269   0.678   6.248   2.712
   88SOPE   H2R 8270   0.636   6.323   2.641
   88SOPE   H2S 8271   0.781   6.285   2.730
   88SOPE    C3 8272   0.922   5.938   2.473
   88SOPE    HX 8273   0.937   5.982   2.372
   88SOPE    HY 8274   0.937   5.832   2.443
   88SOPE   O31 8275   1.012   5.975   2.574
   88SOPE   C31 8276   1.051   6.099   2.557
   88SOPE   O32 8277   1.030   6.171   2.462
   88SOPE   C32 8278   1.131   6.154   2.667
   88SOPE   H2X 8279   1.151   6.262   2.651
   88SOPE   H2Y 8280   1.229   6.102   2.675
   88SOPE   C23 8281   0.594   6.255   2.843
   88SOPE   H3R 8282   0.485   6.233   2.840
   88SOPE   H3S 8283   0.593   6.363   2.866
   88SOPE   C24 8284   0.660   6.191   2.967
   88SOPE   H4R 8285   0.648   6.083   2.948
   88SOPE   H4S 8286   0.764   6.230   2.959
   88SOPE   C25 8287   0.606   6.226   3.104
   88SOPE   H5R 8288   0.691   6.213   3.175
   88SOPE   H5S 8289   0.565   6.329   3.107
   88SOPE   C26 8290   0.496   6.131   3.148
   88SOPE   H6R 8291   0.424   6.103   3.068
   88SOPE   H6S 8292   0.544   6.035   3.178
   88SOPE   C27 8293   0.399   6.162   3.269
   88SOPE   H7R 8294   0.329   6.246   3.248
   88SOPE   H7S 8295   0.336   6.071   3.279
   88SOPE   C28 8296   0.483   6.200   3.394
   88SOPE   H8R 8297   0.566   6.126   3.394
   88SOPE   H8S 8298   0.530   6.301   3.383
   88SOPE   C29 8299   0.400   6.205   3.522
   88SOPE   H91 8300   0.296   6.239   3.513
   88SOPE  C210 8301   0.429   6.152   3.643
   88SOPE  H101 8302   0.373   6.178   3.734
   88SOPE  C211 8303   0.562   6.082   3.674
   88SOPE  H11R 8304   0.642   6.119   3.606
   88SOPE  H11S 8305   0.543   5.975   3.653
   88SOPE  C212 8306   0.621   6.079   3.819
   88SOPE  H12R 8307   0.686   5.989   3.821
   88SOPE  H12S 8308   0.535   6.044   3.881
   88SOPE  C213 8309   0.688   6.214   3.852
   88SOPE  H13R 8310   0.609   6.290   3.833
   88SOPE  H13S 8311   0.768   6.240   3.780
   88SOPE  C214 8312   0.741   6.234   3.992
   88SOPE  H14R 8313   0.829   6.169   4.008
   88SOPE  H14S 8314   0.669   6.203   4.071
   88SOPE  C215 8315   0.779   6.385   4.007
   88SOPE  H15R 8316   0.684   6.442   4.007
   88SOPE  H15S 8317   0.843   6.403   3.918
   88SOPE  C216 8318   0.860   6.414   4.134
   88SOPE  H16R 8319   0.964   6.376   4.124
   88SOPE  H16S 8320   0.808   6.382   4.227
   88SOPE  C217 8321   0.870   6.569   4.154
   88SOPE  H17R 8322   0.767   6.611   4.144
   88SOPE  H17S 8323   0.934   6.598   4.068
   88SOPE  C218 8324   0.934   6.610   4.283
   88SOPE  H18R 8325   0.869   6.579   4.367
   88SOPE  H18S 8326   0.952   6.720   4.293
   88SOPE  H18T 8327   1.030   6.556   4.297
   88SOPE   C33 8328   1.066   6.139   2.810
   88SOPE   H3X 8329   0.958   6.163   2.804
   88SOPE   H3Y 8330   1.107   6.212   2.884
   88SOPE   C34 8331   1.084   5.996   2.874
   88SOPE   H4X 8332   1.188   5.957   2.873
   88SOPE   H4Y 8333   1.031   5.915   2.820
   88SOPE   C35 8334   1.041   5.991   3.019
   88SOPE   H5X 8335   0.944   6.043   3.034
   88SOPE   H5Y 8336   1.116   6.037   3.087
   88SOPE   C36 8337   1.025   5.852   3.077
   88SOPE   H6X 8338   1.108   5.780   3.058
   88SOPE   H6Y 8339   0.939   5.806   3.024
   88SOPE   C37 8340   1.003   5.851   3.227
   88SOPE   H7X 8341   1.088   5.901   3.279
   88SOPE   H7Y 8342   0.990   5.746   3.259
   88SOPE   C38 8343   0.880   5.926   3.275
   88SOPE   H8X 8344   0.789   5.886   3.225
   88SOPE   H8Y 8345   0.875   6.034   3.247
   88SOPE   C39 8346   0.851   5.909   3.422
   88SOPE   H9X 8347   0.862   5.803   3.454
   88SOPE   H9Y 8348   0.749   5.943   3.452
   88SOPE  C310 8349   0.935   5.996   3.514
   88SOPE  H10X 8350   0.881   6.091   3.534
   88SOPE  H10Y 8351   1.033   6.016   3.465
   88SOPE  C311 8352   0.963   5.945   3.659
   88SOPE  H11X 8353   1.010   5.845   3.643
   88SOPE  H11Y 8354   0.869   5.933   3.716
   88SOPE  C312 8355   1.051   6.047   3.725
   88SOPE  H12X 8356   0.989   6.136   3.750
   88SOPE  H12Y 8357   1.135   6.079   3.660
   88SOPE  C313 8358   1.123   5.986   3.851
   88SOPE  H13X 8359   1.192   5.905   3.822
   88SOPE  H13Y 8360   1.043   5.937   3.912
   88SOPE  C314 8361   1.208   6.092   3.913
   88SOPE  H14X 8362   1.154   6.187   3.931
   88SOPE  H14Y 8363   1.292   6.117   3.845
   88SOPE  C315 8364   1.261   6.041   4.052
   88SOPE  H15X 8365   1.180   6.008   4.120
   88SOPE  H15Y 8366   1.308   6.128   4.101
   88SOPE  C316 8367   1.368   5.928   4.051
   88SOPE  H16X 8368   1.459   5.977   4.008
   88SOPE  H16Y 8369   1.340   5.838   3.992
   88SOPE  C317 8370   1.404   5.871   4.193
   88SOPE  H17X 8371   1.313   5.821   4.234
   88SOPE  H17Y 8372   1.437   5.954   4.260
   88SOPE  C318 8373   1.507   5.754   4.191
   88SOPE  H18X 8374   1.539   5.726   4.294
   88SOPE  H18Y 8375   1.600   5.781   4.136
   88SOPE  H18Z 8376   1.457   5.673   4.135
   89SAPC     N 8377   4.871   2.836   7.025
   89SAPC   C12 8378   4.931   2.792   6.893
   89SAPC  H12A 8379   4.886   2.697   6.865
   89SAPC  H12B 8380   5.034   2.767   6.915
   89SAPC   C13 8381   4.862   2.709   7.113
   89SAPC  H13A 8382   4.793   2.729   7.194
   89SAPC  H13B 8383   4.834   2.627   7.049
   89SAPC  H13C 8384   4.960   2.686   7.151
   89SAPC   C14 8385   4.963   2.942   7.084
   89SAPC  H14A 8386   4.977   3.009   7.000
   89SAPC  H14B 8387   4.920   2.992   7.170
   89SAPC  H14C 8388   5.060   2.897   7.103
   89SAPC   C15 8389   4.734   2.893   7.012
   89SAPC  H15A 8390   4.739   2.983   6.953
   89SAPC  H15B 8391   4.667   2.825   6.963
   89SAPC  H15C 8392   4.692   2.915   7.109
   89SAPC   C11 8393   4.924   2.890   6.771
   89SAPC  H11A 8394   4.968   2.850   6.677
   89SAPC  H11B 8395   4.977   2.982   6.802
   89SAPC     P 8396   4.752   3.054   6.665
   89SAPC   O13 8397   4.610   3.054   6.629
   89SAPC   O14 8398   4.804   3.163   6.748
   89SAPC   O12 8399   4.787   2.918   6.734
   89SAPC   O11 8400   4.839   3.065   6.531
   89SAPC    C1 8401   4.817   2.976   6.425
   89SAPC    HA 8402   4.906   2.971   6.359
   89SAPC    HB 8403   4.803   2.872   6.462
   89SAPC    C2 8404   4.706   3.017   6.326
   89SAPC    HS 8405   4.613   2.980   6.372
   89SAPC   O21 8406   4.729   2.954   6.195
   89SAPC   C21 8407   4.669   2.845   6.178
   89SAPC   O22 8408   4.607   2.787   6.267
   89SAPC   C22 8409   4.703   2.782   6.045
   89SAPC   H2R 8410   4.622   2.806   5.973
   89SAPC   H2S 8411   4.804   2.817   6.015
   89SAPC    C3 8412   4.692   3.171   6.318
   89SAPC    HX 8413   4.793   3.202   6.352
   89SAPC    HY 8414   4.612   3.192   6.392
   89SAPC   O31 8415   4.655   3.214   6.183
   89SAPC   C31 8416   4.534   3.191   6.150
   89SAPC   O32 8417   4.449   3.132   6.216
   89SAPC   C32 8418   4.513   3.250   6.015
   89SAPC   H2X 8419   4.536   3.359   6.020
   89SAPC   H2Y 8420   4.405   3.252   5.992
   89SAPC   C23 8421   4.706   2.626   6.053
   89SAPC   H3R 8422   4.602   2.590   6.066
   89SAPC   H3S 8423   4.763   2.597   6.143
   89SAPC   C24 8424   4.802   2.565   5.955
   89SAPC   H4R 8425   4.817   2.459   5.984
   89SAPC   H4S 8426   4.899   2.620   5.948
   89SAPC   C25 8427   4.735   2.561   5.823
   89SAPC   H5R 8428   4.653   2.488   5.820
   89SAPC   C26 8429   4.761   2.641   5.721
   89SAPC   H6R 8430   4.701   2.629   5.630
   89SAPC   C27 8431   4.861   2.747   5.708
   89SAPC   H7R 8432   4.883   2.798   5.804
   89SAPC   H7S 8433   4.817   2.823   5.640
   89SAPC   C28 8434   4.990   2.692   5.654
   89SAPC   H8R 8435   5.045   2.626   5.723
   89SAPC   C29 8436   5.040   2.718   5.535
   89SAPC   H9R 8437   5.127   2.662   5.499
   89SAPC  C210 8438   4.981   2.815   5.432
   89SAPC  H10R 8439   4.917   2.891   5.482
   89SAPC  H10S 8440   4.906   2.763   5.368
   89SAPC  C211 8441   5.078   2.894   5.353
   89SAPC  H11R 8442   5.175   2.905   5.405
   89SAPC  C212 8443   5.063   2.935   5.228
   89SAPC  H12R 8444   5.129   3.013   5.188
   89SAPC  C213 8445   4.943   2.915   5.136
   89SAPC  H13R 8446   4.867   2.848   5.181
   89SAPC  H13S 8447   4.979   2.867   5.042
   89SAPC  C214 8448   4.873   3.042   5.092
   89SAPC  H14R 8449   4.798   3.076   5.164
   89SAPC  C215 8450   4.901   3.116   4.979
   89SAPC  H15R 8451   4.831   3.197   4.959
   89SAPC  C216 8452   5.001   3.086   4.868
   89SAPC  H16R 8453   5.053   2.989   4.887
   89SAPC  H16S 8454   5.090   3.151   4.882
   89SAPC  C217 8455   4.935   3.086   4.730
   89SAPC  H17R 8456   4.879   3.181   4.714
   89SAPC  H17S 8457   4.862   3.002   4.724
   89SAPC  C218 8458   5.044   3.068   4.627
   89SAPC  H18R 8459   5.090   2.967   4.636
   89SAPC  H18S 8460   5.124   3.143   4.643
   89SAPC  C219 8461   5.008   3.081   4.476
   89SAPC  H19R 8462   4.915   3.021   4.464
   89SAPC  H19S 8463   5.090   3.040   4.412
   89SAPC  C220 8464   4.963   3.226   4.434
   89SAPC  H20R 8465   5.027   3.308   4.474
   89SAPC  H20S 8466   4.865   3.243   4.483
   89SAPC  H20T 8467   4.964   3.250   4.326
   89SAPC   C33 8468   4.580   3.174   5.897
   89SAPC   H3X 8469   4.567   3.064   5.905
   89SAPC   H3Y 8470   4.689   3.198   5.895
   89SAPC   C34 8471   4.529   3.201   5.756
   89SAPC   H4X 8472   4.420   3.188   5.744
   89SAPC   H4Y 8473   4.572   3.118   5.696
   89SAPC   C35 8474   4.569   3.345   5.703
   89SAPC   H5X 8475   4.670   3.349   5.656
   89SAPC   H5Y 8476   4.587   3.420   5.783
   89SAPC   C36 8477   4.464   3.409   5.615
   89SAPC   H6X 8478   4.365   3.419   5.664
   89SAPC   H6Y 8479   4.457   3.348   5.522
   89SAPC   C37 8480   4.496   3.550   5.578
   89SAPC   H7X 8481   4.599   3.566   5.539
   89SAPC   H7Y 8482   4.474   3.614   5.666
   89SAPC   C38 8483   4.408   3.605   5.461
   89SAPC   H8X 8484   4.425   3.713   5.439
   89SAPC   H8Y 8485   4.300   3.594   5.487
   89SAPC   C39 8486   4.410   3.528   5.327
   89SAPC   H9X 8487   4.359   3.430   5.344
   89SAPC   H9Y 8488   4.517   3.498   5.326
   89SAPC  C310 8489   4.348   3.609   5.211
   89SAPC  H10X 8490   4.380   3.715   5.218
   89SAPC  H10Y 8491   4.237   3.605   5.219
   89SAPC  C311 8492   4.390   3.541   5.075
   89SAPC  H11X 8493   4.361   3.435   5.064
   89SAPC  H11Y 8494   4.499   3.540   5.054
   89SAPC  C312 8495   4.320   3.613   4.965
   89SAPC  H12X 8496   4.320   3.723   4.983
   89SAPC  H12Y 8497   4.213   3.584   4.964
   89SAPC  C313 8498   4.391   3.596   4.831
   89SAPC  H13X 8499   4.389   3.488   4.805
   89SAPC  H13Y 8500   4.498   3.623   4.844
   89SAPC  C314 8501   4.340   3.685   4.723
   89SAPC  H14X 8502   4.362   3.793   4.741
   89SAPC  H14Y 8503   4.234   3.668   4.696
   89SAPC  C315 8504   4.414   3.655   4.581
   89SAPC  H15X 8505   4.412   3.546   4.558
   89SAPC  H15Y 8506   4.520   3.688   4.578
   89SAPC  C316 8507   4.339   3.730   4.469
   89SAPC  H16X 8508   4.333   3.837   4.497
   89SAPC  H16Y 8509   4.234   3.699   4.452
   89SAPC  C317 8510   4.402   3.721   4.329
   89SAPC  H17X 8511   4.438   3.617   4.322
   89SAPC  H17Y 8512   4.481   3.799   4.328
   89SAPC  C318 8513   4.310   3.761   4.212
   89SAPC  H18X 8514   4.219   3.701   4.231
   89SAPC  H18Y 8515   4.354   3.737   4.113
   89SAPC  H18Z 8516   4.284   3.868   4.202
   90SAPC     N 8517   2.945   5.810   6.643
   90SAPC   C12 8518   3.017   5.816   6.509
   90SAPC  H12A 8519   2.991   5.727   6.453
   90SAPC  H12B 8520   3.124   5.812   6.522
   90SAPC   C13 8521   2.979   5.927   6.724
   90SAPC  H13A 8522   2.912   5.953   6.804
   90SAPC  H13B 8523   3.081   5.912   6.756
   90SAPC  H13C 8524   2.976   6.010   6.655
   90SAPC   C14 8525   2.793   5.820   6.627
   90SAPC  H14A 8526   2.752   5.905   6.574
   90SAPC  H14B 8527   2.748   5.727   6.596
   90SAPC  H14C 8528   2.756   5.844   6.726
   90SAPC   C15 8529   2.982   5.688   6.720
   90SAPC  H15A 8530   3.088   5.667   6.719
   90SAPC  H15B 8531   2.928   5.690   6.814
   90SAPC  H15C 8532   2.950   5.599   6.668
   90SAPC   C11 8533   2.977   5.934   6.421
   90SAPC  H11A 8534   2.867   5.953   6.419
   90SAPC  H11B 8535   2.996   5.904   6.316
   90SAPC     P 8536   3.211   6.041   6.429
   90SAPC   O13 8537   3.264   6.152   6.345
   90SAPC   O14 8538   3.274   6.026   6.559
   90SAPC   O12 8539   3.051   6.051   6.451
   90SAPC   O11 8540   3.231   5.905   6.341
   90SAPC    C1 8541   3.362   5.894   6.288
   90SAPC    HA 8542   3.411   5.987   6.253
   90SAPC    HB 8543   3.438   5.868   6.364
   90SAPC    C2 8544   3.358   5.787   6.175
   90SAPC    HS 8545   3.462   5.777   6.137
   90SAPC   O21 8546   3.259   5.810   6.074
   90SAPC   C21 8547   3.279   5.916   5.999
   90SAPC   O22 8548   3.373   5.992   6.003
   90SAPC   C22 8549   3.160   5.933   5.902
   90SAPC   H2R 8550   3.119   5.833   5.878
   90SAPC   H2S 8551   3.086   5.992   5.961
   90SAPC    C3 8552   3.323   5.642   6.220
   90SAPC    HX 8553   3.222   5.640   6.266
   90SAPC    HY 8554   3.395   5.618   6.301
   90SAPC   O31 8555   3.341   5.550   6.109
   90SAPC   C31 8556   3.285   5.429   6.141
   90SAPC   O32 8557   3.231   5.405   6.247
   90SAPC   C32 8558   3.317   5.341   6.027
   90SAPC   H2X 8559   3.321   5.237   6.066
   90SAPC   H2Y 8560   3.412   5.359   5.974
   90SAPC   C23 8561   3.190   6.017   5.785
   90SAPC   H3R 8562   3.244   5.961   5.706
   90SAPC   H3S 8563   3.253   6.102   5.818
   90SAPC   C24 8564   3.055   6.073   5.728
   90SAPC   H4R 8565   3.002   6.129   5.809
   90SAPC   H4S 8566   2.991   5.988   5.698
   90SAPC   C25 8567   3.073   6.179   5.617
   90SAPC   H5R 8568   3.075   6.286   5.642
   90SAPC   C26 8569   3.078   6.150   5.489
   90SAPC   H6R 8570   3.090   6.234   5.419
   90SAPC   C27 8571   3.079   6.011   5.429
   90SAPC   H7R 8572   3.006   6.021   5.345
   90SAPC   H7S 8573   3.037   5.931   5.494
   90SAPC   C28 8574   3.212   5.972   5.382
   90SAPC   H8R 8575   3.280   5.933   5.459
   90SAPC   C29 8576   3.268   6.000   5.261
   90SAPC   H9R 8577   3.378   5.989   5.267
   90SAPC  C210 8578   3.207   6.065   5.137
   90SAPC  H10R 8579   3.243   6.170   5.124
   90SAPC  H10S 8580   3.098   6.071   5.157
   90SAPC  C211 8581   3.217   5.976   5.015
   90SAPC  H11R 8582   3.171   5.877   5.029
   90SAPC  C212 8583   3.267   6.006   4.894
   90SAPC  H12R 8584   3.253   5.937   4.810
   90SAPC  C213 8585   3.334   6.131   4.851
   90SAPC  H13R 8586   3.255   6.209   4.857
   90SAPC  H13S 8587   3.345   6.123   4.740
   90SAPC  C214 8588   3.462   6.164   4.919
   90SAPC  H14R 8589   3.477   6.118   5.018
   90SAPC  C215 8590   3.543   6.263   4.871
   90SAPC  H15R 8591   3.628   6.290   4.935
   90SAPC  C216 8592   3.548   6.341   4.735
   90SAPC  H16R 8593   3.538   6.449   4.757
   90SAPC  H16S 8594   3.471   6.309   4.662
   90SAPC  C217 8595   3.682   6.323   4.660
   90SAPC  H17R 8596   3.710   6.216   4.650
   90SAPC  H17S 8597   3.755   6.362   4.735
   90SAPC  C218 8598   3.695   6.387   4.517
   90SAPC  H18R 8599   3.693   6.498   4.524
   90SAPC  H18S 8600   3.603   6.343   4.472
   90SAPC  C219 8601   3.826   6.352   4.452
   90SAPC  H19R 8602   3.837   6.242   4.451
   90SAPC  H19S 8603   3.903   6.394   4.520
   90SAPC  C220 8604   3.850   6.398   4.309
   90SAPC  H20R 8605   3.948   6.366   4.267
   90SAPC  H20S 8606   3.837   6.508   4.304
   90SAPC  H20T 8607   3.772   6.364   4.237
   90SAPC   C33 8608   3.195   5.341   5.929
   90SAPC   H3X 8609   3.094   5.346   5.975
   90SAPC   H3Y 8610   3.192   5.240   5.883
   90SAPC   C34 8611   3.218   5.450   5.814
   90SAPC   H4X 8612   3.308   5.411   5.761
   90SAPC   H4Y 8613   3.237   5.551   5.857
   90SAPC   C35 8614   3.103   5.461   5.714
   90SAPC   H5X 8615   3.013   5.483   5.774
   90SAPC   H5Y 8616   3.087   5.365   5.660
   90SAPC   C36 8617   3.120   5.586   5.622
   90SAPC   H6X 8618   3.104   5.690   5.658
   90SAPC   H6Y 8619   3.041   5.562   5.548
   90SAPC   C37 8620   3.261   5.595   5.564
   90SAPC   H7X 8621   3.335   5.599   5.646
   90SAPC   H7Y 8622   3.264   5.688   5.503
   90SAPC   C38 8623   3.300   5.485   5.468
   90SAPC   H8X 8624   3.301   5.391   5.528
   90SAPC   H8Y 8625   3.402   5.517   5.436
   90SAPC   C39 8626   3.211   5.468   5.345
   90SAPC   H9X 8627   3.184   5.573   5.321
   90SAPC   H9Y 8628   3.119   5.415   5.378
   90SAPC  C310 8629   3.286   5.407   5.229
   90SAPC  H10X 8630   3.307   5.306   5.270
   90SAPC  H10Y 8631   3.376   5.461   5.193
   90SAPC  C311 8632   3.198   5.379   5.102
   90SAPC  H11X 8633   3.097   5.367   5.146
   90SAPC  H11Y 8634   3.242   5.286   5.058
   90SAPC  C312 8635   3.208   5.492   4.994
   90SAPC  H12X 8636   3.294   5.484   4.924
   90SAPC  H12Y 8637   3.219   5.588   5.049
   90SAPC  C313 8638   3.083   5.481   4.909
   90SAPC  H13X 8639   2.997   5.487   4.979
   90SAPC  H13Y 8640   3.090   5.385   4.854
   90SAPC  C314 8641   3.065   5.602   4.811
   90SAPC  H14X 8642   3.156   5.607   4.747
   90SAPC  H14Y 8643   3.050   5.698   4.864
   90SAPC  C315 8644   2.940   5.585   4.726
   90SAPC  H15X 8645   2.848   5.609   4.783
   90SAPC  H15Y 8646   2.935   5.482   4.686
   90SAPC  C316 8647   2.931   5.671   4.598
   90SAPC  H16X 8648   2.845   5.636   4.536
   90SAPC  H16Y 8649   3.022   5.648   4.539
   90SAPC  C317 8650   2.921   5.818   4.634
   90SAPC  H17X 8651   2.991   5.831   4.720
   90SAPC  H17Y 8652   2.820   5.830   4.679
   90SAPC  C318 8653   2.951   5.913   4.521
   90SAPC  H18X 8654   3.053   5.891   4.483
   90SAPC  H18Y 8655   2.936   6.021   4.545
   90SAPC  H18Z 8656   2.879   5.895   4.439
   91SAPC     N 8657   1.004   6.056   7.145
   91SAPC   C12 8658   0.966   5.912   7.180
   91SAPC  H12A 8659   0.863   5.897   7.150
   91SAPC  H12B 8660   0.969   5.908   7.288
   91SAPC   C13 8661   1.139   6.090   7.199
   91SAPC  H13A 8662   1.134   6.060   7.303
   91SAPC  H13B 8663   1.219   6.053   7.137
   91SAPC  H13C 8664   1.154   6.197   7.202
   91SAPC   C14 8665   1.008   6.079   6.992
   91SAPC  H14A 8666   1.047   6.176   6.965
   91SAPC  H14B 8667   1.073   6.002   6.953
   91SAPC  H14C 8668   0.910   6.077   6.947
   91SAPC   C15 8669   0.904   6.150   7.204
   91SAPC  H15A 8670   0.810   6.163   7.153
   91SAPC  H15B 8671   0.884   6.128   7.308
   91SAPC  H15C 8672   0.947   6.249   7.203
   91SAPC   C11 8673   1.037   5.787   7.121
   91SAPC  H11A 8674   1.003   5.691   7.165
   91SAPC  H11B 8675   1.145   5.780   7.144
   91SAPC     P 8676   0.884   5.736   6.919
   91SAPC   O13 8677   0.867   5.597   6.947
   91SAPC   O14 8678   0.779   5.827   6.976
   91SAPC   O12 8679   1.017   5.784   6.979
   91SAPC   O11 8680   0.895   5.773   6.767
   91SAPC    C1 8681   1.023   5.799   6.702
   91SAPC    HA 8682   1.060   5.900   6.730
   91SAPC    HB 8683   1.096   5.718   6.721
   91SAPC    C2 8684   1.004   5.788   6.548
   91SAPC    HS 8685   1.101   5.801   6.496
   91SAPC   O21 8686   0.912   5.897   6.517
   91SAPC   C21 8687   0.963   5.976   6.422
   91SAPC   O22 8688   1.066   5.953   6.360
   91SAPC   C22 8689   0.858   6.081   6.393
   91SAPC   H2R 8690   0.784   6.035   6.325
   91SAPC   H2S 8691   0.812   6.102   6.492
   91SAPC    C3 8692   0.954   5.649   6.501
   91SAPC    HX 8693   0.870   5.621   6.568
   91SAPC    HY 8694   1.030   5.570   6.520
   91SAPC   O31 8695   0.908   5.651   6.364
   91SAPC   C31 8696   0.893   5.532   6.297
   91SAPC   O32 8697   0.931   5.426   6.346
   91SAPC   C32 8698   0.806   5.552   6.173
   91SAPC   H2X 8699   0.853   5.628   6.107
   91SAPC   H2Y 8700   0.703   5.572   6.209
   91SAPC   C23 8701   0.923   6.205   6.325
   91SAPC   H3R 8702   1.015   6.178   6.270
   91SAPC   H3S 8703   0.969   6.272   6.400
   91SAPC   C24 8704   0.837   6.281   6.217
   91SAPC   H4R 8705   0.766   6.345   6.274
   91SAPC   H4S 8706   0.772   6.199   6.178
   91SAPC   C25 8707   0.908   6.354   6.108
   91SAPC   H5R 8708   0.921   6.460   6.136
   91SAPC   C26 8709   0.962   6.309   5.994
   91SAPC   H6R 8710   1.025   6.371   5.928
   91SAPC   C27 8711   0.949   6.166   5.956
   91SAPC   H7R 8712   0.925   6.097   6.040
   91SAPC   H7S 8713   1.048   6.123   5.929
   91SAPC   C28 8714   0.842   6.135   5.852
   91SAPC   H8R 8715   0.745   6.100   5.891
   91SAPC   C29 8716   0.851   6.154   5.720
   91SAPC   H9R 8717   0.755   6.143   5.668
   91SAPC  C210 8718   0.972   6.206   5.643
   91SAPC  H10R 8719   1.033   6.135   5.583
   91SAPC  H10S 8720   1.055   6.236   5.711
   91SAPC  C211 8721   0.945   6.331   5.562
   91SAPC  H11R 8722   0.892   6.415   5.610
   91SAPC  C212 8723   0.966   6.343   5.425
   91SAPC  H12R 8724   0.930   6.438   5.381
   91SAPC  C213 8725   1.023   6.231   5.340
   91SAPC  H13R 8726   1.048   6.135   5.391
   91SAPC  H13S 8727   1.116   6.260   5.287
   91SAPC  C214 8728   0.923   6.198   5.232
   91SAPC  H14R 8729   0.818   6.233   5.236
   91SAPC  C215 8730   0.940   6.106   5.140
   91SAPC  H15R 8731   0.861   6.098   5.064
   91SAPC  C216 8732   1.068   6.037   5.106
   91SAPC  H16R 8733   1.055   5.927   5.114
   91SAPC  H16S 8734   1.151   6.059   5.176
   91SAPC  C217 8735   1.110   6.074   4.967
   91SAPC  H17R 8736   1.215   6.038   4.963
   91SAPC  H17S 8737   1.115   6.184   4.953
   91SAPC  C218 8738   1.028   6.006   4.858
   91SAPC  H18R 8739   0.926   6.050   4.852
   91SAPC  H18S 8740   1.011   5.899   4.883
   91SAPC  C219 8741   1.104   6.015   4.721
   91SAPC  H19R 8742   1.125   6.122   4.699
   91SAPC  H19S 8743   1.040   5.986   4.635
   91SAPC  C220 8744   1.229   5.928   4.712
   91SAPC  H20R 8745   1.316   5.953   4.776
   91SAPC  H20S 8746   1.269   5.924   4.608
   91SAPC  H20T 8747   1.186   5.826   4.723
   91SAPC   C33 8748   0.800   5.422   6.090
   91SAPC   H3X 8749   0.781   5.326   6.141
   91SAPC   H3Y 8750   0.901   5.408   6.044
   91SAPC   C34 8751   0.690   5.441   5.988
   91SAPC   H4X 8752   0.679   5.550   5.972
   91SAPC   H4Y 8753   0.594   5.393   6.016
   91SAPC   C35 8754   0.738   5.382   5.854
   91SAPC   H5X 8755   0.747   5.272   5.867
   91SAPC   H5Y 8756   0.840   5.411   5.820
   91SAPC   C36 8757   0.634   5.404   5.744
   91SAPC   H6X 8758   0.641   5.514   5.734
   91SAPC   H6Y 8759   0.535   5.390   5.790
   91SAPC   C37 8760   0.642   5.326   5.614
   91SAPC   H7X 8761   0.618   5.218   5.624
   91SAPC   H7Y 8762   0.745   5.333   5.574
   91SAPC   C38 8763   0.553   5.389   5.506
   91SAPC   H8X 8764   0.546   5.324   5.416
   91SAPC   H8Y 8765   0.594   5.489   5.481
   91SAPC   C39 8766   0.403   5.410   5.549
   91SAPC   H9X 8767   0.398   5.470   5.642
   91SAPC   H9Y 8768   0.363   5.312   5.584
   91SAPC  C310 8769   0.320   5.458   5.430
   91SAPC  H10X 8770   0.334   5.391   5.342
   91SAPC  H10Y 8771   0.357   5.557   5.396
   91SAPC  C311 8772   0.172   5.483   5.454
   91SAPC  H11X 8773   0.154   5.574   5.515
   91SAPC  H11Y 8774   0.128   5.395   5.505
   91SAPC  C312 8775   0.105   5.503   5.323
   91SAPC  H12X 8776   6.883   5.504   5.344
   91SAPC  H12Y 8777   0.118   5.412   5.259
   91SAPC  C313 8778   0.132   5.638   5.251
   91SAPC  H13X 8779   0.242   5.655   5.251
   91SAPC  H13Y 8780   0.092   5.722   5.312
   91SAPC  C314 8781   0.077   5.629   5.107
   91SAPC  H14X 8782   6.855   5.611   5.114
   91SAPC  H14Y 8783   0.132   5.550   5.051
   91SAPC  C315 8784   0.108   5.752   5.026
   91SAPC  H15X 8785   0.217   5.741   5.006
   91SAPC  H15Y 8786   0.084   5.848   5.076
   91SAPC  C316 8787   0.044   5.749   4.887
   91SAPC  H16X 8788   6.826   5.714   4.898
   91SAPC  H16Y 8789   0.096   5.666   4.835
   91SAPC  C317 8790   0.058   5.874   4.800
   91SAPC  H17X 8791   0.005   5.961   4.844
   91SAPC  H17Y 8792   0.008   5.857   4.702
   91SAPC  C318 8793   0.204   5.920   4.776
   91SAPC  H18X 8794   0.277   5.844   4.742
   91SAPC  H18Y 8795   0.241   5.965   4.871
   91SAPC  H18Z 8796   0.210   6.002   4.702
   92SAPC     N 8797   6.063   4.762   7.137
   92SAPC   C12 8798   5.984   4.866   7.073
   92SAPC  H12A 8799   6.030   4.961   7.093
   92SAPC  H12B 8800   5.890   4.883   7.122
   92SAPC   C13 8801   6.214   4.754   7.111
   92SAPC  H13A 8802   6.263   4.849   7.129
   92SAPC  H13B 8803   6.250   4.676   7.176
   92SAPC  H13C 8804   6.229   4.734   7.006
   92SAPC   C14 8805   6.044   4.775   7.287
   92SAPC  H14A 8806   6.072   4.875   7.314
   92SAPC  H14B 8807   5.941   4.754   7.312
   92SAPC  H14C 8808   6.112   4.713   7.343
   92SAPC   C15 8809   5.999   4.635   7.100
   92SAPC  H15A 8810   5.977   4.615   6.996
   92SAPC  H15B 8811   6.067   4.557   7.133
   92SAPC  H15C 8812   5.900   4.620   7.140
   92SAPC   C11 8813   5.944   4.837   6.923
   92SAPC  H11A 8814   5.883   4.922   6.885
   92SAPC  H11B 8815   5.877   4.748   6.920
   92SAPC     P 8816   6.118   4.723   6.751
   92SAPC   O13 8817   6.270   4.713   6.773
   92SAPC   O14 8818   6.032   4.602   6.748
   92SAPC   O12 8819   6.062   4.827   6.848
   92SAPC   O11 8820   6.104   4.780   6.602
   92SAPC    C1 8821   6.001   4.868   6.559
   92SAPC    HA 8822   5.923   4.807   6.510
   92SAPC    HB 8823   5.948   4.933   6.632
   92SAPC    C2 8824   6.051   4.967   6.450
   92SAPC    HS 8825   5.961   5.027   6.423
   92SAPC   O21 8826   6.103   4.893   6.335
   92SAPC   C21 8827   6.058   4.933   6.216
   92SAPC   O22 8828   5.998   5.033   6.197
   92SAPC   C22 8829   6.076   4.819   6.115
   92SAPC   H2R 8830   6.129   4.730   6.156
   92SAPC   H2S 8831   5.982   4.780   6.070
   92SAPC    C3 8832   6.147   5.070   6.517
   92SAPC    HX 8833   6.216   5.002   6.572
   92SAPC    HY 8834   6.087   5.132   6.587
   92SAPC   O31 8835   6.211   5.152   6.416
   92SAPC   C31 8836   6.327   5.098   6.366
   92SAPC   O32 8837   6.375   4.996   6.395
   92SAPC   C32 8838   6.396   5.203   6.264
   92SAPC   H2X 8839   6.437   5.279   6.334
   92SAPC   H2Y 8840   6.317   5.256   6.207
   92SAPC   C23 8841   6.140   4.863   5.972
   92SAPC   H3R 8842   6.225   4.929   6.003
   92SAPC   H3S 8843   6.072   4.929   5.914
   92SAPC   C24 8844   6.185   4.748   5.883
   92SAPC   H4R 8845   6.100   4.677   5.869
   92SAPC   H4S 8846   6.262   4.690   5.939
   92SAPC   C25 8847   6.243   4.793   5.752
   92SAPC   H5R 8848   6.349   4.817   5.761
   92SAPC   C26 8849   6.179   4.802   5.631
   92SAPC   H6R 8850   6.242   4.829   5.545
   92SAPC   C27 8851   6.043   4.757   5.601
   92SAPC   H7R 8852   5.970   4.775   5.684
   92SAPC   H7S 8853   6.047   4.647   5.588
   92SAPC   C28 8854   5.999   4.845   5.479
   92SAPC   H8R 8855   5.962   4.945   5.506
   92SAPC   C29 8856   6.017   4.810   5.355
   92SAPC   H9R 8857   5.997   4.883   5.275
   92SAPC  C210 8858   6.071   4.674   5.310
   92SAPC  H10R 8859   5.984   4.605   5.315
   92SAPC  H10S 8860   6.142   4.626   5.380
   92SAPC  C211 8861   6.131   4.674   5.173
   92SAPC  H11R 8862   6.237   4.647   5.187
   92SAPC  C212 8863   6.071   4.678   5.057
   92SAPC  H12R 8864   6.131   4.695   4.966
   92SAPC  C213 8865   5.926   4.715   5.025
   92SAPC  H13R 8866   5.927   4.817   4.983
   92SAPC  H13S 8867   5.862   4.698   5.114
   92SAPC  C214 8868   5.887   4.612   4.924
   92SAPC  H14R 8869   5.870   4.510   4.960
   92SAPC  C215 8870   5.883   4.617   4.791
   92SAPC  H15R 8871   5.833   4.537   4.734
   92SAPC  C216 8872   5.912   4.750   4.714
   92SAPC  H16R 8873   5.996   4.731   4.644
   92SAPC  H16S 8874   5.946   4.835   4.777
   92SAPC  C217 8875   5.795   4.795   4.624
   92SAPC  H17R 8876   5.713   4.810   4.698
   92SAPC  H17S 8877   5.760   4.715   4.556
   92SAPC  C218 8878   5.822   4.923   4.540
   92SAPC  H18R 8879   5.865   4.888   4.444
   92SAPC  H18S 8880   5.905   4.983   4.584
   92SAPC  C219 8881   5.713   5.033   4.528
   92SAPC  H19R 8882   5.625   4.982   4.485
   92SAPC  H19S 8883   5.745   5.104   4.448
   92SAPC  C220 8884   5.687   5.097   4.659
   92SAPC  H20R 8885   5.625   5.021   4.710
   92SAPC  H20S 8886   5.628   5.189   4.638
   92SAPC  H20T 8887   5.781   5.114   4.717
   92SAPC   C33 8888   6.499   5.133   6.172
   92SAPC   H3X 8889   6.583   5.083   6.225
   92SAPC   H3Y 8890   6.548   5.212   6.112
   92SAPC   C34 8891   6.433   5.051   6.071
   92SAPC   H4X 8892   6.368   5.112   6.005
   92SAPC   H4Y 8893   6.374   4.981   6.134
   92SAPC   C35 8894   6.541   4.968   5.996
   92SAPC   H5X 8895   6.494   4.889   5.933
   92SAPC   H5Y 8896   6.604   4.911   6.067
   92SAPC   C36 8897   6.635   5.037   5.901
   92SAPC   H6X 8898   6.697   4.964   5.845
   92SAPC   H6Y 8899   6.713   5.098   5.952
   92SAPC   C37 8900   6.572   5.135   5.801
   92SAPC   H7X 8901   6.648   5.199   5.752
   92SAPC   H7Y 8902   6.520   5.215   5.857
   92SAPC   C38 8903   6.473   5.079   5.695
   92SAPC   H8X 8904   6.375   5.058   5.743
   92SAPC   H8Y 8905   6.508   4.976   5.675
   92SAPC   C39 8906   6.460   5.162   5.572
   92SAPC   H9X 8907   6.560   5.196   5.539
   92SAPC   H9Y 8908   6.392   5.247   5.595
   92SAPC  C310 8909   6.380   5.089   5.458
   92SAPC  H10X 8910   6.270   5.089   5.475
   92SAPC  H10Y 8911   6.411   4.983   5.456
   92SAPC  C311 8912   6.405   5.140   5.306
   92SAPC  H11X 8913   6.512   5.156   5.282
   92SAPC  H11Y 8914   6.347   5.232   5.281
   92SAPC  C312 8915   6.350   5.036   5.203
   92SAPC  H12X 8916   6.239   5.027   5.205
   92SAPC  H12Y 8917   6.389   4.937   5.233
   92SAPC  C313 8918   6.393   5.063   5.056
   92SAPC  H13X 8919   6.502   5.073   5.034
   92SAPC  H13Y 8920   6.350   5.160   5.023
   92SAPC  C314 8921   6.329   4.960   4.966
   92SAPC  H14X 8922   6.221   4.982   4.972
   92SAPC  H14Y 8923   6.344   4.856   5.002
   92SAPC  C315 8924   6.366   4.962   4.808
   92SAPC  H15X 8925   6.308   5.052   4.776
   92SAPC  H15Y 8926   6.315   4.873   4.766
   92SAPC  C316 8927   6.518   4.957   4.775
   92SAPC  H16X 8928   6.563   4.863   4.813
   92SAPC  H16Y 8929   6.578   5.033   4.831
   92SAPC  C317 8930   6.532   4.967   4.625
   92SAPC  H17X 8931   6.631   5.010   4.598
   92SAPC  H17Y 8932   6.458   5.041   4.588
   92SAPC  C318 8933   6.520   4.835   4.550
   92SAPC  H18X 8934   6.560   4.836   4.446
   92SAPC  H18Y 8935   6.418   4.794   4.535
   92SAPC  H18Z 8936   6.585   4.761   4.601
   93SAPC     N 8937   0.873   6.880   6.786
   93SAPC   C12 8938   0.989   0.006   6.697
   93SAPC  H12A 8939   1.078   0.018   6.756
   93SAPC  H12B 8940   0.977   0.104   6.651
   93SAPC   C13 8941   0.861   6.747   6.855
   93SAPC  H13A 8942   0.863   6.664   6.786
   93SAPC  H13B 8943   0.941   6.727   6.926
   93SAPC  H13C 8944   0.766   6.736   6.906
   93SAPC   C14 8945   0.870   0.098   6.894
   93SAPC  H14A 8946   0.962   0.074   6.945
   93SAPC  H14B 8947   0.886   0.198   6.854
   93SAPC  H14C 8948   0.788   0.094   6.964
   93SAPC   C15 8949   0.754   0.009   6.703
   93SAPC  H15A 8950   0.671   0.030   6.769
   93SAPC  H15B 8951   0.761   0.102   6.647
   93SAPC  H15C 8952   0.735   6.815   6.634
   93SAPC   C11 8953   1.015   6.780   6.588
   93SAPC  H11A 8954   1.111   6.796   6.534
   93SAPC  H11B 8955   0.925   6.781   6.524
   93SAPC     P 8956   1.138   6.585   6.717
   93SAPC   O13 8957   1.251   6.677   6.710
   93SAPC   O14 8958   1.095   6.542   6.851
   93SAPC   O12 8959   1.021   6.653   6.651
   93SAPC   O11 8960   1.152   6.453   6.624
   93SAPC    C1 8961   1.268   6.415   6.549
   93SAPC    HA 8962   1.351   6.392   6.619
   93SAPC    HB 8963   1.239   6.319   6.500
   93SAPC    C2 8964   1.314   6.518   6.443
   93SAPC    HS 8965   1.354   6.608   6.495
   93SAPC   O21 8966   1.198   6.566   6.370
   93SAPC   C21 8967   1.215   6.676   6.292
   93SAPC   O22 8968   1.313   6.748   6.295
   93SAPC   C22 8969   1.088   6.712   6.216
   93SAPC   H2R 8970   1.008   6.657   6.272
   93SAPC   H2S 8971   1.075   6.822   6.225
   93SAPC    C3 8972   1.429   6.460   6.343
   93SAPC    HX 8973   1.515   6.430   6.407
   93SAPC    HY 8974   1.461   6.547   6.283
   93SAPC   O31 8975   1.389   6.340   6.262
   93SAPC   C31 8976   1.359   6.368   6.136
   93SAPC   O32 8977   1.362   6.478   6.083
   93SAPC   C32 8978   1.340   6.245   6.049
   93SAPC   H2X 8979   1.244   6.193   6.071
   93SAPC   H2Y 8980   1.429   6.180   6.063
   93SAPC   C23 8981   1.107   6.681   6.064
   93SAPC   H3R 8982   1.129   6.572   6.056
   93SAPC   H3S 8983   1.193   6.744   6.032
   93SAPC   C24 8984   0.987   6.729   5.990
   93SAPC   H4R 8985   0.987   6.838   6.012
   93SAPC   H4S 8986   0.900   6.694   6.050
   93SAPC   C25 8987   0.966   6.690   5.842
   93SAPC   H5R 8988   0.935   6.587   5.818
   93SAPC   C26 8989   0.972   6.779   5.738
   93SAPC   H6R 8990   0.967   6.739   5.635
   93SAPC   C27 8991   1.027   0.033   5.743
   93SAPC   H7R 8992   1.060   0.055   5.847
   93SAPC   H7S 8993   0.946   0.105   5.719
   93SAPC   C28 8994   1.152   0.072   5.663
   93SAPC   H8R 8995   1.227   0.105   5.736
   93SAPC   C29 8996   1.176   0.062   5.528
   93SAPC   H9R 8997   1.274   0.093   5.487
   93SAPC  C210 8998   1.073   0.029   5.427
   93SAPC  H10R 8999   1.077   0.101   5.342
   93SAPC  H10S 9000   0.971   0.047   5.468
   93SAPC  C211 9001   1.097   6.775   5.386
   93SAPC  H11R 9002   1.146   6.706   5.456
   93SAPC  C212 9003   1.077   6.720   5.257
   93SAPC  H12R 9004   1.089   6.611   5.247
   93SAPC  C213 9005   1.010   6.795   5.142
   93SAPC  H13R 9006   0.957   0.003   5.164
   93SAPC  H13S 9007   0.922   6.740   5.103
   93SAPC  C214 9008   1.119   6.823   5.036
   93SAPC  H14R 9009   1.139   0.043   5.046
   93SAPC  C215 9010   1.180   6.754   4.946
   93SAPC  H15R 9011   1.250   6.813   4.886
   93SAPC  C216 9012   1.175   6.607   4.917
   93SAPC  H16R 9013   1.099   6.551   4.976
   93SAPC  H16S 9014   1.274   6.563   4.941
   93SAPC  C217 9015   1.153   6.595   4.764
   93SAPC  H17R 9016   1.234   6.650   4.712
   93SAPC  H17S 9017   1.061   6.651   4.735
   93SAPC  C218 9018   1.142   6.449   4.716
   93SAPC  H18R 9019   1.062   6.403   4.778
   93SAPC  H18S 9020   1.232   6.385   4.723
   93SAPC  C219 9021   1.096   6.444   4.566
   93SAPC  H19R 9022   1.182   6.473   4.502
   93SAPC  H19S 9023   1.011   6.512   4.543
   93SAPC  C220 9024   1.061   6.304   4.523
   93SAPC  H20R 9025   1.154   6.249   4.500
   93SAPC  H20S 9026   1.013   6.302   4.423
   93SAPC  H20T 9027   0.992   6.249   4.592
   93SAPC   C33 9028   1.340   6.277   5.902
   93SAPC   H3X 9029   1.435   6.323   5.869
   93SAPC   H3Y 9030   1.264   6.354   5.878
   93SAPC   C34 9031   1.318   6.154   5.813
   93SAPC   H4X 9032   1.218   6.110   5.837
   93SAPC   H4Y 9033   1.382   6.068   5.843
   93SAPC   C35 9034   1.342   6.167   5.662
   93SAPC   H5X 9035   1.450   6.189   5.645
   93SAPC   H5Y 9036   1.279   6.251   5.624
   93SAPC   C36 9037   1.330   6.034   5.583
   93SAPC   H6X 9038   1.325   6.066   5.477
   93SAPC   H6Y 9039   1.227   5.995   5.598
   93SAPC   C37 9040   1.444   5.930   5.616
   93SAPC   H7X 9041   1.436   5.902   5.723
   93SAPC   H7Y 9042   1.539   5.984   5.597
   93SAPC   C38 9043   1.457   5.813   5.519
   93SAPC   H8X 9044   1.379   5.736   5.539
   93SAPC   H8Y 9045   1.547   5.757   5.552
   93SAPC   C39 9046   1.458   5.838   5.367
   93SAPC   H9X 9047   1.372   5.900   5.334
   93SAPC   H9Y 9048   1.468   5.741   5.315
   93SAPC  C310 9049   1.578   5.930   5.331
   93SAPC  H10X 9050   1.676   5.894   5.370
   93SAPC  H10Y 9051   1.568   6.032   5.373
   93SAPC  C311 9052   1.598   5.949   5.181
   93SAPC  H11X 9053   1.643   6.045   5.149
   93SAPC  H11Y 9054   1.491   5.939   5.154
   93SAPC  C312 9055   1.683   5.832   5.131
   93SAPC  H12X 9056   1.657   5.739   5.186
   93SAPC  H12Y 9057   1.790   5.851   5.157
   93SAPC  C313 9058   1.691   5.804   4.977
   93SAPC  H13X 9059   1.592   5.762   4.949
   93SAPC  H13Y 9060   1.777   5.737   4.959
   93SAPC  C314 9061   1.723   5.927   4.885
   93SAPC  H14X 9062   1.796   5.993   4.937
   93SAPC  H14Y 9063   1.625   5.979   4.880
   93SAPC  C315 9064   1.774   5.899   4.748
   93SAPC  H15X 9065   1.713   5.818   4.703
   93SAPC  H15Y 9066   1.880   5.866   4.749
   93SAPC  C316 9067   1.760   6.024   4.656
   93SAPC  H16X 9068   1.791   6.118   4.707
   93SAPC  H16Y 9069   1.652   6.041   4.637
   93SAPC  C317 9070   1.829   5.994   4.524
   93SAPC  H17X 9071   1.814   5.890   4.488
   93SAPC  H17Y 9072   1.939   6.000   4.539
   93SAPC  C318 9073   1.794   6.097   4.416
   93SAPC  H18X 9074   1.866   6.070   4.336
   93SAPC  H18Y 9075   1.826   6.199   4.445
   93SAPC  H18Z 9076   1.688   6.079   4.386
   94SAPC     N 9077   0.321   4.743   6.913
   94SAPC   C12 9078   0.410   4.820   6.820
   94SAPC  H12A 9079   0.467   4.747   6.766
   94SAPC  H12B 9080   0.479   4.876   6.882
   94SAPC   C13 9081   0.228   4.819   7.000
   94SAPC  H13A 9082   0.159   4.877   6.940
   94SAPC  H13B 9083   0.166   4.753   7.059
   94SAPC  H13C 9084   0.278   4.888   7.066
   94SAPC   C14 9085   0.252   4.639   6.837
   94SAPC  H14A 9086   0.190   4.695   6.768
   94SAPC  H14B 9087   0.325   4.576   6.788
   94SAPC  H14C 9088   0.192   4.571   6.895
   94SAPC   C15 9089   0.402   4.668   7.010
   94SAPC  H15A 9090   0.475   4.735   7.053
   94SAPC  H15B 9091   0.346   4.622   7.090
   94SAPC  H15C 9092   0.458   4.586   6.968
   94SAPC   C11 9093   0.341   4.925   6.721
   94SAPC  H11A 9094   0.256   4.869   6.676
   94SAPC  H11B 9095   0.407   4.942   6.633
   94SAPC     P 9096   0.241   5.164   6.716
   94SAPC   O13 9097   0.151   5.244   6.804
   94SAPC   O14 9098   0.357   5.229   6.661
   94SAPC   O12 9099   0.300   5.042   6.793
   94SAPC   O11 9100   0.166   5.094   6.598
   94SAPC    C1 9101   0.022   5.100   6.591
   94SAPC    HA 9102   6.861   5.052   6.679
   94SAPC    HB 9103   6.868   5.200   6.568
   94SAPC    C2 9104   6.863   4.995   6.483
   94SAPC    HS 9105   6.886   4.889   6.507
   94SAPC   O21 9106   0.031   5.032   6.358
   94SAPC   C21 9107   0.145   4.974   6.325
   94SAPC   O22 9108   0.195   4.873   6.370
   94SAPC   C22 9109   0.214   5.056   6.219
   94SAPC   H2R 9110   0.172   5.157   6.196
   94SAPC   H2S 9111   0.322   5.056   6.246
   94SAPC    C3 9112   6.706   4.988   6.457
   94SAPC    HX 9113   6.669   5.092   6.443
   94SAPC    HY 9114   6.655   4.953   6.550
   94SAPC   O31 9115   6.675   4.903   6.344
   94SAPC   C31 9116   6.657   4.778   6.375
   94SAPC   O32 9117   6.661   4.729   6.480
   94SAPC   C32 9118   6.636   4.695   6.244
   94SAPC   H2X 9119   6.719   4.704   6.170
   94SAPC   H2Y 9120   6.551   4.739   6.189
   94SAPC   C23 9121   0.198   4.976   6.081
   94SAPC   H3R 9122   0.088   4.963   6.073
   94SAPC   H3S 9123   0.254   4.883   6.107
   94SAPC   C24 9124   0.264   5.038   5.962
   94SAPC   H4R 9125   0.275   4.957   5.887
   94SAPC   H4S 9126   0.361   5.083   5.994
   94SAPC   C25 9127   0.181   5.153   5.911
   94SAPC   H5R 9128   0.190   5.243   5.973
   94SAPC   C26 9129   0.116   5.162   5.801
   94SAPC   H6R 9130   0.056   5.252   5.779
   94SAPC   C27 9131   0.087   5.038   5.714
   94SAPC   H7R 9132   6.864   5.037   5.696
   94SAPC   H7S 9133   0.106   4.943   5.769
   94SAPC   C28 9134   0.176   5.043   5.590
   94SAPC   H8R 9135   0.282   5.021   5.608
   94SAPC   C29 9136   0.126   5.100   5.477
   94SAPC   H9R 9137   0.201   5.107   5.397
   94SAPC  C210 9138   6.874   5.146   5.449
   94SAPC  H10R 9139   6.861   5.242   5.396
   94SAPC  H10S 9140   6.816   5.166   5.541
   94SAPC  C211 9141   6.818   5.035   5.370
   94SAPC  H11R 9142   6.804   4.940   5.424
   94SAPC  C212 9143   6.799   5.041   5.230
   94SAPC  H12R 9144   6.763   4.946   5.188
   94SAPC  C213 9145   6.805   5.153   5.129
   94SAPC  H13R 9146   6.818   5.256   5.170
   94SAPC  H13S 9147   6.709   5.145   5.074
   94SAPC  C214 9148   0.022   5.118   5.033
   94SAPC  H14R 9149   0.090   5.035   5.053
   94SAPC  C215 9150   0.051   5.178   4.919
   94SAPC  H15R 9151   0.143   5.147   4.868
   94SAPC  C216 9152   6.871   5.304   4.867
   94SAPC  H16R 9153   0.066   5.375   4.843
   94SAPC  H16S 9154   6.811   5.355   4.945
   94SAPC  C217 9155   6.783   5.279   4.739
   94SAPC  H17R 9156   6.739   5.373   4.698
   94SAPC  H17S 9157   6.701   5.215   4.778
   94SAPC  C218 9158   6.855   5.196   4.633
   94SAPC  H18R 9159   6.796   5.176   4.541
   94SAPC  H18S 9160   0.007   5.103   4.679
   94SAPC  C219 9161   0.108   5.263   4.589
   94SAPC  H19R 9162   0.182   5.229   4.665
   94SAPC  H19S 9163   0.098   5.372   4.606
   94SAPC  C220 9164   0.143   5.225   4.449
   94SAPC  H20R 9165   0.248   5.258   4.430
   94SAPC  H20S 9166   0.073   5.275   4.379
   94SAPC  H20T 9167   0.153   5.116   4.433
   94SAPC   C33 9168   6.591   4.545   6.289
   94SAPC   H3X 9169   6.493   4.544   6.342
   94SAPC   H3Y 9170   6.673   4.518   6.359
   94SAPC   C34 9171   6.594   4.461   6.154
   94SAPC   H4X 9172   6.574   4.353   6.176
   94SAPC   H4Y 9173   6.700   4.458   6.120
   94SAPC   C35 9174   6.504   4.532   6.045
   94SAPC   H5X 9175   6.567   4.612   6.000
   94SAPC   H5Y 9176   6.419   4.580   6.098
   94SAPC   C36 9177   6.463   4.439   5.927
   94SAPC   H6X 9178   6.556   4.378   5.917
   94SAPC   H6Y 9179   6.436   4.506   5.843
   94SAPC   C37 9180   6.349   4.343   5.969
   94SAPC   H7X 9181   6.267   4.390   6.027
   94SAPC   H7Y 9182   6.389   4.276   6.048
   94SAPC   C38 9183   6.288   4.270   5.852
   94SAPC   H8X 9184   6.205   4.204   5.885
   94SAPC   H8Y 9185   6.368   4.220   5.795
   94SAPC   C39 9186   6.213   4.374   5.758
   94SAPC   H9X 9187   6.267   4.470   5.743
   94SAPC   H9Y 9188   6.126   4.418   5.812
   94SAPC  C310 9189   6.166   4.325   5.619
   94SAPC  H10X 9190   6.070   4.380   5.606
   94SAPC  H10Y 9191   6.140   4.218   5.626
   94SAPC  C311 9192   6.267   4.332   5.498
   94SAPC  H11X 9193   6.359   4.273   5.517
   94SAPC  H11Y 9194   6.304   4.437   5.492
   94SAPC  C312 9195   6.184   4.284   5.372
   94SAPC  H12X 9196   6.087   4.339   5.366
   94SAPC  H12Y 9197   6.161   4.176   5.384
   94SAPC  C313 9198   6.265   4.308   5.249
   94SAPC  H13X 9199   6.365   4.262   5.265
   94SAPC  H13Y 9200   6.290   4.416   5.235
   94SAPC  C314 9201   6.211   4.244   5.118
   94SAPC  H14X 9202   6.123   4.298   5.076
   94SAPC  H14Y 9203   6.174   4.142   5.139
   94SAPC  C315 9204   6.323   4.242   5.004
   94SAPC  H15X 9205   6.385   4.155   5.037
   94SAPC  H15Y 9206   6.377   4.338   5.013
   94SAPC  C316 9207   6.267   4.240   4.863
   94SAPC  H16X 9208   6.182   4.312   4.861
   94SAPC  H16Y 9209   6.230   4.140   4.832
   94SAPC  C317 9210   6.370   4.293   4.756
   94SAPC  H17X 9211   6.458   4.227   4.758
   94SAPC  H17Y 9212   6.402   4.393   4.793
   94SAPC  C318 9213   6.333   4.304   4.610
   94SAPC  H18X 9214   6.230   4.346   4.612
   94SAPC  H18Y 9215   6.320   4.210   4.553
   94SAPC  H18Z 9216   6.409   4.370   4.563
   95SAPC     N 9217   2.720   6.291   1.649
   95SAPC   C12 9218   2.730   6.280   1.797
   95SAPC  H12A 9219   2.636   6.256   1.845
   95SAPC  H12B 9220   2.758   6.374   1.842
   95SAPC   C13 9221   2.692   6.155   1.591
   95SAPC  H13A 9222   2.771   6.084   1.609
   95SAPC  H13B 9223   2.599   6.113   1.627
   95SAPC  H13C 9224   2.687   6.151   1.484
   95SAPC   C14 9225   2.615   6.386   1.611
   95SAPC  H14A 9226   2.614   6.401   1.505
   95SAPC  H14B 9227   2.520   6.346   1.646
   95SAPC  H14C 9228   2.624   6.487   1.650
   95SAPC   C15 9229   2.855   6.330   1.593
   95SAPC  H15A 9230   2.926   6.267   1.645
   95SAPC  H15B 9231   2.875   6.301   1.491
   95SAPC  H15C 9232   2.876   6.432   1.623
   95SAPC   C11 9233   2.826   6.171   1.850
   95SAPC  H11A 9234   2.772   6.077   1.824
   95SAPC  H11B 9235   2.821   6.166   1.961
   95SAPC     P 9236   3.077   6.243   1.905
   95SAPC   O13 9237   3.196   6.165   1.878
   95SAPC   O14 9238   3.081   6.388   1.879
   95SAPC   O12 9239   2.961   6.184   1.810
   95SAPC   O11 9240   3.025   6.216   2.056
   95SAPC    C1 9241   3.050   6.090   2.116
   95SAPC    HA 9242   3.071   6.010   2.042
   95SAPC    HB 9243   3.143   6.101   2.176
   95SAPC    C2 9244   2.929   6.051   2.210
   95SAPC    HS 9245   2.852   6.012   2.140
   95SAPC   O21 9246   2.877   6.167   2.280
   95SAPC   C21 9247   2.765   6.149   2.353
   95SAPC   O22 9248   2.689   6.058   2.337
   95SAPC   C22 9249   2.747   6.275   2.437
   95SAPC   H2R 9250   2.828   6.283   2.512
   95SAPC   H2S 9251   2.738   6.358   2.363
   95SAPC    C3 9252   2.955   5.924   2.298
   95SAPC    HX 9253   3.003   5.867   2.215
   95SAPC    HY 9254   2.866   5.870   2.338
   95SAPC   O31 9255   3.060   5.953   2.405
   95SAPC   C31 9256   3.145   5.856   2.419
   95SAPC   O32 9257   3.164   5.759   2.348
   95SAPC   C32 9258   3.231   5.888   2.547
   95SAPC   H2X 9259   3.208   5.986   2.594
   95SAPC   H2Y 9260   3.336   5.880   2.512
   95SAPC   C23 9261   2.607   6.265   2.515
   95SAPC   H3R 9262   2.604   6.161   2.552
   95SAPC   H3S 9263   2.537   6.276   2.430
   95SAPC   C24 9264   2.613   6.350   2.643
   95SAPC   H4R 9265   2.721   6.355   2.671
   95SAPC   H4S 9266   2.563   6.280   2.712
   95SAPC   C25 9267   2.551   6.486   2.636
   95SAPC   H5R 9268   2.578   6.541   2.544
   95SAPC   C26 9269   2.461   6.535   2.714
   95SAPC   H6R 9270   2.419   6.636   2.696
   95SAPC   C27 9271   2.425   6.461   2.845
   95SAPC   H7R 9272   2.502   6.390   2.879
   95SAPC   H7S 9273   2.327   6.411   2.833
   95SAPC   C28 9274   2.412   6.570   2.949
   95SAPC   H8R 9275   2.384   6.671   2.914
   95SAPC   C29 9276   2.448   6.561   3.078
   95SAPC   H9R 9277   2.436   6.650   3.141
   95SAPC  C210 9278   2.496   6.439   3.148
   95SAPC  H10R 9279   2.583   6.466   3.211
   95SAPC  H10S 9280   2.544   6.364   3.081
   95SAPC  C211 9281   2.391   6.358   3.230
   95SAPC  H11R 9282   2.378   6.253   3.198
   95SAPC  C212 9283   2.320   6.393   3.343
   95SAPC  H12R 9284   2.234   6.336   3.381
   95SAPC  C213 9285   2.323   6.531   3.404
   95SAPC  H13R 9286   2.424   6.578   3.401
   95SAPC  H13S 9287   2.294   6.518   3.511
   95SAPC  C214 9288   2.237   6.637   3.336
   95SAPC  H14R 9289   2.185   6.592   3.250
   95SAPC  C215 9290   2.225   6.766   3.367
   95SAPC  H15R 9291   2.164   6.828   3.300
   95SAPC  C216 9292   2.294   6.846   3.484
   95SAPC  H16R 9293   2.352   6.783   3.554
   95SAPC  H16S 9294   2.204   0.004   3.531
   95SAPC  C217 9295   2.397   0.061   3.433
   95SAPC  H17R 9296   2.429   0.137   3.507
   95SAPC  H17S 9297   2.354   0.117   3.347
   95SAPC  C218 9298   2.521   6.869   3.389
   95SAPC  H18R 9299   2.496   6.773   3.339
   95SAPC  H18S 9300   2.569   6.853   3.488
   95SAPC  C219 9301   2.618   0.051   3.293
   95SAPC  H19R 9302   2.696   6.864   3.263
   95SAPC  H19S 9303   2.663   0.141   3.340
   95SAPC  C220 9304   2.551   0.086   3.161
   95SAPC  H20R 9305   2.628   0.121   3.089
   95SAPC  H20S 9306   2.470   0.159   3.180
   95SAPC  H20T 9307   2.508   0.001   3.104
   95SAPC   C33 9308   3.232   5.783   2.656
   95SAPC   H3X 9309   3.278   5.688   2.622
   95SAPC   H3Y 9310   3.128   5.753   2.679
   95SAPC   C34 9311   3.303   5.838   2.782
   95SAPC   H4X 9312   3.268   5.941   2.805
   95SAPC   H4Y 9313   3.411   5.842   2.754
   95SAPC   C35 9314   3.278   5.757   2.911
   95SAPC   H5X 9315   3.358   5.778   2.985
   95SAPC   H5Y 9316   3.289   5.647   2.893
   95SAPC   C36 9317   3.149   5.792   2.974
   95SAPC   H6X 9318   3.059   5.764   2.915
   95SAPC   H6Y 9319   3.134   5.902   2.983
   95SAPC   C37 9320   3.129   5.732   3.118
   95SAPC   H7X 9321   3.189   5.639   3.121
   95SAPC   H7Y 9322   3.019   5.715   3.125
   95SAPC   C38 9323   3.196   5.827   3.219
   95SAPC   H8X 9324   3.205   5.933   3.187
   95SAPC   H8Y 9325   3.294   5.780   3.199
   95SAPC   C39 9326   3.170   5.800   3.368
   95SAPC   H9X 9327   3.218   5.878   3.431
   95SAPC   H9Y 9328   3.210   5.705   3.410
   95SAPC  C310 9329   3.025   5.818   3.410
   95SAPC  H10X 9330   2.975   5.728   3.368
   95SAPC  H10Y 9331   2.982   5.905   3.356
   95SAPC  C311 9332   3.005   5.831   3.559
   95SAPC  H11X 9333   2.895   5.833   3.572
   95SAPC  H11Y 9334   3.058   5.920   3.600
   95SAPC  C312 9335   3.034   5.703   3.641
   95SAPC  H12X 9336   3.143   5.688   3.655
   95SAPC  H12Y 9337   2.995   5.613   3.588
   95SAPC  C313 9338   2.993   5.723   3.794
   95SAPC  H13X 9339   2.886   5.703   3.815
   95SAPC  H13Y 9340   3.018   5.829   3.813
   95SAPC  C314 9341   3.085   5.643   3.881
   95SAPC  H14X 9342   3.192   5.651   3.853
   95SAPC  H14Y 9343   3.072   5.537   3.853
   95SAPC  C315 9344   3.073   5.649   4.035
   95SAPC  H15X 9345   2.964   5.649   4.053
   95SAPC  H15Y 9346   3.106   5.752   4.060
   95SAPC  C316 9347   3.139   5.542   4.118
   95SAPC  H16X 9348   3.244   5.575   4.135
   95SAPC  H16Y 9349   3.139   5.447   4.060
   95SAPC  C317 9350   3.066   5.532   4.253
   95SAPC  H17X 9351   2.958   5.507   4.240
   95SAPC  H17Y 9352   3.064   5.631   4.304
   95SAPC  C318 9353   3.123   5.425   4.349
   95SAPC  H18X 9354   3.044   5.403   4.424
   95SAPC  H18Y 9355   3.213   5.441   4.412
   95SAPC  H18Z 9356   3.148   5.337   4.286
   96SAPC     N 9357   3.855   1.930   1.884
   96SAPC   C12 9358   3.762   2.040   1.930
   96SAPC  H12A 9359   3.668   2.040   1.877
   96SAPC  H12B 9360   3.797   2.138   1.900
   96SAPC   C13 9361   3.876   1.935   1.726
   96SAPC  H13A 9362   3.917   2.022   1.677
   96SAPC  H13B 9363   3.940   1.856   1.690
   96SAPC  H13C 9364   3.781   1.919   1.679
   96SAPC   C14 9365   3.984   1.938   1.956
   96SAPC  H14A 9366   4.029   2.035   1.939
   96SAPC  H14B 9367   3.982   1.923   2.063
   96SAPC  H14C 9368   4.054   1.868   1.913
   96SAPC   C15 9369   3.803   1.799   1.917
   96SAPC  H15A 9370   3.878   1.722   1.906
   96SAPC  H15B 9371   3.762   1.808   2.017
   96SAPC  H15C 9372   3.721   1.767   1.854
   96SAPC   C11 9373   3.726   2.050   2.079
   96SAPC  H11A 9374   3.671   1.959   2.111
   96SAPC  H11B 9375   3.651   2.131   2.091
   96SAPC     P 9376   3.893   2.209   2.198
   96SAPC   O13 9377   4.019   2.212   2.269
   96SAPC   O14 9378   3.877   2.295   2.080
   96SAPC   O12 9379   3.842   2.064   2.167
   96SAPC   O11 9380   3.776   2.251   2.301
   96SAPC    C1 9381   3.759   2.394   2.319
   96SAPC    HA 9382   3.843   2.443   2.372
   96SAPC    HB 9383   3.736   2.441   2.221
   96SAPC    C2 9384   3.630   2.418   2.420
   96SAPC    HS 9385   3.638   2.522   2.458
   96SAPC   O21 9386   3.625   2.338   2.535
   96SAPC   C21 9387   3.732   2.333   2.614
   96SAPC   O22 9388   3.838   2.397   2.594
   96SAPC   C22 9389   3.701   2.229   2.719
   96SAPC   H2R 9390   3.596   2.236   2.756
   96SAPC   H2S 9391   3.722   2.127   2.680
   96SAPC    C3 9392   3.495   2.403   2.330
   96SAPC    HX 9393   3.495   2.309   2.270
   96SAPC    HY 9394   3.512   2.474   2.246
   96SAPC   O31 9395   3.378   2.431   2.413
   96SAPC   C31 9396   3.315   2.319   2.449
   96SAPC   O32 9397   3.350   2.207   2.408
   96SAPC   C32 9398   3.203   2.343   2.547
   96SAPC   H2X 9399   3.130   2.401   2.487
   96SAPC   H2Y 9400   3.249   2.408   2.624
   96SAPC   C23 9401   3.806   2.240   2.829
   96SAPC   H3R 9402   3.817   2.342   2.872
   96SAPC   H3S 9403   3.907   2.211   2.793
   96SAPC   C24 9404   3.766   2.142   2.945
   96SAPC   H4R 9405   3.848   2.118   3.016
   96SAPC   H4S 9406   3.740   2.047   2.893
   96SAPC   C25 9407   3.645   2.196   3.019
   96SAPC   H5R 9408   3.558   2.187   2.952
   96SAPC   C26 9409   3.637   2.243   3.148
   96SAPC   H6R 9410   3.537   2.262   3.190
   96SAPC   C27 9411   3.744   2.260   3.246
   96SAPC   H7R 9412   3.732   2.359   3.293
   96SAPC   H7S 9413   3.844   2.266   3.199
   96SAPC   C28 9414   3.748   2.144   3.342
   96SAPC   H8R 9415   3.744   2.045   3.297
   96SAPC   C29 9416   3.743   2.157   3.473
   96SAPC   H9R 9417   3.753   2.066   3.534
   96SAPC  C210 9418   3.736   2.280   3.556
   96SAPC  H10R 9419   3.729   2.368   3.489
   96SAPC  H10S 9420   3.836   2.285   3.604
   96SAPC  C211 9421   3.614   2.276   3.646
   96SAPC  H11R 9422   3.520   2.325   3.616
   96SAPC  C212 9423   3.611   2.225   3.774
   96SAPC  H12R 9424   3.518   2.244   3.830
   96SAPC  C213 9425   3.729   2.167   3.853
   96SAPC  H13R 9426   3.694   2.153   3.958
   96SAPC  H13S 9427   3.807   2.245   3.850
   96SAPC  C214 9428   3.804   2.043   3.812
   96SAPC  H14R 9429   3.767   1.991   3.723
   96SAPC  C215 9430   3.914   1.994   3.868
   96SAPC  H15R 9431   3.951   1.897   3.831
   96SAPC  C216 9432   3.986   2.045   3.980
   96SAPC  H16R 9433   3.920   2.114   4.036
   96SAPC  H16S 9434   4.071   2.109   3.947
   96SAPC  C217 9435   4.021   1.942   4.078
   96SAPC  H17R 9436   4.070   1.861   4.020
   96SAPC  H17S 9437   3.929   1.898   4.122
   96SAPC  C218 9438   4.110   1.969   4.198
   96SAPC  H18R 9439   4.060   2.032   4.275
   96SAPC  H18S 9440   4.200   2.019   4.155
   96SAPC  C219 9441   4.157   1.835   4.265
   96SAPC  H19R 9442   4.185   1.766   4.182
   96SAPC  H19S 9443   4.068   1.802   4.323
   96SAPC  C220 9444   4.284   1.843   4.355
   96SAPC  H20R 9445   4.284   1.760   4.428
   96SAPC  H20S 9446   4.280   1.945   4.398
   96SAPC  H20T 9447   4.380   1.847   4.299
   96SAPC   C33 9448   3.138   2.216   2.599
   96SAPC   H3X 9449   3.151   2.128   2.532
   96SAPC   H3Y 9450   3.030   2.216   2.624
   96SAPC   C34 9451   3.192   2.161   2.734
   96SAPC   H4X 9452   3.298   2.128   2.723
   96SAPC   H4Y 9453   3.136   2.068   2.754
   96SAPC   C35 9454   3.175   2.245   2.859
   96SAPC   H5X 9455   3.073   2.288   2.871
   96SAPC   H5Y 9456   3.235   2.334   2.833
   96SAPC   C36 9457   3.218   2.168   2.986
   96SAPC   H6X 9458   3.323   2.140   2.964
   96SAPC   H6Y 9459   3.167   2.069   2.980
   96SAPC   C37 9460   3.199   2.255   3.110
   96SAPC   H7X 9461   3.098   2.302   3.107
   96SAPC   H7Y 9462   3.275   2.334   3.092
   96SAPC   C38 9463   3.225   2.175   3.244
   96SAPC   H8X 9464   3.331   2.142   3.254
   96SAPC   H8Y 9465   3.146   2.098   3.253
   96SAPC   C39 9466   3.197   2.278   3.350
   96SAPC   H9X 9467   3.111   2.345   3.326
   96SAPC   H9Y 9468   3.285   2.345   3.362
   96SAPC  C310 9469   3.160   2.233   3.495
   96SAPC  H10X 9470   3.236   2.157   3.523
   96SAPC  H10Y 9471   3.057   2.190   3.503
   96SAPC  C311 9472   3.167   2.353   3.589
   96SAPC  H11X 9473   3.091   2.430   3.563
   96SAPC  H11Y 9474   3.265   2.404   3.577
   96SAPC  C312 9475   3.153   2.310   3.740
   96SAPC  H12X 9476   3.241   2.245   3.758
   96SAPC  H12Y 9477   3.066   2.241   3.751
   96SAPC  C313 9478   3.156   2.431   3.835
   96SAPC  H13X 9479   3.082   2.504   3.796
   96SAPC  H13Y 9480   3.260   2.470   3.830
   96SAPC  C314 9481   3.130   2.383   3.980
   96SAPC  H14X 9482   3.149   2.467   4.050
   96SAPC  H14Y 9483   3.192   2.296   4.012
   96SAPC  C315 9484   2.982   2.371   4.002
   96SAPC  H15X 9485   2.976   2.322   4.102
   96SAPC  H15Y 9486   2.934   2.307   3.925
   96SAPC  C316 9487   2.907   2.502   4.024
   96SAPC  H16X 9488   2.873   2.524   3.921
   96SAPC  H16Y 9489   2.973   2.584   4.061
   96SAPC  C317 9490   2.786   2.505   4.123
   96SAPC  H17X 9491   2.725   2.596   4.113
   96SAPC  H17Y 9492   2.844   2.498   4.218
   96SAPC  C318 9493   2.685   2.385   4.108
   96SAPC  H18X 9494   2.607   2.405   4.185
   96SAPC  H18Y 9495   2.729   2.284   4.118
   96SAPC  H18Z 9496   2.626   2.390   4.014
   97SAPC     N 9497   3.289   0.011   2.266
   97SAPC   C12 9498   3.317   0.062   2.405
   97SAPC  H12A 9499   3.398   0.133   2.396
   97SAPC  H12B 9500   3.350   6.867   2.467
   97SAPC   C13 9501   3.401   6.809   2.221
   97SAPC  H13A 9502   3.394   6.756   2.127
   97SAPC  H13B 9503   3.495   6.862   2.216
   97SAPC  H13C 9504   3.413   6.723   2.286
   97SAPC   C14 9505   3.171   6.809   2.269
   97SAPC  H14A 9506   3.123   6.812   2.366
   97SAPC  H14B 9507   3.092   6.848   2.206
   97SAPC  H14C 9508   3.188   6.707   2.238
   97SAPC   C15 9509   3.269   0.125   2.166
   97SAPC  H15A 9510   3.272   0.087   2.065
   97SAPC  H15B 9511   3.192   0.193   2.199
   97SAPC  H15C 9512   3.361   0.183   2.168
   97SAPC   C11 9513   3.200   0.126   2.487
   97SAPC  H11A 9514   3.257   0.176   2.569
   97SAPC  H11B 9515   3.139   0.050   2.540
   97SAPC     P 9516   2.972   0.246   2.430
   97SAPC   O13 9517   2.930   0.353   2.333
   97SAPC   O14 9518   2.886   0.124   2.427
   97SAPC   O12 9519   3.123   0.217   2.406
   97SAPC   O11 9520   2.964   0.305   2.581
   97SAPC    C1 9521   3.001   0.439   2.605
   97SAPC    HA 9522   3.080   0.486   2.542
   97SAPC    HB 9523   2.909   0.500   2.594
   97SAPC    C2 9524   3.074   0.467   2.746
   97SAPC    HS 9525   3.145   0.381   2.742
   97SAPC   O21 9526   2.981   0.452   2.850
   97SAPC   C21 9527   3.011   0.356   2.935
   97SAPC   O22 9528   3.107   0.277   2.931
   97SAPC   C22 9529   2.909   0.369   3.040
   97SAPC   H2R 9530   2.918   0.472   3.082
   97SAPC   H2S 9531   2.808   0.349   2.998
   97SAPC    C3 9532   3.135   0.606   2.762
   97SAPC    HX 9533   3.051   0.677   2.743
   97SAPC    HY 9534   3.225   0.627   2.701
   97SAPC   O31 9535   3.164   0.633   2.901
   97SAPC   C31 9536   3.286   0.591   2.932
   97SAPC   O32 9537   3.366   0.530   2.862
   97SAPC   C32 9538   3.309   0.632   3.078
   97SAPC   H2X 9539   3.223   0.631   3.149
   97SAPC   H2Y 9540   3.347   0.735   3.065
   97SAPC   C23 9541   2.927   0.262   3.152
   97SAPC   H3R 9542   2.945   0.161   3.109
   97SAPC   H3S 9543   2.835   0.259   3.215
   97SAPC   C24 9544   3.051   0.295   3.245
   97SAPC   H4R 9545   3.026   0.385   3.305
   97SAPC   H4S 9546   3.137   0.328   3.182
   97SAPC   C25 9547   3.092   0.175   3.329
   97SAPC   H5R 9548   3.179   0.117   3.296
   97SAPC   C26 9549   3.042   0.151   3.452
   97SAPC   H6R 9550   3.073   0.061   3.507
   97SAPC   C27 9551   2.930   0.224   3.520
   97SAPC   H7R 9552   2.838   0.161   3.520
   97SAPC   H7S 9553   2.907   0.313   3.457
   97SAPC   C28 9554   2.956   0.276   3.658
   97SAPC   H8R 9555   3.023   0.362   3.667
   97SAPC   C29 9556   2.918   0.211   3.772
   97SAPC   H9R 9557   2.943   0.254   3.870
   97SAPC  C210 9558   2.824   0.091   3.781
   97SAPC  H10R 9559   2.830   0.054   3.886
   97SAPC  H10S 9560   2.850   0.005   3.716
   97SAPC  C211 9561   2.674   0.138   3.770
   97SAPC  H11R 9562   2.623   0.113   3.676
   97SAPC  C212 9563   2.602   0.187   3.874
   97SAPC  H12R 9564   2.498   0.219   3.860
   97SAPC  C213 9565   2.645   0.215   4.013
   97SAPC  H13R 9566   2.655   0.324   4.032
   97SAPC  H13S 9567   2.749   0.176   4.026
   97SAPC  C214 9568   2.564   0.148   4.117
   97SAPC  H14R 9569   2.489   0.077   4.079
   97SAPC  C215 9570   2.587   0.171   4.252
   97SAPC  H15R 9571   2.519   0.125   4.325
   97SAPC  C216 9572   2.694   0.263   4.312
   97SAPC  H16R 9573   2.726   0.339   4.237
   97SAPC  H16S 9574   2.785   0.208   4.343
   97SAPC  C217 9575   2.657   0.319   4.448
   97SAPC  H17R 9576   2.749   0.328   4.510
   97SAPC  H17S 9577   2.595   0.255   4.514
   97SAPC  C218 9578   2.601   0.468   4.446
   97SAPC  H18R 9579   2.527   0.465   4.364
   97SAPC  H18S 9580   2.677   0.537   4.403
   97SAPC  C219 9581   2.536   0.521   4.568
   97SAPC  H19R 9582   2.448   0.460   4.594
   97SAPC  H19S 9583   2.493   0.621   4.547
   97SAPC  C220 9584   2.627   0.524   4.700
   97SAPC  H20R 9585   2.568   0.542   4.793
   97SAPC  H20S 9586   2.702   0.605   4.692
   97SAPC  H20T 9587   2.680   0.427   4.718
   97SAPC   C33 9588   3.426   0.555   3.144
   97SAPC   H3X 9589   3.514   0.573   3.079
   97SAPC   H3Y 9590   3.412   0.445   3.138
   97SAPC   C34 9591   3.455   0.598   3.283
   97SAPC   H4X 9592   3.494   0.700   3.300
   97SAPC   H4Y 9593   3.539   0.533   3.315
   97SAPC   C35 9594   3.338   0.571   3.378
   97SAPC   H5X 9595   3.276   0.483   3.350
   97SAPC   H5Y 9596   3.273   0.661   3.364
   97SAPC   C36 9597   3.378   0.547   3.524
   97SAPC   H6X 9598   3.441   0.634   3.552
   97SAPC   H6Y 9599   3.444   0.457   3.524
   97SAPC   C37 9600   3.253   0.528   3.605
   97SAPC   H7X 9601   3.242   0.418   3.609
   97SAPC   H7Y 9602   3.164   0.571   3.553
   97SAPC   C38 9603   3.282   0.584   3.745
   97SAPC   H8X 9604   3.327   0.686   3.742
   97SAPC   H8Y 9605   3.361   0.517   3.784
   97SAPC   C39 9606   3.171   0.570   3.851
   97SAPC   H9X 9607   3.123   0.471   3.836
   97SAPC   H9Y 9608   3.092   0.644   3.827
   97SAPC  C310 9609   3.215   0.591   3.995
   97SAPC  H10X 9610   3.263   0.685   4.030
   97SAPC  H10Y 9611   3.293   0.519   4.028
   97SAPC  C311 9612   3.101   0.569   4.103
   97SAPC  H11X 9613   3.141   0.581   4.207
   97SAPC  H11Y 9614   3.063   0.464   4.098
   97SAPC  C312 9615   2.986   0.667   4.081
   97SAPC  H12X 9616   2.931   0.635   3.990
   97SAPC  H12Y 9617   3.020   0.771   4.061
   97SAPC  C313 9618   2.887   0.677   4.200
   97SAPC  H13X 9619   2.948   0.682   4.292
   97SAPC  H13Y 9620   2.823   0.587   4.203
   97SAPC  C314 9621   2.793   0.805   4.193
   97SAPC  H14X 9622   2.732   0.809   4.100
   97SAPC  H14Y 9623   2.847   0.902   4.195
   97SAPC  C315 9624   2.693   0.809   4.307
   97SAPC  H15X 9625   2.743   0.772   4.399
   97SAPC  H15Y 9626   2.606   0.742   4.292
   97SAPC  C316 9627   2.626   0.948   4.318
   97SAPC  H16X 9628   2.554   0.965   4.235
   97SAPC  H16Y 9629   2.700   1.030   4.333
   97SAPC  C317 9630   2.538   0.954   4.443
   97SAPC  H17X 9631   2.473   0.864   4.445
   97SAPC  H17Y 9632   2.477   1.047   4.440
   97SAPC  C318 9633   2.622   0.958   4.577
   97SAPC  H18X 9634   2.665   0.857   4.593
   97SAPC  H18Y 9635   2.552   0.989   4.657
   97SAPC  H18Z 9636   2.711   1.024   4.570
   98SAPC     N 9637   6.058   1.706   2.193
   98SAPC   C12 9638   6.151   1.639   2.283
   98SAPC  H12A 9639   6.205   1.713   2.340
   98SAPC  H12B 9640   6.226   1.582   2.231
   98SAPC   C13 9641   5.976   1.801   2.264
   98SAPC  H13A 9642   5.909   1.852   2.196
   98SAPC  H13B 9643   5.905   1.748   2.327
   98SAPC  H13C 9644   6.030   1.874   2.323
   98SAPC   C14 9645   6.140   1.788   2.089
   98SAPC  H14A 9646   6.211   1.729   2.032
   98SAPC  H14B 9647   6.085   1.837   2.010
   98SAPC  H14C 9648   6.188   1.865   2.146
   98SAPC   C15 9649   5.972   1.610   2.115
   98SAPC  H15A 9650   5.906   1.544   2.169
   98SAPC  H15B 9651   5.905   1.670   2.054
   98SAPC  H15C 9652   6.037   1.552   2.051
   98SAPC   C11 9653   6.078   1.538   2.388
   98SAPC  H11A 9654   5.988   1.589   2.429
   98SAPC  H11B 9655   6.151   1.521   2.470
   98SAPC     P 9656   6.146   1.320   2.291
   98SAPC   O13 9657   6.093   1.185   2.258
   98SAPC   O14 9658   6.246   1.376   2.187
   98SAPC   O12 9659   6.033   1.421   2.331
   98SAPC   O11 9660   6.230   1.303   2.427
   98SAPC    C1 9661   6.182   1.193   2.510
   98SAPC    HA 9662   6.168   1.101   2.448
   98SAPC    HB 9663   6.261   1.173   2.586
   98SAPC    C2 9664   6.063   1.219   2.599
   98SAPC    HS 9665   5.976   1.236   2.532
   98SAPC   O21 9666   6.091   1.341   2.683
   98SAPC   C21 9667   5.983   1.401   2.723
   98SAPC   O22 9668   5.871   1.361   2.685
   98SAPC   C22 9669   6.017   1.518   2.818
   98SAPC   H2R 9670   6.010   1.484   2.924
   98SAPC   H2S 9671   6.114   1.565   2.789
   98SAPC    C3 9672   6.038   1.084   2.678
   98SAPC    HX 9673   6.135   1.049   2.721
   98SAPC    HY 9674   6.006   1.009   2.603
   98SAPC   O31 9675   5.943   1.092   2.777
   98SAPC   C31 9676   5.821   1.096   2.740
   98SAPC   O32 9677   5.777   1.079   2.625
   98SAPC   C32 9678   5.737   1.126   2.870
   98SAPC   H2X 9679   5.686   1.223   2.846
   98SAPC   H2Y 9680   5.804   1.162   2.951
   98SAPC   C23 9681   5.911   1.625   2.825
   98SAPC   H3R 9682   5.813   1.574   2.837
   98SAPC   H3S 9683   5.887   1.678   2.730
   98SAPC   C24 9684   5.928   1.722   2.943
   98SAPC   H4R 9685   5.947   1.665   3.036
   98SAPC   H4S 9686   5.829   1.769   2.957
   98SAPC   C25 9687   6.035   1.817   2.904
   98SAPC   H5R 9688   6.007   1.898   2.835
   98SAPC   C26 9689   6.162   1.835   2.950
   98SAPC   H6R 9690   6.221   1.920   2.911
   98SAPC   C27 9691   6.215   1.752   3.067
   98SAPC   H7R 9692   6.162   1.655   3.074
   98SAPC   H7S 9693   6.187   1.809   3.159
   98SAPC   C28 9694   6.362   1.732   3.047
   98SAPC   H8R 9695   6.402   1.790   2.963
   98SAPC   C29 9696   6.439   1.648   3.125
   98SAPC   H9R 9697   6.546   1.654   3.101
   98SAPC  C210 9698   6.409   1.568   3.245
   98SAPC  H10R 9699   6.300   1.572   3.265
   98SAPC  H10S 9700   6.454   1.621   3.332
   98SAPC  C211 9701   6.455   1.421   3.237
   98SAPC  H11R 9702   6.428   1.367   3.145
   98SAPC  C212 9703   6.546   1.357   3.313
   98SAPC  H12R 9704   6.555   1.247   3.312
   98SAPC  C213 9705   6.610   1.424   3.433
   98SAPC  H13R 9706   6.553   1.397   3.525
   98SAPC  H13S 9707   6.608   1.535   3.423
   98SAPC  C214 9708   6.756   1.380   3.445
   98SAPC  H14R 9709   6.810   1.357   3.352
   98SAPC  C215 9710   6.826   1.370   3.565
   98SAPC  H15R 9711   0.045   1.345   3.573
   98SAPC  C216 9712   6.775   1.403   3.707
   98SAPC  H16R 9713   6.691   1.475   3.703
   98SAPC  H16S 9714   6.859   1.445   3.767
   98SAPC  C217 9715   6.733   1.274   3.774
   98SAPC  H17R 9716   6.674   1.206   3.708
   98SAPC  H17S 9717   6.658   1.302   3.851
   98SAPC  C218 9718   6.849   1.195   3.832
   98SAPC  H18R 9719   0.027   1.264   3.891
   98SAPC  H18S 9720   0.022   1.146   3.752
   98SAPC  C219 9721   6.789   1.087   3.926
   98SAPC  H19R 9722   6.704   1.036   3.876
   98SAPC  H19S 9723   6.750   1.147   4.011
   98SAPC  C220 9724   6.886   0.987   3.985
   98SAPC  H20R 9725   6.843   0.923   4.064
   98SAPC  H20S 9726   0.091   1.038   4.020
   98SAPC  H20T 9727   0.037   0.919   3.905
   98SAPC   C33 9728   5.625   1.022   2.909
   98SAPC   H3X 9729   5.671   0.924   2.933
   98SAPC   H3Y 9730   5.551   1.021   2.826
   98SAPC   C34 9731   5.537   1.066   3.035
   98SAPC   H4X 9732   5.466   0.981   3.039
   98SAPC   H4Y 9733   5.483   1.159   3.010
   98SAPC   C35 9734   5.619   1.072   3.162
   98SAPC   H5X 9735   5.689   1.158   3.158
   98SAPC   H5Y 9736   5.668   0.973   3.170
   98SAPC   C36 9737   5.537   1.111   3.283
   98SAPC   H6X 9738   5.443   1.052   3.290
   98SAPC   H6Y 9739   5.516   1.220   3.278
   98SAPC   C37 9740   5.609   1.077   3.419
   98SAPC   H7X 9741   5.718   1.075   3.398
   98SAPC   H7Y 9742   5.594   0.973   3.455
   98SAPC   C38 9743   5.558   1.168   3.532
   98SAPC   H8X 9744   5.458   1.132   3.565
   98SAPC   H8Y 9745   5.544   1.272   3.495
   98SAPC   C39 9746   5.638   1.164   3.661
   98SAPC   H9X 9747   5.608   1.256   3.716
   98SAPC   H9Y 9748   5.748   1.175   3.647
   98SAPC  C310 9749   5.609   1.051   3.753
   98SAPC  H10X 9750   5.501   1.028   3.757
   98SAPC  H10Y 9751   5.639   1.089   3.853
   98SAPC  C311 9752   5.686   0.924   3.717
   98SAPC  H11X 9753   5.795   0.948   3.720
   98SAPC  H11Y 9754   5.658   0.892   3.614
   98SAPC  C312 9755   5.652   0.808   3.824
   98SAPC  H12X 9756   5.697   0.721   3.772
   98SAPC  H12Y 9757   5.541   0.811   3.819
   98SAPC  C313 9758   5.710   0.845   3.959
   98SAPC  H13X 9759   5.675   0.947   3.985
   98SAPC  H13Y 9760   5.821   0.844   3.957
   98SAPC  C314 9761   5.652   0.750   4.063
   98SAPC  H14X 9762   5.697   0.650   4.047
   98SAPC  H14Y 9763   5.546   0.741   4.031
   98SAPC  C315 9764   5.661   0.805   4.199
   98SAPC  H15X 9765   5.624   0.909   4.194
   98SAPC  H15Y 9766   5.766   0.809   4.236
   98SAPC  C316 9767   5.580   0.726   4.299
   98SAPC  H16X 9768   5.613   0.620   4.304
   98SAPC  H16Y 9769   5.474   0.726   4.266
   98SAPC  C317 9770   5.577   0.791   4.437
   98SAPC  H17X 9771   5.542   0.896   4.429
   98SAPC  H17Y 9772   5.686   0.795   4.460
   98SAPC  C318 9773   5.504   0.721   4.542
   98SAPC  H18X 9774   5.539   0.759   4.640
   98SAPC  H18Y 9775   5.519   0.611   4.545
   98SAPC  H18Z 9776   5.395   0.737   4.536
   99SAPC     N 9777   3.140   4.609   1.772
   99SAPC   C12 9778   3.072   4.728   1.697
   99SAPC  H12A 9779   2.965   4.724   1.713
   99SAPC  H12B 9780   3.089   4.706   1.593
   99SAPC   C13 9781   3.129   4.618   1.917
   99SAPC  H13A 9782   3.162   4.529   1.968
   99SAPC  H13B 9783   3.194   4.698   1.948
   99SAPC  H13C 9784   3.027   4.644   1.943
   99SAPC   C14 9785   3.087   4.474   1.726
   99SAPC  H14A 9786   3.085   4.476   1.618
   99SAPC  H14B 9787   3.156   4.393   1.748
   99SAPC  H14C 9788   2.985   4.465   1.761
   99SAPC   C15 9789   3.283   4.608   1.731
   99SAPC  H15A 9790   3.298   4.574   1.629
   99SAPC  H15B 9791   3.324   4.706   1.751
   99SAPC  H15C 9792   3.332   4.541   1.799
   99SAPC   C11 9793   3.127   4.865   1.735
   99SAPC  H11A 9794   3.078   4.944   1.673
   99SAPC  H11B 9795   3.232   4.878   1.701
   99SAPC     P 9796   2.988   4.939   1.942
   99SAPC   O13 9797   2.968   5.079   1.893
   99SAPC   O14 9798   2.872   4.843   1.920
   99SAPC   O12 9799   3.122   4.885   1.876
   99SAPC   O11 9800   3.024   4.954   2.094
   99SAPC    C1 9801   2.984   4.843   2.175
   99SAPC    HA 9802   2.875   4.824   2.161
   99SAPC    HB 9803   3.045   4.752   2.163
   99SAPC    C2 9804   3.001   4.873   2.330
   99SAPC    HS 9805   2.932   4.809   2.390
   99SAPC   O21 9806   2.989   5.015   2.359
   99SAPC   C21 9807   2.877   5.047   2.418
   99SAPC   O22 9808   2.786   4.970   2.438
   99SAPC   C22 9809   2.885   5.189   2.454
   99SAPC   H2R 9810   2.987   5.229   2.472
   99SAPC   H2S 9811   2.844   5.253   2.373
   99SAPC    C3 9812   3.139   4.823   2.378
   99SAPC    HX 9813   3.218   4.874   2.319
   99SAPC    HY 9814   3.147   4.720   2.338
   99SAPC   O31 9815   3.153   4.831   2.525
   99SAPC   C31 9816   3.256   4.765   2.590
   99SAPC   O32 9817   3.340   4.697   2.540
   99SAPC   C32 9818   3.251   4.799   2.741
   99SAPC   H2X 9819   3.308   4.710   2.774
   99SAPC   H2Y 9820   3.150   4.811   2.786
   99SAPC   C23 9821   2.801   5.219   2.581
   99SAPC   H3R 9822   2.707   5.159   2.576
   99SAPC   H3S 9823   2.766   5.325   2.582
   99SAPC   C24 9824   2.877   5.188   2.711
   99SAPC   H4R 9825   2.967   5.252   2.723
   99SAPC   H4S 9826   2.929   5.089   2.709
   99SAPC   C25 9827   2.786   5.187   2.829
   99SAPC   H5R 9828   2.692   5.138   2.801
   99SAPC   C26 9829   2.798   5.256   2.947
   99SAPC   H6R 9830   2.719   5.244   3.022
   99SAPC   C27 9831   2.918   5.346   2.990
   99SAPC   H7R 9832   2.957   5.404   2.903
   99SAPC   H7S 9833   3.005   5.284   3.023
   99SAPC   C28 9834   2.888   5.440   3.101
   99SAPC   H8R 9835   2.861   5.538   3.059
   99SAPC   C29 9836   2.883   5.411   3.225
   99SAPC   H9R 9837   2.860   5.500   3.286
   99SAPC  C210 9838   2.919   5.278   3.294
   99SAPC  H10R 9839   3.012   5.285   3.354
   99SAPC  H10S 9840   2.937   5.201   3.215
   99SAPC  C211 9841   2.803   5.226   3.374
   99SAPC  H11R 9842   2.707   5.240   3.323
   99SAPC  C212 9843   2.800   5.202   3.506
   99SAPC  H12R 9844   2.702   5.177   3.548
   99SAPC  C213 9845   2.916   5.200   3.599
   99SAPC  H13R 9846   2.932   5.299   3.646
   99SAPC  H13S 9847   3.004   5.170   3.537
   99SAPC  C214 9848   2.898   5.095   3.703
   99SAPC  H14R 9849   2.929   4.992   3.678
   99SAPC  C215 9850   2.845   5.116   3.828
   99SAPC  H15R 9851   2.839   5.037   3.905
   99SAPC  C216 9852   2.811   5.247   3.891
   99SAPC  H16R 9853   2.701   5.262   3.894
   99SAPC  H16S 9854   2.857   5.336   3.841
   99SAPC  C217 9855   2.855   5.267   4.037
   99SAPC  H17R 9856   2.859   5.376   4.054
   99SAPC  H17S 9857   2.958   5.230   4.054
   99SAPC  C218 9858   2.751   5.201   4.130
   99SAPC  H18R 9859   2.747   5.093   4.104
   99SAPC  H18S 9860   2.648   5.241   4.121
   99SAPC  C219 9861   2.792   5.216   4.285
   99SAPC  H19R 9862   2.806   5.325   4.298
   99SAPC  H19S 9863   2.887   5.158   4.294
   99SAPC  C220 9864   2.693   5.154   4.374
   99SAPC  H20R 9865   2.661   5.052   4.342
   99SAPC  H20S 9866   2.605   5.223   4.377
   99SAPC  H20T 9867   2.724   5.144   4.480
   99SAPC   C33 9868   3.340   4.914   2.797
   99SAPC   H3X 9869   3.329   5.008   2.739
   99SAPC   H3Y 9870   3.446   4.887   2.778
   99SAPC   C34 9871   3.303   4.929   2.946
   99SAPC   H4X 9872   3.200   4.968   2.957
   99SAPC   H4Y 9873   3.371   4.999   3.000
   99SAPC   C35 9874   3.304   4.795   3.022
   99SAPC   H5X 9875   3.393   4.733   2.996
   99SAPC   H5Y 9876   3.220   4.731   2.989
   99SAPC   C36 9877   3.286   4.792   3.181
   99SAPC   H6X 9878   3.383   4.818   3.228
   99SAPC   H6Y 9879   3.247   4.691   3.209
   99SAPC   C37 9880   3.170   4.878   3.235
   99SAPC   H7X 9881   3.084   4.847   3.172
   99SAPC   H7Y 9882   3.187   4.987   3.218
   99SAPC   C38 9883   3.127   4.847   3.379
   99SAPC   H8X 9884   3.048   4.923   3.395
   99SAPC   H8Y 9885   3.211   4.858   3.451
   99SAPC   C39 9886   3.061   4.712   3.387
   99SAPC   H9X 9887   3.144   4.638   3.379
   99SAPC   H9Y 9888   2.987   4.694   3.306
   99SAPC  C310 9889   3.001   4.688   3.530
   99SAPC  H10X 9890   2.922   4.766   3.538
   99SAPC  H10Y 9891   3.069   4.704   3.616
   99SAPC  C311 9892   2.922   4.556   3.544
   99SAPC  H11X 9893   2.988   4.467   3.529
   99SAPC  H11Y 9894   2.842   4.560   3.467
   99SAPC  C312 9895   2.845   4.552   3.686
   99SAPC  H12X 9896   2.786   4.460   3.704
   99SAPC  H12Y 9897   2.777   4.639   3.703
   99SAPC  C313 9898   2.940   4.535   3.808
   99SAPC  H13X 9899   2.999   4.629   3.819
   99SAPC  H13Y 9900   3.014   4.456   3.784
   99SAPC  C314 9901   2.876   4.485   3.934
   99SAPC  H14X 9902   2.948   4.472   4.017
   99SAPC  H14Y 9903   2.836   4.385   3.909
   99SAPC  C315 9904   2.766   4.576   3.990
   99SAPC  H15X 9905   2.705   4.513   4.058
   99SAPC  H15Y 9906   2.697   4.618   3.913
   99SAPC  C316 9907   2.829   4.700   4.065
   99SAPC  H16X 9908   2.886   4.761   3.992
   99SAPC  H16Y 9909   2.903   4.671   4.143
   99SAPC  C317 9910   2.721   4.795   4.133
   99SAPC  H17X 9911   2.654   4.845   4.060
   99SAPC  H17Y 9912   2.769   4.882   4.182
   99SAPC  C318 9913   2.627   4.733   4.231
   99SAPC  H18X 9914   2.582   4.810   4.297
   99SAPC  H18Y 9915   2.675   4.664   4.304
   99SAPC  H18Z 9916   2.545   4.685   4.174
  100SAPC     N 9917   1.315   3.869   1.730
  100SAPC   C12 9918   1.374   3.885   1.873
  100SAPC  H12A 9919   1.426   3.979   1.881
  100SAPC  H12B 9920   1.436   3.800   1.899
  100SAPC   C13 9921   1.417   3.810   1.630
  100SAPC  H13A 9922   1.507   3.868   1.622
  100SAPC  H13B 9923   1.447   3.712   1.665
  100SAPC  H13C 9924   1.364   3.809   1.536
  100SAPC   C14 9925   1.204   3.775   1.736
  100SAPC  H14A 9926   1.229   3.681   1.784
  100SAPC  H14B 9927   1.116   3.808   1.790
  100SAPC  H14C 9928   1.165   3.752   1.638
  100SAPC   C15 9929   1.268   4.002   1.688
  100SAPC  H15A 9930   1.219   4.001   1.592
  100SAPC  H15B 9931   1.215   4.046   1.772
  100SAPC  H15C 9932   1.357   4.059   1.667
  100SAPC   C11 9933   1.271   3.882   1.993
  100SAPC  H11A 9934   1.328   3.893   2.088
  100SAPC  H11B 9935   1.228   3.780   1.990
  100SAPC     P 9936   1.165   4.121   2.046
  100SAPC   O13 9937   1.254   4.213   1.972
  100SAPC   O14 9938   1.022   4.153   2.060
  100SAPC   O12 9939   1.170   3.980   1.982
  100SAPC   O11 9940   1.236   4.092   2.186
  100SAPC    C1 9941   1.156   4.043   2.292
  100SAPC    HA 9942   1.100   4.125   2.341
  100SAPC    HB 9943   1.089   3.958   2.268
  100SAPC    C2 9944   1.257   4.008   2.409
  100SAPC    HS 9945   1.212   3.981   2.507
  100SAPC   O21 9946   1.337   4.122   2.436
  100SAPC   C21 9947   1.313   4.205   2.539
  100SAPC   O22 9948   1.215   4.202   2.611
  100SAPC   C22 9949   1.420   4.309   2.540
  100SAPC   H2R 9950   1.425   4.359   2.441
  100SAPC   H2S 9951   1.396   4.393   2.608
  100SAPC    C3 9952   1.342   3.877   2.380
  100SAPC    HX 9953   1.387   3.880   2.279
  100SAPC    HY 9954   1.266   3.798   2.361
  100SAPC   O31 9955   1.430   3.836   2.484
  100SAPC   C31 9956   1.556   3.828   2.448
  100SAPC   O32 9957   1.605   3.860   2.338
  100SAPC   C32 9958   1.638   3.770   2.561
  100SAPC   H2X 9959   1.746   3.771   2.535
  100SAPC   H2Y 9960   1.613   3.664   2.586
  100SAPC   C23 9961   1.568   4.262   2.579
  100SAPC   H3R 9962   1.643   4.330   2.533
  100SAPC   H3S 9963   1.589   4.160   2.541
  100SAPC   C24 9964   1.584   4.253   2.732
  100SAPC   H4R 9965   1.685   4.210   2.752
  100SAPC   H4S 9966   1.504   4.185   2.770
  100SAPC   C25 9967   1.586   4.383   2.812
  100SAPC   H5R 9968   1.607   4.472   2.751
  100SAPC   C26 9969   1.599   4.395   2.947
  100SAPC   H6R 9970   1.616   4.494   2.992
  100SAPC   C27 9971   1.606   4.278   3.047
  100SAPC   H7R 9972   1.648   4.188   2.998
  100SAPC   H7S 9973   1.500   4.254   3.069
  100SAPC   C28 9974   1.694   4.316   3.163
  100SAPC   H8R 9975   1.794   4.347   3.129
  100SAPC   C29 9976   1.672   4.298   3.296
  100SAPC   H9R 9977   1.756   4.314   3.365
  100SAPC  C210 9978   1.545   4.232   3.351
  100SAPC  H10R 9979   1.524   4.139   3.294
  100SAPC  H10S 9980   1.457   4.299   3.340
  100SAPC  C211 9981   1.564   4.199   3.498
  100SAPC  H11R 9982   1.600   4.096   3.511
  100SAPC  C212 9983   1.514   4.265   3.607
  100SAPC  H12R 9984   1.523   4.227   3.710
  100SAPC  C213 9985   1.448   4.400   3.603
  100SAPC  H13R 9986   1.486   4.448   3.511
  100SAPC  H13S 9987   1.491   4.458   3.686
  100SAPC  C214 9988   1.300   4.399   3.589
  100SAPC  H14R 9989   1.273   4.392   3.483
  100SAPC  C215 9990   1.201   4.394   3.676
  100SAPC  H15R 9991   1.099   4.391   3.636
  100SAPC  C216 9992   1.222   4.386   3.826
  100SAPC  H16R 9993   1.132   4.420   3.882
  100SAPC  H16S 9994   1.301   4.459   3.854
  100SAPC  C217 9995   1.253   4.241   3.871
  100SAPC  H17R 9996   1.356   4.228   3.830
  100SAPC  H17S 9997   1.190   4.159   3.829
  100SAPC  C218 9998   1.270   4.237   4.027
  100SAPC  H18R 9999   1.171   4.263   4.070
  100SAPC  H18S10000   1.344   4.311   4.066
  100SAPC  C21910001   1.310   4.101   4.082
  100SAPC  H19R10002   1.250   4.026   4.026
  100SAPC  H19S10003   1.277   4.094   4.188
  100SAPC  C22010004   1.459   4.061   4.062
  100SAPC  H20R10005   1.498   4.098   3.965
  100SAPC  H20S10006   1.479   3.953   4.074
  100SAPC  H20T10007   1.523   4.118   4.134
  100SAPC   C3310008   1.625   3.858   2.682
  100SAPC   H3X10009   1.523   3.858   2.726
  100SAPC   H3Y10010   1.655   3.962   2.657
  100SAPC   C3410011   1.714   3.807   2.792
  100SAPC   H4X10012   1.818   3.798   2.756
  100SAPC   H4Y10013   1.677   3.704   2.807
  100SAPC   C3510014   1.707   3.886   2.929
  100SAPC   H5X10015   1.700   3.995   2.910
  100SAPC   H5Y10016   1.800   3.858   2.982
  100SAPC   C3610017   1.589   3.843   3.014
  100SAPC   H6X10018   1.583   3.732   3.004
  100SAPC   H6Y10019   1.495   3.877   2.966
  100SAPC   C3710020   1.589   3.870   3.165
  100SAPC   H7X10021   1.495   3.844   3.217
  100SAPC   H7Y10022   1.601   3.978   3.185
  100SAPC   C3810023   1.710   3.791   3.227
  100SAPC   H8X10024   1.810   3.836   3.209
  100SAPC   H8Y10025   1.722   3.685   3.196
  100SAPC   C3910026   1.693   3.798   3.386
  100SAPC   H9X10027   1.603   3.741   3.418
  100SAPC   H9Y10028   1.666   3.904   3.407
  100SAPC  C31010029   1.815   3.765   3.471
  100SAPC  H10X10030   1.904   3.830   3.453
  100SAPC  H10Y10031   1.837   3.659   3.447
  100SAPC  C31110032   1.783   3.773   3.618
  100SAPC  H11X10033   1.874   3.741   3.672
  100SAPC  H11Y10034   1.705   3.700   3.648
  100SAPC  C31210035   1.754   3.915   3.672
  100SAPC  H12X10036   1.654   3.937   3.630
  100SAPC  H12Y10037   1.817   3.998   3.636
  100SAPC  C31310038   1.750   3.928   3.830
  100SAPC  H13X10039   1.673   3.854   3.861
  100SAPC  H13Y10040   1.712   4.027   3.865
  100SAPC  C31410041   1.881   3.887   3.900
  100SAPC  H14X10042   1.965   3.951   3.866
  100SAPC  H14Y10043   1.911   3.783   3.878
  100SAPC  C31510044   1.855   3.906   4.050
  100SAPC  H15X10045   1.764   3.853   4.087
  100SAPC  H15Y10046   1.839   4.014   4.072
  100SAPC  C31610047   1.972   3.861   4.134
  100SAPC  H16X10048   2.051   3.939   4.128
  100SAPC  H16Y10049   2.008   3.772   4.079
  100SAPC  C31710050   1.937   3.809   4.271
  100SAPC  H17X10051   1.887   3.710   4.270
  100SAPC  H17Y10052   1.875   3.892   4.313
  100SAPC  C31810053   2.061   3.785   4.357
  100SAPC  H18X10054   2.134   3.733   4.291
  100SAPC  H18Y10055   2.036   3.733   4.451
  100SAPC  H18Z10056   2.119   3.874   4.390
  101OSM      N10057   3.812   2.495   6.805
  101OSM    C1510058   3.876   2.628   6.787
  101OSM   H15A10059   3.839   2.709   6.847
  101OSM   H15B10060   3.860   2.663   6.686
  101OSM   H15C10061   3.982   2.608   6.796
  101OSM    C1410062   3.833   2.464   6.952
  101OSM   H14A10063   3.940   2.458   6.970
  101OSM   H14B10064   3.786   2.371   6.979
  101OSM   H14C10065   3.793   2.540   7.017
  101OSM    C1310066   3.662   2.509   6.786
  101OSM   H13A10067   3.607   2.420   6.813
  101OSM   H13B10068   3.647   2.546   6.685
  101OSM   H13C10069   3.621   2.585   6.850
  101OSM    C1210070   3.875   2.387   6.711
  101OSM   H12A10071   3.867   2.423   6.610
  101OSM   H12B10072   3.814   2.297   6.716
  101OSM    C1110073   4.021   2.335   6.740
  101OSM   H11A10074   4.046   2.237   6.696
  101OSM   H11B10075   4.021   2.301   6.846
  101OSM      P10076   4.165   2.460   6.571
  101OSM    O1310077   4.308   2.486   6.572
  101OSM    O1410078   4.131   2.351   6.481
  101OSM    O1110079   4.093   2.596   6.539
  101OSM    O1210080   4.124   2.427   6.719
  101OSM    C1S10081   4.136   2.661   6.418
  101OSM    H1S10082   4.242   2.641   6.394
  101OSM    H1T10083   4.115   2.768   6.440
  101OSM     NF10084   4.130   2.685   6.169
  101OSM    HNF10085   4.104   2.777   6.140
  101OSM    C2S10086   4.062   2.630   6.283
  101OSM    H2S10087   4.059   2.519   6.288
  101OSM    C3S10088   3.905   2.667   6.296
  101OSM    H3S10089   3.905   2.778   6.303
  101OSM     O310090   3.856   2.622   6.415
  101OSM    HO310091   3.929   2.608   6.476
  101OSM    C4S10092   3.805   2.624   6.187
  101OSM    H4S10093   3.774   2.519   6.190
  101OSM    C5S10094   3.739   2.711   6.115
  101OSM    H5S10095   3.750   2.819   6.136
  101OSM    C6S10096   3.638   2.678   6.009
  101OSM    H6S10097   3.617   2.569   6.009
  101OSM    H6T10098   3.678   2.715   5.912
  101OSM    C7S10099   3.500   2.745   6.020
  101OSM    H7S10100   3.523   2.846   6.061
  101OSM    H7T10101   3.435   2.694   6.094
  101OSM    C8S10102   3.429   2.745   5.880
  101OSM    H8S10103   3.319   2.759   5.872
  101OSM    H8T10104   3.451   2.645   5.836
  101OSM    C9S10105   3.478   2.859   5.791
  101OSM    H9S10106   3.585   2.882   5.809
  101OSM    H9T10107   3.414   2.945   5.820
  101OSM   C10S10108   3.445   2.835   5.636
  101OSM   H10S10109   3.474   2.932   5.590
  101OSM   H10T10110   3.336   2.814   5.626
  101OSM   C11S10111   3.516   2.707   5.585
  101OSM   H11S10112   3.464   2.621   5.631
  101OSM   H11T10113   3.625   2.701   5.607
  101OSM   C12S10114   3.485   2.686   5.438
  101OSM   H12S10115   3.378   2.689   5.409
  101OSM   H12T10116   3.512   2.583   5.406
  101OSM   C13S10117   3.579   2.776   5.348
  101OSM   H13S10118   3.682   2.733   5.342
  101OSM   H13T10119   3.586   2.878   5.391
  101OSM   C14S10120   3.524   2.798   5.204
  101OSM   H14S10121   3.568   2.891   5.162
  101OSM   H14T10122   3.416   2.824   5.208
  101OSM   C15S10123   3.550   2.683   5.106
  101OSM   H15S10124   3.545   2.583   5.154
  101OSM   H15T10125   3.658   2.698   5.085
  101OSM   C16S10126   3.452   2.678   4.989
  101OSM   H16S10127   3.359   2.633   5.029
  101OSM   H16T10128   3.492   2.601   4.920
  101OSM   C17S10129   3.423   2.811   4.918
  101OSM   H17S10130   3.519   2.860   4.892
  101OSM   H17T10131   3.367   2.876   4.989
  101OSM   C18S10132   3.337   2.800   4.791
  101OSM   H18S10133   3.327   2.899   4.741
  101OSM   H18T10134   3.242   2.748   4.816
  101OSM   H18U10135   3.381   2.734   4.714
  101OSM    C1F10136   4.239   2.631   6.108
  101OSM     OF10137   4.284   2.519   6.131
  101OSM    C2F10138   4.310   2.734   6.027
  101OSM    H2F10139   4.418   2.729   6.054
  101OSM    H2G10140   4.279   2.837   6.054
  101OSM    C3F10141   4.295   2.701   5.879
  101OSM    H3F10142   4.191   2.701   5.840
  101OSM    H3G10143   4.342   2.603   5.854
  101OSM    C4F10144   4.363   2.797   5.788
  101OSM    H4F10145   4.472   2.778   5.795
  101OSM    H4G10146   4.367   2.907   5.804
  101OSM    C5F10147   4.319   2.784   5.645
  101OSM    H5F10148   4.222   2.836   5.629
  101OSM    H5G10149   4.318   2.675   5.624
  101OSM    C6F10150   4.411   2.847   5.544
  101OSM    H6F10151   4.509   2.795   5.539
  101OSM    H6G10152   4.425   2.951   5.579
  101OSM    C7F10153   4.353   2.860   5.405
  101OSM    H7F10154   4.254   2.909   5.407
  101OSM    H7G10155   4.327   2.756   5.375
  101OSM    C8F10156   4.452   2.922   5.312
  101OSM    H8F10157   4.414   2.885   5.214
  101OSM    H8G10158   4.556   2.883   5.321
  101OSM    C9F10159   4.482   3.067   5.327
  101OSM    H9F10160   4.526   3.090   5.425
  101OSM   C10F10161   4.463   3.169   5.244
  101OSM   H10F10162   4.496   3.270   5.271
  101OSM   C11F10163   4.389   3.144   5.111
  101OSM   H11F10164   4.315   3.222   5.083
  101OSM   H11G10165   4.334   3.048   5.112
  101OSM   C12F10166   4.478   3.134   4.987
  101OSM   H12F10167   4.550   3.053   5.010
  101OSM   H12G10168   4.546   3.216   4.959
  101OSM   C13F10169   4.395   3.115   4.844
  101OSM   H13F10170   4.324   3.196   4.818
  101OSM   H13G10171   4.347   3.015   4.854
  101OSM   C14F10172   4.503   3.105   4.733
  101OSM   H14F10173   4.537   3.001   4.720
  101OSM   H14G10174   4.591   3.170   4.752
  101OSM   C15F10175   4.446   3.153   4.596
  101OSM   H15F10176   4.431   3.263   4.595
  101OSM   H15G10177   4.347   3.107   4.580
  101OSM   C16F10178   4.536   3.112   4.476
  101OSM   H16F10179   4.556   3.004   4.462
  101OSM   H16G10180   4.635   3.159   4.494
  101OSM   C17F10181   4.475   3.171   4.347
  101OSM   H17F10182   4.491   3.280   4.355
  101OSM   H17G10183   4.365   3.172   4.359
  101OSM   C18F10184   4.541   3.114   4.224
  101OSM   H18F10185   4.490   3.019   4.197
  101OSM   H18G10186   4.649   3.104   4.246
  101OSM   H18H10187   4.538   3.194   4.147
  102OSM      N10188   4.479   2.238   6.835
  102OSM    C1510189   4.606   2.171   6.797
  102OSM   H15A10190   4.625   2.181   6.691
  102OSM   H15B10191   4.587   2.067   6.816
  102OSM   H15C10192   4.694   2.208   6.849
  102OSM    C1410193   4.469   2.224   6.985
  102OSM   H14A10194   4.493   2.120   7.003
  102OSM   H14B10195   4.380   2.262   7.031
  102OSM   H14C10196   4.554   2.272   7.033
  102OSM    C1310197   4.503   2.385   6.801
  102OSM   H13A10198   4.413   2.442   6.818
  102OSM   H13B10199   4.540   2.402   6.700
  102OSM   H13C10200   4.582   2.427   6.862
  102OSM    C1210201   4.351   2.194   6.759
  102OSM   H12A10202   4.381   2.190   6.655
  102OSM   H12B10203   4.268   2.260   6.776
  102OSM    C1110204   4.290   2.058   6.802
  102OSM   H11A10205   4.192   2.057   6.751
  102OSM   H11B10206   4.264   2.066   6.910
  102OSM      P10207   4.311   1.814   6.752
  102OSM    O1310208   4.417   1.712   6.744
  102OSM    O1410209   4.200   1.790   6.851
  102OSM    O1110210   4.257   1.848   6.604
  102OSM    O1210211   4.385   1.946   6.790
  102OSM    C1S10212   4.343   1.908   6.505
  102OSM    H1S10213   4.430   1.842   6.485
  102OSM    H1T10214   4.383   2.003   6.544
  102OSM     NF10215   4.357   2.003   6.268
  102OSM    HNF10216   4.360   2.103   6.267
  102OSM    C2S10217   4.272   1.938   6.370
  102OSM    H2S10218   4.239   1.843   6.322
  102OSM    C3S10219   4.132   2.014   6.392
  102OSM    H3S10220   4.135   2.112   6.444
  102OSM     O310221   4.039   1.942   6.466
  102OSM    HO310222   4.098   1.880   6.509
  102OSM    C4S10223   4.080   2.039   6.255
  102OSM    H4S10224   4.062   1.944   6.203
  102OSM    C5S10225   4.050   2.157   6.202
  102OSM    H5S10226   4.057   2.245   6.268
  102OSM    C6S10227   3.987   2.171   6.065
  102OSM    H6S10228   3.877   2.153   6.069
  102OSM    H6T10229   4.033   2.101   5.991
  102OSM    C7S10230   4.006   2.316   6.019
  102OSM    H7S10231   4.113   2.347   6.019
  102OSM    H7T10232   3.961   2.390   6.089
  102OSM    C8S10233   3.955   2.339   5.875
  102OSM    H8S10234   3.852   2.302   5.859
  102OSM    H8T10235   4.015   2.277   5.805
  102OSM    C9S10236   3.950   2.492   5.841
  102OSM    H9S10237   4.050   2.539   5.838
  102OSM    H9T10238   3.904   2.539   5.930
  102OSM   C10S10239   3.881   2.520   5.716
  102OSM   H10S10240   3.880   2.631   5.707
  102OSM   H10T10241   3.774   2.492   5.708
  102OSM   C11S10242   3.972   2.493   5.590
  102OSM   H11S10243   3.978   2.385   5.569
  102OSM   H11T10244   4.074   2.526   5.621
  102OSM   C12S10245   3.940   2.570   5.457
  102OSM   H12S10246   3.933   2.678   5.479
  102OSM   H12T10247   3.841   2.525   5.434
  102OSM   C13S10248   4.023   2.544   5.337
  102OSM   H13S10249   4.029   2.433   5.335
  102OSM   H13T10250   4.127   2.583   5.347
  102OSM   C14S10251   3.971   2.610   5.206
  102OSM   H14S10252   3.953   2.719   5.222
  102OSM   H14T10253   3.874   2.562   5.182
  102OSM   C15S10254   4.071   2.588   5.087
  102OSM   H15S10255   4.025   2.547   4.995
  102OSM   H15T10256   4.152   2.516   5.114
  102OSM   C16S10257   4.137   2.716   5.033
  102OSM   H16S10258   4.177   2.776   5.118
  102OSM   H16T10259   4.059   2.775   4.982
  102OSM   C17S10260   4.252   2.691   4.921
  102OSM   H17S10261   4.278   2.783   4.865
  102OSM   H17T10262   4.215   2.612   4.853
  102OSM   C18S10263   4.375   2.636   4.988
  102OSM   H18S10264   4.351   2.542   5.042
  102OSM   H18T10265   4.413   2.709   5.062
  102OSM   H18U10266   4.459   2.611   4.919
  102OSM    C1F10267   4.457   1.928   6.221
  102OSM     OF10268   4.467   1.807   6.231
  102OSM    C2F10269   4.578   2.008   6.176
  102OSM    H2F10270   4.670   1.969   6.225
  102OSM    H2G10271   4.557   2.108   6.219
  102OSM    C3F10272   4.606   2.001   6.024
  102OSM    H3F10273   4.652   1.905   5.991
  102OSM    H3G10274   4.686   2.074   5.999
  102OSM    C4F10275   4.486   2.032   5.930
  102OSM    H4F10276   4.444   2.133   5.948
  102OSM    H4G10277   4.402   1.962   5.949
  102OSM    C5F10278   4.524   2.021   5.784
  102OSM    H5F10279   4.527   1.914   5.754
  102OSM    H5G10280   4.625   2.063   5.762
  102OSM    C6F10281   4.422   2.083   5.686
  102OSM    H6F10282   4.328   2.039   5.726
  102OSM    H6G10283   4.448   2.037   5.589
  102OSM    C7F10284   4.422   2.235   5.685
  102OSM    H7F10285   4.528   2.258   5.661
  102OSM    H7G10286   4.399   2.265   5.790
  102OSM    C8F10287   4.323   2.304   5.584
  102OSM    H8F10288   4.312   2.413   5.604
  102OSM    H8G10289   4.224   2.258   5.603
  102OSM    C9F10290   4.344   2.273   5.434
  102OSM    H9F10291   4.282   2.190   5.398
  102OSM   C10F10292   4.414   2.355   5.351
  102OSM   H10F10293   4.424   2.319   5.248
  102OSM   C11F10294   4.482   2.482   5.392
  102OSM   H11F10295   4.532   2.457   5.489
  102OSM   H11G10296   4.425   2.573   5.421
  102OSM   C12F10297   4.595   2.526   5.287
  102OSM   H12F10298   4.649   2.613   5.328
  102OSM   H12G10299   4.536   2.562   5.200
  102OSM   C13F10300   4.707   2.424   5.268
  102OSM   H13F10301   4.676   2.317   5.265
  102OSM   H13G10302   4.776   2.435   5.355
  102OSM   C14F10303   4.784   2.444   5.139
  102OSM   H14F10304   4.886   2.402   5.145
  102OSM   H14G10305   4.805   2.550   5.116
  102OSM   C15F10306   4.720   2.383   5.012
  102OSM   H15F10307   4.610   2.395   5.023
  102OSM   H15G10308   4.742   2.274   5.012
  102OSM   C16F10309   4.768   2.444   4.881
  102OSM   H16F10310   4.733   2.549   4.885
  102OSM   H16G10311   4.723   2.389   4.796
  102OSM   C17F10312   4.921   2.438   4.868
  102OSM   H17F10313   4.963   2.502   4.948
  102OSM   H17G10314   4.949   2.490   4.774
  102OSM   C18F10315   4.988   2.296   4.861
  102OSM   H18F10316   4.954   2.239   4.951
  102OSM   H18G10317   5.099   2.306   4.860
  102OSM   H18H10318   4.953   2.237   4.774
  103OSM      N10319   3.456   4.531   6.578
  103OSM    C1510320   3.376   4.421   6.499
  103OSM   H15A10321   3.318   4.371   6.575
  103OSM   H15B10322   3.444   4.349   6.455
  103OSM   H15C10323   3.312   4.472   6.428
  103OSM    C1410324   3.368   4.638   6.634
  103OSM   H14A10325   3.295   4.604   6.705
  103OSM   H14B10326   3.316   4.682   6.550
  103OSM   H14C10327   3.430   4.715   6.679
  103OSM    C1310328   3.512   4.466   6.699
  103OSM   H13A10329   3.575   4.380   6.681
  103OSM   H13B10330   3.436   4.421   6.761
  103OSM   H13C10331   3.570   4.538   6.755
  103OSM    C1210332   3.559   4.591   6.479
  103OSM   H12A10333   3.624   4.666   6.520
  103OSM   H12B10334   3.492   4.635   6.406
  103OSM    C1110335   3.655   4.491   6.413
  103OSM   H11A10336   3.717   4.538   6.334
  103OSM   H11B10337   3.594   4.411   6.365
  103OSM      P10338   3.880   4.498   6.548
  103OSM    O1310339   3.855   4.634   6.584
  103OSM    O1410340   3.949   4.419   6.651
  103OSM    O1110341   3.965   4.494   6.413
  103OSM    O1210342   3.740   4.434   6.511
  103OSM    C1S10343   3.988   4.377   6.341
  103OSM    H1S10344   3.897   4.313   6.344
  103OSM    H1T10345   4.057   4.312   6.400
  103OSM     NF10346   4.044   4.280   6.116
  103OSM    HNF10347   4.129   4.243   6.079
  103OSM    C2S10348   4.046   4.402   6.203
  103OSM    H2S10349   3.977   4.470   6.148
  103OSM    C3S10350   4.177   4.479   6.201
  103OSM    H3S10351   4.249   4.424   6.265
  103OSM     O310352   4.183   4.600   6.273
  103OSM    HO310353   4.102   4.612   6.323
  103OSM    C4S10354   4.239   4.497   6.070
  103OSM    H4S10355   4.322   4.425   6.064
  103OSM    C5S10356   4.206   4.580   5.966
  103OSM    H5S10357   4.105   4.623   5.969
  103OSM    C6S10358   4.284   4.583   5.833
  103OSM    H6S10359   4.392   4.611   5.837
  103OSM    H6T10360   4.237   4.666   5.777
  103OSM    C7S10361   4.269   4.453   5.748
  103OSM    H7S10362   4.162   4.427   5.729
  103OSM    H7T10363   4.313   4.364   5.798
  103OSM    C8S10364   4.333   4.454   5.610
  103OSM    H8S10365   4.270   4.517   5.545
  103OSM    H8T10366   4.338   4.353   5.563
  103OSM    C9S10367   4.481   4.507   5.623
  103OSM    H9S10368   4.532   4.457   5.708
  103OSM    H9T10369   4.474   4.615   5.648
  103OSM   C10S10370   4.575   4.482   5.505
  103OSM   H10S10371   4.565   4.373   5.486
  103OSM   H10T10372   4.677   4.516   5.532
  103OSM   C11S10373   4.536   4.561   5.380
  103OSM   H11S10374   4.574   4.665   5.376
  103OSM   H11T10375   4.425   4.568   5.375
  103OSM   C12S10376   4.576   4.499   5.251
  103OSM   H12S10377   4.574   4.388   5.263
  103OSM   H12T10378   4.684   4.524   5.237
  103OSM   C13S10379   4.505   4.556   5.127
  103OSM   H13S10380   4.516   4.666   5.126
  103OSM   H13T10381   4.396   4.537   5.143
  103OSM   C14S10382   4.527   4.488   5.001
  103OSM   H14S10383   4.501   4.383   5.024
  103OSM   H14T10384   4.637   4.500   4.986
  103OSM   C15S10385   4.464   4.558   4.876
  103OSM   H15S10386   4.517   4.652   4.849
  103OSM   H15T10387   4.365   4.579   4.920
  103OSM   C16S10388   4.466   4.478   4.749
  103OSM   H16S10389   4.575   4.477   4.728
  103OSM   H16T10390   4.417   4.529   4.663
  103OSM   C17S10391   4.389   4.345   4.757
  103OSM   H17S10392   4.445   4.279   4.826
  103OSM   H17T10393   4.391   4.285   4.664
  103OSM   C18S10394   4.240   4.349   4.798
  103OSM   H18S10395   4.237   4.377   4.906
  103OSM   H18T10396   4.189   4.250   4.790
  103OSM   H18U10397   4.179   4.423   4.741
  103OSM    C1F10398   3.931   4.211   6.087
  103OSM     OF10399   3.822   4.262   6.108
  103OSM    C2F10400   3.946   4.077   6.027
  103OSM    H2F10401   3.913   3.999   6.099
  103OSM    H2G10402   4.051   4.059   5.996
  103OSM    C3F10403   3.871   4.061   5.896
  103OSM    H3F10404   3.765   4.086   5.916
  103OSM    H3G10405   3.864   3.953   5.871
  103OSM    C4F10406   3.928   4.136   5.772
  103OSM    H4F10407   3.933   4.059   5.692
  103OSM    H4G10408   4.037   4.139   5.792
  103OSM    C5F10409   3.872   4.264   5.735
  103OSM    H5F10410   3.895   4.342   5.811
  103OSM    H5G10411   3.762   4.264   5.720
  103OSM    C6F10412   3.941   4.316   5.603
  103OSM    H6F10413   4.043   4.272   5.616
  103OSM    H6G10414   3.934   4.427   5.606
  103OSM    C7F10415   3.868   4.267   5.476
  103OSM    H7F10416   3.770   4.317   5.461
  103OSM    H7G10417   3.841   4.160   5.483
  103OSM    C8F10418   3.946   4.291   5.347
  103OSM    H8F10419   3.875   4.272   5.264
  103OSM    H8G10420   4.023   4.211   5.353
  103OSM    C9F10421   4.016   4.423   5.336
  103OSM    H9F10422   4.087   4.448   5.416
  103OSM   C10F10423   3.995   4.519   5.243
  103OSM   H10F10424   4.050   4.614   5.249
  103OSM   C11F10425   3.894   4.521   5.131
  103OSM   H11F10426   3.890   4.624   5.091
  103OSM   H11G10427   3.793   4.488   5.165
  103OSM   C12F10428   3.934   4.435   5.011
  103OSM   H12F10429   3.959   4.328   5.027
  103OSM   H12G10430   4.034   4.478   4.991
  103OSM   C13F10431   3.831   4.438   4.898
  103OSM   H13F10432   3.729   4.414   4.937
  103OSM   H13G10433   3.845   4.351   4.830
  103OSM   C14F10434   3.841   4.561   4.805
  103OSM   H14F10435   3.946   4.572   4.768
  103OSM   H14G10436   3.808   4.646   4.869
  103OSM   C15F10437   3.746   4.555   4.685
  103OSM   H15F10438   3.647   4.557   4.735
  103OSM   H15G10439   3.766   4.460   4.630
  103OSM   C16F10440   3.751   4.681   4.598
  103OSM   H16F10441   3.858   4.709   4.584
  103OSM   H16G10442   3.705   4.767   4.652
  103OSM   C17F10443   3.691   4.668   4.458
  103OSM   H17F10444   3.743   4.596   4.392
  103OSM   H17G10445   3.712   4.758   4.396
  103OSM   C18F10446   3.545   4.652   4.460
  103OSM   H18F10447   3.516   4.563   4.519
  103OSM   H18G10448   3.505   4.636   4.357
  103OSM   H18H10449   3.487   4.734   4.506
  104OSM      N10450   5.674   3.363   7.263
  104OSM    C1510451   5.590   3.486   7.292
  104OSM   H15A10452   5.545   3.522   7.200
  104OSM   H15B10453   5.647   3.565   7.339
  104OSM   H15C10454   5.515   3.469   7.368
  104OSM    C1410455   5.761   3.380   7.146
  104OSM   H14A10456   5.724   3.426   7.055
  104OSM   H14B10457   5.796   3.281   7.122
  104OSM   H14C10458   5.840   3.447   7.178
  104OSM    C1310459   5.759   3.337   7.389
  104OSM   H13A10460   5.704   3.332   7.481
  104OSM   H13B10461   5.817   3.427   7.406
  104OSM   H13C10462   5.815   3.245   7.380
  104OSM    C1210463   5.577   3.246   7.243
  104OSM   H12A10464   5.528   3.225   7.337
  104OSM   H12B10465   5.638   3.157   7.235
  104OSM    C1110466   5.476   3.252   7.122
  104OSM   H11A10467   5.530   3.304   7.041
  104OSM   H11B10468   5.388   3.317   7.142
  104OSM      P10469   5.525   3.001   7.042
  104OSM    O1310470   5.648   3.029   6.970
  104OSM    O1410471   5.545   2.935   7.171
  104OSM    O1110472   5.436   2.908   6.949
  104OSM    O1210473   5.427   3.124   7.074
  104OSM    C1S10474   5.338   2.951   6.860
  104OSM    H1S10475   5.325   3.061   6.860
  104OSM    H1T10476   5.242   2.901   6.885
  104OSM     NF10477   5.302   2.968   6.615
  104OSM    HNF10478   5.262   2.910   6.545
  104OSM    C2S10479   5.386   2.906   6.719
  104OSM    H2S10480   5.482   2.958   6.695
  104OSM    C3S10481   5.418   2.756   6.691
  104OSM    H3S10482   5.326   2.695   6.702
  104OSM     O310483   5.497   2.697   6.788
  104OSM    HO310484   5.501   2.768   6.853
  104OSM    C4S10485   5.481   2.741   6.552
  104OSM    H4S10486   5.403   2.744   6.474
  104OSM    C5S10487   5.608   2.704   6.521
  104OSM    H5S10488   5.680   2.670   6.598
  104OSM    C6S10489   5.664   2.675   6.383
  104OSM    H6S10490   5.697   2.569   6.385
  104OSM    H6T10491   5.758   2.723   6.347
  104OSM    C7S10492   5.561   2.704   6.269
  104OSM    H7S10493   5.522   2.808   6.263
  104OSM    H7T10494   5.470   2.642   6.280
  104OSM    C8S10495   5.611   2.673   6.121
  104OSM    H8S10496   5.673   2.754   6.076
  104OSM    H8T10497   5.531   2.665   6.045
  104OSM    C9S10498   5.704   2.553   6.112
  104OSM    H9S10499   5.642   2.465   6.140
  104OSM    H9T10500   5.790   2.565   6.182
  104OSM   C10S10501   5.748   2.525   5.970
  104OSM   H10S10502   5.787   2.615   5.919
  104OSM   H10T10503   5.667   2.475   5.913
  104OSM   C11S10504   5.876   2.426   5.964
  104OSM   H11S10505   5.851   2.345   6.035
  104OSM   H11T10506   5.969   2.483   5.986
  104OSM   C12S10507   5.897   2.361   5.833
  104OSM   H12S10508   5.814   2.291   5.809
  104OSM   H12T10509   5.990   2.300   5.833
  104OSM   C13S10510   5.919   2.467   5.720
  104OSM   H13S10511   6.022   2.508   5.722
  104OSM   H13T10512   5.862   2.559   5.741
  104OSM   C14S10513   5.881   2.422   5.584
  104OSM   H14S10514   5.776   2.384   5.587
  104OSM   H14T10515   5.955   2.342   5.560
  104OSM   C15S10516   5.881   2.536   5.471
  104OSM   H15S10517   5.985   2.576   5.468
  104OSM   H15T10518   5.833   2.626   5.515
  104OSM   C16S10519   5.822   2.490   5.342
  104OSM   H16S10520   5.712   2.494   5.351
  104OSM   H16T10521   5.863   2.389   5.322
  104OSM   C17S10522   5.860   2.573   5.212
  104OSM   H17S10523   5.803   2.526   5.128
  104OSM   H17T10524   5.969   2.566   5.195
  104OSM   C18S10525   5.819   2.721   5.226
  104OSM   H18S10526   5.906   2.779   5.265
  104OSM   H18T10527   5.736   2.726   5.300
  104OSM   H18U10528   5.781   2.767   5.133
  104OSM    C1F10529   5.283   3.103   6.607
  104OSM     OF10530   5.345   3.186   6.670
  104OSM    C2F10531   5.171   3.140   6.525
  104OSM    H2F10532   5.130   3.233   6.569
  104OSM    H2G10533   5.084   3.072   6.528
  104OSM    C3F10534   5.215   3.167   6.379
  104OSM    H3F10535   5.308   3.116   6.346
  104OSM    H3G10536   5.241   3.273   6.361
  104OSM    C4F10537   5.106   3.132   6.282
  104OSM    H4F10538   5.011   3.182   6.310
  104OSM    H4G10539   5.079   3.025   6.296
  104OSM    C5F10540   5.132   3.168   6.140
  104OSM    H5F10541   5.214   3.101   6.107
  104OSM    H5G10542   5.171   3.271   6.126
  104OSM    C6F10543   5.012   3.160   6.037
  104OSM    H6F10544   4.933   3.237   6.050
  104OSM    H6G10545   4.966   3.059   6.040
  104OSM    C7F10546   5.062   3.183   5.893
  104OSM    H7F10547   5.161   3.134   5.890
  104OSM    H7G10548   5.091   3.289   5.883
  104OSM    C8F10549   4.982   3.127   5.767
  104OSM    H8F10550   4.891   3.189   5.754
  104OSM    H8G10551   4.947   3.026   5.797
  104OSM    C9F10552   5.061   3.120   5.639
  104OSM    H9F10553   5.149   3.054   5.639
  104OSM   C10F10554   5.028   3.174   5.520
  104OSM   H10F10555   5.100   3.161   5.438
  104OSM   C11F10556   4.900   3.253   5.500
  104OSM   H11F10557   4.876   3.322   5.584
  104OSM   H11G10558   4.818   3.181   5.478
  104OSM   C12F10559   4.914   3.335   5.367
  104OSM   H12F10560   4.931   3.262   5.284
  104OSM   H12G10561   4.995   3.408   5.388
  104OSM   C13F10562   4.786   3.422   5.339
  104OSM   H13F10563   4.780   3.500   5.417
  104OSM   H13G10564   4.698   3.355   5.350
  104OSM   C14F10565   4.783   3.471   5.187
  104OSM   H14F10566   4.682   3.518   5.185
  104OSM   H14G10567   4.788   3.382   5.120
  104OSM   C15F10568   4.893   3.570   5.154
  104OSM   H15F10569   4.994   3.522   5.150
  104OSM   H15G10570   4.891   3.644   5.236
  104OSM   C16F10571   4.852   3.641   5.021
  104OSM   H16F10572   4.770   3.710   5.050
  104OSM   H16G10573   4.816   3.571   4.943
  104OSM   C17F10574   4.970   3.720   4.973
  104OSM   H17F10575   4.957   3.753   4.867
  104OSM   H17G10576   5.057   3.651   4.980
  104OSM   C18F10577   4.984   3.844   5.063
  104OSM   H18F10578   4.985   3.821   5.171
  104OSM   H18G10579   4.898   3.911   5.043
  104OSM   H18H10580   5.080   3.892   5.034
  105OSM      N10581   5.352   3.518   6.672
  105OSM    C1510582   5.385   3.453   6.547
  105OSM   H15A10583   5.488   3.473   6.520
  105OSM   H15B10584   5.328   3.496   6.465
  105OSM   H15C10585   5.374   3.346   6.546
  105OSM    C1410586   5.239   3.451   6.737
  105OSM   H14A10587   5.206   3.495   6.830
  105OSM   H14B10588   5.272   3.350   6.751
  105OSM   H14C10589   5.146   3.447   6.681
  105OSM    C1310590   5.463   3.492   6.767
  105OSM   H13A10591   5.486   3.387   6.755
  105OSM   H13B10592   5.432   3.506   6.869
  105OSM   H13C10593   5.548   3.554   6.741
  105OSM    C1210594   5.333   3.670   6.657
  105OSM   H12A10595   5.296   3.711   6.750
  105OSM   H12B10596   5.264   3.679   6.574
  105OSM    C1110597   5.453   3.761   6.619
  105OSM   H11A10598   5.411   3.861   6.598
  105OSM   H11B10599   5.506   3.726   6.528
  105OSM      P10600   5.650   3.886   6.755
  105OSM    O1310601   5.577   4.001   6.816
  105OSM    O1410602   5.760   3.840   6.844
  105OSM    O1110603   5.698   3.917   6.607
  105OSM    O1210604   5.550   3.771   6.722
  105OSM    C1S10605   5.783   3.811   6.539
  105OSM    H1S10606   5.744   3.710   6.563
  105OSM    H1T10607   5.885   3.804   6.584
  105OSM     NF10608   5.867   3.734   6.323
  105OSM    HNF10609   5.957   3.769   6.295
  105OSM    C2S10610   5.780   3.837   6.382
  105OSM    H2S10611   5.681   3.830   6.332
  105OSM    C3S10612   5.835   3.984   6.355
  105OSM    H3S10613   5.939   3.991   6.395
  105OSM     O310614   5.761   4.084   6.426
  105OSM    HO310615   5.709   4.032   6.488
  105OSM    C4S10616   5.845   4.007   6.208
  105OSM    H4S10617   5.949   4.008   6.176
  105OSM    C5S10618   5.754   4.036   6.121
  105OSM    H5S10619   5.648   4.039   6.150
  105OSM    C6S10620   5.792   4.057   5.972
  105OSM    H6S10621   5.790   4.167   5.953
  105OSM    H6T10622   5.709   4.025   5.906
  105OSM    C7S10623   5.936   4.019   5.921
  105OSM    H7S10624   5.934   3.909   5.936
  105OSM    H7T10625   6.021   4.058   5.982
  105OSM    C8S10626   5.975   4.055   5.779
  105OSM    H8S10627   6.075   4.015   5.753
  105OSM    H8T10628   5.969   4.164   5.763
  105OSM    C9S10629   5.882   3.990   5.672
  105OSM    H9S10630   5.777   4.014   5.700
  105OSM    H9T10631   5.873   3.880   5.677
  105OSM   C10S10632   5.908   4.032   5.529
  105OSM   H10S10633   6.014   4.015   5.500
  105OSM   H10T10634   5.881   4.139   5.522
  105OSM   C11S10635   5.826   3.955   5.423
  105OSM   H11S10636   5.735   4.013   5.398
  105OSM   H11T10637   5.798   3.856   5.464
  105OSM   C12S10638   5.901   3.932   5.293
  105OSM   H12S10639   5.848   3.865   5.222
  105OSM   H12T10640   5.992   3.876   5.323
  105OSM   C13S10641   5.925   4.061   5.210
  105OSM   H13S10642   6.004   4.032   5.138
  105OSM   H13T10643   5.952   4.149   5.272
  105OSM   C14S10644   5.794   4.116   5.150
  105OSM   H14S10645   5.731   4.155   5.232
  105OSM   H14T10646   5.743   4.034   5.095
  105OSM   C15S10647   5.827   4.229   5.051
  105OSM   H15S10648   5.894   4.305   5.098
  105OSM   H15T10649   5.732   4.278   5.023
  105OSM   C16S10650   5.905   4.196   4.924
  105OSM   H16S10651   5.998   4.143   4.952
  105OSM   H16T10652   5.939   4.291   4.877
  105OSM   C17S10653   5.831   4.116   4.822
  105OSM   H17S10654   5.735   4.164   4.792
  105OSM   H17T10655   5.801   4.020   4.869
  105OSM   C18S10656   5.907   4.068   4.690
  105OSM   H18S10657   6.001   4.015   4.716
  105OSM   H18T10658   5.944   4.159   4.637
  105OSM   H18U10659   5.839   4.002   4.632
  105OSM    C1F10660   5.825   3.608   6.300
  105OSM     OF10661   5.712   3.574   6.333
  105OSM    C2F10662   5.919   3.514   6.235
  105OSM    H2F10663   6.020   3.560   6.232
  105OSM    H2G10664   5.903   3.494   6.126
  105OSM    C3F10665   5.924   3.372   6.305
  105OSM    H3F10666   5.822   3.336   6.280
  105OSM    H3G10667   5.922   3.390   6.415
  105OSM    C4F10668   6.031   3.278   6.251
  105OSM    H4F10669   6.044   3.185   6.310
  105OSM    H4G10670   6.123   3.336   6.274
  105OSM    C5F10671   6.022   3.241   6.101
  105OSM    H5F10672   5.916   3.249   6.070
  105OSM    H5G10673   6.041   3.132   6.090
  105OSM    C6F10674   6.120   3.318   6.010
  105OSM    H6F10675   6.223   3.301   6.048
  105OSM    H6G10676   6.101   3.427   6.011
  105OSM    C7F10677   6.130   3.273   5.866
  105OSM    H7F10678   6.027   3.298   5.832
  105OSM    H7G10679   6.160   3.167   5.857
  105OSM    C8F10680   6.215   3.370   5.777
  105OSM    H8F10681   6.305   3.401   5.833
  105OSM    H8G10682   6.153   3.462   5.764
  105OSM    C9F10683   6.249   3.312   5.643
  105OSM    H9F10684   6.333   3.242   5.630
  105OSM   C10F10685   6.173   3.326   5.536
  105OSM   H10F10686   6.217   3.267   5.455
  105OSM   C11F10687   6.039   3.396   5.514
  105OSM   H11F10688   5.985   3.437   5.602
  105OSM   H11G10689   5.969   3.318   5.478
  105OSM   C12F10690   6.051   3.522   5.426
  105OSM   H12F10691   6.140   3.585   5.445
  105OSM   H12G10692   5.969   3.590   5.458
  105OSM   C13F10693   6.052   3.484   5.275
  105OSM   H13F10694   5.986   3.395   5.263
  105OSM   H13G10695   6.157   3.460   5.247
  105OSM   C14F10696   5.991   3.591   5.184
  105OSM   H14F10697   6.044   3.687   5.201
  105OSM   H14G10698   5.887   3.600   5.223
  105OSM   C15F10699   6.006   3.550   5.033
  105OSM   H15F10700   5.959   3.450   5.024
  105OSM   H15G10701   6.112   3.543   5.002
  105OSM   C16F10702   5.950   3.646   4.932
  105OSM   H16F10703   6.003   3.743   4.936
  105OSM   H16G10704   5.847   3.673   4.966
  105OSM   C17F10705   5.944   3.594   4.788
  105OSM   H17F10706   5.918   3.486   4.788
  105OSM   H17G10707   6.044   3.591   4.738
  105OSM   C18F10708   5.852   3.675   4.690
  105OSM   H18F10709   5.746   3.655   4.716
  105OSM   H18G10710   5.870   3.648   4.584
  105OSM   H18H10711   5.872   3.783   4.708
  106OSM      N10712   4.099   1.347   6.862
  106OSM    C1510713   4.239   1.338   6.921
  106OSM   H15A10714   4.303   1.416   6.883
  106OSM   H15B10715   4.288   1.243   6.907
  106OSM   H15C10716   4.225   1.339   7.028
  106OSM    C1410717   4.015   1.241   6.922
  106OSM   H14A10718   4.003   1.236   7.029
  106OSM   H14B10719   4.058   1.144   6.903
  106OSM   H14C10720   3.913   1.254   6.889
  106OSM    C1310721   4.038   1.479   6.891
  106OSM   H13A10722   4.016   1.493   6.996
  106OSM   H13B10723   3.946   1.488   6.835
  106OSM   H13C10724   4.102   1.554   6.847
  106OSM    C1210725   4.104   1.327   6.712
  106OSM   H12A10726   4.007   1.347   6.669
  106OSM   H12B10727   4.136   1.226   6.692
  106OSM    C1110728   4.211   1.414   6.644
  106OSM   H11A10729   4.228   1.512   6.695
  106OSM   H11B10730   4.175   1.445   6.544
  106OSM      P10731   4.359   1.234   6.535
  106OSM    O1310732   4.497   1.175   6.551
  106OSM    O1410733   4.251   1.131   6.545
  106OSM    O1110734   4.343   1.301   6.390
  106OSM    O1210735   4.338   1.349   6.635
  106OSM    C1S10736   4.424   1.418   6.378
  106OSM    H1S10737   4.523   1.414   6.428
  106OSM    H1T10738   4.377   1.513   6.411
  106OSM     NF10739   4.560   1.551   6.215
  106OSM    HNF10740   4.522   1.643   6.210
  106OSM    C2S10741   4.458   1.447   6.227
  106OSM    H2S10742   4.502   1.358   6.176
  106OSM    C3S10743   4.326   1.471   6.148
  106OSM    H3S10744   4.274   1.559   6.191
  106OSM     O310745   4.225   1.365   6.152
  106OSM    HO310746   4.247   1.315   6.232
  106OSM    C4S10747   4.364   1.504   6.009
  106OSM    H4S10748   4.402   1.413   5.959
  106OSM    C5S10749   4.340   1.618   5.945
  106OSM    H5S10750   4.293   1.706   5.992
  106OSM    C6S10751   4.363   1.658   5.798
  106OSM    H6S10752   4.379   1.768   5.786
  106OSM    H6T10753   4.267   1.644   5.743
  106OSM    C7S10754   4.484   1.596   5.726
  106OSM    H7S10755   4.474   1.487   5.747
  106OSM    H7T10756   4.576   1.644   5.765
  106OSM    C8S10757   4.471   1.623   5.574
  106OSM    H8S10758   4.486   1.733   5.561
  106OSM    H8T10759   4.373   1.588   5.534
  106OSM    C9S10760   4.581   1.553   5.491
  106OSM    H9S10761   4.549   1.449   5.467
  106OSM    H9T10762   4.672   1.553   5.555
  106OSM   C10S10763   4.610   1.622   5.356
  106OSM   H10S10764   4.688   1.698   5.381
  106OSM   H10T10765   4.520   1.678   5.324
  106OSM   C11S10766   4.651   1.516   5.251
  106OSM   H11S10767   4.553   1.465   5.235
  106OSM   H11T10768   4.729   1.446   5.285
  106OSM   C12S10769   4.712   1.566   5.120
  106OSM   H12S10770   4.793   1.636   5.151
  106OSM   H12T10771   4.633   1.619   5.062
  106OSM   C13S10772   4.771   1.457   5.033
  106OSM   H13S10773   4.689   1.384   5.014
  106OSM   H13T10774   4.848   1.411   5.098
  106OSM   C14S10775   4.834   1.504   4.901
  106OSM   H14S10776   4.891   1.597   4.924
  106OSM   H14T10777   4.758   1.530   4.824
  106OSM   C15S10778   4.917   1.398   4.835
  106OSM   H15S10779   4.991   1.361   4.909
  106OSM   H15T10780   4.969   1.439   4.746
  106OSM   C16S10781   4.842   1.276   4.786
  106OSM   H16S10782   4.767   1.310   4.712
  106OSM   H16T10783   4.777   1.248   4.872
  106OSM   C17S10784   4.934   1.161   4.735
  106OSM   H17S10785   4.892   1.060   4.722
  106OSM   H17T10786   5.014   1.147   4.811
  106OSM   C18S10787   5.000   1.193   4.600
  106OSM   H18S10788   4.929   1.200   4.514
  106OSM   H18T10789   5.065   1.107   4.574
  106OSM   H18U10790   5.053   1.290   4.596
  106OSM    C1F10791   4.693   1.525   6.232
  106OSM     OF10792   4.740   1.421   6.281
  106OSM    C2F10793   4.783   1.647   6.210
  106OSM    H2F10794   4.824   1.659   6.313
  106OSM    H2G10795   4.718   1.734   6.190
  106OSM    C3F10796   4.893   1.619   6.109
  106OSM    H3F10797   4.940   1.521   6.130
  106OSM    H3G10798   4.973   1.695   6.122
  106OSM    C4F10799   4.849   1.631   5.965
  106OSM    H4F10800   4.813   1.733   5.939
  106OSM    H4G10801   4.763   1.564   5.948
  106OSM    C5F10802   4.958   1.611   5.855
  106OSM    H5F10803   5.015   1.516   5.872
  106OSM    H5G10804   5.025   1.699   5.856
  106OSM    C6F10805   4.905   1.611   5.705
  106OSM    H6F10806   4.814   1.675   5.698
  106OSM    H6G10807   4.856   1.514   5.681
  106OSM    C7F10808   5.015   1.659   5.605
  106OSM    H7F10809   5.100   1.587   5.612
  106OSM    H7G10810   5.062   1.756   5.631
  106OSM    C8F10811   4.982   1.661   5.457
  106OSM    H8F10812   4.919   1.750   5.435
  106OSM    H8G10813   4.919   1.572   5.439
  106OSM    C9F10814   5.099   1.658   5.353
  106OSM    H9F10815   5.148   1.754   5.332
  106OSM   C10F10816   5.138   1.547   5.282
  106OSM   H10F10817   5.219   1.552   5.208
  106OSM   C11F10818   5.088   1.403   5.298
  106OSM   H11F10819   5.037   1.373   5.204
  106OSM   H11G10820   5.013   1.404   5.380
  106OSM   C12F10821   5.200   1.309   5.328
  106OSM   H12F10822   5.158   1.206   5.332
  106OSM   H12G10823   5.253   1.322   5.425
  106OSM   C13F10824   5.311   1.282   5.223
  106OSM   H13F10825   5.364   1.188   5.249
  106OSM   H13G10826   5.379   1.367   5.207
  106OSM   C14F10827   5.257   1.264   5.080
  106OSM   H14F10828   5.190   1.348   5.052
  106OSM   H14G10829   5.195   1.172   5.089
  106OSM   C15F10830   5.375   1.245   4.977
  106OSM   H15F10831   5.439   1.164   5.019
  106OSM   H15G10832   5.424   1.344   4.963
  106OSM   C16F10833   5.329   1.206   4.834
  106OSM   H16F10834   5.294   1.298   4.781
  106OSM   H16G10835   5.245   1.133   4.834
  106OSM   C17F10836   5.450   1.173   4.750
  106OSM   H17F10837   5.512   1.115   4.822
  106OSM   H17G10838   5.503   1.270   4.734
  106OSM   C18F10839   5.423   1.104   4.611
  106OSM   H18F10840   5.392   1.178   4.534
  106OSM   H18G10841   5.347   1.025   4.628
  106OSM   H18H10842   5.520   1.064   4.575
  107OSM      N10843   3.715   6.212   6.864
  107OSM    C1510844   3.780   6.127   6.973
  107OSM   H15A10845   3.771   6.177   7.068
  107OSM   H15B10846   3.882   6.111   6.943
  107OSM   H15C10847   3.730   6.032   6.985
  107OSM    C1410848   3.568   6.224   6.880
  107OSM   H14A10849   3.533   6.279   6.794
  107OSM   H14B10850   3.547   6.286   6.965
  107OSM   H14C10851   3.517   6.129   6.894
  107OSM    C1310852   3.767   6.351   6.869
  107OSM   H13A10853   3.758   6.387   6.768
  107OSM   H13B10854   3.874   6.347   6.886
  107OSM   H13C10855   3.716   6.417   6.938
  107OSM    C1210856   3.745   6.145   6.730
  107OSM   H12A10857   3.692   6.051   6.728
  107OSM   H12B10858   3.848   6.111   6.722
  107OSM    C1110859   3.716   6.229   6.598
  107OSM   H11A10860   3.607   6.250   6.598
  107OSM   H11B10861   3.744   6.160   6.515
  107OSM      P10862   3.931   6.356   6.527
  107OSM    O1310863   3.953   6.477   6.447
  107OSM    O1410864   4.023   6.336   6.638
  107OSM    O1110865   3.933   6.229   6.424
  107OSM    O1210866   3.786   6.350   6.589
  107OSM    C1S10867   3.880   6.254   6.292
  107OSM    H1S10868   3.945   6.325   6.237
  107OSM    H1T10869   3.780   6.302   6.295
  107OSM     NF10870   3.773   6.148   6.079
  107OSM    HNF10871   3.694   6.089   6.093
  107OSM    C2S10872   3.857   6.125   6.198
  107OSM    H2S10873   3.956   6.093   6.158
  107OSM    C3S10874   3.814   5.997   6.282
  107OSM    H3S10875   3.708   6.011   6.312
  107OSM     O310876   3.897   5.974   6.402
  107OSM    HO310877   3.953   6.052   6.404
  107OSM    C4S10878   3.836   5.874   6.199
  107OSM    H4S10879   3.939   5.866   6.162
  107OSM    C5S10880   3.751   5.768   6.191
  107OSM    H5S10881   3.654   5.765   6.243
  107OSM    C6S10882   3.770   5.645   6.108
  107OSM    H6S10883   3.680   5.581   6.119
  107OSM    H6T10884   3.854   5.586   6.152
  107OSM    C7S10885   3.791   5.686   5.953
  107OSM    H7S10886   3.801   5.583   5.912
  107OSM    H7T10887   3.877   5.756   5.951
  107OSM    C8S10888   3.667   5.755   5.896
  107OSM    H8S10889   3.633   5.835   5.964
  107OSM    H8T10890   3.575   5.696   5.879
  107OSM    C9S10891   3.700   5.811   5.751
  107OSM    H9S10892   3.789   5.876   5.763
  107OSM    H9T10893   3.619   5.874   5.708
  107OSM   C10S10894   3.738   5.709   5.648
  107OSM   H10S10895   3.675   5.618   5.652
  107OSM   H10T10896   3.839   5.665   5.665
  107OSM   C11S10897   3.724   5.761   5.506
  107OSM   H11S10898   3.799   5.843   5.504
  107OSM   H11T10899   3.626   5.813   5.497
  107OSM   C12S10900   3.741   5.661   5.397
  107OSM   H12S10901   3.674   5.578   5.428
  107OSM   H12T10902   3.845   5.623   5.402
  107OSM   C13S10903   3.704   5.721   5.263
  107OSM   H13S10904   3.744   5.658   5.180
  107OSM   H13T10905   3.751   5.821   5.257
  107OSM   C14S10906   3.556   5.725   5.240
  107OSM   H14S10907   3.500   5.782   5.317
  107OSM   H14T10908   3.517   5.625   5.268
  107OSM   C15S10909   3.498   5.767   5.103
  107OSM   H15S10910   3.533   5.872   5.087
  107OSM   H15T10911   3.388   5.772   5.114
  107OSM   C16S10912   3.535   5.675   4.985
  107OSM   H16S10913   3.516   5.570   5.015
  107OSM   H16T10914   3.643   5.690   4.961
  107OSM   C17S10915   3.455   5.716   4.864
  107OSM   H17S10916   3.467   5.824   4.843
  107OSM   H17T10917   3.346   5.702   4.878
  107OSM   C18S10918   3.493   5.630   4.735
  107OSM   H18S10919   3.450   5.529   4.751
  107OSM   H18T10920   3.602   5.633   4.713
  107OSM   H18U10921   3.437   5.661   4.644
  107OSM    C1F10922   3.790   6.249   5.992
  107OSM     OF10923   3.892   6.316   6.005
  107OSM    C2F10924   3.683   6.270   5.896
  107OSM    H2F10925   3.710   6.353   5.828
  107OSM    H2G10926   3.591   6.298   5.953
  107OSM    C3F10927   3.655   6.155   5.803
  107OSM    H3F10928   3.633   6.062   5.861
  107OSM    H3G10929   3.751   6.136   5.750
  107OSM    C4F10930   3.537   6.177   5.708
  107OSM    H4F10931   3.459   6.229   5.768
  107OSM    H4G10932   3.494   6.080   5.675
  107OSM    C5F10933   3.568   6.255   5.582
  107OSM    H5F10934   3.618   6.180   5.517
  107OSM    H5G10935   3.647   6.329   5.606
  107OSM    C6F10936   3.438   6.312   5.538
  107OSM    H6F10937   3.389   6.381   5.611
  107OSM    H6G10938   3.367   6.228   5.524
  107OSM    C7F10939   3.466   6.386   5.408
  107OSM    H7F10940   3.498   6.305   5.340
  107OSM    H7G10941   3.552   6.456   5.418
  107OSM    C8F10942   3.342   6.460   5.349
  107OSM    H8F10943   3.278   6.498   5.431
  107OSM    H8G10944   3.271   6.386   5.306
  107OSM    C9F10945   3.382   6.564   5.242
  107OSM    H9F10946   3.450   6.642   5.278
  107OSM   C10F10947   3.363   6.555   5.109
  107OSM   H10F10948   3.379   6.646   5.050
  107OSM   C11F10949   3.267   6.460   5.047
  107OSM   H11F10950   3.208   6.396   5.116
  107OSM   H11G10951   3.325   6.401   4.974
  107OSM   C12F10952   3.155   6.529   4.967
  107OSM   H12F10953   3.110   6.608   5.031
  107OSM   H12G10954   3.081   6.456   4.930
  107OSM   C13F10955   3.214   6.588   4.834
  107OSM   H13F10956   3.294   6.525   4.791
  107OSM   H13G10957   3.256   6.687   4.863
  107OSM   C14F10958   3.109   6.584   4.719
  107OSM   H14F10959   3.130   6.661   4.642
  107OSM   H14G10960   3.005   6.609   4.750
  107OSM   C15F10961   3.101   6.442   4.653
  107OSM   H15F10962   3.060   6.365   4.721
  107OSM   H15G10963   3.201   6.409   4.618
  107OSM   C16F10964   2.996   6.448   4.534
  107OSM   H16F10965   3.025   6.516   4.452
  107OSM   H16G10966   2.907   6.498   4.580
  107OSM   C17F10967   2.959   6.312   4.486
  107OSM   H17F10968   2.853   6.300   4.456
  107OSM   H17G10969   2.982   6.239   4.567
  107OSM   C18F10970   3.054   6.279   4.374
  107OSM   H18F10971   3.157   6.313   4.398
  107OSM   H18G10972   3.029   6.315   4.272
  107OSM   H18H10973   3.059   6.168   4.368
  108OSM      N10974   6.881   5.871   6.791
  108OSM    C1510975   0.091   5.882   6.904
  108OSM   H15A10976   0.139   5.790   6.932
  108OSM   H15B10977   0.036   5.921   6.988
  108OSM   H15C10978   0.174   5.946   6.876
  108OSM    C1410979   6.794   5.995   6.784
  108OSM   H14A10980   6.729   5.999   6.697
  108OSM   H14B10981   6.855   6.083   6.792
  108OSM   H14C10982   6.729   5.994   6.871
  108OSM    C1310983   0.064   5.858   6.659
  108OSM   H13A10984   0.129   5.771   6.657
  108OSM   H13B10985   0.119   5.943   6.622
  108OSM   H13C10986   6.884   5.839   6.577
  108OSM    C1210987   6.792   5.746   6.800
  108OSM   H12A10988   6.751   5.727   6.898
  108OSM   H12B10989   6.860   5.668   6.769
  108OSM    C1110990   6.667   5.731   6.699
  108OSM   H11A10991   6.666   5.620   6.694
  108OSM   H11B10992   6.687   5.771   6.598
  108OSM      P10993   6.400   5.754   6.725
  108OSM    O1310994   6.368   5.624   6.792
  108OSM    O1410995   6.322   5.877   6.752
  108OSM    O1110996   6.394   5.714   6.575
  108OSM    O1210997   6.550   5.782   6.756
  108OSM    C1S10998   6.402   5.812   6.468
  108OSM    H1S10999   6.472   5.894   6.495
  108OSM    H1T11000   6.308   5.869   6.451
  108OSM     NF11001   6.392   5.864   6.228
  108OSM    HNF11002   6.298   5.853   6.196
  108OSM    C2S11003   6.439   5.767   6.321
  108OSM    H2S11004   6.550   5.767   6.327
  108OSM    C3S11005   6.395   5.620   6.301
  108OSM    H3S11006   6.286   5.615   6.320
  108OSM     O311007   6.460   5.535   6.394
  108OSM    HO311008   6.448   5.576   6.480
  108OSM    C4S11009   6.429   5.580   6.157
  108OSM    H4S11010   6.343   5.575   6.089
  108OSM    C5S11011   6.554   5.556   6.108
  108OSM    H5S11012   6.645   5.569   6.169
  108OSM    C6S11013   6.577   5.530   5.964
  108OSM    H6S11014   6.580   5.420   5.947
  108OSM    H6T11015   6.679   5.571   5.944
  108OSM    C7S11016   6.476   5.588   5.861
  108OSM    H7S11017   6.449   5.694   5.881
  108OSM    H7T11018   6.381   5.530   5.861
  108OSM    C8S11019   6.541   5.585   5.720
  108OSM    H8S11020   6.566   5.480   5.693
  108OSM    H8T11021   6.635   5.645   5.721
  108OSM    C9S11022   6.445   5.612   5.607
  108OSM    H9S11023   6.399   5.709   5.635
  108OSM    H9T11024   6.374   5.528   5.623
  108OSM   C10S11025   6.501   5.621   5.463
  108OSM   H10S11026   6.610   5.602   5.456
  108OSM   H10T11027   6.491   5.729   5.438
  108OSM   C11S11028   6.425   5.536   5.354
  108OSM   H11S11029   6.318   5.563   5.348
  108OSM   H11T11030   6.425   5.432   5.393
  108OSM   C12S11031   6.489   5.538   5.214
  108OSM   H12S11032   6.579   5.474   5.208
  108OSM   H12T11033   6.544   5.634   5.213
  108OSM   C13S11034   6.397   5.522   5.097
  108OSM   H13S11035   6.336   5.615   5.090
  108OSM   H13T11036   6.334   5.431   5.107
  108OSM   C14S11037   6.467   5.517   4.960
  108OSM   H14S11038   6.387   5.489   4.889
  108OSM   H14T11039   6.534   5.429   4.950
  108OSM   C15S11040   6.534   5.651   4.918
  108OSM   H15S11041   6.618   5.656   4.991
  108OSM   H15T11042   6.480   5.746   4.934
  108OSM   C16S11043   6.582   5.641   4.774
  108OSM   H16S11044   6.509   5.579   4.719
  108OSM   H16T11045   6.689   5.610   4.771
  108OSM   C17S11046   6.586   5.776   4.702
  108OSM   H17S11047   6.644   5.765   4.607
  108OSM   H17T11048   6.634   5.855   4.762
  108OSM   C18S11049   6.454   5.835   4.671
  108OSM   H18S11050   6.388   5.830   4.760
  108OSM   H18T11051   6.405   5.783   4.586
  108OSM   H18U11052   6.470   5.942   4.642
  108OSM    C1F11053   6.447   5.986   6.216
  108OSM     OF11054   6.530   6.021   6.297
  108OSM    C2F11055   6.375   6.087   6.122
  108OSM    H2F11056   6.363   6.185   6.174
  108OSM    H2G11057   6.274   6.051   6.092
  108OSM    C3F11058   6.461   6.129   6.002
  108OSM    H3F11059   6.553   6.160   6.056
  108OSM    H3G11060   6.409   6.200   5.935
  108OSM    C4F11061   6.494   6.026   5.892
  108OSM    H4F11062   6.396   6.007   5.842
  108OSM    H4G11063   6.533   5.934   5.942
  108OSM    C5F11064   6.603   6.084   5.799
  108OSM    H5F11065   6.695   6.107   5.858
  108OSM    H5G11066   6.567   6.183   5.765
  108OSM    C6F11067   6.635   5.987   5.684
  108OSM    H6F11068   6.535   5.966   5.640
  108OSM    H6G11069   6.665   5.890   5.728
  108OSM    C7F11070   6.731   6.051   5.581
  108OSM    H7F11071   6.818   6.087   5.641
  108OSM    H7G11072   6.667   6.134   5.544
  108OSM    C8F11073   6.769   5.958   5.467
  108OSM    H8F11074   6.678   5.902   5.434
  108OSM    H8G11075   6.840   5.880   5.502
  108OSM    C9F11076   6.825   6.031   5.350
  108OSM    H9F11077   0.025   6.091   5.379
  108OSM   C10F11078   6.792   6.014   5.217
  108OSM   H10F11079   6.849   6.076   5.146
  108OSM   C11F11080   6.682   5.926   5.161
  108OSM   H11F11081   6.642   5.869   5.247
  108OSM   H11G11082   6.731   5.855   5.092
  108OSM   C12F11083   6.562   6.003   5.089
  108OSM   H12F11084   6.510   6.067   5.163
  108OSM   H12G11085   6.486   5.932   5.050
  108OSM   C13F11086   6.604   6.093   4.972
  108OSM   H13F11087   6.665   6.030   4.904
  108OSM   H13G11088   6.662   6.182   5.005
  108OSM   C14F11089   6.474   6.132   4.896
  108OSM   H14F11090   6.408   6.195   4.959
  108OSM   H14G11091   6.430   6.036   4.863
  108OSM   C15F11092   6.503   6.203   4.765
  108OSM   H15F11093   6.577   6.151   4.699
  108OSM   H15G11094   6.547   6.302   4.788
  108OSM   C16F11095   6.371   6.228   4.693
  108OSM   H16F11096   6.317   6.288   4.771
  108OSM   H16G11097   6.305   6.138   4.688
  108OSM   C17F11098   6.380   6.310   4.565
  108OSM   H17F11099   6.281   6.330   4.519
  108OSM   H17G11100   6.437   6.244   4.496
  108OSM   C18F11101   6.447   6.440   4.576
  108OSM   H18F11102   6.439   6.494   4.480
  108OSM   H18G11103   6.553   6.432   4.608
  108OSM   H18H11104   6.408   6.506   4.656
  109OSM      N11105   2.749   2.536   6.563
  109OSM    C1511106   2.849   2.502   6.667
  109OSM   H15A11107   2.883   2.403   6.641
  109OSM   H15B11108   2.809   2.513   6.766
  109OSM   H15C11109   2.937   2.565   6.665
  109OSM    C1411110   2.626   2.454   6.574
  109OSM   H14A11111   2.598   2.435   6.676
  109OSM   H14B11112   2.660   2.362   6.530
  109OSM   H14C11113   2.533   2.489   6.531
  109OSM    C1311114   2.714   2.681   6.592
  109OSM   H13A11115   2.799   2.747   6.586
  109OSM   H13B11116   2.686   2.689   6.696
  109OSM   H13C11117   2.633   2.722   6.533
  109OSM    C1211118   2.807   2.532   6.423
  109OSM   H12A11119   2.884   2.607   6.434
  109OSM   H12B11120   2.734   2.563   6.349
  109OSM    C1111121   2.861   2.405   6.369
  109OSM   H11A11122   2.873   2.409   6.258
  109OSM   H11B11123   2.780   2.331   6.384
  109OSM      P11124   3.110   2.436   6.369
  109OSM    O1311125   3.108   2.581   6.389
  109OSM    O1411126   3.225   2.369   6.430
  109OSM    O1111127   3.094   2.400   6.213
  109OSM    O1211128   2.978   2.373   6.442
  109OSM    C1S11129   3.089   2.267   6.157
  109OSM    H1S11130   2.989   2.222   6.175
  109OSM    H1T11131   3.169   2.207   6.204
  109OSM     NF11132   3.075   2.157   5.938
  109OSM    HNF11133   3.152   2.095   5.920
  109OSM    C2S11134   3.110   2.280   6.000
  109OSM    H2S11135   3.031   2.350   5.964
  109OSM    C3S11136   3.244   2.336   5.961
  109OSM    H3S11137   3.327   2.270   5.994
  109OSM     O311138   3.274   2.449   6.042
  109OSM    HO311139   3.203   2.458   6.107
  109OSM    C4S11140   3.261   2.371   5.817
  109OSM    H4S11141   3.174   2.418   5.769
  109OSM    C5S11142   3.367   2.345   5.740
  109OSM    H5S11143   3.458   2.313   5.793
  109OSM    C6S11144   3.381   2.379   5.595
  109OSM    H6S11145   3.490   2.399   5.584
  109OSM    H6T11146   3.340   2.480   5.575
  109OSM    C7S11147   3.315   2.274   5.498
  109OSM    H7S11148   3.205   2.287   5.511
  109OSM    H7T11149   3.349   2.168   5.506
  109OSM    C8S11150   3.342   2.307   5.352
  109OSM    H8S11151   3.443   2.266   5.330
  109OSM    H8T11152   3.354   2.417   5.343
  109OSM    C9S11153   3.239   2.254   5.253
  109OSM    H9S11154   3.137   2.284   5.285
  109OSM    H9T11155   3.242   2.143   5.258
  109OSM   C10S11156   3.243   2.299   5.106
  109OSM   H10S11157   3.212   2.406   5.106
  109OSM   H10T11158   3.169   2.244   5.045
  109OSM   C11S11159   3.386   2.276   5.046
  109OSM   H11S11160   3.424   2.175   5.073
  109OSM   H11T11161   3.461   2.346   5.089
  109OSM   C12S11162   3.387   2.276   4.890
  109OSM   H12S11163   3.338   2.374   4.870
  109OSM   H12T11164   3.319   2.190   4.872
  109OSM   C13S11165   3.526   2.269   4.819
  109OSM   H13S11166   3.577   2.171   4.832
  109OSM   H13T11167   3.580   2.351   4.869
  109OSM   C14S11168   3.524   2.306   4.672
  109OSM   H14S11169   3.475   2.399   4.636
  109OSM   H14T11170   3.471   2.227   4.614
  109OSM   C15S11171   3.668   2.303   4.615
  109OSM   H15S11172   3.676   2.316   4.505
  109OSM   H15T11173   3.710   2.207   4.652
  109OSM   C16S11174   3.761   2.418   4.662
  109OSM   H16S11175   3.865   2.410   4.626
  109OSM   H16T11176   3.763   2.397   4.772
  109OSM   C17S11177   3.705   2.563   4.642
  109OSM   H17S11178   3.624   2.579   4.717
  109OSM   H17T11179   3.653   2.575   4.545
  109OSM   C18S11180   3.801   2.686   4.660
  109OSM   H18S11181   3.885   2.682   4.587
  109OSM   H18T11182   3.839   2.705   4.762
  109OSM   H18U11183   3.742   2.780   4.652
  109OSM    C1F11184   2.951   2.103   5.937
  109OSM     OF11185   2.854   2.157   5.980
  109OSM    C2F11186   2.941   1.970   5.870
  109OSM    H2F11187   2.883   1.896   5.929
  109OSM    H2G11188   3.041   1.923   5.869
  109OSM    C3F11189   2.888   1.980   5.727
  109OSM    H3F11190   2.799   2.045   5.738
  109OSM    H3G11191   2.857   1.881   5.686
  109OSM    C4F11192   2.986   2.046   5.627
  109OSM    H4F11193   3.078   1.983   5.620
  109OSM    H4G11194   3.022   2.137   5.679
  109OSM    C5F11195   2.918   2.078   5.485
  109OSM    H5F11196   2.974   2.154   5.427
  109OSM    H5G11197   2.821   2.132   5.500
  109OSM    C6F11198   2.878   1.949   5.406
  109OSM    H6F11199   2.845   1.865   5.471
  109OSM    H6G11200   2.971   1.911   5.360
  109OSM    C7F11201   2.768   1.961   5.310
  109OSM    H7F11202   2.669   1.975   5.359
  109OSM    H7G11203   2.750   1.862   5.264
  109OSM    C8F11204   2.775   2.083   5.210
  109OSM    H8F11205   2.791   2.184   5.253
  109OSM    H8G11206   2.683   2.093   5.149
  109OSM    C9F11207   2.900   2.070   5.121
  109OSM    H9F11208   2.994   2.074   5.177
  109OSM   C10F11209   2.912   2.060   4.985
  109OSM   H10F11210   3.014   2.066   4.944
  109OSM   C11F11211   2.792   2.044   4.902
  109OSM   H11F11212   2.716   1.973   4.940
  109OSM   H11G11213   2.822   2.001   4.804
  109OSM   C12F11214   2.715   2.176   4.874
  109OSM   H12F11215   2.791   2.252   4.848
  109OSM   H12G11216   2.677   2.219   4.969
  109OSM   C13F11217   2.604   2.169   4.763
  109OSM   H13F11218   2.572   2.275   4.756
  109OSM   H13G11219   2.513   2.114   4.793
  109OSM   C14F11220   2.664   2.114   4.628
  109OSM   H14F11221   2.667   2.004   4.640
  109OSM   H14G11222   2.764   2.161   4.635
  109OSM   C15F11223   2.584   2.148   4.502
  109OSM   H15F11224   2.589   2.258   4.485
  109OSM   H15G11225   2.477   2.118   4.503
  109OSM   C16F11226   2.653   2.095   4.374
  109OSM   H16F11227   2.601   2.138   4.286
  109OSM   H16G11228   2.638   1.985   4.379
  109OSM   C17F11229   2.802   2.115   4.355
  109OSM   H17F11230   2.851   2.091   4.451
  109OSM   H17G11231   2.821   2.223   4.339
  109OSM   C18F11232   2.860   2.024   4.249
  109OSM   H18F11233   2.969   2.022   4.267
  109OSM   H18G11234   2.838   2.066   4.148
  109OSM   H18H11235   2.819   1.921   4.245
  110OSM      N11236   4.817   5.868   6.630
  110OSM    C1511237   4.892   5.739   6.608
  110OSM   H15A11238   4.867   5.668   6.686
  110OSM   H15B11239   4.996   5.764   6.613
  110OSM   H15C11240   4.867   5.699   6.510
  110OSM    C1411241   4.668   5.821   6.652
  110OSM   H14A11242   4.597   5.899   6.674
  110OSM   H14B11243   4.664   5.739   6.722
  110OSM   H14C11244   4.636   5.786   6.554
  110OSM    C1311245   4.869   5.932   6.755
  110OSM   H13A11246   4.857   5.875   6.846
  110OSM   H13B11247   4.814   6.020   6.786
  110OSM   H13C11248   4.974   5.954   6.740
  110OSM    C1211249   4.823   5.963   6.508
  110OSM   H12A11250   4.765   6.053   6.524
  110OSM   H12B11251   4.763   5.916   6.431
  110OSM    C1111252   4.970   5.992   6.451
  110OSM   H11A11253   4.952   6.044   6.355
  110OSM   H11B11254   5.009   5.894   6.417
  110OSM      P11255   5.201   6.018   6.558
  110OSM    O1311256   5.270   6.106   6.657
  110OSM    O1411257   5.205   5.872   6.592
  110OSM    O1111258   5.277   6.046   6.423
  110OSM    O1211259   5.053   6.057   6.541
  110OSM    C1S11260   5.285   6.169   6.351
  110OSM    H1S11261   5.379   6.222   6.377
  110OSM    H1T11262   5.197   6.233   6.374
  110OSM     NF11263   5.316   6.291   6.150
  110OSM    HNF11264   5.231   6.337   6.127
  110OSM    C2S11265   5.294   6.158   6.200
  110OSM    H2S11266   5.371   6.082   6.175
  110OSM    C3S11267   5.151   6.112   6.146
  110OSM    H3S11268   5.066   6.171   6.187
  110OSM     O311269   5.104   5.982   6.188
  110OSM    HO311270   5.150   5.969   6.271
  110OSM    C4S11271   5.134   6.119   5.996
  110OSM    H4S11272   5.083   6.211   5.963
  110OSM    C5S11273   5.166   6.029   5.900
  110OSM    H5S11274   5.212   5.934   5.932
  110OSM    C6S11275   5.152   6.047   5.750
  110OSM    H6S11276   5.095   5.960   5.711
  110OSM    H6T11277   5.253   6.038   5.704
  110OSM    C7S11278   5.077   6.176   5.699
  110OSM    H7S11279   5.144   6.263   5.716
  110OSM    H7T11280   4.987   6.201   5.759
  110OSM    C8S11281   5.036   6.180   5.549
  110OSM    H8S11282   5.006   6.080   5.512
  110OSM    H8T11283   5.124   6.203   5.485
  110OSM    C9S11284   4.929   6.281   5.515
  110OSM    H9S11285   4.974   6.378   5.547
  110OSM    H9T11286   4.851   6.263   5.592
  110OSM   C10S11287   4.893   6.298   5.369
  110OSM   H10S11288   4.986   6.346   5.331
  110OSM   H10T11289   4.823   6.384   5.359
  110OSM   C11S11290   4.860   6.179   5.289
  110OSM   H11S11291   4.773   6.138   5.346
  110OSM   H11T11292   4.938   6.100   5.289
  110OSM   C12S11293   4.834   6.212   5.140
  110OSM   H12S11294   4.927   6.235   5.084
  110OSM   H12T11295   4.769   6.302   5.143
  110OSM   C13S11296   4.747   6.092   5.088
  110OSM   H13S11297   4.664   6.078   5.160
  110OSM   H13T11298   4.803   5.996   5.091
  110OSM   C14S11299   4.681   6.128   4.953
  110OSM   H14S11300   4.631   6.227   4.952
  110OSM   H14T11301   4.601   6.055   4.929
  110OSM   C15S11302   4.783   6.139   4.845
  110OSM   H15S11303   4.839   6.042   4.842
  110OSM   H15T11304   4.860   6.213   4.875
  110OSM   C16S11305   4.716   6.177   4.708
  110OSM   H16S11306   4.679   6.282   4.710
  110OSM   H16T11307   4.640   6.103   4.676
  110OSM   C17S11308   4.826   6.175   4.600
  110OSM   H17S11309   4.877   6.076   4.597
  110OSM   H17T11310   4.900   6.254   4.626
  110OSM   C18S11311   4.767   6.202   4.457
  110OSM   H18S11312   4.851   6.192   4.385
  110OSM   H18T11313   4.714   6.298   4.446
  110OSM   H18U11314   4.698   6.122   4.421
  110OSM    C1F11315   5.423   6.370   6.149
  110OSM     OF11316   5.523   6.344   6.214
  110OSM    C2F11317   5.403   6.492   6.061
  110OSM    H2F11318   5.451   6.580   6.108
  110OSM    H2G11319   5.294   6.505   6.043
  110OSM    C3F11320   5.460   6.462   5.914
  110OSM    H3F11321   5.426   6.367   5.869
  110OSM    H3G11322   5.571   6.455   5.924
  110OSM    C4F11323   5.423   6.568   5.806
  110OSM    H4F11324   5.517   6.617   5.770
  110OSM    H4G11325   5.366   6.654   5.847
  110OSM    C5F11326   5.340   6.508   5.692
  110OSM    H5F11327   5.254   6.455   5.739
  110OSM    H5G11328   5.405   6.435   5.639
  110OSM    C6F11329   5.288   6.600   5.578
  110OSM    H6F11330   5.367   6.675   5.554
  110OSM    H6G11331   5.200   6.655   5.619
  110OSM    C7F11332   5.246   6.529   5.448
  110OSM    H7F11333   5.185   6.437   5.464
  110OSM    H7G11334   5.338   6.494   5.398
  110OSM    C8F11335   5.183   6.643   5.356
  110OSM    H8F11336   5.199   6.596   5.257
  110OSM    H8G11337   5.240   6.737   5.374
  110OSM    C9F11338   5.043   6.677   5.387
  110OSM    H9F11339   5.014   6.740   5.473
  110OSM   C10F11340   4.941   6.658   5.304
  110OSM   H10F11341   4.840   6.696   5.326
  110OSM   C11F11342   4.947   6.613   5.161
  110OSM   H11F11343   5.006   6.524   5.130
  110OSM   H11G11344   4.994   6.696   5.103
  110OSM   C12F11345   4.798   6.617   5.104
  110OSM   H12F11346   4.746   6.715   5.094
  110OSM   H12G11347   4.740   6.561   5.180
  110OSM   C13F11348   4.788   6.552   4.972
  110OSM   H13F11349   4.679   6.537   4.958
  110OSM   H13G11350   4.845   6.457   4.980
  110OSM   C14F11351   4.839   6.641   4.856
  110OSM   H14F11352   4.945   6.607   4.845
  110OSM   H14G11353   4.832   6.749   4.880
  110OSM   C15F11354   4.773   6.605   4.720
  110OSM   H15F11355   4.664   6.619   4.730
  110OSM   H15G11356   4.786   6.496   4.700
  110OSM   C16F11357   4.810   6.685   4.595
  110OSM   H16F11358   4.903   6.644   4.550
  110OSM   H16G11359   4.840   6.788   4.623
  110OSM   C17F11360   4.702   6.698   4.488
  110OSM   H17F11361   4.734   6.744   4.392
  110OSM   H17G11362   4.621   6.762   4.529
  110OSM   C18F11363   4.652   6.559   4.442
  110OSM   H18F11364   4.565   6.569   4.374
  110OSM   H18G11365   4.621   6.507   4.534
  110OSM   H18H11366   4.742   6.509   4.401
  111OSM      N11367   1.090   3.654   6.521
  111OSM    C1511368   1.060   3.790   6.466
  111OSM   H15A11369   0.967   3.789   6.411
  111OSM   H15B11370   1.140   3.819   6.399
  111OSM   H15C11371   1.067   3.862   6.546
  111OSM    C1411372   1.124   3.577   6.395
  111OSM   H14A11373   1.205   3.618   6.336
  111OSM   H14B11374   1.038   3.568   6.330
  111OSM   H14C11375   1.170   3.484   6.424
  111OSM    C1311376   1.212   3.653   6.599
  111OSM   H13A11377   1.293   3.694   6.541
  111OSM   H13B11378   1.241   3.554   6.633
  111OSM   H13C11379   1.184   3.713   6.685
  111OSM    C1211380   0.972   3.587   6.592
  111OSM   H12A11381   0.961   3.627   6.691
  111OSM   H12B11382   1.009   3.486   6.605
  111OSM    C1111383   0.839   3.582   6.523
  111OSM   H11A11384   0.776   3.505   6.570
  111OSM   H11B11385   0.853   3.547   6.418
  111OSM      P11386   0.639   3.720   6.455
  111OSM    O1311387   0.640   3.653   6.325
  111OSM    O1411388   0.555   3.661   6.556
  111OSM    O1111389   0.598   3.866   6.433
  111OSM    O1211390   0.783   3.717   6.511
  111OSM    C1S11391   0.688   3.973   6.414
  111OSM    H1S11392   0.792   3.933   6.422
  111OSM    H1T11393   0.666   4.048   6.493
  111OSM     NF11394   0.800   4.096   6.232
  111OSM    HNF11395   0.830   4.190   6.250
  111OSM    C2S11396   0.666   4.047   6.278
  111OSM    H2S11397   0.629   3.982   6.196
  111OSM    C3S11398   0.554   4.158   6.299
  111OSM    H3S11399   0.595   4.226   6.377
  111OSM     O311400   0.435   4.099   6.346
  111OSM    HO311401   0.462   4.007   6.354
  111OSM    C4S11402   0.541   4.233   6.168
  111OSM    H4S11403   0.598   4.327   6.162
  111OSM    C5S11404   0.484   4.194   6.052
  111OSM    H5S11405   0.449   4.090   6.052
  111OSM    C6S11406   0.463   4.265   5.920
  111OSM    H6S11407   0.462   4.370   5.958
  111OSM    H6T11408   0.359   4.240   5.889
  111OSM    C7S11409   0.565   4.238   5.812
  111OSM    H7S11410   0.600   4.133   5.805
  111OSM    H7T11411   0.652   4.300   5.840
  111OSM    C8S11412   0.505   4.281   5.671
  111OSM    H8S11413   0.477   4.388   5.670
  111OSM    H8T11414   0.425   4.204   5.663
  111OSM    C9S11415   0.592   4.258   5.547
  111OSM    H9S11416   0.665   4.178   5.572
  111OSM    H9T11417   0.645   4.354   5.528
  111OSM   C10S11418   0.498   4.238   5.423
  111OSM   H10S11419   0.436   4.330   5.419
  111OSM   H10T11420   0.439   4.146   5.441
  111OSM   C11S11421   0.600   4.220   5.307
  111OSM   H11S11422   0.648   4.120   5.316
  111OSM   H11T11423   0.685   4.292   5.311
  111OSM   C12S11424   0.552   4.224   5.155
  111OSM   H12S11425   0.535   4.333   5.143
  111OSM   H12T11426   0.454   4.172   5.144
  111OSM   C13S11427   0.650   4.161   5.060
  111OSM   H13S11428   0.681   4.058   5.087
  111OSM   H13T11429   0.743   4.222   5.059
  111OSM   C14S11430   0.604   4.145   4.913
  111OSM   H14S11431   0.593   4.242   4.860
  111OSM   H14T11432   0.500   4.106   4.914
  111OSM   C15S11433   0.700   4.060   4.821
  111OSM   H15S11434   0.804   4.100   4.821
  111OSM   H15T11435   0.665   4.055   4.716
  111OSM   C16S11436   0.690   3.913   4.859
  111OSM   H16S11437   0.585   3.889   4.885
  111OSM   H16T11438   0.747   3.911   4.955
  111OSM   C17S11439   0.736   3.810   4.759
  111OSM   H17S11440   0.839   3.838   4.730
  111OSM   H17T11441   0.670   3.801   4.671
  111OSM   C18S11442   0.746   3.686   4.832
  111OSM   H18S11443   0.784   3.611   4.759
  111OSM   H18T11444   0.654   3.648   4.881
  111OSM   H18U11445   0.826   3.700   4.908
  111OSM    C1F11446   0.895   4.012   6.173
  111OSM     OF11447   0.870   3.890   6.171
  111OSM    C2F11448   1.026   4.069   6.105
  111OSM    H2F11449   1.098   4.095   6.186
  111OSM    H2G11450   0.997   4.161   6.049
  111OSM    C3F11451   1.100   3.958   6.027
  111OSM    H3F11452   1.107   3.868   6.091
  111OSM    H3G11453   1.206   3.990   6.017
  111OSM    C4F11454   1.026   3.907   5.903
  111OSM    H4F11455   0.926   3.871   5.935
  111OSM    H4G11456   1.091   3.832   5.854
  111OSM    C5F11457   1.024   4.015   5.793
  111OSM    H5F11458   1.120   4.068   5.777
  111OSM    H5G11459   0.961   4.095   5.839
  111OSM    C6F11460   0.970   3.978   5.656
  111OSM    H6F11461   0.956   4.074   5.602
  111OSM    H6G11462   0.873   3.925   5.666
  111OSM    C7F11463   1.060   3.893   5.576
  111OSM    H7F11464   1.120   3.821   5.636
  111OSM    H7G11465   1.140   3.962   5.539
  111OSM    C8F11466   0.988   3.831   5.455
  111OSM    H8F11467   0.912   3.767   5.504
  111OSM    H8G11468   1.044   3.755   5.397
  111OSM    C9F11469   0.934   3.937   5.363
  111OSM    H9F11470   0.830   3.969   5.376
  111OSM   C10F11471   1.000   3.979   5.255
  111OSM   H10F11472   0.966   4.071   5.205
  111OSM   C11F11473   1.135   3.927   5.211
  111OSM   H11F11474   1.172   3.848   5.280
  111OSM   H11G11475   1.208   4.010   5.213
  111OSM   C12F11476   1.119   3.864   5.074
  111OSM   H12F11477   1.027   3.802   5.062
  111OSM   H12G11478   1.208   3.801   5.055
  111OSM   C13F11479   1.107   3.964   4.963
  111OSM   H13F11480   1.187   4.041   4.974
  111OSM   H13G11481   1.013   4.023   4.971
  111OSM   C14F11482   1.137   3.891   4.823
  111OSM   H14F11483   1.068   3.804   4.819
  111OSM   H14G11484   1.245   3.871   4.807
  111OSM   C15F11485   1.109   3.997   4.713
  111OSM   H15F11486   1.158   4.093   4.739
  111OSM   H15G11487   0.999   4.007   4.711
  111OSM   C16F11488   1.143   3.934   4.577
  111OSM   H16F11489   1.115   3.826   4.577
  111OSM   H16G11490   1.253   3.950   4.566
  111OSM   C17F11491   1.076   3.995   4.451
  111OSM   H17F11492   1.115   3.934   4.367
  111OSM   H17G11493   1.120   4.094   4.427
  111OSM   C18F11494   0.923   3.981   4.455
  111OSM   H18F11495   0.904   3.875   4.483
  111OSM   H18G11496   0.884   4.007   4.355
  111OSM   H18H11497   0.876   4.057   4.521
  112OSM      N11498   3.623   0.894   6.780
  112OSM    C1511499   3.578   0.858   6.916
  112OSM   H15A11500   3.653   0.796   6.963
  112OSM   H15B11501   3.482   0.810   6.928
  112OSM   H15C11502   3.582   0.944   6.981
  112OSM    C1411503   3.666   0.769   6.712
  112OSM   H14A11504   3.760   0.731   6.749
  112OSM   H14B11505   3.658   0.784   6.605
  112OSM   H14C11506   3.598   0.692   6.746
  112OSM    C1311507   3.517   0.963   6.711
  112OSM   H13A11508   3.483   1.049   6.767
  112OSM   H13B11509   3.422   0.910   6.712
  112OSM   H13C11510   3.550   0.999   6.615
  112OSM    C1211511   3.742   0.993   6.788
  112OSM   H12A11512   3.817   0.953   6.854
  112OSM   H12B11513   3.701   1.086   6.825
  112OSM    C1111514   3.809   1.034   6.660
  112OSM   H11A11515   3.852   0.943   6.613
  112OSM   H11B11516   3.899   1.093   6.689
  112OSM      P11517   3.704   1.256   6.586
  112OSM    O1311518   3.610   1.306   6.485
  112OSM    O1411519   3.675   1.289   6.724
  112OSM    O1111520   3.851   1.309   6.551
  112OSM    O1211521   3.725   1.099   6.569
  112OSM    C1S11522   3.915   1.261   6.436
  112OSM    H1S11523   3.905   1.152   6.421
  112OSM    H1T11524   4.025   1.274   6.445
  112OSM     NF11525   3.935   1.275   6.203
  112OSM    HNF11526   4.033   1.281   6.184
  112OSM    C2S11527   3.882   1.347   6.314
  112OSM    H2S11528   3.771   1.349   6.312
  112OSM    C3S11529   3.921   1.499   6.338
  112OSM    H3S11530   4.030   1.513   6.351
  112OSM     O311531   3.860   1.551   6.453
  112OSM    HO311532   3.831   1.471   6.498
  112OSM    C4S11533   3.867   1.578   6.223
  112OSM    H4S11534   3.758   1.587   6.221
  112OSM    C5S11535   3.940   1.629   6.119
  112OSM    H5S11536   4.045   1.598   6.107
  112OSM    C6S11537   3.888   1.685   5.986
  112OSM    H6S11538   3.779   1.698   5.976
  112OSM    H6T11539   3.925   1.619   5.905
  112OSM    C7S11540   3.943   1.826   5.965
  112OSM    H7S11541   4.053   1.828   5.980
  112OSM    H7T11542   3.891   1.892   6.038
  112OSM    C8S11543   3.917   1.880   5.819
  112OSM    H8S11544   3.914   1.990   5.833
  112OSM    H8T11545   3.817   1.853   5.777
  112OSM    C9S11546   4.033   1.843   5.724
  112OSM    H9S11547   4.039   1.732   5.719
  112OSM    H9T11548   4.128   1.875   5.772
  112OSM   C10S11549   4.014   1.900   5.584
  112OSM   H10S11550   3.994   2.009   5.577
  112OSM   H10T11551   3.916   1.862   5.547
  112OSM   C11S11552   4.130   1.849   5.499
  112OSM   H11S11553   4.139   1.738   5.500
  112OSM   H11T11554   4.218   1.880   5.560
  112OSM   C12S11555   4.161   1.913   5.359
  112OSM   H12S11556   4.118   2.015   5.358
  112OSM   H12T11557   4.106   1.853   5.283
  112OSM   C13S11558   4.308   1.910   5.330
  112OSM   H13S11559   4.341   1.804   5.316
  112OSM   H13T11560   4.365   1.963   5.409
  112OSM   C14S11561   4.339   1.982   5.195
  112OSM   H14S11562   4.298   2.085   5.201
  112OSM   H14T11563   4.299   1.927   5.108
  112OSM   C15S11564   4.494   1.977   5.175
  112OSM   H15S11565   4.530   1.872   5.181
  112OSM   H15T11566   4.540   2.022   5.266
  112OSM   C16S11567   4.546   2.048   5.054
  112OSM   H16S11568   4.615   2.128   5.089
  112OSM   H16T11569   4.463   2.098   4.999
  112OSM   C17S11570   4.620   1.947   4.961
  112OSM   H17S11571   4.557   1.872   4.908
  112OSM   H17T11572   4.689   1.895   5.031
  112OSM   C18S11573   4.695   2.018   4.854
  112OSM   H18S11574   4.756   1.952   4.789
  112OSM   H18T11575   4.778   2.069   4.907
  112OSM   H18U11576   4.627   2.084   4.796
  112OSM    C1F11577   3.866   1.167   6.159
  112OSM     OF11578   3.748   1.161   6.188
  112OSM    C2F11579   3.941   1.064   6.075
  112OSM    H2F11580   4.028   1.043   6.140
  112OSM    H2G11581   3.975   1.128   5.992
  112OSM    C3F11582   3.875   0.925   6.051
  112OSM    H3F11583   3.776   0.943   6.003
  112OSM    H3G11584   3.866   0.874   6.150
  112OSM    C4F11585   3.955   0.839   5.955
  112OSM    H4F11586   3.942   0.730   5.966
  112OSM    H4G11587   4.064   0.848   5.975
  112OSM    C5F11588   3.930   0.877   5.803
  112OSM    H5F11589   4.028   0.882   5.752
  112OSM    H5G11590   3.879   0.975   5.789
  112OSM    C6F11591   3.837   0.775   5.734
  112OSM    H6F11592   3.890   0.677   5.736
  112OSM    H6G11593   3.841   0.800   5.626
  112OSM    C7F11594   3.693   0.779   5.771
  112OSM    H7F11595   3.643   0.873   5.737
  112OSM    H7G11596   3.696   0.774   5.882
  112OSM    C8F11597   3.619   0.644   5.726
  112OSM    H8F11598   3.667   0.553   5.765
  112OSM    H8G11599   3.632   0.640   5.616
  112OSM    C9F11600   3.473   0.628   5.768
  112OSM    H9F11601   3.452   0.598   5.871
  112OSM   C10F11602   3.372   0.650   5.687
  112OSM   H10F11603   3.270   0.645   5.727
  112OSM   C11F11604   3.369   0.689   5.548
  112OSM   H11F11605   3.468   0.707   5.502
  112OSM   H11G11606   3.316   0.786   5.551
  112OSM   C12F11607   3.302   0.587   5.457
  112OSM   H12F11608   3.197   0.572   5.490
  112OSM   H12G11609   3.357   0.490   5.461
  112OSM   C13F11610   3.302   0.639   5.314
  112OSM   H13F11611   3.400   0.629   5.262
  112OSM   H13G11612   3.294   0.750   5.312
  112OSM   C14F11613   3.196   0.568   5.226
  112OSM   H14F11614   3.096   0.590   5.270
  112OSM   H14G11615   3.218   0.459   5.230
  112OSM   C15F11616   3.202   0.610   5.079
  112OSM   H15F11617   3.287   0.550   5.041
  112OSM   H15G11618   3.218   0.720   5.081
  112OSM   C16F11619   3.078   0.571   4.998
  112OSM   H16F11620   3.077   0.619   4.897
  112OSM   H16G11621   2.990   0.575   5.066
  112OSM   C17F11622   3.080   0.423   4.973
  112OSM   H17F11623   3.071   0.366   5.067
  112OSM   H17G11624   3.181   0.398   4.935
  112OSM   C18F11625   2.962   0.386   4.879
  112OSM   H18F11626   2.861   0.411   4.916
  112OSM   H18G11627   2.971   0.277   4.858
  112OSM   H18H11628   2.974   0.439   4.782
  113OSM      N11629   0.991   1.694   6.500
  113OSM    C1511630   0.896   1.731   6.605
  113OSM   H15A11631   0.874   1.836   6.612
  113OSM   H15B11632   0.934   1.715   6.705
  113OSM   H15C11633   0.809   1.667   6.604
  113OSM    C1411634   0.926   1.723   6.368
  113OSM   H14A11635   0.991   1.724   6.283
  113OSM   H14B11636   0.876   1.819   6.375
  113OSM   H14C11637   0.852   1.647   6.349
  113OSM    C1311638   1.111   1.781   6.507
  113OSM   H13A11639   1.077   1.884   6.514
  113OSM   H13B11640   1.173   1.772   6.419
  113OSM   H13C11641   1.174   1.769   6.594
  113OSM    C1211642   1.029   1.543   6.502
  113OSM   H12A11643   1.092   1.530   6.589
  113OSM   H12B11644   1.093   1.514   6.419
  113OSM    C1111645   0.908   1.445   6.509
  113OSM   H11A11646   0.859   1.459   6.608
  113OSM   H11B11647   0.923   1.335   6.512
  113OSM      P11648   0.660   1.473   6.416
  113OSM    O1311649   0.605   1.334   6.436
  113OSM    O1411650   0.632   1.568   6.525
  113OSM    O1111651   0.606   1.528   6.275
  113OSM    O1211652   0.814   1.459   6.399
  113OSM    C1S11653   0.610   1.454   6.157
  113OSM    H1S11654   0.583   1.349   6.181
  113OSM    H1T11655   0.708   1.457   6.105
  113OSM     NF11656   0.492   1.424   5.945
  113OSM    HNF11657   0.543   1.451   5.863
  113OSM    C2S11658   0.499   1.510   6.058
  113OSM    H2S11659   0.405   1.506   6.117
  113OSM    C3S11660   0.517   1.665   6.036
  113OSM    H3S11661   0.619   1.682   5.996
  113OSM     O311662   0.508   1.762   6.142
  113OSM    HO311663   0.522   1.715   6.224
  113OSM    C4S11664   0.432   1.713   5.919
  113OSM    H4S11665   0.487   1.717   5.824
  113OSM    C5S11666   0.302   1.744   5.915
  113OSM    H5S11667   0.243   1.732   6.007
  113OSM    C6S11668   0.223   1.813   5.802
  113OSM    H6S11669   0.214   1.920   5.831
  113OSM    H6T11670   0.117   1.782   5.795
  113OSM    C7S11671   0.288   1.824   5.669
  113OSM    H7S11672   0.313   1.730   5.614
  113OSM    H7T11673   0.375   1.892   5.677
  113OSM    C8S11674   0.196   1.891   5.562
  113OSM    H8S11675   0.174   1.994   5.597
  113OSM    H8T11676   0.107   1.828   5.540
  113OSM    C9S11677   0.267   1.905   5.425
  113OSM    H9S11678   0.329   1.816   5.401
  113OSM    H9T11679   0.334   1.993   5.430
  113OSM   C10S11680   0.162   1.934   5.321
  113OSM   H10S11681   0.101   2.018   5.362
  113OSM   H10T11682   0.090   1.851   5.303
  113OSM   C11S11683   0.224   1.984   5.183
  113OSM   H11S11684   0.296   2.066   5.206
  113OSM   H11T11685   0.139   2.031   5.128
  113OSM   C12S11686   0.274   1.877   5.090
  113OSM   H12S11687   0.340   1.815   5.154
  113OSM   H12T11688   0.345   1.933   5.024
  113OSM   C13S11689   0.178   1.809   4.990
  113OSM   H13S11690   0.100   1.752   5.046
  113OSM   H13T11691   0.235   1.733   4.933
  113OSM   C14S11692   0.107   1.909   4.896
  113OSM   H14S11693   0.029   1.974   4.942
  113OSM   H14T11694   0.054   1.839   4.828
  113OSM   C15S11695   0.205   2.005   4.828
  113OSM   H15S11696   0.295   1.949   4.795
  113OSM   H15T11697   0.241   2.086   4.895
  113OSM   C16S11698   0.132   2.069   4.696
  113OSM   H16S11699   0.184   2.162   4.664
  113OSM   H16T11700   0.035   2.098   4.741
  113OSM   C17S11701   0.094   1.976   4.577
  113OSM   H17S11702   0.018   1.902   4.610
  113OSM   H17T11703   0.189   1.919   4.569
  113OSM   C18S11704   0.055   2.043   4.452
  113OSM   H18S11705   6.848   2.103   4.456
  113OSM   H18T11706   0.043   1.971   4.368
  113OSM   H18U11707   0.131   2.117   4.418
  113OSM    C1F11708   0.428   1.309   5.952
  113OSM     OF11709   0.365   1.275   6.053
  113OSM    C2F11710   0.437   1.229   5.821
  113OSM    H2F11711   0.541   1.244   5.785
  113OSM    H2G11712   0.370   1.283   5.750
  113OSM    C3F11713   0.410   1.083   5.833
  113OSM    H3F11714   0.315   1.066   5.886
  113OSM    H3G11715   0.486   1.033   5.896
  113OSM    C4F11716   0.393   1.005   5.703
  113OSM    H4F11717   0.386   0.896   5.721
  113OSM    H4G11718   0.488   1.019   5.647
  113OSM    C5F11719   0.267   1.039   5.624
  113OSM    H5F11720   0.268   1.147   5.599
  113OSM    H5G11721   0.180   1.031   5.693
  113OSM    C6F11722   0.248   0.961   5.492
  113OSM    H6F11723   0.238   0.855   5.523
  113OSM    H6G11724   0.337   0.969   5.426
  113OSM    C7F11725   0.117   0.994   5.422
  113OSM    H7F11726   0.092   1.102   5.415
  113OSM    H7G11727   0.033   0.960   5.487
  113OSM    C8F11728   0.087   0.924   5.288
  113OSM    H8F11729   6.867   0.938   5.262
  113OSM    H8G11730   0.090   0.813   5.300
  113OSM    C9F11731   0.177   0.955   5.174
  113OSM    H9F11732   0.176   1.059   5.138
  113OSM   C10F11733   0.270   0.876   5.121
  113OSM   H10F11734   0.327   0.912   5.034
  113OSM   C11F11735   0.305   0.738   5.177
  113OSM   H11F11736   0.262   0.716   5.278
  113OSM   H11G11737   0.414   0.723   5.193
  113OSM   C12F11738   0.272   0.624   5.080
  113OSM   H12F11739   0.166   0.632   5.047
  113OSM   H12G11740   0.280   0.526   5.132
  113OSM   C13F11741   0.361   0.629   4.954
  113OSM   H13F11742   0.467   0.637   4.986
  113OSM   H13G11743   0.334   0.722   4.899
  113OSM   C14F11744   0.336   0.516   4.857
  113OSM   H14F11745   0.233   0.525   4.816
  113OSM   H14G11746   0.340   0.415   4.902
  113OSM   C15F11747   0.435   0.525   4.739
  113OSM   H15F11748   0.538   0.506   4.777
  113OSM   H15G11749   0.433   0.626   4.694
  113OSM   C16F11750   0.404   0.424   4.620
  113OSM   H16F11751   0.298   0.445   4.594
  113OSM   H16G11752   0.412   0.316   4.642
  113OSM   C17F11753   0.484   0.465   4.499
  113OSM   H17F11754   0.471   0.572   4.473
  113OSM   H17G11755   0.442   0.414   4.410
  113OSM   C18F11756   0.629   0.428   4.506
  113OSM   H18F11757   0.686   0.515   4.542
  113OSM   H18G11758   0.663   0.423   4.400
  113OSM   H18H11759   0.654   0.338   4.566
  114OSM      N11760   6.510   6.483   6.886
  114OSM    C1511761   6.435   6.409   6.994
  114OSM   H15A11762   6.456   6.304   6.981
  114OSM   H15B11763   6.330   6.431   6.987
  114OSM   H15C11764   6.462   6.446   7.092
  114OSM    C1411765   6.656   6.471   6.908
  114OSM   H14A11766   6.690   6.370   6.919
  114OSM   H14B11767   6.681   6.511   7.005
  114OSM   H14C11768   6.730   6.505   6.837
  114OSM    C1311769   6.486   6.412   6.753
  114OSM   H13A11770   6.381   6.422   6.730
  114OSM   H13B11771   6.514   6.308   6.754
  114OSM   H13C11772   6.533   6.470   6.675
  114OSM    C1211773   6.478   6.627   6.869
  114OSM   H12A11774   6.385   6.633   6.815
  114OSM   H12B11775   6.562   6.664   6.811
  114OSM    C1111776   6.478   6.716   6.992
  114OSM   H11A11777   6.413   6.675   7.073
  114OSM   H11B11778   6.441   6.816   6.962
  114OSM      P11779   6.710   6.835   6.990
  114OSM    O1311780   6.672   0.077   7.054
  114OSM    O1411781   6.841   6.784   7.018
  114OSM    O1111782   6.677   6.852   6.832
  114OSM    O1211783   6.611   6.722   7.040
  114OSM    C1S11784   6.758   6.783   6.739
  114OSM    H1S11785   6.772   6.677   6.767
  114OSM    H1T11786   6.855   6.837   6.727
  114OSM     NF11787   6.766   6.695   6.509
  114OSM    HNF11788   6.801   6.730   6.422
  114OSM    C2S11789   6.686   6.783   6.603
  114OSM    H2S11790   6.587   6.735   6.619
  114OSM    C3S11791   6.659   0.044   6.562
  114OSM    H3S11792   6.754   0.096   6.537
  114OSM     O311793   6.600   0.135   6.657
  114OSM    HO311794   6.610   0.084   6.737
  114OSM    C4S11795   6.572   0.047   6.446
  114OSM    H4S11796   6.471   0.013   6.473
  114OSM    C5S11797   6.594   0.085   6.323
  114OSM    H5S11798   6.694   0.124   6.301
  114OSM    C6S11799   6.500   0.070   6.215
  114OSM    H6S11800   6.551   0.060   6.117
  114OSM    H6T11801   6.455   0.170   6.198
  114OSM    C7S11802   6.386   6.861   6.209
  114OSM    H7S11803   6.319   6.886   6.123
  114OSM    H7T11804   6.326   6.877   6.301
  114OSM    C8S11805   6.434   6.714   6.205
  114OSM    H8S11806   6.354   6.642   6.232
  114OSM    H8T11807   6.508   6.709   6.287
  114OSM    C9S11808   6.501   6.665   6.077
  114OSM    H9S11809   6.573   6.584   6.103
  114OSM    H9T11810   6.551   6.745   6.019
  114OSM   C10S11811   6.393   6.610   5.984
  114OSM   H10S11812   6.328   6.693   5.949
  114OSM   H10T11813   6.330   6.539   6.042
  114OSM   C11S11814   6.454   6.529   5.862
  114OSM   H11S11815   6.378   6.462   5.816
  114OSM   H11T11816   6.536   6.467   5.902
  114OSM   C12S11817   6.530   6.614   5.753
  114OSM   H12S11818   6.620   6.664   5.796
  114OSM   H12T11819   6.470   6.700   5.717
  114OSM   C13S11820   6.586   6.549   5.627
  114OSM   H13S11821   6.501   6.505   5.571
  114OSM   H13T11822   6.655   6.466   5.650
  114OSM   C14S11823   6.674   6.643   5.545
  114OSM   H14S11824   6.756   6.694   5.600
  114OSM   H14T11825   6.619   6.731   5.508
  114OSM   C15S11826   6.718   6.576   5.406
  114OSM   H15S11827   6.773   6.483   5.430
  114OSM   H15T11828   6.795   6.643   5.360
  114OSM   C16S11829   6.604   6.549   5.307
  114OSM   H16S11830   6.547   6.641   5.282
  114OSM   H16T11831   6.532   6.483   5.361
  114OSM   C17S11832   6.640   6.486   5.176
  114OSM   H17S11833   6.708   6.401   5.198
  114OSM   H17T11834   6.700   6.564   5.125
  114OSM   C18S11835   6.519   6.447   5.092
  114OSM   H18S11836   6.455   6.535   5.068
  114OSM   H18T11837   6.467   6.370   5.152
  114OSM   H18U11838   6.554   6.398   4.998
  114OSM    C1F11839   6.778   6.567   6.511
  114OSM     OF11840   6.707   6.505   6.589
  114OSM    C2F11841   6.875   6.508   6.408
  114OSM    H2F11842   0.045   6.435   6.468
  114OSM    H2G11843   0.048   6.595   6.373
  114OSM    C3F11844   6.803   6.434   6.291
  114OSM    H3F11845   6.751   6.511   6.231
  114OSM    H3G11846   6.742   6.354   6.337
  114OSM    C4F11847   0.027   6.377   6.214
  114OSM    H4F11848   0.105   6.324   6.272
  114OSM    H4G11849   0.084   6.453   6.157
  114OSM    C5F11850   6.864   6.277   6.113
  114OSM    H5F11851   6.766   6.304   6.068
  114OSM    H5G11852   6.840   6.177   6.154
  114OSM    C6F11853   0.069   6.255   5.992
  114OSM    H6F11854   0.035   6.171   5.928
  114OSM    H6G11855   0.176   6.242   6.021
  114OSM    C7F11856   0.068   6.376   5.894
  114OSM    H7F11857   0.139   6.449   5.939
  114OSM    H7G11858   6.858   6.430   5.894
  114OSM    C8F11859   0.099   6.334   5.746
  114OSM    H8F11860   0.058   6.415   5.681
  114OSM    H8G11861   0.039   6.242   5.728
  114OSM    C9F11862   0.241   6.288   5.718
  114OSM    H9F11863   0.288   6.246   5.808
  114OSM   C10F11864   0.309   6.298   5.602
  114OSM   H10F11865   0.414   6.265   5.605
  114OSM   C11F11866   0.257   6.358   5.471
  114OSM   H11F11867   0.329   6.439   5.445
  114OSM   H11G11868   0.162   6.412   5.490
  114OSM   C12F11869   0.249   6.267   5.347
  114OSM   H12F11870   0.202   6.168   5.366
  114OSM   H12G11871   0.350   6.239   5.311
  114OSM   C13F11872   0.174   6.336   5.234
  114OSM   H13F11873   0.190   6.446   5.238
  114OSM   H13G11874   0.068   6.311   5.256
  114OSM   C14F11875   0.221   6.286   5.091
  114OSM   H14F11876   0.189   6.183   5.067
  114OSM   H14G11877   0.330   6.296   5.106
  114OSM   C15F11878   0.169   6.379   4.977
  114OSM   H15F11879   0.230   6.354   4.888
  114OSM   H15G11880   0.198   6.486   4.988
  114OSM   C16F11881   0.018   6.368   4.956
  114OSM   H16F11882   6.850   6.385   5.051
  114OSM   H16G11883   6.884   6.267   4.914
  114OSM   C17F11884   6.860   6.456   4.845
  114OSM   H17F11885   0.006   6.556   4.881
  114OSM   H17G11886   6.751   6.471   4.832
  114OSM   C18F11887   0.020   6.432   4.700
  114OSM   H18F11888   6.853   6.343   4.659
  114OSM   H18G11889   0.127   6.404   4.696
  114OSM   H18H11890   0.008   6.527   4.645
  115OSM      N11891   6.819   1.932   6.688
  115OSM    C1511892   6.818   1.872   6.825
  115OSM   H15A11893   6.846   1.768   6.823
  115OSM   H15B11894   6.726   1.877   6.882
  115OSM   H15C11895   6.887   1.920   6.893
  115OSM    C1411896   0.066   1.895   6.631
  115OSM   H14A11897   0.069   1.788   6.617
  115OSM   H14B11898   0.145   1.920   6.701
  115OSM   H14C11899   0.085   1.953   6.542
  115OSM    C1311900   6.706   1.877   6.610
  115OSM   H13A11901   6.707   1.880   6.502
  115OSM   H13B11902   6.609   1.908   6.643
  115OSM   H13C11903   6.701   1.770   6.628
  115OSM    C1211904   6.815   2.083   6.682
  115OSM   H12A11905   6.833   2.133   6.588
  115OSM   H12B11906   0.006   2.127   6.744
  115OSM    C1111907   6.686   2.147   6.737
  115OSM   H11A11908   6.676   2.096   6.836
  115OSM   H11B11909   6.604   2.120   6.668
  115OSM      P11910   6.583   2.370   6.816
  115OSM    O1311911   6.465   2.285   6.829
  115OSM    O1411912   6.636   2.428   6.937
  115OSM    O1111913   6.559   2.485   6.715
  115OSM    O1211914   6.706   2.286   6.760
  115OSM    C1S11915   6.597   2.466   6.583
  115OSM    H1S11916   6.536   2.383   6.543
  115OSM    H1T11917   6.707   2.454   6.570
  115OSM     NF11918   6.555   2.544   6.351
  115OSM    HNF11919   6.620   2.584   6.286
  115OSM    C2S11920   6.560   2.586   6.493
  115OSM    H2S11921   6.453   2.605   6.512
  115OSM    C3S11922   6.633   2.720   6.529
  115OSM    H3S11923   6.738   2.711   6.492
  115OSM     O311924   6.659   2.740   6.670
  115OSM    HO311925   6.630   2.656   6.707
  115OSM    C4S11926   6.561   2.842   6.479
  115OSM    H4S11927   6.622   2.905   6.413
  115OSM    C5S11928   6.442   2.890   6.522
  115OSM    H5S11929   6.388   2.839   6.603
  115OSM    C6S11930   6.378   3.018   6.497
  115OSM    H6S11931   6.383   3.086   6.584
  115OSM    H6T11932   6.272   3.008   6.464
  115OSM    C7S11933   6.452   3.110   6.398
  115OSM    H7S11934   6.562   3.112   6.411
  115OSM    H7T11935   6.407   3.209   6.419
  115OSM    C8S11936   6.427   3.080   6.248
  115OSM    H8S11937   6.318   3.061   6.247
  115OSM    H8T11938   6.469   2.979   6.224
  115OSM    C9S11939   6.469   3.195   6.162
  115OSM    H9S11940   6.434   3.296   6.191
  115OSM    H9T11941   6.428   3.170   6.062
  115OSM   C10S11942   6.616   3.212   6.155
  115OSM   H10S11943   6.661   3.131   6.095
  115OSM   H10T11944   6.658   3.220   6.258
  115OSM   C11S11945   6.655   3.344   6.083
  115OSM   H11S11946   6.763   3.357   6.103
  115OSM   H11T11947   6.600   3.423   6.139
  115OSM   C12S11948   6.614   3.350   5.940
  115OSM   H12S11949   6.507   3.369   5.920
  115OSM   H12T11950   6.653   3.262   5.884
  115OSM   C13S11951   6.667   3.477   5.876
  115OSM   H13S11952   6.776   3.477   5.898
  115OSM   H13T11953   6.610   3.562   5.919
  115OSM   C14S11954   6.665   3.470   5.724
  115OSM   H14S11955   6.561   3.440   5.699
  115OSM   H14T11956   6.723   3.380   5.695
  115OSM   C15S11957   6.692   3.607   5.659
  115OSM   H15S11958   6.799   3.620   5.685
  115OSM   H15T11959   6.642   3.698   5.701
  115OSM   C16S11960   6.655   3.610   5.510
  115OSM   H16S11961   6.628   3.715   5.486
  115OSM   H16T11962   6.561   3.554   5.491
  115OSM   C17S11963   6.770   3.571   5.420
  115OSM   H17S11964   6.798   3.467   5.449
  115OSM   H17T11965   6.856   3.637   5.444
  115OSM   C18S11966   6.729   3.558   5.268
  115OSM   H18S11967   6.636   3.502   5.245
  115OSM   H18T11968   6.806   3.495   5.219
  115OSM   H18U11969   6.734   3.660   5.224
  115OSM    C1F11970   6.469   2.454   6.298
  115OSM     OF11971   6.386   2.397   6.373
  115OSM    C2F11972   6.477   2.429   6.147
  115OSM    H2F11973   6.585   2.421   6.123
  115OSM    H2G11974   6.422   2.509   6.094
  115OSM    C3F11975   6.421   2.282   6.116
  115OSM    H3F11976   6.317   2.254   6.144
  115OSM    H3G11977   6.495   2.215   6.164
  115OSM    C4F11978   6.425   2.256   5.965
  115OSM    H4F11979   6.420   2.147   5.946
  115OSM    H4G11980   6.524   2.291   5.929
  115OSM    C5F11981   6.291   2.311   5.893
  115OSM    H5F11982   6.287   2.404   5.953
  115OSM    H5G11983   6.209   2.239   5.915
  115OSM    C6F11984   6.321   2.318   5.744
  115OSM    H6F11985   6.219   2.316   5.700
  115OSM    H6G11986   6.379   2.232   5.706
  115OSM    C7F11987   6.390   2.444   5.696
  115OSM    H7F11988   6.475   2.459   5.767
  115OSM    H7G11989   6.325   2.532   5.719
  115OSM    C8F11990   6.450   2.437   5.557
  115OSM    H8F11991   6.522   2.356   5.532
  115OSM    H8G11992   6.514   2.528   5.557
  115OSM    C9F11993   6.332   2.441   5.463
  115OSM    H9F11994   6.251   2.374   5.497
  115OSM   C10F11995   6.314   2.517   5.351
  115OSM   H10F11996   6.223   2.505   5.291
  115OSM   C11F11997   6.413   2.608   5.284
  115OSM   H11F11998   6.518   2.572   5.291
  115OSM   H11G11999   6.399   2.708   5.330
  115OSM   C12F12000   6.380   2.615   5.133
  115OSM   H12F12001   6.273   2.636   5.113
  115OSM   H12G12002   6.408   2.516   5.093
  115OSM   C13F12003   6.473   2.703   5.042
  115OSM   H13F12004   6.579   2.670   5.051
  115OSM   H13G12005   6.470   2.808   5.079
  115OSM   C14F12006   6.424   2.711   4.902
  115OSM   H14F12007   6.321   2.751   4.901
  115OSM   H14G12008   6.419   2.610   4.856
  115OSM   C15F12009   6.522   2.795   4.815
  115OSM   H15F12010   6.624   2.765   4.845
  115OSM   H15G12011   6.505   2.902   4.843
  115OSM   C16F12012   6.500   2.781   4.663
  115OSM   H16F12013   6.403   2.823   4.629
  115OSM   H16G12014   6.505   2.673   4.636
  115OSM   C17F12015   6.611   2.853   4.581
  115OSM   H17F12016   6.578   2.838   4.476
  115OSM   H17G12017   6.703   2.791   4.591
  115OSM   C18F12018   6.646   2.997   4.624
  115OSM   H18F12019   6.665   3.001   4.734
  115OSM   H18G12020   6.555   3.056   4.598
  115OSM   H18H12021   6.734   3.042   4.574
  116OSM      N12022   1.222   1.060   6.677
  116OSM    C1512023   1.072   1.030   6.693
  116OSM   H15A12024   1.061   0.931   6.734
  116OSM   H15B12025   1.032   1.030   6.593
  116OSM   H15C12026   1.024   1.097   6.763
  116OSM    C1412027   1.286   1.043   6.818
  116OSM   H14A12028   1.274   0.943   6.856
  116OSM   H14B12029   1.258   1.117   6.891
  116OSM   H14C12030   1.392   1.063   6.806
  116OSM    C1312031   1.277   0.951   6.591
  116OSM   H13A12032   1.228   0.858   6.614
  116OSM   H13B12033   1.384   0.937   6.594
  116OSM   H13C12034   1.245   0.965   6.488
  116OSM    C1212035   1.249   1.201   6.627
  116OSM   H12A12036   1.352   1.232   6.630
  116OSM   H12B12037   1.203   1.273   6.693
  116OSM    C1112038   1.209   1.227   6.475
  116OSM   H11A12039   1.099   1.210   6.464
  116OSM   H11B12040   1.261   1.151   6.414
  116OSM      P12041   1.370   1.396   6.370
  116OSM    O1312042   1.403   1.532   6.403
  116OSM    O1412043   1.478   1.293   6.394
  116OSM    O1112044   1.335   1.391   6.215
  116OSM    O1212045   1.239   1.365   6.447
  116OSM    C1S12046   1.204   1.421   6.162
  116OSM    H1S12047   1.144   1.493   6.221
  116OSM    H1T12048   1.150   1.324   6.154
  116OSM     NF12049   1.088   1.531   5.984
  116OSM    HNF12050   1.026   1.465   5.942
  116OSM    C2S12051   1.218   1.482   6.021
  116OSM    H2S12052   1.288   1.568   6.021
  116OSM    C3S12053   1.268   1.380   5.921
  116OSM    H3S12054   1.180   1.313   5.916
  116OSM     O312055   1.376   1.302   5.963
  116OSM    HO312056   1.391   1.324   6.055
  116OSM    C4S12057   1.280   1.442   5.782
  116OSM    H4S12058   1.198   1.415   5.714
  116OSM    C5S12059   1.389   1.499   5.736
  116OSM    H5S12060   1.476   1.499   5.804
  116OSM    C6S12061   1.394   1.558   5.594
  116OSM    H6S12062   1.476   1.633   5.589
  116OSM    H6T12063   1.302   1.618   5.574
  116OSM    C7S12064   1.424   1.454   5.480
  116OSM    H7S12065   1.333   1.390   5.477
  116OSM    H7T12066   1.512   1.396   5.517
  116OSM    C8S12067   1.443   1.518   5.342
  116OSM    H8S12068   1.531   1.582   5.365
  116OSM    H8T12069   1.352   1.572   5.309
  116OSM    C9S12070   1.477   1.409   5.236
  116OSM    H9S12071   1.395   1.334   5.241
  116OSM    H9T12072   1.578   1.369   5.261
  116OSM   C10S12073   1.487   1.470   5.098
  116OSM   H10S12074   1.539   1.568   5.106
  116OSM   H10T12075   1.383   1.485   5.064
  116OSM   C11S12076   1.563   1.380   5.014
  116OSM   H11S12077   1.506   1.285   5.015
  116OSM   H11T12078   1.666   1.350   5.045
  116OSM   C12S12079   1.577   1.423   4.869
  116OSM   H12S12080   1.676   1.472   4.865
  116OSM   H12T12081   1.502   1.496   4.831
  116OSM   C13S12082   1.579   1.309   4.771
  116OSM   H13S12083   1.609   1.360   4.677
  116OSM   H13T12084   1.474   1.273   4.772
  116OSM   C14S12085   1.689   1.204   4.791
  116OSM   H14S12086   1.665   1.139   4.878
  116OSM   H14T12087   1.788   1.245   4.822
  116OSM   C15S12088   1.715   1.113   4.671
  116OSM   H15S12089   1.613   1.079   4.643
  116OSM   H15T12090   1.777   1.028   4.706
  116OSM   C16S12091   1.789   1.175   4.553
  116OSM   H16S12092   1.889   1.210   4.587
  116OSM   H16T12093   1.727   1.253   4.503
  116OSM   C17S12094   1.824   1.057   4.462
  116OSM   H17S12095   1.730   1.012   4.425
  116OSM   H17T12096   1.888   0.981   4.514
  116OSM   C18S12097   1.906   1.097   4.341
  116OSM   H18S12098   2.003   1.141   4.372
  116OSM   H18T12099   1.858   1.163   4.265
  116OSM   H18U12100   1.934   1.007   4.282
  116OSM    C1F12101   1.046   1.661   6.008
  116OSM     OF12102   1.125   1.746   6.047
  116OSM    C2F12103   0.904   1.694   5.985
  116OSM    H2F12104   0.838   1.660   6.067
  116OSM    H2G12105   0.868   1.630   5.901
  116OSM    C3F12106   0.875   1.836   5.942
  116OSM    H3F12107   0.914   1.904   6.020
  116OSM    H3G12108   0.765   1.846   5.930
  116OSM    C4F12109   0.934   1.870   5.810
  116OSM    H4F12110   1.045   1.868   5.808
  116OSM    H4G12111   0.917   1.978   5.788
  116OSM    C5F12112   0.872   1.793   5.682
  116OSM    H5F12113   0.762   1.807   5.674
  116OSM    H5G12114   0.890   1.685   5.701
  116OSM    C6F12115   0.934   1.845   5.552
  116OSM    H6F12116   0.967   1.951   5.558
  116OSM    H6G12117   0.849   1.823   5.483
  116OSM    C7F12118   1.063   1.767   5.511
  116OSM    H7F12119   1.037   1.659   5.523
  116OSM    H7G12120   1.141   1.780   5.588
  116OSM    C8F12121   1.122   1.781   5.371
  116OSM    H8F12122   1.212   1.718   5.381
  116OSM    H8G12123   1.153   1.886   5.352
  116OSM    C9F12124   1.021   1.749   5.262
  116OSM    H9F12125   0.921   1.781   5.295
  116OSM   C10F12126   1.033   1.700   5.137
  116OSM   H10F12127   0.949   1.685   5.067
  116OSM   C11F12128   1.164   1.659   5.077
  116OSM   H11F12129   1.188   1.553   5.103
  116OSM   H11G12130   1.238   1.717   5.137
  116OSM   C12F12131   1.190   1.683   4.926
  116OSM   H12F12132   1.169   1.594   4.864
  116OSM   H12G12133   1.296   1.714   4.914
  116OSM   C13F12134   1.120   1.799   4.857
  116OSM   H13F12135   1.141   1.895   4.910
  116OSM   H13G12136   1.010   1.787   4.856
  116OSM   C14F12137   1.178   1.819   4.713
  116OSM   H14F12138   1.131   1.728   4.670
  116OSM   H14G12139   1.289   1.810   4.706
  116OSM   C15F12140   1.133   1.949   4.647
  116OSM   H15F12141   1.178   2.041   4.688
  116OSM   H15G12142   1.024   1.955   4.667
  116OSM   C16F12143   1.147   1.948   4.494
  116OSM   H16F12144   1.116   1.849   4.454
  116OSM   H16G12145   1.256   1.936   4.472
  116OSM   C17F12146   1.076   2.055   4.423
  116OSM   H17F12147   1.102   2.146   4.480
  116OSM   H17G12148   0.965   2.050   4.432
  116OSM   C18F12149   1.114   2.065   4.272
  116OSM   H18F12150   1.044   2.137   4.225
  116OSM   H18G12151   1.096   1.962   4.236
  116OSM   H18H12152   1.220   2.097   4.260
  117OSM      N12153   0.425   4.032   6.788
  117OSM    C1512154   0.578   4.032   6.815
  117OSM   H15A12155   0.599   4.080   6.909
  117OSM   H15B12156   0.630   4.089   6.740
  117OSM   H15C12157   0.625   3.935   6.823
  117OSM    C1412158   0.391   3.941   6.679
  117OSM   H14A12159   0.288   3.910   6.675
  117OSM   H14B12160   0.440   3.845   6.689
  117OSM   H14C12161   0.412   3.982   6.581
  117OSM    C1312162   0.356   3.978   6.913
  117OSM   H13A12163   0.251   4.005   6.909
  117OSM   H13B12164   0.397   4.033   6.997
  117OSM   H13C12165   0.363   3.871   6.920
  117OSM    C1212166   0.376   4.177   6.763
  117OSM   H12A12167   0.393   4.235   6.852
  117OSM   H12B12168   0.273   4.176   6.730
  117OSM    C1112169   0.443   4.271   6.654
  117OSM   H11A12170   0.381   4.362   6.637
  117OSM   H11B12171   0.435   4.219   6.557
  117OSM      P12172   0.592   4.419   6.789
  117OSM    O1312173   0.477   4.421   6.883
  117OSM    O1412174   0.722   4.411   6.853
  117OSM    O1112175   0.586   4.555   6.719
  117OSM    O1212176   0.574   4.300   6.683
  117OSM    C1S12177   0.675   4.587   6.606
  117OSM    H1S12178   0.766   4.523   6.607
  117OSM    H1T12179   0.712   4.691   6.607
  117OSM     NF12180   0.699   4.595   6.353
  117OSM    HNF12181   0.679   4.678   6.301
  117OSM    C2S12182   0.610   4.555   6.461
  117OSM    H2S12183   0.587   4.446   6.461
  117OSM    C3S12184   0.464   4.611   6.441
  117OSM    H3S12185   0.480   4.721   6.452
  117OSM     O312186   0.376   4.581   6.544
  117OSM    HO312187   0.437   4.574   6.618
  117OSM    C4S12188   0.398   4.591   6.308
  117OSM    H4S12189   0.375   4.684   6.252
  117OSM    C5S12190   0.329   4.476   6.271
  117OSM    H5S12191   0.308   4.390   6.336
  117OSM    C6S12192   0.233   4.472   6.151
  117OSM    H6S12193   0.144   4.420   6.193
  117OSM    H6T12194   0.262   4.421   6.057
  117OSM    C7S12195   0.149   4.591   6.101
  117OSM    H7S12196   0.224   4.669   6.078
  117OSM    H7T12197   0.082   4.638   6.177
  117OSM    C8S12198   0.071   4.553   5.966
  117OSM    H8S12199   6.886   4.473   5.992
  117OSM    H8T12200   0.139   4.499   5.898
  117OSM    C9S12201   0.010   4.669   5.884
  117OSM    H9S12202   0.092   4.738   5.854
  117OSM    H9T12203   6.811   4.721   5.931
  117OSM   C10S12204   6.845   4.611   5.747
  117OSM   H10S12205   6.805   4.509   5.765
  117OSM   H10T12206   0.040   4.596   5.673
  117OSM   C11S12207   6.718   4.683   5.690
  117OSM   H11S12208   6.749   4.784   5.657
  117OSM   H11T12209   6.636   4.703   5.763
  117OSM   C12S12210   6.657   4.619   5.557
  117OSM   H12S12211   6.624   4.516   5.585
  117OSM   H12T12212   6.736   4.617   5.479
  117OSM   C13S12213   6.529   4.692   5.511
  117OSM   H13S12214   6.554   4.800   5.514
  117OSM   H13T12215   6.452   4.685   5.591
  117OSM   C14S12216   6.477   4.653   5.372
  117OSM   H14S12217   6.384   4.711   5.359
  117OSM   H14T12218   6.449   4.545   5.370
  117OSM   C15S12219   6.578   4.686   5.258
  117OSM   H15S12220   6.678   4.659   5.298
  117OSM   H15T12221   6.590   4.793   5.232
  117OSM   C16S12222   6.541   4.607   5.130
  117OSM   H16S12223   6.457   4.649   5.071
  117OSM   H16T12224   6.522   4.500   5.149
  117OSM   C17S12225   6.661   4.608   5.031
  117OSM   H17S12226   6.743   4.572   5.097
  117OSM   H17T12227   6.694   4.707   4.993
  117OSM   C18S12228   6.641   4.519   4.912
  117OSM   H18S12229   6.739   4.510   4.860
  117OSM   H18T12230   6.567   4.565   4.843
  117OSM   H18U12231   6.628   4.415   4.948
  117OSM    C1F12232   0.796   4.516   6.316
  117OSM     OF12233   0.802   4.395   6.353
  117OSM    C2F12234   0.904   4.566   6.221
  117OSM    H2F12235   0.988   4.612   6.278
  117OSM    H2G12236   0.863   4.649   6.159
  117OSM    C3F12237   0.955   4.453   6.132
  117OSM    H3F12238   0.876   4.404   6.070
  117OSM    H3G12239   1.002   4.373   6.194
  117OSM    C4F12240   1.049   4.517   6.023
  117OSM    H4F12241   1.141   4.564   6.061
  117OSM    H4G12242   0.993   4.600   5.975
  117OSM    C5F12243   1.079   4.413   5.914
  117OSM    H5F12244   0.982   4.359   5.903
  117OSM    H5G12245   1.160   4.353   5.960
  117OSM    C6F12246   1.110   4.480   5.783
  117OSM    H6F12247   1.207   4.533   5.784
  117OSM    H6G12248   1.028   4.555   5.769
  117OSM    C7F12249   1.104   4.372   5.669
  117OSM    H7F12250   1.009   4.317   5.687
  117OSM    H7G12251   1.184   4.295   5.675
  117OSM    C8F12252   1.079   4.431   5.527
  117OSM    H8F12253   1.162   4.500   5.499
  117OSM    H8G12254   0.991   4.499   5.529
  117OSM    C9F12255   1.064   4.323   5.425
  117OSM    H9F12256   1.075   4.223   5.471
  117OSM   C10F12257   1.074   4.340   5.292
  117OSM   H10F12258   1.074   4.253   5.226
  117OSM   C11F12259   1.090   4.485   5.233
  117OSM   H11F12260   1.196   4.512   5.216
  117OSM   H11G12261   1.054   4.564   5.302
  117OSM   C12F12262   1.024   4.500   5.096
  117OSM   H12F12263   1.004   4.603   5.059
  117OSM   H12G12264   0.934   4.436   5.081
  117OSM   C13F12265   1.120   4.457   4.984
  117OSM   H13F12266   1.172   4.360   4.998
  117OSM   H13G12267   1.209   4.523   4.984
  117OSM   C14F12268   1.049   4.453   4.848
  117OSM   H14F12269   1.038   4.552   4.799
  117OSM   H14G12270   0.945   4.413   4.858
  117OSM   C15F12271   1.124   4.368   4.746
  117OSM   H15F12272   1.052   4.339   4.667
  117OSM   H15G12273   1.140   4.266   4.788
  117OSM   C16F12274   1.254   4.431   4.699
  117OSM   H16F12275   1.324   4.412   4.783
  117OSM   H16G12276   1.239   4.540   4.685
  117OSM   C17F12277   1.320   4.374   4.572
  117OSM   H17F12278   1.378   4.461   4.534
  117OSM   H17G12279   1.237   4.346   4.503
  117OSM   C18F12280   1.414   4.253   4.592
  117OSM   H18F12281   1.488   4.283   4.670
  117OSM   H18G12282   1.465   4.226   4.498
  117OSM   H18H12283   1.353   4.168   4.629
  118OSM      N12284   0.099   3.557   6.680
  118OSM    C1512285   0.227   3.535   6.763
  118OSM   H15A12286   0.292   3.619   6.744
  118OSM   H15B12287   0.269   3.439   6.735
  118OSM   H15C12288   0.204   3.527   6.868
  118OSM    C1412289   0.045   3.693   6.712
  118OSM   H14A12290   0.108   3.776   6.685
  118OSM   H14B12291   0.015   3.702   6.815
  118OSM   H14C12292   6.845   3.704   6.649
  118OSM    C1312293   0.136   3.545   6.539
  118OSM   H13A12294   0.181   3.448   6.520
  118OSM   H13B12295   0.212   3.614   6.506
  118OSM   H13C12296   0.052   3.552   6.472
  118OSM    C1212297   6.881   3.451   6.724
  118OSM   H12A12298   6.816   3.435   6.639
  118OSM   H12B12299   6.840   3.480   6.819
  118OSM    C1112300   0.041   3.306   6.745
  118OSM   H11A12301   6.845   3.252   6.795
  118OSM   H11B12302   0.124   3.290   6.818
  118OSM      P12303   0.001   3.204   6.505
  118OSM    O1312304   6.870   3.059   6.518
  118OSM    O1412305   6.765   3.291   6.499
  118OSM    O1112306   0.077   3.233   6.368
  118OSM    O1212307   0.092   3.254   6.622
  118OSM    C1S12308   0.212   3.174   6.346
  118OSM    H1S12309   0.239   3.079   6.397
  118OSM    H1T12310   0.297   3.239   6.377
  118OSM     NF12311   0.332   3.061   6.153
  118OSM    HNF12312   0.423   3.091   6.126
  118OSM    C2S12313   0.222   3.158   6.189
  118OSM    H2S12314   0.128   3.109   6.155
  118OSM    C3S12315   0.235   3.299   6.131
  118OSM    H3S12316   0.327   3.354   6.162
  118OSM     O312317   0.130   3.387   6.172
  118OSM    HO312318   0.091   3.335   6.242
  118OSM    C4S12319   0.249   3.295   5.980
  118OSM    H4S12320   0.346   3.267   5.936
  118OSM    C5S12321   0.142   3.305   5.896
  118OSM    H5S12322   0.041   3.321   5.936
  118OSM    C6S12323   0.139   3.293   5.743
  118OSM    H6S12324   0.110   3.388   5.694
  118OSM    H6T12325   0.069   3.214   5.711
  118OSM    C7S12326   0.274   3.246   5.695
  118OSM    H7S12327   0.292   3.148   5.746
  118OSM    H7T12328   0.352   3.325   5.698
  118OSM    C8S12329   0.267   3.215   5.544
  118OSM    H8S12330   0.175   3.155   5.531
  118OSM    H8T12331   0.358   3.155   5.524
  118OSM    C9S12332   0.271   3.340   5.451
  118OSM    H9S12333   0.338   3.417   5.495
  118OSM    H9T12334   0.164   3.367   5.450
  118OSM   C10S12335   0.323   3.306   5.311
  118OSM   H10S12336   0.408   3.235   5.325
  118OSM   H10T12337   0.367   3.399   5.267
  118OSM   C11S12338   0.225   3.248   5.216
  118OSM   H11S12339   0.134   3.311   5.210
  118OSM   H11T12340   0.184   3.150   5.247
  118OSM   C12S12341   0.293   3.230   5.075
  118OSM   H12S12342   0.350   3.135   5.076
  118OSM   H12T12343   0.354   3.318   5.044
  118OSM   C13S12344   0.188   3.228   4.964
  118OSM   H13S12345   0.155   3.333   4.954
  118OSM   H13T12346   0.102   3.164   4.997
  118OSM   C14S12347   0.230   3.181   4.823
  118OSM   H14S12348   0.329   3.223   4.795
  118OSM   H14T12349   0.159   3.218   4.745
  118OSM   C15S12350   0.254   3.024   4.811
  118OSM   H15S12351   0.166   2.971   4.852
  118OSM   H15T12352   0.335   2.999   4.882
  118OSM   C16S12353   0.281   2.977   4.672
  118OSM   H16S12354   0.319   2.873   4.676
  118OSM   H16T12355   0.362   3.040   4.631
  118OSM   C17S12356   0.150   2.986   4.589
  118OSM   H17S12357   0.089   3.073   4.623
  118OSM   H17T12358   0.088   2.899   4.619
  118OSM   C18S12359   0.155   2.984   4.440
  118OSM   H18S12360   0.054   2.983   4.394
  118OSM   H18T12361   0.200   2.885   4.418
  118OSM   H18U12362   0.213   3.070   4.400
  118OSM    C1F12363   0.323   2.931   6.176
  118OSM     OF12364   0.221   2.887   6.227
  118OSM    C2F12365   0.438   2.848   6.137
  118OSM    H2F12366   0.460   2.780   6.222
  118OSM    H2G12367   0.533   2.901   6.117
  118OSM    C3F12368   0.401   2.756   6.023
  118OSM    H3F12369   0.311   2.692   6.039
  118OSM    H3G12370   0.499   2.704   6.013
  118OSM    C4F12371   0.371   2.827   5.893
  118OSM    H4F12372   0.449   2.905   5.885
  118OSM    H4G12373   0.274   2.881   5.903
  118OSM    C5F12374   0.375   2.732   5.772
  118OSM    H5F12375   0.303   2.649   5.785
  118OSM    H5G12376   0.475   2.683   5.766
  118OSM    C6F12377   0.343   2.820   5.646
  118OSM    H6F12378   0.411   2.907   5.645
  118OSM    H6G12379   0.236   2.851   5.649
  118OSM    C7F12380   0.362   2.742   5.513
  118OSM    H7F12381   0.297   2.652   5.504
  118OSM    H7G12382   0.465   2.701   5.524
  118OSM    C8F12383   0.356   2.830   5.385
  118OSM    H8F12384   0.263   2.891   5.386
  118OSM    H8G12385   0.346   2.764   5.296
  118OSM    C9F12386   0.475   2.919   5.365
  118OSM    H9F12387   0.505   2.989   5.445
  118OSM   C10F12388   0.552   2.921   5.252
  118OSM   H10F12389   0.644   2.980   5.258
  118OSM   C11F12390   0.532   2.845   5.128
  118OSM   H11F12391   0.498   2.915   5.049
  118OSM   H11G12392   0.456   2.764   5.125
  118OSM   C12F12393   0.663   2.782   5.078
  118OSM   H12F12394   0.704   2.717   5.158
  118OSM   H12G12395   0.734   2.866   5.064
  118OSM   C13F12396   0.648   2.697   4.956
  118OSM   H13F12397   0.578   2.612   4.974
  118OSM   H13G12398   0.747   2.658   4.924
  118OSM   C14F12399   0.609   2.765   4.824
  118OSM   H14F12400   0.552   2.855   4.855
  118OSM   H14G12401   0.542   2.710   4.754
  118OSM   C15F12402   0.725   2.822   4.733
  118OSM   H15F12403   0.786   2.734   4.707
  118OSM   H15G12404   0.786   2.894   4.791
  118OSM   C16F12405   0.667   2.884   4.601
  118OSM   H16F12406   0.750   2.926   4.541
  118OSM   H16G12407   0.594   2.965   4.621
  118OSM   C17F12408   0.593   2.783   4.512
  118OSM   H17F12409   0.500   2.743   4.557
  118OSM   H17G12410   0.653   2.690   4.505
  118OSM   C18F12411   0.558   2.830   4.365
  118OSM   H18F12412   0.470   2.898   4.377
  118OSM   H18G12413   0.519   2.745   4.305
  118OSM   H18H12414   0.644   2.873   4.310
  119OSM      N12415   2.802   1.288   6.889
  119OSM    C1512416   2.670   1.251   6.944
  119OSM   H15A12417   2.616   1.169   6.899
  119OSM   H15B12418   2.604   1.335   6.925
  119OSM   H15C12419   2.666   1.231   7.050
  119OSM    C1412420   2.840   1.416   6.960
  119OSM   H14A12421   2.945   1.439   6.958
  119OSM   H14B12422   2.800   1.418   7.060
  119OSM   H14C12423   2.785   1.496   6.911
  119OSM    C1312424   2.897   1.177   6.923
  119OSM   H13A12425   2.969   1.162   6.845
  119OSM   H13B12426   2.846   1.083   6.938
  119OSM   H13C12427   2.944   1.205   7.016
  119OSM    C1212428   2.793   1.306   6.741
  119OSM   H12A12429   2.772   1.214   6.690
  119OSM   H12B12430   2.894   1.328   6.710
  119OSM    C1112431   2.699   1.413   6.690
  119OSM   H11A12432   2.720   1.402   6.582
  119OSM   H11B12433   2.727   1.515   6.726
  119OSM      P12434   2.441   1.450   6.638
  119OSM    O1312435   2.325   1.352   6.641
  119OSM    O1412436   2.419   1.591   6.684
  119OSM    O1112437   2.492   1.453   6.485
  119OSM    O1212438   2.565   1.377   6.715
  119OSM    C1S12439   2.509   1.320   6.421
  119OSM    H1S12440   2.428   1.246   6.438
  119OSM    H1T12441   2.589   1.256   6.462
  119OSM     NF12442   2.503   1.200   6.205
  119OSM    HNF12443   2.578   1.134   6.198
  119OSM    C2S12444   2.529   1.333   6.267
  119OSM    H2S12445   2.459   1.410   6.227
  119OSM    C3S12446   2.681   1.388   6.245
  119OSM    H3S12447   2.752   1.319   6.296
  119OSM     O312448   2.700   1.517   6.310
  119OSM    HO312449   2.635   1.513   6.381
  119OSM    C4S12450   2.713   1.391   6.094
  119OSM    H4S12451   2.769   1.304   6.058
  119OSM    C5S12452   2.684   1.476   5.994
  119OSM    H5S12453   2.627   1.568   6.014
  119OSM    C6S12454   2.735   1.462   5.854
  119OSM    H6S12455   2.842   1.433   5.855
  119OSM    H6T12456   2.730   1.563   5.806
  119OSM    C7S12457   2.682   1.350   5.763
  119OSM    H7S12458   2.593   1.393   5.714
  119OSM    H7T12459   2.638   1.263   5.816
  119OSM    C8S12460   2.764   1.304   5.647
  119OSM    H8S12461   2.701   1.229   5.596
  119OSM    H8T12462   2.863   1.264   5.674
  119OSM    C9S12463   2.802   1.420   5.548
  119OSM    H9S12464   2.875   1.489   5.594
  119OSM    H9T12465   2.711   1.483   5.537
  119OSM   C10S12466   2.840   1.367   5.408
  119OSM   H10S12467   2.753   1.303   5.379
  119OSM   H10T12468   2.932   1.306   5.405
  119OSM   C11S12469   2.868   1.483   5.309
  119OSM   H11S12470   2.957   1.540   5.343
  119OSM   H11T12471   2.797   1.569   5.302
  119OSM   C12S12472   2.888   1.434   5.165
  119OSM   H12S12473   2.796   1.376   5.139
  119OSM   H12T12474   2.977   1.368   5.155
  119OSM   C13S12475   2.912   1.553   5.077
  119OSM   H13S12476   2.985   1.621   5.126
  119OSM   H13T12477   2.816   1.609   5.070
  119OSM   C14S12478   2.960   1.523   4.940
  119OSM   H14S12479   2.875   1.478   4.884
  119OSM   H14T12480   3.029   1.438   4.960
  119OSM   C15S12481   3.024   1.637   4.858
  119OSM   H15S12482   3.119   1.662   4.909
  119OSM   H15T12483   2.956   1.724   4.872
  119OSM   C16S12484   3.042   1.603   4.713
  119OSM   H16S12485   2.943   1.580   4.668
  119OSM   H16T12486   3.118   1.525   4.694
  119OSM   C17S12487   3.091   1.719   4.621
  119OSM   H17S12488   3.158   1.668   4.548
  119OSM   H17T12489   3.153   1.782   4.688
  119OSM   C18S12490   2.983   1.803   4.546
  119OSM   H18S12491   2.883   1.759   4.527
  119OSM   H18T12492   3.026   1.828   4.447
  119OSM   H18U12493   2.954   1.894   4.603
  119OSM    C1F12494   2.377   1.161   6.195
  119OSM     OF12495   2.279   1.234   6.215
  119OSM    C2F12496   2.349   1.013   6.166
  119OSM    H2F12497   2.293   1.006   6.071
  119OSM    H2G12498   2.274   0.982   6.241
  119OSM    C3F12499   2.466   0.911   6.159
  119OSM    H3F12500   2.409   0.816   6.164
  119OSM    H3G12501   2.531   0.915   6.248
  119OSM    C4F12502   2.542   0.924   6.023
  119OSM    H4F12503   2.593   1.022   6.007
  119OSM    H4G12504   2.462   0.922   5.945
  119OSM    C5F12505   2.625   0.796   5.996
  119OSM    H5F12506   2.565   0.704   6.015
  119OSM    H5G12507   2.707   0.800   6.071
  119OSM    C6F12508   2.685   0.797   5.858
  119OSM    H6F12509   2.783   0.745   5.860
  119OSM    H6G12510   2.703   0.904   5.834
  119OSM    C7F12511   2.595   0.722   5.761
  119OSM    H7F12512   2.496   0.773   5.769
  119OSM    H7G12513   2.585   0.617   5.796
  119OSM    C8F12514   2.640   0.712   5.613
  119OSM    H8F12515   2.676   0.811   5.575
  119OSM    H8G12516   2.544   0.689   5.562
  119OSM    C9F12517   2.754   0.615   5.589
  119OSM    H9F12518   2.725   0.516   5.627
  119OSM   C10F12519   2.871   0.637   5.528
  119OSM   H10F12520   2.930   0.545   5.511
  119OSM   C11F12521   2.915   0.765   5.463
  119OSM   H11F12522   3.022   0.750   5.439
  119OSM   H11G12523   2.912   0.844   5.541
  119OSM   C12F12524   2.834   0.815   5.349
  119OSM   H12F12525   2.732   0.837   5.387
  119OSM   H12G12526   2.813   0.730   5.280
  119OSM   C13F12527   2.905   0.942   5.287
  119OSM   H13F12528   3.011   0.916   5.310
  119OSM   H13G12529   2.870   1.028   5.347
  119OSM   C14F12530   2.885   0.954   5.142
  119OSM   H14F12531   2.885   0.851   5.100
  119OSM   H14G12532   2.982   0.986   5.097
  119OSM   C15F12533   2.776   1.049   5.092
  119OSM   H15F12534   2.782   1.150   5.137
  119OSM   H15G12535   2.688   0.999   5.137
  119OSM   C16F12536   2.768   1.057   4.940
  119OSM   H16F12537   2.668   1.100   4.921
  119OSM   H16G12538   2.766   0.952   4.903
  119OSM   C17F12539   2.875   1.150   4.886
  119OSM   H17F12540   2.938   1.189   4.969
  119OSM   H17G12541   2.834   1.241   4.838
  119OSM   C18F12542   2.972   1.078   4.790
  119OSM   H18F12543   3.071   1.125   4.807
  119OSM   H18G12544   2.940   1.096   4.685
  119OSM   H18H12545   2.975   0.970   4.816
  120OSM      N12546   5.478   4.365   6.501
  120OSM    C1512547   5.435   4.228   6.551
  120OSM   H15A12548   5.409   4.229   6.656
  120OSM   H15B12549   5.513   4.156   6.532
  120OSM   H15C12550   5.347   4.204   6.494
  120OSM    C1412551   5.577   4.426   6.599
  120OSM   H14A12552   5.606   4.521   6.558
  120OSM   H14B12553   5.653   4.352   6.616
  120OSM   H14C12554   5.532   4.456   6.693
  120OSM    C1312555   5.542   4.345   6.367
  120OSM   H13A12556   5.576   4.440   6.329
  120OSM   H13B12557   5.466   4.306   6.300
  120OSM   H13C12558   5.622   4.273   6.373
  120OSM    C1212559   5.353   4.457   6.499
  120OSM   H12A12560   5.323   4.477   6.601
  120OSM   H12B12561   5.269   4.405   6.456
  120OSM    C1112562   5.374   4.597   6.430
  120OSM   H11A12563   5.270   4.636   6.422
  120OSM   H11B12564   5.422   4.583   6.331
  120OSM      P12565   5.394   4.800   6.591
  120OSM    O1312566   5.260   4.758   6.641
  120OSM    O1412567   5.486   4.861   6.691
  120OSM    O1112568   5.360   4.904   6.476
  120OSM    O1212569   5.458   4.681   6.507
  120OSM    C1S12570   5.453   4.923   6.370
  120OSM    H1S12571   5.541   4.855   6.376
  120OSM    H1T12572   5.495   5.025   6.381
  120OSM     NF12573   5.480   4.967   6.141
  120OSM    HNF12574   5.469   5.066   6.133
  120OSM    C2S12575   5.383   4.911   6.232
  120OSM    H2S12576   5.370   4.804   6.206
  120OSM    C3S12577   5.243   4.983   6.233
  120OSM    H3S12578   5.263   5.089   6.260
  120OSM     O312579   5.159   4.939   6.335
  120OSM    HO312580   5.223   4.906   6.399
  120OSM    C4S12581   5.177   4.989   6.093
  120OSM    H4S12582   5.120   4.901   6.060
  120OSM    C5S12583   5.170   5.090   6.018
  120OSM    H5S12584   5.210   5.191   6.037
  120OSM    C6S12585   5.104   5.085   5.881
  120OSM    H6S12586   5.045   5.177   5.862
  120OSM    H6T12587   5.044   4.993   5.871
  120OSM    C7S12588   5.220   5.081   5.781
  120OSM    H7S12589   5.281   4.992   5.807
  120OSM    H7T12590   5.282   5.171   5.802
  120OSM    C8S12591   5.192   5.082   5.627
  120OSM    H8S12592   5.144   4.987   5.599
  120OSM    H8T12593   5.291   5.090   5.577
  120OSM    C9S12594   5.092   5.191   5.574
  120OSM    H9S12595   5.105   5.291   5.622
  120OSM    H9T12596   4.993   5.158   5.612
  120OSM   C10S12597   5.098   5.212   5.424
  120OSM   H10S12598   5.007   5.264   5.386
  120OSM   H10T12599   5.116   5.108   5.390
  120OSM   C11S12600   5.234   5.287   5.387
  120OSM   H11S12601   5.321   5.219   5.399
  120OSM   H11T12602   5.242   5.376   5.453
  120OSM   C12S12603   5.235   5.341   5.242
  120OSM   H12S12604   5.131   5.377   5.227
  120OSM   H12T12605   5.257   5.257   5.173
  120OSM   C13S12606   5.343   5.444   5.211
  120OSM   H13S12607   5.442   5.396   5.229
  120OSM   H13T12608   5.338   5.520   5.292
  120OSM   C14S12609   5.332   5.513   5.076
  120OSM   H14S12610   5.257   5.595   5.079
  120OSM   H14T12611   5.293   5.437   5.005
  120OSM   C15S12612   5.460   5.552   5.011
  120OSM   H15S12613   5.515   5.460   4.979
  120OSM   H15T12614   5.541   5.600   5.070
  120OSM   C16S12615   5.435   5.633   4.889
  120OSM   H16S12616   5.369   5.721   4.905
  120OSM   H16T12617   5.386   5.555   4.826
  120OSM   C17S12618   5.561   5.677   4.826
  120OSM   H17S12619   5.626   5.589   4.805
  120OSM   H17T12620   5.626   5.741   4.890
  120OSM   C18S12621   5.538   5.760   4.696
  120OSM   H18S12622   5.637   5.785   4.653
  120OSM   H18T12623   5.478   5.850   4.722
  120OSM   H18U12624   5.482   5.702   4.620
  120OSM    C1F12625   5.592   4.900   6.099
  120OSM     OF12626   5.587   4.780   6.095
  120OSM    C2F12627   5.705   4.980   6.052
  120OSM    H2F12628   5.793   4.955   6.116
  120OSM    H2G12629   5.689   5.089   6.054
  120OSM    C3F12630   5.740   4.958   5.901
  120OSM    H3F12631   5.758   4.849   5.890
  120OSM    H3G12632   5.838   5.001   5.867
  120OSM    C4F12633   5.632   4.991   5.799
  120OSM    H4F12634   5.597   5.091   5.832
  120OSM    H4G12635   5.541   4.927   5.804
  120OSM    C5F12636   5.686   4.984   5.658
  120OSM    H5F12637   5.717   4.882   5.628
  120OSM    H5G12638   5.776   5.050   5.648
  120OSM    C6F12639   5.581   5.028   5.551
  120OSM    H6F12640   5.537   5.127   5.576
  120OSM    H6G12641   5.499   4.954   5.549
  120OSM    C7F12642   5.634   5.032   5.408
  120OSM    H7F12643   5.739   5.062   5.424
  120OSM    H7G12644   5.579   5.111   5.352
  120OSM    C8F12645   5.621   4.901   5.326
  120OSM    H8F12646   5.517   4.861   5.322
  120OSM    H8G12647   5.680   4.815   5.363
  120OSM    C9F12648   5.668   4.930   5.184
  120OSM    H9F12649   5.775   4.912   5.167
  120OSM   C10F12650   5.594   4.978   5.080
  120OSM   H10F12651   5.650   5.007   4.989
  120OSM   C11F12652   5.448   5.019   5.083
  120OSM   H11F12653   5.429   5.115   5.031
  120OSM   H11G12654   5.418   5.037   5.188
  120OSM   C12F12655   5.358   4.906   5.036
  120OSM   H12F12656   5.249   4.927   5.044
  120OSM   H12G12657   5.380   4.819   5.102
  120OSM   C13F12658   5.393   4.843   4.900
  120OSM   H13F12659   5.353   4.740   4.909
  120OSM   H13G12660   5.503   4.834   4.882
  120OSM   C14F12661   5.328   4.917   4.779
  120OSM   H14F12662   5.360   5.022   4.795
  120OSM   H14G12663   5.220   4.910   4.802
  120OSM   C15F12664   5.370   4.861   4.644
  120OSM   H15F12665   5.318   4.764   4.626
  120OSM   H15G12666   5.479   4.840   4.646
  120OSM   C16F12667   5.326   4.944   4.521
  120OSM   H16F12668   5.384   5.039   4.530
  120OSM   H16G12669   5.222   4.980   4.536
  120OSM   C17F12670   5.353   4.888   4.379
  120OSM   H17F12671   5.299   4.793   4.359
  120OSM   H17G12672   5.463   4.884   4.375
  120OSM   C18F12673   5.315   4.996   4.278
  120OSM   H18F12674   5.204   4.991   4.274
  120OSM   H18G12675   5.352   4.962   4.179
  120OSM   H18H12676   5.349   5.097   4.308
  121OSM      N12677   6.881   0.749   6.954
  121OSM    C1512678   0.136   0.701   6.966
  121OSM   H15A12679   0.138   0.594   6.955
  121OSM   H15B12680   0.178   0.728   7.062
  121OSM   H15C12681   0.184   0.750   6.883
  121OSM    C1412682   6.789   0.643   7.022
  121OSM   H14A12683   6.782   0.553   6.963
  121OSM   H14B12684   6.690   0.684   7.038
  121OSM   H14C12685   6.823   0.620   7.122
  121OSM    C1312686   6.868   0.872   7.042
  121OSM   H13A12687   0.003   0.959   6.982
  121OSM   H13B12688   0.049   0.861   7.125
  121OSM   H13C12689   6.768   0.889   7.081
  121OSM    C1212690   6.833   0.766   6.808
  121OSM   H12A12691   6.732   0.804   6.814
  121OSM   H12B12692   6.831   0.670   6.760
  121OSM    C1112693   0.034   0.859   6.717
  121OSM   H11A12694   0.067   0.954   6.762
  121OSM   H11B12695   6.858   0.900   6.635
  121OSM      P12696   0.143   0.654   6.584
  121OSM    O1312697   0.236   0.675   6.472
  121OSM    O1412698   0.185   0.557   6.683
  121OSM    O1112699   6.878   0.655   6.537
  121OSM    O1212700   0.154   0.793   6.662
  121OSM    C1S12701   6.831   0.736   6.429
  121OSM    H1S12702   6.881   0.835   6.421
  121OSM    H1T12703   6.725   0.758   6.450
  121OSM     NF12704   6.766   0.740   6.194
  121OSM    HNF12705   6.683   0.699   6.157
  121OSM    C2S12706   6.828   0.653   6.299
  121OSM    H2S12707   0.044   0.628   6.266
  121OSM    C3S12708   6.750   0.523   6.318
  121OSM    H3S12709   6.653   0.563   6.354
  121OSM     O312710   6.785   0.438   6.426
  121OSM    HO312711   6.816   0.502   6.491
  121OSM    C4S12712   6.740   0.447   6.187
  121OSM    H4S12713   6.682   0.500   6.110
  121OSM    C5S12714   6.809   0.338   6.151
  121OSM    H5S12715   6.873   0.289   6.225
  121OSM    C6S12716   6.798   0.259   6.020
  121OSM    H6S12717   6.777   0.154   6.048
  121OSM    H6T12718   0.013   0.270   5.977
  121OSM    C7S12719   6.696   0.318   5.922
  121OSM    H7S12720   6.716   0.425   5.900
  121OSM    H7T12721   6.590   0.307   5.953
  121OSM    C8S12722   6.699   0.226   5.797
  121OSM    H8S12723   6.649   0.134   5.836
  121OSM    H8T12724   6.800   0.193   5.764
  121OSM    C9S12725   6.633   0.298   5.681
  121OSM    H9S12726   6.681   0.394   5.651
  121OSM    H9T12727   6.534   0.332   5.719
  121OSM   C10S12728   6.591   0.206   5.559
  121OSM   H10S12729   6.491   0.162   5.578
  121OSM   H10T12730   6.673   0.133   5.536
  121OSM   C11S12731   6.551   0.292   5.437
  121OSM   H11S12732   6.644   0.336   5.395
  121OSM   H11T12733   6.476   0.363   5.477
  121OSM   C12S12734   6.493   0.218   5.316
  121OSM   H12S12735   6.442   0.290   5.248
  121OSM   H12T12736   6.415   0.148   5.355
  121OSM   C13S12737   6.601   0.139   5.229
  121OSM   H13S12738   6.655   0.059   5.284
  121OSM   H13T12739   6.681   0.212   5.204
  121OSM   C14S12740   6.541   0.090   5.102
  121OSM   H14S12741   6.502   0.177   5.045
  121OSM   H14T12742   6.456   0.022   5.126
  121OSM   C15S12743   6.635   0.001   5.006
  121OSM   H15S12744   6.666   6.795   5.058
  121OSM   H15T12745   6.719   0.069   4.978
  121OSM   C16S12746   6.556   6.848   4.883
  121OSM   H16S12747   6.458   6.814   4.923
  121OSM   H16T12748   6.613   6.769   4.830
  121OSM   C17S12749   6.543   0.069   4.778
  121OSM   H17S12750   6.643   0.114   4.757
  121OSM   H17T12751   6.485   0.158   4.811
  121OSM   C18S12752   6.482   0.029   4.644
  121OSM   H18S12753   6.502   0.109   4.570
  121OSM   H18T12754   6.371   0.017   4.644
  121OSM   H18U12755   6.522   6.822   4.603
  121OSM    C1F12756   6.813   0.851   6.145
  121OSM     OF12757   0.021   0.908   6.193
  121OSM    C2F12758   6.746   0.918   6.020
  121OSM    H2F12759   6.667   0.846   5.989
  121OSM    H2G12760   6.821   0.919   5.938
  121OSM    C3F12761   6.687   1.059   6.051
  121OSM    H3F12762   6.768   1.135   6.043
  121OSM    H3G12763   6.631   1.066   6.146
  121OSM    C4F12764   6.596   1.106   5.935
  121OSM    H4F12765   6.579   1.215   5.947
  121OSM    H4G12766   6.500   1.050   5.925
  121OSM    C5F12767   6.664   1.090   5.794
  121OSM    H5F12768   6.645   0.983   5.771
  121OSM    H5G12769   6.774   1.100   5.782
  121OSM    C6F12770   6.599   1.185   5.682
  121OSM    H6F12771   6.652   1.280   5.703
  121OSM    H6G12772   6.491   1.187   5.708
  121OSM    C7F12773   6.623   1.128   5.542
  121OSM    H7F12774   6.572   1.029   5.538
  121OSM    H7G12775   6.730   1.096   5.532
  121OSM    C8F12776   6.574   1.209   5.423
  121OSM    H8F12777   6.609   1.158   5.331
  121OSM    H8G12778   6.624   1.305   5.448
  121OSM    C9F12779   6.417   1.223   5.417
  121OSM    H9F12780   6.375   1.293   5.490
  121OSM   C10F12781   6.338   1.161   5.325
  121OSM   H10F12782   6.230   1.182   5.319
  121OSM   C11F12783   6.385   1.067   5.218
  121OSM   H11F12784   6.299   0.999   5.199
  121OSM   H11G12785   6.464   0.996   5.251
  121OSM   C12F12786   6.407   1.130   5.077
  121OSM   H12F12787   6.495   1.198   5.085
  121OSM   H12G12788   6.320   1.197   5.060
  121OSM   C13F12789   6.404   1.025   4.963
  121OSM   H13F12790   6.301   0.985   4.952
  121OSM   H13G12791   6.479   0.943   4.974
  121OSM   C14F12792   6.421   1.098   4.827
  121OSM   H14F12793   6.528   1.125   4.814
  121OSM   H14G12794   6.364   1.193   4.830
  121OSM   C15F12795   6.381   1.029   4.697
  121OSM   H15F12796   6.435   0.932   4.708
  121OSM   H15G12797   6.426   1.097   4.621
  121OSM   C16F12798   6.237   0.994   4.675
  121OSM   H16F12799   6.171   1.074   4.715
  121OSM   H16G12800   6.200   0.901   4.723
  121OSM   C17F12801   6.210   1.004   4.526
  121OSM   H17F12802   6.304   1.038   4.478
  121OSM   H17G12803   6.130   1.080   4.516
  121OSM   C18F12804   6.170   0.869   4.458
  121OSM   H18F12805   6.133   0.796   4.534
  121OSM   H18G12806   6.257   0.820   4.410
  121OSM   H18H12807   6.099   0.895   4.376
  122OSM      N12808   6.131   3.337   6.737
  122OSM    C1512809   6.062   3.270   6.857
  122OSM   H15A12810   6.085   3.320   6.950
  122OSM   H15B12811   6.099   3.169   6.867
  122OSM   H15C12812   5.955   3.281   6.847
  122OSM    C1412813   6.276   3.347   6.759
  122OSM   H14A12814   6.327   3.417   6.694
  122OSM   H14B12815   6.332   3.257   6.741
  122OSM   H14C12816   6.293   3.383   6.860
  122OSM    C1312817   6.110   3.246   6.624
  122OSM   H13A12818   6.187   3.273   6.553
  122OSM   H13B12819   6.023   3.262   6.561
  122OSM   H13C12820   6.116   3.141   6.649
  122OSM    C1212821   6.085   3.478   6.711
  122OSM   H12A12822   6.112   3.546   6.790
  122OSM   H12B12823   5.978   3.490   6.727
  122OSM    C1112824   6.127   3.550   6.580
  122OSM   H11A12825   6.055   3.634   6.571
  122OSM   H11B12826   6.125   3.473   6.500
  122OSM      P12827   6.282   3.729   6.684
  122OSM    O1312828   6.175   3.734   6.785
  122OSM    O1412829   6.422   3.734   6.723
  122OSM    O1112830   6.248   3.845   6.583
  122OSM    O1212831   6.261   3.598   6.593
  122OSM    C1S12832   6.288   3.836   6.444
  122OSM    H1S12833   6.240   3.757   6.383
  122OSM    H1T12834   6.398   3.832   6.427
  122OSM     NF12835   6.293   3.953   6.230
  122OSM    HNF12836   6.375   4.003   6.205
  122OSM    C2S12837   6.258   3.974   6.370
  122OSM    H2S12838   6.148   3.989   6.368
  122OSM    C3S12839   6.316   4.103   6.441
  122OSM    H3S12840   6.425   4.095   6.422
  122OSM     O312841   6.287   4.111   6.583
  122OSM    HO312842   6.236   4.032   6.601
  122OSM    C4S12843   6.266   4.224   6.375
  122OSM    H4S12844   6.332   4.253   6.292
  122OSM    C5S12845   6.165   4.308   6.405
  122OSM    H5S12846   6.083   4.283   6.475
  122OSM    C6S12847   6.134   4.413   6.302
  122OSM    H6S12848   6.214   4.445   6.231
  122OSM    H6T12849   6.107   4.507   6.355
  122OSM    C7S12850   6.018   4.363   6.225
  122OSM    H7S12851   5.936   4.347   6.299
  122OSM    H7T12852   6.034   4.263   6.179
  122OSM    C8S12853   5.988   4.475   6.119
  122OSM    H8S12854   6.079   4.477   6.054
  122OSM    H8T12855   5.980   4.568   6.179
  122OSM    C9S12856   5.869   4.441   6.030
  122OSM    H9S12857   5.782   4.403   6.088
  122OSM    H9T12858   5.898   4.365   5.955
  122OSM   C10S12859   5.825   4.565   5.952
  122OSM   H10S12860   5.918   4.584   5.894
  122OSM   H10T12861   5.805   4.655   6.013
  122OSM   C11S12862   5.690   4.546   5.875
  122OSM   H11S12863   5.678   4.637   5.812
  122OSM   H11T12864   5.605   4.560   5.945
  122OSM   C12S12865   5.687   4.426   5.783
  122OSM   H12S12866   5.585   4.414   5.739
  122OSM   H12T12867   5.716   4.333   5.835
  122OSM   C13S12868   5.789   4.445   5.670
  122OSM   H13S12869   5.809   4.358   5.603
  122OSM   H13T12870   5.887   4.462   5.719
  122OSM   C14S12871   5.773   4.558   5.570
  122OSM   H14S12872   5.866   4.572   5.511
  122OSM   H14T12873   5.757   4.657   5.619
  122OSM   C15S12874   5.653   4.539   5.474
  122OSM   H15S12875   5.613   4.636   5.437
  122OSM   H15T12876   5.569   4.479   5.515
  122OSM   C16S12877   5.701   4.459   5.356
  122OSM   H16S12878   5.736   4.359   5.389
  122OSM   H16T12879   5.788   4.503   5.303
  122OSM   C17S12880   5.581   4.444   5.259
  122OSM   H17S12881   5.487   4.437   5.318
  122OSM   H17T12882   5.580   4.343   5.212
  122OSM   C18S12883   5.577   4.553   5.159
  122OSM   H18S12884   5.560   4.651   5.209
  122OSM   H18T12885   5.492   4.543   5.088
  122OSM   H18U12886   5.675   4.559   5.108
  122OSM    C1F12887   6.223   3.878   6.144
  122OSM     OF12888   6.118   3.832   6.173
  122OSM    C2F12889   6.291   3.858   6.009
  122OSM    H2F12890   6.395   3.820   6.015
  122OSM    H2G12891   6.311   3.954   5.957
  122OSM    C3F12892   6.220   3.761   5.917
  122OSM    H3F12893   6.113   3.782   5.895
  122OSM    H3G12894   6.222   3.669   5.979
  122OSM    C4F12895   6.306   3.756   5.789
  122OSM    H4F12896   6.281   3.653   5.756
  122OSM    H4G12897   6.416   3.755   5.801
  122OSM    C5F12898   6.265   3.845   5.675
  122OSM    H5F12899   6.286   3.954   5.685
  122OSM    H5G12900   6.154   3.843   5.670
  122OSM    C6F12901   6.337   3.809   5.542
  122OSM    H6F12902   6.334   3.698   5.534
  122OSM    H6G12903   6.443   3.842   5.546
  122OSM    C7F12904   6.266   3.881   5.431
  122OSM    H7F12905   6.248   3.985   5.467
  122OSM    H7G12906   6.169   3.832   5.409
  122OSM    C8F12907   6.339   3.898   5.295
  122OSM    H8F12908   6.442   3.938   5.304
  122OSM    H8G12909   6.278   3.967   5.234
  122OSM    C9F12910   6.348   3.761   5.237
  122OSM    H9F12911   6.370   3.673   5.299
  122OSM   C10F12912   6.339   3.725   5.111
  122OSM   H10F12913   6.368   3.622   5.088
  122OSM   C11F12914   6.310   3.812   4.991
  122OSM   H11F12915   6.347   3.916   5.005
  122OSM   H11G12916   6.202   3.831   4.970
  122OSM   C12F12917   6.367   3.762   4.853
  122OSM   H12F12918   6.324   3.667   4.814
  122OSM   H12G12919   6.473   3.737   4.876
  122OSM   C13F12920   6.365   3.866   4.741
  122OSM   H13F12921   6.406   3.961   4.782
  122OSM   H13G12922   6.259   3.881   4.710
  122OSM   C14F12923   6.457   3.834   4.613
  122OSM   H14F12924   6.457   3.725   4.589
  122OSM   H14G12925   6.562   3.853   4.644
  122OSM   C15F12926   6.418   3.912   4.490
  122OSM   H15F12927   6.442   4.021   4.483
  122OSM   H15G12928   6.309   3.902   4.470
  122OSM   C16F12929   6.491   3.857   4.366
  122OSM   H16F12930   6.488   3.746   4.369
  122OSM   H16G12931   6.599   3.881   4.376
  122OSM   C17F12932   6.432   3.897   4.234
  122OSM   H17F12933   6.331   3.849   4.233
  122OSM   H17G12934   6.498   3.859   4.153
  122OSM   C18F12935   6.420   4.043   4.203
  122OSM   H18F12936   6.348   4.087   4.275
  122OSM   H18G12937   6.385   4.064   4.100
  122OSM   H18H12938   6.522   4.084   4.212
  123OSM      N12939   2.160   2.428   1.612
  123OSM    C1512940   2.053   2.323   1.603
  123OSM   H15A12941   2.057   2.260   1.691
  123OSM   H15B12942   2.069   2.253   1.522
  123OSM   H15C12943   1.956   2.370   1.608
  123OSM    C1412944   2.140   2.519   1.491
  123OSM   H14A12945   2.118   2.462   1.402
  123OSM   H14B12946   2.227   2.576   1.460
  123OSM   H14C12947   2.061   2.592   1.493
  123OSM    C1312948   2.148   2.519   1.726
  123OSM   H13A12949   2.212   2.605   1.715
  123OSM   H13B12950   2.179   2.464   1.814
  123OSM   H13C12951   2.046   2.553   1.741
  123OSM    C1212952   2.283   2.347   1.614
  123OSM   H12A12953   2.360   2.420   1.635
  123OSM   H12B12954   2.300   2.311   1.514
  123OSM    C1112955   2.292   2.230   1.717
  123OSM   H11A12956   2.388   2.179   1.696
  123OSM   H11B12957   2.221   2.148   1.693
  123OSM      P12958   2.397   2.311   1.946
  123OSM    O1312959   2.485   2.201   1.970
  123OSM    O1412960   2.450   2.440   1.899
  123OSM    O1112961   2.332   2.351   2.082
  123OSM    O1212962   2.282   2.260   1.854
  123OSM    C1S12963   2.197   2.344   2.114
  123OSM    H1S12964   2.153   2.242   2.110
  123OSM    H1T12965   2.133   2.404   2.045
  123OSM     NF12966   2.047   2.343   2.302
  123OSM    HNF12967   1.975   2.411   2.303
  123OSM    C2S12968   2.171   2.396   2.255
  123OSM    H2S12969   2.247   2.354   2.325
  123OSM    C3S12970   2.195   2.550   2.267
  123OSM    H3S12971   2.114   2.583   2.198
  123OSM     O312972   2.324   2.592   2.219
  123OSM    HO312973   2.365   2.516   2.178
  123OSM    C4S12974   2.158   2.583   2.405
  123OSM    H4S12975   2.055   2.615   2.427
  123OSM    C5S12976   2.228   2.562   2.518
  123OSM    H5S12977   2.326   2.513   2.512
  123OSM    C6S12978   2.188   2.597   2.660
  123OSM    H6S12979   2.173   2.507   2.724
  123OSM    H6T12980   2.094   2.656   2.669
  123OSM    C7S12981   2.300   2.675   2.733
  123OSM    H7S12982   2.337   2.753   2.663
  123OSM    H7T12983   2.378   2.597   2.742
  123OSM    C8S12984   2.269   2.740   2.866
  123OSM    H8S12985   2.207   2.831   2.852
  123OSM    H8T12986   2.365   2.760   2.917
  123OSM    C9S12987   2.196   2.646   2.959
  123OSM    H9S12988   2.249   2.549   2.971
  123OSM    H9T12989   2.091   2.631   2.926
  123OSM   C10S12990   2.177   2.705   3.097
  123OSM   H10S12991   2.104   2.789   3.096
  123OSM   H10T12992   2.274   2.743   3.138
  123OSM   C11S12993   2.128   2.606   3.200
  123OSM   H11S12994   2.201   2.523   3.201
  123OSM   H11T12995   2.023   2.570   3.196
  123OSM   C12S12996   2.147   2.659   3.342
  123OSM   H12S12997   2.244   2.713   3.351
  123OSM   H12T12998   2.147   2.577   3.417
  123OSM   C13S12999   2.031   2.742   3.401
  123OSM   H13S13000   1.933   2.702   3.366
  123OSM   H13T13001   2.038   2.846   3.362
  123OSM   C14S13002   2.027   2.754   3.552
  123OSM   H14S13003   1.949   2.830   3.570
  123OSM   H14T13004   2.120   2.800   3.592
  123OSM   C15S13005   2.000   2.619   3.630
  123OSM   H15S13006   2.100   2.570   3.625
  123OSM   H15T13007   1.928   2.547   3.585
  123OSM   C16S13008   1.944   2.638   3.777
  123OSM   H16S13009   1.942   2.539   3.828
  123OSM   H16T13010   1.846   2.688   3.758
  123OSM   C17S13011   2.031   2.731   3.861
  123OSM   H17S13012   2.023   2.841   3.847
  123OSM   H17T13013   2.136   2.701   3.840
  123OSM   C18S13014   2.015   2.716   4.011
  123OSM   H18S13015   2.008   2.609   4.042
  123OSM   H18T13016   1.922   2.770   4.038
  123OSM   H18U13017   2.099   2.770   4.059
  123OSM    C1F13018   2.031   2.211   2.341
  123OSM     OF13019   2.130   2.146   2.357
  123OSM    C2F13020   1.886   2.164   2.360
  123OSM    H2F13021   1.833   2.175   2.263
  123OSM    H2G13022   1.831   2.234   2.428
  123OSM    C3F13023   1.876   2.014   2.402
  123OSM    H3F13024   1.928   1.960   2.320
  123OSM    H3G13025   1.769   1.984   2.405
  123OSM    C4F13026   1.935   1.989   2.536
  123OSM    H4F13027   2.030   2.040   2.561
  123OSM    H4G13028   1.954   1.883   2.561
  123OSM    C5F13029   1.843   2.037   2.650
  123OSM    H5F13030   1.741   1.998   2.634
  123OSM    H5G13031   1.837   2.148   2.643
  123OSM    C6F13032   1.901   1.995   2.791
  123OSM    H6F13033   2.011   1.982   2.801
  123OSM    H6G13034   1.856   1.895   2.810
  123OSM    C7F13035   1.859   2.093   2.906
  123OSM    H7F13036   1.753   2.124   2.895
  123OSM    H7G13037   1.916   2.184   2.882
  123OSM    C8F13038   1.909   2.040   3.046
  123OSM    H8F13039   1.948   2.127   3.103
  123OSM    H8G13040   1.992   1.968   3.035
  123OSM    C9F13041   1.793   1.975   3.115
  123OSM    H9F13042   1.694   1.974   3.066
  123OSM   C10F13043   1.803   1.907   3.227
  123OSM   H10F13044   1.714   1.864   3.275
  123OSM   C11F13045   1.937   1.884   3.299
  123OSM   H11F13046   1.981   1.974   3.348
  123OSM   H11G13047   2.015   1.848   3.228
  123OSM   C12F13048   1.914   1.767   3.400
  123OSM   H12F13049   1.848   1.688   3.360
  123OSM   H12G13050   1.862   1.809   3.489
  123OSM   C13F13051   2.045   1.704   3.441
  123OSM   H13F13052   2.115   1.786   3.466
  123OSM   H13G13053   2.089   1.654   3.352
  123OSM   C14F13054   2.033   1.604   3.551
  123OSM   H14F13055   1.991   1.512   3.504
  123OSM   H14G13056   1.974   1.635   3.640
  123OSM   C15F13057   2.176   1.555   3.592
  123OSM   H15F13058   2.242   1.586   3.508
  123OSM   H15G13059   2.186   1.445   3.602
  123OSM   C16F13060   2.224   1.626   3.718
  123OSM   H16F13061   2.152   1.610   3.801
  123OSM   H16G13062   2.229   1.737   3.707
  123OSM   C17F13063   2.372   1.588   3.741
  123OSM   H17F13064   2.424   1.625   3.650
  123OSM   H17G13065   2.387   1.479   3.729
  123OSM   C18F13066   2.429   1.650   3.867
  123OSM   H18F13067   2.366   1.613   3.951
  123OSM   H18G13068   2.425   1.760   3.857
  123OSM   H18H13069   2.535   1.622   3.886
  124OSM      N13070   3.058   3.126   1.864
  124OSM    C1513071   3.091   3.273   1.863
  124OSM   H15A13072   3.040   3.325   1.943
  124OSM   H15B13073   3.061   3.328   1.775
  124OSM   H15C13074   3.191   3.298   1.894
  124OSM    C1413075   3.158   3.053   1.775
  124OSM   H14A13076   3.133   2.949   1.763
  124OSM   H14B13077   3.258   3.054   1.814
  124OSM   H14C13078   3.152   3.089   1.673
  124OSM    C1313079   3.054   3.060   1.997
  124OSM   H13A13080   3.154   3.040   2.034
  124OSM   H13B13081   2.996   2.969   1.994
  124OSM   H13C13082   3.008   3.127   2.067
  124OSM    C1213083   2.922   3.110   1.808
  124OSM   H12A13084   2.900   3.005   1.796
  124OSM   H12B13085   2.935   3.155   1.711
  124OSM    C1113086   2.812   3.185   1.876
  124OSM   H11A13087   2.802   3.150   1.980
  124OSM   H11B13088   2.716   3.160   1.827
  124OSM      P13089   2.769   3.440   1.808
  124OSM    O1313090   2.877   3.547   1.791
  124OSM    O1413091   2.703   3.390   1.688
  124OSM    O1113092   2.659   3.489   1.916
  124OSM    O1213093   2.836   3.320   1.887
  124OSM    C1S13094   2.678   3.479   2.046
  124OSM    H1S13095   2.784   3.505   2.067
  124OSM    H1T13096   2.661   3.373   2.074
  124OSM     NF13097   2.634   3.576   2.264
  124OSM    HNF13098   2.624   3.496   2.323
  124OSM    C2S13099   2.584   3.572   2.127
  124OSM    H2S13100   2.591   3.671   2.077
  124OSM    C3S13101   2.447   3.510   2.103
  124OSM    H3S13102   2.458   3.405   2.137
  124OSM     O313103   2.400   3.516   1.973
  124OSM    HO313104   2.481   3.536   1.925
  124OSM    C4S13105   2.346   3.578   2.183
  124OSM    H4S13106   2.318   3.679   2.151
  124OSM    C5S13107   2.271   3.518   2.270
  124OSM    H5S13108   2.282   3.409   2.279
  124OSM    C6S13109   2.164   3.578   2.353
  124OSM    H6S13110   2.131   3.679   2.319
  124OSM    H6T13111   2.201   3.602   2.455
  124OSM    C7S13112   2.033   3.501   2.369
  124OSM    H7S13113   2.053   3.391   2.364
  124OSM    H7T13114   1.963   3.515   2.285
  124OSM    C8S13115   1.954   3.519   2.500
  124OSM    H8S13116   1.866   3.450   2.500
  124OSM    H8T13117   1.913   3.622   2.507
  124OSM    C9S13118   2.031   3.474   2.624
  124OSM    H9S13119   2.118   3.542   2.634
  124OSM    H9T13120   2.057   3.368   2.604
  124OSM   C10S13121   1.945   3.482   2.753
  124OSM   H10S13122   1.844   3.436   2.746
  124OSM   H10T13123   1.927   3.589   2.777
  124OSM   C11S13124   2.021   3.423   2.876
  124OSM   H11S13125   2.125   3.460   2.887
  124OSM   H11T13126   2.031   3.313   2.863
  124OSM   C12S13127   1.946   3.442   3.008
  124OSM   H12S13128   1.839   3.420   2.992
  124OSM   H12T13129   1.942   3.551   3.030
  124OSM   C13S13130   1.994   3.360   3.128
  124OSM   H13S13131   2.086   3.411   3.165
  124OSM   H13T13132   2.035   3.262   3.095
  124OSM   C14S13133   1.898   3.348   3.247
  124OSM   H14S13134   1.806   3.294   3.213
  124OSM   H14T13135   1.850   3.448   3.259
  124OSM   C15S13136   1.948   3.271   3.365
  124OSM   H15S13137   2.042   3.322   3.393
  124OSM   H15T13138   1.976   3.167   3.339
  124OSM   C16S13139   1.856   3.270   3.489
  124OSM   H16S13140   1.767   3.207   3.466
  124OSM   H16T13141   1.819   3.373   3.504
  124OSM   C17S13142   1.940   3.218   3.612
  124OSM   H17S13143   2.017   3.293   3.640
  124OSM   H17T13144   1.984   3.120   3.584
  124OSM   C18S13145   1.851   3.186   3.735
  124OSM   H18S13146   1.793   3.093   3.712
  124OSM   H18T13147   1.787   3.275   3.755
  124OSM   H18U13148   1.919   3.165   3.820
  124OSM    C1F13149   2.726   3.657   2.297
  124OSM     OF13150   2.765   3.744   2.223
  124OSM    C2F13151   2.792   3.626   2.421
  124OSM    H2F13152   2.889   3.587   2.384
  124OSM    H2G13153   2.734   3.550   2.478
  124OSM    C3F13154   2.811   3.754   2.511
  124OSM    H3F13155   2.715   3.798   2.547
  124OSM    H3G13156   2.874   3.819   2.447
  124OSM    C4F13157   2.884   3.717   2.647
  124OSM    H4F13158   2.941   3.808   2.678
  124OSM    H4G13159   2.949   3.627   2.649
  124OSM    C5F13160   2.775   3.683   2.752
  124OSM    H5F13161   2.730   3.585   2.724
  124OSM    H5G13162   2.696   3.761   2.750
  124OSM    C6F13163   2.834   3.665   2.897
  124OSM    H6F13164   2.862   3.769   2.926
  124OSM    H6G13165   2.923   3.599   2.901
  124OSM    C7F13166   2.733   3.616   3.008
  124OSM    H7F13167   2.676   3.528   2.970
  124OSM    H7G13168   2.659   3.694   3.034
  124OSM    C8F13169   2.800   3.549   3.133
  124OSM    H8F13170   2.882   3.613   3.172
  124OSM    H8G13171   2.858   3.460   3.103
  124OSM    C9F13172   2.708   3.496   3.240
  124OSM    H9F13173   2.694   3.387   3.241
  124OSM   C10F13174   2.650   3.565   3.339
  124OSM   H10F13175   2.578   3.510   3.401
  124OSM   C11F13176   2.658   3.709   3.375
  124OSM   H11F13177   2.563   3.760   3.348
  124OSM   H11G13178   2.740   3.751   3.313
  124OSM   C12F13179   2.696   3.751   3.518
  124OSM   H12F13180   2.744   3.850   3.509
  124OSM   H12G13181   2.778   3.681   3.544
  124OSM   C13F13182   2.579   3.744   3.617
  124OSM   H13F13183   2.545   3.641   3.639
  124OSM   H13G13184   2.489   3.806   3.596
  124OSM   C14F13185   2.622   3.801   3.759
  124OSM   H14F13186   2.665   3.902   3.741
  124OSM   H14G13187   2.704   3.739   3.801
  124OSM   C15F13188   2.522   3.803   3.866
  124OSM   H15F13189   2.470   3.705   3.870
  124OSM   H15G13190   2.439   3.875   3.845
  124OSM   C16F13191   2.598   3.839   4.002
  124OSM   H16F13192   2.670   3.921   3.982
  124OSM   H16G13193   2.656   3.748   4.030
  124OSM   C17F13194   2.514   3.897   4.121
  124OSM   H17F13195   2.461   3.990   4.094
  124OSM   H17G13196   2.595   3.920   4.193
  124OSM   C18F13197   2.414   3.804   4.173
  124OSM   H18F13198   2.460   3.714   4.219
  124OSM   H18G13199   2.330   3.778   4.105
  124OSM   H18H13200   2.356   3.857   4.251
  125OSM      N13201   4.148   6.357   2.080
  125OSM    C1513202   4.174   6.458   2.179
  125OSM   H15A13203   4.092   6.475   2.246
  125OSM   H15B13204   4.217   6.552   2.147
  125OSM   H15C13205   4.249   6.426   2.250
  125OSM    C1413206   4.057   6.421   1.983
  125OSM   H14A13207   4.097   6.518   1.957
  125OSM   H14B13208   3.958   6.440   2.024
  125OSM   H14C13209   4.040   6.368   1.891
  125OSM    C1313210   4.285   6.335   2.019
  125OSM   H13A13211   4.296   6.241   1.966
  125OSM   H13B13212   4.361   6.323   2.095
  125OSM   H13C13213   4.303   6.414   1.948
  125OSM    C1213214   4.084   6.241   2.155
  125OSM   H12A13215   4.158   6.184   2.210
  125OSM   H12B13216   4.052   6.169   2.081
  125OSM    C1113217   3.963   6.266   2.249
  125OSM   H11A13218   4.006   6.334   2.326
  125OSM   H11B13219   3.932   6.168   2.290
  125OSM      P13220   3.754   6.438   2.218
  125OSM    O1313221   3.699   6.493   2.093
  125OSM    O1413222   3.658   6.382   2.310
  125OSM    O1113223   3.848   6.542   2.288
  125OSM    O1213224   3.852   6.320   2.179
  125OSM    C1S13225   3.832   6.569   2.427
  125OSM    H1S13226   3.874   6.481   2.481
  125OSM    H1T13227   3.727   6.587   2.459
  125OSM     NF13228   3.877   6.707   2.621
  125OSM    HNF13229   3.817   6.781   2.649
  125OSM    C2S13230   3.903   6.701   2.480
  125OSM    H2S13231   4.012   6.682   2.472
  125OSM    C3S13232   3.857   6.824   2.401
  125OSM    H3S13233   3.753   6.853   2.427
  125OSM     O313234   3.860   6.812   2.258
  125OSM    HO313235   3.863   6.717   2.249
  125OSM    C4S13236   3.929   0.068   2.444
  125OSM    H4S13237   4.012   0.102   2.380
  125OSM    C5S13238   3.869   0.170   2.519
  125OSM    H5S13239   3.765   0.171   2.552
  125OSM    C6S13240   3.934   0.303   2.539
  125OSM    H6S13241   3.867   0.392   2.533
  125OSM    H6T13242   4.008   0.323   2.459
  125OSM    C7S13243   3.997   0.319   2.682
  125OSM    H7S13244   4.035   0.423   2.684
  125OSM    H7T13245   4.085   0.253   2.671
  125OSM    C8S13246   3.909   0.273   2.799
  125OSM    H8S13247   3.892   0.163   2.791
  125OSM    H8T13248   3.810   0.319   2.778
  125OSM    C9S13249   3.979   0.302   2.928
  125OSM    H9S13250   3.992   0.412   2.939
  125OSM    H9T13251   4.079   0.253   2.929
  125OSM   C10S13252   3.903   0.252   3.052
  125OSM   H10S13253   3.844   0.160   3.028
  125OSM   H10T13254   3.824   0.328   3.072
  125OSM   C11S13255   3.989   0.226   3.172
  125OSM   H11S13256   4.027   0.326   3.203
  125OSM   H11T13257   4.066   0.150   3.146
  125OSM   C12S13258   3.912   0.177   3.304
  125OSM   H12S13259   3.851   0.087   3.279
  125OSM   H12T13260   3.837   0.256   3.324
  125OSM   C13S13261   4.021   0.152   3.414
  125OSM   H13S13262   4.065   0.250   3.442
  125OSM   H13T13263   4.096   0.090   3.360
  125OSM   C14S13264   3.980   0.077   3.533
  125OSM   H14S13265   3.928   6.868   3.509
  125OSM   H14T13266   3.901   0.137   3.584
  125OSM   C15S13267   4.089   0.047   3.639
  125OSM   H15S13268   4.141   0.145   3.649
  125OSM   H15T13269   4.169   6.867   3.603
  125OSM   C16S13270   4.032   0.023   3.770
  125OSM   H16S13271   4.118   6.883   3.835
  125OSM   H16T13272   3.963   6.823   3.769
  125OSM   C17S13273   3.966   0.143   3.847
  125OSM   H17S13274   3.876   0.168   3.788
  125OSM   H17T13275   4.040   0.226   3.844
  125OSM   C18S13276   3.936   0.104   3.999
  125OSM   H18S13277   3.879   0.008   4.001
  125OSM   H18T13278   3.887   0.184   4.057
  125OSM   H18U13279   4.032   0.090   4.053
  125OSM    C1F13280   3.909   6.611   2.707
  125OSM     OF13281   3.998   6.532   2.680
  125OSM    C2F13282   3.827   6.598   2.831
  125OSM    H2F13283   3.808   6.489   2.840
  125OSM    H2G13284   3.734   6.656   2.814
  125OSM    C3F13285   3.908   6.638   2.955
  125OSM    H3F13286   3.954   6.738   2.936
  125OSM    H3G13287   3.989   6.562   2.963
  125OSM    C4F13288   3.835   6.637   3.093
  125OSM    H4F13289   3.766   6.550   3.098
  125OSM    H4G13290   3.768   6.722   3.118
  125OSM    C5F13291   3.938   6.608   3.201
  125OSM    H5F13292   4.016   6.688   3.201
  125OSM    H5G13293   3.995   6.519   3.166
  125OSM    C6F13294   3.886   6.583   3.340
  125OSM    H6F13295   3.808   6.504   3.332
  125OSM    H6G13296   3.833   6.663   3.395
  125OSM    C7F13297   4.001   6.533   3.433
  125OSM    H7F13298   4.075   6.614   3.452
  125OSM    H7G13299   4.047   6.442   3.389
  125OSM    C8F13300   3.943   6.479   3.571
  125OSM    H8F13301   3.860   6.412   3.540
  125OSM    H8G13302   3.903   6.560   3.636
  125OSM    C9F13303   4.043   6.410   3.654
  125OSM    H9F13304   4.148   6.435   3.637
  125OSM   C10F13305   4.018   6.333   3.762
  125OSM   H10F13306   4.105   6.286   3.810
  125OSM   C11F13307   3.879   6.307   3.815
  125OSM   H11F13308   3.891   6.206   3.858
  125OSM   H11G13309   3.807   6.315   3.731
  125OSM   C12F13310   3.821   6.391   3.931
  125OSM   H12F13311   3.904   6.394   4.005
  125OSM   H12G13312   3.740   6.321   3.961
  125OSM   C13F13313   3.763   6.526   3.894
  125OSM   H13F13314   3.706   6.522   3.798
  125OSM   H13G13315   3.840   6.605   3.881
  125OSM   C14F13316   3.659   6.590   3.993
  125OSM   H14F13317   3.619   6.689   3.963
  125OSM   H14G13318   3.722   6.599   4.085
  125OSM   C15F13319   3.544   6.503   4.021
  125OSM   H15F13320   3.574   6.404   4.060
  125OSM   H15G13321   3.483   6.487   3.929
  125OSM   C16F13322   3.447   6.564   4.123
  125OSM   H16F13323   3.361   6.495   4.116
  125OSM   H16G13324   3.420   6.662   4.079
  125OSM   C17F13325   3.498   6.561   4.265
  125OSM   H17F13326   3.581   6.634   4.277
  125OSM   H17G13327   3.537   6.460   4.287
  125OSM   C18F13328   3.389   6.581   4.378
  125OSM   H18F13329   3.336   6.678   4.379
  125OSM   H18G13330   3.444   6.561   4.473
  125OSM   H18H13331   3.311   6.502   4.373
  126OSM      N13332   2.770   1.542   2.278
  126OSM    C1513333   2.763   1.685   2.227
  126OSM   H15A13334   2.720   1.692   2.129
  126OSM   H15B13335   2.859   1.733   2.216
  126OSM   H15C13336   2.700   1.742   2.293
  126OSM    C1413337   2.881   1.459   2.221
  126OSM   H14A13338   2.904   1.373   2.281
  126OSM   H14B13339   2.976   1.508   2.209
  126OSM   H14C13340   2.849   1.429   2.122
  126OSM    C1313341   2.797   1.554   2.418
  126OSM   H13A13342   2.892   1.602   2.435
  126OSM   H13B13343   2.799   1.461   2.473
  126OSM   H13C13344   2.724   1.621   2.460
  126OSM    C1213345   2.640   1.473   2.245
  126OSM   H12A13346   2.564   1.549   2.259
  126OSM   H12B13347   2.612   1.398   2.318
  126OSM    C1113348   2.621   1.421   2.096
  126OSM   H11A13349   2.662   1.489   2.019
  126OSM   H11B13350   2.512   1.415   2.075
  126OSM      P13351   2.611   1.163   2.104
  126OSM    O1313352   2.472   1.156   2.043
  126OSM    O1413353   2.705   1.063   2.054
  126OSM    O1113354   2.590   1.148   2.260
  126OSM    O1213355   2.684   1.297   2.073
  126OSM    C1S13356   2.707   1.131   2.335
  126OSM    H1S13357   2.744   1.234   2.355
  126OSM    H1T13358   2.779   1.057   2.294
  126OSM     NF13359   2.764   1.106   2.581
  126OSM    HNF13360   2.823   1.037   2.622
  126OSM    C2S13361   2.669   1.062   2.477
  126OSM    H2S13362   2.567   1.096   2.503
  126OSM    C3S13363   2.664   0.906   2.456
  126OSM    H3S13364   2.763   0.881   2.412
  126OSM     O313365   2.573   0.869   2.355
  126OSM    HO313366   2.569   0.948   2.301
  126OSM    C4S13367   2.639   0.830   2.582
  126OSM    H4S13368   2.533   0.820   2.608
  126OSM    C5S13369   2.725   0.749   2.646
  126OSM    H5S13370   2.826   0.732   2.605
  126OSM    C6S13371   2.682   0.654   2.757
  126OSM    H6S13372   2.714   0.549   2.740
  126OSM    H6T13373   2.571   0.656   2.755
  126OSM    C7S13374   2.740   0.693   2.891
  126OSM    H7S13375   2.851   0.684   2.894
  126OSM    H7T13376   2.706   0.624   2.972
  126OSM    C8S13377   2.706   0.836   2.942
  126OSM    H8S13378   2.599   0.843   2.970
  126OSM    H8T13379   2.730   0.908   2.861
  126OSM    C9S13380   2.787   0.878   3.064
  126OSM    H9S13381   2.767   0.986   3.079
  126OSM    H9T13382   2.891   0.846   3.043
  126OSM   C10S13383   2.738   0.807   3.196
  126OSM   H10S13384   2.787   0.707   3.199
  126OSM   H10T13385   2.628   0.802   3.183
  126OSM   C11S13386   2.780   0.888   3.319
  126OSM   H11S13387   2.758   0.828   3.410
  126OSM   H11T13388   2.733   0.988   3.306
  126OSM   C12S13389   2.936   0.901   3.323
  126OSM   H12S13390   2.983   0.957   3.240
  126OSM   H12T13391   2.982   0.802   3.304
  126OSM   C13S13392   2.976   0.960   3.460
  126OSM   H13S13393   2.893   1.023   3.497
  126OSM   H13T13394   3.062   1.031   3.459
  126OSM   C14S13395   3.006   0.853   3.559
  126OSM   H14S13396   3.074   0.777   3.515
  126OSM   H14T13397   2.911   0.807   3.591
  126OSM   C15S13398   3.083   0.911   3.678
  126OSM   H15S13399   3.181   0.959   3.655
  126OSM   H15T13400   3.124   0.821   3.729
  126OSM   C16S13401   2.996   0.984   3.780
  126OSM   H16S13402   2.958   0.907   3.851
  126OSM   H16T13403   2.911   1.020   3.718
  126OSM   C17S13404   3.070   1.092   3.853
  126OSM   H17S13405   3.103   1.170   3.781
  126OSM   H17T13406   3.149   1.029   3.899
  126OSM   C18S13407   2.977   1.160   3.954
  126OSM   H18S13408   2.890   1.215   3.913
  126OSM   H18T13409   3.035   1.225   4.022
  126OSM   H18U13410   2.941   1.082   4.025
  126OSM    C1F13411   2.785   1.226   2.627
  126OSM     OF13412   2.711   1.316   2.597
  126OSM    C2F13413   2.914   1.239   2.704
  126OSM    H2F13414   2.993   1.190   2.643
  126OSM    H2G13415   2.910   1.186   2.802
  126OSM    C3F13416   2.958   1.385   2.734
  126OSM    H3F13417   2.940   1.455   2.649
  126OSM    H3G13418   3.066   1.389   2.763
  126OSM    C4F13419   2.885   1.449   2.861
  126OSM    H4F13420   2.775   1.447   2.844
  126OSM    H4G13421   2.910   1.556   2.877
  126OSM    C5F13422   2.922   1.379   2.993
  126OSM    H5F13423   3.028   1.349   2.981
  126OSM    H5G13424   2.866   1.284   3.007
  126OSM    C6F13425   2.909   1.460   3.124
  126OSM    H6F13426   2.822   1.529   3.121
  126OSM    H6G13427   3.002   1.520   3.124
  126OSM    C7F13428   2.912   1.382   3.251
  126OSM    H7F13429   2.950   1.282   3.220
  126OSM    H7G13430   2.813   1.357   3.294
  126OSM    C8F13431   3.021   1.425   3.358
  126OSM    H8F13432   3.003   1.530   3.389
  126OSM    H8G13433   3.115   1.423   3.300
  126OSM    C9F13434   3.030   1.345   3.486
  126OSM    H9F13435   3.102   1.262   3.475
  126OSM   C10F13436   2.970   1.380   3.600
  126OSM   H10F13437   2.982   1.314   3.687
  126OSM   C11F13438   2.860   1.480   3.608
  126OSM   H11F13439   2.768   1.438   3.655
  126OSM   H11G13440   2.830   1.517   3.508
  126OSM   C12F13441   2.897   1.605   3.702
  126OSM   H12F13442   2.834   1.690   3.667
  126OSM   H12G13443   2.996   1.653   3.686
  126OSM   C13F13444   2.880   1.582   3.852
  126OSM   H13F13445   2.921   1.482   3.876
  126OSM   H13G13446   2.771   1.568   3.870
  126OSM   C14F13447   2.937   1.697   3.943
  126OSM   H14F13448   2.869   1.782   3.923
  126OSM   H14G13449   3.040   1.723   3.909
  126OSM   C15F13450   2.943   1.665   4.091
  126OSM   H15F13451   2.844   1.620   4.114
  126OSM   H15G13452   2.957   1.761   4.146
  126OSM   C16F13453   3.067   1.577   4.122
  126OSM   H16F13454   3.159   1.638   4.104
  126OSM   H16G13455   3.062   1.498   4.045
  126OSM   C17F13456   3.062   1.511   4.262
  126OSM   H17F13457   3.054   1.590   4.340
  126OSM   H17G13458   3.156   1.454   4.277
  126OSM   C18F13459   2.948   1.416   4.293
  126OSM   H18F13460   2.850   1.468   4.288
  126OSM   H18G13461   2.972   1.378   4.395
  126OSM   H18H13462   2.933   1.338   4.216
  127OSM      N13463   1.807   3.129   1.579
  127OSM    C1513464   1.790   2.988   1.526
  127OSM   H15A13465   1.763   2.917   1.604
  127OSM   H15B13466   1.881   2.947   1.485
  127OSM   H15C13467   1.720   2.984   1.444
  127OSM    C1413468   1.882   3.207   1.472
  127OSM   H14A13469   1.978   3.163   1.448
  127OSM   H14B13470   1.917   3.301   1.511
  127OSM   H14C13471   1.821   3.218   1.384
  127OSM    C1313472   1.677   3.192   1.621
  127OSM   H13A13473   1.641   3.130   1.702
  127OSM   H13B13474   1.607   3.189   1.539
  127OSM   H13C13475   1.690   3.294   1.653
  127OSM    C1213476   1.895   3.127   1.704
  127OSM   H12A13477   1.935   3.225   1.725
  127OSM   H12B13478   1.988   3.082   1.673
  127OSM    C1113479   1.837   3.066   1.834
  127OSM   H11A13480   1.747   3.124   1.861
  127OSM   H11B13481   1.914   3.085   1.913
  127OSM      P13482   1.926   2.821   1.820
  127OSM    O1313483   1.869   2.696   1.765
  127OSM    O1413484   2.043   2.877   1.739
  127OSM    O1113485   1.978   2.798   1.976
  127OSM    O1213486   1.818   2.921   1.821
  127OSM    C1S13487   1.870   2.785   2.072
  127OSM    H1S13488   1.827   2.683   2.069
  127OSM    H1T13489   1.787   2.857   2.055
  127OSM     NF13490   1.811   2.770   2.306
  127OSM    HNF13491   1.739   2.829   2.340
  127OSM    C2S13492   1.913   2.823   2.211
  127OSM    H2S13493   2.010   2.781   2.242
  127OSM    C3S13494   1.943   2.983   2.222
  127OSM    H3S13495   1.861   3.044   2.178
  127OSM     O313496   2.050   3.017   2.139
  127OSM    HO313497   2.026   2.965   2.061
  127OSM    C4S13498   1.981   3.028   2.357
  127OSM    H4S13499   2.074   2.980   2.390
  127OSM    C5S13500   1.904   3.090   2.449
  127OSM    H5S13501   1.801   3.122   2.426
  127OSM    C6S13502   1.953   3.114   2.591
  127OSM    H6S13503   1.905   3.210   2.620
  127OSM    H6T13504   2.062   3.135   2.595
  127OSM    C7S13505   1.908   3.004   2.687
  127OSM    H7S13506   1.973   2.914   2.687
  127OSM    H7T13507   1.803   2.969   2.673
  127OSM    C8S13508   1.907   3.050   2.838
  127OSM    H8S13509   1.843   3.139   2.854
  127OSM    H8T13510   2.006   3.091   2.870
  127OSM    C9S13511   1.845   2.953   2.935
  127OSM    H9S13512   1.902   2.858   2.943
  127OSM    H9T13513   1.749   2.923   2.886
  127OSM   C10S13514   1.824   3.012   3.073
  127OSM   H10S13515   1.747   3.092   3.077
  127OSM   H10T13516   1.915   3.066   3.109
  127OSM   C11S13517   1.775   2.906   3.164
  127OSM   H11S13518   1.855   2.829   3.172
  127OSM   H11T13519   1.685   2.859   3.119
  127OSM   C12S13520   1.730   2.958   3.301
  127OSM   H12S13521   1.661   3.039   3.270
  127OSM   H12T13522   1.808   3.013   3.358
  127OSM   C13S13523   1.660   2.857   3.395
  127OSM   H13S13524   1.732   2.774   3.411
  127OSM   H13T13525   1.568   2.811   3.351
  127OSM   C14S13526   1.621   2.916   3.537
  127OSM   H14S13527   1.564   3.008   3.512
  127OSM   H14T13528   1.716   2.934   3.592
  127OSM   C15S13529   1.531   2.820   3.614
  127OSM   H15S13530   1.578   2.720   3.622
  127OSM   H15T13531   1.437   2.801   3.560
  127OSM   C16S13532   1.503   2.865   3.755
  127OSM   H16S13533   1.450   2.962   3.746
  127OSM   H16T13534   1.599   2.876   3.811
  127OSM   C17S13535   1.402   2.770   3.826
  127OSM   H17S13536   1.314   2.761   3.758
  127OSM   H17T13537   1.360   2.819   3.917
  127OSM   C18S13538   1.452   2.624   3.869
  127OSM   H18S13539   1.366   2.578   3.921
  127OSM   H18T13540   1.532   2.633   3.946
  127OSM   H18U13541   1.488   2.560   3.785
  127OSM    C1F13542   1.793   2.643   2.343
  127OSM     OF13543   1.838   2.549   2.279
  127OSM    C2F13544   1.717   2.621   2.472
  127OSM    H2F13545   1.607   2.615   2.458
  127OSM    H2G13546   1.724   2.708   2.540
  127OSM    C3F13547   1.750   2.485   2.539
  127OSM    H3F13548   1.860   2.468   2.530
  127OSM    H3G13549   1.709   2.395   2.488
  127OSM    C4F13550   1.691   2.476   2.682
  127OSM    H4F13551   1.725   2.380   2.727
  127OSM    H4G13552   1.581   2.464   2.681
  127OSM    C5F13553   1.736   2.588   2.782
  127OSM    H5F13554   1.692   2.683   2.747
  127OSM    H5G13555   1.847   2.595   2.774
  127OSM    C6F13556   1.685   2.558   2.923
  127OSM    H6F13557   1.574   2.564   2.921
  127OSM    H6G13558   1.726   2.638   2.989
  127OSM    C7F13559   1.737   2.429   2.986
  127OSM    H7F13560   1.848   2.419   2.984
  127OSM    H7G13561   1.702   2.351   2.915
  127OSM    C8F13562   1.676   2.391   3.121
  127OSM    H8F13563   1.716   2.290   3.144
  127OSM    H8G13564   1.566   2.379   3.104
  127OSM    C9F13565   1.705   2.485   3.236
  127OSM    H9F13566   1.651   2.581   3.242
  127OSM   C10F13567   1.775   2.458   3.345
  127OSM   H10F13568   1.776   2.534   3.425
  127OSM   C11F13569   1.850   2.337   3.379
  127OSM   H11F13570   1.943   2.379   3.423
  127OSM   H11G13571   1.887   2.286   3.287
  127OSM   C12F13572   1.779   2.231   3.469
  127OSM   H12F13573   1.835   2.136   3.481
  127OSM   H12G13574   1.685   2.203   3.417
  127OSM   C13F13575   1.746   2.293   3.605
  127OSM   H13F13576   1.706   2.395   3.590
  127OSM   H13G13577   1.840   2.308   3.662
  127OSM   C14F13578   1.643   2.204   3.694
  127OSM   H14F13579   1.691   2.107   3.719
  127OSM   H14G13580   1.570   2.180   3.614
  127OSM   C15F13581   1.591   2.269   3.819
  127OSM   H15F13582   1.551   2.190   3.887
  127OSM   H15G13583   1.509   2.341   3.797
  127OSM   C16F13584   1.695   2.337   3.912
  127OSM   H16F13585   1.644   2.370   4.005
  127OSM   H16G13586   1.734   2.427   3.860
  127OSM   C17F13587   1.814   2.243   3.956
  127OSM   H17F13588   1.869   2.221   3.862
  127OSM   H17G13589   1.779   2.144   3.992
  127OSM   C18F13590   1.898   2.299   4.072
  127OSM   H18F13591   1.965   2.217   4.104
  127OSM   H18G13592   1.838   2.321   4.163
  127OSM   H18H13593   1.965   2.383   4.042
  128OSM      N13594   2.134   1.019   2.199
  128OSM    C1513595   2.242   1.104   2.273
  128OSM   H15A13596   2.196   1.159   2.354
  128OSM   H15B13597   2.291   1.173   2.206
  128OSM   H15C13598   2.319   1.039   2.312
  128OSM    C1413599   2.028   1.112   2.145
  128OSM   H14A13600   2.079   1.192   2.093
  128OSM   H14B13601   1.972   1.150   2.229
  128OSM   H14C13602   1.963   1.056   2.079
  128OSM    C1313603   2.195   0.958   2.085
  128OSM   H13A13604   2.130   0.879   2.051
  128OSM   H13B13605   2.284   0.904   2.113
  128OSM   H13C13606   2.226   1.032   2.012
  128OSM    C1213607   2.076   0.916   2.296
  128OSM   H12A13608   2.037   0.970   2.381
  128OSM   H12B13609   2.151   0.845   2.328
  128OSM    C1113610   1.951   0.845   2.233
  128OSM   H11A13611   1.876   0.924   2.214
  128OSM   H11B13612   1.903   0.778   2.307
  128OSM      P13613   1.911   0.648   2.064
  128OSM    O1313614   1.920   0.640   1.913
  128OSM    O1413615   1.970   0.528   2.129
  128OSM    O1113616   1.766   0.663   2.113
  128OSM    O1213617   1.979   0.782   2.107
  128OSM    C1S13618   1.711   0.605   2.232
  128OSM    H1S13619   1.788   0.568   2.302
  128OSM    H1T13620   1.650   0.514   2.213
  128OSM     NF13621   1.556   0.673   2.436
  128OSM    HNF13622   1.458   0.677   2.456
  128OSM    C2S13623   1.607   0.712   2.299
  128OSM    H2S13624   1.681   0.792   2.322
  128OSM    C3S13625   1.507   0.764   2.191
  128OSM    H3S13626   1.441   0.676   2.172
  128OSM     O313627   1.557   0.803   2.066
  128OSM    HO313628   1.644   0.762   2.073
  128OSM    C4S13629   1.424   0.879   2.254
  128OSM    H4S13630   1.345   0.833   2.315
  128OSM    C5S13631   1.433   1.016   2.243
  128OSM    H5S13632   1.521   1.057   2.191
  128OSM    C6S13633   1.349   1.127   2.306
  128OSM    H6S13634   1.298   1.169   2.217
  128OSM    H6T13635   1.407   1.209   2.354
  128OSM    C7S13636   1.232   1.095   2.397
  128OSM    H7S13637   1.162   1.017   2.361
  128OSM    H7T13638   1.177   1.192   2.403
  128OSM    C8S13639   1.258   1.059   2.543
  128OSM    H8S13640   1.310   0.962   2.557
  128OSM    H8T13641   1.153   1.044   2.578
  128OSM    C9S13642   1.323   1.172   2.615
  128OSM    H9S13643   1.256   1.260   2.605
  128OSM    H9T13644   1.414   1.197   2.555
  128OSM   C10S13645   1.355   1.137   2.764
  128OSM   H10S13646   1.397   1.035   2.776
  128OSM   H10T13647   1.257   1.143   2.815
  128OSM   C11S13648   1.438   1.243   2.832
  128OSM   H11S13649   1.402   1.347   2.823
  128OSM   H11T13650   1.540   1.246   2.788
  128OSM   C12S13651   1.450   1.206   2.982
  128OSM   H12S13652   1.511   1.113   2.979
  128OSM   H12T13653   1.353   1.185   3.031
  128OSM   C13S13654   1.548   1.303   3.053
  128OSM   H13S13655   1.495   1.400   3.059
  128OSM   H13T13656   1.654   1.300   3.019
  128OSM   C14S13657   1.542   1.268   3.204
  128OSM   H14S13658   1.590   1.172   3.233
  128OSM   H14T13659   1.439   1.273   3.246
  128OSM   C15S13660   1.607   1.384   3.279
  128OSM   H15S13661   1.554   1.476   3.247
  128OSM   H15T13662   1.711   1.377   3.241
  128OSM   C16S13663   1.597   1.366   3.435
  128OSM   H16S13664   1.534   1.283   3.472
  128OSM   H16T13665   1.540   1.456   3.469
  128OSM   C17S13666   1.733   1.375   3.508
  128OSM   H17S13667   1.720   1.385   3.617
  128OSM   H17T13668   1.779   1.472   3.482
  128OSM   C18S13669   1.832   1.256   3.476
  128OSM   H18S13670   1.781   1.157   3.475
  128OSM   H18T13671   1.918   1.258   3.546
  128OSM   H18U13672   1.866   1.280   3.374
  128OSM    C1F13673   1.642   0.644   2.531
  128OSM     OF13674   1.763   0.652   2.508
  128OSM    C2F13675   1.591   0.612   2.666
  128OSM    H2F13676   1.489   0.570   2.654
  128OSM    H2G13677   1.567   0.703   2.724
  128OSM    C3F13678   1.677   0.517   2.753
  128OSM    H3F13679   1.782   0.552   2.761
  128OSM    H3G13680   1.683   0.413   2.714
  128OSM    C4F13681   1.627   0.521   2.895
  128OSM    H4F13682   1.530   0.465   2.901
  128OSM    H4G13683   1.596   0.615   2.944
  128OSM    C5F13684   1.732   0.450   2.987
  128OSM    H5F13685   1.790   0.533   3.032
  128OSM    H5G13686   1.800   0.391   2.922
  128OSM    C6F13687   1.672   0.348   3.091
  128OSM    H6F13688   1.630   0.264   3.032
  128OSM    H6G13689   1.592   0.403   3.146
  128OSM    C7F13690   1.790   0.291   3.173
  128OSM    H7F13691   1.843   0.376   3.223
  128OSM    H7G13692   1.858   0.235   3.106
  128OSM    C8F13693   1.757   0.193   3.286
  128OSM    H8F13694   1.850   0.174   3.344
  128OSM    H8G13695   1.729   0.095   3.240
  128OSM    C9F13696   1.639   0.240   3.371
  128OSM    H9F13697   1.544   0.261   3.320
  128OSM   C10F13698   1.634   0.250   3.502
  128OSM   H10F13699   1.548   0.291   3.557
  128OSM   C11F13700   1.753   0.223   3.601
  128OSM   H11F13701   1.806   0.136   3.558
  128OSM   H11G13702   1.725   0.193   3.704
  128OSM   C12F13703   1.846   0.344   3.591
  128OSM   H12F13704   1.817   0.432   3.652
  128OSM   H12G13705   1.846   0.386   3.488
  128OSM   C13F13706   1.991   0.316   3.637
  128OSM   H13F13707   2.045   0.406   3.601
  128OSM   H13G13708   2.033   0.226   3.586
  128OSM   C14F13709   2.016   0.299   3.787
  128OSM   H14F13710   1.965   0.208   3.824
  128OSM   H14G13711   1.969   0.389   3.833
  128OSM   C15F13712   2.165   0.314   3.821
  128OSM   H15F13713   2.192   0.422   3.823
  128OSM   H15G13714   2.223   0.249   3.752
  128OSM   C16F13715   2.210   0.272   3.963
  128OSM   H16F13716   2.145   0.328   4.033
  128OSM   H16G13717   2.313   0.304   3.991
  128OSM   C17F13718   2.196   0.119   4.001
  128OSM   H17F13719   2.284   0.063   3.962
  128OSM   H17G13720   2.104   0.075   3.956
  128OSM   C18F13721   2.196   0.065   4.151
  128OSM   H18F13722   2.105   0.107   4.199
  128OSM   H18G13723   2.277   0.119   4.204
  128OSM   H18H13724   2.205   6.841   4.149
  129OSM      N13725   3.700   0.212   1.989
  129OSM    C1513726   3.549   0.194   1.962
  129OSM   H15A13727   3.501   0.180   2.058
  129OSM   H15B13728   3.525   0.112   1.896
  129OSM   H15C13729   3.508   0.275   1.905
  129OSM    C1413730   3.758   0.075   2.016
  129OSM   H14A13731   3.722   0.042   2.112
  129OSM   H14B13732   3.866   0.072   2.015
  129OSM   H14C13733   3.727   6.886   1.945
  129OSM    C1313734   3.753   0.258   1.860
  129OSM   H13A13735   3.706   0.197   1.784
  129OSM   H13B13736   3.861   0.260   1.853
  129OSM   H13C13737   3.716   0.359   1.846
  129OSM    C1213738   3.728   0.313   2.099
  129OSM   H12A13739   3.717   0.413   2.060
  129OSM   H12B13740   3.831   0.307   2.129
  129OSM    C1113741   3.637   0.294   2.226
  129OSM   H11A13742   3.675   0.367   2.301
  129OSM   H11B13743   3.659   0.194   2.269
  129OSM      P13744   3.440   0.468   2.183
  129OSM    O1313745   3.546   0.543   2.105
  129OSM    O1413746   3.310   0.460   2.113
  129OSM    O1113747   3.416   0.546   2.327
  129OSM    O1213748   3.496   0.319   2.218
  129OSM    C1S13749   3.401   0.463   2.443
  129OSM    H1S13750   3.376   0.357   2.421
  129OSM    H1T13751   3.312   0.503   2.496
  129OSM     NF13752   3.504   0.394   2.660
  129OSM    HNF13753   3.480   0.439   2.746
  129OSM    C2S13754   3.516   0.479   2.542
  129OSM    H2S13755   3.607   0.451   2.485
  129OSM    C3S13756   3.530   0.627   2.575
  129OSM    H3S13757   3.434   0.668   2.611
  129OSM     O313758   3.566   0.719   2.470
  129OSM    HO313759   3.519   0.677   2.397
  129OSM    C4S13760   3.626   0.646   2.689
  129OSM    H4S13761   3.573   0.675   2.780
  129OSM    C5S13762   3.759   0.656   2.693
  129OSM    H5S13763   3.820   0.660   2.602
  129OSM    C6S13764   3.840   0.698   2.816
  129OSM    H6S13765   3.890   0.794   2.793
  129OSM    H6T13766   3.929   0.631   2.823
  129OSM    C7S13767   3.768   0.699   2.953
  129OSM    H7S13768   3.699   0.614   2.974
  129OSM    H7T13769   3.710   0.794   2.961
  129OSM    C8S13770   3.871   0.704   3.063
  129OSM    H8S13771   3.938   0.792   3.054
  129OSM    H8T13772   3.938   0.616   3.050
  129OSM    C9S13773   3.812   0.704   3.201
  129OSM    H9S13774   3.755   0.609   3.198
  129OSM    H9T13775   3.753   0.796   3.216
  129OSM   C10S13776   3.917   0.694   3.311
  129OSM   H10S13777   3.977   0.787   3.305
  129OSM   H10T13778   3.982   0.606   3.289
  129OSM   C11S13779   3.868   0.690   3.461
  129OSM   H11S13780   3.772   0.747   3.463
  129OSM   H11T13781   3.952   0.731   3.520
  129OSM   C12S13782   3.835   0.548   3.508
  129OSM   H12S13783   3.933   0.496   3.500
  129OSM   H12T13784   3.763   0.503   3.436
  129OSM   C13S13785   3.772   0.548   3.653
  129OSM   H13S13786   3.706   0.462   3.674
  129OSM   H13T13787   3.697   0.630   3.658
  129OSM   C14S13788   3.862   0.552   3.775
  129OSM   H14S13789   3.945   0.626   3.772
  129OSM   H14T13790   3.923   0.460   3.792
  129OSM   C15S13791   3.783   0.585   3.900
  129OSM   H15S13792   3.750   0.691   3.909
  129OSM   H15T13793   3.859   0.574   3.980
  129OSM   C16S13794   3.676   0.480   3.939
  129OSM   H16S13795   3.739   0.397   3.978
  129OSM   H16T13796   3.612   0.449   3.853
  129OSM   C17S13797   3.579   0.532   4.048
  129OSM   H17S13798   3.526   0.444   4.090
  129OSM   H17T13799   3.510   0.601   3.994
  129OSM   C18S13800   3.654   0.598   4.162
  129OSM   H18S13801   3.753   0.553   4.186
  129OSM   H18T13802   3.592   0.603   4.254
  129OSM   H18U13803   3.680   0.704   4.141
  129OSM    C1F13804   3.493   0.257   2.664
  129OSM     OF13805   3.529   0.183   2.573
  129OSM    C2F13806   3.435   0.207   2.792
  129OSM    H2F13807   3.368   0.119   2.778
  129OSM    H2G13808   3.359   0.283   2.820
  129OSM    C3F13809   3.538   0.200   2.912
  129OSM    H3F13810   3.594   0.296   2.920
  129OSM    H3G13811   3.605   0.115   2.888
  129OSM    C4F13812   3.468   0.162   3.042
  129OSM    H4F13813   3.416   0.066   3.021
  129OSM    H4G13814   3.389   0.230   3.081
  129OSM    C5F13815   3.561   0.151   3.160
  129OSM    H5F13816   3.610   0.248   3.186
  129OSM    H5G13817   3.647   0.088   3.131
  129OSM    C6F13818   3.490   0.094   3.290
  129OSM    H6F13819   3.435   0.000   3.267
  129OSM    H6G13820   3.412   0.168   3.318
  129OSM    C7F13821   3.592   0.070   3.402
  129OSM    H7F13822   3.629   0.170   3.432
  129OSM    H7G13823   3.672   0.011   3.353
  129OSM    C8F13824   3.533   6.880   3.522
  129OSM    H8F13825   3.489   6.788   3.478
  129OSM    H8G13826   3.455   0.063   3.558
  129OSM    C9F13827   3.640   6.850   3.621
  129OSM    H9F13828   3.713   6.773   3.594
  129OSM   C10F13829   3.657   0.020   3.747
  129OSM   H10F13830   3.733   6.867   3.815
  129OSM   C11F13831   3.567   0.120   3.810
  129OSM   H11F13832   3.519   0.188   3.736
  129OSM   H11G13833   3.633   0.174   3.882
  129OSM   C12F13834   3.465   0.059   3.895
  129OSM   H12F13835   3.504   6.871   3.967
  129OSM   H12G13836   3.405   6.884   3.825
  129OSM   C13F13837   3.370   0.150   3.975
  129OSM   H13F13838   3.303   0.210   3.911
  129OSM   H13G13839   3.430   0.213   4.045
  129OSM   C14F13840   3.264   0.072   4.055
  129OSM   H14F13841   3.325   0.005   4.119
  129OSM   H14G13842   3.202   0.003   3.994
  129OSM   C15F13843   3.165   0.167   4.129
  129OSM   H15F13844   3.148   0.258   4.069
  129OSM   H15G13845   3.215   0.196   4.224
  129OSM   C16F13846   3.028   0.105   4.177
  129OSM   H16F13847   2.975   0.074   4.084
  129OSM   H16G13848   2.976   0.184   4.236
  129OSM   C17F13849   3.029   6.865   4.265
  129OSM   H17F13850   3.069   6.773   4.218
  129OSM   H17G13851   2.925   6.841   4.298
  129OSM   C18F13852   3.125   6.874   4.390
  129OSM   H18F13853   3.232   6.884   4.360
  129OSM   H18G13854   3.112   6.779   4.445
  129OSM   H18H13855   3.092   0.065   4.461
  130OSM      N13856   3.695   4.118   1.684
  130OSM    C1513857   3.703   4.145   1.538
  130OSM   H15A13858   3.642   4.230   1.509
  130OSM   H15B13859   3.665   4.063   1.480
  130OSM   H15C13860   3.806   4.161   1.509
  130OSM    C1413861   3.817   4.052   1.726
  130OSM   H14A13862   3.825   3.963   1.665
  130OSM   H14B13863   3.820   4.018   1.829
  130OSM   H14C13864   3.902   4.115   1.705
  130OSM    C1313865   3.696   4.237   1.767
  130OSM   H13A13866   3.606   4.295   1.761
  130OSM   H13B13867   3.777   4.303   1.739
  130OSM   H13C13868   3.711   4.210   1.870
  130OSM    C1213869   3.573   4.026   1.719
  130OSM   H12A13870   3.570   4.024   1.827
  130OSM   H12B13871   3.607   3.928   1.690
  130OSM    C1113872   3.428   4.071   1.667
  130OSM   H11A13873   3.365   3.980   1.672
  130OSM   H11B13874   3.438   4.088   1.558
  130OSM      P13875   3.340   4.197   1.869
  130OSM    O1313876   3.384   4.330   1.918
  130OSM    O1413877   3.194   4.159   1.868
  130OSM    O1113878   3.425   4.085   1.940
  130OSM    O1213879   3.382   4.187   1.725
  130OSM    C1S13880   3.511   4.091   2.052
  130OSM    H1S13881   3.558   4.189   2.074
  130OSM    H1T13882   3.597   4.026   2.026
  130OSM     NF13883   3.525   4.097   2.300
  130OSM    HNF13884   3.597   4.042   2.341
  130OSM    C2S13885   3.456   4.033   2.185
  130OSM    H2S13886   3.351   4.070   2.189
  130OSM    C3S13887   3.452   3.876   2.178
  130OSM    H3S13888   3.559   3.849   2.184
  130OSM     O313889   3.397   3.825   2.059
  130OSM    HO313890   3.386   3.905   2.007
  130OSM    C4S13891   3.378   3.824   2.300
  130OSM    H4S13892   3.444   3.816   2.387
  130OSM    C5S13893   3.250   3.795   2.323
  130OSM    H5S13894   3.177   3.796   2.241
  130OSM    C6S13895   3.188   3.757   2.452
  130OSM    H6S13896   3.111   3.680   2.432
  130OSM    H6T13897   3.132   3.841   2.499
  130OSM    C7S13898   3.286   3.719   2.572
  130OSM    H7S13899   3.351   3.807   2.593
  130OSM    H7T13900   3.336   3.627   2.534
  130OSM    C8S13901   3.216   3.693   2.703
  130OSM    H8S13902   3.160   3.598   2.690
  130OSM    H8T13903   3.135   3.768   2.718
  130OSM    C9S13904   3.304   3.692   2.829
  130OSM    H9S13905   3.345   3.794   2.843
  130OSM    H9T13906   3.388   3.621   2.815
  130OSM   C10S13907   3.232   3.648   2.956
  130OSM   H10S13908   3.195   3.544   2.941
  130OSM   H10T13909   3.140   3.707   2.977
  130OSM   C11S13910   3.323   3.663   3.075
  130OSM   H11S13911   3.314   3.770   3.102
  130OSM   H11T13912   3.431   3.641   3.062
  130OSM   C12S13913   3.266   3.586   3.195
  130OSM   H12S13914   3.294   3.478   3.191
  130OSM   H12T13915   3.155   3.585   3.202
  130OSM   C13S13916   3.336   3.636   3.321
  130OSM   H13S13917   3.327   3.746   3.331
  130OSM   H13T13918   3.444   3.608   3.316
  130OSM   C14S13919   3.268   3.581   3.450
  130OSM   H14S13920   3.289   3.474   3.474
  130OSM   H14T13921   3.158   3.581   3.434
  130OSM   C15S13922   3.310   3.667   3.569
  130OSM   H15S13923   3.271   3.769   3.547
  130OSM   H15T13924   3.420   3.670   3.558
  130OSM   C16S13925   3.258   3.616   3.707
  130OSM   H16S13926   3.288   3.683   3.790
  130OSM   H16T13927   3.294   3.515   3.737
  130OSM   C17S13928   3.102   3.613   3.722
  130OSM   H17S13929   3.067   3.533   3.654
  130OSM   H17T13930   3.049   3.702   3.682
  130OSM   C18S13931   3.062   3.570   3.866
  130OSM   H18S13932   3.106   3.639   3.941
  130OSM   H18T13933   3.110   3.476   3.901
  130OSM   H18U13934   2.952   3.554   3.878
  130OSM    C1F13935   3.520   4.226   2.319
  130OSM     OF13936   3.425   4.301   2.290
  130OSM    C2F13937   3.643   4.283   2.379
  130OSM    H2F13938   3.705   4.336   2.304
  130OSM    H2G13939   3.695   4.190   2.412
  130OSM    C3F13940   3.604   4.383   2.500
  130OSM    H3F13941   3.523   4.330   2.554
  130OSM    H3G13942   3.554   4.470   2.452
  130OSM    C4F13943   3.718   4.436   2.584
  130OSM    H4F13944   3.781   4.499   2.518
  130OSM    H4G13945   3.781   4.357   2.632
  130OSM    C5F13946   3.669   4.523   2.703
  130OSM    H5F13947   3.584   4.582   2.661
  130OSM    H5G13948   3.749   4.593   2.735
  130OSM    C6F13949   3.623   4.442   2.824
  130OSM    H6F13950   3.712   4.426   2.889
  130OSM    H6G13951   3.587   4.338   2.815
  130OSM    C7F13952   3.521   4.520   2.913
  130OSM    H7F13953   3.436   4.538   2.844
  130OSM    H7G13954   3.571   4.610   2.956
  130OSM    C8F13955   3.478   4.420   3.025
  130OSM    H8F13956   3.450   4.324   2.977
  130OSM    H8G13957   3.390   4.469   3.073
  130OSM    C9F13958   3.591   4.390   3.123
  130OSM    H9F13959   3.672   4.327   3.083
  130OSM   C10F13960   3.574   4.398   3.261
  130OSM   H10F13961   3.657   4.357   3.320
  130OSM   C11F13962   3.464   4.446   3.349
  130OSM   H11F13963   3.409   4.360   3.393
  130OSM   H11G13964   3.395   4.512   3.292
  130OSM   C12F13965   3.521   4.530   3.471
  130OSM   H12F13966   3.582   4.611   3.426
  130OSM   H12G13967   3.598   4.463   3.514
  130OSM   C13F13968   3.419   4.589   3.568
  130OSM   H13F13969   3.336   4.517   3.585
  130OSM   H13G13970   3.372   4.680   3.525
  130OSM   C14F13971   3.469   4.604   3.714
  130OSM   H14F13972   3.390   4.645   3.780
  130OSM   H14G13973   3.555   4.675   3.718
  130OSM   C15F13974   3.521   4.472   3.779
  130OSM   H15F13975   3.590   4.426   3.705
  130OSM   H15G13976   3.441   4.395   3.788
  130OSM   C16F13977   3.592   4.489   3.915
  130OSM   H16F13978   3.526   4.556   3.974
  130OSM   H16G13979   3.692   4.533   3.895
  130OSM   C17F13980   3.615   4.349   3.980
  130OSM   H17F13981   3.651   4.277   3.903
  130OSM   H17G13982   3.514   4.309   4.004
  130OSM   C18F13983   3.709   4.346   4.105
  130OSM   H18F13984   3.719   4.435   4.172
  130OSM   H18G13985   3.807   4.323   4.056
  130OSM   H18H13986   3.679   4.261   4.169
  131OSM      N13987   0.193   0.633   2.221
  131OSM    C1513988   0.204   0.634   2.366
  131OSM   H15A13989   0.132   0.703   2.408
  131OSM   H15B13990   0.306   0.659   2.390
  131OSM   H15C13991   0.198   0.540   2.418
  131OSM    C1413992   0.048   0.646   2.183
  131OSM   H14A13993   0.042   0.652   2.075
  131OSM   H14B13994   0.002   0.736   2.221
  131OSM   H14C13995   6.875   0.568   2.227
  131OSM    C1313996   0.263   0.749   2.164
  131OSM   H13A13997   0.240   0.759   2.059
  131OSM   H13B13998   0.368   0.762   2.184
  131OSM   H13C13999   0.215   0.840   2.196
  131OSM    C1214000   0.248   0.506   2.158
  131OSM   H12A14001   0.220   0.502   2.054
  131OSM   H12B14002   0.197   0.421   2.201
  131OSM    C1114003   0.396   0.495   2.160
  131OSM   H11A14004   0.408   0.387   2.138
  131OSM   H11B14005   0.435   0.519   2.262
  131OSM      P14006   0.613   0.533   2.024
  131OSM    O1314007   0.621   0.403   1.949
  131OSM    O1414008   0.680   0.650   1.963
  131OSM    O1114009   0.680   0.502   2.170
  131OSM    O1214010   0.455   0.570   2.055
  131OSM    C1S14011   0.744   0.604   2.242
  131OSM    H1S14012   0.669   0.682   2.267
  131OSM    H1T14013   0.833   0.646   2.191
  131OSM     NF14014   0.848   0.655   2.452
  131OSM    HNF14015   0.946   0.670   2.437
  131OSM    C2S14016   0.802   0.542   2.372
  131OSM    H2S14017   0.725   0.487   2.429
  131OSM    C3S14018   0.897   0.425   2.347
  131OSM    H3S14019   0.975   0.466   2.279
  131OSM     O314020   0.847   0.320   2.266
  131OSM    HO314021   0.766   0.352   2.227
  131OSM    C4S14022   0.965   0.368   2.467
  131OSM    H4S14023   1.063   0.410   2.492
  131OSM    C5S14024   0.913   0.272   2.549
  131OSM    H5S14025   0.830   0.210   2.513
  131OSM    C6S14026   0.985   0.227   2.673
  131OSM    H6S14027   1.066   0.300   2.695
  131OSM    H6T14028   1.035   0.129   2.656
  131OSM    C7S14029   0.891   0.213   2.795
  131OSM    H7S14030   0.805   0.143   2.790
  131OSM    H7T14031   0.854   0.316   2.812
  131OSM    C8S14032   0.981   0.163   2.908
  131OSM    H8S14033   1.076   0.220   2.918
  131OSM    H8T14034   0.998   0.054   2.901
  131OSM    C9S14035   0.905   0.201   3.045
  131OSM    H9S14036   0.808   0.149   3.060
  131OSM    H9T14037   0.871   0.307   3.050
  131OSM   C10S14038   0.980   0.166   3.178
  131OSM   H10S14039   1.084   0.203   3.166
  131OSM   H10T14040   0.985   0.057   3.194
  131OSM   C11S14041   0.935   0.249   3.299
  131OSM   H11S14042   0.827   0.236   3.325
  131OSM   H11T14043   0.951   0.355   3.270
  131OSM   C12S14044   1.026   0.224   3.418
  131OSM   H12S14045   1.126   0.259   3.383
  131OSM   H12T14046   1.034   0.115   3.439
  131OSM   C13S14047   0.990   0.308   3.533
  131OSM   H13S14048   0.880   0.312   3.548
  131OSM   H13T14049   1.019   0.414   3.516
  131OSM   C14S14050   1.067   0.263   3.666
  131OSM   H14S14051   1.173   0.250   3.636
  131OSM   H14T14052   1.028   0.161   3.690
  131OSM   C15S14053   1.038   0.361   3.772
  131OSM   H15S14054   0.927   0.360   3.783
  131OSM   H15T14055   1.070   0.457   3.725
  131OSM   C16S14056   1.134   0.352   3.902
  131OSM   H16S14057   1.139   0.246   3.935
  131OSM   H16T14058   1.102   0.426   3.978
  131OSM   C17S14059   1.274   0.381   3.862
  131OSM   H17S14060   1.289   0.476   3.806
  131OSM   H17T14061   1.318   0.315   3.785
  131OSM   C18S14062   1.368   0.383   3.982
  131OSM   H18S14063   1.472   0.408   3.954
  131OSM   H18T14064   1.355   0.285   4.033
  131OSM   H18U14065   1.333   0.466   4.047
  131OSM    C1F14066   0.777   0.759   2.489
  131OSM     OF14067   0.655   0.755   2.493
  131OSM    C2F14068   0.854   0.886   2.515
  131OSM    H2F14069   0.863   0.928   2.412
  131OSM    H2G14070   0.952   0.856   2.558
  131OSM    C3F14071   0.785   0.974   2.621
  131OSM    H3F14072   0.765   0.909   2.708
  131OSM    H3G14073   0.683   1.008   2.590
  131OSM    C4F14074   0.867   1.096   2.660
  131OSM    H4F14075   0.802   1.176   2.701
  131OSM    H4G14076   0.926   1.129   2.572
  131OSM    C5F14077   0.975   1.076   2.768
  131OSM    H5F14078   1.027   1.174   2.780
  131OSM    H5G14079   1.050   1.000   2.736
  131OSM    C6F14080   0.913   1.020   2.898
  131OSM    H6F14081   0.903   0.910   2.900
  131OSM    H6G14082   0.807   1.055   2.902
  131OSM    C7F14083   1.007   1.067   3.018
  131OSM    H7F14084   1.009   1.178   3.019
  131OSM    H7G14085   1.114   1.036   3.015
  131OSM    C8F14086   0.934   1.023   3.145
  131OSM    H8F14087   0.911   0.914   3.137
  131OSM    H8G14088   0.845   1.088   3.154
  131OSM    C9F14089   1.022   1.047   3.270
  131OSM    H9F14090   1.128   1.023   3.250
  131OSM   C10F14091   0.994   1.100   3.388
  131OSM   H10F14092   1.076   1.129   3.456
  131OSM   C11F14093   0.867   1.149   3.441
  131OSM   H11F14094   0.783   1.115   3.377
  131OSM   H11G14095   0.856   1.259   3.449
  131OSM   C12F14096   0.843   1.095   3.578
  131OSM   H12F14097   0.845   0.984   3.572
  131OSM   H12G14098   0.740   1.117   3.615
  131OSM   C13F14099   0.925   1.151   3.699
  131OSM   H13F14100   0.874   1.243   3.735
  131OSM   H13G14101   1.030   1.157   3.666
  131OSM   C14F14102   0.918   1.072   3.826
  131OSM   H14F14103   0.974   0.976   3.818
  131OSM   H14G14104   0.810   1.046   3.834
  131OSM   C15F14105   0.955   1.143   3.951
  131OSM   H15F14106   0.881   1.225   3.958
  131OSM   H15G14107   1.062   1.175   3.952
  131OSM   C16F14108   0.934   1.055   4.082
  131OSM   H16F14109   1.020   0.987   4.097
  131OSM   H16G14110   0.840   0.999   4.062
  131OSM   C17F14111   0.926   1.134   4.217
  131OSM   H17F14112   0.903   1.064   4.301
  131OSM   H17G14113   0.851   1.215   4.209
  131OSM   C18F14114   1.048   1.213   4.254
  131OSM   H18F14115   1.035   1.260   4.354
  131OSM   H18G14116   1.061   1.302   4.190
  131OSM   H18H14117   1.141   1.152   4.264
  132OSM      N14118   5.781   0.105   2.141
  132OSM    C1514119   5.771   0.237   2.214
  132OSM   H15A14120   5.824   0.312   2.158
  132OSM   H15B14121   5.811   0.230   2.314
  132OSM   H15C14122   5.670   0.275   2.226
  132OSM    C1414123   5.663   0.024   2.199
  132OSM   H14A14124   5.655   6.814   2.152
  132OSM   H14B14125   5.571   0.070   2.167
  132OSM   H14C14126   5.650   0.031   2.306
  132OSM    C1314127   5.750   0.123   1.992
  132OSM   H13A14128   5.652   0.169   1.984
  132OSM   H13B14129   5.746   0.034   1.932
  132OSM   H13C14130   5.820   0.189   1.943
  132OSM    C1214131   5.909   0.036   2.173
  132OSM   H12A14132   5.989   0.076   2.112
  132OSM   H12B14133   5.899   6.822   2.138
  132OSM    C1114134   5.962   0.029   2.320
  132OSM   H11A14135   6.034   6.832   2.316
  132OSM   H11B14136   5.875   0.005   2.385
  132OSM      P14137   6.160   0.202   2.296
  132OSM    O1314138   6.200   0.099   2.198
  132OSM    O1414139   6.166   0.339   2.241
  132OSM    O1114140   6.254   0.195   2.426
  132OSM    O1214141   6.018   0.163   2.354
  132OSM    C1S14142   6.240   0.088   2.522
  132OSM    H1S14143   6.239   6.882   2.462
  132OSM    H1T14144   6.150   0.084   2.588
  132OSM     NF14145   6.356   6.842   2.691
  132OSM    HNF14146   6.284   6.843   2.760
  132OSM    C2S14147   6.361   0.080   2.622
  132OSM    H2S14148   6.454   0.086   2.561
  132OSM    C3S14149   6.355   0.208   2.718
  132OSM    H3S14150   6.260   0.198   2.775
  132OSM     O314151   6.348   0.333   2.649
  132OSM    HO314152   6.334   0.309   2.557
  132OSM    C4S14153   6.473   0.208   2.817
  132OSM    H4S14154   6.570   0.177   2.773
  132OSM    C5S14155   6.461   0.228   2.949
  132OSM    H5S14156   6.364   0.256   2.991
  132OSM    C6S14157   6.581   0.206   3.042
  132OSM    H6S14158   6.667   0.271   3.015
  132OSM    H6T14159   6.616   0.101   3.034
  132OSM    C7S14160   6.542   0.222   3.188
  132OSM    H7S14161   6.450   0.165   3.216
  132OSM    H7T14162   6.522   0.327   3.219
  132OSM    C8S14163   6.652   0.175   3.281
  132OSM    H8S14164   6.747   0.226   3.254
  132OSM    H8T14165   6.663   0.070   3.245
  132OSM    C9S14166   6.626   0.174   3.435
  132OSM    H9S14167   6.554   0.093   3.460
  132OSM    H9T14168   6.584   0.274   3.455
  132OSM   C10S14169   6.748   0.150   3.531
  132OSM   H10S14170   6.723   0.214   3.618
  132OSM   H10T14171   6.834   0.192   3.475
  132OSM   C11S14172   6.779   0.006   3.578
  132OSM   H11S14173   6.767   6.836   3.483
  132OSM   H11T14174   6.699   6.871   3.651
  132OSM   C12S14175   0.024   6.870   3.647
  132OSM   H12S14176   0.112   0.007   3.583
  132OSM   H12T14177   0.043   6.763   3.669
  132OSM   C13S14178   0.044   0.079   3.772
  132OSM   H13S14179   6.834   0.066   3.824
  132OSM   H13T14180   0.056   0.187   3.750
  132OSM   C14S14181   0.155   0.027   3.861
  132OSM   H14S14182   0.260   0.043   3.829
  132OSM   H14T14183   0.156   6.804   3.879
  132OSM   C15S14184   0.135   0.104   3.999
  132OSM   H15S14185   0.042   0.067   4.047
  132OSM   H15T14186   0.118   0.212   3.978
  132OSM   C16S14187   0.265   0.094   4.078
  132OSM   H16S14188   0.353   0.106   4.011
  132OSM   H16T14189   0.260   6.879   4.121
  132OSM   C17S14190   0.280   0.189   4.194
  132OSM   H17S14191   0.183   0.179   4.248
  132OSM   H17T14192   0.282   0.291   4.149
  132OSM   C18S14193   0.412   0.166   4.270
  132OSM   H18S14194   0.426   0.059   4.295
  132OSM   H18T14195   0.406   0.203   4.375
  132OSM   H18U14196   0.500   0.212   4.220
  132OSM    C1F14197   6.397   6.726   2.652
  132OSM     OF14198   6.465   6.709   2.550
  132OSM    C2F14199   6.358   6.606   2.736
  132OSM    H2F14200   6.350   6.519   2.667
  132OSM    H2G14201   6.254   6.627   2.771
  132OSM    C3F14202   6.461   6.572   2.844
  132OSM    H3F14203   6.560   6.568   2.793
  132OSM    H3G14204   6.433   6.474   2.888
  132OSM    C4F14205   6.467   6.677   2.959
  132OSM    H4F14206   6.495   6.780   2.928
  132OSM    H4G14207   6.555   6.648   3.020
  132OSM    C5F14208   6.341   6.676   3.041
  132OSM    H5F14209   6.315   6.569   3.057
  132OSM    H5G14210   6.260   6.729   2.986
  132OSM    C6F14211   6.348   6.765   3.166
  132OSM    H6F14212   6.249   6.774   3.215
  132OSM    H6G14213   6.358   6.867   3.122
  132OSM    C7F14214   6.465   6.730   3.264
  132OSM    H7F14215   6.459   6.803   3.348
  132OSM    H7G14216   6.564   6.752   3.221
  132OSM    C8F14217   6.452   6.597   3.329
  132OSM    H8F14218   6.543   6.586   3.391
  132OSM    H8G14219   6.458   6.520   3.249
  132OSM    C9F14220   6.318   6.597   3.403
  132OSM    H9F14221   6.230   6.604   3.339
  132OSM   C10F14222   6.312   6.582   3.535
  132OSM   H10F14223   6.208   6.575   3.570
  132OSM   C11F14224   6.420   6.560   3.630
  132OSM   H11F14225   6.520   6.562   3.580
  132OSM   H11G14226   6.414   6.456   3.669
  132OSM   C12F14227   6.426   6.670   3.739
  132OSM   H12F14228   6.330   6.686   3.793
  132OSM   H12G14229   6.448   6.772   3.702
  132OSM   C13F14230   6.542   6.635   3.830
  132OSM   H13F14231   6.573   6.711   3.904
  132OSM   H13G14232   6.630   6.609   3.767
  132OSM   C14F14233   6.510   6.506   3.915
  132OSM   H14F14234   6.594   6.495   3.986
  132OSM   H14G14235   6.512   6.427   3.837
  132OSM   C15F14236   6.386   6.517   3.999
  132OSM   H15F14237   6.289   6.533   3.948
  132OSM   H15G14238   6.390   6.608   4.062
  132OSM   C16F14239   6.364   6.391   4.103
  132OSM   H16F14240   6.428   6.410   4.192
  132OSM   H16G14241   6.397   6.301   4.048
  132OSM   C17F14242   6.213   6.377   4.145
  132OSM   H17F14243   6.168   6.366   4.044
  132OSM   H17G14244   6.195   6.472   4.199
  132OSM   C18F14245   6.193   6.248   4.232
  132OSM   H18F14246   6.264   6.234   4.317
  132OSM   H18G14247   6.217   6.163   4.165
  132OSM   H18H14248   6.093   6.243   4.280
  133OSM      N14249   4.462   3.337   2.167
  133OSM    C1514250   4.339   3.253   2.180
  133OSM   H15A14251   4.301   3.213   2.087
  133OSM   H15B14252   4.255   3.307   2.222
  133OSM   H15C14253   4.356   3.167   2.244
  133OSM    C1414254   4.557   3.268   2.071
  133OSM   H14A14255   4.510   3.222   1.986
  133OSM   H14B14256   4.605   3.196   2.136
  133OSM   H14C14257   4.635   3.335   2.037
  133OSM    C1314258   4.425   3.457   2.082
  133OSM   H13A14259   4.369   3.526   2.142
  133OSM   H13B14260   4.362   3.430   1.998
  133OSM   H13C14261   4.519   3.498   2.048
  133OSM    C1214262   4.533   3.385   2.284
  133OSM   H12A14263   4.476   3.461   2.336
  133OSM   H12B14264   4.626   3.434   2.256
  133OSM    C1114265   4.573   3.275   2.388
  133OSM   H11A14266   4.480   3.235   2.432
  133OSM   H11B14267   4.624   3.313   2.479
  133OSM      P14268   4.808   3.156   2.309
  133OSM    O1314269   4.831   3.039   2.223
  133OSM    O1414270   4.859   3.283   2.254
  133OSM    O1114271   4.874   3.132   2.452
  133OSM    O1214272   4.654   3.168   2.328
  133OSM    C1S14273   4.808   3.037   2.547
  133OSM    H1S14274   4.828   2.933   2.514
  133OSM    H1T14275   4.698   3.047   2.542
  133OSM     NF14276   4.793   2.951   2.768
  133OSM    HNF14277   4.704   2.965   2.810
  133OSM    C2S14278   4.843   3.065   2.692
  133OSM    H2S14279   4.954   3.065   2.689
  133OSM    C3S14280   4.791   3.204   2.729
  133OSM    H3S14281   4.685   3.202   2.697
  133OSM     O314282   4.852   3.311   2.656
  133OSM    HO314283   4.900   3.264   2.587
  133OSM    C4S14284   4.805   3.235   2.872
  133OSM    H4S14285   4.898   3.288   2.893
  133OSM    C5S14286   4.723   3.202   2.971
  133OSM    H5S14287   4.627   3.153   2.950
  133OSM    C6S14288   4.745   3.239   3.112
  133OSM    H6S14289   4.654   3.265   3.172
  133OSM    H6T14290   4.807   3.332   3.114
  133OSM    C7S14291   4.820   3.132   3.192
  133OSM    H7S14292   4.831   3.181   3.291
  133OSM    H7T14293   4.918   3.111   3.145
  133OSM    C8S14294   4.744   3.003   3.211
  133OSM    H8S14295   4.725   2.960   3.111
  133OSM    H8T14296   4.648   3.017   3.266
  133OSM    C9S14297   4.834   2.901   3.283
  133OSM    H9S14298   4.942   2.909   3.260
  133OSM    H9T14299   4.806   2.799   3.248
  133OSM   C10S14300   4.808   2.921   3.431
  133OSM   H10S14301   4.698   2.910   3.440
  133OSM   H10T14302   4.832   3.026   3.455
  133OSM   C11S14303   4.888   2.834   3.526
  133OSM   H11S14304   4.856   2.868   3.626
  133OSM   H11T14305   4.997   2.853   3.516
  133OSM   C12S14306   4.859   2.680   3.507
  133OSM   H12S14307   4.870   2.658   3.398
  133OSM   H12T14308   4.758   2.650   3.540
  133OSM   C13S14309   4.959   2.592   3.583
  133OSM   H13S14310   5.059   2.591   3.534
  133OSM   H13T14311   4.917   2.490   3.584
  133OSM   C14S14312   4.988   2.634   3.728
  133OSM   H14S14313   5.036   2.734   3.730
  133OSM   H14T14314   5.066   2.562   3.759
  133OSM   C15S14315   4.872   2.602   3.823
  133OSM   H15S14316   4.846   2.495   3.808
  133OSM   H15T14317   4.781   2.662   3.802
  133OSM   C16S14318   4.907   2.609   3.972
  133OSM   H16S14319   4.963   2.702   3.994
  133OSM   H16T14320   4.983   2.531   3.994
  133OSM   C17S14321   4.784   2.578   4.069
  133OSM   H17S14322   4.741   2.475   4.073
  133OSM   H17T14323   4.703   2.651   4.046
  133OSM   C18S14324   4.838   2.605   4.210
  133OSM   H18S14325   4.911   2.688   4.217
  133OSM   H18T14326   4.885   2.516   4.256
  133OSM   H18U14327   4.756   2.630   4.282
  133OSM    C1F14328   4.851   2.835   2.788
  133OSM     OF14329   4.961   2.811   2.741
  133OSM    C2F14330   4.759   2.736   2.849
  133OSM    H2F14331   4.718   2.667   2.772
  133OSM    H2G14332   4.675   2.787   2.900
  133OSM    C3F14333   4.850   2.652   2.939
  133OSM    H3F14334   4.892   2.717   3.019
  133OSM    H3G14335   4.926   2.599   2.877
  133OSM    C4F14336   4.765   2.542   3.006
  133OSM    H4F14337   4.701   2.489   2.933
  133OSM    H4G14338   4.690   2.605   3.059
  133OSM    C5F14339   4.845   2.459   3.111
  133OSM    H5F14340   4.900   2.523   3.183
  133OSM    H5G14341   4.922   2.397   3.060
  133OSM    C6F14342   4.755   2.365   3.198
  133OSM    H6F14343   4.694   2.294   3.138
  133OSM    H6G14344   4.675   2.420   3.253
  133OSM    C7F14345   4.845   2.286   3.299
  133OSM    H7F14346   4.904   2.353   3.365
  133OSM    H7G14347   4.922   2.228   3.244
  133OSM    C8F14348   4.770   2.178   3.383
  133OSM    H8F14349   4.845   2.117   3.437
  133OSM    H8G14350   4.711   2.111   3.317
  133OSM    C9F14351   4.659   2.237   3.476
  133OSM    H9F14352   4.608   2.329   3.442
  133OSM   C10F14353   4.635   2.193   3.596
  133OSM   H10F14354   4.544   2.226   3.647
  133OSM   C11F14355   4.703   2.081   3.663
  133OSM   H11F14356   4.780   2.035   3.596
  133OSM   H11G14357   4.627   2.007   3.695
  133OSM   C12F14358   4.775   2.138   3.789
  133OSM   H12F14359   4.770   2.045   3.851
  133OSM   H12G14360   4.705   2.205   3.844
  133OSM   C13F14361   4.912   2.196   3.761
  133OSM   H13F14362   4.896   2.261   3.673
  133OSM   H13G14363   4.998   2.132   3.733
  133OSM   C14F14364   4.964   2.278   3.873
  133OSM   H14F14365   4.872   2.321   3.920
  133OSM   H14G14366   5.030   2.356   3.830
  133OSM   C15F14367   5.032   2.206   3.995
  133OSM   H15F14368   5.118   2.148   3.954
  133OSM   H15G14369   4.953   2.136   4.031
  133OSM   C16F14370   5.074   2.289   4.115
  133OSM   H16F14371   4.983   2.329   4.163
  133OSM   H16G14372   5.133   2.379   4.087
  133OSM   C17F14373   5.159   2.208   4.219
  133OSM   H17F14374   5.269   2.201   4.204
  133OSM   H17G14375   5.122   2.103   4.214
  133OSM   C18F14376   5.147   2.254   4.365
  133OSM   H18F14377   5.048   2.296   4.394
  133OSM   H18G14378   5.232   2.319   4.397
  133OSM   H18H14379   5.160   2.159   4.420
  134OSM      N14380   5.739   5.908   2.001
  134OSM    C1514381   5.812   5.992   2.107
  134OSM   H15A14382   5.756   6.057   2.172
  134OSM   H15B14383   5.871   6.068   2.057
  134OSM   H15C14384   5.877   5.926   2.163
  134OSM    C1414385   5.843   5.832   1.923
  134OSM   H14A14386   5.912   5.896   1.869
  134OSM   H14B14387   5.795   5.770   1.849
  134OSM   H14C14388   5.903   5.777   1.995
  134OSM    C1314389   5.656   5.810   2.073
  134OSM   H13A14390   5.700   5.746   2.149
  134OSM   H13B14391   5.603   5.743   2.007
  134OSM   H13C14392   5.580   5.866   2.125
  134OSM    C1214393   5.652   5.986   1.899
  134OSM   H12A14394   5.598   5.924   1.828
  134OSM   H12B14395   5.732   6.038   1.849
  134OSM    C1114396   5.560   6.092   1.968
  134OSM   H11A14397   5.525   6.172   1.900
  134OSM   H11B14398   5.622   6.137   2.049
  134OSM      P14399   5.329   6.096   2.101
  134OSM    O1314400   5.279   6.205   2.006
  134OSM    O1414401   5.246   5.982   2.134
  134OSM    O1114402   5.405   6.163   2.227
  134OSM    O1214403   5.458   6.029   2.035
  134OSM    C1S14404   5.339   6.198   2.348
  134OSM    H1S14405   5.245   6.249   2.319
  134OSM    H1T14406   5.398   6.279   2.397
  134OSM     NF14407   5.269   6.122   2.580
  134OSM    HNF14408   5.341   6.117   2.649
  134OSM    C2S14409   5.310   6.078   2.448
  134OSM    H2S14410   5.225   6.025   2.400
  134OSM    C3S14411   5.424   5.974   2.455
  134OSM    H3S14412   5.525   6.018   2.466
  134OSM     O314413   5.436   5.888   2.335
  134OSM    HO314414   5.377   5.931   2.273
  134OSM    C4S14415   5.401   5.879   2.576
  134OSM    H4S14416   5.477   5.869   2.654
  134OSM    C5S14417   5.290   5.798   2.587
  134OSM    H5S14418   5.203   5.799   2.521
  134OSM    C6S14419   5.262   5.717   2.710
  134OSM    H6S14420   5.343   5.720   2.785
  134OSM    H6T14421   5.234   5.611   2.690
  134OSM    C7S14422   5.130   5.779   2.770
  134OSM    H7S14423   5.047   5.765   2.698
  134OSM    H7T14424   5.143   5.886   2.796
  134OSM    C8S14425   5.094   5.691   2.896
  134OSM    H8S14426   5.089   5.583   2.871
  134OSM    H8T14427   4.989   5.721   2.916
  134OSM    C9S14428   5.171   5.723   3.025
  134OSM    H9S14429   5.157   5.831   3.046
  134OSM    H9T14430   5.278   5.694   3.010
  134OSM   C10S14431   5.114   5.639   3.143
  134OSM   H10S14432   5.137   5.532   3.128
  134OSM   H10T14433   5.004   5.640   3.150
  134OSM   C11S14434   5.169   5.681   3.283
  134OSM   H11S14435   5.172   5.791   3.296
  134OSM   H11T14436   5.272   5.639   3.292
  134OSM   C12S14437   5.079   5.615   3.388
  134OSM   H12S14438   5.079   5.504   3.380
  134OSM   H12T14439   4.976   5.651   3.366
  134OSM   C13S14440   5.111   5.656   3.534
  134OSM   H13S14441   5.023   5.660   3.602
  134OSM   H13T14442   5.150   5.760   3.529
  134OSM   C14S14443   5.213   5.561   3.602
  134OSM   H14S14444   5.314   5.571   3.557
  134OSM   H14T14445   5.183   5.459   3.570
  134OSM   C15S14446   5.219   5.559   3.751
  134OSM   H15S14447   5.273   5.475   3.799
  134OSM   H15T14448   5.113   5.546   3.781
  134OSM   C16S14449   5.263   5.692   3.817
  134OSM   H16S14450   5.212   5.776   3.765
  134OSM   H16T14451   5.373   5.693   3.802
  134OSM   C17S14452   5.231   5.688   3.965
  134OSM   H17S14453   5.289   5.597   3.990
  134OSM   H17T14454   5.122   5.676   3.982
  134OSM   C18S14455   5.283   5.795   4.053
  134OSM   H18S14456   5.234   5.890   4.023
  134OSM   H18T14457   5.392   5.804   4.036
  134OSM   H18U14458   5.279   5.784   4.163
  134OSM    C1F14459   5.162   6.191   2.612
  134OSM     OF14460   5.094   6.249   2.532
  134OSM    C2F14461   5.121   6.200   2.759
  134OSM    H2F14462   5.173   6.290   2.798
  134OSM    H2G14463   5.149   6.111   2.820
  134OSM    C3F14464   4.969   6.229   2.777
  134OSM    H3F14465   4.917   6.137   2.742
  134OSM    H3G14466   4.926   6.319   2.730
  134OSM    C4F14467   4.929   6.236   2.928
  134OSM    H4F14468   4.825   6.274   2.929
  134OSM    H4G14469   4.991   6.316   2.972
  134OSM    C5F14470   4.957   6.103   2.999
  134OSM    H5F14471   5.066   6.085   3.000
  134OSM    H5G14472   4.918   6.013   2.947
  134OSM    C6F14473   4.907   6.105   3.137
  134OSM    H6F14474   4.802   6.139   3.150
  134OSM    H6G14475   4.962   6.186   3.189
  134OSM    C7F14476   4.934   5.970   3.219
  134OSM    H7F14477   5.044   5.954   3.226
  134OSM    H7G14478   4.894   5.882   3.163
  134OSM    C8F14479   4.879   5.963   3.357
  134OSM    H8F14480   4.855   5.860   3.391
  134OSM    H8G14481   4.775   6.000   3.367
  134OSM    C9F14482   4.973   6.026   3.453
  134OSM    H9F14483   5.060   5.966   3.485
  134OSM   C10F14484   4.951   6.153   3.501
  134OSM   H10F14485   5.021   6.202   3.571
  134OSM   C11F14486   4.828   6.236   3.470
  134OSM   H11F14487   4.786   6.230   3.367
  134OSM   H11G14488   4.859   6.340   3.493
  134OSM   C12F14489   4.718   6.213   3.567
  134OSM   H12F14490   4.687   6.107   3.566
  134OSM   H12G14491   4.631   6.272   3.530
  134OSM   C13F14492   4.734   6.251   3.717
  134OSM   H13F14493   4.767   6.357   3.720
  134OSM   H13G14494   4.822   6.204   3.767
  134OSM   C14F14495   4.614   6.235   3.808
  134OSM   H14F14496   4.583   6.128   3.805
  134OSM   H14G14497   4.527   6.297   3.775
  134OSM   C15F14498   4.642   6.288   3.948
  134OSM   H15F14499   4.647   6.398   3.957
  134OSM   H15G14500   4.741   6.251   3.982
  134OSM   C16F14501   4.530   6.237   4.042
  134OSM   H16F14502   4.575   6.239   4.143
  134OSM   H16G14503   4.494   6.135   4.016
  134OSM   C17F14504   4.405   6.333   4.040
  134OSM   H17F14505   4.348   6.334   3.945
  134OSM   H17G14506   4.446   6.436   4.039
  134OSM   C18F14507   4.306   6.311   4.156
  134OSM   H18F14508   4.244   6.400   4.179
  134OSM   H18G14509   4.365   6.284   4.247
  134OSM   H18H14510   4.241   6.225   4.130
  135OSM      N14511   6.624   1.389   1.654
  135OSM    C1514512   6.481   1.443   1.647
  135OSM   H15A14513   6.477   1.551   1.647
  135OSM   H15B14514   6.424   1.418   1.735
  135OSM   H15C14515   6.420   1.400   1.569
  135OSM    C1414516   6.606   1.246   1.663
  135OSM   H14A14517   6.576   1.207   1.567
  135OSM   H14B14518   6.523   1.216   1.727
  135OSM   H14C14519   6.695   1.189   1.685
  135OSM    C1314520   6.693   1.430   1.525
  135OSM   H13A14521   6.621   1.406   1.448
  135OSM   H13B14522   6.787   1.376   1.519
  135OSM   H13C14523   6.713   1.536   1.523
  135OSM    C1214524   6.690   1.441   1.776
  135OSM   H12A14525   6.710   1.547   1.771
  135OSM   H12B14526   6.784   1.396   1.806
  135OSM    C1114527   6.604   1.438   1.905
  135OSM   H11A14528   6.672   1.438   1.993
  135OSM   H11B14529   6.543   1.345   1.914
  135OSM      P14530   6.567   1.696   1.958
  135OSM    O1314531   6.688   1.726   1.881
  135OSM    O1414532   6.453   1.793   1.941
  135OSM    O1114533   6.609   1.672   2.105
  135OSM    O1214534   6.521   1.551   1.918
  135OSM    C1S14535   6.520   1.686   2.219
  135OSM    H1S14536   6.457   1.594   2.229
  135OSM    H1T14537   6.452   1.774   2.210
  135OSM     NF14538   6.516   1.693   2.463
  135OSM    HNF14539   6.492   1.774   2.516
  135OSM    C2S14540   6.604   1.698   2.343
  135OSM    H2S14541   6.680   1.618   2.342
  135OSM    C3S14542   6.687   1.834   2.336
  135OSM    H3S14543   6.617   1.920   2.323
  135OSM     O314544   6.775   1.852   2.223
  135OSM    HO314545   6.747   1.790   2.156
  135OSM    C4S14546   6.757   1.854   2.474
  135OSM    H4S14547   6.694   1.906   2.548
  135OSM    C5S14548   6.866   1.784   2.508
  135OSM    H5S14549   0.034   1.711   2.446
  135OSM    C6S14550   0.025   1.782   2.650
  135OSM    H6S14551   0.091   1.869   2.668
  135OSM    H6T14552   0.092   1.694   2.655
  135OSM    C7S14553   6.814   1.770   2.770
  135OSM    H7S14554   6.758   1.676   2.752
  135OSM    H7T14555   6.759   1.866   2.761
  135OSM    C8S14556   0.007   1.767   2.902
  135OSM    H8S14557   0.078   1.852   2.901
  135OSM    H8T14558   0.066   1.673   2.901
  135OSM    C9S14559   6.808   1.778   3.031
  135OSM    H9S14560   6.740   1.692   3.051
  135OSM    H9T14561   6.752   1.874   3.032
  135OSM   C10S14562   0.009   1.780   3.156
  135OSM   H10S14563   0.074   1.870   3.148
  135OSM   H10T14564   0.075   1.691   3.167
  135OSM   C11S14565   6.815   1.792   3.287
  135OSM   H11S14566   6.778   1.695   3.324
  135OSM   H11T14567   6.737   1.871   3.282
  135OSM   C12S14568   0.023   1.848   3.404
  135OSM   H12S14569   6.837   1.894   3.473
  135OSM   H12T14570   0.095   1.926   3.370
  135OSM   C13S14571   0.110   1.741   3.469
  135OSM   H13S14572   0.174   1.695   3.390
  135OSM   H13T14573   0.050   1.650   3.490
  135OSM   C14S14574   0.206   1.787   3.577
  135OSM   H14S14575   0.152   1.848   3.652
  135OSM   H14T14576   0.290   1.845   3.534
  135OSM   C15S14577   0.258   1.665   3.658
  135OSM   H15S14578   0.342   1.615   3.605
  135OSM   H15T14579   0.172   1.599   3.681
  135OSM   C16S14580   0.322   1.702   3.792
  135OSM   H16S14581   0.382   1.627   3.847
  135OSM   H16T14582   0.245   1.748   3.857
  135OSM   C17S14583   0.441   1.812   3.777
  135OSM   H17S14584   0.395   1.911   3.756
  135OSM   H17T14585   0.501   1.797   3.685
  135OSM   C18S14586   0.539   1.824   3.894
  135OSM   H18S14587   0.498   1.892   3.972
  135OSM   H18T14588   0.634   1.871   3.863
  135OSM   H18U14589   0.541   1.728   3.951
  135OSM    C1F14590   6.473   1.580   2.517
  135OSM     OF14591   6.478   1.479   2.452
  135OSM    C2F14592   6.408   1.577   2.661
  135OSM    H2F14593   6.307   1.620   2.645
  135OSM    H2G14594   6.463   1.651   2.723
  135OSM    C3F14595   6.400   1.434   2.718
  135OSM    H3F14596   6.354   1.367   2.643
  135OSM    H3G14597   6.347   1.436   2.816
  135OSM    C4F14598   6.537   1.369   2.743
  135OSM    H4F14599   6.602   1.362   2.653
  135OSM    H4G14600   6.520   1.263   2.773
  135OSM    C5F14601   6.623   1.418   2.858
  135OSM    H5F14602   6.547   1.429   2.939
  135OSM    H5G14603   6.675   1.515   2.846
  135OSM    C6F14604   6.719   1.306   2.900
  135OSM    H6F14605   6.782   1.265   2.818
  135OSM    H6G14606   6.651   1.222   2.924
  135OSM    C7F14607   6.803   1.343   3.025
  135OSM    H7F14608   6.747   1.331   3.120
  135OSM    H7G14609   6.821   1.452   3.017
  135OSM    C8F14610   0.062   1.285   3.027
  135OSM    H8F14611   0.120   1.307   3.118
  135OSM    H8G14612   0.113   1.326   2.938
  135OSM    C9F14613   0.050   1.135   3.008
  135OSM    H9F14614   0.042   1.101   2.904
  135OSM   C10F14615   0.038   1.042   3.102
  135OSM   H10F14616   0.028   0.939   3.063
  135OSM   C11F14617   0.045   1.052   3.256
  135OSM   H11F14618   0.054   1.159   3.285
  135OSM   H11G14619   0.133   0.993   3.288
  135OSM   C12F14620   6.802   0.998   3.319
  135OSM   H12F14621   6.781   0.894   3.288
  135OSM   H12G14622   6.724   1.067   3.281
  135OSM   C13F14623   6.804   1.007   3.468
  135OSM   H13F14624   6.830   1.106   3.510
  135OSM   H13G14625   6.884   0.937   3.501
  135OSM   C14F14626   6.680   0.951   3.545
  135OSM   H14F14627   6.702   0.975   3.651
  135OSM   H14G14628   6.666   0.841   3.541
  135OSM   C15F14629   6.549   1.019   3.502
  135OSM   H15F14630   6.533   1.003   3.393
  135OSM   H15G14631   6.559   1.129   3.509
  135OSM   C16F14632   6.423   0.972   3.578
  135OSM   H16F14633   6.439   0.975   3.688
  135OSM   H16G14634   6.401   0.867   3.551
  135OSM   C17F14635   6.307   1.064   3.543
  135OSM   H17F14636   6.284   1.063   3.435
  135OSM   H17G14637   6.332   1.171   3.559
  135OSM   C18F14638   6.180   1.037   3.626
  135OSM   H18F14639   6.105   1.120   3.628
  135OSM   H18G14640   6.203   1.007   3.730
  135OSM   H18H14641   6.135   0.947   3.580
  136OSM      N14642   2.527   4.955   1.788
  136OSM    C1514643   2.378   4.970   1.772
  136OSM   H15A14644   2.339   5.000   1.868
  136OSM   H15B14645   2.333   4.878   1.738
  136OSM   H15C14646   2.354   5.043   1.696
  136OSM    C1414647   2.582   4.893   1.663
  136OSM   H14A14648   2.518   4.811   1.636
  136OSM   H14B14649   2.680   4.849   1.677
  136OSM   H14C14650   2.584   4.961   1.579
  136OSM    C1314651   2.592   5.085   1.823
  136OSM   H13A14652   2.610   5.146   1.735
  136OSM   H13B14653   2.690   5.063   1.863
  136OSM   H13C14654   2.534   5.134   1.900
  136OSM    C1214655   2.560   4.855   1.901
  136OSM   H12A14656   2.665   4.833   1.891
  136OSM   H12B14657   2.510   4.760   1.893
  136OSM    C1114658   2.533   4.904   2.046
  136OSM   H11A14659   2.591   4.997   2.064
  136OSM   H11B14660   2.582   4.828   2.111
  136OSM      P14661   2.294   4.809   2.086
  136OSM    O1314662   2.165   4.850   2.146
  136OSM    O1414663   2.298   4.718   1.968
  136OSM    O1114664   2.368   4.724   2.197
  136OSM    O1214665   2.389   4.932   2.067
  136OSM    C1S14666   2.394   4.789   2.320
  136OSM    H1S14667   2.301   4.832   2.360
  136OSM    H1T14668   2.455   4.882   2.314
  136OSM     NF14669   2.425   4.735   2.570
  136OSM    HNF14670   2.480   4.810   2.605
  136OSM    C2S14671   2.451   4.691   2.429
  136OSM    H2S14672   2.405   4.591   2.416
  136OSM    C3S14673   2.604   4.649   2.392
  136OSM    H3S14674   2.669   4.729   2.433
  136OSM     O314675   2.629   4.633   2.257
  136OSM    HO314676   2.544   4.656   2.219
  136OSM    C4S14677   2.645   4.526   2.469
  136OSM    H4S14678   2.703   4.542   2.561
  136OSM    C5S14679   2.621   4.401   2.436
  136OSM    H5S14680   2.582   4.375   2.337
  136OSM    C6S14681   2.686   4.279   2.508
  136OSM    H6S14682   2.797   4.282   2.503
  136OSM    H6T14683   2.664   4.181   2.461
  136OSM    C7S14684   2.663   4.279   2.658
  136OSM    H7S14685   2.557   4.311   2.670
  136OSM    H7T14686   2.730   4.354   2.706
  136OSM    C8S14687   2.686   4.150   2.728
  136OSM    H8S14688   2.772   4.098   2.682
  136OSM    H8T14689   2.597   4.091   2.697
  136OSM    C9S14690   2.684   4.159   2.879
  136OSM    H9S14691   2.628   4.248   2.915
  136OSM    H9T14692   2.787   4.164   2.921
  136OSM   C10S14693   2.620   4.035   2.946
  136OSM   H10S14694   2.655   3.950   2.884
  136OSM   H10T14695   2.511   4.047   2.934
  136OSM   C11S14696   2.651   4.012   3.094
  136OSM   H11S14697   2.759   3.999   3.118
  136OSM   H11T14698   2.615   3.909   3.117
  136OSM   C12S14699   2.587   4.110   3.190
  136OSM   H12S14700   2.489   4.131   3.143
  136OSM   H12T14701   2.651   4.202   3.187
  136OSM   C13S14702   2.569   4.067   3.336
  136OSM   H13S14703   2.657   4.012   3.372
  136OSM   H13T14704   2.492   3.987   3.333
  136OSM   C14S14705   2.521   4.181   3.433
  136OSM   H14S14706   2.416   4.215   3.416
  136OSM   H14T14707   2.582   4.272   3.416
  136OSM   C15S14708   2.541   4.130   3.572
  136OSM   H15S14709   2.643   4.092   3.595
  136OSM   H15T14710   2.468   4.046   3.579
  136OSM   C16S14711   2.511   4.241   3.673
  136OSM   H16S14712   2.418   4.297   3.654
  136OSM   H16T14713   2.591   4.317   3.662
  136OSM   C17S14714   2.521   4.184   3.815
  136OSM   H17S14715   2.612   4.121   3.818
  136OSM   H17T14716   2.436   4.117   3.836
  136OSM   C18S14717   2.512   4.296   3.920
  136OSM   H18S14718   2.420   4.355   3.898
  136OSM   H18T14719   2.596   4.367   3.903
  136OSM   H18U14720   2.503   4.262   4.025
  136OSM    C1F14721   2.304   4.732   2.626
  136OSM     OF14722   2.216   4.688   2.554
  136OSM    C2F14723   2.290   4.785   2.767
  136OSM    H2F14724   2.321   4.891   2.783
  136OSM    H2G14725   2.350   4.720   2.833
  136OSM    C3F14726   2.144   4.773   2.809
  136OSM    H3F14727   2.092   4.680   2.776
  136OSM    H3G14728   2.084   4.855   2.764
  136OSM    C4F14729   2.122   4.769   2.957
  136OSM    H4F14730   2.011   4.758   2.964
  136OSM    H4G14731   2.155   4.856   3.017
  136OSM    C5F14732   2.189   4.649   3.023
  136OSM    H5F14733   2.299   4.656   3.012
  136OSM    H5G14734   2.156   4.557   2.969
  136OSM    C6F14735   2.157   4.647   3.167
  136OSM    H6F14736   2.181   4.745   3.214
  136OSM    H6G14737   2.219   4.572   3.219
  136OSM    C7F14738   2.008   4.631   3.198
  136OSM    H7F14739   1.981   4.529   3.163
  136OSM    H7G14740   1.948   4.705   3.141
  136OSM    C8F14741   1.976   4.638   3.350
  136OSM    H8F14742   2.024   4.732   3.387
  136OSM    H8G14743   2.019   4.550   3.402
  136OSM    C9F14744   1.831   4.651   3.384
  136OSM    H9F14745   1.762   4.644   3.299
  136OSM   C10F14746   1.775   4.668   3.509
  136OSM   H10F14747   1.666   4.654   3.506
  136OSM   C11F14748   1.845   4.684   3.639
  136OSM   H11F14749   1.862   4.790   3.668
  136OSM   H11G14750   1.948   4.642   3.639
  136OSM   C12F14751   1.777   4.610   3.758
  136OSM   H12F14752   1.779   4.507   3.717
  136OSM   H12G14753   1.672   4.642   3.769
  136OSM   C13F14754   1.850   4.613   3.891
  136OSM   H13F14755   1.881   4.717   3.913
  136OSM   H13G14756   1.953   4.571   3.886
  136OSM   C14F14757   1.782   4.560   4.022
  136OSM   H14F14758   1.831   4.597   4.115
  136OSM   H14G14759   1.765   4.451   4.015
  136OSM   C15F14760   1.638   4.614   4.033
  136OSM   H15F14761   1.575   4.586   3.946
  136OSM   H15G14762   1.645   4.724   4.028
  136OSM   C16F14763   1.565   4.575   4.157
  136OSM   H16F14764   1.587   4.637   4.247
  136OSM   H16G14765   1.586   4.469   4.186
  136OSM   C17F14766   1.413   4.578   4.127
  136OSM   H17F14767   1.383   4.529   4.032
  136OSM   H17G14768   1.394   4.686   4.107
  136OSM   C18F14769   1.331   4.524   4.241
  136OSM   H18F14770   1.351   4.419   4.268
  136OSM   H18G14771   1.226   4.546   4.213
  136OSM   H18H14772   1.355   4.582   4.333
  137OSM      N14773   0.322   1.645   1.880
  137OSM    C1514774   0.215   1.550   1.843
  137OSM   H15A14775   0.153   1.522   1.927
  137OSM   H15B14776   0.253   1.458   1.802
  137OSM   H15C14777   0.150   1.604   1.776
  137OSM    C1414778   0.414   1.578   1.977
  137OSM   H14A14779   0.489   1.651   2.003
  137OSM   H14B14780   0.453   1.487   1.935
  137OSM   H14C14781   0.356   1.554   2.065
  137OSM    C1314782   0.403   1.676   1.757
  137OSM   H13A14783   0.472   1.596   1.740
  137OSM   H13B14784   0.469   1.761   1.772
  137OSM   H13C14785   0.347   1.680   1.665
  137OSM    C1214786   0.259   1.772   1.943
  137OSM   H12A14787   0.225   1.749   2.042
  137OSM   H12B14788   0.167   1.795   1.891
  137OSM    C1114789   0.351   1.898   1.936
  137OSM   H11A14790   0.297   1.981   1.985
  137OSM   H11B14791   0.359   1.938   1.832
  137OSM      P14792   0.606   1.944   1.979
  137OSM    O1314793   0.702   1.900   2.076
  137OSM    O1414794   0.645   1.906   1.842
  137OSM    O1114795   0.580   2.091   1.984
  137OSM    O1214796   0.474   1.871   2.000
  137OSM    C1S14797   0.510   2.171   2.084
  137OSM    H1S14798   0.430   2.116   2.138
  137OSM    H1T14799   0.453   2.251   2.033
  137OSM     NF14800   0.534   2.246   2.317
  137OSM    HNF14801   0.538   2.337   2.358
  137OSM    C2S14802   0.606   2.223   2.196
  137OSM    H2S14803   0.688   2.150   2.213
  137OSM    C3S14804   0.678   2.342   2.132
  137OSM    H3S14805   0.609   2.421   2.095
  137OSM     O314806   0.761   2.314   2.022
  137OSM    HO314807   0.727   2.227   2.001
  137OSM    C4S14808   0.763   2.414   2.233
  137OSM    H4S14809   0.704   2.490   2.287
  137OSM    C5S14810   0.896   2.405   2.262
  137OSM    H5S14811   0.948   2.323   2.211
  137OSM    C6S14812   0.953   2.493   2.379
  137OSM    H6S14813   0.883   2.578   2.396
  137OSM    H6T14814   1.051   2.529   2.341
  137OSM    C7S14815   0.974   2.415   2.505
  137OSM    H7S14816   1.021   2.315   2.492
  137OSM    H7T14817   0.878   2.395   2.557
  137OSM    C8S14818   1.062   2.495   2.608
  137OSM    H8S14819   1.026   2.599   2.592
  137OSM    H8T14820   1.163   2.491   2.561
  137OSM    C9S14821   1.050   2.456   2.758
  137OSM    H9S14822   1.069   2.347   2.769
  137OSM    H9T14823   0.943   2.460   2.788
  137OSM   C10S14824   1.142   2.544   2.851
  137OSM   H10S14825   1.079   2.623   2.897
  137OSM   H10T14826   1.223   2.598   2.797
  137OSM   C11S14827   1.190   2.466   2.973
  137OSM   H11S14828   1.278   2.402   2.948
  137OSM   H11T14829   1.100   2.410   3.006
  137OSM   C12S14830   1.229   2.560   3.084
  137OSM   H12S14831   1.161   2.648   3.091
  137OSM   H12T14832   1.324   2.614   3.067
  137OSM   C13S14833   1.227   2.500   3.219
  137OSM   H13S14834   1.282   2.403   3.227
  137OSM   H13T14835   1.121   2.484   3.248
  137OSM   C14S14836   1.278   2.594   3.330
  137OSM   H14S14837   1.223   2.691   3.327
  137OSM   H14T14838   1.382   2.625   3.306
  137OSM   C15S14839   1.267   2.527   3.468
  137OSM   H15S14840   1.162   2.495   3.485
  137OSM   H15T14841   1.291   2.603   3.545
  137OSM   C16S14842   1.366   2.424   3.503
  137OSM   H16S14843   1.407   2.440   3.605
  137OSM   H16T14844   1.453   2.425   3.434
  137OSM   C17S14845   1.316   2.285   3.500
  137OSM   H17S14846   1.399   2.215   3.479
  137OSM   H17T14847   1.245   2.277   3.415
  137OSM   C18S14848   1.243   2.244   3.624
  137OSM   H18S14849   1.174   2.322   3.662
  137OSM   H18T14850   1.317   2.219   3.704
  137OSM   H18U14851   1.179   2.154   3.612
  137OSM    C1F14852   0.481   2.157   2.399
  137OSM     OF14853   0.462   2.041   2.367
  137OSM    C2F14854   0.429   2.211   2.524
  137OSM    H2F14855   0.395   2.315   2.505
  137OSM    H2G14856   0.514   2.232   2.592
  137OSM    C3F14857   0.329   2.117   2.594
  137OSM    H3F14858   0.371   2.015   2.612
  137OSM    H3G14859   0.236   2.107   2.533
  137OSM    C4F14860   0.283   2.160   2.729
  137OSM    H4F14861   0.187   2.105   2.741
  137OSM    H4G14862   0.257   2.268   2.734
  137OSM    C5F14863   0.389   2.131   2.838
  137OSM    H5F14864   0.453   2.221   2.821
  137OSM    H5G14865   0.456   2.050   2.806
  137OSM    C6F14866   0.325   2.112   2.981
  137OSM    H6F14867   0.254   2.028   2.991
  137OSM    H6G14868   0.256   2.196   3.002
  137OSM    C7F14869   0.430   2.117   3.095
  137OSM    H7F14870   0.473   2.219   3.101
  137OSM    H7G14871   0.509   2.042   3.074
  137OSM    C8F14872   0.349   2.088   3.230
  137OSM    H8F14873   0.293   1.993   3.229
  137OSM    H8G14874   0.288   2.176   3.260
  137OSM    C9F14875   0.463   2.068   3.329
  137OSM    H9F14876   0.558   2.035   3.285
  137OSM   C10F14877   0.452   2.103   3.463
  137OSM   H10F14878   0.539   2.090   3.528
  137OSM   C11F14879   0.331   2.151   3.534
  137OSM   H11F14880   0.302   2.093   3.625
  137OSM   H11G14881   0.246   2.146   3.463
  137OSM   C12F14882   0.343   2.295   3.578
  137OSM   H12F14883   0.239   2.323   3.603
  137OSM   H12G14884   0.367   2.369   3.498
  137OSM   C13F14885   0.433   2.331   3.694
  137OSM   H13F14886   0.538   2.338   3.658
  137OSM   H13G14887   0.416   2.244   3.761
  137OSM   C14F14888   0.405   2.461   3.766
  137OSM   H14F14889   0.297   2.465   3.791
  137OSM   H14G14890   0.427   2.549   3.701
  137OSM   C15F14891   0.470   2.481   3.900
  137OSM   H15F14892   0.567   2.530   3.878
  137OSM   H15G14893   0.499   2.383   3.942
  137OSM   C16F14894   0.397   2.556   4.009
  137OSM   H16F14895   0.465   2.553   4.097
  137OSM   H16G14896   0.303   2.503   4.036
  137OSM   C17F14897   0.355   2.701   3.977
  137OSM   H17F14898   0.319   2.707   3.872
  137OSM   H17G14899   0.441   2.772   3.974
  137OSM   C18F14900   0.260   2.762   4.079
  137OSM   H18F14901   0.308   2.793   4.174
  137OSM   H18G14902   0.196   2.678   4.114
  137OSM   H18H14903   0.219   2.857   4.039
  138OSM      N14904   6.258   6.573   2.284
  138OSM    C1514905   6.329   6.691   2.258
  138OSM   H15A14906   6.392   6.734   2.335
  138OSM   H15B14907   6.267   6.777   2.237
  138OSM   H15C14908   6.394   6.688   2.172
  138OSM    C1414909   6.173   6.554   2.157
  138OSM   H14A14910   6.092   6.625   2.155
  138OSM   H14B14911   6.131   6.456   2.139
  138OSM   H14C14912   6.226   6.555   2.063
  138OSM    C1314913   6.351   6.462   2.282
  138OSM   H13A14914   6.427   6.474   2.358
  138OSM   H13B14915   6.395   6.455   2.183
  138OSM   H13C14916   6.295   6.372   2.304
  138OSM    C1214917   6.169   6.572   2.407
  138OSM   H12A14918   6.103   6.657   2.402
  138OSM   H12B14919   6.237   6.595   2.488
  138OSM    C1114920   6.090   6.440   2.436
  138OSM   H11A14921   6.063   6.433   2.543
  138OSM   H11B14922   6.159   6.354   2.418
  138OSM      P14923   5.859   6.530   2.357
  138OSM    O1314924   5.890   6.623   2.248
  138OSM    O1414925   5.723   6.467   2.352
  138OSM    O1114926   5.883   6.607   2.492
  138OSM    O1214927   5.969   6.425   2.366
  138OSM    C1S14928   5.766   6.679   2.539
  138OSM    H1S14929   5.675   6.617   2.550
  138OSM    H1T14930   5.740   6.765   2.474
  138OSM     NF14931   5.670   6.789   2.736
  138OSM    HNF14932   5.657   0.000   2.743
  138OSM    C2S14933   5.795   6.733   2.682
  138OSM    H2S14934   5.808   6.639   2.739
  138OSM    C3S14935   5.922   6.822   2.687
  138OSM    H3S14936   5.915   0.016   2.611
  138OSM     O314937   6.036   6.740   2.651
  138OSM    HO314938   5.998   6.669   2.599
  138OSM    C4S14939   5.940   6.863   2.832
  138OSM    H4S14940   5.999   6.790   2.889
  138OSM    C5S14941   5.907   0.092   2.896
  138OSM    H5S14942   5.856   0.162   2.829
  138OSM    C6S14943   5.928   0.142   3.036
  138OSM    H6S14944   5.837   0.190   3.080
  138OSM    H6T14945   6.004   0.222   3.047
  138OSM    C7S14946   5.945   0.036   3.149
  138OSM    H7S14947   6.042   6.871   3.136
  138OSM    H7T14948   5.865   6.847   3.144
  138OSM    C8S14949   5.954   0.092   3.293
  138OSM    H8S14950   5.859   0.143   3.317
  138OSM    H8T14951   6.034   0.169   3.291
  138OSM    C9S14952   5.965   6.862   3.393
  138OSM    H9S14953   6.052   6.797   3.370
  138OSM    H9T14954   5.867   6.814   3.374
  138OSM   C10S14955   5.969   0.016   3.543
  138OSM   H10S14956   5.949   6.814   3.607
  138OSM   H10T14957   5.903   0.103   3.560
  138OSM   C11S14958   6.106   0.068   3.587
  138OSM   H11S14959   6.138   0.168   3.553
  138OSM   H11T14960   6.180   6.875   3.564
  138OSM   C12S14961   6.106   0.082   3.742
  138OSM   H12S14962   6.080   6.879   3.801
  138OSM   H12T14963   6.033   0.159   3.775
  138OSM   C13S14964   6.247   0.130   3.802
  138OSM   H13S14965   6.270   0.230   3.760
  138OSM   H13T14966   6.324   0.053   3.780
  138OSM   C14S14967   6.236   0.131   3.954
  138OSM   H14S14968   6.141   0.186   3.971
  138OSM   H14T14969   6.316   0.193   4.000
  138OSM   C15S14970   6.240   6.880   4.024
  138OSM   H15S14971   6.332   6.824   3.997
  138OSM   H15T14972   6.156   6.816   3.989
  138OSM   C16S14973   6.238   0.017   4.180
  138OSM   H16S14974   6.164   0.088   4.224
  138OSM   H16T14975   6.340   0.055   4.203
  138OSM   C17S14976   6.210   6.779   4.263
  138OSM   H17S14977   6.284   6.699   4.248
  138OSM   H17T14978   6.107   6.746   4.238
  138OSM   C18S14979   6.207   6.815   4.416
  138OSM   H18S14980   6.245   6.741   4.490
  138OSM   H18T14981   6.100   6.832   4.438
  138OSM   H18U14982   6.261   0.024   4.433
  138OSM    C1F14983   5.559   6.717   2.763
  138OSM     OF14984   5.550   6.593   2.752
  138OSM    C2F14985   5.434   6.789   2.812
  138OSM    H2F14986   5.354   6.784   2.734
  138OSM    H2G14987   5.469   0.007   2.808
  138OSM    C3F14988   5.402   6.752   2.961
  138OSM    H3F14989   5.402   6.641   2.969
  138OSM    H3G14990   5.304   6.797   2.987
  138OSM    C4F14991   5.510   6.796   3.061
  138OSM    H4F14992   5.544   0.014   3.045
  138OSM    H4G14993   5.600   6.731   3.052
  138OSM    C5F14994   5.446   6.796   3.206
  138OSM    H5F14995   5.380   6.708   3.218
  138OSM    H5G14996   5.376   6.880   3.227
  138OSM    C6F14997   5.558   6.797   3.314
  138OSM    H6F14998   5.595   0.015   3.316
  138OSM    H6G14999   5.635   6.720   3.294
  138OSM    C7F15000   5.509   6.759   3.451
  138OSM    H7F15001   5.460   6.659   3.442
  138OSM    H7G15002   5.427   6.830   3.474
  138OSM    C8F15003   5.620   6.760   3.564
  138OSM    H8F15004   5.644   6.861   3.604
  138OSM    H8G15005   5.718   6.722   3.526
  138OSM    C9F15006   5.573   6.675   3.685
  138OSM    H9F15007   5.609   6.572   3.668
  138OSM   C10F15008   5.492   6.704   3.787
  138OSM   H10F15009   5.475   6.629   3.865
  138OSM   C11F15010   5.415   6.833   3.828
  138OSM   H11F15011   5.304   6.821   3.828
  138OSM   H11G15012   5.449   0.029   3.763
  138OSM   C12F15013   5.461   0.007   3.959
  138OSM   H12F15014   5.455   6.814   4.036
  138OSM   H12G15015   5.388   0.087   3.981
  138OSM   C13F15016   5.605   0.062   3.974
  138OSM   H13F15017   5.627   0.129   3.888
  138OSM   H13G15018   5.678   6.866   3.975
  138OSM   C14F15019   5.615   0.136   4.114
  138OSM   H14F15020   5.539   0.217   4.115
  138OSM   H14G15021   5.720   0.170   4.113
  138OSM   C15F15022   5.602   0.047   4.242
  138OSM   H15F15023   5.632   6.829   4.222
  138OSM   H15G15024   5.497   0.046   4.280
  138OSM   C16F15025   5.673   0.110   4.360
  138OSM   H16F15026   5.628   0.060   4.448
  138OSM   H16G15027   5.656   0.220   4.369
  138OSM   C17F15028   5.826   0.084   4.354
  138OSM   H17F15029   5.869   0.127   4.261
  138OSM   H17G15030   5.851   6.863   4.360
  138OSM   C18F15031   5.906   0.145   4.468
  138OSM   H18F15032   5.873   0.098   4.563
  138OSM   H18G15033   5.884   0.254   4.473
  138OSM   H18H15034   6.015   0.132   4.449
  139OSM      N15035   1.470   1.007   1.724
  139OSM    C1515036   1.414   0.960   1.849
  139OSM   H15A15037   1.382   1.038   1.917
  139OSM   H15B15038   1.485   0.906   1.910
  139OSM   H15C15039   1.323   0.907   1.826
  139OSM    C1415040   1.604   1.077   1.746
  139OSM   H14A15041   1.675   1.005   1.784
  139OSM   H14B15042   1.587   1.161   1.812
  139OSM   H14C15043   1.628   1.113   1.647
  139OSM    C1315044   1.494   0.887   1.635
  139OSM   H13A15045   1.544   0.917   1.544
  139OSM   H13B15046   1.403   0.836   1.609
  139OSM   H13C15047   1.547   0.811   1.690
  139OSM    C1215048   1.376   1.104   1.649
  139OSM   H12A15049   1.277   1.060   1.644
  139OSM   H12B15050   1.403   1.115   1.545
  139OSM    C1115051   1.359   1.251   1.707
  139OSM   H11A15052   1.294   1.304   1.634
  139OSM   H11B15053   1.455   1.305   1.712
  139OSM      P15054   1.146   1.283   1.855
  139OSM    O1315055   1.126   1.407   1.775
  139OSM    O1415056   1.056   1.171   1.813
  139OSM    O1115057   1.130   1.310   2.008
  139OSM    O1215058   1.291   1.232   1.836
  139OSM    C1S15059   0.997   1.318   2.067
  139OSM    H1S15060   0.955   1.215   2.064
  139OSM    H1T15061   0.925   1.384   2.015
  139OSM     NF15062   0.858   1.377   2.254
  139OSM    HNF15063   0.822   1.470   2.257
  139OSM    C2S15064   0.997   1.373   2.211
  139OSM    H2S15065   1.054   1.301   2.273
  139OSM    C3S15066   1.071   1.516   2.215
  139OSM    H3S15067   1.008   1.589   2.160
  139OSM     O315068   1.199   1.531   2.163
  139OSM    HO315069   1.215   1.447   2.119
  139OSM    C4S15070   1.070   1.568   2.361
  139OSM    H4S15071   0.983   1.632   2.380
  139OSM    C5S15072   1.154   1.530   2.461
  139OSM    H5S15073   1.235   1.464   2.429
  139OSM    C6S15074   1.122   1.564   2.603
  139OSM    H6S15075   1.126   1.674   2.618
  139OSM    H6T15076   1.199   1.514   2.665
  139OSM    C7S15077   0.980   1.525   2.649
  139OSM    H7S15078   0.965   1.415   2.654
  139OSM    H7T15079   0.903   1.573   2.586
  139OSM    C8S15080   0.946   1.553   2.802
  139OSM    H8S15081   0.844   1.513   2.824
  139OSM    H8T15082   0.966   1.660   2.820
  139OSM    C9S15083   1.045   1.478   2.901
  139OSM    H9S15084   1.148   1.509   2.873
  139OSM    H9T15085   1.038   1.368   2.892
  139OSM   C10S15086   1.021   1.518   3.047
  139OSM   H10S15087   0.926   1.472   3.080
  139OSM   H10T15088   1.005   1.628   3.046
  139OSM   C11S15089   1.127   1.474   3.156
  139OSM   H11S15090   1.225   1.524   3.137
  139OSM   H11T15091   1.134   1.364   3.169
  139OSM   C12S15092   1.085   1.518   3.299
  139OSM   H12S15093   0.986   1.470   3.316
  139OSM   H12T15094   1.071   1.628   3.289
  139OSM   C13S15095   1.188   1.498   3.402
  139OSM   H13S15096   1.281   1.556   3.382
  139OSM   H13T15097   1.218   1.390   3.405
  139OSM   C14S15098   1.142   1.530   3.544
  139OSM   H14S15099   1.054   1.468   3.572
  139OSM   H14T15100   1.122   1.639   3.547
  139OSM   C15S15101   1.254   1.497   3.643
  139OSM   H15S15102   1.272   1.566   3.728
  139OSM   H15T15103   1.350   1.501   3.588
  139OSM   C16S15104   1.232   1.362   3.712
  139OSM   H16S15105   1.205   1.293   3.629
  139OSM   H16T15106   1.141   1.370   3.775
  139OSM   C17S15107   1.354   1.308   3.788
  139OSM   H17S15108   1.450   1.330   3.737
  139OSM   H17T15109   1.354   1.198   3.804
  139OSM   C18S15110   1.354   1.369   3.933
  139OSM   H18S15111   1.257   1.334   3.976
  139OSM   H18T15112   1.351   1.479   3.918
  139OSM   H18U15113   1.437   1.326   3.993
  139OSM    C1F15114   0.789   1.270   2.290
  139OSM     OF15115   0.851   1.165   2.294
  139OSM    C2F15116   0.641   1.271   2.307
  139OSM    H2F15117   0.616   1.169   2.345
  139OSM    H2G15118   0.608   1.280   2.201
  139OSM    C3F15119   0.595   1.386   2.407
  139OSM    H3F15120   0.485   1.377   2.424
  139OSM    H3G15121   0.612   1.480   2.352
  139OSM    C4F15122   0.664   1.394   2.545
  139OSM    H4F15123   0.775   1.403   2.538
  139OSM    H4G15124   0.651   1.291   2.584
  139OSM    C5F15125   0.613   1.499   2.633
  139OSM    H5F15126   0.683   1.506   2.719
  139OSM    H5G15127   0.516   1.468   2.676
  139OSM    C6F15128   0.578   1.636   2.569
  139OSM    H6F15129   0.507   1.629   2.484
  139OSM    H6G15130   0.673   1.681   2.531
  139OSM    C7F15131   0.532   1.722   2.684
  139OSM    H7F15132   0.550   1.825   2.647
  139OSM    H7G15133   0.584   1.691   2.777
  139OSM    C8F15134   0.382   1.704   2.705
  139OSM    H8F15135   0.370   1.594   2.707
  139OSM    H8G15136   0.324   1.732   2.615
  139OSM    C9F15137   0.348   1.783   2.824
  139OSM    H9F15138   0.317   1.885   2.798
  139OSM   C10F15139   0.371   1.744   2.952
  139OSM   H10F15140   0.344   1.812   3.034
  139OSM   C11F15141   0.429   1.613   2.997
  139OSM   H11F15142   0.451   1.543   2.914
  139OSM   H11G15143   0.381   1.552   3.076
  139OSM   C12F15144   0.578   1.642   3.050
  139OSM   H12F15145   0.634   1.711   2.984
  139OSM   H12G15146   0.631   1.549   3.079
  139OSM   C13F15147   0.570   1.715   3.183
  139OSM   H13F15148   0.526   1.654   3.266
  139OSM   H13G15149   0.510   1.806   3.164
  139OSM   C14F15150   0.713   1.762   3.217
  139OSM   H14F15151   0.753   1.853   3.168
  139OSM   H14G15152   0.786   1.684   3.186
  139OSM   C15F15153   0.729   1.778   3.373
  139OSM   H15F15154   0.671   1.867   3.405
  139OSM   H15G15155   0.837   1.794   3.393
  139OSM   C16F15156   0.692   1.650   3.453
  139OSM   H16F15157   0.720   1.564   3.389
  139OSM   H16G15158   0.586   1.637   3.482
  139OSM   C17F15159   0.756   1.658   3.588
  139OSM   H17F15160   0.700   1.736   3.644
  139OSM   H17G15161   0.862   1.683   3.569
  139OSM   C18F15162   0.757   1.524   3.668
  139OSM   H18F15163   0.811   1.448   3.609
  139OSM   H18G15164   0.657   1.482   3.693
  139OSM   H18H15165   0.808   1.548   3.763
  140OSM      N15166   4.902   0.957   2.006
  140OSM    C1515167   5.013   1.065   2.010
  140OSM   H15A15168   4.983   1.154   2.063
  140OSM   H15B15169   5.031   1.107   1.912
  140OSM   H15C15170   5.101   1.021   2.056
  140OSM    C1415171   4.788   1.015   1.929
  140OSM   H14A15172   4.812   1.026   1.824
  140OSM   H14B15173   4.753   1.107   1.973
  140OSM   H14C15174   4.697   0.956   1.935
  140OSM    C1315175   4.953   0.838   1.925
  140OSM   H13A15176   5.008   0.875   1.839
  140OSM   H13B15177   4.870   0.782   1.885
  140OSM   H13C15178   5.008   0.770   1.988
  140OSM    C1215179   4.851   0.909   2.136
  140OSM   H12A15180   4.780   0.830   2.121
  140OSM   H12B15181   4.805   0.992   2.188
  140OSM    C1115182   4.963   0.848   2.236
  140OSM   H11A15183   4.909   0.843   2.334
  140OSM   H11B15184   5.042   0.926   2.237
  140OSM      P15185   4.966   0.584   2.252
  140OSM    O1315186   4.847   0.535   2.183
  140OSM    O1415187   5.087   0.497   2.249
  140OSM    O1115188   4.930   0.620   2.404
  140OSM    O1215189   5.012   0.724   2.191
  140OSM    C1S15190   4.898   0.507   2.489
  140OSM    H1S15191   4.942   0.413   2.450
  140OSM    H1T15192   4.789   0.487   2.494
  140OSM     NF15193   4.914   0.415   2.713
  140OSM    HNF15194   4.828   0.378   2.746
  140OSM    C2S15195   4.923   0.540   2.642
  140OSM    H2S15196   5.026   0.578   2.655
  140OSM    C3S15197   4.830   0.664   2.680
  140OSM    H3S15198   4.722   0.646   2.663
  140OSM     O315199   4.860   0.779   2.591
  140OSM    HO315200   4.878   0.734   2.508
  140OSM    C4S15201   4.862   0.714   2.818
  140OSM    H4S15202   4.931   0.800   2.820
  140OSM    C5S15203   4.825   0.665   2.930
  140OSM    H5S15204   4.747   0.587   2.928
  140OSM    C6S15205   4.849   0.717   3.068
  140OSM    H6S15206   4.954   0.704   3.099
  140OSM    H6T15207   4.783   0.676   3.147
  140OSM    C7S15208   4.804   0.871   3.083
  140OSM    H7S15209   4.698   0.901   3.070
  140OSM    H7T15210   4.866   0.925   3.009
  140OSM    C8S15211   4.843   0.923   3.222
  140OSM    H8S15212   4.871   1.030   3.210
  140OSM    H8T15213   4.933   0.869   3.258
  140OSM    C9S15214   4.736   0.917   3.326
  140OSM    H9S15215   4.683   0.821   3.310
  140OSM    H9T15216   4.656   0.991   3.304
  140OSM   C10S15217   4.792   0.926   3.469
  140OSM   H10S15218   4.853   1.017   3.487
  140OSM   H10T15219   4.850   0.837   3.502
  140OSM   C11S15220   4.681   0.933   3.569
  140OSM   H11S15221   4.592   0.867   3.557
  140OSM   H11T15222   4.638   1.035   3.560
  140OSM   C12S15223   4.738   0.914   3.712
  140OSM   H12S15224   4.826   0.975   3.744
  140OSM   H12T15225   4.767   0.807   3.715
  140OSM   C13S15226   4.633   0.947   3.822
  140OSM   H13S15227   4.552   0.872   3.814
  140OSM   H13T15228   4.590   1.048   3.805
  140OSM   C14S15229   4.692   0.934   3.964
  140OSM   H14S15230   4.748   1.026   3.989
  140OSM   H14T15231   4.758   0.845   3.958
  140OSM   C15S15232   4.585   0.924   4.071
  140OSM   H15S15233   4.634   0.910   4.170
  140OSM   H15T15234   4.517   0.838   4.055
  140OSM   C16S15235   4.498   1.054   4.076
  140OSM   H16S15236   4.416   1.046   4.001
  140OSM   H16T15237   4.569   1.135   4.048
  140OSM   C17S15238   4.438   1.080   4.213
  140OSM   H17S15239   4.364   1.157   4.182
  140OSM   H17T15240   4.504   1.127   4.289
  140OSM   C18S15241   4.342   0.969   4.263
  140OSM   H18S15242   4.400   0.888   4.313
  140OSM   H18T15243   4.281   0.927   4.180
  140OSM   H18U15244   4.273   1.011   4.338
  140OSM    C1F15245   5.012   0.324   2.708
  140OSM     OF15246   5.120   0.354   2.649
  140OSM    C2F15247   4.982   0.180   2.745
  140OSM    H2F15248   4.977   0.121   2.651
  140OSM    H2G15249   4.878   0.186   2.783
  140OSM    C3F15250   5.081   0.105   2.833
  140OSM    H3F15251   5.169   0.092   2.767
  140OSM    H3G15252   5.055   0.002   2.865
  140OSM    C4F15253   5.109   0.179   2.965
  140OSM    H4F15254   5.141   0.284   2.952
  140OSM    H4G15255   5.183   0.119   3.022
  140OSM    C5F15256   4.991   0.190   3.058
  140OSM    H5F15257   4.929   0.100   3.076
  140OSM    H5G15258   4.920   0.249   2.996
  140OSM    C6F15259   5.034   0.267   3.190
  140OSM    H6F15260   5.113   0.339   3.162
  140OSM    H6G15261   5.076   0.190   3.259
  140OSM    C7F15262   4.927   0.337   3.280
  140OSM    H7F15263   4.844   0.278   3.323
  140OSM    H7G15264   4.882   0.420   3.221
  140OSM    C8F15265   4.997   0.404   3.394
  140OSM    H8F15266   5.090   0.452   3.358
  140OSM    H8G15267   5.037   0.322   3.457
  140OSM    C9F15268   4.899   0.497   3.466
  140OSM    H9F15269   4.873   0.591   3.415
  140OSM   C10F15270   4.855   0.481   3.594
  140OSM   H10F15271   4.787   0.556   3.637
  140OSM   C11F15272   4.907   0.381   3.694
  140OSM   H11F15273   4.896   0.419   3.798
  140OSM   H11G15274   5.016   0.361   3.682
  140OSM   C12F15275   4.821   0.255   3.666
  140OSM   H12F15276   4.860   0.188   3.587
  140OSM   H12G15277   4.723   0.277   3.617
  140OSM   C13F15278   4.812   0.167   3.792
  140OSM   H13F15279   4.736   0.086   3.790
  140OSM   H13G15280   4.787   0.218   3.887
  140OSM   C14F15281   4.952   0.098   3.816
  140OSM   H14F15282   5.039   0.164   3.837
  140OSM   H14G15283   4.985   0.040   3.728
  140OSM   C15F15284   4.936   0.005   3.946
  140OSM   H15F15285   5.029   6.837   3.969
  140OSM   H15G15286   4.860   6.813   3.922
  140OSM   C16F15287   4.901   0.075   4.076
  140OSM   H16F15288   4.792   0.090   4.086
  140OSM   H16G15289   4.949   0.175   4.083
  140OSM   C17F15290   4.963   0.005   4.197
  140OSM   H17F15291   5.069   6.867   4.175
  140OSM   H17G15292   4.913   6.794   4.207
  140OSM   C18F15293   4.949   0.084   4.330
  140OSM   H18F15294   4.853   0.140   4.332
  140OSM   H18G15295   5.026   0.164   4.333
  140OSM   H18H15296   4.959   0.032   4.428
  141OSM      N15297   0.427   4.795   1.999
  141OSM    C1515298   0.278   4.775   2.026
  141OSM   H15A15299   0.217   4.816   1.947
  141OSM   H15B15300   0.250   4.807   2.125
  141OSM   H15C15301   0.263   4.668   2.027
  141OSM    C1415302   0.474   4.723   1.880
  141OSM   H14A15303   0.449   4.619   1.889
  141OSM   H14B15304   0.582   4.715   1.873
  141OSM   H14C15305   0.434   4.771   1.792
  141OSM    C1315306   0.453   4.945   1.999
  141OSM   H13A15307   0.415   4.995   2.087
  141OSM   H13B15308   0.401   5.001   1.923
  141OSM   H13C15309   0.554   4.976   1.976
  141OSM    C1215310   0.502   4.736   2.114
  141OSM   H12A15311   0.493   4.791   2.206
  141OSM   H12B15312   0.604   4.714   2.085
  141OSM    C1115313   0.452   4.599   2.163
  141OSM   H11A15314   0.365   4.627   2.227
  141OSM   H11B15315   0.530   4.558   2.231
  141OSM      P15316   0.404   4.355   2.081
  141OSM    O1315317   0.269   4.328   2.138
  141OSM    O1415318   0.434   4.294   1.949
  141OSM    O1115319   0.525   4.342   2.177
  141OSM    O1215320   0.413   4.507   2.051
  141OSM    C1S15321   0.540   4.225   2.260
  141OSM    H1S15322   0.640   4.184   2.238
  141OSM    H1T15323   0.475   4.137   2.240
  141OSM     NF15324   0.575   4.141   2.486
  141OSM    HNF15325   0.506   4.074   2.513
  141OSM    C2S15326   0.526   4.259   2.412
  141OSM    H2S15327   0.582   4.353   2.437
  141OSM    C3S15328   0.384   4.304   2.456
  141OSM    H3S15329   0.299   4.243   2.419
  141OSM     O315330   0.350   4.432   2.408
  141OSM    HO315331   0.427   4.459   2.356
  141OSM    C4S15332   0.367   4.295   2.603
  141OSM    H4S15333   0.322   4.210   2.656
  141OSM    C5S15334   0.406   4.388   2.691
  141OSM    H5S15335   0.465   4.468   2.644
  141OSM    C6S15336   0.398   4.380   2.845
  141OSM    H6S15337   0.497   4.380   2.896
  141OSM    H6T15338   0.336   4.290   2.866
  141OSM    C7S15339   0.329   4.510   2.908
  141OSM    H7S15340   0.240   4.537   2.848
  141OSM    H7T15341   0.394   4.600   2.909
  141OSM    C8S15342   0.286   4.499   3.058
  141OSM    H8S15343   0.210   4.419   3.052
  141OSM    H8T15344   0.233   4.592   3.089
  141OSM    C9S15345   0.396   4.490   3.162
  141OSM    H9S15346   0.472   4.570   3.149
  141OSM    H9T15347   0.448   4.394   3.140
  141OSM   C10S15348   0.338   4.489   3.306
  141OSM   H10S15349   0.278   4.581   3.323
  141OSM   H10T15350   0.417   4.491   3.384
  141OSM   C11S15351   0.242   4.366   3.330
  141OSM   H11S15352   0.281   4.278   3.275
  141OSM   H11T15353   0.137   4.374   3.295
  141OSM   C12S15354   0.223   4.334   3.475
  141OSM   H12S15355   0.323   4.336   3.522
  141OSM   H12T15356   0.174   4.235   3.480
  141OSM   C13S15357   0.146   4.444   3.552
  141OSM   H13S15358   0.052   4.451   3.492
  141OSM   H13T15359   0.202   4.539   3.535
  141OSM   C14S15360   0.106   4.407   3.700
  141OSM   H14S15361   0.200   4.386   3.755
  141OSM   H14T15362   0.049   4.311   3.707
  141OSM   C15S15363   0.001   4.502   3.764
  141OSM   H15S15364   6.790   4.479   3.717
  141OSM   H15T15365   0.025   4.611   3.766
  141OSM   C16S15366   6.863   4.459   3.919
  141OSM   H16S15367   0.072   4.464   3.974
  141OSM   H16T15368   6.834   4.353   3.901
  141OSM   C17S15369   6.746   4.535   3.979
  141OSM   H17S15370   6.669   4.527   3.899
  141OSM   H17T15371   6.774   4.641   3.996
  141OSM   C18S15372   6.690   4.473   4.112
  141OSM   H18S15373   6.672   4.363   4.108
  141OSM   H18T15374   6.588   4.515   4.114
  141OSM   H18U15375   6.761   4.510   4.189
  141OSM    C1F15376   0.703   4.107   2.490
  141OSM     OF15377   0.789   4.184   2.452
  141OSM    C2F15378   0.740   3.968   2.530
  141OSM    H2F15379   0.815   3.937   2.454
  141OSM    H2G15380   0.650   3.904   2.528
  141OSM    C3F15381   0.788   3.966   2.683
  141OSM    H3F15382   0.890   4.009   2.695
  141OSM    H3G15383   0.777   3.861   2.719
  141OSM    C4F15384   0.697   4.024   2.789
  141OSM    H4F15385   0.597   3.977   2.779
  141OSM    H4G15386   0.681   4.131   2.763
  141OSM    C5F15387   0.745   3.988   2.929
  141OSM    H5F15388   0.855   4.004   2.922
  141OSM    H5G15389   0.736   3.880   2.954
  141OSM    C6F15390   0.683   4.079   3.032
  141OSM    H6F15391   0.577   4.097   3.004
  141OSM    H6G15392   0.742   4.172   3.020
  141OSM    C7F15393   0.688   4.012   3.174
  141OSM    H7F15394   0.789   3.971   3.196
  141OSM    H7G15395   0.612   3.932   3.161
  141OSM    C8F15396   0.639   4.094   3.300
  141OSM    H8F15397   0.619   4.013   3.374
  141OSM    H8G15398   0.539   4.141   3.285
  141OSM    C9F15399   0.725   4.195   3.357
  141OSM    H9F15400   0.797   4.233   3.283
  141OSM   C10F15401   0.708   4.246   3.479
  141OSM   H10F15402   0.786   4.314   3.517
  141OSM   C11F15403   0.605   4.210   3.576
  141OSM   H11F15404   0.527   4.138   3.543
  141OSM   H11G15405   0.542   4.299   3.600
  141OSM   C12F15406   0.641   4.153   3.712
  141OSM   H12F15407   0.701   4.060   3.703
  141OSM   H12G15408   0.546   4.126   3.764
  141OSM   C13F15409   0.733   4.242   3.788
  141OSM   H13F15410   0.687   4.343   3.795
  141OSM   H13G15411   0.822   4.259   3.723
  141OSM   C14F15412   0.759   4.197   3.936
  141OSM   H14F15413   0.770   4.087   3.939
  141OSM   H14G15414   0.662   4.217   3.986
  141OSM   C15F15415   0.866   4.278   4.009
  141OSM   H15F15416   0.954   4.286   3.941
  141OSM   H15G15417   0.885   4.227   4.105
  141OSM   C16F15418   0.839   4.427   4.045
  141OSM   H16F15419   0.739   4.432   4.093
  141OSM   H16G15420   0.846   4.477   3.946
  141OSM   C17F15421   0.948   4.483   4.136
  141OSM   H17F15422   1.050   4.458   4.103
  141OSM   H17G15423   0.938   4.445   4.240
  141OSM   C18F15424   0.937   4.633   4.147
  141OSM   H18F15425   0.951   4.676   4.045
  141OSM   H18G15426   1.020   4.678   4.205
  141OSM   H18H15427   0.838   4.659   4.190
  142OSM      N15428   1.661   5.157   2.113
  142OSM    C1515429   1.704   5.272   2.025
  142OSM   H15A15430   1.768   5.244   1.942
  142OSM   H15B15431   1.771   5.335   2.080
  142OSM   H15C15432   1.619   5.326   1.986
  142OSM    C1415433   1.589   5.063   2.027
  142OSM   H14A15434   1.512   5.106   1.965
  142OSM   H14B15435   1.553   4.980   2.086
  142OSM   H14C15436   1.665   5.037   1.955
  142OSM    C1315437   1.778   5.091   2.174
  142OSM   H13A15438   1.846   5.043   2.106
  142OSM   H13B15439   1.741   5.002   2.222
  142OSM   H13C15440   1.833   5.159   2.238
  142OSM    C1215441   1.571   5.213   2.224
  142OSM   H12A15442   1.516   5.131   2.266
  142OSM   H12B15443   1.502   5.283   2.180
  142OSM    C1115444   1.633   5.296   2.338
  142OSM   H11A15445   1.716   5.248   2.394
  142OSM   H11B15446   1.549   5.311   2.409
  142OSM      P15447   1.588   5.543   2.255
  142OSM    O1315448   1.673   5.653   2.207
  142OSM    O1415449   1.475   5.499   2.170
  142OSM    O1115450   1.534   5.580   2.396
  142OSM    O1215451   1.684   5.422   2.292
  142OSM    C1S15452   1.604   5.686   2.471
  142OSM    H1S15453   1.596   5.788   2.429
  142OSM    H1T15454   1.711   5.667   2.493
  142OSM     NF15455   1.557   5.837   2.680
  142OSM    HNF15456   1.620   5.836   2.758
  142OSM    C2S15457   1.530   5.710   2.616
  142OSM    H2S15458   1.422   5.689   2.606
  142OSM    C3S15459   1.562   5.591   2.710
  142OSM    H3S15460   1.668   5.615   2.736
  142OSM     O315461   1.556   5.468   2.642
  142OSM    HO315462   1.531   5.492   2.552
  142OSM    C4S15463   1.487   5.584   2.839
  142OSM    H4S15464   1.384   5.546   2.838
  142OSM    C5S15465   1.538   5.611   2.959
  142OSM    H5S15466   1.643   5.644   2.960
  142OSM    C6S15467   1.470   5.603   3.093
  142OSM    H6S15468   1.521   5.536   3.166
  142OSM    H6T15469   1.371   5.554   3.086
  142OSM    C7S15470   1.443   5.734   3.160
  142OSM    H7S15471   1.383   5.789   3.085
  142OSM    H7T15472   1.540   5.789   3.154
  142OSM    C8S15473   1.382   5.722   3.297
  142OSM    H8S15474   1.295   5.653   3.290
  142OSM    H8T15475   1.349   5.825   3.322
  142OSM    C9S15476   1.480   5.686   3.414
  142OSM    H9S15477   1.556   5.767   3.410
  142OSM    H9T15478   1.533   5.592   3.391
  142OSM   C10S15479   1.398   5.693   3.547
  142OSM   H10S15480   1.337   5.600   3.552
  142OSM   H10T15481   1.329   5.780   3.538
  142OSM   C11S15482   1.472   5.720   3.680
  142OSM   H11S15483   1.409   5.773   3.755
  142OSM   H11T15484   1.557   5.783   3.645
  142OSM   C12S15485   1.526   5.587   3.735
  142OSM   H12S15486   1.584   5.541   3.652
  142OSM   H12T15487   1.446   5.513   3.759
  142OSM   C13S15488   1.640   5.605   3.837
  142OSM   H13S15489   1.696   5.513   3.864
  142OSM   H13T15490   1.590   5.639   3.930
  142OSM   C14S15491   1.750   5.712   3.804
  142OSM   H14S15492   1.813   5.719   3.895
  142OSM   H14T15493   1.712   5.814   3.784
  142OSM   C15S15494   1.843   5.660   3.686
  142OSM   H15S15495   1.766   5.630   3.611
  142OSM   H15T15496   1.888   5.561   3.708
  142OSM   C16S15497   1.936   5.769   3.633
  142OSM   H16S15498   2.015   5.792   3.708
  142OSM   H16T15499   1.878   5.862   3.618
  142OSM   C17S15500   2.000   5.720   3.495
  142OSM   H17S15501   2.043   5.812   3.450
  142OSM   H17T15502   1.919   5.681   3.430
  142OSM   C18S15503   2.100   5.603   3.518
  142OSM   H18S15504   2.126   5.553   3.423
  142OSM   H18T15505   2.067   5.520   3.585
  142OSM   H18U15506   2.194   5.638   3.566
  142OSM    C1F15507   1.528   5.954   2.635
  142OSM     OF15508   1.472   5.959   2.525
  142OSM    C2F15509   1.557   6.076   2.712
  142OSM    H2F15510   1.471   6.146   2.701
  142OSM    H2G15511   1.652   6.116   2.672
  142OSM    C3F15512   1.580   6.051   2.862
  142OSM    H3F15513   1.516   5.969   2.902
  142OSM    H3G15514   1.556   6.139   2.925
  142OSM    C4F15515   1.728   6.034   2.895
  142OSM    H4F15516   1.786   6.120   2.853
  142OSM    H4G15517   1.777   5.945   2.850
  142OSM    C5F15518   1.746   6.042   3.048
  142OSM    H5F15519   1.692   5.955   3.092
  142OSM    H5G15520   1.711   6.142   3.081
  142OSM    C6F15521   1.889   6.028   3.087
  142OSM    H6F15522   1.954   6.093   3.024
  142OSM    H6G15523   1.925   5.924   3.067
  142OSM    C7F15524   1.910   6.067   3.231
  142OSM    H7F15525   1.845   6.005   3.298
  142OSM    H7G15526   1.887   6.174   3.244
  142OSM    C8F15527   2.059   6.044   3.279
  142OSM    H8F15528   2.110   6.099   3.198
  142OSM    H8G15529   2.087   5.937   3.268
  142OSM    C9F15530   2.068   6.090   3.425
  142OSM    H9F15531   1.975   6.097   3.483
  142OSM   C10F15532   2.176   6.119   3.508
  142OSM   H10F15533   2.149   6.143   3.612
  142OSM   C11F15534   2.324   6.103   3.465
  142OSM   H11F15535   2.389   6.191   3.479
  142OSM   H11G15536   2.325   6.077   3.356
  142OSM   C12F15537   2.401   5.987   3.536
  142OSM   H12F15538   2.502   5.978   3.491
  142OSM   H12G15539   2.362   5.885   3.517
  142OSM   C13F15540   2.433   6.007   3.683
  142OSM   H13F15541   2.437   6.116   3.705
  142OSM   H13G15542   2.534   5.966   3.706
  142OSM   C14F15543   2.331   5.941   3.779
  142OSM   H14F15544   2.304   5.839   3.746
  142OSM   H14G15545   2.239   6.002   3.766
  142OSM   C15F15546   2.384   5.951   3.923
  142OSM   H15F15547   2.418   6.056   3.931
  142OSM   H15G15548   2.479   5.893   3.924
  142OSM   C16F15549   2.278   5.912   4.031
  142OSM   H16F15550   2.253   5.804   4.030
  142OSM   H16G15551   2.183   5.959   3.996
  142OSM   C17F15552   2.301   5.958   4.178
  142OSM   H17F15553   2.320   6.067   4.182
  142OSM   H17G15554   2.390   5.915   4.228
  142OSM   C18F15555   2.187   5.918   4.272
  142OSM   H18F15556   2.091   5.941   4.222
  142OSM   H18G15557   2.194   5.977   4.366
  142OSM   H18H15558   2.191   5.811   4.300
  143OSM      N15559   0.865   4.460   1.946
  143OSM    C1515560   0.780   4.550   1.869
  143OSM   H15A15561   0.697   4.592   1.924
  143OSM   H15B15562   0.743   4.504   1.779
  143OSM   H15C15563   0.846   4.633   1.846
  143OSM    C1415564   0.779   4.350   1.992
  143OSM   H14A15565   0.739   4.291   1.912
  143OSM   H14B15566   0.698   4.385   2.054
  143OSM   H14C15567   0.835   4.283   2.056
  143OSM    C1315568   0.969   4.414   1.852
  143OSM   H13A15569   1.036   4.491   1.818
  143OSM   H13B15570   0.917   4.367   1.770
  143OSM   H13C15571   1.028   4.347   1.913
  143OSM    C1215572   0.927   4.546   2.054
  143OSM   H12A15573   1.003   4.605   2.004
  143OSM   H12B15574   0.970   4.480   2.127
  143OSM    C1115575   0.829   4.638   2.140
  143OSM   H11A15576   0.873   4.665   2.238
  143OSM   H11B15577   0.740   4.574   2.155
  143OSM      P15578   0.870   4.869   2.029
  143OSM    O1315579   0.955   4.821   1.915
  143OSM    O1415580   0.776   4.981   2.011
  143OSM    O1115581   0.966   4.910   2.153
  143OSM    O1215582   0.784   4.751   2.073
  143OSM    C1S15583   0.916   4.954   2.283
  143OSM    H1S15584   0.805   4.960   2.290
  143OSM    H1T15585   0.965   5.052   2.301
  143OSM     NF15586   0.934   4.931   2.535
  143OSM    HNF15587   0.999   4.972   2.599
  143OSM    C2S15588   0.970   4.870   2.409
  143OSM    H2S15589   0.916   4.773   2.404
  143OSM    C3S15590   1.116   4.831   2.396
  143OSM    H3S15591   1.185   4.918   2.402
  143OSM     O315592   1.139   4.758   2.273
  143OSM    HO315593   1.056   4.754   2.226
  143OSM    C4S15594   1.171   4.741   2.502
  143OSM    H4S15595   1.137   4.637   2.500
  143OSM    C5S15596   1.263   4.773   2.596
  143OSM    H5S15597   1.318   4.868   2.596
  143OSM    C6S15598   1.326   4.676   2.696
  143OSM    H6S15599   1.431   4.666   2.660
  143OSM    H6T15600   1.279   4.576   2.706
  143OSM    C7S15601   1.317   4.742   2.836
  143OSM    H7S15602   1.207   4.737   2.851
  143OSM    H7T15603   1.350   4.848   2.845
  143OSM    C8S15604   1.377   4.664   2.952
  143OSM    H8S15605   1.485   4.685   2.963
  143OSM    H8T15606   1.360   4.556   2.930
  143OSM    C9S15607   1.301   4.696   3.086
  143OSM    H9S15608   1.200   4.651   3.081
  143OSM    H9T15609   1.298   4.807   3.081
  143OSM   C10S15610   1.386   4.658   3.205
  143OSM   H10S15611   1.494   4.686   3.203
  143OSM   H10T15612   1.381   4.547   3.209
  143OSM   C11S15613   1.312   4.700   3.335
  143OSM   H11S15614   1.326   4.623   3.414
  143OSM   H11T15615   1.204   4.715   3.314
  143OSM   C12S15616   1.369   4.837   3.392
  143OSM   H12S15617   1.352   4.922   3.323
  143OSM   H12T15618   1.478   4.820   3.399
  143OSM   C13S15619   1.317   4.872   3.534
  143OSM   H13S15620   1.219   4.925   3.531
  143OSM   H13T15621   1.378   4.953   3.580
  143OSM   C14S15622   1.315   4.750   3.629
  143OSM   H14S15623   1.411   4.695   3.613
  143OSM   H14T15624   1.223   4.691   3.609
  143OSM   C15S15625   1.325   4.779   3.776
  143OSM   H15S15626   1.416   4.843   3.783
  143OSM   H15T15627   1.330   4.684   3.834
  143OSM   C16S15628   1.198   4.838   3.827
  143OSM   H16S15629   1.122   4.756   3.820
  143OSM   H16T15630   1.165   4.933   3.781
  143OSM   C17S15631   1.206   4.894   3.972
  143OSM   H17S15632   1.217   4.813   4.047
  143OSM   H17T15633   1.112   4.953   3.983
  143OSM   C18S15634   1.323   4.992   3.994
  143OSM   H18S15635   1.418   4.934   3.991
  143OSM   H18T15636   1.308   5.051   4.087
  143OSM   H18U15637   1.311   5.067   3.913
  143OSM    C1F15638   0.804   4.957   2.564
  143OSM     OF15639   0.711   4.908   2.499
  143OSM    C2F15640   0.776   5.046   2.683
  143OSM    H2F15641   0.807   5.148   2.656
  143OSM    H2G15642   0.844   5.015   2.765
  143OSM    C3F15643   0.628   5.047   2.717
  143OSM    H3F15644   0.605   4.942   2.745
  143OSM    H3G15645   0.567   5.062   2.625
  143OSM    C4F15646   0.574   5.135   2.829
  143OSM    H4F15647   0.465   5.141   2.811
  143OSM    H4G15648   0.616   5.236   2.811
  143OSM    C5F15649   0.593   5.081   2.978
  143OSM    H5F15650   0.700   5.094   3.007
  143OSM    H5G15651   0.562   4.974   2.975
  143OSM    C6F15652   0.494   5.150   3.086
  143OSM    H6F15653   0.388   5.144   3.055
  143OSM    H6G15654   0.505   5.260   3.086
  143OSM    C7F15655   0.510   5.098   3.234
  143OSM    H7F15656   0.489   5.180   3.306
  143OSM    H7G15657   0.619   5.081   3.227
  143OSM    C8F15658   0.459   4.958   3.269
  143OSM    H8F15659   0.500   4.921   3.365
  143OSM    H8G15660   0.489   4.892   3.184
  143OSM    C9F15661   0.309   4.970   3.271
  143OSM    H9F15662   0.260   4.967   3.172
  143OSM   C10F15663   0.230   4.976   3.375
  143OSM   H10F15664   0.124   5.002   3.356
  143OSM   C11F15665   0.266   5.005   3.520
  143OSM   H11F15666   0.245   5.112   3.538
  143OSM   H11G15667   0.376   5.002   3.538
  143OSM   C12F15668   0.203   4.919   3.628
  143OSM   H12F15669   0.183   4.814   3.597
  143OSM   H12G15670   0.102   4.964   3.639
  143OSM   C13F15671   0.285   4.921   3.759
  143OSM   H13F15672   0.302   5.027   3.788
  143OSM   H13G15673   0.385   4.873   3.748
  143OSM   C14F15674   0.225   4.847   3.876
  143OSM   H14F15675   0.211   4.739   3.853
  143OSM   H14G15676   0.122   4.890   3.881
  143OSM   C15F15677   0.296   4.859   4.008
  143OSM   H15F15678   0.302   4.964   4.044
  143OSM   H15G15679   0.395   4.810   3.999
  143OSM   C16F15680   0.219   4.774   4.104
  143OSM   H16F15681   0.205   4.667   4.077
  143OSM   H16G15682   0.119   4.821   4.108
  143OSM   C17F15683   0.278   4.772   4.240
  143OSM   H17F15684   0.373   4.715   4.243
  143OSM   H17G15685   0.222   4.712   4.315
  143OSM   C18F15686   0.286   4.902   4.321
  143OSM   H18F15687   0.314   4.869   4.424
  143OSM   H18G15688   0.187   4.951   4.333
  143OSM   H18H15689   0.362   4.973   4.282
  144OSM      N15690   0.077   5.651   2.111
  144OSM    C1515691   0.091   5.677   1.962
  144OSM   H15A15692   0.191   5.689   1.924
  144OSM   H15B15693   0.043   5.772   1.941
  144OSM   H15C15694   0.042   5.596   1.911
  144OSM    C1415695   0.136   5.764   2.177
  144OSM   H14A15696   0.244   5.763   2.170
  144OSM   H14B15697   0.098   5.752   2.277
  144OSM   H14C15698   0.097   5.860   2.144
  144OSM    C1315699   6.819   5.615   2.138
  144OSM   H13A15700   6.782   5.524   2.092
  144OSM   H13B15701   6.768   5.701   2.099
  144OSM   H13C15702   6.801   5.603   2.244
  144OSM    C1215703   0.164   5.526   2.142
  144OSM   H12A15704   0.265   5.555   2.120
  144OSM   H12B15705   0.129   5.452   2.072
  144OSM    C1115706   0.162   5.461   2.283
  144OSM   H11A15707   0.199   5.356   2.279
  144OSM   H11B15708   0.056   5.435   2.303
  144OSM      P15709   0.372   5.544   2.418
  144OSM    O1315710   0.438   5.417   2.382
  144OSM    O1415711   0.418   5.663   2.342
  144OSM    O1115712   0.380   5.565   2.571
  144OSM    O1215713   0.218   5.542   2.390
  144OSM    C1S15714   0.342   5.698   2.619
  144OSM    H1S15715   0.233   5.714   2.599
  144OSM    H1T15716   0.406   5.775   2.570
  144OSM     NF15717   0.333   5.854   2.819
  144OSM    HNF15718   0.401   5.926   2.820
  144OSM    C2S15719   0.375   5.723   2.768
  144OSM    H2S15720   0.310   5.647   2.816
  144OSM    C3S15721   0.519   5.684   2.813
  144OSM    H3S15722   0.592   5.754   2.768
  144OSM     O315723   0.575   5.567   2.777
  144OSM    HO315724   0.513   5.535   2.711
  144OSM    C4S15725   0.553   5.719   2.966
  144OSM    H4S15726   0.618   5.808   2.973
  144OSM    C5S15727   0.516   5.647   3.069
  144OSM    H5S15728   0.462   5.553   3.052
  144OSM    C6S15729   0.562   5.683   3.211
  144OSM    H6S15730   0.615   5.781   3.210
  144OSM    H6T15731   0.627   5.603   3.252
  144OSM    C7S15732   0.435   5.703   3.295
  144OSM    H7S15733   0.367   5.616   3.283
  144OSM    H7T15734   0.373   5.785   3.252
  144OSM    C8S15735   0.453   5.736   3.444
  144OSM    H8S15736   0.354   5.763   3.486
  144OSM    H8T15737   0.518   5.826   3.450
  144OSM    C9S15738   0.502   5.613   3.520
  144OSM    H9S15739   0.587   5.565   3.468
  144OSM    H9T15740   0.413   5.546   3.522
  144OSM   C10S15741   0.560   5.650   3.662
  144OSM   H10S15742   0.620   5.743   3.651
  144OSM   H10T15743   0.638   5.574   3.686
  144OSM   C11S15744   0.455   5.652   3.770
  144OSM   H11S15745   0.388   5.564   3.756
  144OSM   H11T15746   0.388   5.740   3.759
  144OSM   C12S15747   0.523   5.636   3.911
  144OSM   H12S15748   0.589   5.547   3.913
  144OSM   H12T15749   0.442   5.613   3.983
  144OSM   C13S15750   0.606   5.763   3.946
  144OSM   H13S15751   0.540   5.850   3.928
  144OSM   H13T15752   0.688   5.762   3.871
  144OSM   C14S15753   0.670   5.759   4.083
  144OSM   H14S15754   0.747   5.678   4.082
  144OSM   H14T15755   0.586   5.728   4.149
  144OSM   C15S15756   0.733   5.885   4.144
  144OSM   H15S15757   0.671   5.976   4.128
  144OSM   H15T15758   0.829   5.897   4.090
  144OSM   C16S15759   0.760   5.864   4.291
  144OSM   H16S15760   0.792   5.760   4.316
  144OSM   H16T15761   0.669   5.878   4.354
  144OSM   C17S15762   0.857   5.970   4.342
  144OSM   H17S15763   0.839   6.002   4.447
  144OSM   H17T15764   0.840   6.066   4.289
  144OSM   C18S15765   1.000   5.930   4.342
  144OSM   H18S15766   1.022   5.833   4.291
  144OSM   H18T15767   1.052   5.908   4.437
  144OSM   H18U15768   1.064   6.007   4.294
  144OSM    C1F15769   0.207   5.898   2.827
  144OSM     OF15770   0.104   5.828   2.807
  144OSM    C2F15771   0.192   6.047   2.812
  144OSM    H2F15772   0.117   6.061   2.732
  144OSM    H2G15773   0.289   6.096   2.793
  144OSM    C3F15774   0.126   6.111   2.936
  144OSM    H3F15775   0.180   6.078   3.027
  144OSM    H3G15776   0.021   6.079   2.953
  144OSM    C4F15777   0.109   6.262   2.929
  144OSM    H4F15778   0.088   6.300   2.827
  144OSM    H4G15779   0.199   6.313   2.969
  144OSM    C5F15780   6.883   6.306   3.031
  144OSM    H5F15781   6.784   6.257   3.017
  144OSM    H5G15782   6.880   6.414   3.006
  144OSM    C6F15783   0.036   6.294   3.175
  144OSM    H6F15784   0.119   6.365   3.197
  144OSM    H6G15785   0.068   6.189   3.193
  144OSM    C7F15786   6.810   6.335   3.273
  144OSM    H7F15787   6.717   6.281   3.246
  144OSM    H7G15788   6.787   6.443   3.266
  144OSM    C8F15789   6.860   6.318   3.421
  144OSM    H8F15790   0.055   6.391   3.442
  144OSM    H8G15791   0.010   6.215   3.441
  144OSM    C9F15792   6.749   6.337   3.517
  144OSM    H9F15793   6.654   6.287   3.496
  144OSM   C10F15794   6.756   6.408   3.630
  144OSM   H10F15795   6.674   6.392   3.702
  144OSM   C11F15796   6.876   6.478   3.688
  144OSM   H11F15797   6.856   6.588   3.690
  144OSM   H11G15798   0.080   6.469   3.625
  144OSM   C12F15799   0.016   6.432   3.828
  144OSM   H12F15800   6.812   6.420   3.891
  144OSM   H12G15801   0.092   6.495   3.878
  144OSM   C13F15802   0.082   6.296   3.822
  144OSM   H13F15803   0.185   6.307   3.782
  144OSM   H13G15804   0.035   6.232   3.744
  144OSM   C14F15805   0.097   6.224   3.954
  144OSM   H14F15806   0.003   6.167   3.971
  144OSM   H14G15807   0.115   6.295   4.037
  144OSM   C15F15808   0.206   6.114   3.951
  144OSM   H15F15809   0.312   6.147   3.960
  144OSM   H15G15810   0.198   6.065   3.851
  144OSM   C16F15811   0.192   6.004   4.058
  144OSM   H16F15812   0.254   5.919   4.021
  144OSM   H16G15813   0.086   5.974   4.073
  144OSM   C17F15814   0.249   6.047   4.196
  144OSM   H17F15815   0.214   5.969   4.266
  144OSM   H17G15816   0.194   6.135   4.235
  144OSM   C18F15817   0.397   6.071   4.206
  144OSM   H18F15818   0.442   6.019   4.119
  144OSM   H18G15819   0.435   6.024   4.299
  144OSM   H18H15820   0.414   6.181   4.196
  145SAPE     N15821   1.601   1.048   6.359
  145SAPE   HN115822   1.566   0.975   6.425
  145SAPE   HN215823   1.703   1.057   6.379
  145SAPE   HN315824   1.555   1.137   6.385
  145SAPE   C1215825   1.579   1.011   6.213
  145SAPE  H12A15826   1.639   0.921   6.190
  145SAPE  H12B15827   1.617   1.098   6.154
  145SAPE   C1115828   1.428   0.985   6.189
  145SAPE  H11A15829   1.416   0.979   6.079
  145SAPE  H11B15830   1.371   1.076   6.215
  145SAPE     P15831   1.227   0.822   6.236
  145SAPE   O1315832   1.222   0.676   6.227
  145SAPE   O1415833   1.139   0.891   6.331
  145SAPE   O1215834   1.379   0.868   6.254
  145SAPE   O1115835   1.201   0.878   6.089
  145SAPE    C115836   1.088   0.966   6.052
  145SAPE    HA15837   0.992   0.938   6.101
  145SAPE    HB15838   1.111   1.070   6.083
  145SAPE    C215839   1.068   0.973   5.902
  145SAPE    HS15840   0.994   1.054   5.890
  145SAPE   O2115841   1.030   0.845   5.848
  145SAPE   C2115842   0.914   0.844   5.789
  145SAPE   O2215843   0.829   0.927   5.800
  145SAPE   C2215844   0.907   0.728   5.691
  145SAPE   H2R15845   1.007   0.716   5.644
  145SAPE   H2S15846   0.893   0.635   5.751
  145SAPE    C315847   1.203   1.011   5.830
  145SAPE    HX15848   1.287   0.943   5.852
  145SAPE    HY15849   1.242   1.107   5.870
  145SAPE   O3115850   1.187   1.008   5.687
  145SAPE   C3115851   1.123   1.103   5.629
  145SAPE   O3215852   1.077   1.203   5.682
  145SAPE   C3215853   1.121   1.062   5.475
  145SAPE   H2X15854   1.040   0.988   5.462
  145SAPE   H2Y15855   1.218   1.020   5.439
  145SAPE   C2315856   0.789   0.732   5.593
  145SAPE   H3R15857   0.690   0.751   5.642
  145SAPE   H3S15858   0.787   0.638   5.535
  145SAPE   C2415859   0.806   0.841   5.484
  145SAPE   H4R15860   0.892   0.809   5.420
  145SAPE   H4S15861   0.835   0.934   5.536
  145SAPE   C2515862   0.681   0.880   5.400
  145SAPE   H5R15863   0.606   0.937   5.456
  145SAPE   C2615864   0.666   0.874   5.265
  145SAPE   H6R15865   0.582   0.916   5.207
  145SAPE   C2715866   0.767   0.805   5.172
  145SAPE   H7R15867   0.808   0.720   5.230
  145SAPE   H7S15868   0.860   0.865   5.163
  145SAPE   C2815869   0.713   0.749   5.043
  145SAPE   H8R15870   0.694   0.640   5.045
  145SAPE   C2915871   0.712   0.811   4.928
  145SAPE   H9R15872   0.691   0.751   4.838
  145SAPE  C21015873   0.725   0.964   4.903
  145SAPE  H10R15874   0.814   0.996   4.961
  145SAPE  H10S15875   0.643   1.026   4.944
  145SAPE  C21115876   0.736   1.000   4.758
  145SAPE  H11R15877   0.828   1.054   4.735
  145SAPE  C21215878   0.641   1.003   4.658
  145SAPE  H12R15879   0.684   1.025   4.559
  145SAPE  C21315880   0.502   0.953   4.670
  145SAPE  H13R15881   0.503   0.853   4.720
  145SAPE  H13S15882   0.456   0.945   4.569
  145SAPE  C21415883   0.420   1.043   4.763
  145SAPE  H14R15884   0.431   1.018   4.870
  145SAPE  C21515885   0.323   1.129   4.728
  145SAPE  H15R15886   0.281   1.189   4.809
  145SAPE  C21615887   0.293   1.189   4.585
  145SAPE  H16R15888   0.366   1.153   4.509
  145SAPE  H16S15889   0.314   1.298   4.592
  145SAPE  C21715890   0.146   1.167   4.541
  145SAPE  H17R15891   0.095   1.224   4.621
  145SAPE  H17S15892   0.116   1.061   4.550
  145SAPE  C21815893   0.109   1.227   4.407
  145SAPE  H18R15894   0.160   1.170   4.326
  145SAPE  H18S15895   0.150   1.329   4.387
  145SAPE  C21915896   6.849   1.230   4.376
  145SAPE  H19R15897   6.790   1.277   4.457
  145SAPE  H19S15898   6.805   1.129   4.359
  145SAPE  C22015899   6.805   1.311   4.255
  145SAPE  H20R15900   6.695   1.322   4.259
  145SAPE  H20S15901   6.841   1.249   4.170
  145SAPE  H20T15902   6.851   1.412   4.258
  145SAPE   C3315903   1.088   1.182   5.397
  145SAPE   H3X15904   1.161   1.261   5.422
  145SAPE   H3Y15905   0.988   1.225   5.423
  145SAPE   C3415906   1.080   1.144   5.248
  145SAPE   H4X15907   0.990   1.084   5.222
  145SAPE   H4Y15908   1.166   1.078   5.227
  145SAPE   C3515909   1.073   1.267   5.155
  145SAPE   H5X15910   1.160   1.332   5.177
  145SAPE   H5Y15911   0.980   1.328   5.154
  145SAPE   C3615912   1.087   1.224   5.006
  145SAPE   H6X15913   1.000   1.161   4.980
  145SAPE   H6Y15914   1.175   1.157   4.997
  145SAPE   C3715915   1.098   1.337   4.893
  145SAPE   H7X15916   1.198   1.385   4.904
  145SAPE   H7Y15917   1.031   1.417   4.928
  145SAPE   C3815918   1.062   1.286   4.747
  145SAPE   H8X15919   0.953   1.264   4.749
  145SAPE   H8Y15920   1.117   1.197   4.711
  145SAPE   C3915921   1.095   1.390   4.629
  145SAPE   H9X15922   1.058   1.491   4.656
  145SAPE   H9Y15923   1.040   1.373   4.534
  145SAPE  C31015924   1.241   1.402   4.585
  145SAPE  H10X15925   1.269   1.301   4.545
  145SAPE  H10Y15926   1.304   1.425   4.674
  145SAPE  C31115927   1.262   1.505   4.468
  145SAPE  H11X15928   1.228   1.600   4.514
  145SAPE  H11Y15929   1.210   1.480   4.373
  145SAPE  C31215930   1.408   1.545   4.457
  145SAPE  H12X15931   1.473   1.461   4.426
  145SAPE  H12Y15932   1.454   1.571   4.555
  145SAPE  C31315933   1.423   1.653   4.356
  145SAPE  H13X15934   1.530   1.681   4.341
  145SAPE  H13Y15935   1.375   1.742   4.401
  145SAPE  C31415936   1.361   1.630   4.218
  145SAPE  H14X15937   1.255   1.596   4.223
  145SAPE  H14Y15938   1.407   1.553   4.152
  145SAPE  C31515939   1.355   1.761   4.141
  145SAPE  H15X15940   1.458   1.800   4.126
  145SAPE  H15Y15941   1.310   1.842   4.204
  145SAPE  C31615942   1.285   1.758   4.003
  145SAPE  H16X15943   1.181   1.718   4.009
  145SAPE  H16Y15944   1.333   1.694   3.926
  145SAPE  C31715945   1.271   1.893   3.928
  145SAPE  H17X15946   1.372   1.926   3.895
  145SAPE  H17Y15947   1.228   1.968   3.998
  145SAPE  C31815948   1.196   1.888   3.790
  145SAPE  H18X15949   1.093   1.845   3.790
  145SAPE  H18Y15950   1.257   1.841   3.710
  145SAPE  H18Z15951   1.192   1.993   3.755
  146SAPE     N15952   3.589   6.773   6.170
  146SAPE   HN115953   3.582   6.876   6.183
  146SAPE   HN215954   3.503   6.720   6.194
  146SAPE   HN315955   3.669   6.735   6.225
  146SAPE   C1215956   3.615   6.774   6.015
  146SAPE  H12A15957   3.582   6.876   5.985
  146SAPE  H12B15958   3.547   6.696   5.975
  146SAPE   C1115959   3.766   6.752   5.979
  146SAPE  H11A15960   3.785   6.780   5.873
  146SAPE  H11B15961   3.790   6.647   6.009
  146SAPE     P15962   3.994   6.821   6.074
  146SAPE   O1315963   4.022   0.006   6.195
  146SAPE   O1415964   4.036   6.680   6.078
  146SAPE   O1215965   3.842   6.842   6.047
  146SAPE   O1115966   4.058   0.008   5.951
  146SAPE    C115967   4.110   6.826   5.837
  146SAPE    HA15968   4.216   6.794   5.851
  146SAPE    HB15969   4.052   6.732   5.824
  146SAPE    C215970   4.101   0.015   5.701
  146SAPE    HS15971   4.167   0.104   5.710
  146SAPE   O2115972   3.968   0.055   5.669
  146SAPE   C2115973   3.949   0.173   5.619
  146SAPE   O2215974   4.034   0.258   5.614
  146SAPE   C2215975   3.798   0.190   5.590
  146SAPE   H2R15976   3.757   0.091   5.563
  146SAPE   H2S15977   3.739   0.219   5.679
  146SAPE    C315978   4.163   6.825   5.570
  146SAPE    HX15979   4.111   6.727   5.558
  146SAPE    HY15980   4.269   6.802   5.592
  146SAPE   O3115981   4.148   0.021   5.443
  146SAPE   C3115982   4.249   0.101   5.425
  146SAPE   O3215983   4.348   0.116   5.504
  146SAPE   C3215984   4.215   0.195   5.311
  146SAPE   H2X15985   4.181   0.284   5.370
  146SAPE   H2Y15986   4.122   0.171   5.255
  146SAPE   C2315987   3.782   0.294   5.475
  146SAPE   H3R15988   3.870   0.299   5.407
  146SAPE   H3S15989   3.786   0.393   5.525
  146SAPE   C2415990   3.648   0.281   5.398
  146SAPE   H4R15991   3.577   0.257   5.480
  146SAPE   H4S15992   3.666   0.193   5.334
  146SAPE   C2515993   3.621   0.405   5.327
  146SAPE   H5R15994   3.544   0.473   5.367
  146SAPE   C2615995   3.672   0.442   5.204
  146SAPE   H6R15996   3.660   0.545   5.165
  146SAPE   C2715997   3.782   0.364   5.132
  146SAPE   H7R15998   3.807   0.268   5.182
  146SAPE   H7S15999   3.873   0.428   5.146
  146SAPE   C2816000   3.748   0.359   4.989
  146SAPE   H8R16001   3.693   0.447   4.953
  146SAPE   C2916002   3.766   0.255   4.906
  146SAPE   H9R16003   3.737   0.262   4.801
  146SAPE  C21016004   3.828   0.125   4.952
  146SAPE  H10R16005   3.817   0.052   4.868
  146SAPE  H10S16006   3.772   0.086   5.040
  146SAPE  C21116007   3.970   0.132   4.990
  146SAPE  H11R16008   4.003   0.230   5.027
  146SAPE  C21216009   4.062   0.037   4.974
  146SAPE  H12R16010   4.160   0.058   5.020
  146SAPE  C21316011   4.055   6.782   4.917
  146SAPE  H13R16012   3.960   6.746   4.961
  146SAPE  H13S16013   4.137   6.717   4.953
  146SAPE  C21416014   4.045   6.779   4.759
  146SAPE  H14R16015   4.040   6.873   4.703
  146SAPE  C21516016   4.045   6.665   4.689
  146SAPE  H15R16017   4.036   6.673   4.579
  146SAPE  C21616018   4.062   6.528   4.747
  146SAPE  H16R16019   3.965   6.474   4.747
  146SAPE  H16S16020   4.102   6.529   4.850
  146SAPE  C21716021   4.162   6.432   4.675
  146SAPE  H17R16022   4.251   6.495   4.652
  146SAPE  H17S16023   4.113   6.416   4.576
  146SAPE  C21816024   4.182   6.299   4.742
  146SAPE  H18R16025   4.220   6.233   4.661
  146SAPE  H18S16026   4.089   6.260   4.789
  146SAPE  C21916027   4.292   6.311   4.850
  146SAPE  H19R16028   4.247   6.381   4.925
  146SAPE  H19S16029   4.386   6.355   4.812
  146SAPE  C22016030   4.341   6.175   4.908
  146SAPE  H20R16031   4.258   6.127   4.964
  146SAPE  H20S16032   4.432   6.189   4.970
  146SAPE  H20T16033   4.372   6.114   4.821
  146SAPE   C3316034   4.342   0.244   5.235
  146SAPE   H3X16035   4.409   0.164   5.196
  146SAPE   H3Y16036   4.397   0.304   5.311
  146SAPE   C3416037   4.318   0.334   5.114
  146SAPE   H4X16038   4.280   0.269   5.033
  146SAPE   H4Y16039   4.414   0.364   5.066
  146SAPE   C3516040   4.232   0.454   5.148
  146SAPE   H5X16041   4.262   0.507   5.240
  146SAPE   H5Y16042   4.133   0.410   5.173
  146SAPE   C3616043   4.229   0.555   5.032
  146SAPE   H6X16044   4.324   0.573   4.975
  146SAPE   H6Y16045   4.205   0.658   5.066
  146SAPE   C3716046   4.116   0.540   4.936
  146SAPE   H7X16047   4.020   0.545   4.991
  146SAPE   H7Y16048   4.098   0.442   4.888
  146SAPE   C3816049   4.122   0.644   4.825
  146SAPE   H8X16050   4.200   0.608   4.755
  146SAPE   H8Y16051   4.133   0.751   4.854
  146SAPE   C3916052   3.986   0.664   4.754
  146SAPE   H9X16053   3.970   0.758   4.696
  146SAPE   H9Y16054   3.908   0.679   4.833
  146SAPE  C31016055   3.945   0.550   4.670
  146SAPE  H10X16056   3.942   0.459   4.735
  146SAPE  H10Y16057   4.027   0.533   4.598
  146SAPE  C31116058   3.819   0.580   4.585
  146SAPE  H11X16059   3.820   0.514   4.495
  146SAPE  H11Y16060   3.823   0.683   4.543
  146SAPE  C31216061   3.683   0.571   4.662
  146SAPE  H12X16062   3.673   0.663   4.724
  146SAPE  H12Y16063   3.697   0.483   4.729
  146SAPE  C31316064   3.562   0.547   4.571
  146SAPE  H13X16065   3.585   0.453   4.516
  146SAPE  H13Y16066   3.550   0.632   4.500
  146SAPE  C31416067   3.429   0.538   4.658
  146SAPE  H14X16068   3.421   0.633   4.714
  146SAPE  H14Y16069   3.425   0.452   4.728
  146SAPE  C31516070   3.292   0.531   4.582
  146SAPE  H15X16071   3.299   0.584   4.485
  146SAPE  H15Y16072   3.206   0.575   4.637
  146SAPE  C31616073   3.243   0.391   4.556
  146SAPE  H16X16074   3.226   0.342   4.655
  146SAPE  H16Y16075   3.333   0.340   4.515
  146SAPE  C31716076   3.126   0.368   4.458
  146SAPE  H17X16077   3.077   0.272   4.481
  146SAPE  H17Y16078   3.173   0.364   4.357
  146SAPE  C31816079   3.018   0.480   4.450
  146SAPE  H18X16080   2.954   0.475   4.541
  146SAPE  H18Y16081   2.960   0.452   4.360
  146SAPE  H18Z16082   3.063   0.581   4.435
  147SAPE     N16083   4.620   5.067   6.520
  147SAPE   HN116084   4.618   4.964   6.508
  147SAPE   HN216085   4.668   5.114   6.441
  147SAPE   HN316086   4.670   5.084   6.610
  147SAPE   C1216087   4.476   5.114   6.538
  147SAPE  H12A16088   4.436   5.074   6.634
  147SAPE  H12B16089   4.415   5.069   6.457
  147SAPE   C1116090   4.469   5.267   6.532
  147SAPE  H11A16091   4.361   5.289   6.548
  147SAPE  H11B16092   4.498   5.297   6.429
  147SAPE     P16093   4.642   5.439   6.606
  147SAPE   O1316094   4.563   5.541   6.540
  147SAPE   O1416095   4.704   5.489   6.732
  147SAPE   O1216096   4.539   5.328   6.637
  147SAPE   O1116097   4.748   5.366   6.511
  147SAPE    C116098   4.889   5.390   6.526
  147SAPE    HA16099   4.909   5.482   6.586
  147SAPE    HB16100   4.920   5.310   6.596
  147SAPE    C216101   4.975   5.399   6.394
  147SAPE    HS16102   5.077   5.370   6.426
  147SAPE   O2116103   4.975   5.530   6.338
  147SAPE   C2116104   5.042   5.545   6.229
  147SAPE   O2216105   5.139   5.475   6.191
  147SAPE   C2216106   4.980   5.657   6.146
  147SAPE   H2R16107   4.875   5.630   6.121
  147SAPE   H2S16108   4.967   5.748   6.208
  147SAPE    C316109   4.936   5.277   6.296
  147SAPE    HX16110   4.910   5.192   6.363
  147SAPE    HY16111   5.029   5.240   6.250
  147SAPE   O3116112   4.836   5.313   6.198
  147SAPE   C3116113   4.720   5.254   6.209
  147SAPE   O3216114   4.701   5.153   6.277
  147SAPE   C3216115   4.615   5.328   6.127
  147SAPE   H2X16116   4.627   5.433   6.161
  147SAPE   H2Y16117   4.515   5.292   6.158
  147SAPE   C2316118   5.049   5.692   6.014
  147SAPE   H3R16119   5.155   5.694   6.047
  147SAPE   H3S16120   5.010   5.792   5.985
  147SAPE   C2416121   5.031   5.580   5.905
  147SAPE   H4R16122   5.032   5.475   5.944
  147SAPE   H4S16123   5.114   5.592   5.832
  147SAPE   C2516124   4.895   5.588   5.827
  147SAPE   H5R16125   4.808   5.580   5.894
  147SAPE   C2616126   4.874   5.613   5.699
  147SAPE   H6R16127   4.776   5.600   5.652
  147SAPE   C2716128   4.981   5.636   5.598
  147SAPE   H7R16129   5.002   5.543   5.542
  147SAPE   H7S16130   5.078   5.653   5.649
  147SAPE   C2816131   4.950   5.755   5.512
  147SAPE   H8R16132   4.925   5.848   5.563
  147SAPE   C2916133   4.936   5.757   5.381
  147SAPE   H9R16134   4.933   5.859   5.340
  147SAPE  C21016135   4.944   5.647   5.276
  147SAPE  H10R16136   4.941   5.550   5.330
  147SAPE  H10S16137   5.045   5.658   5.232
  147SAPE  C21116138   4.837   5.670   5.168
  147SAPE  H11R16139   4.757   5.744   5.185
  147SAPE  C21216140   4.826   5.598   5.059
  147SAPE  H12R16141   4.760   5.633   4.978
  147SAPE  C21316142   4.918   5.482   5.035
  147SAPE  H13R16143   4.929   5.427   5.131
  147SAPE  H13S16144   5.018   5.509   4.996
  147SAPE  C21416145   4.863   5.392   4.931
  147SAPE  H14R16146   4.757   5.408   4.907
  147SAPE  C21516147   4.920   5.296   4.870
  147SAPE  H15R16148   4.873   5.237   4.790
  147SAPE  C21616149   5.070   5.274   4.869
  147SAPE  H16R16150   5.101   5.167   4.868
  147SAPE  H16S16151   5.118   5.334   4.948
  147SAPE  C21716152   5.121   5.326   4.736
  147SAPE  H17R16153   5.230   5.305   4.727
  147SAPE  H17S16154   5.109   5.436   4.737
  147SAPE  C21816155   5.054   5.268   4.607
  147SAPE  H18R16156   4.962   5.326   4.583
  147SAPE  H18S16157   5.028   5.161   4.623
  147SAPE  C21916158   5.131   5.279   4.473
  147SAPE  H19R16159   5.054   5.253   4.397
  147SAPE  H19S16160   5.196   5.190   4.467
  147SAPE  C22016161   5.205   5.407   4.446
  147SAPE  H20R16162   5.177   5.490   4.514
  147SAPE  H20S16163   5.204   5.438   4.339
  147SAPE  H20T16164   5.311   5.388   4.473
  147SAPE   C3316165   4.631   5.316   5.974
  147SAPE   H3X16166   4.628   5.208   5.950
  147SAPE   H3Y16167   4.731   5.351   5.942
  147SAPE   C3416168   4.512   5.375   5.901
  147SAPE   H4X16169   4.510   5.485   5.894
  147SAPE   H4Y16170   4.415   5.345   5.946
  147SAPE   C3516171   4.497   5.326   5.757
  147SAPE   H5X16172   4.398   5.363   5.722
  147SAPE   H5Y16173   4.489   5.216   5.762
  147SAPE   C3616174   4.613   5.359   5.661
  147SAPE   H6X16175   4.714   5.329   5.694
  147SAPE   H6Y16176   4.609   5.469   5.648
  147SAPE   C3716177   4.577   5.312   5.517
  147SAPE   H7X16178   4.470   5.328   5.493
  147SAPE   H7Y16179   4.603   5.204   5.524
  147SAPE   C3816180   4.671   5.359   5.395
  147SAPE   H8X16181   4.776   5.348   5.430
  147SAPE   H8Y16182   4.663   5.468   5.376
  147SAPE   C3916183   4.646   5.280   5.271
  147SAPE   H9X16184   4.625   5.173   5.292
  147SAPE   H9Y16185   4.741   5.285   5.212
  147SAPE  C31016186   4.522   5.318   5.187
  147SAPE  H10X16187   4.547   5.425   5.176
  147SAPE  H10Y16188   4.439   5.295   5.257
  147SAPE  C31116189   4.511   5.243   5.060
  147SAPE  H11X16190   4.490   5.134   5.067
  147SAPE  H11Y16191   4.616   5.239   5.025
  147SAPE  C31216192   4.435   5.324   4.945
  147SAPE  H12X16193   4.452   5.433   4.958
  147SAPE  H12Y16194   4.326   5.301   4.948
  147SAPE  C31316195   4.498   5.280   4.819
  147SAPE  H13X16196   4.501   5.170   4.804
  147SAPE  H13Y16197   4.608   5.296   4.815
  147SAPE  C31416198   4.441   5.346   4.698
  147SAPE  H14X16199   4.435   5.455   4.718
  147SAPE  H14Y16200   4.341   5.300   4.681
  147SAPE  C31516201   4.529   5.313   4.574
  147SAPE  H15X16202   4.535   5.203   4.556
  147SAPE  H15Y16203   4.633   5.349   4.579
  147SAPE  C31616204   4.467   5.380   4.452
  147SAPE  H16X16205   4.500   5.486   4.450
  147SAPE  H16Y16206   4.357   5.386   4.466
  147SAPE  C31716207   4.506   5.313   4.319
  147SAPE  H17X16208   4.463   5.361   4.228
  147SAPE  H17Y16209   4.473   5.208   4.325
  147SAPE  C31816210   4.659   5.302   4.302
  147SAPE  H18X16211   4.714   5.248   4.382
  147SAPE  H18Y16212   4.697   5.406   4.297
  147SAPE  H18Z16213   4.681   5.249   4.206
  148SAPE     N16214   1.773   0.612   6.226
  148SAPE   HN116215   1.780   0.536   6.296
  148SAPE   HN216216   1.838   0.589   6.148
  148SAPE   HN316217   1.825   0.695   6.261
  148SAPE   C1216218   1.632   0.651   6.188
  148SAPE  H12A16219   1.642   0.716   6.098
  148SAPE  H12B16220   1.583   0.696   6.276
  148SAPE   C1116221   1.548   0.524   6.153
  148SAPE  H11A16222   1.587   0.474   6.063
  148SAPE  H11B16223   1.446   0.566   6.136
  148SAPE     P16224   1.579   0.288   6.267
  148SAPE   O1316225   1.728   0.285   6.259
  148SAPE   O1416226   1.514   0.217   6.380
  148SAPE   O1216227   1.530   0.438   6.264
  148SAPE   O1116228   1.508   0.227   6.139
  148SAPE    C116229   1.586   0.182   6.025
  148SAPE    HA16230   1.517   0.168   5.939
  148SAPE    HB16231   1.650   0.266   5.993
  148SAPE    C216232   1.662   0.045   6.041
  148SAPE    HS16233   1.723   0.054   6.133
  148SAPE   O2116234   1.719   0.021   5.912
  148SAPE   C2116235   1.813   6.810   5.920
  148SAPE   O2216236   1.857   6.762   6.022
  148SAPE   C2216237   1.867   6.769   5.779
  148SAPE   H2R16238   1.968   6.725   5.791
  148SAPE   H2S16239   1.797   6.691   5.741
  148SAPE    C316240   1.563   6.817   6.083
  148SAPE    HX16241   1.508   6.857   6.171
  148SAPE    HY16242   1.613   6.729   6.129
  148SAPE   O3116243   1.473   6.781   5.983
  148SAPE   C3116244   1.502   6.685   5.892
  148SAPE   O3216245   1.600   6.613   5.897
  148SAPE   C3216246   1.377   6.665   5.801
  148SAPE   H2X16247   1.297   6.734   5.837
  148SAPE   H2Y16248   1.355   6.559   5.824
  148SAPE   C2316249   1.885   0.006   5.687
  148SAPE   H3R16250   1.940   0.091   5.733
  148SAPE   H3S16251   1.785   0.047   5.662
  148SAPE   C2416252   1.967   6.872   5.557
  148SAPE   H4R16253   2.065   6.841   5.599
  148SAPE   H4S16254   1.987   0.086   5.515
  148SAPE   C2516255   1.923   6.770   5.458
  148SAPE   H5R16256   1.993   6.686   5.452
  148SAPE   C2616257   1.826   6.789   5.363
  148SAPE   H6R16258   1.833   6.720   5.277
  148SAPE   C2716259   1.742   0.027   5.334
  148SAPE   H7R16260   1.764   0.056   5.229
  148SAPE   H7S16261   1.777   0.111   5.398
  148SAPE   C2816262   1.595   0.013   5.343
  148SAPE   H8R16263   1.563   6.811   5.400
  148SAPE   C2916264   1.502   0.096   5.296
  148SAPE   H9R16265   1.397   0.067   5.315
  148SAPE  C21016266   1.529   0.229   5.226
  148SAPE  H10R16267   1.538   0.209   5.117
  148SAPE  H10S16268   1.617   0.272   5.278
  148SAPE  C21116269   1.408   0.316   5.255
  148SAPE  H11R16270   1.422   0.363   5.354
  148SAPE  C21216271   1.306   0.338   5.171
  148SAPE  H12R16272   1.244   0.419   5.213
  148SAPE  C21316273   1.279   0.277   5.038
  148SAPE  H13R16274   1.170   0.273   5.015
  148SAPE  H13S16275   1.321   0.175   5.043
  148SAPE  C21416276   1.360   0.353   4.932
  148SAPE  H14R16277   1.462   0.380   4.963
  148SAPE  C21516278   1.308   0.384   4.811
  148SAPE  H15R16279   1.383   0.417   4.738
  148SAPE  C21616280   1.176   0.350   4.753
  148SAPE  H16R16281   1.100   0.420   4.793
  148SAPE  H16S16282   1.154   0.244   4.777
  148SAPE  C21716283   1.177   0.364   4.595
  148SAPE  H17R16284   1.073   0.336   4.566
  148SAPE  H17S16285   1.249   0.293   4.550
  148SAPE  C21816286   1.187   0.504   4.532
  148SAPE  H18R16287   1.281   0.543   4.576
  148SAPE  H18S16288   1.099   0.564   4.561
  148SAPE  C21916289   1.185   0.500   4.378
  148SAPE  H19R16290   1.109   0.422   4.353
  148SAPE  H19S16291   1.285   0.465   4.346
  148SAPE  C22016292   1.164   0.633   4.308
  148SAPE  H20R16293   1.077   0.691   4.345
  148SAPE  H20S16294   1.166   0.639   4.197
  148SAPE  H20T16295   1.255   0.690   4.336
  148SAPE   C3316296   1.422   6.663   5.651
  148SAPE   H3X16297   1.512   6.724   5.628
  148SAPE   H3Y16298   1.342   6.699   5.583
  148SAPE   C3416299   1.456   6.514   5.616
  148SAPE   H4X16300   1.358   6.464   5.632
  148SAPE   H4Y16301   1.530   6.465   5.683
  148SAPE   C3516302   1.498   6.492   5.474
  148SAPE   H5X16303   1.547   6.392   5.474
  148SAPE   H5Y16304   1.573   6.569   5.447
  148SAPE   C3616305   1.381   6.506   5.375
  148SAPE   H6X16306   1.344   6.611   5.368
  148SAPE   H6Y16307   1.295   6.445   5.409
  148SAPE   C3716308   1.403   6.453   5.227
  148SAPE   H7X16309   1.462   6.527   5.168
  148SAPE   H7Y16310   1.305   6.464   5.177
  148SAPE   C3816311   1.470   6.310   5.215
  148SAPE   H8X16312   1.409   6.255   5.288
  148SAPE   H8Y16313   1.580   6.304   5.230
  148SAPE   C3916314   1.430   6.254   5.075
  148SAPE   H9X16315   1.322   6.275   5.060
  148SAPE   H9Y16316   1.454   6.145   5.079
  148SAPE  C31016317   1.508   6.330   4.962
  148SAPE  H10X16318   1.617   6.319   4.981
  148SAPE  H10Y16319   1.482   6.438   4.954
  148SAPE  C31116320   1.496   6.260   4.829
  148SAPE  H11X16321   1.390   6.229   4.818
  148SAPE  H11Y16322   1.563   6.174   4.809
  148SAPE  C31216323   1.522   6.366   4.718
  148SAPE  H12X16324   1.630   6.380   4.698
  148SAPE  H12Y16325   1.484   6.468   4.739
  148SAPE  C31316326   1.470   6.305   4.588
  148SAPE  H13X16327   1.361   6.300   4.607
  148SAPE  H13Y16328   1.497   6.199   4.567
  148SAPE  C31416329   1.505   6.387   4.463
  148SAPE  H14X16330   1.615   6.383   4.447
  148SAPE  H14Y16331   1.474   6.489   4.493
  148SAPE  C31516332   1.418   6.348   4.338
  148SAPE  H15X16333   1.312   6.345   4.373
  148SAPE  H15Y16334   1.442   6.247   4.298
  148SAPE  C31616335   1.431   6.449   4.218
  148SAPE  H16X16336   1.535   6.452   4.179
  148SAPE  H16Y16337   1.417   6.550   4.261
  148SAPE  C31716338   1.319   6.426   4.124
  148SAPE  H17X16339   1.219   6.424   4.172
  148SAPE  H17Y16340   1.350   6.333   4.072
  148SAPE  C31816341   1.315   6.540   4.022
  148SAPE  H18X16342   1.406   6.536   3.959
  148SAPE  H18Y16343   1.328   6.639   4.071
  148SAPE  H18Z16344   1.229   6.546   3.951
  149SAPE     N16345   1.224   2.309   6.632
  149SAPE   HN116346   1.175   2.246   6.699
  149SAPE   HN216347   1.166   2.396   6.631
  149SAPE   HN316348   1.224   2.263   6.539
  149SAPE   C1216349   1.356   2.342   6.695
  149SAPE  H12A16350   1.370   2.271   6.780
  149SAPE  H12B16351   1.349   2.438   6.749
  149SAPE   C1116352   1.473   2.329   6.602
  149SAPE  H11A16353   1.551   2.390   6.653
  149SAPE  H11B16354   1.452   2.379   6.505
  149SAPE     P16355   1.469   2.103   6.474
  149SAPE   O1316356   1.530   1.974   6.511
  149SAPE   O1416357   1.320   2.112   6.470
  149SAPE   O1216358   1.522   2.197   6.589
  149SAPE   O1116359   1.542   2.160   6.337
  149SAPE    C116360   1.645   2.074   6.280
  149SAPE    HA16361   1.724   2.135   6.232
  149SAPE    HB16362   1.692   2.007   6.356
  149SAPE    C216363   1.588   1.981   6.166
  149SAPE    HS16364   1.514   1.915   6.215
  149SAPE   O2116365   1.695   1.902   6.104
  149SAPE   C2116366   1.750   1.801   6.175
  149SAPE   O2216367   1.713   1.769   6.286
  149SAPE   C2216368   1.863   1.737   6.106
  149SAPE   H2R16369   1.887   1.788   6.011
  149SAPE   H2S16370   1.944   1.742   6.182
  149SAPE    C316371   1.519   2.052   6.054
  149SAPE    HX16372   1.597   2.121   6.016
  149SAPE    HY16373   1.423   2.098   6.086
  149SAPE   O3116374   1.486   1.957   5.946
  149SAPE   C3116375   1.432   2.019   5.837
  149SAPE   O3216376   1.405   2.136   5.828
  149SAPE   C3216377   1.428   1.912   5.728
  149SAPE   H2X16378   1.340   1.845   5.738
  149SAPE   H2Y16379   1.517   1.846   5.741
  149SAPE   C2316380   1.825   1.596   6.063
  149SAPE   H3R16381   1.791   1.546   6.156
  149SAPE   H3S16382   1.907   1.536   6.018
  149SAPE   C2416383   1.706   1.593   5.965
  149SAPE   H4R16384   1.614   1.617   6.023
  149SAPE   H4S16385   1.686   1.486   5.939
  149SAPE   C2516386   1.711   1.683   5.844
  149SAPE   H5R16387   1.695   1.789   5.867
  149SAPE   C2616388   1.750   1.663   5.721
  149SAPE   H6R16389   1.754   1.750   5.653
  149SAPE   C2716390   1.802   1.533   5.675
  149SAPE   H7R16391   1.726   1.491   5.605
  149SAPE   H7S16392   1.798   1.453   5.751
  149SAPE   C2816393   1.941   1.565   5.623
  149SAPE   H8R16394   2.008   1.610   5.698
  149SAPE   C2916395   1.992   1.537   5.502
  149SAPE   H9R16396   2.096   1.556   5.473
  149SAPE  C21016397   1.911   1.477   5.388
  149SAPE  H10R16398   1.896   1.563   5.320
  149SAPE  H10S16399   1.808   1.438   5.405
  149SAPE  C21116400   1.988   1.369   5.315
  149SAPE  H11R16401   2.032   1.293   5.381
  149SAPE  C21216402   1.991   1.354   5.182
  149SAPE  H12R16403   2.019   1.250   5.158
  149SAPE  C21316404   1.940   1.446   5.068
  149SAPE  H13R16405   1.862   1.514   5.108
  149SAPE  H13S16406   1.890   1.393   4.984
  149SAPE  C21416407   2.048   1.528   5.010
  149SAPE  H14R16408   2.096   1.595   5.083
  149SAPE  C21516409   2.103   1.520   4.881
  149SAPE  H15R16410   2.189   1.587   4.863
  149SAPE  C21616411   2.065   1.453   4.758
  149SAPE  H16R16412   1.969   1.398   4.773
  149SAPE  H16S16413   2.136   1.372   4.730
  149SAPE  C21716414   2.040   1.557   4.650
  149SAPE  H17R16415   2.136   1.606   4.621
  149SAPE  H17S16416   1.968   1.628   4.696
  149SAPE  C21816417   1.963   1.498   4.528
  149SAPE  H18R16418   1.869   1.453   4.565
  149SAPE  H18S16419   2.032   1.418   4.495
  149SAPE  C21916420   1.937   1.595   4.413
  149SAPE  H19R16421   2.036   1.619   4.368
  149SAPE  H19S16422   1.894   1.686   4.460
  149SAPE  C22016423   1.833   1.541   4.312
  149SAPE  H20R16424   1.843   1.586   4.210
  149SAPE  H20S16425   1.731   1.549   4.355
  149SAPE  H20T16426   1.860   1.436   4.288
  149SAPE   C3316427   1.406   1.960   5.578
  149SAPE   H3X16428   1.316   2.025   5.572
  149SAPE   H3Y16429   1.375   1.871   5.520
  149SAPE   C3416430   1.532   2.003   5.513
  149SAPE   H4X16431   1.617   1.932   5.511
  149SAPE   H4Y16432   1.567   2.096   5.562
  149SAPE   C3516433   1.498   2.037   5.359
  149SAPE   H5X16434   1.554   2.129   5.331
  149SAPE   H5Y16435   1.393   2.068   5.342
  149SAPE   C3616436   1.529   1.915   5.266
  149SAPE   H6X16437   1.474   1.819   5.274
  149SAPE   H6Y16438   1.634   1.884   5.288
  149SAPE   C3716439   1.526   1.955   5.117
  149SAPE   H7X16440   1.595   2.040   5.099
  149SAPE   H7Y16441   1.422   1.982   5.089
  149SAPE   C3816442   1.566   1.842   5.020
  149SAPE   H8X16443   1.504   1.750   5.028
  149SAPE   H8Y16444   1.672   1.811   5.037
  149SAPE   C3916445   1.560   1.881   4.860
  149SAPE   H9X16446   1.596   1.985   4.846
  149SAPE   H9Y16447   1.454   1.879   4.828
  149SAPE  C31016448   1.647   1.789   4.776
  149SAPE  H10X16449   1.629   1.683   4.801
  149SAPE  H10Y16450   1.756   1.799   4.796
  149SAPE  C31116451   1.632   1.814   4.621
  149SAPE  H11X16452   1.525   1.792   4.599
  149SAPE  H11Y16453   1.697   1.734   4.579
  149SAPE  C31216454   1.683   1.946   4.564
  149SAPE  H12X16455   1.786   1.963   4.600
  149SAPE  H12Y16456   1.613   2.025   4.599
  149SAPE  C31316457   1.681   1.958   4.413
  149SAPE  H13X16458   1.595   1.899   4.376
  149SAPE  H13Y16459   1.770   1.902   4.376
  149SAPE  C31416460   1.673   2.102   4.357
  149SAPE  H14X16461   1.705   2.084   4.252
  149SAPE  H14Y16462   1.736   2.176   4.411
  149SAPE  C31516463   1.520   2.149   4.357
  149SAPE  H15X16464   1.496   2.165   4.464
  149SAPE  H15Y16465   1.458   2.062   4.324
  149SAPE  C31616466   1.490   2.276   4.272
  149SAPE  H16X16467   1.379   2.279   4.270
  149SAPE  H16Y16468   1.520   2.277   4.165
  149SAPE  C31716469   1.536   2.409   4.335
  149SAPE  H17X16470   1.646   2.400   4.347
  149SAPE  H17Y16471   1.487   2.415   4.434
  149SAPE  C31816472   1.507   2.537   4.245
  149SAPE  H18X16473   1.568   2.516   4.154
  149SAPE  H18Y16474   1.556   2.627   4.287
  149SAPE  H18Z16475   1.402   2.563   4.220
  150SAPE     N16476   4.522   2.589   6.444
  150SAPE   HN116477   4.431   2.564   6.488
  150SAPE   HN216478   4.589   2.634   6.510
  150SAPE   HN316479   4.493   2.662   6.375
  150SAPE   C1216480   4.584   2.477   6.371
  150SAPE  H12A16481   4.683   2.499   6.326
  150SAPE  H12B16482   4.516   2.461   6.284
  150SAPE   C1116483   4.591   2.345   6.461
  150SAPE  H11A16484   4.607   2.250   6.407
  150SAPE  H11B16485   4.496   2.329   6.516
  150SAPE     P16486   4.841   2.330   6.541
  150SAPE   O1316487   4.902   2.432   6.627
  150SAPE   O1416488   4.868   2.189   6.572
  150SAPE   O1216489   4.690   2.356   6.561
  150SAPE   O1116490   4.859   2.353   6.384
  150SAPE    C116491   4.853   2.242   6.288
  150SAPE    HA16492   4.812   2.146   6.326
  150SAPE    HB16493   4.791   2.283   6.206
  150SAPE    C216494   4.994   2.199   6.250
  150SAPE    HS16495   5.038   2.160   6.344
  150SAPE   O2116496   5.075   2.309   6.202
  150SAPE   C2116497   5.202   2.289   6.232
  150SAPE   O2216498   5.252   2.192   6.292
  150SAPE   C2216499   5.286   2.411   6.177
  150SAPE   H2R16500   5.241   2.506   6.213
  150SAPE   H2S16501   5.383   2.392   6.227
  150SAPE    C316502   4.994   2.083   6.148
  150SAPE    HX16503   4.935   1.995   6.182
  150SAPE    HY16504   5.094   2.051   6.110
  150SAPE   O3116505   4.916   2.122   6.034
  150SAPE   C3116506   4.971   2.128   5.911
  150SAPE   O3216507   5.087   2.108   5.886
  150SAPE   C3216508   4.869   2.156   5.798
  150SAPE   H2X16509   4.785   2.213   5.843
  150SAPE   H2Y16510   4.835   2.058   5.758
  150SAPE   C2316511   5.298   2.420   6.025
  150SAPE   H3R16512   5.273   2.325   5.973
  150SAPE   H3S16513   5.401   2.452   6.000
  150SAPE   C2416514   5.205   2.534   5.960
  150SAPE   H4R16515   5.105   2.520   6.008
  150SAPE   H4S16516   5.191   2.507   5.853
  150SAPE   C2516517   5.249   2.680   5.966
  150SAPE   H5R16518   5.234   2.736   6.059
  150SAPE   C2616519   5.306   2.747   5.863
  150SAPE   H6R16520   5.348   2.844   5.892
  150SAPE   C2716521   5.347   2.703   5.723
  150SAPE   H7R16522   5.339   2.786   5.649
  150SAPE   H7S16523   5.263   2.636   5.694
  150SAPE   C2816524   5.477   2.631   5.707
  150SAPE   H8R16525   5.544   2.625   5.794
  150SAPE   C2916526   5.521   2.586   5.594
  150SAPE   H9R16527   5.610   2.521   5.602
  150SAPE  C21016528   5.438   2.589   5.472
  150SAPE  H10R16529   5.501   2.606   5.382
  150SAPE  H10S16530   5.363   2.671   5.468
  150SAPE  C21116531   5.358   2.463   5.449
  150SAPE  H11R16532   5.291   2.435   5.531
  150SAPE  C21216533   5.368   2.379   5.345
  150SAPE  H12R16534   5.306   2.289   5.361
  150SAPE  C21316535   5.461   2.388   5.224
  150SAPE  H13R16536   5.554   2.329   5.234
  150SAPE  H13S16537   5.492   2.494   5.206
  150SAPE  C21416538   5.388   2.352   5.108
  150SAPE  H14R16539   5.280   2.331   5.115
  150SAPE  C21516540   5.448   2.326   4.993
  150SAPE  H15R16541   5.387   2.290   4.909
  150SAPE  C21616542   5.595   2.345   4.957
  150SAPE  H16R16543   5.665   2.260   4.968
  150SAPE  H16S16544   5.618   2.440   5.009
  150SAPE  C21716545   5.610   2.384   4.805
  150SAPE  H17R16546   5.701   2.447   4.802
  150SAPE  H17S16547   5.530   2.456   4.777
  150SAPE  C21816548   5.630   2.266   4.711
  150SAPE  H18R16549   5.549   2.190   4.716
  150SAPE  H18S16550   5.724   2.224   4.753
  150SAPE  C21916551   5.642   2.308   4.569
  150SAPE  H19R16552   5.737   2.366   4.575
  150SAPE  H19S16553   5.552   2.363   4.534
  150SAPE  C22016554   5.657   2.201   4.460
  150SAPE  H20R16555   5.760   2.163   4.476
  150SAPE  H20S16556   5.640   2.246   4.360
  150SAPE  H20T16557   5.586   2.116   4.467
  150SAPE   C3316558   4.935   2.218   5.675
  150SAPE   H3X16559   5.021   2.153   5.649
  150SAPE   H3Y16560   4.983   2.316   5.696
  150SAPE   C3416561   4.838   2.260   5.564
  150SAPE   H4X16562   4.888   2.324   5.488
  150SAPE   H4Y16563   4.754   2.323   5.602
  150SAPE   C3516564   4.760   2.142   5.502
  150SAPE   H5X16565   4.678   2.177   5.435
  150SAPE   H5Y16566   4.716   2.082   5.584
  150SAPE   C3616567   4.842   2.041   5.415
  150SAPE   H6X16568   4.777   1.965   5.367
  150SAPE   H6Y16569   4.916   1.988   5.479
  150SAPE   C3716570   4.920   2.100   5.298
  150SAPE   H7X16571   5.008   2.162   5.326
  150SAPE   H7Y16572   4.864   2.186   5.253
  150SAPE   C3816573   4.964   2.001   5.194
  150SAPE   H8X16574   4.888   1.993   5.114
  150SAPE   H8Y16575   4.975   1.897   5.233
  150SAPE   C3916576   5.101   2.028   5.132
  150SAPE   H9X16577   5.170   2.046   5.217
  150SAPE   H9Y16578   5.088   2.118   5.068
  150SAPE  C31016579   5.145   1.913   5.042
  150SAPE  H10X16580   5.173   1.823   5.102
  150SAPE  H10Y16581   5.237   1.951   4.992
  150SAPE  C31116582   5.059   1.867   4.932
  150SAPE  H11X16583   5.041   1.950   4.861
  150SAPE  H11Y16584   4.962   1.821   4.962
  150SAPE  C31216585   5.128   1.753   4.863
  150SAPE  H12X16586   5.060   1.724   4.780
  150SAPE  H12Y16587   5.146   1.668   4.932
  150SAPE  C31316588   5.269   1.760   4.800
  150SAPE  H13X16589   5.345   1.793   4.873
  150SAPE  H13Y16590   5.284   1.836   4.721
  150SAPE  C31416591   5.308   1.629   4.734
  150SAPE  H14X16592   5.288   1.538   4.796
  150SAPE  H14Y16593   5.413   1.646   4.702
  150SAPE  C31516594   5.239   1.598   4.592
  150SAPE  H15X16595   5.201   1.684   4.534
  150SAPE  H15Y16596   5.148   1.537   4.615
  150SAPE  C31616597   5.317   1.508   4.499
  150SAPE  H16X16598   5.327   1.413   4.556
  150SAPE  H16Y16599   5.423   1.542   4.492
  150SAPE  C31716600   5.251   1.505   4.356
  150SAPE  H17X16601   5.325   1.454   4.291
  150SAPE  H17Y16602   5.254   1.607   4.312
  150SAPE  C31816603   5.111   1.437   4.339
  150SAPE  H18X16604   5.035   1.459   4.418
  150SAPE  H18Y16605   5.127   1.328   4.348
  150SAPE  H18Z16606   5.076   1.461   4.237
  151SAPE     N16607   4.153   6.533   6.281
  151SAPE   HN116608   4.064   6.505   6.327
  151SAPE   HN216609   4.205   6.563   6.366
  151SAPE   HN316610   4.137   6.602   6.204
  151SAPE   C1216611   4.224   6.418   6.219
  151SAPE  H12A16612   4.151   6.353   6.165
  151SAPE  H12B16613   4.268   6.368   6.308
  151SAPE   C1116614   4.350   6.453   6.139
  151SAPE  H11A16615   4.300   6.516   6.062
  151SAPE  H11B16616   4.390   6.366   6.084
  151SAPE     P16617   4.574   6.571   6.156
  151SAPE   O1316618   4.565   6.713   6.129
  151SAPE   O1416619   4.690   6.535   6.239
  151SAPE   O1216620   4.446   6.519   6.216
  151SAPE   O1116621   4.591   6.499   6.016
  151SAPE    C116622   4.671   6.377   5.997
  151SAPE    HA16623   4.768   6.368   6.050
  151SAPE    HB16624   4.609   6.293   6.036
  151SAPE    C216625   4.692   6.359   5.842
  151SAPE    HS16626   4.756   6.270   5.825
  151SAPE   O2116627   4.767   6.479   5.792
  151SAPE   C2116628   4.888   6.493   5.836
  151SAPE   O2216629   4.948   6.411   5.903
  151SAPE   C2216630   4.936   6.632   5.795
  151SAPE   H2R16631   4.975   6.628   5.691
  151SAPE   H2S16632   4.857   6.708   5.810
  151SAPE    C316633   4.551   6.334   5.774
  151SAPE    HX16634   4.505   6.435   5.781
  151SAPE    HY16635   4.483   6.261   5.822
  151SAPE   O3116636   4.571   6.308   5.636
  151SAPE   C3116637   4.468   6.333   5.560
  151SAPE   O3216638   4.351   6.364   5.596
  151SAPE   C3216639   4.507   6.313   5.418
  151SAPE   H2X16640   4.579   6.229   5.422
  151SAPE   H2Y16641   4.559   6.409   5.397
  151SAPE   C2316642   5.058   6.675   5.887
  151SAPE   H3R16643   5.157   6.630   5.865
  151SAPE   H3S16644   5.035   6.620   5.981
  151SAPE   C2416645   5.082   6.825   5.891
  151SAPE   H4R16646   5.155   6.841   5.972
  151SAPE   H4S16647   4.993   6.872   5.937
  151SAPE   C2516648   5.123   6.883   5.754
  151SAPE   H5R16649   5.221   6.843   5.722
  151SAPE   C2616650   5.063   0.083   5.675
  151SAPE   H6R16651   5.110   0.111   5.580
  151SAPE   C2716652   4.929   0.154   5.699
  151SAPE   H7R16653   4.942   0.261   5.673
  151SAPE   H7S16654   4.901   0.154   5.807
  151SAPE   C2816655   4.820   0.091   5.618
  151SAPE   H8R16656   4.757   0.016   5.669
  151SAPE   C2916657   4.794   0.120   5.488
  151SAPE   H9R16658   4.705   0.074   5.442
  151SAPE  C21016659   4.859   0.223   5.397
  151SAPE  H10R16660   4.911   0.303   5.455
  151SAPE  H10S16661   4.782   0.281   5.343
  151SAPE  C21116662   4.963   0.154   5.312
  151SAPE  H11R16663   4.929   0.059   5.271
  151SAPE  C21216664   5.082   0.206   5.278
  151SAPE  H12R16665   5.141   0.147   5.206
  151SAPE  C21316666   5.146   0.336   5.311
  151SAPE  H13R16667   5.094   0.375   5.401
  151SAPE  H13S16668   5.112   0.391   5.221
  151SAPE  C21416669   5.289   0.335   5.337
  151SAPE  H14R16670   5.312   0.348   5.444
  151SAPE  C21516671   5.390   0.329   5.251
  151SAPE  H15R16672   5.494   0.316   5.287
  151SAPE  C21616673   5.378   0.323   5.103
  151SAPE  H16R16674   5.289   0.374   5.061
  151SAPE  H16S16675   5.364   0.215   5.081
  151SAPE  C21716676   5.506   0.369   5.030
  151SAPE  H17R16677   5.604   0.348   5.078
  151SAPE  H17S16678   5.502   0.479   5.015
  151SAPE  C21816679   5.512   0.299   4.897
  151SAPE  H18R16680   5.417   0.317   4.844
  151SAPE  H18S16681   5.547   0.194   4.894
  151SAPE  C21916682   5.621   0.351   4.803
  151SAPE  H19R16683   5.703   0.279   4.785
  151SAPE  H19S16684   5.656   0.446   4.850
  151SAPE  C22016685   5.560   0.378   4.667
  151SAPE  H20R16686   5.546   0.283   4.610
  151SAPE  H20S16687   5.638   0.434   4.611
  151SAPE  H20T16688   5.466   0.434   4.654
  151SAPE   C3316689   4.386   6.283   5.321
  151SAPE   H3X16690   4.321   6.203   5.364
  151SAPE   H3Y16691   4.429   6.249   5.224
  151SAPE   C3416692   4.293   6.413   5.291
  151SAPE   H4X16693   4.244   6.443   5.386
  151SAPE   H4Y16694   4.214   6.385   5.218
  151SAPE   C3516695   4.372   6.517   5.222
  151SAPE   H5X16696   4.426   6.483   5.131
  151SAPE   H5Y16697   4.443   6.561   5.295
  151SAPE   C3616698   4.290   6.639   5.180
  151SAPE   H6X16699   4.246   6.684   5.272
  151SAPE   H6Y16700   4.204   6.598   5.122
  151SAPE   C3716701   4.380   6.740   5.099
  151SAPE   H7X16702   4.463   6.761   5.170
  151SAPE   H7Y16703   4.327   6.836   5.085
  151SAPE   C3816704   4.424   6.698   4.964
  151SAPE   H8X16705   4.368   6.604   4.945
  151SAPE   H8Y16706   4.529   6.662   4.961
  151SAPE   C3916707   4.407   6.795   4.848
  151SAPE   H9X16708   4.319   6.858   4.873
  151SAPE   H9Y16709   4.387   6.739   4.754
  151SAPE  C31016710   4.529   6.882   4.806
  151SAPE  H10X16711   4.616   6.819   4.777
  151SAPE  H10Y16712   4.565   0.052   4.894
  151SAPE  C31116713   4.512   0.089   4.692
  151SAPE  H11X16714   4.481   0.041   4.597
  151SAPE  H11Y16715   4.611   0.131   4.668
  151SAPE  C31216716   4.412   0.209   4.718
  151SAPE  H12X16717   4.431   0.249   4.820
  151SAPE  H12Y16718   4.310   0.165   4.718
  151SAPE  C31316719   4.433   0.325   4.622
  151SAPE  H13X16720   4.345   0.392   4.627
  151SAPE  H13Y16721   4.444   0.293   4.516
  151SAPE  C31416722   4.557   0.412   4.651
  151SAPE  H14X16723   4.648   0.350   4.662
  151SAPE  H14Y16724   4.541   0.458   4.751
  151SAPE  C31516725   4.591   0.518   4.543
  151SAPE  H15X16726   4.643   0.607   4.584
  151SAPE  H15Y16727   4.487   0.552   4.525
  151SAPE  C31616728   4.661   0.465   4.416
  151SAPE  H16X16729   4.605   0.382   4.367
  151SAPE  H16Y16730   4.760   0.427   4.448
  151SAPE  C31716731   4.685   0.568   4.310
  151SAPE  H17X16732   4.759   0.643   4.344
  151SAPE  H17Y16733   4.592   0.625   4.291
  151SAPE  C31816734   4.726   0.500   4.177
  151SAPE  H18X16735   4.741   0.571   4.092
  151SAPE  H18Y16736   4.640   0.434   4.153
  151SAPE  H18Z16737   4.818   0.438   4.190
  152SAPE     N16738   0.377   1.187   6.426
  152SAPE   HN116739   0.374   1.092   6.385
  152SAPE   HN216740   0.298   1.239   6.382
  152SAPE   HN316741   0.462   1.243   6.403
  152SAPE   C1216742   0.345   1.179   6.574
  152SAPE  H12A16743   0.425   1.120   6.622
  152SAPE  H12B16744   0.248   1.125   6.574
  152SAPE   C1116745   0.325   1.317   6.635
  152SAPE  H11A16746   0.418   1.377   6.629
  152SAPE  H11B16747   0.322   1.298   6.744
  152SAPE     P16748   0.188   1.537   6.633
  152SAPE   O1316749   0.046   1.563   6.645
  152SAPE   O1416750   0.258   1.555   6.758
  152SAPE   O1216751   0.210   1.385   6.581
  152SAPE   O1116752   0.251   1.623   6.519
  152SAPE    C116753   0.256   1.597   6.378
  152SAPE    HA16754   0.307   1.680   6.325
  152SAPE    HB16755   0.320   1.506   6.369
  152SAPE    C216756   0.117   1.560   6.317
  152SAPE    HS16757   0.062   1.491   6.386
  152SAPE   O2116758   0.147   1.491   6.195
  152SAPE   C2116759   0.044   1.453   6.122
  152SAPE   O2216760   6.817   1.449   6.167
  152SAPE   C2216761   0.084   1.406   5.985
  152SAPE   H2R16762   0.178   1.452   5.948
  152SAPE   H2S16763   0.101   1.297   5.996
  152SAPE    C316764   0.023   1.690   6.307
  152SAPE    HX16765   0.027   1.732   6.410
  152SAPE    HY16766   6.802   1.666   6.290
  152SAPE   O3116767   0.077   1.774   6.198
  152SAPE   C3116768   0.041   1.895   6.206
  152SAPE   O3216769   6.862   1.950   6.294
  152SAPE   C3216770   0.079   1.972   6.081
  152SAPE   H2X16771   0.072   1.908   5.990
  152SAPE   H2Y16772   0.183   2.006   6.102
  152SAPE   C2316773   6.858   1.437   5.888
  152SAPE   H3R16774   6.831   1.545   5.888
  152SAPE   H3S16775   6.765   1.387   5.921
  152SAPE   C2416776   0.010   1.400   5.743
  152SAPE   H4R16777   6.805   1.421   5.684
  152SAPE   H4S16778   0.032   1.292   5.737
  152SAPE   C2516779   0.120   1.479   5.675
  152SAPE   H5R16780   0.171   1.549   5.743
  152SAPE   C2616781   0.160   1.475   5.544
  152SAPE   H6R16782   0.253   1.524   5.513
  152SAPE   C2716783   0.096   1.375   5.445
  152SAPE   H7R16784   0.056   1.285   5.496
  152SAPE   H7S16785   0.184   1.342   5.386
  152SAPE   C2816786   6.868   1.443   5.369
  152SAPE   H8R16787   6.806   1.513   5.428
  152SAPE   C2916788   6.856   1.449   5.237
  152SAPE   H9R16789   6.764   1.495   5.198
  152SAPE  C21016790   0.048   1.361   5.142
  152SAPE  H10R16791   0.082   1.272   5.199
  152SAPE  H10S16792   0.136   1.420   5.107
  152SAPE  C21116793   6.854   1.309   5.028
  152SAPE  H11R16794   6.814   1.210   5.052
  152SAPE  C21216795   6.848   1.369   4.908
  152SAPE  H12R16796   6.788   1.328   4.826
  152SAPE  C21316797   0.025   1.502   4.861
  152SAPE  H13R16798   0.071   1.484   4.761
  152SAPE  H13S16799   0.118   1.538   4.910
  152SAPE  C21416800   6.808   1.612   4.849
  152SAPE  H14R16801   6.808   1.677   4.937
  152SAPE  C21516802   6.724   1.640   4.745
  152SAPE  H15R16803   6.649   1.721   4.745
  152SAPE  C21616804   6.711   1.555   4.617
  152SAPE  H16R16805   6.626   1.485   4.623
  152SAPE  H16S16806   6.800   1.488   4.618
  152SAPE  C21716807   6.735   1.639   4.491
  152SAPE  H17R16808   6.743   1.566   4.408
  152SAPE  H17S16809   6.831   1.694   4.496
  152SAPE  C21816810   6.626   1.735   4.472
  152SAPE  H18R16811   6.624   1.807   4.557
  152SAPE  H18S16812   6.529   1.683   4.459
  152SAPE  C21916813   6.638   1.821   4.339
  152SAPE  H19R16814   6.663   1.752   4.256
  152SAPE  H19S16815   6.721   1.893   4.354
  152SAPE  C22016816   6.516   1.900   4.309
  152SAPE  H20R16817   6.420   1.845   4.298
  152SAPE  H20S16818   6.513   1.965   4.220
  152SAPE  H20T16819   6.499   1.977   4.387
  152SAPE   C3316820   6.886   2.103   6.066
  152SAPE   H3X16821   0.031   2.182   6.138
  152SAPE   H3Y16822   6.778   2.085   6.084
  152SAPE   C3416823   0.002   2.149   5.919
  152SAPE   H4X16824   6.848   2.071   5.852
  152SAPE   H4Y16825   0.106   2.156   5.883
  152SAPE   C3516826   6.820   2.288   5.908
  152SAPE   H5X16827   0.005   2.370   5.928
  152SAPE   H5Y16828   6.736   2.303   5.979
  152SAPE   C3616829   6.755   2.305   5.771
  152SAPE   H6X16830   6.714   2.408   5.761
  152SAPE   H6Y16831   6.671   2.233   5.763
  152SAPE   C3716832   6.849   2.284   5.656
  152SAPE   H7X16833   6.870   2.175   5.647
  152SAPE   H7Y16834   0.056   2.336   5.686
  152SAPE   C3816835   6.799   2.330   5.519
  152SAPE   H8X16836   6.742   2.424   5.536
  152SAPE   H8Y16837   6.728   2.252   5.484
  152SAPE   C3916838   0.034   2.362   5.427
  152SAPE   H9X16839   0.088   2.267   5.406
  152SAPE   H9Y16840   0.090   2.441   5.480
  152SAPE  C31016841   6.857   2.414   5.298
  152SAPE  H10X16842   6.803   2.511   5.310
  152SAPE  H10Y16843   6.773   2.346   5.273
  152SAPE  C31116844   0.067   2.420   5.180
  152SAPE  H11X16845   0.094   2.313   5.169
  152SAPE  H11Y16846   0.161   2.474   5.205
  152SAPE  C31216847   0.011   2.464   5.046
  152SAPE  H12X16848   6.787   2.458   5.046
  152SAPE  H12Y16849   0.040   2.400   4.960
  152SAPE  C31316850   0.039   2.608   5.007
  152SAPE  H13X16851   0.135   2.641   5.051
  152SAPE  H13Y16852   6.866   2.684   5.061
  152SAPE  C31416853   0.027   2.635   4.858
  152SAPE  H14X16854   0.034   2.742   4.829
  152SAPE  H14Y16855   6.821   2.607   4.803
  152SAPE  C31516856   0.156   2.581   4.791
  152SAPE  H15X16857   0.190   2.476   4.805
  152SAPE  H15Y16858   0.239   2.642   4.833
  152SAPE  C31616859   0.143   2.598   4.634
  152SAPE  H16X16860   0.162   2.706   4.614
  152SAPE  H16Y16861   0.043   2.569   4.596
  152SAPE  C31716862   0.260   2.520   4.569
  152SAPE  H17X16863   0.234   2.415   4.594
  152SAPE  H17Y16864   0.351   2.542   4.628
  152SAPE  C31816865   0.264   2.546   4.419
  152SAPE  H18X16866   0.162   2.572   4.384
  152SAPE  H18Y16867   0.302   2.458   4.363
  152SAPE  H18Z16868   0.327   2.628   4.377
  153SAPE     N16869   6.087   1.515   6.391
  153SAPE   HN116870   6.025   1.531   6.309
  153SAPE   HN216871   6.025   1.486   6.469
  153SAPE   HN316872   6.134   1.602   6.421
  153SAPE   C1216873   6.196   1.412   6.375
  153SAPE  H12A16874   6.254   1.401   6.469
  153SAPE  H12B16875   6.266   1.443   6.294
  153SAPE   C1116876   6.150   1.267   6.347
  153SAPE  H11A16877   6.233   1.216   6.294
  153SAPE  H11B16878   6.060   1.257   6.283
  153SAPE     P16879   6.224   1.097   6.533
  153SAPE   O1316880   6.360   1.149   6.554
  153SAPE   O1416881   6.171   1.034   6.657
  153SAPE   O1216882   6.124   1.210   6.476
  153SAPE   O1116883   6.237   0.990   6.411
  153SAPE    C116884   6.126   0.894   6.406
  153SAPE    HA16885   6.128   0.826   6.493
  153SAPE    HB16886   6.027   0.943   6.415
  153SAPE    C216887   6.130   0.817   6.277
  153SAPE    HS16888   6.220   0.752   6.280
  153SAPE   O2116889   6.124   0.916   6.174
  153SAPE   C2116890   6.182   0.890   6.064
  153SAPE   O2216891   6.238   0.791   6.032
  153SAPE   C2216892   6.185   1.025   5.989
  153SAPE   H2R16893   6.089   1.077   6.013
  153SAPE   H2S16894   6.269   1.087   6.025
  153SAPE    C316895   6.012   0.713   6.262
  153SAPE    HX16896   5.919   0.774   6.271
  153SAPE    HY16897   6.020   0.648   6.352
  153SAPE   O3116898   6.001   0.641   6.134
  153SAPE   C3116899   6.051   0.517   6.128
  153SAPE   O3216900   6.095   0.456   6.223
  153SAPE   C3216901   6.008   0.466   5.987
  153SAPE   H2X16902   6.051   0.534   5.909
  153SAPE   H2Y16903   5.898   0.478   5.990
  153SAPE   C2316904   6.210   0.999   5.837
  153SAPE   H3R16905   6.130   0.929   5.804
  153SAPE   H3S16906   6.308   0.951   5.820
  153SAPE   C2416907   6.204   1.129   5.751
  153SAPE   H4R16908   6.224   1.112   5.643
  153SAPE   H4S16909   6.283   1.199   5.785
  153SAPE   C2516910   6.066   1.207   5.754
  153SAPE   H5R16911   5.978   1.155   5.793
  153SAPE   C2616912   6.032   1.328   5.692
  153SAPE   H6R16913   5.925   1.352   5.701
  153SAPE   C2716914   6.126   1.422   5.634
  153SAPE   H7R16915   6.161   1.372   5.542
  153SAPE   H7S16916   6.216   1.432   5.699
  153SAPE   C2816917   6.068   1.551   5.604
  153SAPE   H8R16918   6.019   1.601   5.689
  153SAPE   C2916919   6.069   1.616   5.489
  153SAPE   H9R16920   6.018   1.713   5.474
  153SAPE  C21016921   6.127   1.559   5.361
  153SAPE  H10R16922   6.103   1.450   5.356
  153SAPE  H10S16923   6.238   1.569   5.366
  153SAPE  C21116924   6.081   1.631   5.240
  153SAPE  H11R16925   5.978   1.670   5.252
  153SAPE  C21216926   6.151   1.656   5.130
  153SAPE  H12R16927   6.098   1.714   5.053
  153SAPE  C21316928   6.296   1.619   5.091
  153SAPE  H13R16929   6.345   1.565   5.175
  153SAPE  H13S16930   6.351   1.715   5.084
  153SAPE  C21416931   6.318   1.556   4.957
  153SAPE  H14R16932   6.345   1.450   4.965
  153SAPE  C21516933   6.301   1.608   4.837
  153SAPE  H15R16934   6.319   1.549   4.746
  153SAPE  C21616935   6.266   1.756   4.809
  153SAPE  H16R16936   6.346   1.811   4.755
  153SAPE  H16S16937   6.260   1.816   4.902
  153SAPE  C21716938   6.135   1.766   4.735
  153SAPE  H17R16939   6.061   1.720   4.804
  153SAPE  H17S16940   6.145   1.704   4.643
  153SAPE  C21816941   6.086   1.906   4.708
  153SAPE  H18R16942   6.161   1.954   4.642
  153SAPE  H18S16943   6.084   1.959   4.806
  153SAPE  C21916944   5.946   1.903   4.641
  153SAPE  H19R16945   5.900   2.003   4.659
  153SAPE  H19S16946   5.880   1.824   4.682
  153SAPE  C22016947   5.940   1.884   4.486
  153SAPE  H20R16948   6.002   1.965   4.443
  153SAPE  H20S16949   5.841   1.901   4.438
  153SAPE  H20T16950   5.981   1.784   4.461
  153SAPE   C3316951   6.061   0.319   5.964
  153SAPE   H3X16952   5.987   0.262   5.905
  153SAPE   H3Y16953   6.051   0.274   6.065
  153SAPE   C3416954   6.205   0.309   5.923
  153SAPE   H4X16955   6.274   0.339   6.005
  153SAPE   H4Y16956   6.224   0.385   5.844
  153SAPE   C3516957   6.253   0.174   5.874
  153SAPE   H5X16958   6.255   0.099   5.956
  153SAPE   H5Y16959   6.358   0.168   5.839
  153SAPE   C3616960   6.172   0.134   5.747
  153SAPE   H6X16961   6.178   0.207   5.664
  153SAPE   H6Y16962   6.073   0.103   5.786
  153SAPE   C3716963   6.232   6.884   5.698
  153SAPE   H7X16964   6.219   6.800   5.770
  153SAPE   H7Y16965   6.340   0.002   5.675
  153SAPE   C3816966   6.158   6.845   5.571
  153SAPE   H8X16967   6.191   0.001   5.474
  153SAPE   H8Y16968   6.050   6.869   5.580
  153SAPE   C3916969   6.164   6.685   5.553
  153SAPE   H9X16970   6.130   6.638   5.647
  153SAPE   H9Y16971   6.272   6.658   5.552
  153SAPE  C31016972   6.085   6.652   5.426
  153SAPE  H10X16973   5.985   6.700   5.426
  153SAPE  H10Y16974   6.071   6.542   5.423
  153SAPE  C31116975   6.168   6.674   5.298
  153SAPE  H11X16976   6.260   6.612   5.304
  153SAPE  H11Y16977   6.212   6.776   5.287
  153SAPE  C31216978   6.078   6.642   5.176
  153SAPE  H12X16979   6.002   6.722   5.163
  153SAPE  H12Y16980   6.023   6.548   5.198
  153SAPE  C31316981   6.166   6.617   5.052
  153SAPE  H13X16982   6.241   6.538   5.076
  153SAPE  H13Y16983   6.229   6.703   5.023
  153SAPE  C31416984   6.073   6.586   4.929
  153SAPE  H14X16985   5.990   6.660   4.930
  153SAPE  H14Y16986   6.026   6.487   4.951
  153SAPE  C31516987   6.131   6.587   4.788
  153SAPE  H15X16988   6.226   6.530   4.787
  153SAPE  H15Y16989   6.146   6.693   4.760
  153SAPE  C31616990   6.035   6.533   4.676
  153SAPE  H16X16991   6.081   6.556   4.577
  153SAPE  H16Y16992   5.935   6.579   4.691
  153SAPE  C31716993   6.025   6.381   4.691
  153SAPE  H17X16994   5.989   6.365   4.795
  153SAPE  H17Y16995   6.122   6.326   4.687
  153SAPE  C31816996   5.929   6.318   4.592
  153SAPE  H18X16997   5.929   6.210   4.619
  153SAPE  H18Y16998   5.971   6.336   4.490
  153SAPE  H18Z16999   5.827   6.362   4.595
  154SAPE     N17000   3.960   0.275   6.094
  154SAPE   HN117001   3.929   0.188   6.143
  154SAPE   HN217002   4.064   0.271   6.082
  154SAPE   HN317003   3.939   0.363   6.145
  154SAPE   C1217004   3.899   0.304   5.965
  154SAPE  H12A17005   3.910   0.211   5.905
  154SAPE  H12B17006   3.947   0.390   5.914
  154SAPE   C1117007   3.753   0.346   5.971
  154SAPE  H11A17008   3.713   0.354   5.868
  154SAPE  H11B17009   3.747   0.449   6.013
  154SAPE     P17010   3.600   0.259   6.179
  154SAPE   O1317011   3.502   0.154   6.179
  154SAPE   O1417012   3.694   0.263   6.296
  154SAPE   O1217013   3.682   0.248   6.047
  154SAPE   O1117014   3.533   0.399   6.180
  154SAPE    C117015   3.446   0.443   6.078
  154SAPE    HA17016   3.498   0.530   6.032
  154SAPE    HB17017   3.424   0.372   5.996
  154SAPE    C217018   3.319   0.500   6.136
  154SAPE    HS17019   3.288   0.425   6.211
  154SAPE   O2117020   3.229   0.508   6.028
  154SAPE   C2117021   3.102   0.520   6.063
  154SAPE   O2217022   3.053   0.493   6.173
  154SAPE   C2217023   3.019   0.565   5.942
  154SAPE   H2R17024   2.973   0.664   5.963
  154SAPE   H2S17025   3.094   0.582   5.862
  154SAPE    C317026   3.342   0.626   6.221
  154SAPE    HX17027   3.424   0.603   6.293
  154SAPE    HY17028   3.247   0.639   6.278
  154SAPE   O3117029   3.379   0.745   6.147
  154SAPE   C3117030   3.279   0.825   6.097
  154SAPE   O3217031   3.163   0.809   6.129
  154SAPE   C3217032   3.336   0.953   6.037
  154SAPE   H2X17033   3.424   0.927   5.974
  154SAPE   H2Y17034   3.376   1.013   6.122
  154SAPE   C2317035   2.912   0.465   5.897
  154SAPE   H3R17036   2.821   0.528   5.885
  154SAPE   H3S17037   2.878   0.404   5.984
  154SAPE   C2417038   2.959   0.373   5.782
  154SAPE   H4R17039   3.038   0.430   5.727
  154SAPE   H4S17040   2.884   0.351   5.703
  154SAPE   C2517041   3.004   0.242   5.846
  154SAPE   H5R17042   2.928   0.198   5.913
  154SAPE   C2617043   3.121   0.176   5.839
  154SAPE   H6R17044   3.139   0.082   5.892
  154SAPE   C2717045   3.243   0.230   5.768
  154SAPE   H7R17046   3.251   0.339   5.790
  154SAPE   H7S17047   3.211   0.246   5.663
  154SAPE   C2817048   3.370   0.150   5.799
  154SAPE   H8R17049   3.406   0.169   5.901
  154SAPE   C2917050   3.446   0.070   5.720
  154SAPE   H9R17051   3.523   0.007   5.766
  154SAPE  C21017052   3.408   0.024   5.589
  154SAPE  H10R17053   3.479   0.046   5.507
  154SAPE  H10S17054   3.316   0.077   5.557
  154SAPE  C21117055   3.394   6.760   5.590
  154SAPE  H11R17056   3.298   6.715   5.620
  154SAPE  C21217057   3.500   6.679   5.581
  154SAPE  H12R17058   3.495   6.571   5.599
  154SAPE  C21317059   3.639   6.724   5.564
  154SAPE  H13R17060   3.657   6.810   5.632
  154SAPE  H13S17061   3.674   6.757   5.464
  154SAPE  C21417062   3.739   6.619   5.605
  154SAPE  H14R17063   3.732   6.582   5.708
  154SAPE  C21517064   3.848   6.581   5.542
  154SAPE  H15R17065   3.902   6.494   5.582
  154SAPE  C21617066   3.891   6.622   5.397
  154SAPE  H16R17067   3.986   6.679   5.397
  154SAPE  H16S17068   3.816   6.686   5.347
  154SAPE  C21717069   3.907   6.497   5.306
  154SAPE  H17R17070   3.837   6.418   5.341
  154SAPE  H17S17071   4.006   6.454   5.333
  154SAPE  C21817072   3.883   6.509   5.158
  154SAPE  H18R17073   3.904   6.416   5.102
  154SAPE  H18S17074   3.957   6.579   5.113
  154SAPE  C21917075   3.740   6.560   5.122
  154SAPE  H19R17076   3.730   6.662   5.165
  154SAPE  H19S17077   3.671   6.484   5.164
  154SAPE  C22017078   3.719   6.569   4.980
  154SAPE  H20R17079   3.774   6.658   4.941
  154SAPE  H20S17080   3.610   6.581   4.960
  154SAPE  H20T17081   3.770   6.491   4.919
  154SAPE   C3317082   3.221   1.024   5.958
  154SAPE   H3X17083   3.253   1.130   5.948
  154SAPE   H3Y17084   3.125   1.033   6.013
  154SAPE   C3417085   3.217   0.986   5.807
  154SAPE   H4X17086   3.202   0.876   5.795
  154SAPE   H4Y17087   3.317   1.012   5.767
  154SAPE   C3517088   3.112   1.076   5.733
  154SAPE   H5X17089   3.126   1.182   5.765
  154SAPE   H5Y17090   3.015   1.040   5.773
  154SAPE   C3617091   3.117   1.061   5.582
  154SAPE   H6X17092   3.019   1.102   5.551
  154SAPE   H6Y17093   3.129   0.955   5.553
  154SAPE   C3717094   3.224   1.152   5.520
  154SAPE   H7X17095   3.324   1.133   5.566
  154SAPE   H7Y17096   3.196   1.257   5.543
  154SAPE   C3817097   3.237   1.143   5.365
  154SAPE   H8X17098   3.133   1.121   5.333
  154SAPE   H8Y17099   3.294   1.055   5.332
  154SAPE   C3917100   3.295   1.268   5.308
  154SAPE   H9X17101   3.374   1.299   5.380
  154SAPE   H9Y17102   3.222   1.351   5.320
  154SAPE  C31017103   3.330   1.253   5.156
  154SAPE  H10X17104   3.236   1.222   5.106
  154SAPE  H10Y17105   3.404   1.171   5.141
  154SAPE  C31117106   3.381   1.387   5.098
  154SAPE  H11X17107   3.477   1.416   5.146
  154SAPE  H11Y17108   3.302   1.458   5.129
  154SAPE  C31217109   3.401   1.373   4.948
  154SAPE  H12X17110   3.321   1.316   4.896
  154SAPE  H12Y17111   3.494   1.312   4.948
  154SAPE  C31317112   3.428   1.506   4.866
  154SAPE  H13X17113   3.500   1.566   4.926
  154SAPE  H13Y17114   3.338   1.570   4.859
  154SAPE  C31417115   3.490   1.484   4.725
  154SAPE  H14X17116   3.513   1.588   4.692
  154SAPE  H14Y17117   3.419   1.439   4.653
  154SAPE  C31517118   3.610   1.394   4.737
  154SAPE  H15X17119   3.581   1.287   4.729
  154SAPE  H15Y17120   3.680   1.422   4.819
  154SAPE  C31617121   3.684   1.399   4.605
  154SAPE  H16X17122   3.787   1.358   4.600
  154SAPE  H16Y17123   3.697   1.501   4.562
  154SAPE  C31717124   3.622   1.301   4.496
  154SAPE  H17X17125   3.656   1.344   4.400
  154SAPE  H17Y17126   3.512   1.318   4.493
  154SAPE  C31817127   3.657   1.146   4.514
  154SAPE  H18X17128   3.612   1.094   4.601
  154SAPE  H18Y17129   3.768   1.141   4.514
  154SAPE  H18Z17130   3.617   1.107   4.419
  155SAPE     N17131   6.088   5.498   6.474
  155SAPE   HN117132   6.095   5.474   6.373
  155SAPE   HN217133   6.179   5.474   6.520
  155SAPE   HN317134   6.022   5.430   6.515
  155SAPE   C1217135   6.038   5.636   6.486
  155SAPE  H12A17136   6.108   5.705   6.435
  155SAPE  H12B17137   6.039   5.662   6.594
  155SAPE   C1117138   5.898   5.664   6.429
  155SAPE  H11A17139   5.898   5.616   6.329
  155SAPE  H11B17140   5.884   5.773   6.416
  155SAPE     P17141   5.731   5.687   6.623
  155SAPE   O1317142   5.638   5.601   6.698
  155SAPE   O1417143   5.840   5.754   6.700
  155SAPE   O1217144   5.789   5.603   6.505
  155SAPE   O1117145   5.657   5.810   6.554
  155SAPE    C117146   5.534   5.801   6.483
  155SAPE    HA17147   5.474   5.716   6.520
  155SAPE    HB17148   5.481   5.899   6.488
  155SAPE    C217149   5.560   5.775   6.328
  155SAPE    HS17150   5.629   5.689   6.316
  155SAPE   O2117151   5.623   5.894   6.278
  155SAPE   C2117152   5.707   5.877   6.172
  155SAPE   O2217153   5.744   5.769   6.130
  155SAPE   C2217154   5.733   6.013   6.109
  155SAPE   H2R17155   5.639   6.072   6.104
  155SAPE   H2S17156   5.812   6.074   6.157
  155SAPE    C317157   5.420   5.757   6.249
  155SAPE    HX17158   5.377   5.854   6.282
  155SAPE    HY17159   5.368   5.670   6.294
  155SAPE   O3117160   5.437   5.754   6.105
  155SAPE   C3117161   5.454   5.636   6.053
  155SAPE   O3217162   5.473   5.532   6.114
  155SAPE   C3217163   5.423   5.645   5.902
  155SAPE   H2X17164   5.434   5.751   5.871
  155SAPE   H2Y17165   5.317   5.616   5.885
  155SAPE   C2317166   5.784   6.006   5.955
  155SAPE   H3R17167   5.884   5.956   5.953
  155SAPE   H3S17168   5.808   6.108   5.919
  155SAPE   C2417169   5.673   5.947   5.864
  155SAPE   H4R17170   5.645   5.850   5.909
  155SAPE   H4S17171   5.723   5.911   5.771
  155SAPE   C2517172   5.546   6.037   5.853
  155SAPE   H5R17173   5.473   6.020   5.933
  155SAPE   C2617174   5.523   6.128   5.756
  155SAPE   H6R17175   5.423   6.175   5.751
  155SAPE   C2717176   5.622   6.159   5.645
  155SAPE   H7R17177   5.571   6.132   5.550
  155SAPE   H7S17178   5.708   6.089   5.646
  155SAPE   C2817179   5.678   6.294   5.648
  155SAPE   H8R17180   5.700   6.334   5.748
  155SAPE   C2917181   5.687   6.385   5.546
  155SAPE   H9R17182   5.735   6.480   5.573
  155SAPE  C21017183   5.658   6.370   5.402
  155SAPE  H10R17184   5.600   6.460   5.372
  155SAPE  H10S17185   5.604   6.279   5.367
  155SAPE  C21117186   5.787   6.361   5.323
  155SAPE  H11R17187   5.885   6.373   5.371
  155SAPE  C21217188   5.785   6.333   5.188
  155SAPE  H12R17189   5.876   6.300   5.136
  155SAPE  C21317190   5.666   6.317   5.101
  155SAPE  H13R17191   5.685   6.378   5.010
  155SAPE  H13S17192   5.575   6.365   5.144
  155SAPE  C21417193   5.627   6.176   5.060
  155SAPE  H14R17194   5.608   6.117   5.151
  155SAPE  C21517195   5.605   6.125   4.939
  155SAPE  H15R17196   5.578   6.018   4.930
  155SAPE  C21617197   5.613   6.195   4.810
  155SAPE  H16R17198   5.676   6.135   4.742
  155SAPE  H16S17199   5.672   6.287   4.830
  155SAPE  C21717200   5.478   6.222   4.751
  155SAPE  H17R17201   5.413   6.133   4.739
  155SAPE  H17S17202   5.501   6.276   4.656
  155SAPE  C21817203   5.393   6.334   4.831
  155SAPE  H18R17204   5.434   6.436   4.817
  155SAPE  H18S17205   5.398   6.303   4.938
  155SAPE  C21917206   5.243   6.325   4.799
  155SAPE  H19R17207   5.198   6.223   4.807
  155SAPE  H19S17208   5.235   6.363   4.695
  155SAPE  C22017209   5.155   6.421   4.879
  155SAPE  H20R17210   5.053   6.379   4.895
  155SAPE  H20S17211   5.132   6.514   4.823
  155SAPE  H20T17212   5.197   6.440   4.980
  155SAPE   C3317213   5.529   5.566   5.822
  155SAPE   H3X17214   5.532   5.468   5.874
  155SAPE   H3Y17215   5.628   5.611   5.843
  155SAPE   C3417216   5.516   5.558   5.672
  155SAPE   H4X17217   5.419   5.519   5.636
  155SAPE   H4Y17218   5.603   5.504   5.628
  155SAPE   C3517219   5.521   5.707   5.615
  155SAPE   H5X17220   5.625   5.738   5.638
  155SAPE   H5Y17221   5.448   5.778   5.662
  155SAPE   C3617222   5.496   5.706   5.475
  155SAPE   H6X17223   5.386   5.706   5.457
  155SAPE   H6Y17224   5.546   5.616   5.433
  155SAPE   C3717225   5.549   5.830   5.394
  155SAPE   H7X17226   5.644   5.793   5.350
  155SAPE   H7Y17227   5.574   5.911   5.467
  155SAPE   C3817228   5.444   5.870   5.297
  155SAPE   H8X17229   5.388   5.781   5.261
  155SAPE   H8Y17230   5.492   5.911   5.205
  155SAPE   C3917231   5.340   5.969   5.355
  155SAPE   H9X17232   5.382   6.071   5.362
  155SAPE   H9Y17233   5.316   5.932   5.457
  155SAPE  C31017234   5.212   5.992   5.262
  155SAPE  H10X17235   5.146   6.060   5.320
  155SAPE  H10Y17236   5.150   5.903   5.239
  155SAPE  C31117237   5.243   6.060   5.127
  155SAPE  H11X17238   5.347   6.100   5.134
  155SAPE  H11Y17239   5.176   6.147   5.109
  155SAPE  C31217240   5.241   5.960   5.010
  155SAPE  H12X17241   5.282   5.864   5.048
  155SAPE  H12Y17242   5.298   6.006   4.927
  155SAPE  C31317243   5.097   5.923   4.958
  155SAPE  H13X17244   5.047   6.016   4.924
  155SAPE  H13Y17245   5.039   5.886   5.045
  155SAPE  C31417246   5.108   5.822   4.847
  155SAPE  H14X17247   5.004   5.796   4.818
  155SAPE  H14Y17248   5.149   5.728   4.889
  155SAPE  C31517249   5.194   5.856   4.727
  155SAPE  H15X17250   5.217   5.766   4.667
  155SAPE  H15Y17251   5.288   5.907   4.758
  155SAPE  C31617252   5.113   5.938   4.630
  155SAPE  H16X17253   5.055   6.019   4.679
  155SAPE  H16Y17254   5.039   5.869   4.584
  155SAPE  C31717255   5.201   5.986   4.510
  155SAPE  H17X17256   5.238   5.893   4.462
  155SAPE  H17Y17257   5.286   6.041   4.555
  155SAPE  C31817258   5.123   6.075   4.421
  155SAPE  H18X17259   5.042   6.023   4.366
  155SAPE  H18Y17260   5.181   6.132   4.345
  155SAPE  H18Z17261   5.088   6.160   4.483
  156SAPE     N17262   0.082   0.332   6.803
  156SAPE   HN117263   0.141   0.282   6.872
  156SAPE   HN217264   0.128   0.406   6.746
  156SAPE   HN317265   0.003   0.381   6.848
  156SAPE   C1217266   0.033   0.229   6.706
  156SAPE  H12A17267   6.830   0.271   6.656
  156SAPE  H12B17268   0.005   0.138   6.763
  156SAPE   C1117269   0.140   0.190   6.607
  156SAPE  H11A17270   0.158   0.280   6.546
  156SAPE  H11B17271   0.091   0.116   6.540
  156SAPE     P17272   0.388   0.114   6.616
  156SAPE   O1317273   0.489   0.213   6.670
  156SAPE   O1417274   0.423   6.853   6.620
  156SAPE   O1217275   0.249   0.135   6.688
  156SAPE   O1117276   0.353   0.155   6.464
  156SAPE    C117277   0.428   0.116   6.351
  156SAPE    HA17278   0.511   0.189   6.342
  156SAPE    HB17279   0.479   0.018   6.365
  156SAPE    C217280   0.337   0.103   6.226
  156SAPE    HS17281   0.404   0.060   6.149
  156SAPE   O2117282   0.278   0.228   6.178
  156SAPE   C2117283   0.364   0.332   6.151
  156SAPE   O2217284   0.485   0.322   6.132
  156SAPE   C2217285   0.281   0.458   6.143
  156SAPE   H2R17286   0.228   0.455   6.045
  156SAPE   H2S17287   0.198   0.458   6.218
  156SAPE    C317288   0.222   0.005   6.255
  156SAPE    HX17289   0.146   0.050   6.322
  156SAPE    HY17290   0.265   6.812   6.319
  156SAPE   O3117291   0.169   6.837   6.136
  156SAPE   C3117292   0.048   6.784   6.138
  156SAPE   O3217293   6.860   6.796   6.231
  156SAPE   C3217294   0.022   6.703   6.011
  156SAPE   H2X17295   6.807   6.729   5.976
  156SAPE   H2Y17296   0.027   6.593   6.022
  156SAPE   C2317297   0.361   0.590   6.154
  156SAPE   H3R17298   0.457   0.577   6.209
  156SAPE   H3S17299   0.311   0.656   6.227
  156SAPE   C2417300   0.382   0.650   6.020
  156SAPE   H4R17301   0.436   0.579   5.954
  156SAPE   H4S17302   0.448   0.734   6.050
  156SAPE   C2517303   0.259   0.725   5.962
  156SAPE   H5R17304   0.208   0.792   6.033
  156SAPE   C2617305   0.204   0.717   5.837
  156SAPE   H6R17306   0.110   0.767   5.809
  156SAPE   C2717307   0.244   0.624   5.731
  156SAPE   H7R17308   0.353   0.604   5.722
  156SAPE   H7S17309   0.226   0.679   5.636
  156SAPE   C2817310   0.164   0.494   5.742
  156SAPE   H8R17311   0.160   0.446   5.841
  156SAPE   C2917312   0.092   0.434   5.645
  156SAPE   H9R17313   0.044   0.337   5.668
  156SAPE  C21017314   0.076   0.472   5.498
  156SAPE  H10R17315   0.120   0.574   5.491
  156SAPE  H10S17316   6.853   0.479   5.484
  156SAPE  C21117317   0.172   0.389   5.412
  156SAPE  H11R17318   0.269   0.356   5.452
  156SAPE  C21217319   0.148   0.357   5.283
  156SAPE  H12R17320   0.230   0.300   5.238
  156SAPE  C21317321   0.029   0.397   5.204
  156SAPE  H13R17322   0.015   0.507   5.216
  156SAPE  H13S17323   6.823   0.347   5.240
  156SAPE  C21417324   0.035   0.360   5.061
  156SAPE  H14R17325   0.109   0.286   5.028
  156SAPE  C21517326   6.844   0.412   4.966
  156SAPE  H15R17327   6.846   0.368   4.866
  156SAPE  C21617328   6.733   0.512   4.978
  156SAPE  H16R17329   6.714   0.560   4.880
  156SAPE  H16S17330   6.756   0.601   5.040
  156SAPE  C21717331   6.602   0.456   5.032
  156SAPE  H17R17332   6.611   0.421   5.137
  156SAPE  H17S17333   6.571   0.367   4.973
  156SAPE  C21817334   6.489   0.569   5.032
  156SAPE  H18R17335   6.472   0.623   4.936
  156SAPE  H18S17336   6.523   0.651   5.099
  156SAPE  C21917337   6.347   0.524   5.076
  156SAPE  H19R17338   6.351   0.494   5.183
  156SAPE  H19S17339   6.319   0.429   5.027
  156SAPE  C22017340   6.243   0.631   5.061
  156SAPE  H20R17341   6.148   0.589   5.100
  156SAPE  H20S17342   6.241   0.661   4.954
  156SAPE  H20T17343   6.273   0.721   5.119
  156SAPE   C3317344   0.125   6.738   5.899
  156SAPE   H3X17345   0.103   6.663   5.820
  156SAPE   H3Y17346   0.228   6.722   5.937
  156SAPE   C3417347   0.109   6.877   5.835
  156SAPE   H4X17348   0.123   0.055   5.924
  156SAPE   H4Y17349   0.001   6.879   5.807
  156SAPE   C3517350   0.190   0.037   5.718
  156SAPE   H5X17351   0.294   0.048   5.754
  156SAPE   H5Y17352   0.158   0.141   5.694
  156SAPE   C3617353   0.188   6.832   5.592
  156SAPE   H6X17354   0.087   6.787   5.598
  156SAPE   H6Y17355   0.260   6.748   5.604
  156SAPE   C3717356   0.190   0.010   5.457
  156SAPE   H7X17357   0.292   0.052   5.440
  156SAPE   H7Y17358   0.118   0.095   5.459
  156SAPE   C3817359   0.170   6.799   5.335
  156SAPE   H8X17360   0.063   6.813   5.308
  156SAPE   H8Y17361   0.176   6.689   5.347
  156SAPE   C3917362   0.248   6.845   5.208
  156SAPE   H9X17363   0.356   6.825   5.223
  156SAPE   H9Y17364   0.247   0.069   5.199
  156SAPE  C31017365   0.187   6.778   5.079
  156SAPE  H10X17366   0.077   6.794   5.072
  156SAPE  H10Y17367   0.193   6.669   5.100
  156SAPE  C31117368   0.265   6.814   4.951
  156SAPE  H11X17369   0.368   6.773   4.956
  156SAPE  H11Y17370   0.265   0.038   4.943
  156SAPE  C31217371   0.202   6.735   4.826
  156SAPE  H12X17372   0.094   6.761   4.821
  156SAPE  H12Y17373   0.207   6.626   4.844
  156SAPE  C31317374   0.260   6.763   4.689
  156SAPE  H13X17375   0.202   6.711   4.610
  156SAPE  H13Y17376   0.366   6.733   4.679
  156SAPE  C31417377   0.266   0.035   4.645
  156SAPE  H14X17378   0.318   0.033   4.547
  156SAPE  H14Y17379   0.317   0.099   4.720
  156SAPE  C31517380   0.122   0.089   4.633
  156SAPE  H15X17381   0.073   0.085   4.732
  156SAPE  H15Y17382   0.072   0.025   4.557
  156SAPE  C31617383   0.105   0.235   4.588
  156SAPE  H16X17384   0.150   0.247   4.487
  156SAPE  H16Y17385   0.160   0.298   4.662
  156SAPE  C31717386   6.839   0.265   4.583
  156SAPE  H17X17387   6.793   0.249   4.682
  156SAPE  H17Y17388   6.793   0.194   4.511
  156SAPE  C31817389   6.812   0.415   4.546
  156SAPE  H18X17390   6.819   0.428   4.436
  156SAPE  H18Y17391   6.884   0.475   4.605
  156SAPE  H18Z17392   6.710   0.440   4.583
  157SAPE     N17393   0.618   5.286   6.722
  157SAPE   HN117394   0.689   5.307   6.649
  157SAPE   HN217395   0.641   5.192   6.760
  157SAPE   HN317396   0.521   5.282   6.683
  157SAPE   C1217397   0.620   5.391   6.830
  157SAPE  H12A17398   0.716   5.379   6.885
  157SAPE  H12B17399   0.544   5.354   6.902
  157SAPE   C1117400   0.580   5.536   6.788
  157SAPE  H11A17401   0.649   5.568   6.706
  157SAPE  H11B17402   0.599   5.600   6.877
  157SAPE     P17403   0.388   5.651   6.639
  157SAPE   O1317404   0.253   5.609   6.607
  157SAPE   O1417405   0.411   5.788   6.694
  157SAPE   O1217406   0.447   5.545   6.742
  157SAPE   O1117407   0.480   5.635   6.512
  157SAPE    C117408   0.547   5.744   6.445
  157SAPE    HA17409   0.574   5.827   6.513
  157SAPE    HB17410   0.644   5.702   6.409
  157SAPE    C217411   0.456   5.784   6.328
  157SAPE    HS17412   0.361   5.816   6.377
  157SAPE   O2117413   0.438   5.673   6.252
  157SAPE   C2117414   0.323   5.655   6.194
  157SAPE   O2217415   0.237   5.744   6.177
  157SAPE   C2217416   0.322   5.518   6.126
  157SAPE   H2R17417   0.397   5.444   6.162
  157SAPE   H2S17418   0.227   5.468   6.151
  157SAPE    C317419   0.515   5.904   6.252
  157SAPE    HX17420   0.441   5.932   6.174
  157SAPE    HY17421   0.604   5.867   6.196
  157SAPE   O3117422   0.547   6.026   6.325
  157SAPE   C3117423   0.452   6.115   6.352
  157SAPE   O3217424   0.335   6.093   6.330
  157SAPE   C3217425   0.501   6.238   6.410
  157SAPE   H2X17426   0.605   6.236   6.449
  157SAPE   H2Y17427   0.447   6.270   6.502
  157SAPE   C2317428   0.351   5.520   5.979
  157SAPE   H3R17429   0.403   5.424   5.959
  157SAPE   H3S17430   0.429   5.589   5.941
  157SAPE   C2417431   0.220   5.520   5.900
  157SAPE   H4R17432   0.143   5.457   5.949
  157SAPE   H4S17433   0.224   5.464   5.804
  157SAPE   C2517434   0.159   5.654   5.881
  157SAPE   H5R17435   0.054   5.663   5.916
  157SAPE   C2617436   0.205   5.753   5.803
  157SAPE   H6R17437   0.157   5.852   5.794
  157SAPE   C2717438   0.328   5.749   5.714
  157SAPE   H7R17439   0.301   5.739   5.607
  157SAPE   H7S17440   0.390   5.658   5.729
  157SAPE   C2817441   0.432   5.863   5.735
  157SAPE   H8R17442   0.433   5.907   5.836
  157SAPE   C2917443   0.502   5.929   5.642
  157SAPE   H9R17444   0.577   6.001   5.678
  157SAPE  C21017445   0.505   5.892   5.492
  157SAPE  H10R17446   0.505   5.781   5.487
  157SAPE  H10S17447   0.599   5.934   5.450
  157SAPE  C21117448   0.392   5.939   5.417
  157SAPE  H11R17449   0.309   5.979   5.475
  157SAPE  C21217450   0.390   5.947   5.280
  157SAPE  H12R17451   0.303   5.994   5.232
  157SAPE  C21317452   0.498   5.915   5.190
  157SAPE  H13R17453   0.458   5.866   5.098
  157SAPE  H13S17454   0.563   5.840   5.238
  157SAPE  C21417455   0.583   6.038   5.153
  157SAPE  H14R17456   0.647   6.076   5.233
  157SAPE  C21517457   0.589   6.101   5.031
  157SAPE  H15R17458   0.659   6.186   5.023
  157SAPE  C21617459   0.518   6.069   4.903
  157SAPE  H16R17460   0.429   6.135   4.899
  157SAPE  H16S17461   0.471   5.968   4.907
  157SAPE  C21717462   0.600   6.080   4.775
  157SAPE  H17R17463   0.646   6.181   4.774
  157SAPE  H17S17464   0.526   6.074   4.692
  157SAPE  C21817465   0.700   5.961   4.755
  157SAPE  H18R17466   0.756   5.952   4.851
  157SAPE  H18S17467   0.763   5.999   4.672
  157SAPE  C21917468   0.633   5.826   4.721
  157SAPE  H19R17469   0.561   5.835   4.637
  157SAPE  H19S17470   0.564   5.779   4.795
  157SAPE  C22017471   0.745   5.736   4.671
  157SAPE  H20R17472   0.830   5.787   4.622
  157SAPE  H20S17473   0.710   5.652   4.607
  157SAPE  H20T17474   0.795   5.694   4.761
  157SAPE   C3317475   0.500   6.353   6.305
  157SAPE   H3X17476   0.551   6.335   6.208
  157SAPE   H3Y17477   0.543   6.442   6.357
  157SAPE   C3417478   0.357   6.393   6.264
  157SAPE   H4X17479   0.311   6.407   6.364
  157SAPE   H4Y17480   0.309   6.318   6.199
  157SAPE   C3517481   0.356   6.527   6.179
  157SAPE   H5X17482   0.408   6.606   6.237
  157SAPE   H5Y17483   0.252   6.565   6.178
  157SAPE   C3617484   0.411   6.515   6.033
  157SAPE   H6X17485   0.354   6.583   5.966
  157SAPE   H6Y17486   0.412   6.417   5.981
  157SAPE   C3717487   0.555   6.561   6.020
  157SAPE   H7X17488   0.627   6.509   6.087
  157SAPE   H7Y17489   0.563   6.671   6.032
  157SAPE   C3817490   0.603   6.528   5.873
  157SAPE   H8X17491   0.588   6.420   5.852
  157SAPE   H8Y17492   0.713   6.543   5.877
  157SAPE   C3917493   0.541   6.609   5.755
  157SAPE   H9X17494   0.550   6.718   5.773
  157SAPE   H9Y17495   0.435   6.588   5.731
  157SAPE  C31017496   0.618   6.564   5.624
  157SAPE  H10X17497   0.567   6.473   5.586
  157SAPE  H10Y17498   0.722   6.536   5.650
  157SAPE  C31117499   0.616   6.673   5.516
  157SAPE  H11X17500   0.659   6.767   5.555
  157SAPE  H11Y17501   0.507   6.685   5.499
  157SAPE  C31217502   0.687   6.638   5.382
  157SAPE  H12X17503   0.795   6.628   5.408
  157SAPE  H12Y17504   0.680   6.724   5.312
  157SAPE  C31317505   0.631   6.510   5.323
  157SAPE  H13X17506   0.520   6.514   5.332
  157SAPE  H13Y17507   0.663   6.419   5.378
  157SAPE  C31417508   0.674   6.491   5.179
  157SAPE  H14X17509   0.692   6.385   5.154
  157SAPE  H14Y17510   0.774   6.537   5.166
  157SAPE  C31517511   0.575   6.575   5.088
  157SAPE  H15X17512   0.602   6.680   5.111
  157SAPE  H15Y17513   0.467   6.557   5.111
  157SAPE  C31617514   0.591   6.533   4.942
  157SAPE  H16X17515   0.518   6.595   4.886
  157SAPE  H16Y17516   0.563   6.427   4.931
  157SAPE  C31717517   0.742   6.561   4.888
  157SAPE  H17X17518   0.819   6.501   4.942
  157SAPE  H17Y17519   0.761   6.662   4.930
  157SAPE  C31817520   0.770   6.552   4.738
  157SAPE  H18X17521   0.730   6.454   4.705
  157SAPE  H18Y17522   0.878   6.574   4.720
  157SAPE  H18Z17523   0.713   6.629   4.683
  158SAPE     N17524   2.529   4.678   6.632
  158SAPE   HN117525   2.521   4.574   6.628
  158SAPE   HN217526   2.484   4.715   6.718
  158SAPE   HN317527   2.492   4.728   6.549
  158SAPE   C1217528   2.673   4.716   6.645
  158SAPE  H12A17529   2.682   4.796   6.569
  158SAPE  H12B17530   2.737   4.625   6.632
  158SAPE   C1117531   2.712   4.790   6.776
  158SAPE  H11A17532   2.821   4.811   6.776
  158SAPE  H11B17533   2.697   4.725   6.865
  158SAPE     P17534   2.661   5.020   6.910
  158SAPE   O1317535   2.616   4.952   7.034
  158SAPE   O1417536   2.805   5.054   6.899
  158SAPE   O1217537   2.644   4.914   6.794
  158SAPE   O1117538   2.576   5.140   6.866
  158SAPE    C117539   2.461   5.136   6.774
  158SAPE    HA17540   2.415   5.035   6.767
  158SAPE    HB17541   2.382   5.210   6.800
  158SAPE    C217542   2.502   5.150   6.625
  158SAPE    HS17543   2.592   5.089   6.604
  158SAPE   O2117544   2.524   5.290   6.595
  158SAPE   C2117545   2.609   5.314   6.499
  158SAPE   O2217546   2.683   5.232   6.446
  158SAPE   C2217547   2.625   5.466   6.486
  158SAPE   H2R17548   2.545   5.502   6.417
  158SAPE   H2S17549   2.612   5.504   6.589
  158SAPE    C317550   2.389   5.101   6.532
  158SAPE    HX17551   2.300   5.168   6.526
  158SAPE    HY17552   2.362   5.004   6.577
  158SAPE   O3117553   2.430   5.080   6.396
  158SAPE   C3117554   2.488   4.968   6.363
  158SAPE   O3217555   2.506   4.872   6.440
  158SAPE   C3217556   2.537   4.975   6.217
  158SAPE   H2X17557   2.597   5.068   6.204
  158SAPE   H2Y17558   2.437   4.995   6.171
  158SAPE   C2317559   2.764   5.508   6.438
  158SAPE   H3R17560   2.836   5.442   6.490
  158SAPE   H3S17561   2.771   5.614   6.468
  158SAPE   C2417562   2.789   5.505   6.282
  158SAPE   H4R17563   2.710   5.553   6.221
  158SAPE   H4S17564   2.786   5.401   6.245
  158SAPE   C2517565   2.923   5.551   6.241
  158SAPE   H5R17566   3.006   5.479   6.249
  158SAPE   C2617567   2.941   5.658   6.157
  158SAPE   H6R17568   3.045   5.688   6.136
  158SAPE   C2717569   2.829   5.752   6.114
  158SAPE   H7R17570   2.866   5.853   6.140
  158SAPE   H7S17571   2.735   5.742   6.172
  158SAPE   C2817572   2.800   5.750   5.969
  158SAPE   H8R17573   2.816   5.654   5.918
  158SAPE   C2917574   2.750   5.851   5.896
  158SAPE   H9R17575   2.730   5.848   5.788
  158SAPE  C21017576   2.707   5.986   5.947
  158SAPE  H10R17577   2.760   6.063   5.888
  158SAPE  H10S17578   2.733   5.993   6.055
  158SAPE  C21117579   2.561   6.027   5.937
  158SAPE  H11R17580   2.504   6.042   6.030
  158SAPE  C21217581   2.490   6.051   5.823
  158SAPE  H12R17582   2.384   6.075   5.835
  158SAPE  C21317583   2.535   6.038   5.684
  158SAPE  H13R17584   2.450   6.025   5.613
  158SAPE  H13S17585   2.581   5.938   5.678
  158SAPE  C21417586   2.644   6.138   5.651
  158SAPE  H14R17587   2.675   6.211   5.728
  158SAPE  C21517588   2.706   6.154   5.532
  158SAPE  H15R17589   2.798   6.214   5.524
  158SAPE  C21617590   2.692   6.049   5.429
  158SAPE  H16R17591   2.592   6.001   5.437
  158SAPE  H16S17592   2.754   5.959   5.451
  158SAPE  C21717593   2.717   6.090   5.288
  158SAPE  H17R17594   2.819   6.134   5.285
  158SAPE  H17S17595   2.651   6.173   5.256
  158SAPE  C21817596   2.690   5.977   5.189
  158SAPE  H18R17597   2.584   5.945   5.200
  158SAPE  H18S17598   2.749   5.885   5.208
  158SAPE  C21917599   2.712   6.023   5.043
  158SAPE  H19R17600   2.815   6.064   5.046
  158SAPE  H19S17601   2.643   6.107   5.021
  158SAPE  C22017602   2.710   5.914   4.939
  158SAPE  H20R17603   2.758   5.816   4.960
  158SAPE  H20S17604   2.742   5.949   4.839
  158SAPE  H20T17605   2.602   5.887   4.932
  158SAPE   C3317606   2.609   4.853   6.158
  158SAPE   H3X17607   2.593   4.848   6.048
  158SAPE   H3Y17608   2.556   4.766   6.204
  158SAPE   C3417609   2.762   4.832   6.194
  158SAPE   H4X17610   2.802   4.745   6.138
  158SAPE   H4Y17611   2.778   4.820   6.304
  158SAPE   C3517612   2.850   4.944   6.144
  158SAPE   H5X17613   2.954   4.949   6.181
  158SAPE   H5Y17614   2.806   5.043   6.170
  158SAPE   C3617615   2.850   4.963   5.984
  158SAPE   H6X17616   2.753   5.010   5.957
  158SAPE   H6Y17617   2.837   4.863   5.938
  158SAPE   C3717618   2.970   5.046   5.940
  158SAPE   H7X17619   3.056   5.003   5.996
  158SAPE   H7Y17620   2.962   5.150   5.979
  158SAPE   C3817621   3.003   5.041   5.790
  158SAPE   H8X17622   3.008   4.936   5.754
  158SAPE   H8Y17623   3.090   5.106   5.767
  158SAPE   C3917624   2.891   5.097   5.708
  158SAPE   H9X17625   2.866   5.202   5.732
  158SAPE   H9Y17626   2.796   5.043   5.728
  158SAPE  C31017627   2.919   5.087   5.554
  158SAPE  H10X17628   2.962   4.986   5.533
  158SAPE  H10Y17629   2.990   5.168   5.529
  158SAPE  C31117630   2.797   5.124   5.463
  158SAPE  H11X17631   2.751   5.204   5.524
  158SAPE  H11Y17632   2.728   5.037   5.460
  158SAPE  C31217633   2.828   5.159   5.319
  158SAPE  H12X17634   2.911   5.230   5.303
  158SAPE  H12Y17635   2.750   5.207   5.256
  158SAPE  C31317636   2.871   5.031   5.247
  158SAPE  H13X17637   2.789   4.956   5.250
  158SAPE  H13Y17638   2.954   4.988   5.307
  158SAPE  C31417639   2.923   5.066   5.108
  158SAPE  H14X17640   2.964   4.976   5.056
  158SAPE  H14Y17641   2.992   5.153   5.108
  158SAPE  C31517642   2.808   5.115   5.008
  158SAPE  H15X17643   2.771   5.216   5.038
  158SAPE  H15Y17644   2.719   5.049   5.020
  158SAPE  C31617645   2.869   5.113   4.871
  158SAPE  H16X17646   2.893   5.006   4.854
  158SAPE  H16Y17647   2.969   5.160   4.880
  158SAPE  C31717648   2.778   5.175   4.761
  158SAPE  H17X17649   2.693   5.108   4.738
  158SAPE  H17Y17650   2.842   5.179   4.671
  158SAPE  C31817651   2.728   5.316   4.796
  158SAPE  H18X17652   2.642   5.318   4.866
  158SAPE  H18Y17653   2.692   5.374   4.709
  158SAPE  H18Z17654   2.819   5.370   4.830
  159SAPE     N17655   5.310   3.228   1.749
  159SAPE   HN117656   5.383   3.285   1.796
  159SAPE   HN217657   5.339   3.218   1.650
  159SAPE   HN317658   5.225   3.289   1.749
  159SAPE   C1217659   5.290   3.090   1.806
  159SAPE  H12A17660   5.389   3.039   1.803
  159SAPE  H12B17661   5.217   3.036   1.741
  159SAPE   C1117662   5.237   3.097   1.949
  159SAPE  H11A17663   5.238   2.996   1.995
  159SAPE  H11B17664   5.132   3.132   1.947
  159SAPE     P17665   5.236   3.261   2.146
  159SAPE   O1317666   5.176   3.387   2.097
  159SAPE   O1417667   5.152   3.158   2.208
  159SAPE   O1217668   5.313   3.185   2.030
  159SAPE   O1117669   5.355   3.293   2.245
  159SAPE    C117670   5.430   3.189   2.306
  159SAPE    HA17671   5.373   3.096   2.326
  159SAPE    HB17672   5.516   3.172   2.238
  159SAPE    C217673   5.498   3.233   2.448
  159SAPE    HS17674   5.565   3.153   2.485
  159SAPE   O2117675   5.400   3.256   2.553
  159SAPE   C2117676   5.342   3.145   2.611
  159SAPE   O2217677   5.368   3.033   2.578
  159SAPE   C2217678   5.241   3.188   2.719
  159SAPE   H2R17679   5.221   3.296   2.704
  159SAPE   H2S17680   5.154   3.122   2.699
  159SAPE    C317681   5.595   3.354   2.434
  159SAPE    HX17682   5.530   3.438   2.404
  159SAPE    HY17683   5.668   3.314   2.361
  159SAPE   O3117684   5.671   3.389   2.554
  159SAPE   C3117685   5.755   3.486   2.513
  159SAPE   O3217686   5.749   3.539   2.404
  159SAPE   C3217687   5.853   3.525   2.623
  159SAPE   H2X17688   5.870   3.635   2.619
  159SAPE   H2Y17689   5.948   3.473   2.598
  159SAPE   C2317690   5.286   3.164   2.861
  159SAPE   H3R17691   5.368   3.233   2.888
  159SAPE   H3S17692   5.328   3.062   2.860
  159SAPE   C2417693   5.174   3.166   2.968
  159SAPE   H4R17694   5.214   3.098   3.046
  159SAPE   H4S17695   5.083   3.117   2.928
  159SAPE   C2517696   5.159   3.304   3.019
  159SAPE   H5R17697   5.085   3.376   2.980
  159SAPE   C2617698   5.250   3.361   3.103
  159SAPE   H6R17699   5.235   3.462   3.144
  159SAPE   C2717700   5.377   3.299   3.163
  159SAPE   H7R17701   5.468   3.327   3.105
  159SAPE   H7S17702   5.368   3.188   3.159
  159SAPE   C2817703   5.406   3.351   3.303
  159SAPE   H8R17704   5.465   3.444   3.305
  159SAPE   C2917705   5.356   3.295   3.413
  159SAPE   H9R17706   5.382   3.319   3.517
  159SAPE  C21017707   5.270   3.170   3.408
  159SAPE  H10R17708   5.331   3.089   3.363
  159SAPE  H10S17709   5.183   3.177   3.339
  159SAPE  C21117710   5.206   3.122   3.537
  159SAPE  H11R17711   5.132   3.190   3.582
  159SAPE  C21217712   5.215   3.004   3.607
  159SAPE  H12R17713   5.155   2.981   3.696
  159SAPE  C21317714   5.304   2.891   3.563
  159SAPE  H13R17715   5.296   2.892   3.452
  159SAPE  H13S17716   5.267   2.793   3.598
  159SAPE  C21417717   5.448   2.914   3.599
  159SAPE  H14R17718   5.489   3.010   3.565
  159SAPE  C21517719   5.521   2.842   3.685
  159SAPE  H15R17720   5.620   2.884   3.709
  159SAPE  C21617721   5.480   2.716   3.761
  159SAPE  H16R17722   5.564   2.644   3.748
  159SAPE  H16S17723   5.383   2.676   3.724
  159SAPE  C21717724   5.469   2.753   3.910
  159SAPE  H17R17725   5.546   2.831   3.932
  159SAPE  H17S17726   5.493   2.672   3.981
  159SAPE  C21817727   5.338   2.822   3.945
  159SAPE  H18R17728   5.250   2.763   3.913
  159SAPE  H18S17729   5.338   2.918   3.889
  159SAPE  C21917730   5.338   2.847   4.100
  159SAPE  H19R17731   5.297   2.948   4.121
  159SAPE  H19S17732   5.446   2.834   4.123
  159SAPE  C22017733   5.242   2.750   4.174
  159SAPE  H20R17734   5.136   2.758   4.142
  159SAPE  H20S17735   5.248   2.772   4.283
  159SAPE  H20T17736   5.280   2.647   4.153
  159SAPE   C3317737   5.812   3.495   2.766
  159SAPE   H3X17738   5.787   3.387   2.773
  159SAPE   H3Y17739   5.731   3.567   2.788
  159SAPE   C3417740   5.937   3.503   2.864
  159SAPE   H4X17741   5.975   3.607   2.863
  159SAPE   H4Y17742   6.015   3.440   2.815
  159SAPE   C3517743   5.901   3.451   3.002
  159SAPE   H5X17744   5.889   3.341   2.986
  159SAPE   H5Y17745   5.803   3.491   3.035
  159SAPE   C3617746   6.011   3.475   3.104
  159SAPE   H6X17747   6.021   3.583   3.132
  159SAPE   H6Y17748   6.104   3.436   3.057
  159SAPE   C3717749   5.982   3.402   3.237
  159SAPE   H7X17750   5.977   3.293   3.215
  159SAPE   H7Y17751   5.880   3.426   3.274
  159SAPE   C3817752   6.092   3.425   3.343
  159SAPE   H8X17753   6.190   3.382   3.314
  159SAPE   H8Y17754   6.052   3.374   3.434
  159SAPE   C3917755   6.119   3.570   3.378
  159SAPE   H9X17756   6.023   3.620   3.406
  159SAPE   H9Y17757   6.155   3.634   3.294
  159SAPE  C31017758   6.220   3.576   3.496
  159SAPE  H10X17759   6.322   3.552   3.458
  159SAPE  H10Y17760   6.189   3.494   3.565
  159SAPE  C31117761   6.218   3.706   3.569
  159SAPE  H11X17762   6.225   3.803   3.516
  159SAPE  H11Y17763   6.310   3.704   3.632
  159SAPE  C31217764   6.107   3.734   3.675
  159SAPE  H12X17765   6.091   3.644   3.738
  159SAPE  H12Y17766   6.009   3.770   3.636
  159SAPE  C31317767   6.150   3.835   3.785
  159SAPE  H13X17768   6.197   3.925   3.740
  159SAPE  H13Y17769   6.238   3.796   3.840
  159SAPE  C31417770   6.045   3.879   3.890
  159SAPE  H14X17771   6.015   3.789   3.949
  159SAPE  H14Y17772   5.953   3.913   3.838
  159SAPE  C31517773   6.086   3.981   4.008
  159SAPE  H15X17774   6.077   4.077   3.953
  159SAPE  H15Y17775   6.195   3.975   4.030
  159SAPE  C31617776   5.997   3.952   4.131
  159SAPE  H16X17777   5.891   3.960   4.100
  159SAPE  H16Y17778   6.024   4.038   4.196
  159SAPE  C31717779   6.014   3.821   4.216
  159SAPE  H17X17780   6.121   3.801   4.237
  159SAPE  H17Y17781   5.977   3.735   4.156
  159SAPE  C31817782   5.934   3.827   4.347
  159SAPE  H18X17783   5.931   3.730   4.401
  159SAPE  H18Y17784   5.830   3.865   4.334
  159SAPE  H18Z17785   5.974   3.907   4.413
  160SAPE     N17786   5.077   2.915   2.271
  160SAPE   HN117787   5.104   3.005   2.227
  160SAPE   HN217788   4.974   2.915   2.259
  160SAPE   HN317789   5.114   2.913   2.368
  160SAPE   C1217790   5.134   2.800   2.195
  160SAPE  H12A17791   5.244   2.804   2.206
  160SAPE  H12B17792   5.103   2.814   2.089
  160SAPE   C1117793   5.072   2.668   2.244
  160SAPE  H11A17794   5.105   2.666   2.351
  160SAPE  H11B17795   5.117   2.584   2.187
  160SAPE     P17796   4.849   2.528   2.202
  160SAPE   O1317797   4.708   2.569   2.189
  160SAPE   O1417798   4.915   2.455   2.094
  160SAPE   O1217799   4.930   2.664   2.234
  160SAPE   O1117800   4.871   2.450   2.339
  160SAPE    C117801   4.867   2.521   2.466
  160SAPE    HA17802   4.970   2.558   2.486
  160SAPE    HB17803   4.809   2.615   2.452
  160SAPE    C217804   4.824   2.430   2.597
  160SAPE    HS17805   4.867   2.487   2.682
  160SAPE   O2117806   4.864   2.289   2.596
  160SAPE   C2117807   4.992   2.272   2.592
  160SAPE   O2217808   5.079   2.353   2.610
  160SAPE   C2217809   5.004   2.110   2.586
  160SAPE   H2R17810   4.902   2.067   2.593
  160SAPE   H2S17811   5.033   2.087   2.482
  160SAPE    C317812   4.670   2.443   2.602
  160SAPE    HX17813   4.620   2.408   2.509
  160SAPE    HY17814   4.643   2.551   2.606
  160SAPE   O3117815   4.614   2.371   2.717
  160SAPE   C3117816   4.586   2.237   2.695
  160SAPE   O3217817   4.563   2.188   2.588
  160SAPE   C3217818   4.582   2.161   2.827
  160SAPE   H2X17819   4.505   2.214   2.887
  160SAPE   H2Y17820   4.684   2.166   2.870
  160SAPE   C2317821   5.104   2.052   2.695
  160SAPE   H3R17822   5.205   2.097   2.684
  160SAPE   H3S17823   5.118   1.943   2.680
  160SAPE   C2417824   5.052   2.081   2.835
  160SAPE   H4R17825   4.960   2.020   2.846
  160SAPE   H4S17826   5.021   2.188   2.842
  160SAPE   C2517827   5.148   2.042   2.945
  160SAPE   H5R17828   5.245   2.094   2.935
  160SAPE   C2617829   5.133   1.959   3.056
  160SAPE   H6R17830   5.213   1.931   3.127
  160SAPE   C2717831   4.999   1.875   3.059
  160SAPE   H7R17832   4.948   1.860   2.962
  160SAPE   H7S17833   4.927   1.940   3.112
  160SAPE   C2817834   5.019   1.734   3.116
  160SAPE   H8R17835   5.003   1.654   3.042
  160SAPE   C2917836   5.031   1.698   3.248
  160SAPE   H9R17837   5.058   1.598   3.285
  160SAPE  C21017838   5.044   1.798   3.362
  160SAPE  H10R17839   5.044   1.907   3.342
  160SAPE  H10S17840   5.143   1.784   3.409
  160SAPE  C21117841   4.936   1.765   3.458
  160SAPE  H11R17842   4.837   1.745   3.415
  160SAPE  C21217843   4.952   1.781   3.593
  160SAPE  H12R17844   4.864   1.757   3.654
  160SAPE  C21317845   5.071   1.817   3.669
  160SAPE  H13R17846   5.042   1.910   3.723
  160SAPE  H13S17847   5.159   1.855   3.614
  160SAPE  C21417848   5.121   1.709   3.763
  160SAPE  H14R17849   5.144   1.618   3.705
  160SAPE  C21517850   5.136   1.711   3.894
  160SAPE  H15R17851   5.159   1.614   3.940
  160SAPE  C21617852   5.083   1.818   3.986
  160SAPE  H16R17853   5.064   1.919   3.942
  160SAPE  H16S17854   5.158   1.830   4.067
  160SAPE  C21717855   4.952   1.766   4.041
  160SAPE  H17R17856   4.963   1.659   4.068
  160SAPE  H17S17857   4.875   1.763   3.962
  160SAPE  C21817858   4.892   1.839   4.163
  160SAPE  H18R17859   4.781   1.840   4.164
  160SAPE  H18S17860   4.919   1.946   4.160
  160SAPE  C21917861   4.938   1.802   4.300
  160SAPE  H19R17862   5.046   1.779   4.285
  160SAPE  H19S17863   4.910   1.700   4.334
  160SAPE  C22017864   4.925   1.903   4.405
  160SAPE  H20R17865   4.985   1.869   4.492
  160SAPE  H20S17866   4.819   1.922   4.435
  160SAPE  H20T17867   4.966   1.999   4.366
  160SAPE   C3317868   4.550   2.009   2.824
  160SAPE   H3X17869   4.581   1.969   2.725
  160SAPE   H3Y17870   4.441   1.992   2.818
  160SAPE   C3417871   4.592   1.933   2.947
  160SAPE   H4X17872   4.702   1.951   2.952
  160SAPE   H4Y17873   4.579   1.823   2.940
  160SAPE   C3517874   4.533   1.981   3.076
  160SAPE   H5X17875   4.427   1.973   3.044
  160SAPE   H5Y17876   4.555   2.088   3.094
  160SAPE   C3617877   4.573   1.893   3.197
  160SAPE   H6X17878   4.681   1.911   3.214
  160SAPE   H6Y17879   4.561   1.787   3.166
  160SAPE   C3717880   4.478   1.915   3.310
  160SAPE   H7X17881   4.380   1.878   3.272
  160SAPE   H7Y17882   4.472   2.023   3.338
  160SAPE   C3817883   4.499   1.815   3.426
  160SAPE   H8X17884   4.604   1.824   3.461
  160SAPE   H8Y17885   4.469   1.717   3.383
  160SAPE   C3917886   4.396   1.846   3.536
  160SAPE   H9X17887   4.299   1.803   3.502
  160SAPE   H9Y17888   4.389   1.957   3.545
  160SAPE  C31017889   4.430   1.780   3.670
  160SAPE  H10X17890   4.523   1.818   3.719
  160SAPE  H10Y17891   4.434   1.670   3.657
  160SAPE  C31117892   4.317   1.816   3.775
  160SAPE  H11X17893   4.220   1.806   3.722
  160SAPE  H11Y17894   4.325   1.924   3.800
  160SAPE  C31217895   4.337   1.760   3.916
  160SAPE  H12X17896   4.253   1.792   3.980
  160SAPE  H12Y17897   4.436   1.792   3.956
  160SAPE  C31317898   4.343   1.608   3.925
  160SAPE  H13X17899   4.425   1.571   3.861
  160SAPE  H13Y17900   4.247   1.569   3.884
  160SAPE  C31417901   4.361   1.540   4.067
  160SAPE  H14X17902   4.379   1.434   4.040
  160SAPE  H14Y17903   4.270   1.555   4.128
  160SAPE  C31517904   4.483   1.591   4.144
  160SAPE  H15X17905   4.469   1.699   4.165
  160SAPE  H15Y17906   4.576   1.580   4.084
  160SAPE  C31617907   4.502   1.510   4.273
  160SAPE  H16X17908   4.501   1.400   4.257
  160SAPE  H16Y17909   4.408   1.536   4.325
  160SAPE  C31717910   4.630   1.543   4.357
  160SAPE  H17X17911   4.615   1.621   4.436
  160SAPE  H17Y17912   4.708   1.578   4.287
  160SAPE  C31817913   4.694   1.427   4.440
  160SAPE  H18X17914   4.791   1.464   4.481
  160SAPE  H18Y17915   4.718   1.341   4.374
  160SAPE  H18Z17916   4.629   1.383   4.518
  161SAPE     N17917   1.515   4.268   2.014
  161SAPE   HN117918   1.532   4.366   1.982
  161SAPE   HN217919   1.565   4.203   1.951
  161SAPE   HN317920   1.413   4.256   1.999
  161SAPE   C1217921   1.536   4.239   2.160
  161SAPE  H12A17922   1.483   4.146   2.189
  161SAPE  H12B17923   1.485   4.322   2.214
  161SAPE   C1117924   1.679   4.248   2.210
  161SAPE  H11A17925   1.733   4.151   2.203
  161SAPE  H11B17926   1.669   4.273   2.318
  161SAPE     P17927   1.885   4.323   2.079
  161SAPE   O1317928   1.869   4.203   2.002
  161SAPE   O1417929   1.941   4.447   2.015
  161SAPE   O1217930   1.745   4.350   2.149
  161SAPE   O1117931   1.967   4.299   2.209
  161SAPE    C117932   2.035   4.396   2.292
  161SAPE    HA17933   2.129   4.428   2.244
  161SAPE    HB17934   1.966   4.483   2.296
  161SAPE    C217935   2.073   4.345   2.440
  161SAPE    HS17936   2.133   4.426   2.488
  161SAPE   O2117937   2.137   4.222   2.450
  161SAPE   C2117938   2.253   4.222   2.384
  161SAPE   O2217939   2.325   4.319   2.363
  161SAPE   C2217940   2.296   4.075   2.361
  161SAPE   H2R17941   2.204   4.015   2.343
  161SAPE   H2S17942   2.338   4.063   2.259
  161SAPE    C317943   1.946   4.328   2.523
  161SAPE    HX17944   1.869   4.264   2.472
  161SAPE    HY17945   1.891   4.424   2.527
  161SAPE   O3117946   1.968   4.291   2.656
  161SAPE   C3117947   1.949   4.163   2.698
  161SAPE   O3217948   1.914   4.072   2.626
  161SAPE   C3217949   2.000   4.152   2.840
  161SAPE   H2X17950   1.950   4.065   2.887
  161SAPE   H2Y17951   1.977   4.248   2.892
  161SAPE   C2317952   2.389   4.028   2.474
  161SAPE   H3R17953   2.399   4.105   2.554
  161SAPE   H3S17954   2.485   4.029   2.419
  161SAPE   C2417955   2.367   3.885   2.524
  161SAPE   H4R17956   2.447   3.876   2.600
  161SAPE   H4S17957   2.382   3.815   2.438
  161SAPE   C2517958   2.230   3.865   2.586
  161SAPE   H5R17959   2.158   3.938   2.546
  161SAPE   C2617960   2.199   3.800   2.705
  161SAPE   H6R17961   2.092   3.790   2.728
  161SAPE   C2717962   2.286   3.706   2.781
  161SAPE   H7R17963   2.363   3.666   2.712
  161SAPE   H7S17964   2.216   3.625   2.812
  161SAPE   C2817965   2.350   3.787   2.887
  161SAPE   H8R17966   2.411   3.869   2.847
  161SAPE   C2917967   2.317   3.786   3.016
  161SAPE   H9R17968   2.369   3.852   3.088
  161SAPE  C21017969   2.229   3.682   3.089
  161SAPE  H10R17970   2.194   3.611   3.011
  161SAPE  H10S17971   2.139   3.716   3.145
  161SAPE  C21117972   2.314   3.611   3.190
  161SAPE  H11R17973   2.399   3.552   3.153
  161SAPE  C21217974   2.301   3.617   3.326
  161SAPE  H12R17975   2.375   3.561   3.384
  161SAPE  C21317976   2.212   3.694   3.419
  161SAPE  H13R17977   2.161   3.775   3.362
  161SAPE  H13S17978   2.277   3.739   3.496
  161SAPE  C21417979   2.108   3.606   3.486
  161SAPE  H14R17980   2.042   3.552   3.416
  161SAPE  C21517981   2.089   3.588   3.622
  161SAPE  H15R17982   2.012   3.517   3.657
  161SAPE  C21617983   2.160   3.655   3.735
  161SAPE  H16R17984   2.099   3.734   3.784
  161SAPE  H16S17985   2.248   3.716   3.705
  161SAPE  C21717986   2.217   3.537   3.820
  161SAPE  H17R17987   2.284   3.578   3.899
  161SAPE  H17S17988   2.290   3.477   3.761
  161SAPE  C21817989   2.114   3.450   3.897
  161SAPE  H18R17990   2.043   3.413   3.820
  161SAPE  H18S17991   2.046   3.508   3.963
  161SAPE  C21917992   2.188   3.332   3.965
  161SAPE  H19R17993   2.259   3.386   4.031
  161SAPE  H19S17994   2.251   3.275   3.893
  161SAPE  C22017995   2.105   3.230   4.046
  161SAPE  H20R17996   2.173   3.160   4.098
  161SAPE  H20S17997   2.043   3.172   3.974
  161SAPE  H20T17998   2.038   3.278   4.121
  161SAPE   C3317999   2.150   4.145   2.860
  161SAPE   H3X18000   2.203   4.241   2.838
  161SAPE   H3Y18001   2.208   4.082   2.789
  161SAPE   C3418002   2.170   4.090   3.000
  161SAPE   H4X18003   2.276   4.058   3.014
  161SAPE   H4Y18004   2.118   3.992   3.011
  161SAPE   C3518005   2.140   4.189   3.108
  161SAPE   H5X18006   2.030   4.203   3.111
  161SAPE   H5Y18007   2.193   4.281   3.075
  161SAPE   C3618008   2.179   4.155   3.253
  161SAPE   H6X18009   2.204   4.250   3.306
  161SAPE   H6Y18010   2.264   4.084   3.249
  161SAPE   C3718011   2.070   4.082   3.334
  161SAPE   H7X18012   2.030   3.990   3.287
  161SAPE   H7Y18013   1.984   4.149   3.354
  161SAPE   C3818014   2.130   4.047   3.471
  161SAPE   H8X18015   2.228   3.996   3.466
  161SAPE   H8Y18016   2.063   3.978   3.526
  161SAPE   C3918017   2.149   4.169   3.556
  161SAPE   H9X18018   2.075   4.245   3.524
  161SAPE   H9Y18019   2.246   4.219   3.532
  161SAPE  C31018020   2.137   4.143   3.709
  161SAPE  H10X18021   2.218   4.073   3.740
  161SAPE  H10Y18022   2.038   4.098   3.732
  161SAPE  C31118023   2.136   4.266   3.799
  161SAPE  H11X18024   2.057   4.323   3.747
  161SAPE  H11Y18025   2.235   4.314   3.784
  161SAPE  C31218026   2.116   4.227   3.947
  161SAPE  H12X18027   2.177   4.138   3.973
  161SAPE  H12Y18028   2.007   4.213   3.966
  161SAPE  C31318029   2.144   4.337   4.055
  161SAPE  H13X18030   2.099   4.430   4.013
  161SAPE  H13Y18031   2.253   4.342   4.077
  161SAPE  C31418032   2.068   4.312   4.185
  161SAPE  H14X18033   2.098   4.221   4.242
  161SAPE  H14Y18034   1.960   4.287   4.170
  161SAPE  C31518035   2.059   4.428   4.280
  161SAPE  H15X18036   1.983   4.421   4.361
  161SAPE  H15Y18037   2.034   4.516   4.217
  161SAPE  C31618038   2.194   4.472   4.345
  161SAPE  H16X18039   2.198   4.582   4.360
  161SAPE  H16Y18040   2.272   4.450   4.269
  161SAPE  C31718041   2.206   4.402   4.484
  161SAPE  H17X18042   2.207   4.293   4.465
  161SAPE  H17Y18043   2.111   4.430   4.535
  161SAPE  C31818044   2.318   4.449   4.565
  161SAPE  H18X18045   2.413   4.424   4.514
  161SAPE  H18Y18046   2.321   4.390   4.659
  161SAPE  H18Z18047   2.319   4.557   4.593
  162SAPE     N18048   2.718   0.420   2.200
  162SAPE   HN118049   2.755   0.467   2.116
  162SAPE   HN218050   2.794   0.398   2.268
  162SAPE   HN318051   2.670   0.331   2.173
  162SAPE   C1218052   2.629   0.523   2.266
  162SAPE  H12A18053   2.529   0.524   2.217
  162SAPE  H12B18054   2.673   0.624   2.255
  162SAPE   C1118055   2.599   0.479   2.406
  162SAPE  H11A18056   2.546   0.561   2.458
  162SAPE  H11B18057   2.685   0.470   2.475
  162SAPE     P18058   2.392   0.349   2.514
  162SAPE   O1318059   2.317   0.474   2.536
  162SAPE   O1418060   2.312   0.238   2.460
  162SAPE   O1218061   2.511   0.367   2.410
  162SAPE   O1118062   2.454   0.301   2.653
  162SAPE    C118063   2.576   0.238   2.665
  162SAPE    HA18064   2.640   0.249   2.575
  162SAPE    HB18065   2.643   0.283   2.741
  162SAPE    C218066   2.576   0.091   2.701
  162SAPE    HS18067   2.551   0.027   2.613
  162SAPE   O2118068   2.486   0.063   2.810
  162SAPE   C2118069   2.357   0.044   2.782
  162SAPE   O2218070   2.311   0.006   2.674
  162SAPE   C2218071   2.276   0.052   2.911
  162SAPE   H2R18072   2.311   6.868   2.990
  162SAPE   H2S18073   2.282   0.153   2.956
  162SAPE    C318074   2.726   0.054   2.735
  162SAPE    HX18075   2.774   0.131   2.799
  162SAPE    HY18076   2.777   0.037   2.638
  162SAPE   O3118077   2.721   6.818   2.817
  162SAPE   C3118078   2.837   6.752   2.808
  162SAPE   O3218079   2.935   6.782   2.742
  162SAPE   C3218080   2.828   6.628   2.892
  162SAPE   H2X18081   2.907   6.557   2.860
  162SAPE   H2Y18082   2.734   6.575   2.869
  162SAPE   C2318083   2.123   0.040   2.891
  162SAPE   H3R18084   2.086   0.106   2.809
  162SAPE   H3S18085   2.086   0.085   2.985
  162SAPE   C2418086   2.071   6.781   2.883
  162SAPE   H4R18087   2.099   6.739   2.982
  162SAPE   H4S18088   2.118   6.724   2.800
  162SAPE   C2518089   1.922   6.776   2.863
  162SAPE   H5R18090   1.882   6.819   2.770
  162SAPE   C2618091   1.835   6.753   2.961
  162SAPE   H6R18092   1.730   6.743   2.930
  162SAPE   C2718093   1.866   6.707   3.105
  162SAPE   H7R18094   1.891   6.803   3.156
  162SAPE   H7S18095   1.949   6.634   3.106
  162SAPE   C2818096   1.737   6.647   3.159
  162SAPE   H8R18097   1.642   6.671   3.109
  162SAPE   C2918098   1.723   6.578   3.272
  162SAPE   H9R18099   1.625   6.553   3.316
  162SAPE  C21018100   1.848   6.535   3.346
  162SAPE  H10R18101   1.910   6.623   3.374
  162SAPE  H10S18102   1.917   6.479   3.279
  162SAPE  C21118103   1.819   6.451   3.467
  162SAPE  H11R18104   1.757   6.361   3.455
  162SAPE  C21218105   1.852   6.479   3.601
  162SAPE  H12R18106   1.842   6.408   3.684
  162SAPE  C21318107   1.923   6.605   3.643
  162SAPE  H13R18108   1.853   6.689   3.625
  162SAPE  H13S18109   2.012   6.624   3.579
  162SAPE  C21418110   1.976   6.607   3.787
  162SAPE  H14R18111   1.925   6.681   3.850
  162SAPE  C21518112   2.062   6.521   3.847
  162SAPE  H15R18113   2.083   6.533   3.954
  162SAPE  C21618114   2.137   6.410   3.777
  162SAPE  H16R18115   2.144   6.425   3.667
  162SAPE  H16S18116   2.077   6.317   3.790
  162SAPE  C21718117   2.286   6.399   3.812
  162SAPE  H17R18118   2.341   6.338   3.737
  162SAPE  H17S18119   2.300   6.364   3.916
  162SAPE  C21818120   2.370   6.519   3.784
  162SAPE  H18R18121   2.363   6.579   3.877
  162SAPE  H18S18122   2.338   6.581   3.698
  162SAPE  C21918123   2.518   6.478   3.779
  162SAPE  H19R18124   2.540   6.412   3.693
  162SAPE  H19S18125   2.544   6.422   3.872
  162SAPE  C22018126   2.616   6.599   3.776
  162SAPE  H20R18127   2.600   6.666   3.863
  162SAPE  H20S18128   2.595   6.652   3.681
  162SAPE  H20T18129   2.719   6.558   3.780
  162SAPE   C3318130   2.830   6.647   3.048
  162SAPE   H3X18131   2.769   6.565   3.092
  162SAPE   H3Y18132   2.776   6.744   3.061
  162SAPE   C3418133   2.972   6.660   3.098
  162SAPE   H4X18134   3.029   6.719   3.023
  162SAPE   H4Y18135   3.024   6.561   3.100
  162SAPE   C3518136   2.984   6.717   3.235
  162SAPE   H5X18137   2.921   6.807   3.249
  162SAPE   H5Y18138   3.092   6.738   3.251
  162SAPE   C3618139   2.931   6.634   3.347
  162SAPE   H6X18140   2.974   6.532   3.355
  162SAPE   H6Y18141   2.820   6.624   3.349
  162SAPE   C3718142   2.959   6.671   3.493
  162SAPE   H7X18143   2.923   6.593   3.563
  162SAPE   H7Y18144   2.905   6.764   3.520
  162SAPE   C3818145   3.108   6.668   3.526
  162SAPE   H8X18146   3.152   6.749   3.464
  162SAPE   H8Y18147   3.143   6.566   3.499
  162SAPE   C3918148   3.150   6.684   3.676
  162SAPE   H9X18149   3.134   6.790   3.707
  162SAPE   H9Y18150   3.260   6.676   3.684
  162SAPE  C31018151   3.097   6.577   3.778
  162SAPE  H10X18152   3.152   6.484   3.754
  162SAPE  H10Y18153   2.988   6.558   3.770
  162SAPE  C31118154   3.125   6.617   3.924
  162SAPE  H11X18155   3.088   6.718   3.953
  162SAPE  H11Y18156   3.231   6.616   3.958
  162SAPE  C31218157   3.056   6.524   4.014
  162SAPE  H12X18158   3.105   6.505   4.111
  162SAPE  H12Y18159   3.052   6.423   3.969
  162SAPE  C31318160   2.914   6.568   4.032
  162SAPE  H13X18161   2.856   6.536   3.943
  162SAPE  H13Y18162   2.905   6.679   4.037
  162SAPE  C31418163   2.846   6.507   4.153
  162SAPE  H14X18164   2.917   6.539   4.232
  162SAPE  H14Y18165   2.872   6.400   4.137
  162SAPE  C31518166   2.701   6.541   4.170
  162SAPE  H15X18167   2.633   6.499   4.092
  162SAPE  H15Y18168   2.687   6.644   4.131
  162SAPE  C31618169   2.660   6.523   4.310
  162SAPE  H16X18170   2.713   6.596   4.374
  162SAPE  H16Y18171   2.676   6.417   4.339
  162SAPE  C31718172   2.509   6.531   4.323
  162SAPE  H17X18173   2.482   6.509   4.428
  162SAPE  H17Y18174   2.459   6.450   4.267
  162SAPE  C31818175   2.447   6.664   4.272
  162SAPE  H18X18176   2.337   6.649   4.279
  162SAPE  H18Y18177   2.473   6.674   4.164
  162SAPE  H18Z18178   2.474   6.759   4.324
  163SAPE     N18179   2.203   3.412   1.820
  163SAPE   HN118180   2.224   3.503   1.865
  163SAPE   HN218181   2.285   3.361   1.782
  163SAPE   HN318182   2.131   3.422   1.745
  163SAPE   C1218183   2.149   3.320   1.930
  163SAPE  H12A18184   2.232   3.292   1.999
  163SAPE  H12B18185   2.120   3.225   1.880
  163SAPE   C1118186   2.030   3.395   1.997
  163SAPE  H11A18187   2.056   3.499   2.024
  163SAPE  H11B18188   2.018   3.335   2.090
  163SAPE     P18189   1.793   3.480   1.910
  163SAPE   O1318190   1.845   3.615   1.891
  163SAPE   O1418191   1.696   3.424   1.819
  163SAPE   O1218192   1.915   3.376   1.914
  163SAPE   O1118193   1.741   3.456   2.055
  163SAPE    C118194   1.707   3.323   2.105
  163SAPE    HA18195   1.678   3.261   2.018
  163SAPE    HB18196   1.792   3.266   2.147
  163SAPE    C218197   1.593   3.344   2.205
  163SAPE    HS18198   1.548   3.244   2.216
  163SAPE   O2118199   1.490   3.435   2.153
  163SAPE   C2118200   1.371   3.413   2.198
  163SAPE   O2218201   1.329   3.313   2.252
  163SAPE   C2218202   1.287   3.551   2.193
  163SAPE   H2R18203   1.346   3.634   2.238
  163SAPE   H2S18204   1.272   3.569   2.084
  163SAPE    C318205   1.657   3.404   2.331
  163SAPE    HX18206   1.695   3.500   2.289
  163SAPE    HY18207   1.746   3.350   2.370
  163SAPE   O3118208   1.564   3.433   2.440
  163SAPE   C3118209   1.551   3.328   2.527
  163SAPE   O3218210   1.594   3.215   2.515
  163SAPE   C3218211   1.467   3.380   2.644
  163SAPE   H2X18212   1.364   3.339   2.636
  163SAPE   H2Y18213   1.467   3.491   2.644
  163SAPE   C2318214   1.155   3.548   2.268
  163SAPE   H3R18215   1.103   3.450   2.262
  163SAPE   H3S18216   1.082   3.616   2.219
  163SAPE   C2418217   1.170   3.556   2.418
  163SAPE   H4R18218   1.265   3.610   2.439
  163SAPE   H4S18219   1.195   3.453   2.448
  163SAPE   C2518220   1.050   3.607   2.497
  163SAPE   H5R18221   0.952   3.573   2.463
  163SAPE   C2618222   1.041   3.681   2.608
  163SAPE   H6R18223   0.937   3.685   2.645
  163SAPE   C2718224   1.155   3.750   2.674
  163SAPE   H7R18225   1.124   3.857   2.683
  163SAPE   H7S18226   1.249   3.739   2.615
  163SAPE   C2818227   1.196   3.712   2.814
  163SAPE   H8R18228   1.238   3.610   2.812
  163SAPE   C2918229   1.175   3.772   2.926
  163SAPE   H9R18230   1.191   3.725   3.024
  163SAPE  C21018231   1.113   3.911   2.942
  163SAPE  H10R18232   1.072   3.921   3.045
  163SAPE  H10S18233   1.023   3.923   2.879
  163SAPE  C21118234   1.210   4.027   2.909
  163SAPE  H11R18235   1.245   4.023   2.805
  163SAPE  C21218236   1.245   4.118   2.997
  163SAPE  H12R18237   1.321   4.192   2.969
  163SAPE  C21318238   1.191   4.132   3.139
  163SAPE  H13R18239   1.084   4.105   3.124
  163SAPE  H13S18240   1.186   4.241   3.162
  163SAPE  C21418241   1.253   4.054   3.251
  163SAPE  H14R18242   1.360   4.029   3.254
  163SAPE  C21518243   1.184   3.972   3.330
  163SAPE  H15R18244   1.249   3.928   3.407
  163SAPE  C21618245   1.032   3.966   3.349
  163SAPE  H16R18246   0.983   3.870   3.321
  163SAPE  H16S18247   0.977   4.047   3.298
  163SAPE  C21718248   1.018   3.988   3.504
  163SAPE  H17R18249   0.910   3.992   3.527
  163SAPE  H17S18250   1.067   4.084   3.529
  163SAPE  C21818251   1.074   3.881   3.599
  163SAPE  H18R18252   1.183   3.869   3.585
  163SAPE  H18S18253   1.018   3.790   3.568
  163SAPE  C21918254   1.040   3.914   3.749
  163SAPE  H19R18255   0.937   3.880   3.776
  163SAPE  H19S18256   1.039   4.024   3.767
  163SAPE  C22018257   1.124   3.844   3.852
  163SAPE  H20R18258   1.073   3.872   3.946
  163SAPE  H20S18259   1.230   3.876   3.847
  163SAPE  H20T18260   1.122   3.733   3.848
  163SAPE   C3318261   1.523   3.342   2.784
  163SAPE   H3X18262   1.619   3.398   2.785
  163SAPE   H3Y18263   1.541   3.233   2.801
  163SAPE   C3418264   1.447   3.411   2.905
  163SAPE   H4X18265   1.339   3.389   2.899
  163SAPE   H4Y18266   1.454   3.521   2.889
  163SAPE   C3518267   1.511   3.380   3.039
  163SAPE   H5X18268   1.618   3.409   3.042
  163SAPE   H5Y18269   1.510   3.269   3.052
  163SAPE   C3618270   1.427   3.438   3.148
  163SAPE   H6X18271   1.324   3.398   3.164
  163SAPE   H6Y18272   1.414   3.546   3.124
  163SAPE   C3718273   1.506   3.420   3.280
  163SAPE   H7X18274   1.612   3.453   3.272
  163SAPE   H7Y18275   1.508   3.310   3.294
  163SAPE   C3818276   1.448   3.487   3.406
  163SAPE   H8X18277   1.338   3.472   3.401
  163SAPE   H8Y18278   1.467   3.595   3.388
  163SAPE   C3918279   1.509   3.436   3.529
  163SAPE   H9X18280   1.617   3.457   3.514
  163SAPE   H9Y18281   1.494   3.328   3.552
  163SAPE  C31018282   1.473   3.525   3.648
  163SAPE  H10X18283   1.363   3.510   3.654
  163SAPE  H10Y18284   1.499   3.630   3.622
  163SAPE  C31118285   1.533   3.472   3.778
  163SAPE  H11X18286   1.642   3.454   3.768
  163SAPE  H11Y18287   1.489   3.372   3.800
  163SAPE  C31218288   1.498   3.563   3.891
  163SAPE  H12X18289   1.388   3.555   3.901
  163SAPE  H12Y18290   1.516   3.668   3.859
  163SAPE  C31318291   1.575   3.521   4.020
  163SAPE  H13X18292   1.685   3.522   4.009
  163SAPE  H13Y18293   1.532   3.428   4.064
  163SAPE  C31418294   1.550   3.633   4.128
  163SAPE  H14X18295   1.441   3.627   4.146
  163SAPE  H14Y18296   1.585   3.728   4.083
  163SAPE  C31518297   1.635   3.608   4.253
  163SAPE  H15X18298   1.678   3.702   4.295
  163SAPE  H15Y18299   1.708   3.528   4.230
  163SAPE  C31618300   1.553   3.556   4.364
  163SAPE  H16X18301   1.602   3.469   4.412
  163SAPE  H16Y18302   1.461   3.508   4.325
  163SAPE  C31718303   1.525   3.671   4.464
  163SAPE  H17X18304   1.507   3.767   4.411
  163SAPE  H17Y18305   1.621   3.682   4.519
  163SAPE  C31818306   1.413   3.656   4.569
  163SAPE  H18X18307   1.410   3.739   4.643
  163SAPE  H18Y18308   1.418   3.563   4.630
  163SAPE  H18Z18309   1.311   3.654   4.524
  164SAPE     N18310   6.169   4.060   2.553
  164SAPE   HN118311   6.116   4.073   2.464
  164SAPE   HN218312   6.256   4.008   2.530
  164SAPE   HN318313   6.100   4.014   2.614
  164SAPE   C1218314   6.218   4.189   2.605
  164SAPE  H12A18315   6.292   4.230   2.534
  164SAPE  H12B18316   6.282   4.158   2.691
  164SAPE   C1118317   6.103   4.288   2.640
  164SAPE  H11A18318   6.146   4.378   2.689
  164SAPE  H11B18319   6.031   4.238   2.708
  164SAPE     P18320   6.017   4.462   2.458
  164SAPE   O1318321   6.151   4.507   2.426
  164SAPE   O1418322   5.930   4.459   2.339
  164SAPE   O1218323   6.017   4.320   2.522
  164SAPE   O1118324   5.960   4.565   2.562
  164SAPE    C118325   5.814   4.571   2.556
  164SAPE    HA18326   5.782   4.642   2.477
  164SAPE    HB18327   5.766   4.472   2.539
  164SAPE    C218328   5.761   4.605   2.700
  164SAPE    HS18329   5.801   4.701   2.738
  164SAPE   O2118330   5.793   4.507   2.797
  164SAPE   C2118331   5.912   4.521   2.853
  164SAPE   O2218332   5.992   4.617   2.850
  164SAPE   C2218333   5.933   4.406   2.948
  164SAPE   H2R18334   5.862   4.405   3.033
  164SAPE   H2S18335   5.928   4.308   2.895
  164SAPE    C318336   5.603   4.629   2.711
  164SAPE    HX18337   5.550   4.538   2.674
  164SAPE    HY18338   5.572   4.718   2.653
  164SAPE   O3118339   5.576   4.644   2.850
  164SAPE   C3118340   5.587   4.774   2.895
  164SAPE   O3218341   5.610   4.866   2.825
  164SAPE   C3218342   5.552   4.786   3.047
  164SAPE   H2X18343   5.451   4.745   3.066
  164SAPE   H2Y18344   5.556   4.895   3.063
  164SAPE   C2318345   6.079   4.418   2.995
  164SAPE   H3R18346   6.093   4.510   3.056
  164SAPE   H3S18347   6.138   4.429   2.902
  164SAPE   C2418348   6.131   4.301   3.066
  164SAPE   H4R18349   6.240   4.321   3.074
  164SAPE   H4S18350   6.137   4.209   3.003
  164SAPE   C2518351   6.073   4.256   3.202
  164SAPE   H5R18352   5.978   4.201   3.198
  164SAPE   C2618353   6.138   4.244   3.317
  164SAPE   H6R18354   6.066   4.226   3.398
  164SAPE   C2718355   6.281   4.279   3.350
  164SAPE   H7R18356   6.343   4.294   3.259
  164SAPE   H7S18357   6.326   4.192   3.401
  164SAPE   C2818358   6.271   4.409   3.426
  164SAPE   H8R18359   6.286   4.501   3.368
  164SAPE   C2918360   6.250   4.422   3.557
  164SAPE   H9R18361   6.243   4.522   3.604
  164SAPE  C21018362   6.247   4.315   3.664
  164SAPE  H10R18363   6.200   4.230   3.609
  164SAPE  H10S18364   6.179   4.341   3.748
  164SAPE  C21118365   6.379   4.280   3.729
  164SAPE  H11R18366   6.442   4.217   3.665
  164SAPE  C21218367   6.408   4.310   3.857
  164SAPE  H12R18368   6.508   4.279   3.892
  164SAPE  C21318369   6.315   4.386   3.954
  164SAPE  H13R18370   6.357   4.380   4.056
  164SAPE  H13S18371   6.209   4.351   3.955
  164SAPE  C21418372   6.314   4.529   3.917
  164SAPE  H14R18373   6.379   4.551   3.831
  164SAPE  C21518374   6.275   4.630   3.995
  164SAPE  H15R18375   6.292   4.732   3.956
  164SAPE  C21618376   6.222   4.619   4.139
  164SAPE  H16R18377   6.245   4.712   4.195
  164SAPE  H16S18378   6.287   4.537   4.175
  164SAPE  C21718379   6.078   4.581   4.161
  164SAPE  H17R18380   6.046   4.501   4.091
  164SAPE  H17S18381   6.024   4.677   4.145
  164SAPE  C21818382   6.048   4.511   4.294
  164SAPE  H18R18383   6.049   4.574   4.385
  164SAPE  H18S18384   6.124   4.434   4.321
  164SAPE  C21918385   5.906   4.447   4.298
  164SAPE  H19R18386   5.899   4.373   4.215
  164SAPE  H19S18387   5.827   4.525   4.287
  164SAPE  C22018388   5.871   4.377   4.423
  164SAPE  H20R18389   5.928   4.282   4.436
  164SAPE  H20S18390   5.762   4.353   4.426
  164SAPE  H20T18391   5.878   4.443   4.512
  164SAPE   C3318392   5.640   4.699   3.140
  164SAPE   H3X18393   5.745   4.722   3.112
  164SAPE   H3Y18394   5.622   4.590   3.129
  164SAPE   C3418395   5.627   4.731   3.293
  164SAPE   H4X18396   5.522   4.708   3.322
  164SAPE   H4Y18397   5.627   4.837   3.326
  164SAPE   C3518398   5.711   4.652   3.391
  164SAPE   H5X18399   5.816   4.675   3.366
  164SAPE   H5Y18400   5.692   4.543   3.390
  164SAPE   C3618401   5.675   4.700   3.528
  164SAPE   H6X18402   5.564   4.704   3.535
  164SAPE   H6Y18403   5.710   4.805   3.536
  164SAPE   C3718404   5.737   4.615   3.634
  164SAPE   H7X18405   5.842   4.591   3.605
  164SAPE   H7Y18406   5.681   4.520   3.650
  164SAPE   C3818407   5.740   4.689   3.773
  164SAPE   H8X18408   5.814   4.771   3.780
  164SAPE   H8Y18409   5.758   4.611   3.851
  164SAPE   C3918410   5.600   4.754   3.810
  164SAPE   H9X18411   5.580   4.840   3.742
  164SAPE   H9Y18412   5.606   4.796   3.913
  164SAPE  C31018413   5.474   4.660   3.801
  164SAPE  H10X18414   5.476   4.599   3.894
  164SAPE  H10Y18415   5.480   4.589   3.716
  164SAPE  C31118416   5.347   4.742   3.792
  164SAPE  H11X18417   5.348   4.798   3.696
  164SAPE  H11Y18418   5.350   4.811   3.878
  164SAPE  C31218419   5.221   4.657   3.810
  164SAPE  H12X18420   5.250   4.555   3.845
  164SAPE  H12Y18421   5.173   4.643   3.710
  164SAPE  C31318422   5.124   4.734   3.902
  164SAPE  H13X18423   5.091   4.830   3.857
  164SAPE  H13Y18424   5.174   4.775   3.992
  164SAPE  C31418425   5.003   4.657   3.948
  164SAPE  H14X18426   4.948   4.636   3.853
  164SAPE  H14Y18427   4.941   4.724   4.010
  164SAPE  C31518428   5.033   4.521   4.016
  164SAPE  H15X18429   5.089   4.536   4.110
  164SAPE  H15Y18430   5.108   4.459   3.962
  164SAPE  C31618431   4.901   4.442   4.049
  164SAPE  H16X18432   4.853   4.487   4.139
  164SAPE  H16Y18433   4.931   4.341   4.084
  164SAPE  C31718434   4.800   4.429   3.931
  164SAPE  H17X18435   4.843   4.393   3.835
  164SAPE  H17Y18436   4.757   4.528   3.906
  164SAPE  C31818437   4.680   4.341   3.972
  164SAPE  H18X18438   4.697   4.231   3.968
  164SAPE  H18Y18439   4.596   4.364   3.903
  164SAPE  H18Z18440   4.630   4.359   4.070
  165SAPE     N18441   5.758   1.035   2.363
  165SAPE   HN118442   5.726   1.050   2.461
  165SAPE   HN218443   5.845   0.977   2.362
  165SAPE   HN318444   5.795   1.123   2.322
  165SAPE   C1218445   5.644   0.979   2.293
  165SAPE  H12A18446   5.642   1.034   2.196
  165SAPE  H12B18447   5.553   1.006   2.351
  165SAPE   C1118448   5.658   0.829   2.256
  165SAPE  H11A18449   5.676   0.820   2.147
  165SAPE  H11B18450   5.566   0.768   2.257
  165SAPE     P18451   5.759   0.617   2.369
  165SAPE   O1318452   5.715   0.559   2.244
  165SAPE   O1418453   5.889   0.567   2.426
  165SAPE   O1218454   5.756   0.769   2.342
  165SAPE   O1118455   5.654   0.594   2.485
  165SAPE    C118456   5.610   0.689   2.586
  165SAPE    HA18457   5.674   0.781   2.584
  165SAPE    HB18458   5.510   0.726   2.554
  165SAPE    C218459   5.600   0.621   2.723
  165SAPE    HS18460   5.580   0.697   2.802
  165SAPE   O2118461   5.714   0.552   2.768
  165SAPE   C2118462   5.821   0.631   2.798
  165SAPE   O2218463   5.822   0.749   2.798
  165SAPE   C2218464   5.943   0.540   2.836
  165SAPE   H2R18465   5.904   0.447   2.883
  165SAPE   H2S18466   5.987   0.507   2.740
  165SAPE    C318467   5.485   0.521   2.728
  165SAPE    HX18468   5.513   0.433   2.667
  165SAPE    HY18469   5.397   0.566   2.676
  165SAPE   O3118470   5.448   0.500   2.860
  165SAPE   C3118471   5.493   0.388   2.919
  165SAPE   O3218472   5.551   0.297   2.864
  165SAPE   C3218473   5.475   0.404   3.070
  165SAPE   H2X18474   5.369   0.427   3.093
  165SAPE   H2Y18475   5.533   0.497   3.091
  165SAPE   C2318476   6.052   0.608   2.928
  165SAPE   H3R18477   6.078   0.710   2.893
  165SAPE   H3S18478   6.140   0.540   2.926
  165SAPE   C2418479   6.011   0.603   3.078
  165SAPE   H4R18480   6.105   0.614   3.136
  165SAPE   H4S18481   5.967   0.502   3.092
  165SAPE   C2518482   5.905   0.703   3.114
  165SAPE   H5R18483   5.885   0.785   3.044
  165SAPE   C2618484   5.822   0.691   3.225
  165SAPE   H6R18485   5.738   0.761   3.234
  165SAPE   C2718486   5.824   0.580   3.328
  165SAPE   H7R18487   5.933   0.565   3.344
  165SAPE   H7S18488   5.791   0.487   3.278
  165SAPE   C2818489   5.752   0.604   3.459
  165SAPE   H8R18490   5.668   0.675   3.459
  165SAPE   C2918491   5.765   0.518   3.561
  165SAPE   H9R18492   5.718   0.549   3.656
  165SAPE  C21018493   5.871   0.401   3.576
  165SAPE  H10R18494   5.913   0.367   3.479
  165SAPE  H10S18495   5.826   0.310   3.622
  165SAPE  C21118496   5.989   0.446   3.658
  165SAPE  H11R18497   6.083   0.462   3.603
  165SAPE  C21218498   5.989   0.468   3.790
  165SAPE  H12R18499   6.077   0.500   3.847
  165SAPE  C21318500   5.867   0.456   3.880
  165SAPE  H13R18501   5.782   0.395   3.842
  165SAPE  H13S18502   5.825   0.556   3.903
  165SAPE  C21418503   5.906   0.387   4.010
  165SAPE  H14R18504   5.896   0.278   4.002
  165SAPE  C21518505   5.964   0.445   4.119
  165SAPE  H15R18506   5.987   0.391   4.212
  165SAPE  C21618507   5.999   0.596   4.120
  165SAPE  H16R18508   5.961   0.645   4.212
  165SAPE  H16S18509   5.959   0.654   4.034
  165SAPE  C21718510   6.157   0.613   4.143
  165SAPE  H17R18511   6.216   0.531   4.096
  165SAPE  H17S18512   6.186   0.616   4.250
  165SAPE  C21818513   6.211   0.752   4.094
  165SAPE  H18R18514   6.149   0.837   4.131
  165SAPE  H18S18515   6.187   0.749   3.986
  165SAPE  C21918516   6.359   0.778   4.102
  165SAPE  H19R18517   6.406   0.686   4.062
  165SAPE  H19S18518   6.391   0.796   4.207
  165SAPE  C22018519   6.409   0.888   4.006
  165SAPE  H20R18520   6.350   0.977   4.031
  165SAPE  H20S18521   6.400   0.869   3.897
  165SAPE  H20T18522   6.517   0.902   4.029
  165SAPE   C3318523   5.522   0.283   3.159
  165SAPE   H3X18524   5.623   0.259   3.120
  165SAPE   H3Y18525   5.451   0.199   3.148
  165SAPE   C3418526   5.538   0.327   3.304
  165SAPE   H4X18527   5.571   0.433   3.310
  165SAPE   H4Y18528   5.617   0.267   3.354
  165SAPE   C3518529   5.413   0.317   3.399
  165SAPE   H5X18530   5.378   0.214   3.417
  165SAPE   H5Y18531   5.328   0.363   3.344
  165SAPE   C3618532   5.446   0.386   3.537
  165SAPE   H6X18533   5.486   0.489   3.524
  165SAPE   H6Y18534   5.524   0.326   3.587
  165SAPE   C3718535   5.328   0.386   3.636
  165SAPE   H7X18536   5.309   0.277   3.654
  165SAPE   H7Y18537   5.240   0.432   3.586
  165SAPE   C3818538   5.355   0.441   3.774
  165SAPE   H8X18539   5.391   0.545   3.759
  165SAPE   H8Y18540   5.444   0.390   3.816
  165SAPE   C3918541   5.249   0.415   3.884
  165SAPE   H9X18542   5.217   0.310   3.867
  165SAPE   H9Y18543   5.166   0.486   3.861
  165SAPE  C31018544   5.305   0.430   4.027
  165SAPE  H10X18545   5.339   0.535   4.039
  165SAPE  H10Y18546   5.391   0.363   4.050
  165SAPE  C31118547   5.196   0.378   4.122
  165SAPE  H11X18548   5.181   0.268   4.129
  165SAPE  H11Y18549   5.100   0.431   4.104
  165SAPE  C31218550   5.248   0.436   4.259
  165SAPE  H12X18551   5.234   0.546   4.249
  165SAPE  H12Y18552   5.358   0.419   4.250
  165SAPE  C31318553   5.174   0.394   4.386
  165SAPE  H13X18554   5.068   0.375   4.360
  165SAPE  H13Y18555   5.164   0.482   4.452
  165SAPE  C31418556   5.245   0.285   4.463
  165SAPE  H14X18557   5.349   0.318   4.484
  165SAPE  H14Y18558   5.259   0.193   4.402
  165SAPE  C31518559   5.184   0.243   4.596
  165SAPE  H15X18560   5.076   0.221   4.589
  165SAPE  H15Y18561   5.202   0.329   4.664
  165SAPE  C31618562   5.255   0.128   4.670
  165SAPE  H16X18563   5.354   0.155   4.713
  165SAPE  H16Y18564   5.271   0.042   4.602
  165SAPE  C31718565   5.174   0.074   4.789
  165SAPE  H17X18566   5.071   0.053   4.755
  165SAPE  H17Y18567   5.182   0.150   4.870
  165SAPE  C31818568   5.237   6.824   4.837
  165SAPE  H18X18569   5.199   6.744   4.771
  165SAPE  H18Y18570   5.225   6.801   4.945
  165SAPE  H18Z18571   5.347   6.831   4.823
  166SAPE     N18572   6.815   5.843   2.563
  166SAPE   HN118573   6.792   5.741   2.561
  166SAPE   HN218574   0.006   5.861   2.497
  166SAPE   HN318575   6.854   5.878   2.653
  166SAPE   C1218576   6.696   5.927   2.516
  166SAPE  H12A18577   6.748   6.023   2.498
  166SAPE  H12B18578   6.612   5.928   2.589
  166SAPE   C1118579   6.638   5.872   2.387
  166SAPE  H11A18580   6.717   5.853   2.311
  166SAPE  H11B18581   6.564   5.938   2.337
  166SAPE     P18582   6.430   5.731   2.445
  166SAPE   O1318583   6.396   5.848   2.524
  166SAPE   O1418584   6.362   5.697   2.320
  166SAPE   O1218585   6.580   5.745   2.411
  166SAPE   O1118586   6.423   5.608   2.549
  166SAPE    C118587   6.527   5.597   2.643
  166SAPE    HA18588   6.568   5.495   2.628
  166SAPE    HB18589   6.612   5.666   2.627
  166SAPE    C218590   6.465   5.628   2.786
  166SAPE    HS18591   6.426   5.732   2.780
  166SAPE   O2118592   6.555   5.597   2.889
  166SAPE   C2118593   6.657   5.681   2.890
  166SAPE   O2218594   6.662   5.787   2.828
  166SAPE   C2218595   6.762   5.632   2.995
  166SAPE   H2R18596   6.781   5.525   2.975
  166SAPE   H2S18597   6.861   5.680   2.978
  166SAPE    C318598   6.335   5.544   2.815
  166SAPE    HX18599   6.355   5.435   2.827
  166SAPE    HY18600   6.260   5.552   2.734
  166SAPE   O3118601   6.278   5.591   2.939
  166SAPE   C3118602   6.193   5.698   2.934
  166SAPE   O3218603   6.142   5.743   2.831
  166SAPE   C3218604   6.158   5.753   3.068
  166SAPE   H2X18605   6.047   5.759   3.065
  166SAPE   H2Y18606   6.194   5.858   3.075
  166SAPE   C2318607   6.704   5.651   3.130
  166SAPE   H3R18608   6.767   5.590   3.198
  166SAPE   H3S18609   6.598   5.617   3.132
  166SAPE   C2418610   6.722   5.795   3.182
  166SAPE   H4R18611   6.671   5.805   3.280
  166SAPE   H4S18612   6.668   5.851   3.102
  166SAPE   C2518613   6.867   5.842   3.180
  166SAPE   H5R18614   0.042   5.838   3.090
  166SAPE   C2618615   0.053   5.887   3.285
  166SAPE   H6R18616   0.157   5.923   3.282
  166SAPE   C2718617   6.875   5.911   3.419
  166SAPE   H7R18618   6.770   5.937   3.397
  166SAPE   H7S18619   0.027   6.008   3.458
  166SAPE   C2818620   0.002   5.802   3.522
  166SAPE   H8R18621   0.078   5.725   3.499
  166SAPE   C2918622   6.812   5.777   3.634
  166SAPE   H9R18623   6.846   5.699   3.705
  166SAPE  C21018624   6.696   5.854   3.697
  166SAPE  H10R18625   6.660   5.798   3.786
  166SAPE  H10S18626   6.618   5.852   3.617
  166SAPE  C21118627   6.728   5.994   3.755
  166SAPE  H11R18628   6.833   6.027   3.748
  166SAPE  C21218629   6.641   6.086   3.796
  166SAPE  H12R18630   6.684   6.177   3.841
  166SAPE  C21318631   6.491   6.066   3.793
  166SAPE  H13R18632   6.452   6.095   3.893
  166SAPE  H13S18633   6.479   5.957   3.778
  166SAPE  C21418634   6.416   6.156   3.691
  166SAPE  H14R18635   6.402   6.261   3.723
  166SAPE  C21518636   6.366   6.126   3.567
  166SAPE  H15R18637   6.334   6.211   3.506
  166SAPE  C21618638   6.361   5.996   3.489
  166SAPE  H16R18639   6.261   5.966   3.451
  166SAPE  H16S18640   6.398   5.912   3.551
  166SAPE  C21718641   6.468   6.002   3.369
  166SAPE  H17R18642   6.472   5.901   3.323
  166SAPE  H17S18643   6.567   6.034   3.409
  166SAPE  C21818644   6.419   6.097   3.261
  166SAPE  H18R18645   6.417   6.191   3.322
  166SAPE  H18S18646   6.315   6.067   3.239
  166SAPE  C21918647   6.507   6.094   3.132
  166SAPE  H19R18648   6.478   6.007   3.069
  166SAPE  H19S18649   6.616   6.092   3.152
  166SAPE  C22018650   6.487   6.226   3.051
  166SAPE  H20R18651   6.383   6.231   3.014
  166SAPE  H20S18652   6.556   6.236   2.965
  166SAPE  H20T18653   6.513   6.314   3.114
  166SAPE   C3318654   6.203   5.654   3.180
  166SAPE   H3X18655   6.313   5.634   3.176
  166SAPE   H3Y18656   6.151   5.557   3.169
  166SAPE   C3418657   6.167   5.707   3.321
  166SAPE   H4X18658   6.210   5.807   3.345
  166SAPE   H4Y18659   6.202   5.628   3.391
  166SAPE   C3518660   6.016   5.714   3.346
  166SAPE   H5X18661   5.975   5.617   3.311
  166SAPE   H5Y18662   5.980   5.796   3.280
  166SAPE   C3618663   5.974   5.751   3.488
  166SAPE   H6X18664   5.865   5.774   3.484
  166SAPE   H6Y18665   6.022   5.847   3.517
  166SAPE   C3718666   5.998   5.649   3.600
  166SAPE   H7X18667   6.106   5.623   3.604
  166SAPE   H7Y18668   5.934   5.558   3.599
  166SAPE   C3818669   5.958   5.715   3.738
  166SAPE   H8X18670   5.908   5.633   3.794
  166SAPE   H8Y18671   5.884   5.793   3.708
  166SAPE   C3918672   6.070   5.778   3.819
  166SAPE   H9X18673   6.111   5.857   3.753
  166SAPE   H9Y18674   6.153   5.708   3.844
  166SAPE  C31018675   6.001   5.847   3.935
  166SAPE  H10X18676   5.901   5.801   3.949
  166SAPE  H10Y18677   6.005   5.955   3.908
  166SAPE  C31118678   6.086   5.829   4.066
  166SAPE  H11X18679   6.092   5.722   4.098
  166SAPE  H11Y18680   6.035   5.881   4.150
  166SAPE  C31218681   6.220   5.896   4.045
  166SAPE  H12X18682   6.203   6.000   4.011
  166SAPE  H12Y18683   6.280   5.844   3.967
  166SAPE  C31318684   6.304   5.880   4.177
  166SAPE  H13X18685   6.329   5.772   4.193
  166SAPE  H13Y18686   6.240   5.931   4.251
  166SAPE  C31418687   6.447   5.939   4.163
  166SAPE  H14X18688   6.444   6.040   4.117
  166SAPE  H14Y18689   6.507   5.867   4.104
  166SAPE  C31518690   6.513   5.952   4.305
  166SAPE  H15X18691   6.519   5.852   4.353
  166SAPE  H15Y18692   6.450   6.019   4.366
  166SAPE  C31618693   6.651   6.006   4.303
  166SAPE  H16X18694   6.636   6.105   4.254
  166SAPE  H16Y18695   6.713   5.952   4.228
  166SAPE  C31718696   6.727   6.005   4.434
  166SAPE  H17X18697   6.764   5.902   4.454
  166SAPE  H17Y18698   6.667   6.039   4.522
  166SAPE  C31818699   6.848   6.103   4.424
  166SAPE  H18X18700   0.034   6.075   4.345
  166SAPE  H18Y18701   0.022   6.100   4.517
  166SAPE  H18Z18702   6.816   6.210   4.418
  167SAPE     N18703   6.220   3.532   2.193
  167SAPE   HN118704   6.304   3.514   2.253
  167SAPE   HN218705   6.149   3.456   2.193
  167SAPE   HN318706   6.262   3.554   2.100
  167SAPE   C1218707   6.170   3.657   2.256
  167SAPE  H12A18708   6.067   3.664   2.217
  167SAPE  H12B18709   6.228   3.749   2.233
  167SAPE   C1118710   6.171   3.626   2.409
  167SAPE  H11A18711   6.115   3.532   2.434
  167SAPE  H11B18712   6.119   3.711   2.457
  167SAPE     P18713   6.404   3.742   2.470
  167SAPE   O1318714   6.497   3.751   2.360
  167SAPE   O1418715   6.328   3.868   2.493
  167SAPE   O1218716   6.310   3.618   2.446
  167SAPE   O1118717   6.477   3.705   2.606
  167SAPE    C118718   6.410   3.636   2.715
  167SAPE    HA18719   6.336   3.563   2.677
  167SAPE    HB18720   6.491   3.582   2.769
  167SAPE    C218721   6.339   3.739   2.809
  167SAPE    HS18722   6.266   3.796   2.748
  167SAPE   O2118723   6.431   3.826   2.873
  167SAPE   C2118724   6.377   3.946   2.901
  167SAPE   O2218725   6.258   3.970   2.890
  167SAPE   C2218726   6.486   4.044   2.956
  167SAPE   H2R18727   6.580   4.002   2.914
  167SAPE   H2S18728   6.464   4.146   2.918
  167SAPE    C318729   6.267   3.662   2.922
  167SAPE    HX18730   6.195   3.591   2.877
  167SAPE    HY18731   6.203   3.724   2.990
  167SAPE   O3118732   6.360   3.585   2.997
  167SAPE   C3118733   6.407   3.640   3.108
  167SAPE   O3218734   6.357   3.733   3.165
  167SAPE   C3218735   6.530   3.567   3.155
  167SAPE   H2X18736   6.617   3.635   3.153
  167SAPE   H2Y18737   6.550   3.478   3.091
  167SAPE   C2318738   6.472   4.039   3.106
  167SAPE   H3R18739   6.475   3.938   3.154
  167SAPE   H3S18740   6.377   4.090   3.132
  167SAPE   C2418741   6.573   4.127   3.174
  167SAPE   H4R18742   6.547   4.151   3.279
  167SAPE   H4S18743   6.576   4.228   3.128
  167SAPE   C2518744   6.705   4.069   3.168
  167SAPE   H5R18745   6.727   4.040   3.064
  167SAPE   C2618746   6.802   4.056   3.261
  167SAPE   H6R18747   0.005   4.013   3.215
  167SAPE   C2718748   6.803   4.105   3.407
  167SAPE   H7R18749   6.696   4.112   3.436
  167SAPE   H7S18750   6.842   4.210   3.406
  167SAPE   C2818751   6.867   4.017   3.508
  167SAPE   H8R18752   0.076   4.056   3.543
  167SAPE   C2918753   6.812   3.909   3.568
  167SAPE   H9R18754   6.866   3.849   3.642
  167SAPE  C21018755   6.676   3.856   3.544
  167SAPE  H10R18756   6.671   3.750   3.576
  167SAPE  H10S18757   6.660   3.852   3.434
  167SAPE  C21118758   6.562   3.923   3.618
  167SAPE  H11R18759   6.487   3.972   3.555
  167SAPE  C21218760   6.554   3.929   3.752
  167SAPE  H12R18761   6.477   3.990   3.802
  167SAPE  C21318762   6.639   3.870   3.856
  167SAPE  H13R18763   6.693   3.779   3.821
  167SAPE  H13S18764   6.576   3.830   3.938
  167SAPE  C21418765   6.722   3.972   3.934
  167SAPE  H14R18766   6.725   4.077   3.901
  167SAPE  C21518767   6.816   3.924   4.018
  167SAPE  H15R18768   6.881   3.990   4.077
  167SAPE  C21618769   6.836   3.780   4.056
  167SAPE  H16R18770   0.041   3.747   4.003
  167SAPE  H16S18771   6.753   3.718   4.017
  167SAPE  C21718772   6.862   3.757   4.210
  167SAPE  H17R18773   6.770   3.785   4.266
  167SAPE  H17S18774   0.050   3.824   4.257
  167SAPE  C21818775   6.882   3.606   4.229
  167SAPE  H18R18776   0.094   3.576   4.188
  167SAPE  H18S18777   6.809   3.545   4.172
  167SAPE  C21918778   6.858   3.558   4.377
  167SAPE  H19R18779   6.752   3.544   4.409
  167SAPE  H19S18780   0.014   3.639   4.439
  167SAPE  C22018781   0.035   3.427   4.407
  167SAPE  H20R18782   0.006   3.348   4.335
  167SAPE  H20S18783   0.004   3.391   4.507
  167SAPE  H20T18784   0.145   3.429   4.420
  167SAPE   C3318785   6.515   3.508   3.299
  167SAPE   H3X18786   6.430   3.438   3.308
  167SAPE   H3Y18787   6.503   3.595   3.367
  167SAPE   C3418788   6.643   3.428   3.331
  167SAPE   H4X18789   6.729   3.488   3.294
  167SAPE   H4Y18790   6.642   3.331   3.277
  167SAPE   C3518791   6.658   3.397   3.478
  167SAPE   H5X18792   6.656   3.492   3.535
  167SAPE   H5Y18793   6.761   3.358   3.494
  167SAPE   C3618794   6.557   3.295   3.534
  167SAPE   H6X18795   6.577   3.190   3.502
  167SAPE   H6Y18796   6.456   3.325   3.499
  167SAPE   C3718797   6.566   3.290   3.687
  167SAPE   H7X18798   6.675   3.288   3.711
  167SAPE   H7Y18799   6.516   3.194   3.712
  167SAPE   C3818800   6.497   3.413   3.751
  167SAPE   H8X18801   6.394   3.431   3.713
  167SAPE   H8Y18802   6.563   3.492   3.710
  167SAPE   C3918803   6.515   3.430   3.908
  167SAPE   H9X18804   6.619   3.420   3.945
  167SAPE   H9Y18805   6.453   3.357   3.965
  167SAPE  C31018806   6.466   3.568   3.953
  167SAPE  H10X18807   6.458   3.650   3.878
  167SAPE  H10Y18808   6.534   3.612   4.030
  167SAPE  C31118809   6.322   3.567   4.016
  167SAPE  H11X18810   6.251   3.537   3.936
  167SAPE  H11Y18811   6.294   3.671   4.043
  167SAPE  C31218812   6.301   3.481   4.135
  167SAPE  H12X18813   6.338   3.382   4.101
  167SAPE  H12Y18814   6.198   3.451   4.164
  167SAPE  C31318815   6.371   3.524   4.267
  167SAPE  H13X18816   6.362   3.634   4.262
  167SAPE  H13Y18817   6.480   3.500   4.273
  167SAPE  C31418818   6.305   3.473   4.395
  167SAPE  H14X18819   6.199   3.506   4.399
  167SAPE  H14Y18820   6.351   3.513   4.488
  167SAPE  C31518821   6.299   3.325   4.407
  167SAPE  H15X18822   6.395   3.274   4.387
  167SAPE  H15Y18823   6.233   3.285   4.327
  167SAPE  C31618824   6.248   3.271   4.538
  167SAPE  H16X18825   6.145   3.305   4.562
  167SAPE  H16Y18826   6.321   3.295   4.619
  167SAPE  C31718827   6.235   3.116   4.542
  167SAPE  H17X18828   6.342   3.090   4.533
  167SAPE  H17Y18829   6.180   3.086   4.450
  167SAPE  C31818830   6.166   3.063   4.659
  167SAPE  H18X18831   6.154   2.953   4.642
  167SAPE  H18Y18832   6.060   3.098   4.661
  167SAPE  H18Z18833   6.211   3.075   4.760
  168SAPE     N18834   2.049   5.694   1.883
  168SAPE   HN118835   2.002   5.746   1.806
  168SAPE   HN218836   2.062   5.593   1.863
  168SAPE   HN318837   1.992   5.704   1.970
  168SAPE   C1218838   2.193   5.737   1.900
  168SAPE  H12A18839   2.189   5.844   1.931
  168SAPE  H12B18840   2.262   5.725   1.814
  168SAPE   C1118841   2.246   5.656   2.017
  168SAPE  H11A18842   2.181   5.651   2.107
  168SAPE  H11B18843   2.338   5.711   2.046
  168SAPE     P18844   2.420   5.476   1.933
  168SAPE   O1318845   2.415   5.338   1.886
  168SAPE   O1418846   2.474   5.582   1.837
  168SAPE   O1218847   2.275   5.522   1.978
  168SAPE   O1118848   2.499   5.486   2.073
  168SAPE    C118849   2.511   5.380   2.170
  168SAPE    HA18850   2.439   5.300   2.143
  168SAPE    HB18851   2.610   5.331   2.162
  168SAPE    C218852   2.473   5.426   2.308
  168SAPE    HS18853   2.379   5.483   2.291
  168SAPE   O2118854   2.575   5.509   2.351
  168SAPE   C2118855   2.540   5.620   2.422
  168SAPE   O2218856   2.426   5.659   2.436
  168SAPE   C2218857   2.661   5.672   2.508
  168SAPE   H2R18858   2.701   5.589   2.571
  168SAPE   H2S18859   2.736   5.718   2.440
  168SAPE    C318860   2.454   5.306   2.408
  168SAPE    HX18861   2.557   5.266   2.418
  168SAPE    HY18862   2.388   5.226   2.370
  168SAPE   O3118863   2.405   5.359   2.539
  168SAPE   C3118864   2.408   5.263   2.635
  168SAPE   O3218865   2.460   5.151   2.613
  168SAPE   C3218866   2.351   5.321   2.766
  168SAPE   H2X18867   2.240   5.314   2.767
  168SAPE   H2Y18868   2.360   5.432   2.758
  168SAPE   C2318869   2.611   5.786   2.604
  168SAPE   H3R18870   2.508   5.771   2.643
  168SAPE   H3S18871   2.608   5.888   2.561
  168SAPE   C2418872   2.685   5.781   2.737
  168SAPE   H4R18873   2.665   5.683   2.785
  168SAPE   H4S18874   2.646   5.861   2.804
  168SAPE   C2518875   2.833   5.798   2.726
  168SAPE   H5R18876   2.897   5.714   2.696
  168SAPE   C2618877   2.891   5.919   2.736
  168SAPE   H6R18878   2.994   5.942   2.704
  168SAPE   C2718879   2.820   6.050   2.769
  168SAPE   H7R18880   2.770   6.034   2.866
  168SAPE   H7S18881   2.745   6.071   2.689
  168SAPE   C2818882   2.905   6.172   2.779
  168SAPE   H8R18883   2.965   6.196   2.690
  168SAPE   C2918884   2.928   6.257   2.883
  168SAPE   H9R18885   3.002   6.337   2.870
  168SAPE  C21018886   2.858   6.265   3.017
  168SAPE  H10R18887   2.770   6.198   3.029
  168SAPE  H10S18888   2.821   6.370   3.017
  168SAPE  C21118889   2.947   6.234   3.143
  168SAPE  H11R18890   3.055   6.227   3.127
  168SAPE  C21218891   2.908   6.241   3.269
  168SAPE  H12R18892   2.988   6.217   3.341
  168SAPE  C21318893   2.765   6.263   3.328
  168SAPE  H13R18894   2.733   6.159   3.354
  168SAPE  H13S18895   2.712   6.294   3.236
  168SAPE  C21418896   2.742   6.353   3.444
  168SAPE  H14R18897   2.667   6.430   3.422
  168SAPE  C21518898   2.804   6.352   3.566
  168SAPE  H15R18899   2.771   6.432   3.634
  168SAPE  C21618900   2.904   6.255   3.619
  168SAPE  H16R18901   3.007   6.294   3.607
  168SAPE  H16S18902   2.897   6.153   3.575
  168SAPE  C21718903   2.884   6.248   3.774
  168SAPE  H17R18904   2.778   6.264   3.800
  168SAPE  H17S18905   2.937   6.338   3.810
  168SAPE  C21818906   2.960   6.129   3.830
  168SAPE  H18R18907   3.067   6.120   3.803
  168SAPE  H18S18908   2.920   6.039   3.779
  168SAPE  C21918909   2.946   6.104   3.989
  168SAPE  H19R18910   2.978   6.196   4.042
  168SAPE  H19S18911   3.009   6.016   4.013
  168SAPE  C22018912   2.806   6.066   4.040
  168SAPE  H20R18913   2.777   5.970   3.993
  168SAPE  H20S18914   2.740   6.151   4.014
  168SAPE  H20T18915   2.806   6.048   4.150
  168SAPE   C3318916   2.431   5.268   2.886
  168SAPE   H3X18917   2.536   5.303   2.887
  168SAPE   H3Y18918   2.426   5.158   2.881
  168SAPE   C3418919   2.373   5.316   3.022
  168SAPE   H4X18920   2.264   5.297   3.013
  168SAPE   H4Y18921   2.391   5.424   3.043
  168SAPE   C3518922   2.423   5.230   3.141
  168SAPE   H5X18923   2.531   5.236   3.163
  168SAPE   H5Y18924   2.395   5.123   3.126
  168SAPE   C3618925   2.339   5.260   3.272
  168SAPE   H6X18926   2.272   5.171   3.271
  168SAPE   H6Y18927   2.281   5.354   3.261
  168SAPE   C3718928   2.415   5.260   3.413
  168SAPE   H7X18929   2.479   5.350   3.420
  168SAPE   H7Y18930   2.477   5.171   3.436
  168SAPE   C3818931   2.318   5.264   3.531
  168SAPE   H8X18932   2.238   5.193   3.503
  168SAPE   H8Y18933   2.273   5.366   3.539
  168SAPE   C3918934   2.385   5.235   3.666
  168SAPE   H9X18935   2.472   5.303   3.681
  168SAPE   H9Y18936   2.425   5.132   3.655
  168SAPE  C31018937   2.300   5.231   3.789
  168SAPE  H10X18938   2.363   5.210   3.879
  168SAPE  H10Y18939   2.232   5.143   3.780
  168SAPE  C31118940   2.221   5.363   3.817
  168SAPE  H11X18941   2.144   5.375   3.737
  168SAPE  H11Y18942   2.293   5.447   3.808
  168SAPE  C31218943   2.162   5.370   3.956
  168SAPE  H12X18944   2.252   5.365   4.021
  168SAPE  H12Y18945   2.103   5.279   3.982
  168SAPE  C31318946   2.083   5.497   3.978
  168SAPE  H13X18947   2.028   5.518   3.884
  168SAPE  H13Y18948   2.141   5.590   3.995
  168SAPE  C31418949   1.992   5.493   4.096
  168SAPE  H14X18950   1.941   5.395   4.083
  168SAPE  H14Y18951   1.925   5.581   4.090
  168SAPE  C31518952   2.063   5.489   4.228
  168SAPE  H15X18953   2.130   5.577   4.239
  168SAPE  H15Y18954   2.137   5.409   4.249
  168SAPE  C31618955   1.965   5.496   4.344
  168SAPE  H16X18956   1.897   5.411   4.327
  168SAPE  H16Y18957   1.914   5.595   4.346
  168SAPE  C31718958   2.013   5.479   4.488
  168SAPE  H17X18959   2.082   5.394   4.510
  168SAPE  H17Y18960   1.926   5.471   4.556
  168SAPE  C31818961   2.090   5.603   4.542
  168SAPE  H18X18962   2.117   5.597   4.649
  168SAPE  H18Y18963   2.031   5.695   4.520
  168SAPE  H18Z18964   2.188   5.613   4.490
  169SAPE     N18965   6.773   3.778   2.353
  169SAPE   HN118966   6.788   3.853   2.423
  169SAPE   HN218967   6.813   3.801   2.260
  169SAPE   HN318968   6.675   3.744   2.357
  169SAPE   C1218969   6.846   3.651   2.398
  169SAPE  H12A18970   6.814   3.632   2.503
  169SAPE  H12B18971   0.068   3.671   2.402
  169SAPE   C1118972   6.813   3.526   2.317
  169SAPE  H11A18973   6.856   3.443   2.377
  169SAPE  H11B18974   6.851   3.542   2.214
  169SAPE     P18975   6.616   3.376   2.252
  169SAPE   O1318976   6.482   3.391   2.178
  169SAPE   O1418977   6.720   3.314   2.172
  169SAPE   O1218978   6.666   3.512   2.315
  169SAPE   O1118979   6.589   3.281   2.372
  169SAPE    C118980   6.562   3.339   2.503
  169SAPE    HA18981   6.646   3.401   2.540
  169SAPE    HB18982   6.462   3.387   2.509
  169SAPE    C218983   6.550   3.216   2.594
  169SAPE    HS18984   6.495   3.148   2.526
  169SAPE   O2118985   6.476   3.255   2.712
  169SAPE   C2118986   6.379   3.171   2.747
  169SAPE   O2218987   6.353   3.067   2.699
  169SAPE   C2218988   6.305   3.236   2.854
  169SAPE   H2R18989   6.361   3.312   2.913
  169SAPE   H2S18990   6.229   3.302   2.807
  169SAPE    C318991   6.684   3.153   2.632
  169SAPE    HX18992   6.736   3.228   2.697
  169SAPE    HY18993   6.755   3.158   2.547
  169SAPE   O3118994   6.661   3.019   2.687
  169SAPE   C3118995   6.665   2.925   2.586
  169SAPE   O3218996   6.683   2.948   2.467
  169SAPE   C3218997   6.660   2.788   2.647
  169SAPE   H2X18998   6.748   2.785   2.715
  169SAPE   H2Y18999   6.689   2.715   2.569
  169SAPE   C2319000   6.243   3.127   2.951
  169SAPE   H3R19001   6.212   3.042   2.886
  169SAPE   H3S19002   6.153   3.158   3.008
  169SAPE   C2419003   6.347   3.075   3.055
  169SAPE   H4R19004   6.446   3.077   3.004
  169SAPE   H4S19005   6.334   2.969   3.087
  169SAPE   C2519006   6.353   3.161   3.182
  169SAPE   H5R19007   6.379   3.268   3.176
  169SAPE   C2619008   6.327   3.115   3.304
  169SAPE   H6R19009   6.312   3.198   3.375
  169SAPE   C2719010   6.314   2.975   3.352
  169SAPE   H7R19011   6.410   2.945   3.398
  169SAPE   H7S19012   6.300   2.898   3.274
  169SAPE   C2819013   6.192   2.950   3.441
  169SAPE   H8R19014   6.100   2.953   3.380
  169SAPE   C2919015   6.197   2.938   3.584
  169SAPE   H9R19016   6.098   2.934   3.631
  169SAPE  C21019017   6.316   2.958   3.669
  169SAPE  H10R19018   6.401   3.005   3.615
  169SAPE  H10S19019   6.367   2.865   3.701
  169SAPE  C21119020   6.296   3.041   3.791
  169SAPE  H11R19021   6.323   3.147   3.787
  169SAPE  C21219022   6.250   2.998   3.908
  169SAPE  H12R19023   6.243   3.064   3.995
  169SAPE  C21319024   6.215   2.854   3.936
  169SAPE  H13R19025   6.300   2.804   3.988
  169SAPE  H13S19026   6.208   2.802   3.839
  169SAPE  C21419027   6.091   2.844   4.019
  169SAPE  H14R19028   6.005   2.867   3.955
  169SAPE  C21519029   6.075   2.822   4.153
  169SAPE  H15R19030   5.972   2.829   4.190
  169SAPE  C21619031   6.192   2.810   4.247
  169SAPE  H16R19032   6.164   2.860   4.342
  169SAPE  H16S19033   6.287   2.854   4.211
  169SAPE  C21719034   6.235   2.665   4.286
  169SAPE  H17R19035   6.313   2.673   4.365
  169SAPE  H17S19036   6.271   2.604   4.201
  169SAPE  C21819037   6.129   2.565   4.337
  169SAPE  H18R19038   6.046   2.542   4.267
  169SAPE  H18S19039   6.078   2.608   4.426
  169SAPE  C21919040   6.190   2.428   4.353
  169SAPE  H19R19041   6.271   2.429   4.428
  169SAPE  H19S19042   6.239   2.410   4.255
  169SAPE  C22019043   6.087   2.310   4.366
  169SAPE  H20R19044   6.052   2.306   4.472
  169SAPE  H20S19045   6.135   2.211   4.346
  169SAPE  H20T19046   6.000   2.315   4.297
  169SAPE   C3319047   6.528   2.746   2.719
  169SAPE   H3X19048   6.471   2.675   2.655
  169SAPE   H3Y19049   6.455   2.830   2.721
  169SAPE   C3419050   6.564   2.675   2.840
  169SAPE   H4X19051   6.615   2.741   2.913
  169SAPE   H4Y19052   6.633   2.591   2.819
  169SAPE   C3519053   6.444   2.625   2.915
  169SAPE   H5X19054   6.400   2.540   2.857
  169SAPE   H5Y19055   6.372   2.709   2.920
  169SAPE   C3619056   6.475   2.574   3.055
  169SAPE   H6X19057   6.541   2.650   3.101
  169SAPE   H6Y19058   6.509   2.469   3.037
  169SAPE   C3719059   6.353   2.566   3.143
  169SAPE   H7X19060   6.268   2.512   3.096
  169SAPE   H7Y19061   6.305   2.664   3.164
  169SAPE   C3819062   6.372   2.496   3.277
  169SAPE   H8X19063   6.455   2.543   3.335
  169SAPE   H8Y19064   6.404   2.391   3.262
  169SAPE   C3919065   6.239   2.490   3.354
  169SAPE   H9X19066   6.176   2.436   3.280
  169SAPE   H9Y19067   6.208   2.595   3.370
  169SAPE  C31019068   6.232   2.418   3.485
  169SAPE  H10X19069   6.275   2.315   3.478
  169SAPE  H10Y19070   6.130   2.409   3.527
  169SAPE  C31119071   6.303   2.497   3.594
  169SAPE  H11X19072   6.261   2.599   3.606
  169SAPE  H11Y19073   6.411   2.517   3.580
  169SAPE  C31219074   6.293   2.414   3.726
  169SAPE  H12X19075   6.370   2.336   3.708
  169SAPE  H12Y19076   6.195   2.369   3.751
  169SAPE  C31319077   6.335   2.504   3.850
  169SAPE  H13X19078   6.242   2.548   3.891
  169SAPE  H13Y19079   6.392   2.590   3.809
  169SAPE  C31419080   6.427   2.437   3.964
  169SAPE  H14X19081   6.479   2.361   3.901
  169SAPE  H14Y19082   6.355   2.378   4.026
  169SAPE  C31519083   6.512   2.533   4.037
  169SAPE  H15X19084   6.460   2.631   4.038
  169SAPE  H15Y19085   6.609   2.556   3.988
  169SAPE  C31619086   6.544   2.493   4.180
  169SAPE  H16X19087   6.580   2.388   4.173
  169SAPE  H16Y19088   6.455   2.503   4.246
  169SAPE  C31719089   6.661   2.576   4.237
  169SAPE  H17X19090   6.621   2.675   4.266
  169SAPE  H17Y19091   6.737   2.584   4.157
  169SAPE  C31819092   6.723   2.512   4.366
  169SAPE  H18X19093   6.762   2.409   4.347
  169SAPE  H18Y19094   6.651   2.502   4.450
  169SAPE  H18Z19095   6.807   2.577   4.399
  170SAPE     N19096   0.066   4.483   2.323
  170SAPE   HN119097   6.880   4.447   2.258
  170SAPE   HN219098   0.100   4.579   2.302
  170SAPE   HN319099   0.146   4.417   2.320
  170SAPE   C1219100   0.035   4.490   2.471
  170SAPE  H12A19101   6.865   4.584   2.487
  170SAPE  H12B19102   0.129   4.502   2.529
  170SAPE   C1119103   6.857   4.359   2.519
  170SAPE  H11A19104   6.767   4.344   2.455
  170SAPE  H11B19105   6.834   4.371   2.627
  170SAPE     P19106   0.026   4.098   2.523
  170SAPE   O1319107   6.816   4.058   2.421
  170SAPE   O1419108   0.154   4.027   2.523
  170SAPE   O1219109   0.062   4.256   2.498
  170SAPE   O1119110   6.841   4.094   2.664
  170SAPE    C119111   0.034   4.112   2.778
  170SAPE    HA19112   0.124   4.171   2.747
  170SAPE    HB19113   6.871   4.181   2.850
  170SAPE    C219114   0.097   3.985   2.842
  170SAPE    HS19115   0.155   3.934   2.762
  170SAPE   O2119116   6.878   3.903   2.894
  170SAPE   C2119117   6.829   3.815   2.812
  170SAPE   O2219118   6.859   3.797   2.695
  170SAPE   C2219119   6.754   3.717   2.900
  170SAPE   H2R19120   6.732   3.753   3.003
  170SAPE   H2S19121   6.662   3.681   2.849
  170SAPE    C319122   0.192   4.020   2.950
  170SAPE    HX19123   0.137   4.086   3.020
  170SAPE    HY19124   0.286   4.062   2.909
  170SAPE   O3119125   0.224   3.906   3.034
  170SAPE   C3119126   0.327   3.836   3.001
  170SAPE   O3219127   0.401   3.853   2.909
  170SAPE   C3219128   0.346   3.729   3.111
  170SAPE   H2X19129   0.437   3.669   3.091
  170SAPE   H2Y19130   0.256   3.664   3.107
  170SAPE   C2319131   6.836   3.589   2.929
  170SAPE   H3R19132   6.805   3.556   3.030
  170SAPE   H3S19133   0.059   3.600   2.925
  170SAPE   C2419134   6.802   3.463   2.831
  170SAPE   H4R19135   6.808   3.503   2.727
  170SAPE   H4S19136   6.701   3.419   2.849
  170SAPE   C2519137   0.017   3.356   2.865
  170SAPE   H5R19138   0.114   3.382   2.820
  170SAPE   C2619139   0.010   3.250   2.957
  170SAPE   H6R19140   0.097   3.188   2.984
  170SAPE   C2719141   6.773   3.214   3.034
  170SAPE   H7R19142   6.691   3.285   3.010
  170SAPE   H7S19143   6.805   3.231   3.139
  170SAPE   C2819144   6.712   3.075   3.019
  170SAPE   H8R19145   6.708   3.046   2.913
  170SAPE   C2919146   6.674   2.987   3.112
  170SAPE   H9R19147   6.632   2.895   3.071
  170SAPE  C21019148   6.667   3.014   3.259
  170SAPE  H10R19149   6.608   2.936   3.310
  170SAPE  H10S19150   6.620   3.110   3.290
  170SAPE  C21119151   6.803   3.011   3.316
  170SAPE  H11R19152   6.886   3.033   3.247
  170SAPE  C21219153   6.836   2.983   3.443
  170SAPE  H12R19154   0.054   2.995   3.472
  170SAPE  C21319155   6.735   2.950   3.547
  170SAPE  H13R19156   6.631   2.933   3.512
  170SAPE  H13S19157   6.726   3.033   3.620
  170SAPE  C21419158   6.785   2.835   3.620
  170SAPE  H14R19159   6.847   2.762   3.566
  170SAPE  C21519160   6.763   2.807   3.749
  170SAPE  H15R19161   6.791   2.712   3.795
  170SAPE  C21619162   6.677   2.886   3.850
  170SAPE  H16R19163   6.602   2.821   3.901
  170SAPE  H16S19164   6.624   2.965   3.793
  170SAPE  C21719165   6.777   2.962   3.951
  170SAPE  H17R19166   6.799   3.056   3.896
  170SAPE  H17S19167   6.867   2.901   3.977
  170SAPE  C21819168   6.709   2.998   4.093
  170SAPE  H18R19169   6.777   3.051   4.163
  170SAPE  H18S19170   6.682   2.897   4.132
  170SAPE  C21919171   6.584   3.092   4.083
  170SAPE  H19R19172   6.528   3.054   3.995
  170SAPE  H19S19173   6.606   3.195   4.048
  170SAPE  C22019174   6.503   3.091   4.212
  170SAPE  H20R19175   6.428   3.171   4.192
  170SAPE  H20S19176   6.574   3.115   4.294
  170SAPE  H20T19177   6.459   2.993   4.243
  170SAPE   C3319178   0.363   3.792   3.250
  170SAPE   H3X19179   0.305   3.885   3.266
  170SAPE   H3Y19180   0.472   3.813   3.261
  170SAPE   C3419181   0.323   3.717   3.369
  170SAPE   H4X19182   0.371   3.617   3.381
  170SAPE   H4Y19183   0.212   3.714   3.362
  170SAPE   C3519184   0.355   3.791   3.499
  170SAPE   H5X19185   0.327   3.898   3.502
  170SAPE   H5Y19186   0.462   3.780   3.526
  170SAPE   C3619187   0.282   3.727   3.617
  170SAPE   H6X19188   0.319   3.622   3.627
  170SAPE   H6Y19189   0.174   3.730   3.594
  170SAPE   C3719190   0.303   3.802   3.751
  170SAPE   H7X19191   0.411   3.819   3.770
  170SAPE   H7Y19192   0.259   3.732   3.825
  170SAPE   C3819193   0.250   3.942   3.759
  170SAPE   H8X19194   0.139   3.935   3.753
  170SAPE   H8Y19195   0.283   4.001   3.671
  170SAPE   C3919196   0.292   4.012   3.898
  170SAPE   H9X19197   0.403   4.005   3.899
  170SAPE   H9Y19198   0.257   3.951   3.984
  170SAPE  C31019199   0.254   4.155   3.903
  170SAPE  H10X19200   0.155   4.159   3.853
  170SAPE  H10Y19201   0.325   4.215   3.842
  170SAPE  C31119202   0.262   4.214   4.046
  170SAPE  H11X19203   0.212   4.145   4.118
  170SAPE  H11Y19204   0.214   4.315   4.051
  170SAPE  C31219205   0.402   4.252   4.094
  170SAPE  H12X19206   0.447   4.337   4.038
  170SAPE  H12Y19207   0.469   4.164   4.083
  170SAPE  C31319208   0.413   4.292   4.245
  170SAPE  H13X19209   0.364   4.213   4.306
  170SAPE  H13Y19210   0.338   4.374   4.254
  170SAPE  C31419211   0.552   4.319   4.297
  170SAPE  H14X19212   0.586   4.414   4.251
  170SAPE  H14Y19213   0.620   4.245   4.252
  170SAPE  C31519214   0.567   4.335   4.452
  170SAPE  H15X19215   0.552   4.231   4.488
  170SAPE  H15Y19216   0.485   4.400   4.489
  170SAPE  C31619217   0.706   4.379   4.499
  170SAPE  H16X19218   0.777   4.299   4.468
  170SAPE  H16Y19219   0.716   4.376   4.609
  170SAPE  C31719220   0.747   4.519   4.444
  170SAPE  H17X19221   0.683   4.599   4.489
  170SAPE  H17Y19222   0.728   4.524   4.335
  170SAPE  C31819223   0.885   4.556   4.480
  170SAPE  H18X19224   0.919   4.640   4.415
  170SAPE  H18Y19225   0.960   4.476   4.463
  170SAPE  H18Z19226   0.902   4.577   4.588
  171SAPE     N19227   0.240   3.578   1.934
  171SAPE   HN119228   0.283   3.624   1.851
  171SAPE   HN219229   0.138   3.582   1.914
  171SAPE   HN319230   0.265   3.636   2.017
  171SAPE   C1219231   0.290   3.438   1.959
  171SAPE  H12A19232   0.398   3.439   1.987
  171SAPE  H12B19233   0.270   3.382   1.865
  171SAPE   C1119234   0.212   3.382   2.079
  171SAPE  H11A19235   0.244   3.279   2.108
  171SAPE  H11B19236   0.103   3.376   2.062
  171SAPE     P19237   0.322   3.458   2.316
  171SAPE   O1319238   0.447   3.536   2.296
  171SAPE   O1419239   0.230   3.494   2.429
  171SAPE   O1219240   0.232   3.476   2.188
  171SAPE   O1119241   0.357   3.307   2.325
  171SAPE    C119242   0.486   3.265   2.334
  171SAPE    HA19243   0.493   3.184   2.258
  171SAPE    HB19244   0.566   3.332   2.295
  171SAPE    C219245   0.518   3.207   2.470
  171SAPE    HS19246   0.607   3.143   2.453
  171SAPE   O2119247   0.409   3.121   2.521
  171SAPE   C2119248   0.394   3.011   2.456
  171SAPE   O2219249   0.480   2.958   2.375
  171SAPE   C2219250   0.261   2.936   2.493
  171SAPE   H2R19251   0.171   2.998   2.472
  171SAPE   H2S19252   0.254   2.847   2.427
  171SAPE    C319253   0.538   3.312   2.576
  171SAPE    HX19254   0.454   3.384   2.564
  171SAPE    HY19255   0.631   3.365   2.545
  171SAPE   O3119256   0.554   3.254   2.705
  171SAPE   C3119257   0.455   3.275   2.796
  171SAPE   O3219258   0.349   3.337   2.782
  171SAPE   C3219259   0.505   3.216   2.927
  171SAPE   H2X19260   0.612   3.247   2.929
  171SAPE   H2Y19261   0.507   3.108   2.901
  171SAPE   C2319262   0.257   2.917   2.644
  171SAPE   H3R19263   0.263   3.022   2.680
  171SAPE   H3S19264   0.345   2.858   2.680
  171SAPE   C2419265   0.124   2.854   2.695
  171SAPE   H4R19266   0.043   2.908   2.643
  171SAPE   H4S19267   0.112   2.856   2.805
  171SAPE   C2519268   0.120   2.700   2.652
  171SAPE   H5R19269   0.091   2.683   2.547
  171SAPE   C2619270   0.127   2.602   2.740
  171SAPE   H6R19271   0.119   2.498   2.705
  171SAPE   C2719272   0.161   2.618   2.888
  171SAPE   H7R19273   0.212   2.715   2.910
  171SAPE   H7S19274   0.233   2.540   2.923
  171SAPE   C2819275   0.047   2.594   2.980
  171SAPE   H8R19276   6.836   2.577   2.932
  171SAPE   C2919277   0.051   2.629   3.111
  171SAPE   H9R19278   6.850   2.617   3.176
  171SAPE  C21019279   0.165   2.684   3.190
  171SAPE  H10R19280   0.141   2.791   3.211
  171SAPE  H10S19281   0.264   2.680   3.141
  171SAPE  C21119282   0.176   2.610   3.321
  171SAPE  H11R19283   0.135   2.508   3.313
  171SAPE  C21219284   0.229   2.650   3.438
  171SAPE  H12R19285   0.239   2.576   3.519
  171SAPE  C21319286   0.285   2.790   3.471
  171SAPE  H13R19287   0.233   2.870   3.413
  171SAPE  H13S19288   0.390   2.791   3.436
  171SAPE  C21419289   0.281   2.818   3.617
  171SAPE  H14R19290   0.192   2.767   3.656
  171SAPE  C21519291   0.355   2.909   3.689
  171SAPE  H15R19292   0.338   2.904   3.798
  171SAPE  C21619293   0.470   3.003   3.651
  171SAPE  H16R19294   0.446   3.109   3.675
  171SAPE  H16S19295   0.489   2.988   3.543
  171SAPE  C21719296   0.594   2.973   3.742
  171SAPE  H17R19297   0.686   3.014   3.694
  171SAPE  H17S19298   0.609   2.864   3.750
  171SAPE  C21819299   0.577   3.044   3.876
  171SAPE  H18R19300   0.484   3.013   3.928
  171SAPE  H18S19301   0.567   3.153   3.861
  171SAPE  C21919302   0.697   3.014   3.977
  171SAPE  H19R19303   0.694   2.906   4.003
  171SAPE  H19S19304   0.674   3.076   4.067
  171SAPE  C22019305   0.835   3.061   3.933
  171SAPE  H20R19306   0.898   3.059   4.025
  171SAPE  H20S19307   0.832   3.166   3.899
  171SAPE  H20T19308   0.861   2.996   3.847
  171SAPE   C3319309   0.424   3.251   3.047
  171SAPE   H3X19310   0.317   3.229   3.027
  171SAPE   H3Y19311   0.413   3.360   3.063
  171SAPE   C3419312   0.454   3.173   3.177
  171SAPE   H4X19313   0.545   3.218   3.222
  171SAPE   H4Y19314   0.460   3.068   3.143
  171SAPE   C3519315   0.331   3.186   3.273
  171SAPE   H5X19316   0.353   3.119   3.358
  171SAPE   H5Y19317   0.236   3.149   3.228
  171SAPE   C3619318   0.317   3.326   3.320
  171SAPE   H6X19319   0.278   3.393   3.240
  171SAPE   H6Y19320   0.419   3.366   3.341
  171SAPE   C3719321   0.228   3.350   3.450
  171SAPE   H7X19322   0.128   3.303   3.433
  171SAPE   H7Y19323   0.204   3.458   3.459
  171SAPE   C3819324   0.287   3.288   3.580
  171SAPE   H8X19325   0.397   3.307   3.571
  171SAPE   H8Y19326   0.274   3.178   3.582
  171SAPE   C3919327   0.224   3.344   3.704
  171SAPE   H9X19328   0.113   3.336   3.708
  171SAPE   H9Y19329   0.247   3.452   3.715
  171SAPE  C31019330   0.260   3.264   3.839
  171SAPE  H10X19331   0.370   3.266   3.849
  171SAPE  H10Y19332   0.221   3.160   3.832
  171SAPE  C31119333   0.192   3.320   3.967
  171SAPE  H11X19334   0.082   3.305   3.960
  171SAPE  H11Y19335   0.217   3.428   3.958
  171SAPE  C31219336   0.231   3.246   4.095
  171SAPE  H12X19337   0.203   3.139   4.086
  171SAPE  H12Y19338   0.160   3.283   4.172
  171SAPE  C31319339   0.367   3.276   4.139
  171SAPE  H13X19340   0.372   3.384   4.164
  171SAPE  H13Y19341   0.432   3.263   4.049
  171SAPE  C31419342   0.416   3.195   4.257
  171SAPE  H14X19343   0.406   3.086   4.236
  171SAPE  H14Y19344   0.363   3.230   4.348
  171SAPE  C31519345   0.565   3.224   4.275
  171SAPE  H15X19346   0.615   3.255   4.181
  171SAPE  H15Y19347   0.619   3.133   4.308
  171SAPE  C31619348   0.609   3.339   4.374
  171SAPE  H16X19349   0.562   3.430   4.330
  171SAPE  H16Y19350   0.720   3.340   4.364
  171SAPE  C31719351   0.557   3.326   4.523
  171SAPE  H17X19352   0.589   3.229   4.565
  171SAPE  H17Y19353   0.447   3.341   4.530
  171SAPE  C31819354   0.614   3.445   4.593
  171SAPE  H18X19355   0.554   3.529   4.554
  171SAPE  H18Y19356   0.724   3.454   4.575
  171SAPE  H18Z19357   0.601   3.433   4.703
  172SAPE     N19358   6.597   4.762   2.101
  172SAPE   HN119359   6.685   4.720   2.065
  172SAPE   HN219360   6.553   4.674   2.133
  172SAPE   HN319361   6.538   4.777   2.017
  172SAPE   C1219362   6.586   4.873   2.205
  172SAPE  H12A19363   6.482   4.909   2.213
  172SAPE  H12B19364   6.652   4.954   2.166
  172SAPE   C1119365   6.643   4.831   2.333
  172SAPE  H11A19366   6.581   4.746   2.370
  172SAPE  H11B19367   6.645   4.920   2.399
  172SAPE     P19368   0.020   4.850   2.292
  172SAPE   O1319369   0.130   4.749   2.288
  172SAPE   O1419370   0.010   4.937   2.173
  172SAPE   O1219371   6.768   4.775   2.308
  172SAPE   O1119372   0.027   4.933   2.424
  172SAPE    C119373   0.112   5.041   2.433
  172SAPE    HA19374   0.217   5.021   2.403
  172SAPE    HB19375   0.084   5.124   2.364
  172SAPE    C219376   0.137   5.086   2.577
  172SAPE    HS19377   0.213   5.017   2.620
  172SAPE   O2119378   0.021   5.086   2.665
  172SAPE   C2119379   6.796   5.130   2.620
  172SAPE   O2219380   6.781   5.193   2.517
  172SAPE   C2219381   6.695   5.108   2.723
  172SAPE   H2R19382   6.705   5.008   2.769
  172SAPE   H2S19383   6.714   5.178   2.808
  172SAPE    C319384   0.203   5.222   2.566
  172SAPE    HX19385   0.127   5.296   2.532
  172SAPE    HY19386   0.282   5.209   2.489
  172SAPE   O3119387   0.253   5.264   2.694
  172SAPE   C3119388   0.173   5.331   2.767
  172SAPE   O3219389   0.061   5.374   2.738
  172SAPE   C3219390   0.243   5.352   2.899
  172SAPE   H2X19391   0.273   5.459   2.905
  172SAPE   H2Y19392   0.331   5.286   2.913
  172SAPE   C2319393   6.550   5.112   2.680
  172SAPE   H3R19394   6.507   5.035   2.613
  172SAPE   H3S19395   6.536   5.204   2.620
  172SAPE   C2419396   6.459   5.152   2.789
  172SAPE   H4R19397   6.368   5.171   2.729
  172SAPE   H4S19398   6.488   5.254   2.825
  172SAPE   C2519399   6.444   5.044   2.896
  172SAPE   H5R19400   6.437   4.943   2.854
  172SAPE   C2619401   6.448   5.058   3.025
  172SAPE   H6R19402   6.447   4.967   3.087
  172SAPE   C2719403   6.467   5.189   3.103
  172SAPE   H7R19404   6.380   5.195   3.171
  172SAPE   H7S19405   6.455   5.273   3.031
  172SAPE   C2819406   6.600   5.207   3.178
  172SAPE   H8R19407   6.691   5.182   3.122
  172SAPE   C2919408   6.609   5.249   3.305
  172SAPE   H9R19409   6.708   5.246   3.352
  172SAPE  C21019410   6.499   5.294   3.402
  172SAPE  H10R19411   6.511   5.251   3.504
  172SAPE  H10S19412   6.406   5.248   3.364
  172SAPE  C21119413   6.489   5.444   3.381
  172SAPE  H11R19414   6.514   5.468   3.277
  172SAPE  C21219415   6.450   5.532   3.474
  172SAPE  H12R19416   6.439   5.637   3.445
  172SAPE  C21319417   6.425   5.498   3.619
  172SAPE  H13R19418   6.356   5.411   3.625
  172SAPE  H13S19419   6.358   5.575   3.663
  172SAPE  C21419420   6.553   5.475   3.700
  172SAPE  H14R19421   6.649   5.501   3.652
  172SAPE  C21519422   6.554   5.447   3.834
  172SAPE  H15R19423   6.650   5.431   3.885
  172SAPE  C21619424   6.423   5.430   3.919
  172SAPE  H16R19425   6.395   5.323   3.932
  172SAPE  H16S19426   6.335   5.471   3.865
  172SAPE  C21719427   6.436   5.501   4.054
  172SAPE  H17R19428   6.335   5.531   4.090
  172SAPE  H17S19429   6.491   5.597   4.043
  172SAPE  C21819430   6.506   5.407   4.162
  172SAPE  H18R19431   6.617   5.399   4.153
  172SAPE  H18S19432   6.458   5.308   4.155
  172SAPE  C21919433   6.485   5.462   4.301
  172SAPE  H19R19434   6.377   5.488   4.312
  172SAPE  H19S19435   6.544   5.556   4.296
  172SAPE  C22019436   6.535   5.374   4.410
  172SAPE  H20R19437   6.469   5.285   4.420
  172SAPE  H20S19438   6.548   5.423   4.508
  172SAPE  H20T19439   6.636   5.336   4.382
  172SAPE   C3319440   0.140   5.323   3.014
  172SAPE   H3X19441   0.148   5.217   3.047
  172SAPE   H3Y19442   0.035   5.341   2.985
  172SAPE   C3419443   0.171   5.392   3.142
  172SAPE   H4X19444   0.173   5.502   3.127
  172SAPE   H4Y19445   0.278   5.369   3.162
  172SAPE   C3519446   0.085   5.360   3.262
  172SAPE   H5X19447   0.062   5.252   3.272
  172SAPE   H5Y19448   6.871   5.406   3.261
  172SAPE   C3619449   0.138   5.401   3.404
  172SAPE   H6X19450   0.146   5.512   3.398
  172SAPE   H6Y19451   0.240   5.363   3.425
  172SAPE   C3719452   0.044   5.374   3.530
  172SAPE   H7X19453   0.034   5.264   3.543
  172SAPE   H7Y19454   6.831   5.419   3.514
  172SAPE   C3819455   0.106   5.425   3.660
  172SAPE   H8X19456   0.122   5.534   3.653
  172SAPE   H8Y19457   0.204   5.373   3.674
  172SAPE   C3919458   0.012   5.388   3.781
  172SAPE   H9X19459   6.850   5.290   3.766
  172SAPE   H9Y19460   6.813   5.456   3.761
  172SAPE  C31019461   0.077   5.414   3.916
  172SAPE  H10X19462   0.173   5.359   3.909
  172SAPE  H10Y19463   0.010   5.374   3.995
  172SAPE  C31119464   0.088   5.566   3.943
  172SAPE  H11X19465   6.879   5.621   3.948
  172SAPE  H11Y19466   0.148   5.607   3.858
  172SAPE  C31219467   0.171   5.600   4.075
  172SAPE  H12X19468   0.230   5.692   4.058
  172SAPE  H12Y19469   0.242   5.517   4.097
  172SAPE  C31319470   0.084   5.646   4.195
  172SAPE  H13X19471   6.875   5.590   4.205
  172SAPE  H13Y19472   0.052   5.747   4.162
  172SAPE  C31419473   0.159   5.636   4.332
  172SAPE  H14X19474   0.164   5.527   4.351
  172SAPE  H14Y19475   0.100   5.674   4.418
  172SAPE  C31519476   0.298   5.688   4.342
  172SAPE  H15X19477   0.307   5.799   4.347
  172SAPE  H15Y19478   0.349   5.662   4.246
  172SAPE  C31619479   0.368   5.639   4.468
  172SAPE  H16X19480   0.309   5.636   4.562
  172SAPE  H16Y19481   0.449   5.712   4.487
  172SAPE  C31719482   0.446   5.511   4.444
  172SAPE  H17X19483   0.535   5.530   4.381
  172SAPE  H17Y19484   0.386   5.433   4.393
  172SAPE  C31819485   0.487   5.453   4.578
  172SAPE  H18X19486   0.561   5.375   4.552
  172SAPE  H18Y19487   0.403   5.408   4.636
  172SAPE  H18Z19488   0.535   5.528   4.645
  173SLPC     N19489   5.494   6.457   6.626
  173SLPC   C1319490   5.366   6.382   6.601
  173SLPC  H13A19491   5.299   6.428   6.530
  173SLPC  H13B19492   5.380   6.282   6.562
  173SLPC  H13C19493   5.308   6.375   6.692
  173SLPC   C1419494   5.589   6.379   6.719
  173SLPC  H14A19495   5.598   6.276   6.687
  173SLPC  H14B19496   5.684   6.429   6.728
  173SLPC  H14C19497   5.541   6.367   6.815
  173SLPC   C1519498   5.463   6.584   6.702
  173SLPC  H15A19499   5.400   6.652   6.646
  173SLPC  H15B19500   5.423   6.564   6.800
  173SLPC  H15C19501   5.557   6.637   6.705
  173SLPC   C1219502   5.562   6.483   6.489
  173SLPC  H12A19503   5.494   6.532   6.421
  173SLPC  H12B19504   5.575   6.387   6.441
  173SLPC   C1119505   5.693   6.574   6.487
  173SLPC  H11A19506   5.723   6.571   6.380
  173SLPC  H11B19507   5.773   6.523   6.544
  173SLPC     P19508   5.743   6.827   6.458
  173SLPC   O1319509   5.665   6.844   6.332
  173SLPC   O1419510   5.748   0.057   6.547
  173SLPC   O1219511   5.675   6.708   6.538
  173SLPC   O1119512   5.886   6.781   6.424
  173SLPC    C119513   5.980   6.814   6.317
  173SLPC    HA19514   5.983   0.037   6.301
  173SLPC    HB19515   6.081   6.785   6.352
  173SLPC    C219516   5.935   6.749   6.181
  173SLPC    HS19517   5.834   6.785   6.155
  173SLPC   O2119518   5.946   6.603   6.191
  173SLPC   C2119519   5.848   6.534   6.123
  173SLPC   O2219520   5.754   6.587   6.070
  173SLPC   C2219521   5.889   6.380   6.118
  173SLPC   H2R19522   5.880   6.339   6.221
  173SLPC   H2S19523   5.819   6.328   6.050
  173SLPC    C319524   6.025   6.795   6.068
  173SLPC    HX19525   6.128   6.753   6.077
  173SLPC    HY19526   6.049   0.016   6.079
  173SLPC   O3119527   5.974   6.764   5.938
  173SLPC   C3119528   5.875   6.837   5.892
  173SLPC   O3219529   5.826   0.051   5.941
  173SLPC   C3219530   5.834   6.788   5.754
  173SLPC   H2X19531   5.782   6.691   5.767
  173SLPC   H2Y19532   5.928   6.776   5.696
  173SLPC   C2319533   6.037   6.342   6.078
  173SLPC   H3R19534   6.050   6.233   6.058
  173SLPC   H3S19535   6.106   6.375   6.158
  173SLPC   C2419536   6.093   6.408   5.952
  173SLPC   H4R19537   6.200   6.378   5.941
  173SLPC   H4S19538   6.086   6.516   5.973
  173SLPC   C2519539   6.013   6.389   5.830
  173SLPC   H5R19540   6.045   6.458   5.750
  173SLPC   H5S19541   5.906   6.411   5.852
  173SLPC   C2619542   6.030   6.242   5.785
  173SLPC   H6R19543   5.949   6.220   5.713
  173SLPC   H6S19544   6.011   6.176   5.872
  173SLPC   C2719545   6.162   6.198   5.718
  173SLPC   H7R19546   6.159   6.093   5.684
  173SLPC   H7S19547   6.250   6.224   5.781
  173SLPC   C2819548   6.192   6.269   5.587
  173SLPC   H8R19549   6.166   6.377   5.589
  173SLPC   H8S19550   6.127   6.222   5.510
  173SLPC   C2919551   6.335   6.252   5.537
  173SLPC   H9R19552   6.415   6.291   5.601
  173SLPC  C21019553   6.365   6.213   5.409
  173SLPC  H10R19554   6.471   6.207   5.377
  173SLPC  C21119555   6.278   6.163   5.297
  173SLPC  H11R19556   6.319   6.172   5.194
  173SLPC  H11S19557   6.189   6.228   5.283
  173SLPC  C21219558   6.236   6.021   5.323
  173SLPC  H12R19559   6.266   5.978   5.420
  173SLPC  C21319560   6.204   5.937   5.226
  173SLPC  H13R19561   6.175   5.833   5.247
  173SLPC  C21419562   6.180   5.960   5.080
  173SLPC  H14R19563   6.222   5.873   5.026
  173SLPC  H14S19564   6.236   6.052   5.053
  173SLPC  C21519565   6.040   5.986   5.033
  173SLPC  H15R19566   6.010   6.074   5.094
  173SLPC  H15S19567   5.971   5.903   5.061
  173SLPC  C21619568   6.034   6.023   4.885
  173SLPC  H16R19569   6.108   6.104   4.862
  173SLPC  H16S19570   5.933   6.064   4.861
  173SLPC  C21719571   6.065   5.905   4.793
  173SLPC  H17R19572   5.994   5.824   4.819
  173SLPC  H17S19573   6.169   5.867   4.806
  173SLPC  C21819574   6.027   5.935   4.649
  173SLPC  H18R19575   6.090   6.019   4.611
  173SLPC  H18S19576   5.921   5.965   4.661
  173SLPC  H18T19577   6.038   5.838   4.595
  173SLPC   C3319578   5.733   6.876   5.676
  173SLPC   H3X19579   5.767   0.090   5.647
  173SLPC   H3Y19580   5.636   6.883   5.729
  173SLPC   C3419581   5.697   6.808   5.537
  173SLPC   H4X19582   5.683   6.700   5.560
  173SLPC   H4Y19583   5.787   6.808   5.472
  173SLPC   C3519584   5.570   6.861   5.472
  173SLPC   H5X19585   5.580   0.083   5.454
  173SLPC   H5Y19586   5.478   6.844   5.532
  173SLPC   C3619587   5.547   6.790   5.335
  173SLPC   H6X19588   5.449   6.832   5.305
  173SLPC   H6Y19589   5.533   6.683   5.361
  173SLPC   C3719590   5.646   6.815   5.220
  173SLPC   H7X19591   5.753   6.820   5.250
  173SLPC   H7Y19592   5.629   0.031   5.182
  173SLPC   C3819593   5.615   6.712   5.111
  173SLPC   H8X19594   5.505   6.713   5.094
  173SLPC   H8Y19595   5.637   6.608   5.143
  173SLPC   C3919596   5.682   6.751   4.978
  173SLPC   H9X19597   5.791   6.753   5.000
  173SLPC   H9Y19598   5.645   6.855   4.963
  173SLPC  C31019599   5.646   6.663   4.857
  173SLPC  H10X19600   5.537   6.646   4.862
  173SLPC  H10Y19601   5.695   6.563   4.864
  173SLPC  C31119602   5.676   6.734   4.729
  173SLPC  H11X19603   5.784   6.758   4.717
  173SLPC  H11Y19604   5.618   6.829   4.730
  173SLPC  C31219605   5.633   6.660   4.596
  173SLPC  H12X19606   5.671   6.555   4.602
  173SLPC  H12Y19607   5.679   6.710   4.509
  173SLPC  C31319608   5.483   6.653   4.562
  173SLPC  H13X19609   5.455   6.758   4.541
  173SLPC  H13Y19610   5.423   6.631   4.653
  173SLPC  C31419611   5.457   6.576   4.432
  173SLPC  H14X19612   5.458   6.466   4.443
  173SLPC  H14Y19613   5.540   6.599   4.362
  173SLPC  C31519614   5.320   6.604   4.374
  173SLPC  H15X19615   5.304   6.711   4.350
  173SLPC  H15Y19616   5.251   6.586   4.459
  173SLPC  C31619617   5.272   6.520   4.253
  173SLPC  H16X19618   5.295   6.411   4.256
  173SLPC  H16Y19619   5.333   6.560   4.169
  173SLPC  C31719620   5.124   6.543   4.225
  173SLPC  H17X19621   5.100   6.534   4.116
  173SLPC  H17Y19622   5.088   6.641   4.264
  173SLPC  C31819623   5.034   6.440   4.292
  173SLPC  H18X19624   5.032   6.471   4.398
  173SLPC  H18Y19625   5.067   6.334   4.281
  173SLPC  H18Z19626   4.938   6.452   4.239
  174SLPC     N19627   3.490   1.815   6.662
  174SLPC   C1319628   3.586   1.750   6.750
  174SLPC  H13A19629   3.583   1.643   6.739
  174SLPC  H13B19630   3.688   1.786   6.742
  174SLPC  H13C19631   3.564   1.776   6.853
  174SLPC   C1419632   3.534   1.777   6.522
  174SLPC  H14A19633   3.638   1.800   6.508
  174SLPC  H14B19634   3.528   1.669   6.515
  174SLPC  H14C19635   3.473   1.820   6.443
  174SLPC   C1519636   3.499   1.962   6.662
  174SLPC  H15A19637   3.602   1.993   6.653
  174SLPC  H15B19638   3.465   2.008   6.570
  174SLPC  H15C19639   3.459   2.010   6.751
  174SLPC   C1219640   3.352   1.768   6.692
  174SLPC  H12A19641   3.294   1.827   6.622
  174SLPC  H12B19642   3.327   1.786   6.795
  174SLPC   C1119643   3.328   1.617   6.660
  174SLPC  H11A19644   3.392   1.561   6.732
  174SLPC  H11B19645   3.356   1.592   6.555
  174SLPC     P19646   3.076   1.608   6.596
  174SLPC   O1319647   3.004   1.485   6.552
  174SLPC   O1419648   2.997   1.716   6.655
  174SLPC   O1219649   3.198   1.573   6.682
  174SLPC   O1119650   3.138   1.671   6.466
  174SLPC    C119651   3.175   1.595   6.352
  174SLPC    HA19652   3.286   1.595   6.343
  174SLPC    HB19653   3.141   1.489   6.360
  174SLPC    C219654   3.120   1.662   6.228
  174SLPC    HS19655   3.010   1.660   6.245
  174SLPC   O2119656   3.155   1.591   6.106
  174SLPC   C2119657   3.073   1.621   6.007
  174SLPC   O2219658   2.970   1.685   6.018
  174SLPC   C2219659   3.127   1.556   5.877
  174SLPC   H2R19660   3.236   1.545   5.895
  174SLPC   H2S19661   3.065   1.466   5.857
  174SLPC    C319662   3.154   1.814   6.218
  174SLPC    HX19663   3.111   1.864   6.307
  174SLPC    HY19664   3.088   1.847   6.135
  174SLPC   O3119665   3.295   1.839   6.213
  174SLPC   C3119666   3.330   1.891   6.101
  174SLPC   O3219667   3.258   1.934   6.011
  174SLPC   C3219668   3.485   1.895   6.092
  174SLPC   H2X19669   3.530   1.795   6.077
  174SLPC   H2Y19670   3.509   1.963   6.177
  174SLPC   C2319671   3.111   1.654   5.767
  174SLPC   H3R19672   3.149   1.752   5.803
  174SLPC   H3S19673   3.002   1.667   5.748
  174SLPC   C2419674   3.185   1.607   5.643
  174SLPC   H4R19675   3.137   1.514   5.606
  174SLPC   H4S19676   3.283   1.570   5.681
  174SLPC   C2519677   3.181   1.719   5.538
  174SLPC   H5R19678   3.225   1.813   5.578
  174SLPC   H5S19679   3.078   1.749   5.509
  174SLPC   C2619680   3.265   1.695   5.414
  174SLPC   H6R19681   3.228   1.597   5.377
  174SLPC   H6S19682   3.373   1.676   5.435
  174SLPC   C2719683   3.250   1.799   5.305
  174SLPC   H7R19684   3.317   1.884   5.331
  174SLPC   H7S19685   3.143   1.828   5.298
  174SLPC   C2819686   3.297   1.748   5.173
  174SLPC   H8R19687   3.218   1.676   5.144
  174SLPC   H8S19688   3.400   1.707   5.179
  174SLPC   C2919689   3.297   1.858   5.075
  174SLPC   H9R19690   3.198   1.900   5.050
  174SLPC  C21019691   3.407   1.907   5.018
  174SLPC  H10R19692   3.394   1.974   4.932
  174SLPC  C21119693   3.551   1.852   5.039
  174SLPC  H11R19694   3.551   1.741   5.032
  174SLPC  H11S19695   3.599   1.870   5.137
  174SLPC  C21219696   3.661   1.910   4.950
  174SLPC  H12R19697   3.751   1.937   5.007
  174SLPC  C21319698   3.667   1.913   4.817
  174SLPC  H13R19699   3.754   1.958   4.767
  174SLPC  C21419700   3.558   1.872   4.716
  174SLPC  H14R19701   3.513   1.973   4.703
  174SLPC  H14S19702   3.489   1.799   4.764
  174SLPC  C21519703   3.603   1.834   4.570
  174SLPC  H15R19704   3.508   1.811   4.517
  174SLPC  H15S19705   3.663   1.741   4.565
  174SLPC  C21619706   3.662   1.949   4.496
  174SLPC  H16R19707   3.756   1.981   4.545
  174SLPC  H16S19708   3.597   2.038   4.513
  174SLPC  C21719709   3.688   1.924   4.346
  174SLPC  H17R19710   3.598   1.868   4.313
  174SLPC  H17S19711   3.772   1.853   4.334
  174SLPC  C21819712   3.707   2.050   4.257
  174SLPC  H18R19713   3.617   2.114   4.248
  174SLPC  H18S19714   3.725   2.020   4.152
  174SLPC  H18T19715   3.789   2.115   4.296
  174SLPC   C3319716   3.540   1.971   5.965
  174SLPC   H3X19717   3.647   1.993   5.980
  174SLPC   H3Y19718   3.487   2.069   5.957
  174SLPC   C3419719   3.514   1.900   5.830
  174SLPC   H4X19720   3.409   1.867   5.812
  174SLPC   H4Y19721   3.564   1.802   5.814
  174SLPC   C3519722   3.548   1.998   5.712
  174SLPC   H5X19723   3.644   2.049   5.734
  174SLPC   H5Y19724   3.478   2.084   5.712
  174SLPC   C3619725   3.574   1.935   5.575
  174SLPC   H6X19726   3.478   1.889   5.544
  174SLPC   H6Y19727   3.650   1.854   5.581
  174SLPC   C3719728   3.617   2.035   5.460
  174SLPC   H7X19729   3.523   2.084   5.427
  174SLPC   H7Y19730   3.647   1.956   5.387
  174SLPC   C3819731   3.728   2.139   5.486
  174SLPC   H8X19732   3.815   2.084   5.530
  174SLPC   H8Y19733   3.677   2.201   5.563
  174SLPC   C3919734   3.748   2.229   5.363
  174SLPC   H9X19735   3.815   2.309   5.401
  174SLPC   H9Y19736   3.657   2.282   5.328
  174SLPC  C31019737   3.813   2.158   5.238
  174SLPC  H10X19738   3.736   2.085   5.205
  174SLPC  H10Y19739   3.903   2.102   5.273
  174SLPC  C31119740   3.850   2.267   5.133
  174SLPC  H11X19741   3.908   2.342   5.191
  174SLPC  H11Y19742   3.757   2.325   5.115
  174SLPC  C31219743   3.914   2.218   5.001
  174SLPC  H12X19744   3.905   2.297   4.924
  174SLPC  H12Y19745   3.873   2.131   4.947
  174SLPC  C31319746   4.063   2.183   5.023
  174SLPC  H13X19747   4.066   2.091   5.086
  174SLPC  H13Y19748   4.109   2.266   5.080
  174SLPC  C31419749   4.140   2.155   4.900
  174SLPC  H14X19750   4.087   2.087   4.830
  174SLPC  H14Y19751   4.237   2.106   4.922
  174SLPC  C31519752   4.175   2.287   4.829
  174SLPC  H15X19753   4.219   2.357   4.903
  174SLPC  H15Y19754   4.080   2.325   4.784
  174SLPC  C31619755   4.272   2.258   4.707
  174SLPC  H16X19756   4.370   2.231   4.751
  174SLPC  H16Y19757   4.276   2.353   4.650
  174SLPC  C31719758   4.229   2.148   4.597
  174SLPC  H17X19759   4.251   2.046   4.636
  174SLPC  H17Y19760   4.292   2.159   4.507
  174SLPC  C31819761   4.082   2.172   4.563
  174SLPC  H18X19762   4.053   2.087   4.497
  174SLPC  H18Y19763   4.064   2.264   4.505
  174SLPC  H18Z19764   4.010   2.168   4.648
  175SLPC     N19765   6.412   2.672   7.144
  175SLPC   C1319766   6.268   2.694   7.158
  175SLPC  H13A19767   6.246   2.797   7.183
  175SLPC  H13B19768   6.207   2.653   7.078
  175SLPC  H13C19769   6.232   2.639   7.244
  175SLPC   C1419770   6.437   2.526   7.127
  175SLPC  H14A19771   6.398   2.496   7.031
  175SLPC  H14B19772   6.542   2.503   7.121
  175SLPC  H14C19773   6.382   2.474   7.204
  175SLPC   C1519774   6.477   2.719   7.275
  175SLPC  H15A19775   6.585   2.707   7.275
  175SLPC  H15B19776   6.456   2.824   7.288
  175SLPC  H15C19777   6.436   2.665   7.358
  175SLPC   C1219778   6.463   2.771   7.035
  175SLPC  H12A19779   6.570   2.786   7.037
  175SLPC  H12B19780   6.443   2.873   7.067
  175SLPC   C1119781   6.417   2.756   6.889
  175SLPC  H11A19782   6.440   2.652   6.860
  175SLPC  H11B19783   6.475   2.821   6.820
  175SLPC     P19784   6.233   2.923   6.875
  175SLPC   O1319785   6.143   2.954   6.990
  175SLPC   O1419786   6.347   3.014   6.870
  175SLPC   O1219787   6.277   2.774   6.869
  175SLPC   O1119788   6.142   2.927   6.739
  175SLPC    C119789   6.040   2.826   6.737
  175SLPC    HA19790   6.078   2.723   6.724
  175SLPC    HB19791   5.989   2.830   6.835
  175SLPC    C219792   5.928   2.857   6.634
  175SLPC    HS19793   5.872   2.761   6.627
  175SLPC   O2119794   5.972   2.887   6.501
  175SLPC   C2119795   6.024   2.787   6.424
  175SLPC   O2219796   6.050   2.676   6.470
  175SLPC   C2219797   6.038   2.820   6.274
  175SLPC   H2R19798   5.955   2.877   6.229
  175SLPC   H2S19799   6.124   2.891   6.265
  175SLPC    C319800   5.832   2.961   6.683
  175SLPC    HX19801   5.885   3.057   6.700
  175SLPC    HY19802   5.789   2.926   6.779
  175SLPC   O3119803   5.725   2.969   6.589
  175SLPC   C3119804   5.713   3.084   6.515
  175SLPC   O3219805   5.783   3.184   6.523
  175SLPC   C3219806   5.593   3.069   6.419
  175SLPC   H2X19807   5.506   3.113   6.473
  175SLPC   H2Y19808   5.570   2.960   6.414
  175SLPC   C2319809   6.061   2.696   6.186
  175SLPC   H3R19810   5.962   2.654   6.158
  175SLPC   H3S19811   6.120   2.618   6.240
  175SLPC   C2419812   6.137   2.726   6.057
  175SLPC   H4R19813   6.145   2.625   6.011
  175SLPC   H4S19814   6.240   2.761   6.079
  175SLPC   C2519815   6.060   2.816   5.959
  175SLPC   H5R19816   6.030   2.908   6.012
  175SLPC   H5S19817   5.967   2.764   5.927
  175SLPC   C2619818   6.137   2.860   5.836
  175SLPC   H6R19819   6.162   2.762   5.791
  175SLPC   H6S19820   6.239   2.902   5.854
  175SLPC   C2719821   6.054   2.933   5.725
  175SLPC   H7R19822   6.032   3.021   5.788
  175SLPC   H7S19823   5.961   2.878   5.700
  175SLPC   C2819824   6.137   2.953   5.600
  175SLPC   H8R19825   6.242   2.965   5.635
  175SLPC   H8S19826   6.117   3.054   5.557
  175SLPC   C2919827   6.143   2.840   5.504
  175SLPC   H9R19828   6.125   2.741   5.550
  175SLPC  C21019829   6.157   2.840   5.374
  175SLPC  H10R19830   6.134   2.748   5.319
  175SLPC  C21119831   6.151   2.965   5.290
  175SLPC  H11R19832   6.214   3.043   5.338
  175SLPC  H11S19833   6.051   3.011   5.296
  175SLPC  C21219834   6.194   2.963   5.144
  175SLPC  H12R19835   6.268   2.885   5.121
  175SLPC  C21319836   6.157   3.055   5.058
  175SLPC  H13R19837   6.177   3.046   4.950
  175SLPC  C21419838   6.069   3.170   5.099
  175SLPC  H14R19839   6.081   3.254   5.027
  175SLPC  H14S19840   6.100   3.209   5.199
  175SLPC  C21519841   5.916   3.135   5.085
  175SLPC  H15R19842   5.844   3.204   5.135
  175SLPC  H15S19843   5.898   3.036   5.132
  175SLPC  C21619844   5.873   3.108   4.933
  175SLPC  H16R19845   5.799   3.026   4.934
  175SLPC  H16S19846   5.960   3.079   4.870
  175SLPC  C21719847   5.793   3.220   4.866
  175SLPC  H17R19848   5.797   3.206   4.756
  175SLPC  H17S19849   5.838   3.313   4.905
  175SLPC  C21819850   5.644   3.233   4.904
  175SLPC  H18R19851   5.575   3.153   4.870
  175SLPC  H18S19852   5.610   3.322   4.845
  175SLPC  H18T19853   5.639   3.245   5.014
  175SLPC   C3319854   5.606   3.146   6.286
  175SLPC   H3X19855   5.628   3.253   6.306
  175SLPC   H3Y19856   5.506   3.143   6.239
  175SLPC   C3419857   5.705   3.080   6.190
  175SLPC   H4X19858   5.698   2.970   6.200
  175SLPC   H4Y19859   5.807   3.115   6.215
  175SLPC   C3519860   5.681   3.136   6.049
  175SLPC   H5X19861   5.714   3.242   6.046
  175SLPC   H5Y19862   5.574   3.158   6.029
  175SLPC   C3619863   5.737   3.045   5.940
  175SLPC   H6X19864   5.693   2.944   5.929
  175SLPC   H6Y19865   5.844   3.021   5.956
  175SLPC   C3719866   5.742   3.122   5.805
  175SLPC   H7X19867   5.838   3.101   5.754
  175SLPC   H7Y19868   5.728   3.228   5.837
  175SLPC   C3819869   5.620   3.090   5.714
  175SLPC   H8X19870   5.597   3.168   5.638
  175SLPC   H8Y19871   5.531   3.114   5.776
  175SLPC   C3919872   5.618   2.945   5.649
  175SLPC   H9X19873   5.518   2.929   5.604
  175SLPC   H9Y19874   5.630   2.865   5.725
  175SLPC  C31019875   5.717   2.926   5.540
  175SLPC  H10X19876   5.708   2.823   5.501
  175SLPC  H10Y19877   5.817   2.948   5.583
  175SLPC  C31119878   5.700   3.013   5.417
  175SLPC  H11X19879   5.789   2.996   5.352
  175SLPC  H11Y19880   5.701   3.120   5.446
  175SLPC  C31219881   5.571   2.983   5.347
  175SLPC  H12X19882   5.485   3.028   5.401
  175SLPC  H12Y19883   5.557   2.873   5.351
  175SLPC  C31319884   5.561   3.033   5.198
  175SLPC  H13X19885   5.647   3.001   5.135
  175SLPC  H13Y19886   5.565   3.144   5.198
  175SLPC  C31419887   5.435   3.000   5.120
  175SLPC  H14X19888   5.418   3.075   5.040
  175SLPC  H14Y19889   5.346   2.998   5.187
  175SLPC  C31519890   5.447   2.860   5.039
  175SLPC  H15X19891   5.470   2.769   5.098
  175SLPC  H15Y19892   5.534   2.858   4.971
  175SLPC  C31619893   5.324   2.824   4.955
  175SLPC  H16X19894   5.314   2.893   4.868
  175SLPC  H16Y19895   5.234   2.838   5.019
  175SLPC  C31719896   5.325   2.679   4.911
  175SLPC  H17X19897   5.326   2.617   5.003
  175SLPC  H17Y19898   5.416   2.631   4.868
  175SLPC  C31819899   5.205   2.650   4.830
  175SLPC  H18X19900   5.198   2.541   4.807
  175SLPC  H18Y19901   5.209   2.714   4.739
  175SLPC  H18Z19902   5.117   2.701   4.874
  176SLPC     N19903   5.342   0.347   6.669
  176SLPC   C1319904   5.276   0.292   6.791
  176SLPC  H13A19905   5.271   0.370   6.865
  176SLPC  H13B19906   5.171   0.279   6.772
  176SLPC  H13C19907   5.319   0.204   6.836
  176SLPC   C1419908   5.235   0.428   6.598
  176SLPC  H14A19909   5.153   0.363   6.571
  176SLPC  H14B19910   5.206   0.513   6.657
  176SLPC  H14C19911   5.283   0.458   6.506
  176SLPC   C1519912   5.376   0.230   6.584
  176SLPC  H15A19913   5.290   0.164   6.582
  176SLPC  H15B19914   5.386   0.261   6.481
  176SLPC  H15C19915   5.465   0.187   6.628
  176SLPC   C1219916   5.469   0.420   6.700
  176SLPC  H12A19917   5.512   0.467   6.613
  176SLPC  H12B19918   5.542   0.350   6.737
  176SLPC   C1119919   5.450   0.539   6.800
  176SLPC  H11A19920   5.549   0.589   6.809
  176SLPC  H11B19921   5.415   0.496   6.897
  176SLPC     P19922   5.382   0.734   6.645
  176SLPC   O1319923   5.249   0.771   6.593
  176SLPC   O1419924   5.463   0.844   6.702
  176SLPC   O1219925   5.350   0.631   6.756
  176SLPC   O1119926   5.461   0.645   6.536
  176SLPC    C119927   5.593   0.650   6.492
  176SLPC    HA19928   5.658   0.683   6.575
  176SLPC    HB19929   5.632   0.552   6.459
  176SLPC    C219930   5.599   0.728   6.356
  176SLPC    HS19931   5.701   0.714   6.315
  176SLPC   O2119932   5.567   0.871   6.362
  176SLPC   C2119933   5.667   0.934   6.423
  176SLPC   O2219934   5.768   0.885   6.477
  176SLPC   C2219935   5.656   1.086   6.422
  176SLPC   H2R19936   5.575   1.113   6.351
  176SLPC   H2S19937   5.625   1.122   6.522
  176SLPC    C319938   5.503   0.654   6.259
  176SLPC    HX19939   5.409   0.634   6.314
  176SLPC    HY19940   5.549   0.556   6.232
  176SLPC   O3119941   5.481   0.728   6.133
  176SLPC   C3119942   5.388   0.821   6.140
  176SLPC   O3219943   5.317   0.844   6.234
  176SLPC   C3219944   5.377   0.902   6.007
  176SLPC   H2X19945   5.472   0.960   5.999
  176SLPC   H2Y19946   5.300   0.980   6.026
  176SLPC   C2319947   5.782   1.151   6.374
  176SLPC   H3R19948   5.874   1.126   6.431
  176SLPC   H3S19949   5.788   1.259   6.399
  176SLPC   C2419950   5.813   1.112   6.230
  176SLPC   H4R19951   5.853   1.008   6.228
  176SLPC   H4S19952   5.902   1.175   6.205
  176SLPC   C2519953   5.701   1.132   6.126
  176SLPC   H5R19954   5.669   1.239   6.131
  176SLPC   H5S19955   5.612   1.068   6.145
  176SLPC   C2619956   5.752   1.100   5.982
  176SLPC   H6R19957   5.841   1.157   5.948
  176SLPC   H6S19958   5.676   1.125   5.905
  176SLPC   C2719959   5.780   0.955   5.960
  176SLPC   H7R19960   5.688   0.906   5.998
  176SLPC   H7S19961   5.870   0.925   6.017
  176SLPC   C2819962   5.787   0.903   5.813
  176SLPC   H8R19963   5.860   0.955   5.748
  176SLPC   H8S19964   5.688   0.931   5.771
  176SLPC   C2919965   5.811   0.755   5.809
  176SLPC   H9R19966   5.744   0.704   5.880
  176SLPC  C21019967   5.896   0.691   5.721
  176SLPC  H10R19968   5.922   0.585   5.736
  176SLPC  C21119969   5.971   0.758   5.604
  176SLPC  H11R19970   6.040   0.836   5.642
  176SLPC  H11S19971   5.893   0.808   5.543
  176SLPC  C21219972   6.043   0.652   5.521
  176SLPC  H12R19973   5.990   0.556   5.505
  176SLPC  C21319974   6.156   0.673   5.458
  176SLPC  H13R19975   6.198   0.596   5.392
  176SLPC  C21419976   6.232   0.801   5.454
  176SLPC  H14R19977   6.185   0.894   5.490
  176SLPC  H14S19978   6.264   0.823   5.349
  176SLPC  C21519979   6.379   0.793   5.518
  176SLPC  H15R19980   6.380   0.786   5.629
  176SLPC  H15S19981   6.435   0.887   5.497
  176SLPC  C21619982   6.464   0.675   5.458
  176SLPC  H16R19983   6.434   0.663   5.352
  176SLPC  H16S19984   6.436   0.590   5.525
  176SLPC  C21719985   6.614   0.695   5.454
  176SLPC  H17R19986   6.636   0.784   5.392
  176SLPC  H17S19987   6.651   0.610   5.394
  176SLPC  C21819988   6.684   0.705   5.589
  176SLPC  H18R19989   6.668   0.617   5.655
  176SLPC  H18S19990   6.646   0.789   5.651
  176SLPC  H18T19991   6.795   0.703   5.575
  176SLPC   C3319992   5.354   0.822   5.880
  176SLPC   H3X19993   5.266   0.755   5.895
  176SLPC   H3Y19994   5.441   0.753   5.867
  176SLPC   C3419995   5.340   0.921   5.763
  176SLPC   H4X19996   5.426   0.992   5.762
  176SLPC   H4Y19997   5.249   0.984   5.773
  176SLPC   C3519998   5.331   0.852   5.626
  176SLPC   H5X19999   5.303   0.931   5.553
  176SLPC   H5Y20000   5.261   0.767   5.610
  176SLPC   C3620001   5.463   0.802   5.565
  176SLPC   H6X20002   5.506   0.733   5.640
  176SLPC   H6Y20003   5.534   0.887   5.554
  176SLPC   C3720004   5.443   0.732   5.426
  176SLPC   H7X20005   5.344   0.682   5.418
  176SLPC   H7Y20006   5.518   0.651   5.417
  176SLPC   C3820007   5.468   0.827   5.314
  176SLPC   H8X20008   5.574   0.859   5.307
  176SLPC   H8Y20009   5.412   0.921   5.332
  176SLPC   C3920010   5.410   0.757   5.189
  176SLPC   H9X20011   5.316   0.701   5.209
  176SLPC   H9Y20012   5.480   0.672   5.176
  176SLPC  C31020013   5.390   0.847   5.067
  176SLPC  H10X20014   5.467   0.921   5.035
  176SLPC  H10Y20015   5.299   0.910   5.076
  176SLPC  C31120016   5.363   0.758   4.943
  176SLPC  H11X20017   5.447   0.687   4.928
  176SLPC  H11Y20018   5.347   0.823   4.854
  176SLPC  C31220019   5.234   0.678   4.951
  176SLPC  H12X20020   5.149   0.741   4.985
  176SLPC  H12Y20021   5.252   0.597   5.025
  176SLPC  C31320022   5.197   0.626   4.809
  176SLPC  H13X20023   5.283   0.562   4.780
  176SLPC  H13Y20024   5.193   0.703   4.729
  176SLPC  C31420025   5.068   0.550   4.797
  176SLPC  H14X20026   5.063   0.506   4.695
  176SLPC  H14Y20027   4.982   0.620   4.795
  176SLPC  C31520028   5.051   0.436   4.901
  176SLPC  H15X20029   5.029   0.480   5.001
  176SLPC  H15Y20030   5.149   0.384   4.905
  176SLPC  C31620031   4.939   0.332   4.876
  176SLPC  H16X20032   4.959   0.248   4.947
  176SLPC  H16Y20033   4.949   0.291   4.774
  176SLPC  C31720034   4.805   0.385   4.921
  176SLPC  H17X20035   4.763   0.447   4.839
  176SLPC  H17Y20036   4.807   0.438   5.018
  176SLPC  C31820037   4.718   0.261   4.940
  176SLPC  H18X20038   4.746   0.182   4.867
  176SLPC  H18Y20039   4.609   0.278   4.944
  176SLPC  H18Z20040   4.745   0.222   5.041
  177SLPC     N20041   5.537   1.710   7.113
  177SLPC   C1320042   5.455   1.585   7.108
  177SLPC  H13A20043   5.476   1.534   7.015
  177SLPC  H13B20044   5.478   1.516   7.187
  177SLPC  H13C20045   5.350   1.608   7.118
  177SLPC   C1420046   5.681   1.670   7.100
  177SLPC  H14A20047   5.747   1.730   7.161
  177SLPC  H14B20048   5.702   1.568   7.125
  177SLPC  H14C20049   5.714   1.670   6.997
  177SLPC   C1520050   5.512   1.791   7.236
  177SLPC  H15A20051   5.409   1.821   7.248
  177SLPC  H15B20052   5.538   1.735   7.325
  177SLPC  H15C20053   5.584   1.871   7.241
  177SLPC   C1220054   5.499   1.794   6.995
  177SLPC  H12A20055   5.565   1.876   6.971
  177SLPC  H12B20056   5.411   1.854   7.016
  177SLPC   C1120057   5.475   1.738   6.854
  177SLPC  H11A20058   5.462   1.821   6.780
  177SLPC  H11B20059   5.382   1.679   6.848
  177SLPC     P20060   5.578   1.522   6.754
  177SLPC   O1320061   5.711   1.457   6.729
  177SLPC   O1420062   5.476   1.444   6.826
  177SLPC   O1220063   5.590   1.661   6.819
  177SLPC   O1120064   5.516   1.562   6.605
  177SLPC    C120065   5.550   1.689   6.548
  177SLPC    HA20066   5.466   1.758   6.570
  177SLPC    HB20067   5.651   1.720   6.583
  177SLPC    C220068   5.568   1.679   6.397
  177SLPC    HS20069   5.603   1.772   6.348
  177SLPC   O2120070   5.442   1.634   6.343
  177SLPC   C2120071   5.395   1.693   6.238
  177SLPC   O2220072   5.464   1.762   6.167
  177SLPC   C2220073   5.250   1.641   6.198
  177SLPC   H2R20074   5.193   1.635   6.293
  177SLPC   H2S20075   5.203   1.723   6.141
  177SLPC    C320076   5.669   1.566   6.365
  177SLPC    HX20077   5.666   1.478   6.433
  177SLPC    HY20078   5.762   1.624   6.388
  177SLPC   O3120079   5.662   1.516   6.236
  177SLPC   C3120080   5.777   1.509   6.167
  177SLPC   O3220081   5.890   1.522   6.213
  177SLPC   C3220082   5.756   1.481   6.019
  177SLPC   H2X20083   5.648   1.479   5.991
  177SLPC   H2Y20084   5.792   1.380   5.989
  177SLPC   C2320085   5.258   1.517   6.112
  177SLPC   H3R20086   5.152   1.500   6.085
  177SLPC   H3S20087   5.288   1.435   6.181
  177SLPC   C2420088   5.343   1.540   5.980
  177SLPC   H4R20089   5.441   1.587   6.006
  177SLPC   H4S20090   5.292   1.611   5.911
  177SLPC   C2520091   5.369   1.414   5.894
  177SLPC   H5R20092   5.276   1.355   5.879
  177SLPC   H5S20093   5.421   1.342   5.959
  177SLPC   C2620094   5.434   1.439   5.756
  177SLPC   H6R20095   5.533   1.482   5.782
  177SLPC   H6S20096   5.373   1.509   5.695
  177SLPC   C2720097   5.462   1.315   5.677
  177SLPC   H7R20098   5.366   1.283   5.631
  177SLPC   H7S20099   5.485   1.230   5.745
  177SLPC   C2820100   5.565   1.326   5.564
  177SLPC   H8R20101   5.651   1.380   5.607
  177SLPC   H8S20102   5.524   1.391   5.483
  177SLPC   C2920103   5.605   1.189   5.517
  177SLPC   H9R20104   5.530   1.110   5.535
  177SLPC  C21020105   5.712   1.165   5.430
  177SLPC  H10R20106   5.739   1.065   5.393
  177SLPC  C21120107   5.812   1.273   5.392
  177SLPC  H11R20108   5.829   1.342   5.477
  177SLPC  H11S20109   5.768   1.331   5.308
  177SLPC  C21220110   5.941   1.208   5.352
  177SLPC  H12R20111   6.010   1.205   5.437
  177SLPC  C21320112   5.959   1.132   5.239
  177SLPC  H13R20113   6.045   1.063   5.250
  177SLPC  C21420114   5.858   1.102   5.133
  177SLPC  H14R20115   5.762   1.157   5.149
  177SLPC  H14S20116   5.824   0.996   5.138
  177SLPC  C21520117   5.900   1.133   4.987
  177SLPC  H15R20118   6.010   1.117   4.976
  177SLPC  H15S20119   5.886   1.242   4.969
  177SLPC  C21620120   5.829   1.041   4.896
  177SLPC  H16R20121   5.721   1.043   4.922
  177SLPC  H16S20122   5.860   0.939   4.927
  177SLPC  C21720123   5.847   1.063   4.744
  177SLPC  H17R20124   5.952   1.093   4.725
  177SLPC  H17S20125   5.792   1.153   4.707
  177SLPC  C21820126   5.807   0.947   4.657
  177SLPC  H18R20127   5.826   0.968   4.550
  177SLPC  H18S20128   5.699   0.923   4.658
  177SLPC  H18T20129   5.841   0.847   4.693
  177SLPC   C3320130   5.821   1.586   5.932
  177SLPC   H3X20131   5.807   1.546   5.830
  177SLPC   H3Y20132   5.931   1.598   5.943
  177SLPC   C3420133   5.753   1.720   5.937
  177SLPC   H4X20134   5.756   1.759   6.041
  177SLPC   H4Y20135   5.643   1.712   5.921
  177SLPC   C3520136   5.813   1.821   5.836
  177SLPC   H5X20137   5.731   1.897   5.829
  177SLPC   H5Y20138   5.830   1.766   5.741
  177SLPC   C3620139   5.934   1.895   5.892
  177SLPC   H6X20140   6.016   1.821   5.907
  177SLPC   H6Y20141   5.912   1.944   5.989
  177SLPC   C3720142   5.997   1.992   5.785
  177SLPC   H7X20143   6.089   2.045   5.816
  177SLPC   H7Y20144   5.917   2.067   5.767
  177SLPC   C3820145   6.039   1.936   5.646
  177SLPC   H8X20146   5.954   1.885   5.596
  177SLPC   H8Y20147   6.117   1.858   5.657
  177SLPC   C3920148   6.080   2.040   5.552
  177SLPC   H9X20149   6.188   2.062   5.565
  177SLPC   H9Y20150   6.032   2.137   5.575
  177SLPC  C31020151   6.055   2.006   5.408
  177SLPC  H10X20152   5.951   1.972   5.391
  177SLPC  H10Y20153   6.139   1.938   5.380
  177SLPC  C31120154   6.075   2.135   5.324
  177SLPC  H11X20155   6.169   2.191   5.340
  177SLPC  H11Y20156   5.983   2.191   5.350
  177SLPC  C31220157   6.089   2.122   5.174
  177SLPC  H12X20158   5.989   2.083   5.145
  177SLPC  H12Y20159   6.163   2.045   5.143
  177SLPC  C31320160   6.110   2.254   5.096
  177SLPC  H13X20161   6.217   2.276   5.116
  177SLPC  H13Y20162   6.056   2.337   5.147
  177SLPC  C31420163   6.070   2.244   4.947
  177SLPC  H14X20164   5.960   2.225   4.946
  177SLPC  H14Y20165   6.121   2.156   4.901
  177SLPC  C31520166   6.107   2.374   4.882
  177SLPC  H15X20167   6.140   2.348   4.779
  177SLPC  H15Y20168   6.203   2.410   4.926
  177SLPC  C31620169   5.995   2.477   4.874
  177SLPC  H16X20170   5.970   2.493   4.981
  177SLPC  H16Y20171   5.906   2.430   4.827
  177SLPC  C31720172   6.037   2.613   4.810
  177SLPC  H17X20173   5.973   2.634   4.722
  177SLPC  H17Y20174   6.140   2.608   4.768
  177SLPC  C31820175   6.018   2.733   4.909
  177SLPC  H18X20176   6.027   2.831   4.858
  177SLPC  H18Y20177   6.083   2.699   4.993
  177SLPC  H18Z20178   5.912   2.734   4.942
  178SLPC     N20179   2.431   6.467   6.716
  178SLPC   C1320180   2.351   6.341   6.685
  178SLPC  H13A20181   2.306   6.310   6.778
  178SLPC  H13B20182   2.268   6.367   6.621
  178SLPC  H13C20183   2.415   6.261   6.649
  178SLPC   C1420184   2.523   6.435   6.826
  178SLPC  H14A20185   2.594   6.516   6.832
  178SLPC  H14B20186   2.474   6.431   6.922
  178SLPC  H14C20187   2.578   6.344   6.808
  178SLPC   C1520188   2.329   6.567   6.750
  178SLPC  H15A20189   2.281   6.545   6.844
  178SLPC  H15B20190   2.381   6.662   6.755
  178SLPC  H15C20191   2.249   6.574   6.679
  178SLPC   C1220192   2.512   6.510   6.591
  178SLPC  H12A20193   2.565   6.600   6.619
  178SLPC  H12B20194   2.447   6.537   6.509
  178SLPC   C1120195   2.619   6.422   6.532
  178SLPC  H11A20196   2.694   6.406   6.613
  178SLPC  H11B20197   2.681   6.464   6.450
  178SLPC     P20198   2.497   6.290   6.354
  178SLPC   O1320199   2.435   6.154   6.340
  178SLPC   O1420200   2.406   6.407   6.361
  178SLPC   O1220201   2.573   6.299   6.496
  178SLPC   O1120202   2.610   6.320   6.246
  178SLPC    C120203   2.743   6.269   6.264
  178SLPC    HA20204   2.788   6.287   6.364
  178SLPC    HB20205   2.741   6.159   6.256
  178SLPC    C220206   2.846   6.323   6.163
  178SLPC    HS20207   2.875   6.424   6.200
  178SLPC   O2120208   2.791   6.343   6.027
  178SLPC   C2120209   2.706   6.444   6.017
  178SLPC   O2220210   2.709   6.555   6.074
  178SLPC   C2220211   2.609   6.417   5.905
  178SLPC   H2R20212   2.659   6.424   5.806
  178SLPC   H2S20213   2.563   6.317   5.918
  178SLPC    C320214   2.979   6.238   6.174
  178SLPC    HX20215   2.955   6.130   6.169
  178SLPC    HY20216   3.028   6.248   6.273
  178SLPC   O3120217   3.069   6.264   6.068
  178SLPC   C3120218   3.149   6.374   6.070
  178SLPC   O3220219   3.170   6.443   6.167
  178SLPC   C3220220   3.214   6.393   5.927
  178SLPC   H2X20221   3.148   6.342   5.854
  178SLPC   H2Y20222   3.309   6.336   5.930
  178SLPC   C2320223   2.500   6.524   5.912
  178SLPC   H3R20224   2.544   6.626   5.915
  178SLPC   H3S20225   2.440   6.520   6.006
  178SLPC   C2420226   2.403   6.511   5.794
  178SLPC   H4R20227   2.315   6.578   5.805
  178SLPC   H4S20228   2.359   6.410   5.808
  178SLPC   C2520229   2.453   6.510   5.652
  178SLPC   H5R20230   2.472   6.405   5.621
  178SLPC   H5S20231   2.546   6.572   5.645
  178SLPC   C2620232   2.341   6.565   5.562
  178SLPC   H6R20233   2.303   6.659   5.607
  178SLPC   H6S20234   2.250   6.501   5.558
  178SLPC   C2720235   2.391   6.578   5.415
  178SLPC   H7R20236   2.438   6.481   5.388
  178SLPC   H7S20237   2.476   6.648   5.423
  178SLPC   C2820238   2.274   6.608   5.325
  178SLPC   H8R20239   2.188   6.545   5.355
  178SLPC   H8S20240   2.310   6.564   5.230
  178SLPC   C2920241   2.246   6.753   5.317
  178SLPC   H9R20242   2.277   6.819   5.399
  178SLPC  C21020243   2.212   6.804   5.197
  178SLPC  H10R20244   2.187   0.024   5.194
  178SLPC  C21120245   2.200   6.719   5.072
  178SLPC  H11R20246   2.118   6.646   5.092
  178SLPC  H11S20247   2.298   6.681   5.037
  178SLPC  C21220248   2.157   6.803   4.955
  178SLPC  H12R20249   2.182   0.023   4.966
  178SLPC  C21320250   2.111   6.757   4.839
  178SLPC  H13R20251   2.078   6.831   4.765
  178SLPC  C21420252   2.077   6.615   4.810
  178SLPC  H14R20253   2.071   6.538   4.890
  178SLPC  H14S20254   2.139   6.584   4.723
  178SLPC  C21520255   1.943   6.613   4.750
  178SLPC  H15R20256   1.923   6.508   4.719
  178SLPC  H15S20257   1.941   6.676   4.659
  178SLPC  C21620258   1.826   6.659   4.844
  178SLPC  H16R20259   1.733   6.650   4.785
  178SLPC  H16S20260   1.838   6.764   4.878
  178SLPC  C21720261   1.810   6.572   4.966
  178SLPC  H17R20262   1.909   6.564   5.015
  178SLPC  H17S20263   1.767   6.476   4.932
  178SLPC  C21820264   1.714   6.651   5.051
  178SLPC  H18R20265   1.727   6.761   5.040
  178SLPC  H18S20266   1.724   6.632   5.160
  178SLPC  H18T20267   1.613   6.624   5.015
  178SLPC   C3320268   3.233   6.543   5.889
  178SLPC   H3X20269   3.267   6.552   5.784
  178SLPC   H3Y20270   3.315   6.585   5.953
  178SLPC   C3420271   3.107   6.633   5.899
  178SLPC   H4X20272   3.131   6.738   5.873
  178SLPC   H4Y20273   3.081   6.644   6.007
  178SLPC   C3520274   2.987   6.576   5.819
  178SLPC   H5X20275   2.898   6.639   5.839
  178SLPC   H5Y20276   2.959   6.477   5.861
  178SLPC   C3620277   3.009   6.575   5.666
  178SLPC   H6X20278   3.096   6.509   5.647
  178SLPC   H6Y20279   3.042   6.673   5.624
  178SLPC   C3720280   2.884   6.508   5.591
  178SLPC   H7X20281   2.798   6.576   5.610
  178SLPC   H7Y20282   2.862   6.402   5.618
  178SLPC   C3820283   2.904   6.518   5.436
  178SLPC   H8X20284   2.982   6.446   5.402
  178SLPC   H8Y20285   2.954   6.615   5.417
  178SLPC   C3920286   2.775   6.506   5.358
  178SLPC   H9X20287   2.718   6.599   5.377
  178SLPC   H9Y20288   2.721   6.413   5.389
  178SLPC  C31020289   2.809   6.494   5.209
  178SLPC  H10X20290   2.881   6.411   5.196
  178SLPC  H10Y20291   2.850   6.592   5.179
  178SLPC  C31120292   2.686   6.470   5.119
  178SLPC  H11X20293   2.638   6.567   5.093
  178SLPC  H11Y20294   2.619   6.400   5.174
  178SLPC  C31220295   2.715   6.417   4.976
  178SLPC  H12X20296   2.764   6.317   4.965
  178SLPC  H12Y20297   2.785   6.488   4.928
  178SLPC  C31320298   2.578   6.416   4.895
  178SLPC  H13X20299   2.503   6.390   4.972
  178SLPC  H13Y20300   2.589   6.329   4.827
  178SLPC  C31420301   2.538   6.553   4.832
  178SLPC  H14X20302   2.556   6.632   4.909
  178SLPC  H14Y20303   2.429   6.565   4.816
  178SLPC  C31520304   2.617   6.600   4.713
  178SLPC  H15X20305   2.590   6.533   4.629
  178SLPC  H15Y20306   2.727   6.594   4.722
  178SLPC  C31620307   2.593   6.747   4.691
  178SLPC  H16X20308   2.612   6.806   4.783
  178SLPC  H16Y20309   2.485   6.765   4.673
  178SLPC  C31720310   2.676   6.820   4.586
  178SLPC  H17X20311   2.662   0.044   4.583
  178SLPC  H17Y20312   2.641   6.777   4.489
  178SLPC  C31820313   2.825   6.809   4.595
  178SLPC  H18X20314   2.855   6.866   4.505
  178SLPC  H18Y20315   2.867   6.707   4.583
  178SLPC  H18Z20316   2.852   6.855   4.693
  179SLPC     N20317   3.270   0.825   2.040
  179SLPC   C1320318   3.225   0.704   1.965
  179SLPC  H13A20319   3.238   0.712   1.859
  179SLPC  H13B20320   3.274   0.616   2.005
  179SLPC  H13C20321   3.119   0.687   1.978
  179SLPC   C1420322   3.198   0.949   1.984
  179SLPC  H14A20323   3.213   0.952   1.877
  179SLPC  H14B20324   3.091   0.945   1.998
  179SLPC  H14C20325   3.238   1.036   2.035
  179SLPC   C1520326   3.417   0.840   2.011
  179SLPC  H15A20327   3.460   0.924   2.064
  179SLPC  H15B20328   3.469   0.749   2.038
  179SLPC  H15C20329   3.427   0.864   1.906
  179SLPC   C1220330   3.248   0.804   2.189
  179SLPC  H12A20331   3.293   0.709   2.216
  179SLPC  H12B20332   3.141   0.800   2.197
  179SLPC   C1120333   3.300   0.906   2.287
  179SLPC  H11A20334   3.408   0.927   2.274
  179SLPC  H11B20335   3.288   0.886   2.395
  179SLPC     P20336   3.101   1.070   2.338
  179SLPC   O1320337   3.054   1.200   2.283
  179SLPC   O1420338   3.011   0.956   2.333
  179SLPC   O1220339   3.230   1.030   2.259
  179SLPC   O1120340   3.151   1.084   2.490
  179SLPC    C120341   3.245   1.186   2.521
  179SLPC    HA20342   3.315   1.220   2.442
  179SLPC    HB20343   3.177   1.267   2.552
  179SLPC    C220344   3.330   1.154   2.652
  179SLPC    HS20345   3.404   1.076   2.622
  179SLPC   O2120346   3.234   1.098   2.747
  179SLPC   C2120347   3.286   1.031   2.850
  179SLPC   O2220348   3.395   0.984   2.861
  179SLPC   C2220349   3.172   1.008   2.956
  179SLPC   H2R20350   3.076   1.025   2.901
  179SLPC   H2S20351   3.179   0.902   2.987
  179SLPC    C320352   3.413   1.281   2.696
  179SLPC    HX20353   3.338   1.364   2.694
  179SLPC    HY20354   3.488   1.302   2.617
  179SLPC   O3120355   3.470   1.267   2.828
  179SLPC   C3120356   3.593   1.289   2.842
  179SLPC   O3220357   3.667   1.343   2.760
  179SLPC   C3220358   3.629   1.241   2.986
  179SLPC   H2X20359   3.586   1.140   3.003
  179SLPC   H2Y20360   3.577   1.310   3.056
  179SLPC   C2320361   3.188   1.096   3.078
  179SLPC   H3R20362   3.091   1.101   3.131
  179SLPC   H3S20363   3.193   1.205   3.055
  179SLPC   C2420364   3.316   1.073   3.170
  179SLPC   H4R20365   3.407   1.051   3.111
  179SLPC   H4S20366   3.294   0.979   3.226
  179SLPC   C2520367   3.345   1.195   3.255
  179SLPC   H5R20368   3.258   1.229   3.316
  179SLPC   H5S20369   3.375   1.279   3.190
  179SLPC   C2620370   3.459   1.174   3.357
  179SLPC   H6R20371   3.471   1.270   3.411
  179SLPC   H6S20372   3.554   1.155   3.302
  179SLPC   C2720373   3.435   1.067   3.463
  179SLPC   H7R20374   3.438   0.962   3.426
  179SLPC   H7S20375   3.339   1.099   3.509
  179SLPC   C2820376   3.542   1.085   3.572
  179SLPC   H8R20377   3.501   1.152   3.651
  179SLPC   H8S20378   3.638   1.126   3.534
  179SLPC   C2920379   3.577   0.953   3.641
  179SLPC   H9R20380   3.638   0.885   3.580
  179SLPC  C21020381   3.535   0.908   3.757
  179SLPC  H10R20382   3.560   0.806   3.789
  179SLPC  C21120383   3.442   0.981   3.855
  179SLPC  H11R20384   3.386   0.904   3.912
  179SLPC  H11S20385   3.370   1.033   3.788
  179SLPC  C21220386   3.519   1.063   3.945
  179SLPC  H12R20387   3.577   1.139   3.892
  179SLPC  C21320388   3.527   1.062   4.082
  179SLPC  H13R20389   3.602   1.121   4.137
  179SLPC  C21420390   3.440   0.980   4.176
  179SLPC  H14R20391   3.504   0.910   4.234
  179SLPC  H14S20392   3.367   0.918   4.120
  179SLPC  C21520393   3.361   1.052   4.280
  179SLPC  H15R20394   3.275   1.102   4.229
  179SLPC  H15S20395   3.427   1.125   4.331
  179SLPC  C21620396   3.292   0.966   4.380
  179SLPC  H16R20397   3.360   0.914   4.450
  179SLPC  H16S20398   3.231   0.879   4.345
  179SLPC  C21720399   3.189   1.046   4.460
  179SLPC  H17R20400   3.234   1.142   4.495
  179SLPC  H17S20401   3.156   0.988   4.548
  179SLPC  C21820402   3.064   1.080   4.385
  179SLPC  H18R20403   3.018   1.171   4.430
  179SLPC  H18S20404   2.998   0.992   4.369
  179SLPC  H18T20405   3.084   1.110   4.280
  179SLPC   C3320406   3.782   1.230   3.020
  179SLPC   H3X20407   3.803   1.264   3.123
  179SLPC   H3Y20408   3.825   1.305   2.950
  179SLPC   C3420409   3.827   1.090   2.995
  179SLPC   H4X20410   3.789   1.049   2.899
  179SLPC   H4Y20411   3.794   1.014   3.069
  179SLPC   C3520412   3.979   1.075   2.979
  179SLPC   H5X20413   3.987   0.974   2.935
  179SLPC   H5Y20414   4.014   1.143   2.898
  179SLPC   C3620415   4.053   1.072   3.113
  179SLPC   H6X20416   3.990   1.014   3.182
  179SLPC   H6Y20417   4.058   1.177   3.149
  179SLPC   C3720418   4.198   1.021   3.109
  179SLPC   H7X20419   4.248   1.054   3.015
  179SLPC   H7Y20420   4.185   0.911   3.100
  179SLPC   C3820421   4.273   1.071   3.230
  179SLPC   H8X20422   4.275   1.181   3.245
  179SLPC   H8Y20423   4.377   1.034   3.219
  179SLPC   C3920424   4.220   1.021   3.368
  179SLPC   H9X20425   4.218   0.910   3.371
  179SLPC   H9Y20426   4.112   1.045   3.378
  179SLPC  C31020427   4.301   1.079   3.483
  179SLPC  H10X20428   4.317   1.188   3.469
  179SLPC  H10Y20429   4.403   1.034   3.478
  179SLPC  C31120430   4.232   1.060   3.627
  179SLPC  H11X20431   4.136   1.113   3.640
  179SLPC  H11Y20432   4.295   1.119   3.697
  179SLPC  C31220433   4.224   0.914   3.673
  179SLPC  H12X20434   4.327   0.873   3.663
  179SLPC  H12Y20435   4.149   0.864   3.608
  179SLPC  C31320436   4.185   0.897   3.824
  179SLPC  H13X20437   4.247   0.962   3.889
  179SLPC  H13Y20438   4.205   0.792   3.855
  179SLPC  C31420439   4.034   0.929   3.854
  179SLPC  H14X20440   3.967   0.861   3.798
  179SLPC  H14Y20441   4.015   1.034   3.820
  179SLPC  C31520442   3.985   0.920   3.996
  179SLPC  H15X20443   4.035   0.831   4.038
  179SLPC  H15Y20444   3.879   0.891   4.011
  179SLPC  C31620445   4.020   1.038   4.081
  179SLPC  H16X20446   4.121   1.072   4.050
  179SLPC  H16Y20447   4.029   0.996   4.184
  179SLPC  C31720448   3.907   1.147   4.076
  179SLPC  H17X20449   3.813   1.087   4.080
  179SLPC  H17Y20450   3.916   1.203   3.981
  179SLPC  C31820451   3.916   1.250   4.190
  179SLPC  H18X20452   4.008   1.312   4.182
  179SLPC  H18Y20453   3.894   1.195   4.283
  179SLPC  H18Z20454   3.831   1.320   4.169
  180SLPC     N20455   2.292   1.926   2.110
  180SLPC   C1320456   2.367   2.023   2.196
  180SLPC  H13A20457   2.309   2.067   2.275
  180SLPC  H13B20458   2.454   1.980   2.244
  180SLPC  H13C20459   2.409   2.103   2.137
  180SLPC   C1420460   2.386   1.814   2.071
  180SLPC  H14A20461   2.427   1.779   2.164
  180SLPC  H14B20462   2.324   1.736   2.030
  180SLPC  H14C20463   2.468   1.836   2.004
  180SLPC   C1520464   2.244   1.994   1.987
  180SLPC  H15A20465   2.326   2.040   1.934
  180SLPC  H15B20466   2.186   1.936   1.916
  180SLPC  H15C20467   2.185   2.080   2.013
  180SLPC   C1220468   2.175   1.868   2.182
  180SLPC  H12A20469   2.108   1.819   2.113
  180SLPC  H12B20470   2.119   1.951   2.224
  180SLPC   C1120471   2.199   1.782   2.307
  180SLPC  H11A20472   2.103   1.776   2.363
  180SLPC  H11B20473   2.277   1.833   2.368
  180SLPC     P20474   2.149   1.535   2.215
  180SLPC   O1320475   2.081   1.574   2.092
  180SLPC   O1420476   2.228   1.405   2.218
  180SLPC   O1220477   2.243   1.655   2.268
  180SLPC   O1120478   2.036   1.530   2.326
  180SLPC    C120479   2.063   1.527   2.467
  180SLPC    HA20480   2.166   1.555   2.496
  180SLPC    HB20481   1.989   1.591   2.520
  180SLPC    C220482   2.037   1.384   2.528
  180SLPC    HS20483   2.094   1.314   2.464
  180SLPC   O2120484   1.893   1.356   2.516
  180SLPC   C2120485   1.866   1.227   2.509
  180SLPC   O2220486   1.947   1.141   2.479
  180SLPC   C2220487   1.711   1.205   2.538
  180SLPC   H2R20488   1.684   1.292   2.602
  180SLPC   H2S20489   1.661   1.211   2.439
  180SLPC    C320490   2.084   1.368   2.674
  180SLPC    HX20491   2.012   1.421   2.740
  180SLPC    HY20492   2.180   1.421   2.689
  180SLPC   O3120493   2.076   1.229   2.709
  180SLPC   C3120494   2.188   1.162   2.680
  180SLPC   O3220495   2.290   1.204   2.625
  180SLPC   C3220496   2.162   1.017   2.722
  180SLPC   H2X20497   2.108   0.964   2.640
  180SLPC   H2Y20498   2.102   1.013   2.815
  180SLPC   C2320499   1.686   1.070   2.612
  180SLPC   H3R20500   1.724   0.992   2.543
  180SLPC   H3S20501   1.580   1.045   2.634
  180SLPC   C2420502   1.757   1.064   2.752
  180SLPC   H4R20503   1.739   1.157   2.810
  180SLPC   H4S20504   1.864   1.080   2.730
  180SLPC   C2520505   1.727   0.942   2.843
  180SLPC   H5R20506   1.762   0.845   2.801
  180SLPC   H5S20507   1.616   0.945   2.851
  180SLPC   C2620508   1.795   0.948   2.981
  180SLPC   H6R20509   1.752   1.039   3.028
  180SLPC   H6S20510   1.905   0.959   2.972
  180SLPC   C2720511   1.745   0.826   3.074
  180SLPC   H7R20512   1.793   0.743   3.017
  180SLPC   H7S20513   1.637   0.802   3.071
  180SLPC   C2820514   1.800   0.838   3.214
  180SLPC   H8R20515   1.755   0.920   3.274
  180SLPC   H8S20516   1.908   0.865   3.219
  180SLPC   C2920517   1.787   0.711   3.289
  180SLPC   H9R20518   1.752   0.629   3.225
  180SLPC  C21020519   1.800   0.687   3.421
  180SLPC  H10R20520   1.770   0.585   3.449
  180SLPC  C21120521   1.842   0.787   3.530
  180SLPC  H11R20522   1.745   0.816   3.575
  180SLPC  H11S20523   1.876   0.882   3.483
  180SLPC  C21220524   1.946   0.737   3.622
  180SLPC  H12R20525   2.035   0.694   3.576
  180SLPC  C21320526   1.937   0.726   3.758
  180SLPC  H13R20527   2.017   0.671   3.811
  180SLPC  C21420528   1.817   0.750   3.847
  180SLPC  H14R20529   1.806   0.666   3.919
  180SLPC  H14S20530   1.726   0.739   3.783
  180SLPC  C21520531   1.820   0.875   3.926
  180SLPC  H15R20532   1.890   0.870   4.012
  180SLPC  H15S20533   1.719   0.893   3.969
  180SLPC  C21620534   1.841   0.992   3.832
  180SLPC  H16R20535   1.754   1.000   3.762
  180SLPC  H16S20536   1.936   0.981   3.777
  180SLPC  C21720537   1.846   1.125   3.907
  180SLPC  H17R20538   1.925   1.120   3.985
  180SLPC  H17S20539   1.747   1.151   3.950
  180SLPC  C21820540   1.879   1.239   3.815
  180SLPC  H18R20541   1.884   1.332   3.875
  180SLPC  H18S20542   1.800   1.259   3.740
  180SLPC  H18T20543   1.975   1.234   3.760
  180SLPC   C3320544   2.292   0.937   2.746
  180SLPC   H3X20545   2.378   0.973   2.686
  180SLPC   H3Y20546   2.263   0.832   2.725
  180SLPC   C3420547   2.331   0.961   2.894
  180SLPC   H4X20548   2.423   0.902   2.915
  180SLPC   H4Y20549   2.249   0.927   2.961
  180SLPC   C3520550   2.377   1.105   2.932
  180SLPC   H5X20551   2.290   1.173   2.925
  180SLPC   H5Y20552   2.448   1.142   2.855
  180SLPC   C3620553   2.452   1.106   3.067
  180SLPC   H6X20554   2.539   1.036   3.070
  180SLPC   H6Y20555   2.389   1.059   3.146
  180SLPC   C3720556   2.500   1.254   3.095
  180SLPC   H7X20557   2.406   1.313   3.096
  180SLPC   H7Y20558   2.563   1.298   3.015
  180SLPC   C3820559   2.580   1.281   3.226
  180SLPC   H8X20560   2.608   1.388   3.235
  180SLPC   H8Y20561   2.670   1.218   3.217
  180SLPC   C3920562   2.512   1.226   3.352
  180SLPC   H9X20563   2.499   1.116   3.352
  180SLPC   H9Y20564   2.412   1.274   3.359
  180SLPC  C31020565   2.590   1.268   3.481
  180SLPC  H10X20566   2.577   1.375   3.506
  180SLPC  H10Y20567   2.697   1.243   3.465
  180SLPC  C31120568   2.541   1.172   3.597
  180SLPC  H11X20569   2.554   1.069   3.558
  180SLPC  H11Y20570   2.432   1.191   3.605
  180SLPC  C31220571   2.617   1.208   3.729
  180SLPC  H12X20572   2.600   1.317   3.725
  180SLPC  H12Y20573   2.725   1.184   3.717
  180SLPC  C31320574   2.565   1.135   3.855
  180SLPC  H13X20575   2.639   1.157   3.935
  180SLPC  H13Y20576   2.564   1.025   3.836
  180SLPC  C31420577   2.432   1.182   3.890
  180SLPC  H14X20578   2.353   1.145   3.820
  180SLPC  H14Y20579   2.436   1.293   3.889
  180SLPC  C31520580   2.383   1.114   4.023
  180SLPC  H15X20581   2.457   1.118   4.105
  180SLPC  H15Y20582   2.371   1.006   4.000
  180SLPC  C31620583   2.256   1.190   4.076
  180SLPC  H16X20584   2.213   1.139   4.165
  180SLPC  H16Y20585   2.180   1.194   3.995
  180SLPC  C31720586   2.275   1.337   4.121
  180SLPC  H17X20587   2.311   1.392   4.031
  180SLPC  H17Y20588   2.359   1.341   4.193
  180SLPC  C31820589   2.155   1.405   4.189
  180SLPC  H18X20590   2.126   1.340   4.274
  180SLPC  H18Y20591   2.075   1.421   4.113
  180SLPC  H18Z20592   2.185   1.506   4.225
  181SLPC     N20593   1.005   0.307   1.922
  181SLPC   C1320594   0.913   0.329   1.808
  181SLPC  H13A20595   0.948   0.269   1.725
  181SLPC  H13B20596   0.814   0.294   1.833
  181SLPC  H13C20597   0.909   0.435   1.786
  181SLPC   C1420598   0.995   0.419   2.018
  181SLPC  H14A20599   1.081   0.422   2.083
  181SLPC  H14B20600   0.982   0.516   1.972
  181SLPC  H14C20601   0.910   0.407   2.083
  181SLPC   C1520602   1.141   0.309   1.857
  181SLPC  H15A20603   1.211   0.267   1.928
  181SLPC  H15B20604   1.154   0.242   1.773
  181SLPC  H15C20605   1.176   0.406   1.827
  181SLPC   C1220606   0.981   0.165   1.980
  181SLPC  H12A20607   0.994   0.093   1.900
  181SLPC  H12B20608   0.880   0.148   2.012
  181SLPC   C1120609   1.079   0.114   2.094
  181SLPC  H11A20610   1.034   0.019   2.131
  181SLPC  H11B20611   1.064   0.187   2.176
  181SLPC     P20612   1.294   6.862   2.047
  181SLPC   O1320613   1.197   6.748   2.030
  181SLPC   O1420614   1.402   6.871   1.943
  181SLPC   O1220615   1.224   0.111   2.063
  181SLPC   O1120616   1.359   6.834   2.183
  181SLPC    C120617   1.370   0.039   2.291
  181SLPC    HA20618   1.463   0.096   2.270
  181SLPC    HB20619   1.285   0.111   2.298
  181SLPC    C220620   1.366   6.866   2.434
  181SLPC    HS20621   1.430   6.775   2.443
  181SLPC   O2120622   1.224   6.842   2.466
  181SLPC   C2120623   1.186   6.719   2.461
  181SLPC   O2220624   1.261   6.623   2.437
  181SLPC   C2220625   1.031   6.715   2.480
  181SLPC   H2R20626   1.005   6.794   2.553
  181SLPC   H2S20627   0.995   6.742   2.378
  181SLPC    C320628   1.416   0.076   2.539
  181SLPC    HX20629   1.340   0.156   2.554
  181SLPC    HY20630   1.514   0.120   2.513
  181SLPC   O3120631   1.442   0.012   2.664
  181SLPC   C3120632   1.412   0.074   2.779
  181SLPC   O3220633   1.356   0.186   2.786
  181SLPC   C3220634   1.482   0.003   2.895
  181SLPC   H2X20635   1.587   0.034   2.882
  181SLPC   H2Y20636   1.469   6.780   2.886
  181SLPC   C2320637   0.980   6.573   2.519
  181SLPC   H3R20638   1.014   6.499   2.443
  181SLPC   H3S20639   0.872   6.586   2.495
  181SLPC   C2420640   0.978   6.537   2.667
  181SLPC   H4R20641   1.082   6.539   2.707
  181SLPC   H4S20642   0.926   6.440   2.681
  181SLPC   C2520643   0.905   6.642   2.751
  181SLPC   H5R20644   0.807   6.660   2.701
  181SLPC   H5S20645   0.959   6.739   2.753
  181SLPC   C2620646   0.872   6.610   2.899
  181SLPC   H6R20647   0.814   6.516   2.910
  181SLPC   H6S20648   0.805   6.687   2.942
  181SLPC   C2720649   1.005   6.603   2.983
  181SLPC   H7R20650   1.082   6.674   2.944
  181SLPC   H7S20651   1.045   6.499   2.981
  181SLPC   C2820652   0.987   6.638   3.137
  181SLPC   H8R20653   0.965   6.747   3.125
  181SLPC   H8S20654   1.081   6.621   3.194
  181SLPC   C2920655   0.890   6.559   3.208
  181SLPC   H9R20656   0.788   6.590   3.180
  181SLPC  C21020657   0.919   6.470   3.304
  181SLPC  H10R20658   0.833   6.419   3.350
  181SLPC  C21120659   1.052   6.423   3.359
  181SLPC  H11R20660   1.131   6.500   3.342
  181SLPC  H11S20661   1.091   6.332   3.309
  181SLPC  C21220662   1.021   6.391   3.500
  181SLPC  H12R20663   0.976   6.294   3.525
  181SLPC  C21320664   1.058   6.461   3.608
  181SLPC  H13R20665   1.009   6.439   3.704
  181SLPC  C21420666   1.128   6.594   3.593
  181SLPC  H14R20667   1.212   6.595   3.520
  181SLPC  H14S20668   1.183   6.606   3.689
  181SLPC  C21520669   1.031   6.711   3.580
  181SLPC  H15R20670   0.997   6.706   3.474
  181SLPC  H15S20671   1.082   6.808   3.594
  181SLPC  C21620672   0.908   6.716   3.684
  181SLPC  H16R20673   0.942   6.740   3.787
  181SLPC  H16S20674   0.859   6.617   3.695
  181SLPC  C21720675   0.805   6.820   3.654
  181SLPC  H17R20676   0.854   0.033   3.649
  181SLPC  H17S20677   0.729   6.819   3.735
  181SLPC  C21820678   0.737   6.802   3.518
  181SLPC  H18R20679   0.708   6.696   3.498
  181SLPC  H18S20680   0.816   6.825   3.444
  181SLPC  H18T20681   0.653   6.875   3.507
  181SLPC   C3320682   1.438   0.050   3.042
  181SLPC   H3X20683   1.395   0.152   3.032
  181SLPC   H3Y20684   1.530   0.047   3.104
  181SLPC   C3420685   1.339   6.836   3.100
  181SLPC   H4X20686   1.385   6.735   3.096
  181SLPC   H4Y20687   1.248   6.843   3.037
  181SLPC   C3520688   1.302   6.858   3.245
  181SLPC   H5X20689   1.207   6.810   3.278
  181SLPC   H5Y20690   1.294   0.079   3.266
  181SLPC   C3620691   1.408   6.798   3.339
  181SLPC   H6X20692   1.503   6.843   3.300
  181SLPC   H6Y20693   1.418   6.689   3.320
  181SLPC   C3720694   1.385   6.829   3.488
  181SLPC   H7X20695   1.280   6.807   3.514
  181SLPC   H7Y20696   1.416   0.046   3.513
  181SLPC   C3820697   1.478   6.743   3.577
  181SLPC   H8X20698   1.586   6.764   3.562
  181SLPC   H8Y20699   1.459   6.639   3.543
  181SLPC   C3920700   1.453   6.758   3.727
  181SLPC   H9X20701   1.507   6.667   3.762
  181SLPC   H9Y20702   1.344   6.756   3.748
  181SLPC  C31020703   1.507   0.006   3.776
  181SLPC  H10X20704   1.452   0.095   3.739
  181SLPC  H10Y20705   1.609   0.005   3.732
  181SLPC  C31120706   1.521   0.015   3.929
  181SLPC  H11X20707   1.426   6.870   3.978
  181SLPC  H11Y20708   1.531   0.119   3.967
  181SLPC  C31220709   1.630   6.819   3.988
  181SLPC  H12X20710   1.731   6.836   3.945
  181SLPC  H12Y20711   1.610   6.712   3.966
  181SLPC  C31320712   1.625   6.822   4.139
  181SLPC  H13X20713   1.538   6.755   4.159
  181SLPC  H13Y20714   1.617   0.040   4.173
  181SLPC  C31420715   1.750   6.763   4.217
  181SLPC  H14X20716   1.730   6.777   4.326
  181SLPC  H14Y20717   1.842   6.817   4.188
  181SLPC  C31520718   1.780   6.614   4.182
  181SLPC  H15X20719   1.788   6.609   4.071
  181SLPC  H15Y20720   1.697   6.547   4.213
  181SLPC  C31620721   1.909   6.556   4.242
  181SLPC  H16X20722   1.992   6.629   4.238
  181SLPC  H16Y20723   1.930   6.470   4.176
  181SLPC  C31720724   1.893   6.505   4.385
  181SLPC  H17X20725   1.830   6.415   4.376
  181SLPC  H17Y20726   1.839   6.579   4.449
  181SLPC  C31820727   2.025   6.459   4.448
  181SLPC  H18X20728   2.104   6.537   4.451
  181SLPC  H18Y20729   2.067   6.384   4.378
  181SLPC  H18Z20730   2.009   6.418   4.550
  182SLPC     N20731   1.551   6.476   2.212
  182SLPC   C1320732   1.579   6.619   2.231
  182SLPC  H13A20733   1.627   6.643   2.324
  182SLPC  H13B20734   1.651   6.658   2.160
  182SLPC  H13C20735   1.493   6.683   2.223
  182SLPC   C1420736   1.491   6.461   2.074
  182SLPC  H14A20737   1.391   6.501   2.077
  182SLPC  H14B20738   1.552   6.501   1.994
  182SLPC  H14C20739   1.476   6.356   2.056
  182SLPC   C1520740   1.439   6.434   2.305
  182SLPC  H15A20741   1.459   6.448   2.410
  182SLPC  H15B20742   1.355   6.502   2.296
  182SLPC  H15C20743   1.398   6.339   2.272
  182SLPC   C1220744   1.671   6.391   2.228
  182SLPC  H12A20745   1.641   6.288   2.213
  182SLPC  H12B20746   1.710   6.401   2.328
  182SLPC   C1120747   1.788   6.417   2.130
  182SLPC  H11A20748   1.761   6.411   2.022
  182SLPC  H11B20749   1.866   6.338   2.137
  182SLPC     P20750   1.944   6.573   2.268
  182SLPC   O1320751   2.076   6.537   2.206
  182SLPC   O1420752   1.926   6.715   2.308
  182SLPC   O1220753   1.840   6.549   2.155
  182SLPC   O1120754   1.903   6.482   2.386
  182SLPC    C120755   1.963   6.488   2.517
  182SLPC    HA20756   2.068   6.455   2.508
  182SLPC    HB20757   1.993   6.590   2.550
  182SLPC    C220758   1.884   6.402   2.619
  182SLPC    HS20759   1.858   6.313   2.558
  182SLPC   O2120760   1.777   6.472   2.669
  182SLPC   C2120761   1.665   6.471   2.600
  182SLPC   O2220762   1.626   6.375   2.529
  182SLPC   C2220763   1.570   6.584   2.630
  182SLPC   H2R20764   1.629   6.642   2.704
  182SLPC   H2S20765   1.545   6.632   2.533
  182SLPC    C320766   1.962   6.344   2.739
  182SLPC    HX20767   1.905   6.266   2.794
  182SLPC    HY20768   1.972   6.427   2.812
  182SLPC   O3120769   2.086   6.290   2.682
  182SLPC   C3120770   2.083   6.158   2.649
  182SLPC   O3220771   1.991   6.084   2.675
  182SLPC   C3220772   2.220   6.111   2.591
  182SLPC   H2X20773   2.232   6.176   2.502
  182SLPC   H2Y20774   2.205   6.007   2.555
  182SLPC   C2320775   1.436   6.537   2.696
  182SLPC   H3R20776   1.376   6.473   2.629
  182SLPC   H3S20777   1.381   6.630   2.720
  182SLPC   C2420778   1.452   6.461   2.826
  182SLPC   H4R20779   1.530   6.518   2.880
  182SLPC   H4S20780   1.496   6.360   2.810
  182SLPC   C2520781   1.319   6.431   2.902
  182SLPC   H5R20782   1.248   6.386   2.830
  182SLPC   H5S20783   1.278   6.533   2.923
  182SLPC   C2620784   1.335   6.353   3.034
  182SLPC   H6R20785   1.370   6.252   3.005
  182SLPC   H6S20786   1.238   6.340   3.085
  182SLPC   C2720787   1.414   6.430   3.143
  182SLPC   H7R20788   1.392   6.538   3.136
  182SLPC   H7S20789   1.523   6.429   3.122
  182SLPC   C2820790   1.406   6.363   3.284
  182SLPC   H8R20791   1.301   6.358   3.319
  182SLPC   H8S20792   1.442   6.441   3.355
  182SLPC   C2920793   1.476   6.232   3.296
  182SLPC   H9R20794   1.515   6.191   3.202
  182SLPC  C21020795   1.491   6.159   3.409
  182SLPC  H10R20796   1.532   6.057   3.404
  182SLPC  C21120797   1.439   6.197   3.546
  182SLPC  H11R20798   1.329   6.210   3.535
  182SLPC  H11S20799   1.465   6.300   3.581
  182SLPC  C21220800   1.467   6.091   3.648
  182SLPC  H12R20801   1.391   6.012   3.653
  182SLPC  C21320802   1.577   6.078   3.730
  182SLPC  H13R20803   1.579   5.997   3.804
  182SLPC  C21420804   1.685   6.178   3.733
  182SLPC  H14R20805   1.666   6.267   3.797
  182SLPC  H14S20806   1.696   6.222   3.632
  182SLPC  C21520807   1.825   6.131   3.778
  182SLPC  H15R20808   1.901   6.212   3.787
  182SLPC  H15S20809   1.856   6.054   3.705
  182SLPC  C21620810   1.819   6.068   3.911
  182SLPC  H16R20811   1.924   6.049   3.940
  182SLPC  H16S20812   1.768   5.969   3.905
  182SLPC  C21720813   1.748   6.156   4.014
  182SLPC  H17R20814   1.760   6.097   4.107
  182SLPC  H17S20815   1.640   6.180   3.999
  182SLPC  C21820816   1.828   6.282   4.041
  182SLPC  H18R20817   1.928   6.260   4.083
  182SLPC  H18S20818   1.765   6.342   4.110
  182SLPC  H18T20819   1.840   6.342   3.948
  182SLPC   C3320820   2.344   6.109   2.688
  182SLPC   H3X20821   2.355   6.208   2.737
  182SLPC   H3Y20822   2.440   6.076   2.643
  182SLPC   C3420823   2.323   5.986   2.789
  182SLPC   H4X20824   2.332   5.889   2.737
  182SLPC   H4Y20825   2.215   5.990   2.817
  182SLPC   C3520826   2.403   5.997   2.917
  182SLPC   H5X20827   2.399   6.098   2.964
  182SLPC   H5Y20828   2.511   5.978   2.901
  182SLPC   C3620829   2.338   5.893   3.018
  182SLPC   H6X20830   2.342   5.790   2.976
  182SLPC   H6Y20831   2.231   5.924   3.028
  182SLPC   C3720832   2.417   5.903   3.153
  182SLPC   H7X20833   2.357   5.868   3.239
  182SLPC   H7Y20834   2.437   6.011   3.172
  182SLPC   C3820835   2.558   5.849   3.159
  182SLPC   H8X20836   2.602   5.898   3.248
  182SLPC   H8Y20837   2.620   5.882   3.073
  182SLPC   C3920838   2.560   5.691   3.170
  182SLPC   H9X20839   2.660   5.656   3.138
  182SLPC   H9Y20840   2.496   5.649   3.089
  182SLPC  C31020841   2.514   5.628   3.303
  182SLPC  H10X20842   2.487   5.521   3.288
  182SLPC  H10Y20843   2.422   5.687   3.322
  182SLPC  C31120844   2.621   5.652   3.409
  182SLPC  H11X20845   2.627   5.763   3.414
  182SLPC  H11Y20846   2.722   5.612   3.385
  182SLPC  C31220847   2.577   5.580   3.536
  182SLPC  H12X20848   2.589   5.471   3.521
  182SLPC  H12Y20849   2.473   5.609   3.558
  182SLPC  C31320850   2.654   5.626   3.660
  182SLPC  H13X20851   2.691   5.730   3.648
  182SLPC  H13Y20852   2.742   5.559   3.671
  182SLPC  C31420853   2.575   5.599   3.788
  182SLPC  H14X20854   2.538   5.495   3.776
  182SLPC  H14Y20855   2.477   5.650   3.782
  182SLPC  C31520856   2.652   5.604   3.916
  182SLPC  H15X20857   2.705   5.701   3.928
  182SLPC  H15Y20858   2.740   5.536   3.913
  182SLPC  C31620859   2.563   5.590   4.032
  182SLPC  H16X20860   2.486   5.511   4.022
  182SLPC  H16Y20861   2.503   5.683   4.038
  182SLPC  C31720862   2.644   5.574   4.165
  182SLPC  H17X20863   2.717   5.656   4.180
  182SLPC  H17Y20864   2.701   5.479   4.159
  182SLPC  C31820865   2.546   5.592   4.278
  182SLPC  H18X20866   2.592   5.554   4.372
  182SLPC  H18Y20867   2.450   5.536   4.266
  182SLPC  H18Z20868   2.508   5.696   4.288
  183SLPC     N20869   6.303   3.048   2.078
  183SLPC   C1320870   6.182   2.971   2.112
  183SLPC  H13A20871   6.090   3.019   2.084
  183SLPC  H13B20872   6.190   2.871   2.072
  183SLPC  H13C20873   6.178   2.970   2.220
  183SLPC   C1420874   6.288   3.076   1.933
  183SLPC  H14A20875   6.212   3.149   1.913
  183SLPC  H14B20876   6.378   3.104   1.880
  183SLPC  H14C20877   6.258   2.985   1.884
  183SLPC   C1520878   6.424   2.962   2.091
  183SLPC  H15A20879   6.431   2.897   2.005
  183SLPC  H15B20880   6.506   3.032   2.095
  183SLPC  H15C20881   6.417   2.897   2.177
  183SLPC   C1220882   6.306   3.173   2.163
  183SLPC  H12A20883   6.230   3.237   2.121
  183SLPC  H12B20884   6.398   3.227   2.145
  183SLPC   C1120885   6.283   3.167   2.314
  183SLPC  H11A20886   6.308   3.264   2.362
  183SLPC  H11B20887   6.364   3.105   2.357
  183SLPC     P20888   6.026   3.205   2.326
  183SLPC   O1320889   6.064   3.329   2.252
  183SLPC   O1420890   5.918   3.120   2.273
  183SLPC   O1220891   6.154   3.115   2.351
  183SLPC   O1120892   5.984   3.242   2.471
  183SLPC    C120893   6.027   3.169   2.582
  183SLPC    HA20894   6.138   3.162   2.578
  183SLPC    HB20895   6.008   3.236   2.668
  183SLPC    C220896   5.939   3.043   2.601
  183SLPC    HS20897   5.899   3.008   2.503
  183SLPC   O2120898   5.831   3.078   2.683
  183SLPC   C2120899   5.722   3.010   2.669
  183SLPC   O2220900   5.690   2.937   2.578
  183SLPC   C2220901   5.642   3.045   2.793
  183SLPC   H2R20902   5.587   3.137   2.767
  183SLPC   H2S20903   5.564   2.966   2.803
  183SLPC    C320904   6.022   2.937   2.675
  183SLPC    HX20905   6.048   2.959   2.781
  183SLPC    HY20906   6.122   2.927   2.629
  183SLPC   O3120907   5.972   2.798   2.661
  183SLPC   C3120908   6.050   2.700   2.709
  183SLPC   O3220909   6.169   2.713   2.737
  183SLPC   C3220910   5.973   2.573   2.739
  183SLPC   H2X20911   6.040   2.493   2.774
  183SLPC   H2Y20912   5.921   2.552   2.643
  183SLPC   C2320913   5.725   3.044   2.920
  183SLPC   H3R20914   5.808   3.115   2.902
  183SLPC   H3S20915   5.766   2.942   2.938
  183SLPC   C2420916   5.655   3.097   3.051
  183SLPC   H4R20917   5.552   3.065   3.075
  183SLPC   H4S20918   5.660   3.208   3.047
  183SLPC   C2520919   5.741   3.045   3.163
  183SLPC   H5R20920   5.851   3.038   3.144
  183SLPC   H5S20921   5.716   2.940   3.190
  183SLPC   C2620922   5.734   3.113   3.298
  183SLPC   H6R20923   5.631   3.101   3.339
  183SLPC   H6S20924   5.739   3.224   3.284
  183SLPC   C2720925   5.848   3.088   3.393
  183SLPC   H7R20926   5.946   3.138   3.378
  183SLPC   H7S20927   5.868   2.979   3.393
  183SLPC   C2820928   5.813   3.124   3.536
  183SLPC   H8R20929   5.874   3.069   3.612
  183SLPC   H8S20930   5.716   3.080   3.568
  183SLPC   C2920931   5.796   3.272   3.569
  183SLPC   H9R20932   5.727   3.334   3.510
  183SLPC  C21020933   5.845   3.324   3.682
  183SLPC  H10R20934   5.810   3.425   3.707
  183SLPC  C21120935   5.941   3.261   3.778
  183SLPC  H11R20936   6.033   3.239   3.719
  183SLPC  H11S20937   5.897   3.162   3.802
  183SLPC  C21220938   5.965   3.333   3.909
  183SLPC  H12R20939   6.006   3.435   3.899
  183SLPC  C21320940   5.941   3.286   4.034
  183SLPC  H13R20941   5.969   3.349   4.121
  183SLPC  C21420942   5.883   3.147   4.071
  183SLPC  H14R20943   5.924   3.109   4.167
  183SLPC  H14S20944   5.911   3.070   3.996
  183SLPC  C21520945   5.728   3.134   4.093
  183SLPC  H15R20946   5.704   3.182   4.190
  183SLPC  H15S20947   5.707   3.027   4.114
  183SLPC  C21620948   5.634   3.181   3.974
  183SLPC  H16R20949   5.649   3.120   3.883
  183SLPC  H16S20950   5.647   3.287   3.941
  183SLPC  C21720951   5.487   3.161   3.996
  183SLPC  H17R20952   5.466   3.208   4.094
  183SLPC  H17S20953   5.478   3.051   4.003
  183SLPC  C21820954   5.404   3.221   3.886
  183SLPC  H18R20955   5.399   3.332   3.894
  183SLPC  H18S20956   5.300   3.182   3.881
  183SLPC  H18T20957   5.465   3.197   3.796
  183SLPC   C3320958   5.864   2.590   2.847
  183SLPC   H3X20959   5.792   2.506   2.846
  183SLPC   H3Y20960   5.806   2.684   2.830
  183SLPC   C3420961   5.923   2.619   2.988
  183SLPC   H4X20962   5.997   2.702   2.982
  183SLPC   H4Y20963   5.989   2.532   3.009
  183SLPC   C3520964   5.821   2.647   3.098
  183SLPC   H5X20965   5.733   2.581   3.090
  183SLPC   H5Y20966   5.778   2.748   3.076
  183SLPC   C3620967   5.890   2.637   3.231
  183SLPC   H6X20968   5.971   2.711   3.249
  183SLPC   H6Y20969   5.951   2.544   3.225
  183SLPC   C3720970   5.809   2.645   3.355
  183SLPC   H7X20971   5.737   2.561   3.363
  183SLPC   H7Y20972   5.767   2.748   3.358
  183SLPC   C3820973   5.894   2.627   3.488
  183SLPC   H8X20974   5.961   2.716   3.491
  183SLPC   H8Y20975   5.957   2.536   3.492
  183SLPC   C3920976   5.807   2.617   3.615
  183SLPC   H9X20977   5.704   2.586   3.585
  183SLPC   H9Y20978   5.811   2.723   3.646
  183SLPC  C31020979   5.872   2.533   3.722
  183SLPC  H10X20980   5.972   2.579   3.725
  183SLPC  H10Y20981   5.882   2.425   3.696
  183SLPC  C31120982   5.813   2.551   3.860
  183SLPC  H11X20983   5.711   2.511   3.844
  183SLPC  H11Y20984   5.827   2.654   3.900
  183SLPC  C31220985   5.869   2.443   3.967
  183SLPC  H12X20986   5.970   2.477   3.996
  183SLPC  H12Y20987   5.866   2.343   3.918
  183SLPC  C31320988   5.787   2.448   4.099
  183SLPC  H13X20989   5.811   2.373   4.177
  183SLPC  H13Y20990   5.678   2.441   4.081
  183SLPC  C31420991   5.784   2.587   4.165
  183SLPC  H14X20992   5.714   2.659   4.116
  183SLPC  H14Y20993   5.883   2.637   4.163
  183SLPC  C31520994   5.730   2.585   4.305
  183SLPC  H15X20995   5.798   2.545   4.383
  183SLPC  H15Y20996   5.639   2.522   4.311
  183SLPC  C31620997   5.688   2.718   4.358
  183SLPC  H16X20998   5.603   2.752   4.295
  183SLPC  H16Y20999   5.776   2.781   4.331
  183SLPC  C31721000   5.652   2.709   4.504
  183SLPC  H17X21001   5.726   2.637   4.544
  183SLPC  H17Y21002   5.556   2.654   4.521
  183SLPC  C31821003   5.642   2.844   4.572
  183SLPC  H18X21004   5.622   2.826   4.679
  183SLPC  H18Y21005   5.561   2.904   4.526
  183SLPC  H18Z21006   5.739   2.899   4.570
  184SLPC     N21007   5.977   2.417   1.928
  184SLPC   C1321008   5.860   2.374   2.012
  184SLPC  H13A21009   5.888   2.381   2.117
  184SLPC  H13B21010   5.767   2.424   1.990
  184SLPC  H13C21011   5.854   2.268   1.993
  184SLPC   C1421012   5.947   2.556   1.895
  184SLPC  H14A21013   5.939   2.616   1.984
  184SLPC  H14B21014   6.033   2.597   1.844
  184SLPC  H14C21015   5.858   2.560   1.833
  184SLPC   C1521016   5.980   2.342   1.801
  184SLPC  H15A21017   6.056   2.368   1.729
  184SLPC  H15B21018   6.005   2.240   1.825
  184SLPC  H15C21019   5.886   2.342   1.747
  184SLPC   C1221020   6.112   2.395   2.002
  184SLPC  H12A21021   6.189   2.418   1.930
  184SLPC  H12B21022   6.117   2.292   2.031
  184SLPC   C1121023   6.142   2.482   2.131
  184SLPC  H11A21024   6.142   2.591   2.111
  184SLPC  H11B21025   6.249   2.464   2.157
  184SLPC     P21026   6.072   2.306   2.321
  184SLPC   O1321027   5.971   2.319   2.430
  184SLPC   O1421028   6.071   2.189   2.226
  184SLPC   O1221029   6.068   2.440   2.251
  184SLPC   O1121030   6.215   2.301   2.387
  184SLPC    C121031   6.256   2.422   2.453
  184SLPC    HA21032   6.334   2.478   2.397
  184SLPC    HB21033   6.173   2.490   2.482
  184SLPC    C221034   6.319   2.377   2.595
  184SLPC    HS21035   6.340   2.469   2.654
  184SLPC   O2121036   6.442   2.300   2.577
  184SLPC   C2121037   6.547   2.365   2.537
  184SLPC   O2221038   6.553   2.480   2.511
  184SLPC   C2221039   6.663   2.267   2.539
  184SLPC   H2R21040   6.640   2.197   2.456
  184SLPC   H2S21041   6.753   2.323   2.506
  184SLPC    C321042   6.219   2.289   2.682
  184SLPC    HX21043   6.206   2.186   2.642
  184SLPC    HY21044   6.118   2.334   2.668
  184SLPC   O3121045   6.257   2.292   2.817
  184SLPC   C3121046   6.330   2.192   2.863
  184SLPC   O3221047   6.361   2.088   2.809
  184SLPC   C3221048   6.384   2.214   3.008
  184SLPC   H2X21049   6.313   2.280   3.064
  184SLPC   H2Y21050   6.479   2.272   3.003
  184SLPC   C2321051   6.693   2.177   2.663
  184SLPC   H3R21052   6.777   2.115   2.624
  184SLPC   H3S21053   6.600   2.118   2.681
  184SLPC   C2421054   6.736   2.260   2.781
  184SLPC   H4R21055   6.655   2.333   2.803
  184SLPC   H4S21056   6.823   2.320   2.746
  184SLPC   C2521057   6.765   2.164   2.897
  184SLPC   H5R21058   6.846   2.099   2.857
  184SLPC   H5S21059   6.679   2.106   2.936
  184SLPC   C2621060   6.821   2.231   3.018
  184SLPC   H6R21061   6.750   2.314   3.040
  184SLPC   H6S21062   0.030   2.276   2.984
  184SLPC   C2721063   6.836   2.144   3.142
  184SLPC   H7R21064   0.030   2.071   3.123
  184SLPC   H7S21065   6.755   2.070   3.159
  184SLPC   C2821066   6.874   2.224   3.269
  184SLPC   H8R21067   0.094   2.249   3.253
  184SLPC   H8S21068   0.011   2.150   3.347
  184SLPC   C2921069   6.789   2.339   3.318
  184SLPC   H9R21070   6.741   2.407   3.246
  184SLPC  C21021071   6.763   2.376   3.441
  184SLPC  H10R21072   6.708   2.469   3.461
  184SLPC  C21121073   6.814   2.285   3.557
  184SLPC  H11R21074   0.027   2.245   3.530
  184SLPC  H11S21075   6.745   2.199   3.568
  184SLPC  C21221076   6.802   2.351   3.686
  184SLPC  H12R21077   6.798   2.461   3.677
  184SLPC  C21321078   6.809   2.294   3.809
  184SLPC  H13R21079   6.780   2.351   3.898
  184SLPC  C21421080   6.813   2.147   3.843
  184SLPC  H14R21081   6.835   2.097   3.746
  184SLPC  H14S21082   6.721   2.117   3.896
  184SLPC  C21521083   0.041   2.120   3.936
  184SLPC  H15R21084   0.032   2.015   3.972
  184SLPC  H15S21085   0.030   2.187   4.024
  184SLPC  C21621086   0.183   2.135   3.874
  184SLPC  H16R21087   0.198   2.241   3.845
  184SLPC  H16S21088   0.177   2.072   3.783
  184SLPC  C21721089   0.300   2.093   3.968
  184SLPC  H17R21090   0.390   2.119   3.910
  184SLPC  H17S21091   0.295   1.983   3.983
  184SLPC  C21821092   0.304   2.171   4.104
  184SLPC  H18R21093   0.404   2.151   4.148
  184SLPC  H18S21094   0.221   2.145   4.173
  184SLPC  H18T21095   0.293   2.280   4.086
  184SLPC   C3321096   6.409   2.082   3.086
  184SLPC   H3X21097   6.483   2.018   3.033
  184SLPC   H3Y21098   6.316   2.022   3.095
  184SLPC   C3421099   6.451   2.115   3.229
  184SLPC   H4X21100   6.384   2.193   3.273
  184SLPC   H4Y21101   6.554   2.157   3.225
  184SLPC   C3521102   6.446   1.996   3.328
  184SLPC   H5X21103   6.539   1.936   3.315
  184SLPC   H5Y21104   6.350   1.950   3.297
  184SLPC   C3621105   6.444   2.040   3.479
  184SLPC   H6X21106   6.342   2.082   3.493
  184SLPC   H6Y21107   6.527   2.114   3.485
  184SLPC   C3721108   6.472   1.931   3.584
  184SLPC   H7X21109   6.554   1.861   3.556
  184SLPC   H7Y21110   6.381   1.868   3.598
  184SLPC   C3821111   6.494   2.001   3.719
  184SLPC   H8X21112   6.424   2.079   3.754
  184SLPC   H8Y21113   6.591   2.055   3.721
  184SLPC   C3921114   6.508   1.895   3.833
  184SLPC   H9X21115   6.429   1.817   3.828
  184SLPC   H9Y21116   6.509   1.951   3.929
  184SLPC  C31021117   6.641   1.821   3.818
  184SLPC  H10X21118   6.718   1.877   3.760
  184SLPC  H10Y21119   6.615   1.729   3.760
  184SLPC  C31121120   6.709   1.772   3.952
  184SLPC  H11X21121   6.638   1.717   4.018
  184SLPC  H11Y21122   6.739   1.865   4.005
  184SLPC  C31221123   6.832   1.683   3.921
  184SLPC  H12X21124   0.022   1.737   3.861
  184SLPC  H12Y21125   6.791   1.596   3.866
  184SLPC  C31321126   0.019   1.610   4.039
  184SLPC  H13X21127   0.072   1.532   3.981
  184SLPC  H13Y21128   6.832   1.571   4.112
  184SLPC  C31421129   0.124   1.698   4.111
  184SLPC  H14X21130   0.069   1.764   4.181
  184SLPC  H14Y21131   0.188   1.765   4.050
  184SLPC  C31521132   0.216   1.624   4.199
  184SLPC  H15X21133   0.298   1.573   4.144
  184SLPC  H15Y21134   0.151   1.545   4.243
  184SLPC  C31621135   0.261   1.702   4.316
  184SLPC  H16X21136   0.314   1.640   4.391
  184SLPC  H16Y21137   0.180   1.756   4.369
  184SLPC  C31721138   0.375   1.811   4.268
  184SLPC  H17X21139   0.343   1.857   4.172
  184SLPC  H17Y21140   0.468   1.758   4.241
  184SLPC  C31821141   0.411   1.912   4.376
  184SLPC  H18X21142   0.322   1.970   4.407
  184SLPC  H18Y21143   0.496   1.979   4.351
  184SLPC  H18Z21144   0.433   1.854   4.468
  185POPC     N21145   1.504   4.671   7.068
  185POPC   C1221146   1.563   4.680   6.924
  185POPC  H12A21147   1.561   4.579   6.884
  185POPC  H12B21148   1.663   4.718   6.930
  185POPC   C1321149   1.506   4.803   7.132
  185POPC  H13A21150   1.600   4.833   7.176
  185POPC  H13B21151   1.469   4.883   7.069
  185POPC  H13C21152   1.431   4.805   7.210
  185POPC   C1421153   1.363   4.620   7.062
  185POPC  H14A21154   1.330   4.602   7.163
  185POPC  H14B21155   1.294   4.681   7.004
  185POPC  H14C21156   1.360   4.524   7.014
  185POPC   C1521157   1.580   4.577   7.147
  185POPC  H15A21158   1.678   4.615   7.167
  185POPC  H15B21159   1.602   4.483   7.098
  185POPC  H15C21160   1.531   4.545   7.238
  185POPC   C1121161   1.481   4.774   6.835
  185POPC  H11A21162   1.373   4.749   6.825
  185POPC  H11B21163   1.517   4.751   6.732
  185POPC     P21164   1.642   4.984   6.828
  185POPC   O1321165   1.747   4.892   6.871
  185POPC   O1421166   1.630   5.122   6.884
  185POPC   O1221167   1.505   4.915   6.866
  185POPC   O1121168   1.639   4.992   6.665
  185POPC    C121169   1.527   5.049   6.601
  185POPC    HA21170   1.434   5.040   6.660
  185POPC    HB21171   1.502   4.989   6.511
  185POPC    C221172   1.548   5.201   6.564
  185POPC    HS21173   1.506   5.260   6.648
  185POPC   O2121174   1.478   5.232   6.442
  185POPC   C2121175   1.347   5.238   6.448
  185POPC   O2221176   1.283   5.222   6.551
  185POPC   C2221177   1.285   5.252   6.304
  185POPC   H2R21178   1.195   5.315   6.319
  185POPC   H2S21179   1.255   5.152   6.267
  185POPC    C321180   1.700   5.243   6.549
  185POPC    HX21181   1.746   5.182   6.468
  185POPC    HY21182   1.751   5.222   6.646
  185POPC   O3121183   1.715   5.385   6.538
  185POPC   C3121184   1.742   5.429   6.412
  185POPC   O3221185   1.751   5.359   6.314
  185POPC   C3221186   1.752   5.582   6.416
  185POPC   H2X21187   1.803   5.609   6.511
  185POPC   H2Y21188   1.650   5.624   6.404
  185POPC   C2321189   1.367   5.319   6.185
  185POPC   H3R21190   1.428   5.396   6.237
  185POPC   H3S21191   1.292   5.359   6.113
  185POPC   C2421192   1.453   5.218   6.111
  185POPC   H4R21193   1.378   5.144   6.078
  185POPC   H4S21194   1.526   5.164   6.176
  185POPC   C2521195   1.522   5.289   5.990
  185POPC   H5R21196   1.621   5.331   6.016
  185POPC   H5S21197   1.459   5.377   5.961
  185POPC   C2621198   1.534   5.203   5.866
  185POPC   H6R21199   1.432   5.166   5.842
  185POPC   H6S21200   1.597   5.116   5.895
  185POPC   C2721201   1.595   5.277   5.751
  185POPC   H7R21202   1.691   5.330   5.769
  185POPC   H7S21203   1.519   5.350   5.715
  185POPC   C2821204   1.618   5.183   5.640
  185POPC   H8R21205   1.524   5.126   5.619
  185POPC   H8S21206   1.697   5.107   5.657
  185POPC   C2921207   1.673   5.264   5.523
  185POPC   H9121208   1.782   5.283   5.528
  185POPC  C21021209   1.607   5.301   5.407
  185POPC  H10121210   1.662   5.364   5.335
  185POPC  C21121211   1.454   5.303   5.380
  185POPC  H11R21212   1.415   5.403   5.406
  185POPC  H11S21213   1.406   5.242   5.459
  185POPC  C21221214   1.399   5.256   5.245
  185POPC  H12R21215   1.288   5.264   5.249
  185POPC  H12S21216   1.421   5.150   5.220
  185POPC  C21321217   1.438   5.348   5.126
  185POPC  H13R21218   1.549   5.351   5.122
  185POPC  H13S21219   1.394   5.450   5.131
  185POPC  C21421220   1.390   5.290   4.988
  185POPC  H14R21221   1.281   5.275   5.003
  185POPC  H14S21222   1.443   5.195   4.964
  185POPC  C21521223   1.414   5.376   4.865
  185POPC  H15R21224   1.516   5.417   4.875
  185POPC  H15S21225   1.354   5.468   4.881
  185POPC  C21621226   1.370   5.305   4.737
  185POPC  H16R21227   1.272   5.253   4.737
  185POPC  H16S21228   1.450   5.230   4.717
  185POPC  C21721229   1.353   5.398   4.609
  185POPC  H17R21230   1.275   5.476   4.622
  185POPC  H17S21231   1.321   5.335   4.523
  185POPC  C21821232   1.480   5.473   4.573
  185POPC  H18R21233   1.574   5.413   4.573
  185POPC  H18S21234   1.499   5.558   4.641
  185POPC  H18T21235   1.478   5.524   4.474
  185POPC   C3321236   1.845   5.640   6.300
  185POPC   H3X21237   1.928   5.569   6.281
  185POPC   H3Y21238   1.901   5.732   6.328
  185POPC   C3421239   1.760   5.664   6.178
  185POPC   H4X21240   1.690   5.748   6.200
  185POPC   H4Y21241   1.710   5.575   6.134
  185POPC   C3521242   1.862   5.724   6.077
  185POPC   H5X21243   1.948   5.654   6.077
  185POPC   H5Y21244   1.895   5.825   6.112
  185POPC   C3621245   1.813   5.759   5.932
  185POPC   H6X21246   1.738   5.841   5.938
  185POPC   H6Y21247   1.760   5.667   5.898
  185POPC   C3721248   1.935   5.781   5.844
  185POPC   H7X21249   1.990   5.684   5.852
  185POPC   H7Y21250   2.009   5.860   5.869
  185POPC   C3821251   1.913   5.784   5.692
  185POPC   H8X21252   1.980   5.863   5.651
  185POPC   H8Y21253   1.809   5.813   5.663
  185POPC   C3921254   1.945   5.649   5.617
  185POPC   H9X21255   1.894   5.565   5.667
  185POPC   H9Y21256   2.056   5.640   5.626
  185POPC  C31021257   1.911   5.661   5.469
  185POPC  H10X21258   1.951   5.754   5.424
  185POPC  H10Y21259   1.800   5.660   5.468
  185POPC  C31121260   1.951   5.529   5.396
  185POPC  H11X21261   1.914   5.443   5.456
  185POPC  H11Y21262   2.061   5.514   5.397
  185POPC  C31221263   1.896   5.530   5.253
  185POPC  H12X21264   1.942   5.619   5.204
  185POPC  H12Y21265   1.786   5.539   5.257
  185POPC  C31321266   1.938   5.400   5.185
  185POPC  H13X21267   1.935   5.318   5.259
  185POPC  H13Y21268   2.044   5.409   5.151
  185POPC  C31421269   1.852   5.362   5.064
  185POPC  H14X21270   1.750   5.359   5.110
  185POPC  H14Y21271   1.881   5.262   5.026
  185POPC  C31521272   1.872   5.477   4.963
  185POPC  H15X21273   1.979   5.508   4.968
  185POPC  H15Y21274   1.815   5.563   5.005
  185POPC  C31621275   1.826   5.459   4.817
  185POPC  H16X21276   1.845   5.542   4.745
  185POPC  H16Y21277   1.725   5.414   4.823
  185POPC  H16Z21278   1.885   5.372   4.782
  186POPC     N21279   3.983   5.309   7.144
  186POPC   C1221280   3.889   5.429   7.104
  186POPC  H12A21281   3.938   5.523   7.087
  186POPC  H12B21282   3.836   5.450   7.196
  186POPC   C1321283   4.070   5.266   7.033
  186POPC  H13A21284   4.133   5.342   6.990
  186POPC  H13B21285   4.136   5.181   7.050
  186POPC  H13C21286   4.004   5.228   6.957
  186POPC   C1421287   4.080   5.354   7.252
  186POPC  H14A21288   4.029   5.401   7.335
  186POPC  H14B21289   4.147   5.283   7.296
  186POPC  H14C21290   4.144   5.423   7.199
  186POPC   C1521291   3.904   5.194   7.200
  186POPC  H15A21292   3.821   5.222   7.262
  186POPC  H15B21293   3.959   5.117   7.253
  186POPC  H15C21294   3.863   5.133   7.121
  186POPC   C1121295   3.796   5.413   6.987
  186POPC  H11A21296   3.703   5.368   7.026
  186POPC  H11B21297   3.817   5.329   6.918
  186POPC     P21298   3.873   5.617   6.843
  186POPC   O1321299   3.976   5.678   6.932
  186POPC   O1421300   3.805   5.712   6.748
  186POPC   O1221301   3.771   5.528   6.918
  186POPC   O1121302   3.942   5.510   6.752
  186POPC    C121303   3.861   5.434   6.654
  186POPC    HA21304   3.753   5.423   6.677
  186POPC    HB21305   3.901   5.330   6.655
  186POPC    C221306   3.877   5.498   6.514
  186POPC    HS21307   3.800   5.577   6.503
  186POPC   O2121308   3.869   5.405   6.410
  186POPC   C2121309   3.744   5.363   6.378
  186POPC   O2221310   3.640   5.397   6.422
  186POPC   C2221311   3.761   5.264   6.265
  186POPC   H2R21312   3.815   5.169   6.287
  186POPC   H2S21313   3.823   5.308   6.184
  186POPC    C321314   4.022   5.573   6.502
  186POPC    HX21315   4.102   5.504   6.534
  186POPC    HY21316   4.018   5.659   6.573
  186POPC   O3121317   4.035   5.623   6.369
  186POPC   C3121318   4.131   5.570   6.292
  186POPC   O3221319   4.199   5.474   6.323
  186POPC   C3221320   4.145   5.648   6.157
  186POPC   H2X21321   4.227   5.721   6.167
  186POPC   H2Y21322   4.045   5.696   6.145
  186POPC   C2321323   3.621   5.223   6.205
  186POPC   H3R21324   3.563   5.316   6.183
  186POPC   H3S21325   3.571   5.152   6.274
  186POPC   C2421326   3.641   5.143   6.075
  186POPC   H4R21327   3.552   5.091   6.034
  186POPC   H4S21328   3.716   5.066   6.100
  186POPC   C2521329   3.696   5.235   5.965
  186POPC   H5R21330   3.806   5.252   5.977
  186POPC   H5S21331   3.638   5.329   5.979
  186POPC   C2621332   3.666   5.182   5.829
  186POPC   H6R21333   3.560   5.151   5.820
  186POPC   H6S21334   3.723   5.091   5.802
  186POPC   C2721335   3.710   5.273   5.720
  186POPC   H7R21336   3.804   5.326   5.747
  186POPC   H7S21337   3.637   5.355   5.706
  186POPC   C2821338   3.742   5.199   5.584
  186POPC   H8R21339   3.649   5.154   5.543
  186POPC   H8S21340   3.802   5.107   5.599
  186POPC   C2921341   3.816   5.280   5.479
  186POPC   H9121342   3.919   5.300   5.510
  186POPC  C21021343   3.766   5.323   5.360
  186POPC  H10121344   3.836   5.369   5.288
  186POPC  C21121345   3.622   5.305   5.310
  186POPC  H11R21346   3.565   5.399   5.297
  186POPC  H11S21347   3.556   5.251   5.381
  186POPC  C21221348   3.615   5.214   5.187
  186POPC  H12R21349   3.507   5.201   5.161
  186POPC  H12S21350   3.660   5.114   5.207
  186POPC  C21321351   3.700   5.259   5.073
  186POPC  H13R21352   3.808   5.245   5.098
  186POPC  H13S21353   3.693   5.368   5.054
  186POPC  C21421354   3.675   5.177   4.945
  186POPC  H14R21355   3.653   5.072   4.975
  186POPC  H14S21356   3.776   5.167   4.900
  186POPC  C21521357   3.569   5.230   4.842
  186POPC  H15R21358   3.598   5.336   4.822
  186POPC  H15S21359   3.471   5.239   4.895
  186POPC  C21621360   3.580   5.147   4.717
  186POPC  H16R21361   3.496   5.170   4.648
  186POPC  H16S21362   3.584   5.038   4.734
  186POPC  C21721363   3.710   5.190   4.643
  186POPC  H17R21364   3.795   5.169   4.711
  186POPC  H17S21365   3.719   5.301   4.641
  186POPC  C21821366   3.746   5.127   4.501
  186POPC  H18R21367   3.845   5.169   4.475
  186POPC  H18S21368   3.666   5.171   4.438
  186POPC  H18T21369   3.738   5.016   4.497
  186POPC   C3321370   4.160   5.557   6.034
  186POPC   H3X21371   4.069   5.496   6.017
  186POPC   H3Y21372   4.244   5.485   6.049
  186POPC   C3421373   4.187   5.629   5.901
  186POPC   H4X21374   4.295   5.655   5.902
  186POPC   H4Y21375   4.123   5.720   5.897
  186POPC   C3521376   4.142   5.545   5.783
  186POPC   H5X21377   4.032   5.557   5.782
  186POPC   H5Y21378   4.167   5.437   5.791
  186POPC   C3621379   4.188   5.609   5.645
  186POPC   H6X21380   4.297   5.597   5.632
  186POPC   H6Y21381   4.172   5.719   5.648
  186POPC   C3721382   4.115   5.548   5.519
  186POPC   H7X21383   4.006   5.563   5.532
  186POPC   H7Y21384   4.115   5.440   5.541
  186POPC   C3821385   4.167   5.578   5.381
  186POPC   H8X21386   4.275   5.550   5.376
  186POPC   H8Y21387   4.163   5.687   5.362
  186POPC   C3921388   4.095   5.501   5.259
  186POPC   H9X21389   3.997   5.552   5.273
  186POPC   H9Y21390   4.092   5.392   5.283
  186POPC  C31021391   4.147   5.526   5.113
  186POPC  H10X21392   4.249   5.489   5.087
  186POPC  H10Y21393   4.158   5.636   5.102
  186POPC  C31121394   4.055   5.457   5.010
  186POPC  H11X21395   3.950   5.493   5.014
  186POPC  H11Y21396   4.066   5.346   5.014
  186POPC  C31221397   4.095   5.498   4.869
  186POPC  H12X21398   4.203   5.479   4.855
  186POPC  H12Y21399   4.075   5.605   4.843
  186POPC  C31321400   4.035   5.418   4.755
  186POPC  H13X21401   3.928   5.411   4.781
  186POPC  H13Y21402   4.072   5.314   4.746
  186POPC  C31421403   4.058   5.490   4.617
  186POPC  H14X21404   4.160   5.471   4.576
  186POPC  H14Y21405   4.045   5.600   4.626
  186POPC  C31521406   3.969   5.446   4.506
  186POPC  H15X21407   3.865   5.454   4.543
  186POPC  H15Y21408   3.988   5.338   4.488
  186POPC  C31621409   4.001   5.518   4.378
  186POPC  H16X21410   4.111   5.517   4.366
  186POPC  H16Y21411   3.979   5.627   4.385
  186POPC  H16Z21412   3.955   5.477   4.286
  187POPC     N21413   5.987   5.037   2.197
  187POPC   C1221414   6.002   5.188   2.218
  187POPC  H12A21415   6.001   5.234   2.121
  187POPC  H12B21416   6.099   5.203   2.262
  187POPC   C1321417   5.876   5.004   2.108
  187POPC  H13A21418   5.859   4.897   2.108
  187POPC  H13B21419   5.791   5.059   2.145
  187POPC  H13C21420   5.884   5.033   2.004
  187POPC   C1421421   6.111   4.985   2.144
  187POPC  H14A21422   6.090   4.888   2.101
  187POPC  H14B21423   6.154   5.053   2.073
  187POPC  H14C21424   6.192   4.972   2.214
  187POPC   C1521425   5.958   4.966   2.327
  187POPC  H15A21426   6.033   4.986   2.402
  187POPC  H15B21427   5.939   4.861   2.314
  187POPC  H15C21428   5.868   5.006   2.370
  187POPC   C1121429   5.892   5.260   2.304
  187POPC  H11A21430   5.909   5.369   2.304
  187POPC  H11B21431   5.904   5.234   2.412
  187POPC     P21432   5.689   5.327   2.164
  187POPC   O1321433   5.546   5.300   2.166
  187POPC   O1421434   5.764   5.315   2.035
  187POPC   O1221435   5.753   5.231   2.268
  187POPC   O1121436   5.714   5.475   2.215
  187POPC    C121437   5.643   5.543   2.320
  187POPC    HA21438   5.534   5.538   2.300
  187POPC    HB21439   5.669   5.650   2.305
  187POPC    C221440   5.654   5.490   2.467
  187POPC    HS21441   5.760   5.459   2.478
  187POPC   O2121442   5.561   5.378   2.482
  187POPC   C2121443   5.596   5.291   2.585
  187POPC   O2221444   5.696   5.292   2.652
  187POPC   C2221445   5.487   5.184   2.601
  187POPC   H2R21446   5.537   5.104   2.660
  187POPC   H2S21447   5.468   5.160   2.494
  187POPC    C321448   5.646   5.607   2.573
  187POPC    HX21449   5.541   5.645   2.580
  187POPC    HY21450   5.708   5.694   2.541
  187POPC   O3121451   5.698   5.561   2.701
  187POPC   C3121452   5.662   5.619   2.810
  187POPC   O3221453   5.579   5.712   2.831
  187POPC   C3221454   5.762   5.568   2.915
  187POPC   H2X21455   5.859   5.616   2.889
  187POPC   H2Y21456   5.773   5.460   2.891
  187POPC   C2321457   5.366   5.237   2.666
  187POPC   H3R21458   5.288   5.161   2.645
  187POPC   H3S21459   5.332   5.334   2.625
  187POPC   C2421460   5.393   5.252   2.812
  187POPC   H4R21461   5.454   5.341   2.838
  187POPC   H4S21462   5.454   5.164   2.843
  187POPC   C2521463   5.263   5.261   2.900
  187POPC   H5R21464   5.196   5.177   2.873
  187POPC   H5S21465   5.208   5.351   2.865
  187POPC   C2621466   5.283   5.261   3.045
  187POPC   H6R21467   5.187   5.257   3.102
  187POPC   H6S21468   5.350   5.340   3.084
  187POPC   C2721469   5.342   5.127   3.086
  187POPC   H7R21470   5.450   5.110   3.067
  187POPC   H7S21471   5.276   5.052   3.037
  187POPC   C2821472   5.340   5.091   3.233
  187POPC   H8R21473   5.334   4.980   3.227
  187POPC   H8S21474   5.245   5.105   3.289
  187POPC   C2921475   5.459   5.144   3.307
  187POPC   H9121476   5.514   5.221   3.251
  187POPC  C21021477   5.493   5.127   3.437
  187POPC  H10121478   5.583   5.176   3.478
  187POPC  C21121479   5.414   5.049   3.536
  187POPC  H11R21480   5.484   4.974   3.579
  187POPC  H11S21481   5.327   5.006   3.482
  187POPC  C21221482   5.351   5.148   3.641
  187POPC  H12R21483   5.284   5.215   3.584
  187POPC  H12S21484   5.428   5.201   3.702
  187POPC  C21321485   5.255   5.079   3.737
  187POPC  H13R21486   5.312   5.017   3.810
  187POPC  H13S21487   5.181   5.025   3.675
  187POPC  C21421488   5.172   5.182   3.819
  187POPC  H14R21489   5.124   5.262   3.758
  187POPC  H14S21490   5.247   5.229   3.885
  187POPC  C21521491   5.056   5.113   3.891
  187POPC  H15R21492   5.101   5.029   3.948
  187POPC  H15S21493   4.985   5.069   3.817
  187POPC  C21621494   4.976   5.212   3.976
  187POPC  H16R21495   4.923   5.152   4.054
  187POPC  H16S21496   4.900   5.254   3.907
  187POPC  C21721497   5.061   5.326   4.049
  187POPC  H17R21498   5.105   5.393   3.971
  187POPC  H17S21499   5.152   5.278   4.091
  187POPC  C21821500   4.987   5.413   4.153
  187POPC  H18R21501   4.914   5.467   4.089
  187POPC  H18S21502   5.063   5.479   4.199
  187POPC  H18T21503   4.925   5.364   4.231
  187POPC   C3321504   5.723   5.579   3.061
  187POPC   H3X21505   5.694   5.685   3.081
  187POPC   H3Y21506   5.814   5.548   3.117
  187POPC   C3421507   5.609   5.485   3.105
  187POPC   H4X21508   5.640   5.379   3.114
  187POPC   H4Y21509   5.532   5.476   3.024
  187POPC   C3521510   5.549   5.521   3.238
  187POPC   H5X21511   5.458   5.458   3.251
  187POPC   H5Y21512   5.497   5.619   3.230
  187POPC   C3621513   5.641   5.504   3.356
  187POPC   H6X21514   5.713   5.588   3.351
  187POPC   H6Y21515   5.682   5.402   3.338
  187POPC   C3721516   5.578   5.526   3.493
  187POPC   H7X21517   5.493   5.457   3.513
  187POPC   H7Y21518   5.517   5.619   3.494
  187POPC   C3821519   5.668   5.533   3.617
  187POPC   H8X21520   5.704   5.638   3.616
  187POPC   H8Y21521   5.746   5.453   3.617
  187POPC   C3921522   5.594   5.506   3.746
  187POPC   H9X21523   5.489   5.486   3.715
  187POPC   H9Y21524   5.586   5.599   3.806
  187POPC  C31021525   5.635   5.396   3.840
  187POPC  H10X21526   5.742   5.392   3.870
  187POPC  H10Y21527   5.626   5.300   3.784
  187POPC  C31121528   5.540   5.378   3.954
  187POPC  H11X21529   5.442   5.353   3.909
  187POPC  H11Y21530   5.531   5.474   4.009
  187POPC  C31221531   5.585   5.273   4.056
  187POPC  H12X21532   5.639   5.191   4.005
  187POPC  H12Y21533   5.497   5.244   4.117
  187POPC  C31321534   5.698   5.325   4.160
  187POPC  H13X21535   5.779   5.376   4.105
  187POPC  H13Y21536   5.745   5.231   4.197
  187POPC  C31421537   5.649   5.398   4.286
  187POPC  H14X21538   5.597   5.323   4.349
  187POPC  H14Y21539   5.567   5.468   4.258
  187POPC  C31521540   5.760   5.462   4.370
  187POPC  H15X21541   5.807   5.551   4.323
  187POPC  H15Y21542   5.835   5.382   4.388
  187POPC  C31621543   5.716   5.507   4.506
  187POPC  H16X21544   5.642   5.590   4.493
  187POPC  H16Y21545   5.793   5.556   4.568
  187POPC  H16Z21546   5.657   5.427   4.555
  188POPC     N21547   4.689   5.670   1.506
  188POPC   C1221548   4.799   5.576   1.479
  188POPC  H12A21549   4.883   5.623   1.430
  188POPC  H12B21550   4.753   5.499   1.420
  188POPC   C1321551   4.578   5.603   1.582
  188POPC  H13A21552   4.497   5.672   1.603
  188POPC  H13B21553   4.528   5.520   1.534
  188POPC  H13C21554   4.608   5.572   1.681
  188POPC   C1421555   4.736   5.793   1.582
  188POPC  H14A21556   4.809   5.848   1.526
  188POPC  H14B21557   4.648   5.848   1.612
  188POPC  H14C21558   4.775   5.756   1.676
  188POPC   C1521559   4.626   5.723   1.378
  188POPC  H15A21560   4.553   5.799   1.403
  188POPC  H15B21561   4.580   5.637   1.333
  188POPC  H15C21562   4.704   5.762   1.315
  188POPC   C1121563   4.853   5.507   1.609
  188POPC  H11A21564   4.919   5.435   1.556
  188POPC  H11B21565   4.772   5.451   1.660
  188POPC     P21566   5.005   5.560   1.813
  188POPC   O1321567   5.076   5.677   1.863
  188POPC   O1421568   5.085   5.440   1.768
  188POPC   O1221569   4.924   5.606   1.688
  188POPC   O1121570   4.899   5.515   1.915
  188POPC    C121571   4.803   5.602   1.973
  188POPC    HA21572   4.714   5.536   1.985
  188POPC    HB21573   4.777   5.682   1.900
  188POPC    C221574   4.845   5.662   2.108
  188POPC    HS21575   4.936   5.725   2.095
  188POPC   O2121576   4.869   5.544   2.193
  188POPC   C2121577   4.941   5.579   2.297
  188POPC   O2221578   5.015   5.672   2.301
  188POPC   C2221579   4.930   5.472   2.406
  188POPC   H2R21580   4.973   5.377   2.369
  188POPC   H2S21581   4.822   5.464   2.431
  188POPC    C321582   4.739   5.751   2.162
  188POPC    HX21583   4.634   5.722   2.137
  188POPC    HY21584   4.746   5.858   2.135
  188POPC   O3121585   4.747   5.757   2.312
  188POPC   C3121586   4.699   5.867   2.368
  188POPC   O3221587   4.631   5.957   2.322
  188POPC   C3221588   4.754   5.855   2.507
  188POPC   H2X21589   4.778   5.958   2.542
  188POPC   H2Y21590   4.850   5.800   2.505
  188POPC   C2321591   5.006   5.516   2.531
  188POPC   H3R21592   4.984   5.615   2.576
  188POPC   H3S21593   5.114   5.519   2.504
  188POPC   C2421594   5.010   5.410   2.640
  188POPC   H4R21595   5.108   5.425   2.690
  188POPC   H4S21596   5.036   5.311   2.596
  188POPC   C2521597   4.903   5.419   2.748
  188POPC   H5R21598   4.802   5.405   2.703
  188POPC   H5S21599   4.895   5.513   2.806
  188POPC   C2621600   4.912   5.301   2.853
  188POPC   H6R21601   5.014   5.303   2.896
  188POPC   H6S21602   4.913   5.203   2.801
  188POPC   C2721603   4.814   5.309   2.966
  188POPC   H7R21604   4.837   5.405   3.017
  188POPC   H7S21605   4.826   5.229   3.042
  188POPC   C2821606   4.675   5.310   2.910
  188POPC   H8R21607   4.664   5.405   2.854
  188POPC   H8S21608   4.608   5.311   2.999
  188POPC   C2921609   4.627   5.197   2.821
  188POPC   H9121610   4.664   5.199   2.718
  188POPC  C21021611   4.531   5.112   2.858
  188POPC  H10121612   4.497   5.042   2.780
  188POPC  C21121613   4.448   5.109   2.988
  188POPC  H11R21614   4.429   5.208   3.035
  188POPC  H11S21615   4.513   5.052   3.058
  188POPC  C21221616   4.313   5.035   2.985
  188POPC  H12R21617   4.337   4.936   2.939
  188POPC  H12S21618   4.245   5.095   2.920
  188POPC  C21321619   4.247   5.028   3.125
  188POPC  H13R21620   4.140   5.030   3.096
  188POPC  H13S21621   4.251   5.119   3.188
  188POPC  C21421622   4.284   4.906   3.214
  188POPC  H14R21623   4.394   4.905   3.225
  188POPC  H14S21624   4.237   4.821   3.160
  188POPC  C21521625   4.228   4.924   3.354
  188POPC  H15R21626   4.119   4.945   3.351
  188POPC  H15S21627   4.276   5.015   3.398
  188POPC  C21621628   4.265   4.806   3.442
  188POPC  H16R21629   4.376   4.802   3.450
  188POPC  H16S21630   4.226   4.720   3.383
  188POPC  C21721631   4.211   4.820   3.586
  188POPC  H17R21632   4.255   4.735   3.642
  188POPC  H17S21633   4.103   4.795   3.581
  188POPC  C21821634   4.237   4.953   3.655
  188POPC  H18R21635   4.342   4.978   3.625
  188POPC  H18S21636   4.226   4.942   3.765
  188POPC  H18T21637   4.169   5.027   3.609
  188POPC   C3321638   4.664   5.776   2.602
  188POPC   H3X21639   4.657   5.678   2.551
  188POPC   H3Y21640   4.566   5.830   2.600
  188POPC   C3421641   4.718   5.769   2.742
  188POPC   H4X21642   4.761   5.864   2.779
  188POPC   H4Y21643   4.803   5.697   2.739
  188POPC   C3521644   4.617   5.723   2.848
  188POPC   H5X21645   4.588   5.616   2.838
  188POPC   H5Y21646   4.522   5.780   2.842
  188POPC   C3621647   4.669   5.744   2.993
  188POPC   H6X21648   4.686   5.853   3.009
  188POPC   H6Y21649   4.769   5.698   3.000
  188POPC   C3721650   4.568   5.708   3.105
  188POPC   H7X21651   4.521   5.609   3.086
  188POPC   H7Y21652   4.485   5.780   3.095
  188POPC   C3821653   4.644   5.710   3.239
  188POPC   H8X21654   4.649   5.813   3.281
  188POPC   H8Y21655   4.750   5.679   3.229
  188POPC   C3921656   4.570   5.624   3.338
  188POPC   H9X21657   4.554   5.521   3.299
  188POPC   H9Y21658   4.467   5.663   3.350
  188POPC  C31021659   4.637   5.611   3.479
  188POPC  H10X21660   4.740   5.573   3.462
  188POPC  H10Y21661   4.589   5.529   3.537
  188POPC  C31121662   4.634   5.746   3.559
  188POPC  H11X21663   4.530   5.783   3.564
  188POPC  H11Y21664   4.691   5.827   3.509
  188POPC  C31221665   4.695   5.724   3.703
  188POPC  H12X21666   4.800   5.688   3.698
  188POPC  H12Y21667   4.632   5.646   3.751
  188POPC  C31321668   4.672   5.849   3.792
  188POPC  H13X21669   4.563   5.874   3.790
  188POPC  H13Y21670   4.722   5.940   3.751
  188POPC  C31421671   4.716   5.837   3.932
  188POPC  H14X21672   4.687   5.733   3.959
  188POPC  H14Y21673   4.655   5.905   3.995
  188POPC  C31521674   4.863   5.869   3.961
  188POPC  H15X21675   4.892   5.968   3.919
  188POPC  H15Y21676   4.929   5.796   3.910
  188POPC  C31621677   4.900   5.879   4.107
  188POPC  H16X21678   4.832   5.953   4.154
  188POPC  H16Y21679   5.006   5.901   4.133
  188POPC  H16Z21680   4.888   5.777   4.150
  189SAPI   C1221681   1.947   4.518   6.783
  189SAPI    H221682   1.896   4.600   6.729
  189SAPI    O221683   1.896   4.510   6.914
  189SAPI   HO221684   1.895   4.600   6.948
  189SAPI   C1321685   1.921   4.389   6.705
  189SAPI    H321686   1.958   4.407   6.602
  189SAPI    O321687   1.780   4.358   6.697
  189SAPI   HO321688   1.747   4.420   6.630
  189SAPI   C1421689   2.003   4.274   6.764
  189SAPI    H421690   1.952   4.240   6.857
  189SAPI    O421691   2.002   4.155   6.674
  189SAPI   HO421692   2.063   4.085   6.698
  189SAPI   C1521693   2.144   4.309   6.804
  189SAPI    H521694   2.210   4.319   6.715
  189SAPI    O521695   2.205   4.207   6.878
  189SAPI   HO521696   2.296   4.201   6.847
  189SAPI   C1621697   2.162   4.444   6.873
  189SAPI    H621698   2.128   4.441   6.978
  189SAPI    O621699   2.298   4.479   6.885
  189SAPI   HO621700   2.313   4.568   6.853
  189SAPI   C1121701   2.094   4.556   6.797
  189SAPI    H121702   2.132   4.565   6.693
  189SAPI     P21703   2.212   4.803   6.790
  189SAPI   O1321704   2.344   4.741   6.792
  189SAPI   O1421705   2.205   4.931   6.862
  189SAPI   O1221706   2.112   4.685   6.860
  189SAPI   O1121707   2.152   4.816   6.655
  189SAPI    C121708   2.008   4.848   6.640
  189SAPI    HA21709   1.954   4.784   6.567
  189SAPI    HB21710   1.953   4.841   6.736
  189SAPI    C221711   1.982   4.996   6.584
  189SAPI    HS21712   1.873   5.012   6.569
  189SAPI   O2121713   2.059   5.002   6.464
  189SAPI   C2121714   1.999   4.952   6.356
  189SAPI   O2221715   1.888   4.911   6.351
  189SAPI   C2221716   2.091   4.969   6.234
  189SAPI   H2R21717   2.177   4.899   6.236
  189SAPI   H2S21718   2.027   4.930   6.152
  189SAPI    C321719   2.027   5.116   6.671
  189SAPI    HX21720   2.129   5.100   6.710
  189SAPI    HY21721   1.966   5.102   6.762
  189SAPI   O3121722   2.008   5.241   6.600
  189SAPI   C3121723   2.079   5.341   6.645
  189SAPI   O3221724   2.133   5.347   6.754
  189SAPI   C3221725   2.105   5.453   6.548
  189SAPI   H2X21726   2.013   5.515   6.538
  189SAPI   H2Y21727   2.121   5.395   6.455
  189SAPI   C2321728   2.151   5.112   6.211
  189SAPI   H3R21729   2.229   5.105   6.133
  189SAPI   H3S21730   2.198   5.137   6.309
  189SAPI   C2421731   2.050   5.220   6.176
  189SAPI   H4R21732   2.098   5.309   6.131
  189SAPI   H4S21733   2.013   5.269   6.269
  189SAPI   C2521734   1.931   5.183   6.085
  189SAPI   H5R21735   1.833   5.164   6.133
  189SAPI   C2621736   1.931   5.172   5.956
  189SAPI   H6R21737   1.834   5.143   5.913
  189SAPI   C2721738   2.045   5.187   5.863
  189SAPI   H7R21739   2.037   5.102   5.791
  189SAPI   H7S21740   2.137   5.170   5.922
  189SAPI   C2821741   2.066   5.325   5.802
  189SAPI   H8R21742   2.016   5.409   5.852
  189SAPI   C2921743   2.141   5.358   5.689
  189SAPI   H9R21744   2.149   5.460   5.650
  189SAPI  C21021745   2.226   5.261   5.614
  189SAPI  H10R21746   2.223   5.164   5.667
  189SAPI  H10S21747   2.332   5.296   5.617
  189SAPI  C21121748   2.177   5.236   5.479
  189SAPI  H11R21749   2.069   5.255   5.465
  189SAPI  C21221750   2.240   5.210   5.367
  189SAPI  H12R21751   2.180   5.192   5.276
  189SAPI  C21321752   2.387   5.179   5.356
  189SAPI  H13R21753   2.431   5.160   5.457
  189SAPI  H13S21754   2.438   5.270   5.320
  189SAPI  C21421755   2.433   5.073   5.264
  189SAPI  H14R21756   2.507   5.003   5.306
  189SAPI  C21521757   2.407   5.053   5.134
  189SAPI  H15R21758   2.456   4.973   5.076
  189SAPI  C21621759   2.328   5.145   5.043
  189SAPI  H16R21760   2.392   5.198   4.970
  189SAPI  H16S21761   2.269   5.224   5.093
  189SAPI  C21721762   2.223   5.063   4.958
  189SAPI  H17R21763   2.148   5.005   5.016
  189SAPI  H17S21764   2.280   4.990   4.897
  189SAPI  C21821765   2.145   5.168   4.870
  189SAPI  H18R21766   2.207   5.261   4.867
  189SAPI  H18S21767   2.054   5.194   4.928
  189SAPI  C21921768   2.089   5.119   4.739
  189SAPI  H19R21769   2.019   5.199   4.707
  189SAPI  H19S21770   2.025   5.030   4.756
  189SAPI  C22021771   2.200   5.079   4.635
  189SAPI  H20R21772   2.249   5.172   4.598
  189SAPI  H20S21773   2.155   5.024   4.551
  189SAPI  H20T21774   2.278   5.015   4.683
  189SAPI   C3321775   2.226   5.548   6.576
  189SAPI   H3X21776   2.318   5.486   6.570
  189SAPI   H3Y21777   2.222   5.595   6.676
  189SAPI   C3421778   2.249   5.661   6.468
  189SAPI   H4X21779   2.339   5.721   6.494
  189SAPI   H4Y21780   2.165   5.731   6.484
  189SAPI   C3521781   2.252   5.608   6.324
  189SAPI   H5X21782   2.162   5.548   6.298
  189SAPI   H5Y21783   2.333   5.532   6.321
  189SAPI   C3621784   2.267   5.716   6.220
  189SAPI   H6X21785   2.348   5.789   6.238
  189SAPI   H6Y21786   2.171   5.773   6.213
  189SAPI   C3721787   2.307   5.647   6.089
  189SAPI   H7X21788   2.232   5.571   6.061
  189SAPI   H7Y21789   2.408   5.605   6.107
  189SAPI   C3821790   2.290   5.736   5.963
  189SAPI   H8X21791   2.383   5.796   5.977
  189SAPI   H8Y21792   2.197   5.794   5.979
  189SAPI   C3921793   2.293   5.662   5.827
  189SAPI   H9X21794   2.196   5.611   5.808
  189SAPI   H9Y21795   2.372   5.583   5.828
  189SAPI  C31021796   2.337   5.754   5.713
  189SAPI  H10X21797   2.435   5.791   5.750
  189SAPI  H10Y21798   2.269   5.841   5.705
  189SAPI  C31121799   2.348   5.686   5.576
  189SAPI  H11X21800   2.249   5.643   5.548
  189SAPI  H11Y21801   2.422   5.605   5.591
  189SAPI  C31221802   2.409   5.779   5.470
  189SAPI  H12X21803   2.504   5.813   5.517
  189SAPI  H12Y21804   2.354   5.876   5.470
  189SAPI  C31321805   2.424   5.708   5.335
  189SAPI  H13X21806   2.455   5.601   5.341
  189SAPI  H13Y21807   2.481   5.778   5.270
  189SAPI  C31421808   2.286   5.706   5.260
  189SAPI  H14X21809   2.252   5.809   5.234
  189SAPI  H14Y21810   2.206   5.667   5.327
  189SAPI  C31521811   2.278   5.620   5.130
  189SAPI  H15X21812   2.182   5.641   5.078
  189SAPI  H15Y21813   2.269   5.515   5.165
  189SAPI  C31621814   2.396   5.632   5.040
  189SAPI  H16X21815   2.491   5.587   5.076
  189SAPI  H16Y21816   2.415   5.736   5.007
  189SAPI  C31721817   2.370   5.557   4.910
  189SAPI  H17X21818   2.272   5.571   4.858
  189SAPI  H17Y21819   2.369   5.447   4.923
  189SAPI  C31821820   2.474   5.586   4.800
  189SAPI  H18X21821   2.576   5.567   4.839
  189SAPI  H18Y21822   2.469   5.689   4.758
  189SAPI  H18Z21823   2.460   5.511   4.719
  190SAPI   C1221824   1.123   3.186   6.757
  190SAPI    H221825   1.063   3.277   6.778
  190SAPI    O221826   1.228   3.221   6.670
  190SAPI   HO221827   1.184   3.218   6.584
  190SAPI   C1321828   1.181   3.138   6.890
  190SAPI    H321829   1.093   3.117   6.954
  190SAPI    O321830   1.245   3.243   6.965
  190SAPI   HO321831   1.293   3.298   6.903
  190SAPI   C1421832   1.258   3.019   6.864
  190SAPI    H421833   1.349   3.044   6.805
  190SAPI    O421834   1.321   2.974   6.987
  190SAPI   HO421835   1.406   3.019   6.997
  190SAPI   C1521836   1.182   2.905   6.802
  190SAPI    H521837   1.111   2.867   6.878
  190SAPI    O521838   1.256   2.786   6.774
  190SAPI   HO521839   1.222   2.714   6.828
  190SAPI   C1621840   1.102   2.954   6.680
  190SAPI    H621841   1.173   2.971   6.596
  190SAPI    O621842   1.010   2.853   6.633
  190SAPI   HO621843   0.962   2.887   6.558
  190SAPI   C1121844   1.031   3.082   6.708
  190SAPI    H121845   0.951   3.064   6.783
  190SAPI     P21846   0.827   3.169   6.561
  190SAPI   O1321847   0.805   3.250   6.440
  190SAPI   O1421848   0.777   3.218   6.690
  190SAPI   O1221849   0.984   3.137   6.580
  190SAPI   O1121850   0.787   3.019   6.535
  190SAPI    C121851   0.646   2.986   6.534
  190SAPI    HA21852   0.590   3.016   6.625
  190SAPI    HB21853   0.587   3.035   6.453
  190SAPI    C221854   0.635   2.832   6.520
  190SAPI    HS21855   0.698   2.782   6.597
  190SAPI   O2121856   0.672   2.795   6.385
  190SAPI   C2121857   0.789   2.737   6.363
  190SAPI   O2221858   0.849   2.674   6.447
  190SAPI   C2221859   0.837   2.751   6.224
  190SAPI   H2R21860   0.908   2.666   6.221
  190SAPI   H2S21861   0.749   2.728   6.160
  190SAPI    C321862   0.495   2.794   6.552
  190SAPI    HX21863   0.425   2.846   6.483
  190SAPI    HY21864   0.468   2.825   6.656
  190SAPI   O3121865   0.470   2.654   6.526
  190SAPI   C3121866   0.521   2.565   6.610
  190SAPI   O3221867   0.577   2.589   6.712
  190SAPI   C3221868   0.485   2.430   6.556
  190SAPI   H2X21869   0.375   2.416   6.551
  190SAPI   H2Y21870   0.512   2.349   6.626
  190SAPI   C2321871   0.920   2.873   6.193
  190SAPI   H3R21872   1.024   2.851   6.228
  190SAPI   H3S21873   0.876   2.963   6.241
  190SAPI   C2421874   0.931   2.891   6.039
  190SAPI   H4R21875   0.978   2.797   6.003
  190SAPI   H4S21876   1.001   2.976   6.022
  190SAPI   C2521877   0.792   2.935   5.986
  190SAPI   H5R21878   0.736   3.006   6.048
  190SAPI   C2621879   0.741   2.902   5.864
  190SAPI   H6R21880   0.633   2.921   5.858
  190SAPI   C2721881   0.792   2.792   5.767
  190SAPI   H7R21882   0.738   2.699   5.795
  190SAPI   H7S21883   0.897   2.764   5.790
  190SAPI   C2821884   0.776   2.818   5.619
  190SAPI   H8R21885   0.710   2.904   5.600
  190SAPI   C2921886   0.827   2.743   5.527
  190SAPI   H9R21887   0.824   2.774   5.421
  190SAPI  C21021888   0.917   2.620   5.539
  190SAPI  H10R21889   0.873   2.535   5.483
  190SAPI  H10S21890   0.897   2.581   5.641
  190SAPI  C21121891   1.059   2.638   5.509
  190SAPI  H11R21892   1.135   2.622   5.588
  190SAPI  C21221893   1.106   2.668   5.382
  190SAPI  H12R21894   1.216   2.676   5.379
  190SAPI  C21321895   1.031   2.701   5.260
  190SAPI  H13R21896   0.923   2.677   5.271
  190SAPI  H13S21897   1.061   2.634   5.177
  190SAPI  C21421898   1.055   2.844   5.214
  190SAPI  H14R21899   1.021   2.929   5.276
  190SAPI  C21521900   1.084   2.878   5.085
  190SAPI  H15R21901   1.096   2.984   5.062
  190SAPI  C21621902   1.127   2.789   4.965
  190SAPI  H16R21903   1.083   2.836   4.875
  190SAPI  H16S21904   1.078   2.691   4.985
  190SAPI  C21721905   1.279   2.760   4.956
  190SAPI  H17R21906   1.305   2.698   5.045
  190SAPI  H17S21907   1.341   2.852   4.969
  190SAPI  C21821908   1.306   2.678   4.830
  190SAPI  H18R21909   1.229   2.600   4.814
  190SAPI  H18S21910   1.406   2.628   4.834
  190SAPI  C21921911   1.324   2.766   4.706
  190SAPI  H19R21912   1.396   2.847   4.732
  190SAPI  H19S21913   1.229   2.813   4.672
  190SAPI  C22021914   1.383   2.682   4.590
  190SAPI  H20R21915   1.318   2.599   4.554
  190SAPI  H20S21916   1.478   2.634   4.623
  190SAPI  H20T21917   1.408   2.744   4.501
  190SAPI   C3321918   0.556   2.411   6.414
  190SAPI   H3X21919   0.552   2.500   6.348
  190SAPI   H3Y21920   0.505   2.325   6.366
  190SAPI   C3421921   0.702   2.368   6.454
  190SAPI   H4X21922   0.688   2.294   6.535
  190SAPI   H4Y21923   0.765   2.452   6.491
  190SAPI   C3521924   0.758   2.287   6.344
  190SAPI   H5X21925   0.696   2.196   6.326
  190SAPI   H5Y21926   0.841   2.233   6.395
  190SAPI   C3621927   0.816   2.360   6.231
  190SAPI   H6X21928   0.897   2.434   6.252
  190SAPI   H6Y21929   0.727   2.417   6.196
  190SAPI   C3721930   0.868   2.264   6.122
  190SAPI   H7X21931   0.803   2.176   6.100
  190SAPI   H7Y21932   0.960   2.223   6.167
  190SAPI   C3821933   0.911   2.346   5.990
  190SAPI   H8X21934   0.982   2.428   6.016
  190SAPI   H8Y21935   0.829   2.395   5.933
  190SAPI   C3921936   0.981   2.260   5.885
  190SAPI   H9X21937   0.909   2.178   5.864
  190SAPI   H9Y21938   1.084   2.227   5.912
  190SAPI  C31021939   0.997   2.331   5.756
  190SAPI  H10X21940   1.093   2.387   5.755
  190SAPI  H10Y21941   0.912   2.399   5.737
  190SAPI  C31121942   1.014   2.222   5.649
  190SAPI  H11X21943   0.912   2.179   5.637
  190SAPI  H11Y21944   1.081   2.144   5.690
  190SAPI  C31221945   1.063   2.281   5.513
  190SAPI  H12X21946   1.162   2.331   5.523
  190SAPI  H12Y21947   0.983   2.345   5.472
  190SAPI  C31321948   1.089   2.179   5.402
  190SAPI  H13X21949   1.011   2.100   5.401
  190SAPI  H13Y21950   1.183   2.122   5.418
  190SAPI  C31421951   1.089   2.248   5.267
  190SAPI  H14X21952   1.159   2.334   5.280
  190SAPI  H14Y21953   0.990   2.292   5.242
  190SAPI  C31521954   1.129   2.163   5.149
  190SAPI  H15X21955   1.090   2.061   5.170
  190SAPI  H15Y21956   1.240   2.150   5.145
  190SAPI  C31621957   1.078   2.193   5.006
  190SAPI  H16X21958   0.976   2.150   5.014
  190SAPI  H16Y21959   1.123   2.134   4.924
  190SAPI  C31721960   1.101   2.342   4.964
  190SAPI  H17X21961   1.209   2.365   4.975
  190SAPI  H17Y21962   1.055   2.403   5.044
  190SAPI  C31821963   1.060   2.372   4.821
  190SAPI  H18X21964   1.116   2.312   4.746
  190SAPI  H18Y21965   1.066   2.481   4.799
  190SAPI  H18Z21966   0.953   2.349   4.805
  191SAPI   C1221967   4.743   4.653   2.501
  191SAPI    H221968   4.718   4.549   2.473
  191SAPI    O221969   4.792   4.656   2.630
  191SAPI   HO221970   4.722   4.680   2.692
  191SAPI   C1321971   4.844   4.704   2.396
  191SAPI    H321972   4.798   4.699   2.295
  191SAPI    O321973   4.966   4.635   2.397
  191SAPI   HO321974   5.035   4.700   2.380
  191SAPI   C1421975   4.874   4.853   2.414
  191SAPI    H421976   4.927   4.867   2.510
  191SAPI    O421977   4.954   4.901   2.308
  191SAPI   HO421978   5.039   4.867   2.336
  191SAPI   C1521979   4.751   4.941   2.431
  191SAPI    H521980   4.717   4.941   2.326
  191SAPI    O521981   4.786   5.080   2.463
  191SAPI   HO521982   4.756   5.134   2.389
  191SAPI   C1621983   4.638   4.888   2.514
  191SAPI    H621984   4.670   4.914   2.617
  191SAPI    O621985   4.518   4.958   2.485
  191SAPI   HO621986   4.453   4.918   2.544
  191SAPI   C1121987   4.621   4.738   2.497
  191SAPI    H121988   4.578   4.730   2.395
  191SAPI     P21989   4.399   4.590   2.528
  191SAPI   O1321990   4.448   4.511   2.411
  191SAPI   O1421991   4.277   4.670   2.505
  191SAPI   O1221992   4.515   4.694   2.590
  191SAPI   O1121993   4.377   4.501   2.654
  191SAPI    C121994   4.487   4.423   2.710
  191SAPI    HA21995   4.587   4.468   2.694
  191SAPI    HB21996   4.473   4.405   2.819
  191SAPI    C221997   4.482   4.286   2.634
  191SAPI    HS21998   4.496   4.296   2.524
  191SAPI   O2121999   4.355   4.227   2.644
  191SAPI   C2122000   4.327   4.130   2.554
  191SAPI   O2222001   4.390   4.096   2.458
  191SAPI   C2222002   4.196   4.064   2.609
  191SAPI   H2R22003   4.169   4.122   2.700
  191SAPI   H2S22004   4.119   4.086   2.532
  191SAPI    C322005   4.600   4.196   2.689
  191SAPI    HX22006   4.696   4.236   2.650
  191SAPI    HY22007   4.583   4.098   2.641
  191SAPI   O3122008   4.590   4.188   2.833
  191SAPI   C3122009   4.631   4.077   2.891
  191SAPI   O3222010   4.678   3.979   2.836
  191SAPI   C3222011   4.618   4.105   3.039
  191SAPI   H2X22012   4.716   4.134   3.083
  191SAPI   H2Y22013   4.585   4.008   3.081
  191SAPI   C2322014   4.213   3.916   2.648
  191SAPI   H3R22015   4.269   3.877   2.560
  191SAPI   H3S22016   4.116   3.861   2.655
  191SAPI   C2422017   4.287   3.890   2.772
  191SAPI   H4R22018   4.394   3.919   2.762
  191SAPI   H4S22019   4.297   3.780   2.781
  191SAPI   C2522020   4.235   3.958   2.901
  191SAPI   H5R22021   4.269   4.062   2.916
  191SAPI   C2622022   4.175   3.890   3.001
  191SAPI   H6R22023   4.156   3.937   3.099
  191SAPI   C2722024   4.148   3.744   3.015
  191SAPI   H7R22025   4.232   3.688   3.061
  191SAPI   H7S22026   4.133   3.694   2.917
  191SAPI   C2822027   4.009   3.734   3.080
  191SAPI   H8R22028   3.928   3.741   3.005
  191SAPI   C2922029   3.978   3.730   3.208
  191SAPI   H9R22030   3.874   3.709   3.238
  191SAPI  C21022031   4.067   3.725   3.327
  191SAPI  H10R22032   4.168   3.737   3.284
  191SAPI  H10S22033   4.057   3.622   3.369
  191SAPI  C21122034   4.042   3.824   3.440
  191SAPI  H11R22035   3.970   3.902   3.414
  191SAPI  C21222036   4.105   3.819   3.559
  191SAPI  H12R22037   4.079   3.896   3.634
  191SAPI  C21322038   4.209   3.714   3.594
  191SAPI  H13R22039   4.283   3.742   3.673
  191SAPI  H13S22040   4.280   3.702   3.509
  191SAPI  C21422041   4.140   3.582   3.627
  191SAPI  H14R22042   4.052   3.552   3.567
  191SAPI  C21522043   4.179   3.491   3.709
  191SAPI  H15R22044   4.119   3.399   3.711
  191SAPI  C21622045   4.298   3.500   3.801
  191SAPI  H16R22046   4.345   3.600   3.802
  191SAPI  H16S22047   4.375   3.424   3.778
  191SAPI  C21722048   4.246   3.469   3.936
  191SAPI  H17R22049   4.158   3.528   3.966
  191SAPI  H17S22050   4.333   3.495   4.001
  191SAPI  C21822051   4.224   3.317   3.970
  191SAPI  H18R22052   4.322   3.265   3.963
  191SAPI  H18S22053   4.160   3.278   3.888
  191SAPI  C21922054   4.152   3.295   4.100
  191SAPI  H19R22055   4.143   3.186   4.118
  191SAPI  H19S22056   4.046   3.327   4.106
  191SAPI  C22022057   4.225   3.361   4.220
  191SAPI  H20R22058   4.332   3.341   4.241
  191SAPI  H20S22059   4.158   3.344   4.307
  191SAPI  H20T22060   4.232   3.471   4.207
  191SAPI   C3322061   4.512   4.207   3.085
  191SAPI   H3X22062   4.411   4.169   3.062
  191SAPI   H3Y22063   4.530   4.304   3.034
  191SAPI   C3422064   4.528   4.244   3.237
  191SAPI   H4X22065   4.495   4.350   3.241
  191SAPI   H4Y22066   4.637   4.246   3.259
  191SAPI   C3522067   4.450   4.151   3.335
  191SAPI   H5X22068   4.447   4.044   3.304
  191SAPI   H5Y22069   4.346   4.190   3.323
  191SAPI   C3622070   4.505   4.168   3.477
  191SAPI   H6X22071   4.470   4.265   3.517
  191SAPI   H6Y22072   4.615   4.155   3.476
  191SAPI   C3722073   4.439   4.065   3.570
  191SAPI   H7X22074   4.481   3.963   3.553
  191SAPI   H7Y22075   4.331   4.070   3.544
  191SAPI   C3822076   4.446   4.110   3.716
  191SAPI   H8X22077   4.382   4.200   3.726
  191SAPI   H8Y22078   4.555   4.129   3.732
  191SAPI   C3922079   4.390   4.004   3.811
  191SAPI   H9X22080   4.289   3.973   3.778
  191SAPI   H9Y22081   4.370   4.058   3.906
  191SAPI  C31022082   4.478   3.879   3.829
  191SAPI  H10X22083   4.499   3.832   3.730
  191SAPI  H10Y22084   4.422   3.802   3.886
  191SAPI  C31122085   4.599   3.911   3.914
  191SAPI  H11X22086   4.576   3.954   4.014
  191SAPI  H11Y22087   4.653   3.992   3.860
  191SAPI  C31222088   4.680   3.781   3.923
  191SAPI  H12X22089   4.790   3.795   3.914
  191SAPI  H12Y22090   4.656   3.721   3.833
  191SAPI  C31322091   4.658   3.708   4.050
  191SAPI  H13X22092   4.558   3.662   4.036
  191SAPI  H13Y22093   4.668   3.761   4.147
  191SAPI  C31422094   4.767   3.589   4.068
  191SAPI  H14X22095   4.866   3.638   4.076
  191SAPI  H14Y22096   4.765   3.530   3.974
  191SAPI  C31522097   4.749   3.491   4.183
  191SAPI  H15X22098   4.804   3.395   4.166
  191SAPI  H15Y22099   4.639   3.489   4.176
  191SAPI  C31622100   4.793   3.546   4.320
  191SAPI  H16X22101   4.753   3.649   4.325
  191SAPI  H16Y22102   4.903   3.535   4.329
  191SAPI  C31722103   4.713   3.473   4.432
  191SAPI  H17X22104   4.719   3.362   4.431
  191SAPI  H17Y22105   4.609   3.496   4.400
  191SAPI  C31822106   4.734   3.512   4.583
  191SAPI  H18X22107   4.718   3.621   4.588
  191SAPI  H18Y22108   4.837   3.478   4.606
  191SAPI  H18Z22109   4.666   3.454   4.649
  192SAPI   C1222110   6.788   0.076   2.218
  192SAPI    H222111   6.802   6.853   2.216
  192SAPI    O222112   6.786   0.120   2.086
  192SAPI   HO222113   6.822   0.049   2.031
  192SAPI   C1322114   6.666   0.093   2.300
  192SAPI    H322115   6.679   0.055   2.404
  192SAPI    O322116   6.556   0.010   2.246
  192SAPI   HO322117   6.525   0.057   2.168
  192SAPI   C1422118   6.636   0.244   2.318
  192SAPI    H422119   6.592   0.265   2.219
  192SAPI    O422120   6.527   0.266   2.406
  192SAPI   HO422121   6.447   0.229   2.367
  192SAPI   C1522122   6.763   0.333   2.346
  192SAPI    H522123   6.756   0.330   2.456
  192SAPI    O522124   6.731   0.466   2.314
  192SAPI   HO522125   6.706   0.495   2.402
  192SAPI   C1622126   0.020   0.286   2.315
  192SAPI    H622127   0.045   0.324   2.214
  192SAPI    O622128   0.111   0.333   2.412
  192SAPI   HO622129   0.119   0.272   2.486
  192SAPI   C1122130   0.023   0.133   2.299
  192SAPI    H122131   0.017   0.090   2.401
  192SAPI     P22132   0.224   6.837   2.258
  192SAPI   O1322133   0.346   6.840   2.178
  192SAPI   O1422134   0.138   6.716   2.231
  192SAPI   O1222135   0.141   0.089   2.234
  192SAPI   O1122136   0.269   6.850   2.408
  192SAPI    C122137   0.359   6.749   2.469
  192SAPI    HA22138   0.426   6.704   2.393
  192SAPI    HB22139   0.417   6.794   2.553
  192SAPI    C222140   0.277   6.633   2.528
  192SAPI    HS22141   0.219   6.591   2.442
  192SAPI   O2122142   0.177   6.684   2.618
  192SAPI   C2122143   0.083   6.601   2.651
  192SAPI   O2222144   0.067   6.487   2.603
  192SAPI   C2222145   6.874   6.661   2.748
  192SAPI   H2R22146   6.824   6.738   2.685
  192SAPI   H2S22147   6.799   6.585   2.780
  192SAPI    C322148   0.373   6.530   2.591
  192SAPI    HX22149   0.424   6.485   2.503
  192SAPI    HY22150   0.315   6.449   2.640
  192SAPI   O3122151   0.472   6.589   2.669
  192SAPI   C3122152   0.433   6.615   2.797
  192SAPI   O3222153   0.327   6.582   2.844
  192SAPI   C3222154   0.546   6.688   2.870
  192SAPI   H2X22155   0.632   6.618   2.866
  192SAPI   H2Y22156   0.516   6.685   2.977
  192SAPI   C2322157   0.048   6.707   2.884
  192SAPI   H3R22158   0.133   6.773   2.858
  192SAPI   H3S22159   0.095   6.612   2.920
  192SAPI   C2422160   6.836   6.762   2.989
  192SAPI   H4R22161   6.773   6.675   3.016
  192SAPI   H4S22162   6.762   6.832   2.943
  192SAPI   C2522163   0.003   6.833   3.111
  192SAPI   H5R22164   6.877   0.055   3.113
  192SAPI   C2622165   0.081   6.778   3.213
  192SAPI   H6R22166   0.098   6.842   3.301
  192SAPI   C2722167   0.127   6.636   3.213
  192SAPI   H7R22168   0.070   6.580   3.136
  192SAPI   H7S22169   0.117   6.578   3.307
  192SAPI   C2822170   0.273   6.640   3.171
  192SAPI   H8R22171   0.277   6.654   3.063
  192SAPI   C2922172   0.383   6.616   3.247
  192SAPI   H9R22173   0.486   6.631   3.213
  192SAPI  C21022174   0.384   6.584   3.393
  192SAPI  H10R22175   0.490   6.567   3.421
  192SAPI  H10S22176   0.335   6.487   3.413
  192SAPI  C21122177   0.331   6.688   3.489
  192SAPI  H11R22178   0.273   6.773   3.448
  192SAPI  C21222179   0.356   6.671   3.623
  192SAPI  H12R22180   0.315   6.746   3.693
  192SAPI  C21322181   0.427   6.556   3.696
  192SAPI  H13R22182   0.490   6.489   3.634
  192SAPI  H13S22183   0.353   6.488   3.743
  192SAPI  C21422184   0.512   6.622   3.803
  192SAPI  H14R22185   0.609   6.652   3.762
  192SAPI  C21522186   0.478   6.645   3.933
  192SAPI  H15R22187   0.552   6.686   4.003
  192SAPI  C21622188   0.356   6.593   4.010
  192SAPI  H16R22189   0.279   6.549   3.943
  192SAPI  H16S22190   0.302   6.676   4.061
  192SAPI  C21722191   0.397   6.491   4.121
  192SAPI  H17R22192   0.466   6.410   4.090
  192SAPI  H17S22193   0.303   6.452   4.167
  192SAPI  C21822194   0.457   6.558   4.243
  192SAPI  H18R22195   0.388   6.637   4.279
  192SAPI  H18S22196   0.555   6.601   4.216
  192SAPI  C21922197   0.473   6.458   4.362
  192SAPI  H19R22198   0.530   6.371   4.324
  192SAPI  H19S22199   0.374   6.415   4.389
  192SAPI  C22022200   0.530   6.527   4.484
  192SAPI  H20R22201   0.506   6.634   4.471
  192SAPI  H20S22202   0.637   6.505   4.506
  192SAPI  H20T22203   0.477   6.504   4.579
  192SAPI   C3322204   0.569   6.824   2.797
  192SAPI   H3X22205   0.594   6.808   2.690
  192SAPI   H3Y22206   0.660   6.863   2.848
  192SAPI   C3422207   0.444   0.030   2.804
  192SAPI   H4X22208   0.361   6.865   2.753
  192SAPI   H4Y22209   0.480   0.123   2.755
  192SAPI   C3522210   0.407   0.071   2.948
  192SAPI   H5X22211   0.501   0.080   3.007
  192SAPI   H5Y22212   0.356   6.881   3.010
  192SAPI   C3622213   0.329   0.204   2.944
  192SAPI   H6X22214   0.224   0.183   2.914
  192SAPI   H6Y22215   0.374   0.268   2.866
  192SAPI   C3722216   0.336   0.280   3.074
  192SAPI   H7X22217   0.330   0.387   3.045
  192SAPI   H7Y22218   0.433   0.265   3.126
  192SAPI   C3822219   0.218   0.239   3.168
  192SAPI   H8X22220   0.216   0.128   3.170
  192SAPI   H8Y22221   0.133   0.281   3.110
  192SAPI   C3922222   0.227   0.299   3.305
  192SAPI   H9X22223   0.130   0.310   3.356
  192SAPI   H9Y22224   0.264   0.403   3.297
  192SAPI  C31022225   0.332   0.229   3.393
  192SAPI  H10X22226   0.434   0.241   3.351
  192SAPI  H10Y22227   0.307   0.120   3.388
  192SAPI  C31122228   0.323   0.275   3.544
  192SAPI  H11X22229   0.221   0.256   3.583
  192SAPI  H11Y22230   0.346   0.384   3.551
  192SAPI  C31222231   0.431   0.196   3.623
  192SAPI  H12X22232   0.507   0.182   3.543
  192SAPI  H12Y22233   0.393   0.097   3.658
  192SAPI  C31322234   0.491   0.287   3.731
  192SAPI  H13X22235   0.417   0.358   3.771
  192SAPI  H13Y22236   0.569   0.346   3.678
  192SAPI  C31422237   0.573   0.217   3.834
  192SAPI  H14X22238   0.652   0.157   3.786
  192SAPI  H14Y22239   0.506   0.139   3.876
  192SAPI  C31522240   0.643   0.313   3.933
  192SAPI  H15X22241   0.557   0.358   3.989
  192SAPI  H15Y22242   0.702   0.384   3.871
  192SAPI  C31622243   0.737   0.244   4.038
  192SAPI  H16X22244   0.827   0.209   3.984
  192SAPI  H16Y22245   0.688   0.163   4.097
  192SAPI  C31722246   0.797   0.334   4.150
  192SAPI  H17X22247   0.720   0.403   4.193
  192SAPI  H17Y22248   0.868   0.401   4.097
  192SAPI  C31822249   0.867   0.261   4.261
  192SAPI  H18X22250   0.803   0.217   4.341
  192SAPI  H18Y22251   0.932   0.325   4.324
  192SAPI  H18Z22252   0.920   0.179   4.209
  193SOD    SOD22253   4.265   6.782   1.001
  194SOD    SOD22254   1.183   0.269   0.381
  195SOD    SOD22255   2.420   2.047   6.669
  196SOD    SOD22256   2.139   4.441   7.959
  197SOD    SOD22257   3.857   2.692   1.882
  198SOD    SOD22258   1.289   5.469   2.039
  199SOD    SOD22259   2.851   4.012   1.883
  200SOD    SOD22260   0.945   3.090   7.297
  201SOD    SOD22261   4.162   4.361   0.336
  202SOD    SOD22262   4.199   3.666   8.068
  203SOD    SOD22263   5.466   5.932   7.802
  204SOD    SOD22264   3.182   6.446   7.913
  205SOD    SOD22265   4.511   6.118   7.437
  206SOD    SOD22266   4.301   5.867   0.509
  207SOD    SOD22267   4.148   0.117   6.378
  208SOD    SOD22268   4.451   0.992   2.470
  209SOD    SOD22269   0.383   2.164   0.945
  210SOD    SOD22270   6.606   4.207   1.380
  211SOD    SOD22271   3.891   0.394   0.160
  212SOD    SOD22272   5.133   4.717   1.978
  213SOD    SOD22273   0.216   1.566   0.408
  214SOD    SOD22274   1.002   6.237   0.074
  215SOD    SOD22275   6.572   0.163   7.420
  216SOD    SOD22276   1.464   5.636   6.970
  217SOD    SOD22277   2.973   6.221   1.115
  218SOD    SOD22278   2.291   1.580   1.258
  219SOD    SOD22279   0.155   6.353   6.862
  220SOD    SOD22280   4.864   1.305   6.428
  221SOD    SOD22281   1.272   0.588   6.879
  222SOD    SOD22282   1.690   1.434   1.493
  223SOD    SOD22283   4.859   4.034   1.576
  224SOD    SOD22284   2.273   0.030   2.460
  225SOD    SOD22285   3.826   3.940   6.667
  226SOD    SOD22286   4.490   3.491   0.955
  227SOD    SOD22287   1.228   2.964   0.926
  228SOD    SOD22288   1.137   2.567   7.318
  229SOD    SOD22289   5.450   6.817   1.702
  230SOD    SOD22290   4.950   3.888   7.323
  231SOD    SOD22291   5.969   4.371   6.712
  232SOD    SOD22292   1.256   6.395   7.770
  233SOD    SOD22293   2.105   1.397   7.817
  234CLA    CLA22294   6.313   3.835   0.236
  235CLA    CLA22295   2.704   3.676   8.580
  236CLA    CLA22296   2.962   6.838   6.874
  237CLA    CLA22297   1.291   0.230   7.402
  238CLA    CLA22298   1.190   6.848   7.950
  239CLA    CLA22299   0.128   1.509   0.171
  240CLA    CLA22300   4.644   1.104   1.147
  241CLA    CLA22301   5.865   1.072   1.366
  242CLA    CLA22302   4.629   3.706   7.847
  243CLA    CLA22303   0.784   3.827   1.098
  244CLA    CLA22304   1.342   4.540   1.049
  245CLA    CLA22305   0.812   0.840   1.302
  246CLA    CLA22306   4.099   4.829   0.055
  247CLA    CLA22307   1.466   0.003   8.315
  248CLA    CLA22308   3.865   6.421   1.038
  249CLA    CLA22309   2.029   2.123   7.721
  250CLA    CLA22310   0.907   6.034   7.802
  251TIP3   OH222311   0.515   2.212   0.763
  251TIP3    H122312   0.607   2.239   0.766
  251TIP3    H222313   0.476   2.268   0.696
  252TIP3   OH222314   4.662   1.273   1.411
  252TIP3    H122315   4.591   1.223   1.452
  252TIP3    H222316   4.649   1.259   1.317
  253TIP3   OH222317   3.444   6.721   7.172
  253TIP3    H122318   3.407   6.809   7.167
  253TIP3    H222319   3.399   6.671   7.104
  254TIP3   OH222320   2.950   6.826   8.204
  254TIP3    H122321   3.032   6.835   8.155
  254TIP3    H222322   2.966   6.876   8.284
  255TIP3   OH222323   4.267   0.757   8.298
  255TIP3    H122324   4.270   0.703   8.377
  255TIP3    H222325   4.302   0.701   8.229
  256TIP3   OH222326   5.021   5.545   7.891
  256TIP3    H122327   5.003   5.453   7.913
  256TIP3    H222328   4.985   5.555   7.803
  257TIP3   OH222329   4.287   6.831   0.349
  257TIP3    H122330   4.288   6.780   0.268
  257TIP3    H222331   4.247   6.774   0.414
  258TIP3   OH222332   4.192   5.649   0.385
  258TIP3    H122333   4.268   5.621   0.335
  258TIP3    H222334   4.124   5.662   0.320
  259TIP3   OH222335   0.984   2.692   0.081
  259TIP3    H122336   1.027   2.775   0.101
  259TIP3    H222337   0.891   2.708   0.100
  260TIP3   OH222338   5.497   4.011   1.338
  260TIP3    H122339   5.426   4.039   1.281
  260TIP3    H222340   5.473   4.045   1.424
  261TIP3   OH222341   0.382   2.517   2.326
  261TIP3    H122342   0.454   2.542   2.384
  261TIP3    H222343   0.379   2.586   2.260
  262TIP3   OH222344   5.508   1.242   8.549
  262TIP3    H122345   5.583   1.189   8.576
  262TIP3    H222346   5.544   1.302   8.483
  263TIP3   OH222347   4.711   6.089   7.527
  263TIP3    H122348   4.764   6.169   7.528
  263TIP3    H222349   4.775   6.018   7.531
  264TIP3   OH222350   4.606   4.382   1.563
  264TIP3    H122351   4.593   4.473   1.588
  264TIP3    H222352   4.535   4.364   1.501
  265TIP3   OH222353   0.078   6.191   7.486
  265TIP3    H122354   0.118   6.157   7.406
  265TIP3    H222355   0.042   6.114   7.530
  266TIP3   OH222356   1.880   1.032   7.002
  266TIP3    H122357   1.842   0.999   7.084
  266TIP3    H222358   1.868   1.127   7.008
  267TIP3   OH222359   1.048   0.053   0.737
  267TIP3    H122360   0.954   0.052   0.719
  267TIP3    H222361   1.055   0.038   0.831
  268TIP3   OH222362   1.109   6.702   7.053
  268TIP3    H122363   1.120   6.631   6.991
  268TIP3    H222364   1.196   6.741   7.061
  269TIP3   OH222365   1.728   1.677   0.964
  269TIP3    H122366   1.657   1.731   0.927
  269TIP3    H222367   1.740   1.608   0.900
  270TIP3   OH222368   3.472   1.854   7.498
  270TIP3    H122369   3.394   1.798   7.503
  270TIP3    H222370   3.459   1.917   7.569
  271TIP3   OH222371   3.720   2.847   2.010
  271TIP3    H122372   3.674   2.804   2.081
  271TIP3    H222373   3.710   2.940   2.026
  272TIP3   OH222374   5.916   1.802   8.062
  272TIP3    H122375   5.950   1.886   8.093
  272TIP3    H222376   5.835   1.789   8.111
  273TIP3   OH222377   6.532   4.297   6.591
  273TIP3    H122378   6.572   4.313   6.505
  273TIP3    H222379   6.477   4.374   6.606
  274TIP3   OH222380   0.140   2.067   0.148
  274TIP3    H122381   0.171   2.104   0.066
  274TIP3    H222382   0.192   1.987   0.160
  275TIP3   OH222383   6.756   2.263   8.533
  275TIP3    H122384   6.701   2.340   8.523
  275TIP3    H222385   6.775   2.234   8.444
  276TIP3   OH222386   6.181   3.853   1.724
  276TIP3    H122387   6.196   3.875   1.816
  276TIP3    H222388   6.267   3.860   1.683
  277TIP3   OH222389   5.914   4.696   2.216
  277TIP3    H122390   5.928   4.608   2.253
  277TIP3    H222391   5.826   4.693   2.180
  278TIP3   OH222392   1.109   0.756   2.285
  278TIP3    H122393   1.090   0.849   2.281
  278TIP3    H222394   1.116   0.728   2.194
  279TIP3   OH222395   0.921   6.183   8.276
  279TIP3    H122396   0.830   6.157   8.293
  279TIP3    H222397   0.915   6.241   8.199
  280TIP3   OH222398   5.091   4.302   1.143
  280TIP3    H122399   5.066   4.323   1.233
  280TIP3    H222400   5.117   4.385   1.104
  281TIP3   OH222401   4.264   4.833   8.397
  281TIP3    H122402   4.286   4.742   8.376
  281TIP3    H222403   4.207   4.827   8.473
  282TIP3   OH222404   3.283   3.410   6.466
  282TIP3    H122405   3.271   3.328   6.514
  282TIP3    H222406   3.248   3.392   6.379
  283TIP3   OH222407   2.825   2.082   7.288
  283TIP3    H122408   2.896   2.123   7.337
  283TIP3    H222409   2.868   2.018   7.232
  284TIP3   OH222410   6.065   6.551   8.334
  284TIP3    H122411   6.040   6.635   8.371
  284TIP3    H222412   5.998   6.490   8.366
  285TIP3   OH222413   6.841   5.958   0.581
  285TIP3    H122414   6.808   6.029   0.525
  285TIP3    H222415   0.048   5.975   0.589
  286TIP3   OH222416   5.603   4.113   1.757
  286TIP3    H122417   5.614   4.200   1.796
  286TIP3    H222418   5.652   4.055   1.815
  287TIP3   OH222419   5.838   3.590   6.875
  287TIP3    H122420   5.796   3.675   6.870
  287TIP3    H222421   5.802   3.540   6.802
  288TIP3   OH222422   2.878   6.784   1.105
  288TIP3    H122423   2.838   6.836   1.175
  288TIP3    H222424   2.905   6.848   1.039
  289TIP3   OH222425   3.371   5.755   1.068
  289TIP3    H122426   3.435   5.768   0.998
  289TIP3    H222427   3.339   5.843   1.088
  290TIP3   OH222428   5.335   4.292   7.302
  290TIP3    H122429   5.381   4.257   7.226
  290TIP3    H222430   5.400   4.346   7.347
  291TIP3   OH222431   5.889   2.773   1.579
  291TIP3    H122432   5.827   2.845   1.593
  291TIP3    H222433   5.963   2.794   1.636
  292TIP3   OH222434   1.289   3.930   7.325
  292TIP3    H122435   1.307   3.914   7.232
  292TIP3    H222436   1.307   4.023   7.338
  293TIP3   OH222437   5.550   5.659   8.539
  293TIP3    H122438   5.567   5.569   8.567
  293TIP3    H222439   5.465   5.655   8.496
  294TIP3   OH222440   6.153   0.367   1.066
  294TIP3    H122441   6.217   0.438   1.056
  294TIP3    H222442   6.206   0.291   1.091
  295TIP3   OH222443   1.685   0.103   7.088
  295TIP3    H122444   1.681   0.017   7.045
  295TIP3    H222445   1.715   0.163   7.020
  296TIP3   OH222446   1.909   0.108   6.589
  296TIP3    H122447   1.972   0.039   6.611
  296TIP3    H222448   1.826   0.062   6.579
  297TIP3   OH222449   6.772   3.676   7.557
  297TIP3    H122450   6.710   3.610   7.586
  297TIP3    H222451   6.834   3.628   7.502
  298TIP3   OH222452   2.874   0.853   7.498
  298TIP3    H122453   2.967   0.832   7.485
  298TIP3    H222454   2.828   0.775   7.467
  299TIP3   OH222455   4.871   2.178   7.364
  299TIP3    H122456   4.845   2.181   7.456
  299TIP3    H222457   4.798   2.134   7.320
  300TIP3   OH222458   3.200   4.864   0.843
  300TIP3    H122459   3.219   4.929   0.775
  300TIP3    H222460   3.116   4.827   0.818
  301TIP3   OH222461   0.640   1.847   6.824
  301TIP3    H122462   0.602   1.763   6.800
  301TIP3    H222463   0.699   1.827   6.897
  302TIP3   OH222464   5.656   3.607   7.618
  302TIP3    H122465   5.694   3.658   7.546
  302TIP3    H222466   5.573   3.575   7.584
  303TIP3   OH222467   2.010   2.870   7.147
  303TIP3    H122468   1.976   2.883   7.235
  303TIP3    H222469   1.959   2.930   7.092
  304TIP3   OH222470   4.777   0.878   0.464
  304TIP3    H122471   4.732   0.836   0.538
  304TIP3    H222472   4.709   0.930   0.421
  305TIP3   OH222473   6.203   5.500   2.272
  305TIP3    H122474   6.143   5.549   2.217
  305TIP3    H222475   6.256   5.566   2.316
  306TIP3   OH222476   3.761   3.383   7.882
  306TIP3    H122477   3.760   3.297   7.841
  306TIP3    H222478   3.799   3.368   7.968
  307TIP3   OH222479   2.278   0.965   7.699
  307TIP3    H122480   2.360   0.965   7.649
  307TIP3    H222481   2.236   0.882   7.677
  308TIP3   OH222482   3.972   5.606   1.786
  308TIP3    H122483   4.018   5.525   1.808
  308TIP3    H222484   3.922   5.628   1.866
  309TIP3   OH222485   0.149   3.881   1.632
  309TIP3    H122486   0.065   3.914   1.665
  309TIP3    H222487   0.125   3.830   1.554
  310TIP3   OH222488   4.461   5.830   7.035
  310TIP3    H122489   4.382   5.851   6.986
  310TIP3    H222490   4.489   5.745   7.002
  311TIP3   OH222491   4.518   3.703   2.369
  311TIP3    H122492   4.601   3.655   2.369
  311TIP3    H222493   4.519   3.754   2.450
  312TIP3   OH222494   1.822   0.208   6.878
  312TIP3    H122495   1.754   0.201   6.810
  312TIP3    H222496   1.891   0.259   6.837
  313TIP3   OH222497   4.428   2.535   0.951
  313TIP3    H122498   4.336   2.510   0.948
  313TIP3    H222499   4.475   2.460   0.912
  314TIP3   OH222500   6.044   3.542   1.231
  314TIP3    H122501   6.053   3.466   1.174
  314TIP3    H222502   6.027   3.615   1.172
  315TIP3   OH222503   3.412   4.126   7.436
  315TIP3    H122504   3.423   4.213   7.476
  315TIP3    H222505   3.318   4.118   7.421
  316TIP3   OH222506   3.377   0.606   1.013
  316TIP3    H122507   3.397   0.680   0.955
  316TIP3    H222508   3.282   0.593   1.002
  317TIP3   OH222509   4.079   1.625   7.764
  317TIP3    H122510   4.144   1.574   7.812
  317TIP3    H222511   3.999   1.572   7.767
  318TIP3   OH222512   1.673   4.519   8.536
  318TIP3    H122513   1.666   4.447   8.473
  318TIP3    H222514   1.745   4.573   8.503
  319TIP3   OH222515   6.658   5.575   8.597
  319TIP3    H122516   6.601   5.629   0.037
  319TIP3    H222517   6.655   5.488   0.024
  320TIP3   OH222518   6.487   0.097   0.476
  320TIP3    H122519   6.536   0.130   0.400
  320TIP3    H222520   6.403   0.070   0.440
  321TIP3   OH222521   6.041   4.006   8.493
  321TIP3    H122522   6.067   4.095   8.515
  321TIP3    H222523   6.040   3.959   8.577
  322TIP3   OH222524   1.731   0.956   8.410
  322TIP3    H122525   1.783   1.024   8.367
  322TIP3    H222526   1.720   0.889   8.344
  323TIP3   OH222527   1.167   3.876   0.921
  323TIP3    H122528   1.116   3.937   0.974
  323TIP3    H222529   1.258   3.890   0.950
  324TIP3   OH222530   0.718   2.379   0.000
  324TIP3    H122531   0.805   2.347   0.022
  324TIP3    H222532   0.680   2.403   0.085
  325TIP3   OH222533   2.797   5.044   1.494
  325TIP3    H122534   2.712   5.075   1.466
  325TIP3    H222535   2.815   5.092   1.575
  326TIP3   OH222536   0.123   1.615   8.069
  326TIP3    H122537   0.202   1.560   8.066
  326TIP3    H222538   0.153   1.698   8.106
  327TIP3   OH222539   1.249   4.762   7.849
  327TIP3    H122540   1.287   4.689   7.897
  327TIP3    H222541   1.183   4.798   7.909
  328TIP3   OH222542   1.609   1.875   7.738
  328TIP3    H122543   1.567   1.934   7.675
  328TIP3    H222544   1.667   1.820   7.684
  329TIP3   OH222545   5.577   1.788   0.608
  329TIP3    H122546   5.567   1.736   0.529
  329TIP3    H222547   5.509   1.756   0.667
  330TIP3   OH222548   4.185   2.553   7.608
  330TIP3    H122549   4.181   2.461   7.634
  330TIP3    H222550   4.110   2.565   7.550
  331TIP3   OH222551   2.190   0.773   0.891
  331TIP3    H122552   2.155   0.686   0.873
  331TIP3    H222553   2.266   0.757   0.947
  332TIP3   OH222554   4.737   6.015   7.842
  332TIP3    H122555   4.777   5.990   7.758
  332TIP3    H222556   4.648   6.042   7.819
  333TIP3   OH222557   1.880   3.771   0.283
  333TIP3    H122558   1.959   3.744   0.328
  333TIP3    H222559   1.839   3.689   0.254
  334TIP3   OH222560   3.893   4.469   1.330
  334TIP3    H122561   3.876   4.443   1.239
  334TIP3    H222562   3.812   4.451   1.376
  335TIP3   OH222563   2.027   1.837   7.567
  335TIP3    H122564   2.042   1.918   7.614
  335TIP3    H222565   2.046   1.768   7.630
  336TIP3   OH222566   3.250   1.773   8.438
  336TIP3    H122567   3.181   1.806   8.381
  336TIP3    H222568   3.235   1.679   8.443
  337TIP3   OH222569   3.939   2.523   1.736
  337TIP3    H122570   3.944   2.434   1.770
  337TIP3    H222571   4.028   2.543   1.708
  338TIP3   OH222572   1.620   6.006   7.703
  338TIP3    H122573   1.534   6.019   7.742
  338TIP3    H222574   1.626   6.072   7.634
  339TIP3   OH222575   5.003   2.918   8.458
  339TIP3    H122576   4.957   2.960   8.385
  339TIP3    H222577   5.062   2.855   8.416
  340TIP3   OH222578   3.428   5.816   0.406
  340TIP3    H122579   3.441   5.807   0.312
  340TIP3    H222580   3.442   5.727   0.441
  341TIP3   OH222581   5.241   3.583   1.927
  341TIP3    H122582   5.332   3.604   1.949
  341TIP3    H222583   5.215   3.520   1.994
  342TIP3   OH222584   6.652   2.390   2.159
  342TIP3    H122585   6.708   2.316   2.181
  342TIP3    H222586   6.563   2.355   2.161
  343TIP3   OH222587   6.045   5.191   8.096
  343TIP3    H122588   6.021   5.280   8.123
  343TIP3    H222589   5.993   5.175   8.017
  344TIP3   OH222590   5.684   2.530   7.338
  344TIP3    H122591   5.666   2.573   7.254
  344TIP3    H222592   5.601   2.534   7.385
  345TIP3   OH222593   6.781   0.269   1.812
  345TIP3    H122594   6.716   0.293   1.746
  345TIP3    H222595   6.737   0.282   1.896
  346TIP3   OH222596   4.329   4.540   6.635
  346TIP3    H122597   4.417   4.540   6.671
  346TIP3    H222598   4.338   4.579   6.548
  347TIP3   OH222599   4.168   3.672   8.301
  347TIP3    H122600   4.128   3.598   8.348
  347TIP3    H222601   4.230   3.710   8.363
  348TIP3   OH222602   0.904   3.641   0.469
  348TIP3    H122603   0.940   3.730   0.476
  348TIP3    H222604   0.905   3.622   0.376
  349TIP3   OH222605   5.060   6.462   7.185
  349TIP3    H122606   4.989   6.451   7.248
  349TIP3    H222607   5.035   6.406   7.111
  350TIP3   OH222608   2.496   6.736   0.106
  350TIP3    H122609   2.422   6.679   0.084
  350TIP3    H222610   2.484   6.755   0.199
  351TIP3   OH222611   6.479   2.349   8.146
  351TIP3    H122612   6.421   2.375   8.217
  351TIP3    H222613   6.471   2.419   8.082
  352TIP3   OH222614   1.258   1.319   7.410
  352TIP3    H122615   1.282   1.344   7.499
  352TIP3    H222616   1.331   1.349   7.356
  353TIP3   OH222617   5.810   2.969   1.304
  353TIP3    H122618   5.747   2.899   1.325
  353TIP3    H222619   5.892   2.923   1.288
  354TIP3   OH222620   0.058   4.030   6.907
  354TIP3    H122621   0.005   4.039   6.829
  354TIP3    H222622   0.033   4.105   6.962
  355TIP3   OH222623   2.804   4.787   7.974
  355TIP3    H122624   2.871   4.849   8.005
  355TIP3    H222625   2.815   4.711   8.030
  356TIP3   OH222626   4.347   2.808   1.152
  356TIP3    H122627   4.294   2.807   1.232
  356TIP3    H222628   4.304   2.746   1.093
  357TIP3   OH222629   2.777   3.166   0.723
  357TIP3    H122630   2.862   3.210   0.727
  357TIP3    H222631   2.798   3.076   0.699
  358TIP3   OH222632   2.402   5.026   0.088
  358TIP3    H122633   2.360   4.957   0.139
  358TIP3    H222634   2.433   4.982   0.009
  359TIP3   OH222635   3.347   6.646   1.388
  359TIP3    H122636   3.389   6.600   1.315
  359TIP3    H222637   3.374   6.597   1.466
  360TIP3   OH222638   1.116   2.198   7.090
  360TIP3    H122639   1.195   2.144   7.085
  360TIP3    H222640   1.083   2.183   7.179
  361TIP3   OH222641   3.385   6.471   8.450
  361TIP3    H122642   3.452   6.416   8.410
  361TIP3    H222643   3.370   6.431   8.536
  362TIP3   OH222644   2.223   6.084   1.264
  362TIP3    H122645   2.279   6.008   1.244
  362TIP3    H222646   2.224   6.090   1.359
  363TIP3   OH222647   0.449   6.822   0.876
  363TIP3    H122648   0.538   6.799   0.902
  363TIP3    H222649   0.438   6.783   0.789
  364TIP3   OH222650   2.578   1.559   0.541
  364TIP3    H122651   2.636   1.503   0.489
  364TIP3    H222652   2.629   1.582   0.618
  365TIP3   OH222653   0.459   4.320   0.477
  365TIP3    H122654   0.543   4.274   0.476
  365TIP3    H222655   0.459   4.368   0.559
  366TIP3   OH222656   0.719   3.026   6.886
  366TIP3    H122657   0.748   3.095   6.826
  366TIP3    H222658   0.751   2.945   6.846
  367TIP3   OH222659   0.255   4.336   6.991
  367TIP3    H122660   0.335   4.382   6.964
  367TIP3    H222661   0.205   4.402   7.040
  368TIP3   OH222662   3.135   5.963   7.241
  368TIP3    H122663   3.224   5.929   7.253
  368TIP3    H222664   3.093   5.901   7.181
  369TIP3   OH222665   2.700   4.332   8.559
  369TIP3    H122666   2.640   4.257   8.558
  369TIP3    H222667   2.713   4.351   0.038
  370TIP3   OH222668   5.178   4.572   7.092
  370TIP3    H122669   5.270   4.565   7.115
  370TIP3    H222670   5.177   4.628   7.014
  371TIP3   OH222671   0.730   3.582   7.928
  371TIP3    H122672   0.642   3.582   7.965
  371TIP3    H222673   0.766   3.668   7.951
  372TIP3   OH222674   4.892   1.395   1.461
  372TIP3    H122675   4.807   1.352   1.460
  372TIP3    H222676   4.950   1.331   1.503
  373TIP3   OH222677   5.221   0.896   7.850
  373TIP3    H122678   5.181   0.846   7.922
  373TIP3    H222679   5.212   0.839   7.774
  374TIP3   OH222680   1.067   6.315   1.552
  374TIP3    H122681   1.147   6.356   1.518
  374TIP3    H222682   1.017   6.388   1.588
  375TIP3   OH222683   2.555   2.528   8.052
  375TIP3    H122684   2.498   2.451   8.047
  375TIP3    H222685   2.533   2.569   8.136
  376TIP3   OH222686   6.164   2.176   1.083
  376TIP3    H122687   6.224   2.251   1.083
  376TIP3    H222688   6.077   2.215   1.095
  377TIP3   OH222689   4.412   6.649   7.510
  377TIP3    H122690   4.385   6.740   7.518
  377TIP3    H222691   4.349   6.610   7.449
  378TIP3   OH222692   3.520   6.005   0.868
  378TIP3    H122693   3.538   5.911   0.873
  378TIP3    H222694   3.601   6.042   0.830
  379TIP3   OH222695   2.125   0.290   1.189
  379TIP3    H122696   2.127   0.302   1.094
  379TIP3    H222697   2.098   0.375   1.224
  380TIP3   OH222698   0.510   3.837   7.848
  380TIP3    H122699   0.527   3.901   7.780
  380TIP3    H222700   0.582   3.849   7.911
  381TIP3   OH222701   0.314   1.853   0.211
  381TIP3    H122702   0.351   1.838   0.124
  381TIP3    H222703   0.390   1.858   0.269
  382TIP3   OH222704   6.465   3.428   1.896
  382TIP3    H122705   6.446   3.384   1.979
  382TIP3    H222706   6.388   3.482   1.879
  383TIP3   OH222707   0.286   1.072   2.346
  383TIP3    H122708   0.222   1.093   2.414
  383TIP3    H222709   0.235   1.072   2.265
  384TIP3   OH222710   5.929   6.051   6.969
  384TIP3    H122711   6.015   6.009   6.967
  384TIP3    H222712   5.889   6.029   6.885
  385TIP3   OH222713   4.963   5.266   7.938
  385TIP3    H122714   4.909   5.212   7.879
  385TIP3    H222715   4.922   5.255   8.024
  386TIP3   OH222716   6.318   0.982   1.568
  386TIP3    H122717   6.227   1.004   1.584
  386TIP3    H222718   6.316   0.892   1.536
  387TIP3   OH222719   0.452   1.922   0.927
  387TIP3    H122720   0.358   1.908   0.911
  387TIP3    H222721   0.467   1.887   1.015
  388TIP3   OH222722   6.184   2.010   0.530
  388TIP3    H122723   6.171   1.961   0.448
  388TIP3    H222724   6.095   2.034   0.557
  389TIP3   OH222725   0.218   2.155   6.760
  389TIP3    H122726   0.281   2.112   6.702
  389TIP3    H222727   0.269   2.174   6.839
  390TIP3   OH222728   5.789   3.721   7.339
  390TIP3    H122729   5.755   3.755   7.256
  390TIP3    H222730   5.884   3.719   7.327
  391TIP3   OH222731   3.522   0.280   7.236
  391TIP3    H122732   3.543   0.367   7.201
  391TIP3    H222733   3.512   0.225   7.158
  392TIP3   OH222734   3.589   3.456   7.188
  392TIP3    H122735   3.543   3.530   7.228
  392TIP3    H222736   3.567   3.460   7.095
  393TIP3   OH222737   1.238   6.037   1.128
  393TIP3    H122738   1.274   6.121   1.098
  393TIP3    H222739   1.147   6.057   1.150
  394TIP3   OH222740   2.335   1.749   7.444
  394TIP3    H122741   2.363   1.758   7.352
  394TIP3    H222742   2.265   1.684   7.441
  395TIP3   OH222743   5.767   1.565   7.409
  395TIP3    H122744   5.724   1.537   7.490
  395TIP3    H222745   5.729   1.510   7.341
  396TIP3   OH222746   4.951   2.537   8.385
  396TIP3    H122747   4.950   2.441   8.392
  396TIP3    H222748   4.928   2.568   8.472
  397TIP3   OH222749   1.620   6.819   7.491
  397TIP3    H122750   1.592   6.734   7.525
  397TIP3    H222751   1.588   6.883   7.555
  398TIP3   OH222752   3.164   5.466   1.540
  398TIP3    H122753   3.119   5.490   1.620
  398TIP3    H222754   3.179   5.549   1.495
  399TIP3   OH222755   0.135   2.479   7.108
  399TIP3    H122756   0.114   2.418   7.037
  399TIP3    H222757   0.162   2.560   7.063
  400TIP3   OH222758   4.736   2.579   0.219
  400TIP3    H122759   4.720   2.577   0.125
  400TIP3    H222760   4.682   2.652   0.251
  401TIP3   OH222761   4.362   1.045   6.933
  401TIP3    H122762   4.449   1.084   6.947
  401TIP3    H222763   4.374   0.986   6.859
  402TIP3   OH222764   0.883   0.584   8.530
  402TIP3    H122765   0.790   0.597   8.508
  402TIP3    H222766   0.896   0.489   8.522
  403TIP3   OH222767   0.298   6.297   1.333
  403TIP3    H122768   0.382   6.262   1.362
  403TIP3    H222769   0.264   6.342   1.410
  404TIP3   OH222770   3.776   2.072   7.819
  404TIP3    H122771   3.842   2.032   7.763
  404TIP3    H222772   3.794   2.166   7.814
  405TIP3   OH222773   1.354   0.571   8.470
  405TIP3    H122774   1.354   0.478   8.449
  405TIP3    H222775   1.353   0.615   8.384
  406TIP3   OH222776   3.295   5.985   7.973
  406TIP3    H122777   3.277   6.066   8.021
  406TIP3    H222778   3.387   5.966   7.991
  407TIP3   OH222779   6.723   5.135   8.433
  407TIP3    H122780   6.798   5.182   8.469
  407TIP3    H222781   6.648   5.194   8.447
  408TIP3   OH222782   1.223   4.504   1.995
  408TIP3    H122783   1.226   4.442   2.069
  408TIP3    H222784   1.305   4.489   1.948
  409TIP3   OH222785   5.884   1.681   0.543
  409TIP3    H122786   5.943   1.637   0.604
  409TIP3    H222787   5.796   1.661   0.575
  410TIP3   OH222788   6.093   3.063   0.817
  410TIP3    H122789   6.126   3.146   0.783
  410TIP3    H222790   6.164   3.000   0.799
  411TIP3   OH222791   5.430   2.063   6.558
  411TIP3    H122792   5.442   2.057   6.464
  411TIP3    H222793   5.519   2.058   6.594
  412TIP3   OH222794   4.792   6.280   2.184
  412TIP3    H122795   4.813   6.207   2.242
  412TIP3    H222796   4.868   6.285   2.125
  413TIP3   OH222797   5.429   3.907   7.190
  413TIP3    H122798   5.448   3.996   7.163
  413TIP3    H222799   5.505   3.856   7.162
  414TIP3   OH222800   4.039   1.259   2.432
  414TIP3    H122801   3.985   1.297   2.501
  414TIP3    H222802   4.048   1.328   2.366
  415TIP3   OH222803   3.908   5.168   1.619
  415TIP3    H122804   3.912   5.136   1.709
  415TIP3    H222805   3.999   5.189   1.597
  416TIP3   OH222806   2.459   2.102   0.506
  416TIP3    H122807   2.428   2.127   0.418
  416TIP3    H222808   2.479   2.009   0.499
  417TIP3   OH222809   3.803   1.323   0.201
  417TIP3    H122810   3.831   1.391   0.139
  417TIP3    H222811   3.872   1.320   0.266
  418TIP3   OH222812   3.218   5.940   1.749
  418TIP3    H122813   3.200   6.017   1.803
  418TIP3    H222814   3.241   5.872   1.811
  419TIP3   OH222815   4.924   2.960   7.854
  419TIP3    H122816   4.962   3.033   7.901
  419TIP3    H222817   4.916   2.991   7.763
  420TIP3   OH222818   0.715   5.215   2.121
  420TIP3    H122819   0.619   5.223   2.127
  420TIP3    H222820   0.730   5.122   2.100
  421TIP3   OH222821   3.017   2.977   7.161
  421TIP3    H122822   2.973   2.907   7.113
  421TIP3    H222823   2.946   3.038   7.184
  422TIP3   OH222824   6.238   1.393   7.158
  422TIP3    H122825   6.151   1.379   7.120
  422TIP3    H222826   6.221   1.435   7.242
  423TIP3   OH222827   5.138   6.742   6.279
  423TIP3    H122828   5.116   6.819   6.331
  423TIP3    H222829   5.233   6.748   6.267
  424TIP3   OH222830   4.091   1.446   1.060
  424TIP3    H122831   4.144   1.435   0.981
  424TIP3    H222832   4.039   1.525   1.043
  425TIP3   OH222833   5.044   3.165   7.968
  425TIP3    H122834   4.978   3.172   8.038
  425TIP3    H222835   5.113   3.225   7.994
  426TIP3   OH222836   5.109   1.246   7.631
  426TIP3    H122837   5.179   1.183   7.615
  426TIP3    H222838   5.056   1.243   7.551
  427TIP3   OH222839   6.836   3.193   0.524
  427TIP3    H122840   6.814   3.286   0.514
  427TIP3    H222841   0.035   3.193   0.564
  428TIP3   OH222842   3.215   3.718   0.284
  428TIP3    H122843   3.233   3.725   0.378
  428TIP3    H222844   3.240   3.629   0.261
  429TIP3   OH222845   0.475   5.306   7.357
  429TIP3    H122846   0.459   5.265   7.442
  429TIP3    H222847   0.522   5.387   7.378
  430TIP3   OH222848   6.228   1.560   7.706
  430TIP3    H122849   6.191   1.590   7.789
  430TIP3    H222850   6.288   1.489   7.731
  431TIP3   OH222851   5.662   6.297   0.795
  431TIP3    H122852   5.578   6.279   0.838
  431TIP3    H222853   5.649   6.382   0.752
  432TIP3   OH222854   1.180   4.003   7.596
  432TIP3    H122855   1.151   4.082   7.550
  432TIP3    H222856   1.204   3.943   7.526
  433TIP3   OH222857   4.033   5.017   8.260
  433TIP3    H122858   4.086   5.037   8.338
  433TIP3    H222859   4.023   4.922   8.262
  434TIP3   OH222860   3.942   1.085   7.439
  434TIP3    H122861   4.014   1.078   7.501
  434TIP3    H222862   3.910   0.995   7.429
  435TIP3   OH222863   3.159   3.234   7.216
  435TIP3    H122864   3.091   3.251   7.282
  435TIP3    H222865   3.111   3.211   7.137
  436TIP3   OH222866   5.538   0.886   0.990
  436TIP3    H122867   5.452   0.853   0.964
  436TIP3    H222868   5.562   0.948   0.921
  437TIP3   OH222869   0.760   0.584   8.277
  437TIP3    H122870   0.819   0.659   8.278
  437TIP3    H222871   0.786   0.534   8.199
  438TIP3   OH222872   1.506   3.928   7.496
  438TIP3    H122873   1.552   3.997   7.449
  438TIP3    H222874   1.447   3.889   7.431
  439TIP3   OH222875   3.516   1.449   2.058
  439TIP3    H122876   3.604   1.413   2.059
  439TIP3    H222877   3.459   1.373   2.074
  440TIP3   OH222878   2.316   4.955   0.877
  440TIP3    H122879   2.409   4.960   0.896
  440TIP3    H222880   2.284   5.045   0.888
  441TIP3   OH222881   3.140   1.006   0.706
  441TIP3    H122882   3.190   1.038   0.781
  441TIP3    H222883   3.112   0.919   0.731
  442TIP3   OH222884   1.975   4.702   1.914
  442TIP3    H122885   1.941   4.619   1.948
  442TIP3    H222886   2.007   4.748   1.991
  443TIP3   OH222887   3.603   3.128   8.589
  443TIP3    H122888   3.588   3.040   0.009
  443TIP3    H222889   3.558   3.186   0.036
  444TIP3   OH222890   1.087   4.966   7.114
  444TIP3    H122891   1.053   4.886   7.074
  444TIP3    H222892   1.154   4.996   7.053
  445TIP3   OH222893   3.641   3.820   6.728
  445TIP3    H122894   3.666   3.730   6.750
  445TIP3    H222895   3.562   3.811   6.676
  446TIP3   OH222896   5.720   2.912   0.191
  446TIP3    H122897   5.779   2.971   0.143
  446TIP3    H222898   5.778   2.863   0.249
  447TIP3   OH222899   2.889   5.771   0.671
  447TIP3    H122900   2.954   5.749   0.738
  447TIP3    H222901   2.824   5.701   0.676
  448TIP3   OH222902   5.384   1.859   8.499
  448TIP3    H122903   5.416   1.851   8.409
  448TIP3    H222904   5.356   1.950   8.506
  449TIP3   OH222905   4.884   3.382   1.442
  449TIP3    H122906   4.827   3.328   1.386
  449TIP3    H222907   4.867   3.351   1.531
  450TIP3   OH222908   0.666   2.772   7.187
  450TIP3    H122909   0.641   2.809   7.102
  450TIP3    H222910   0.632   2.683   7.184
  451TIP3   OH222911   2.155   0.318   6.501
  451TIP3    H122912   2.241   0.361   6.496
  451TIP3    H222913   2.117   0.352   6.582
  452TIP3   OH222914   5.588   2.500   1.821
  452TIP3    H122915   5.601   2.593   1.840
  452TIP3    H222916   5.508   2.498   1.768
  453TIP3   OH222917   0.682   6.823   7.269
  453TIP3    H122918   0.775   6.834   7.250
  453TIP3    H222919   0.663   0.003   7.335
  454TIP3   OH222920   1.897   4.691   8.410
  454TIP3    H122921   1.857   4.758   8.466
  454TIP3    H222922   1.913   4.735   8.327
  455TIP3   OH222923   4.118   0.313   8.335
  455TIP3    H122924   4.187   0.247   8.330
  455TIP3    H222925   4.073   0.306   8.251
  456TIP3   OH222926   3.069   3.954   1.781
  456TIP3    H122927   3.127   4.015   1.826
  456TIP3    H222928   3.089   3.868   1.819
  457TIP3   OH222929   2.511   1.816   0.506
  457TIP3    H122930   2.511   1.722   0.520
  457TIP3    H222931   2.470   1.828   0.421
  458TIP3   OH222932   2.778   3.398   1.121
  458TIP3    H122933   2.833   3.325   1.093
  458TIP3    H222934   2.829   3.476   1.101
  459TIP3   OH222935   4.043   3.688   0.192
  459TIP3    H122936   4.051   3.637   0.273
  459TIP3    H222937   3.979   3.640   0.140
  460TIP3   OH222938   2.452   5.347   1.224
  460TIP3    H122939   2.374   5.336   1.279
  460TIP3    H222940   2.475   5.439   1.234
  461TIP3   OH222941   0.590   0.312   7.885
  461TIP3    H122942   0.605   0.317   7.979
  461TIP3    H222943   0.510   0.363   7.871
  462TIP3   OH222944   4.259   5.529   7.075
  462TIP3    H122945   4.240   5.611   7.120
  462TIP3    H222946   4.213   5.537   6.991
  463TIP3   OH222947   3.663   5.322   0.630
  463TIP3    H122948   3.665   5.345   0.537
  463TIP3    H222949   3.650   5.227   0.631
  464TIP3   OH222950   4.890   6.148   2.396
  464TIP3    H122951   4.950   6.169   2.468
  464TIP3    H222952   4.926   6.069   2.357
  465TIP3   OH222953   4.823   1.362   7.702
  465TIP3    H122954   4.905   1.330   7.738
  465TIP3    H222955   4.759   1.293   7.722
  466TIP3   OH222956   0.941   1.339   7.068
  466TIP3    H122957   0.851   1.316   7.090
  466TIP3    H222958   0.933   1.401   6.995
  467TIP3   OH222959   4.864   1.871   6.863
  467TIP3    H122960   4.770   1.877   6.878
  467TIP3    H222961   4.872   1.824   6.780
  468TIP3   OH222962   2.673   4.278   7.755
  468TIP3    H122963   2.633   4.278   7.669
  468TIP3    H222964   2.643   4.359   7.796
  469TIP3   OH222965   6.815   4.828   0.890
  469TIP3    H122966   0.004   4.818   0.832
  469TIP3    H222967   6.740   4.809   0.833
  470TIP3   OH222968   5.485   6.754   1.105
  470TIP3    H122969   5.500   6.776   1.197
  470TIP3    H222970   5.389   6.747   1.097
  471TIP3   OH222971   6.123   4.064   1.296
  471TIP3    H122972   6.128   3.980   1.341
  471TIP3    H222973   6.073   4.121   1.355
  472TIP3   OH222974   6.877   3.998   8.485
  472TIP3    H122975   0.031   3.929   8.433
  472TIP3    H222976   6.813   4.038   8.426
  473TIP3   OH222977   2.726   2.958   0.954
  473TIP3    H122978   2.801   3.017   0.960
  473TIP3    H222979   2.722   2.916   1.041
  474TIP3   OH222980   4.579   3.439   7.981
  474TIP3    H122981   4.524   3.485   8.044
  474TIP3    H222982   4.624   3.508   7.932
  475TIP3   OH222983   3.358   2.990   0.410
  475TIP3    H122984   3.297   3.064   0.413
  475TIP3    H222985   3.303   2.913   0.414
  476TIP3   OH222986   1.773   1.241   1.975
  476TIP3    H122987   1.783   1.320   2.027
  476TIP3    H222988   1.679   1.222   1.977
  477TIP3   OH222989   0.897   2.529   7.645
  477TIP3    H122990   0.820   2.474   7.630
  477TIP3    H222991   0.971   2.473   7.620
  478TIP3   OH222992   3.777   5.619   7.983
  478TIP3    H122993   3.846   5.553   7.972
  478TIP3    H222994   3.698   5.578   7.947
  479TIP3   OH222995   0.464   1.805   2.281
  479TIP3    H122996   0.502   1.829   2.197
  479TIP3    H222997   0.463   1.887   2.332
  480TIP3   OH222998   0.181   2.982   7.051
  480TIP3    H122999   0.166   3.036   6.975
  480TIP3    H223000   0.141   3.030   7.124
  481TIP3   OH223001   3.363   2.808   7.881
  481TIP3    H123002   3.313   2.767   7.811
  481TIP3    H223003   3.325   2.774   7.962
  482TIP3   OH223004   2.462   3.151   7.455
  482TIP3    H123005   2.493   3.227   7.405
  482TIP3    H223006   2.410   3.189   7.526
  483TIP3   OH223007   5.194   4.440   0.194
  483TIP3    H123008   5.163   4.357   0.159
  483TIP3    H223009   5.196   4.499   0.119
  484TIP3   OH223010   0.580   5.436   6.378
  484TIP3    H123011   0.553   5.518   6.419
  484TIP3    H223012   0.498   5.392   6.356
  485TIP3   OH223013   0.849   3.324   6.922
  485TIP3    H123014   0.848   3.419   6.916
  485TIP3    H223015   0.791   3.295   6.851
  486TIP3   OH223016   0.540   5.124   8.069
  486TIP3    H123017   0.462   5.127   8.125
  486TIP3    H223018   0.591   5.200   8.094
  487TIP3   OH223019   1.778   5.037   7.396
  487TIP3    H123020   1.750   5.053   7.306
  487TIP3    H223021   1.801   4.944   7.397
  488TIP3   OH223022   4.944   5.175   1.422
  488TIP3    H123023   4.872   5.129   1.378
  488TIP3    H223024   4.972   5.241   1.359
  489TIP3   OH223025   3.990   1.432   0.019
  489TIP3    H123026   4.073   1.385   0.011
  489TIP3    H223027   4.002   1.513   8.584
  490TIP3   OH223028   1.316   5.254   1.931
  490TIP3    H123029   1.287   5.275   1.842
  490TIP3    H223030   1.268   5.174   1.953
  491TIP3   OH223031   4.601   1.903   6.971
  491TIP3    H123032   4.535   1.867   6.911
  491TIP3    H223033   4.571   1.877   7.058
  492TIP3   OH223034   1.369   1.419   7.666
  492TIP3    H123035   1.311   1.479   7.713
  492TIP3    H223036   1.421   1.377   7.734
  493TIP3   OH223037   5.672   1.441   2.097
  493TIP3    H123038   5.587   1.470   2.129
  493TIP3    H223039   5.671   1.463   2.003
  494TIP3   OH223040   3.905   4.854   6.428
  494TIP3    H123041   3.980   4.904   6.395
  494TIP3    H223042   3.943   4.771   6.457
  495TIP3   OH223043   2.211   3.230   0.589
  495TIP3    H123044   2.129   3.186   0.565
  495TIP3    H223045   2.278   3.185   0.537
  496TIP3   OH223046   2.735   4.012   2.262
  496TIP3    H123047   2.762   3.920   2.270
  496TIP3    H223048   2.686   4.015   2.180
  497TIP3   OH223049   5.742   5.833   7.098
  497TIP3    H123050   5.758   5.739   7.091
  497TIP3    H223051   5.807   5.873   7.040
  498TIP3   OH223052   4.672   6.457   1.366
  498TIP3    H123053   4.596   6.409   1.333
  498TIP3    H223054   4.728   6.389   1.403
  499TIP3   OH223055   4.221   0.568   1.385
  499TIP3    H123056   4.274   0.567   1.306
  499TIP3    H223057   4.239   0.484   1.427
  500TIP3   OH223058   5.334   6.281   0.570
  500TIP3    H123059   5.305   6.366   0.537
  500TIP3    H223060   5.313   6.283   0.664
  501TIP3   OH223061   3.544   4.398   8.172
  501TIP3    H123062   3.484   4.367   8.240
  501TIP3    H223063   3.583   4.477   8.208
  502TIP3   OH223064   4.643   2.650   7.656
  502TIP3    H123065   4.726   2.696   7.647
  502TIP3    H223066   4.579   2.710   7.615
  503TIP3   OH223067   5.548   0.447   0.616
  503TIP3    H123068   5.461   0.443   0.656
  503TIP3    H223069   5.572   0.540   0.622
  504TIP3   OH223070   2.556   0.534   1.271
  504TIP3    H123071   2.605   0.591   1.331
  504TIP3    H223072   2.534   0.458   1.324
  505TIP3   OH223073   0.007   0.471   7.995
  505TIP3    H123074   0.076   0.529   8.027
  505TIP3    H223075   6.816   0.498   8.042
  506TIP3   OH223076   4.434   0.906   1.034
  506TIP3    H123077   4.489   0.965   1.084
  506TIP3    H223078   4.489   0.829   1.018
  507TIP3   OH223079   5.247   0.763   7.595
  507TIP3    H123080   5.313   0.693   7.595
  507TIP3    H223081   5.163   0.717   7.592
  508TIP3   OH223082   1.193   0.572   0.064
  508TIP3    H123083   1.264   0.576   0.001
  508TIP3    H223084   1.200   0.485   0.104
  509TIP3   OH223085   6.004   1.221   7.740
  509TIP3    H123086   5.991   1.313   7.714
  509TIP3    H223087   6.093   1.219   7.776
  510TIP3   OH223088   2.310   3.364   8.137
  510TIP3    H123089   2.395   3.404   8.118
  510TIP3    H223090   2.265   3.428   8.193
  511TIP3   OH223091   2.491   3.792   1.766
  511TIP3    H123092   2.565   3.746   1.805
  511TIP3    H223093   2.493   3.879   1.805
  512TIP3   OH223094   1.052   1.776   8.364
  512TIP3    H123095   1.102   1.833   8.422
  512TIP3    H223096   1.075   1.804   8.276
  513TIP3   OH223097   4.875   2.778   1.742
  513TIP3    H123098   4.833   2.789   1.656
  513TIP3    H223099   4.835   2.846   1.797
  514TIP3   OH223100   2.104   3.926   7.325
  514TIP3    H123101   2.178   3.984   7.309
  514TIP3    H223102   2.142   3.839   7.330
  515TIP3   OH223103   2.649   5.894   0.625
  515TIP3    H123104   2.740   5.874   0.642
  515TIP3    H223105   2.630   5.853   0.541
  516TIP3   OH223106   4.461   1.148   1.556
  516TIP3    H123107   4.391   1.107   1.505
  516TIP3    H223108   4.441   1.124   1.646
  517TIP3   OH223109   6.221   1.256   1.747
  517TIP3    H123110   6.170   1.337   1.750
  517TIP3    H223111   6.183   1.207   1.674
  518TIP3   OH223112   4.236   3.370   7.749
  518TIP3    H123113   4.299   3.306   7.717
  518TIP3    H223114   4.175   3.382   7.677
  519TIP3   OH223115   4.696   4.964   0.190
  519TIP3    H123116   4.611   4.924   0.173
  519TIP3    H223117   4.713   5.018   0.113
  520TIP3   OH223118   1.878   5.113   0.118
  520TIP3    H123119   1.893   5.207   0.125
  520TIP3    H223120   1.939   5.074   0.180
  521TIP3   OH223121   3.993   5.524   7.496
  521TIP3    H123122   4.064   5.571   7.540
  521TIP3    H223123   3.926   5.590   7.479
  522TIP3   OH223124   2.291   0.393   1.923
  522TIP3    H123125   2.309   0.342   2.002
  522TIP3    H223126   2.204   0.365   1.895
  523TIP3   OH223127   2.843   1.662   1.922
  523TIP3    H123128   2.927   1.683   1.963
  523TIP3    H223129   2.866   1.602   1.851
  524TIP3   OH223130   2.819   4.500   0.773
  524TIP3    H123131   2.873   4.421   0.779
  524TIP3    H223132   2.787   4.500   0.683
  525TIP3   OH223133   3.441   3.973   6.907
  525TIP3    H123134   3.409   4.046   6.960
  525TIP3    H223135   3.376   3.904   6.920
  526TIP3   OH223136   2.904   2.956   0.590
  526TIP3    H123137   2.981   2.907   0.617
  526TIP3    H223138   2.924   2.985   0.501
  527TIP3   OH223139   4.828   4.720   7.032
  527TIP3    H123140   4.845   4.801   6.984
  527TIP3    H223141   4.838   4.744   7.124
  528TIP3   OH223142   5.902   5.114   7.867
  528TIP3    H123143   5.931   5.050   7.802
  528TIP3    H223144   5.815   5.083   7.893
  529TIP3   OH223145   1.071   0.315   0.936
  529TIP3    H123146   1.030   0.382   0.880
  529TIP3    H223147   1.041   0.232   0.898
  530TIP3   OH223148   3.922   1.090   1.005
  530TIP3    H123149   3.927   1.024   0.936
  530TIP3    H223150   4.012   1.097   1.037
  531TIP3   OH223151   2.526   3.847   0.215
  531TIP3    H123152   2.497   3.767   0.171
  531TIP3    H223153   2.620   3.851   0.198
  532TIP3   OH223154   5.366   6.679   2.377
  532TIP3    H123155   5.426   6.751   2.395
  532TIP3    H223156   5.283   6.706   2.416
  533TIP3   OH223157   1.493   4.242   0.881
  533TIP3    H123158   1.584   4.257   0.906
  533TIP3    H223159   1.477   4.303   0.809
  534TIP3   OH223160   0.613   1.906   0.684
  534TIP3    H123161   0.681   1.969   0.709
  534TIP3    H223162   0.550   1.909   0.756
  535TIP3   OH223163   3.629   5.072   6.906
  535TIP3    H123164   3.628   5.001   6.970
  535TIP3    H223165   3.559   5.131   6.934
  536TIP3   OH223166   0.932   1.496   6.858
  536TIP3    H123167   0.900   1.417   6.814
  536TIP3    H223168   1.022   1.507   6.828
  537TIP3   OH223169   6.311   5.378   6.628
  537TIP3    H123170   6.331   5.286   6.645
  537TIP3    H223171   6.391   5.425   6.650
  538TIP3   OH223172   4.234   6.031   1.919
  538TIP3    H123173   4.180   5.961   1.884
  538TIP3    H223174   4.260   5.999   2.006
  539TIP3   OH223175   1.212   2.159   8.566
  539TIP3    H123176   1.225   2.093   0.020
  539TIP3    H223177   1.198   2.109   8.486
  540TIP3   OH223178   5.094   4.076   1.481
  540TIP3    H123179   5.139   4.066   1.398
  540TIP3    H223180   5.143   4.144   1.527
  541TIP3   OH223181   5.385   3.239   0.893
  541TIP3    H123182   5.363   3.149   0.868
  541TIP3    H223183   5.311   3.268   0.947
  542TIP3   OH223184   2.515   0.604   7.306
  542TIP3    H123185   2.501   0.514   7.279
  542TIP3    H223186   2.583   0.599   7.374
  543TIP3   OH223187   3.671   5.541   1.815
  543TIP3    H123188   3.718   5.611   1.862
  543TIP3    H223189   3.592   5.584   1.782
  544TIP3   OH223190   6.758   5.148   7.584
  544TIP3    H123191   6.852   5.155   7.599
  544TIP3    H223192   6.751   5.090   7.508
  545TIP3   OH223193   6.671   0.210   8.511
  545TIP3    H123194   6.632   0.296   8.496
  545TIP3    H223195   6.622   0.150   8.454
  546TIP3   OH223196   4.161   2.132   1.157
  546TIP3    H123197   4.068   2.134   1.179
  546TIP3    H223198   4.199   2.071   1.220
  547TIP3   OH223199   6.536   6.750   8.519
  547TIP3    H123200   6.469   6.696   8.476
  547TIP3    H223201   6.503   6.840   8.512
  548TIP3   OH223202   0.576   6.450   6.767
  548TIP3    H123203   0.529   6.376   6.806
  548TIP3    H223204   0.521   6.525   6.785
  549TIP3   OH223205   5.641   5.275   6.431
  549TIP3    H123206   5.563   5.299   6.382
  549TIP3    H223207   5.609   5.224   6.506
  550TIP3   OH223208   3.499   4.497   7.088
  550TIP3    H123209   3.583   4.543   7.083
  550TIP3    H223210   3.511   4.419   7.034
  551TIP3   OH223211   6.533   4.679   7.037
  551TIP3    H123212   6.560   4.759   6.990
  551TIP3    H223213   6.606   4.618   7.023
  552TIP3   OH223214   4.377   0.175   1.836
  552TIP3    H123215   4.431   0.096   1.839
  552TIP3    H223216   4.318   0.162   1.762
  553TIP3   OH223217   4.347   4.774   6.407
  553TIP3    H123218   4.288   4.845   6.380
  553TIP3    H223219   4.306   4.694   6.372
  554TIP3   OH223220   5.376   2.625   1.652
  554TIP3    H123221   5.384   2.690   1.722
  554TIP3    H223222   5.291   2.583   1.668
  555TIP3   OH223223   5.826   4.709   7.874
  555TIP3    H123224   5.845   4.717   7.967
  555TIP3    H223225   5.834   4.616   7.855
  556TIP3   OH223226   5.564   6.183   0.430
  556TIP3    H123227   5.579   6.112   0.493
  556TIP3    H223228   5.489   6.231   0.465
  557TIP3   OH223229   3.673   0.575   1.855
  557TIP3    H123230   3.628   0.575   1.940
  557TIP3    H223231   3.602   0.573   1.791
  558TIP3   OH223232   6.561   0.735   6.654
  558TIP3    H123233   6.529   0.696   6.735
  558TIP3    H223234   6.499   0.706   6.587
  559TIP3   OH223235   0.457   4.942   7.181
  559TIP3    H123236   0.444   4.865   7.237
  559TIP3    H223237   0.544   4.929   7.142
  560TIP3   OH223238   4.927   4.939   6.514
  560TIP3    H123239   4.991   4.925   6.444
  560TIP3    H223240   4.927   4.856   6.563
  561TIP3   OH223241   3.149   5.417   7.797
  561TIP3    H123242   3.075   5.452   7.846
  561TIP3    H223243   3.117   5.334   7.763
  562TIP3   OH223244   5.797   0.681   0.109
  562TIP3    H123245   5.850   0.608   0.139
  562TIP3    H223246   5.718   0.678   0.162
  563TIP3   OH223247   2.149   4.237   7.279
  563TIP3    H123248   2.068   4.267   7.237
  563TIP3    H223249   2.126   4.225   7.371
  564TIP3   OH223250   0.512   2.878   6.986
  564TIP3    H123251   0.578   2.941   6.957
  564TIP3    H223252   0.450   2.872   6.913
  565TIP3   OH223253   0.699   4.413   1.394
  565TIP3    H123254   0.607   4.437   1.387
  565TIP3    H223255   0.721   4.375   1.309
  566TIP3   OH223256   0.519   4.037   1.955
  566TIP3    H123257   0.604   4.048   1.997
  566TIP3    H223258   0.489   4.126   1.936
  567TIP3   OH223259   5.107   6.363   8.037
  567TIP3    H123260   5.081   6.448   8.072
  567TIP3    H223261   5.059   6.299   8.090
  568TIP3   OH223262   3.426   1.852   1.866
  568TIP3    H123263   3.433   1.945   1.847
  568TIP3    H223264   3.417   1.848   1.962
  569TIP3   OH223265   4.967   5.403   0.100
  569TIP3    H123266   4.896   5.441   0.048
  569TIP3    H223267   5.033   5.378   0.036
  570TIP3   OH223268   5.418   2.030   2.480
  570TIP3    H123269   5.328   2.000   2.490
  570TIP3    H223270   5.468   1.950   2.467
  571TIP3   OH223271   4.058   3.870   0.831
  571TIP3    H123272   4.061   3.782   0.867
  571TIP3    H223273   4.050   3.928   0.907
  572TIP3   OH223274   1.751   1.714   8.155
  572TIP3    H123275   1.678   1.744   8.100
  572TIP3    H223276   1.788   1.794   8.191
  573TIP3   OH223277   0.002   6.294   8.471
  573TIP3    H123278   6.830   6.328   8.538
  573TIP3    H223279   0.004   6.199   8.487
  574TIP3   OH223280   6.559   0.721   0.691
  574TIP3    H123281   6.622   0.788   0.666
  574TIP3    H223282   6.614   0.648   0.723
  575TIP3   OH223283   6.034   1.779   1.314
  575TIP3    H123284   5.974   1.813   1.248
  575TIP3    H223285   5.977   1.741   1.381
  576TIP3   OH223286   5.433   2.553   7.441
  576TIP3    H123287   5.411   2.462   7.421
  576TIP3    H223288   5.414   2.563   7.534
  577TIP3   OH223289   2.124   1.087   1.610
  577TIP3    H123290   2.084   1.140   1.679
  577TIP3    H223291   2.118   0.997   1.643
  578TIP3   OH223292   3.911   0.602   1.305
  578TIP3    H123293   3.991   0.648   1.327
  578TIP3    H223294   3.844   0.643   1.360
  579TIP3   OH223295   1.604   6.678   1.597
  579TIP3    H123296   1.553   6.739   1.544
  579TIP3    H223297   1.695   6.695   1.574
  580TIP3   OH223298   1.093   6.419   0.571
  580TIP3    H123299   1.152   6.357   0.529
  580TIP3    H223300   1.121   6.505   0.538
  581TIP3   OH223301   4.486   1.052   1.810
  581TIP3    H123302   4.523   1.134   1.842
  581TIP3    H223303   4.446   1.012   1.887
  582TIP3   OH223304   6.084   3.572   0.706
  582TIP3    H123305   6.039   3.640   0.656
  582TIP3    H223306   6.154   3.619   0.753
  583TIP3   OH223307   2.055   1.180   7.859
  583TIP3    H123308   2.140   1.138   7.873
  583TIP3    H223309   1.991   1.118   7.893
  584TIP3   OH223310   1.982   4.252   7.565
  584TIP3    H123311   1.894   4.276   7.596
  584TIP3    H223312   1.976   4.157   7.549
  585TIP3   OH223313   3.731   4.206   0.743
  585TIP3    H123314   3.754   4.218   0.835
  585TIP3    H223315   3.652   4.259   0.731
  586TIP3   OH223316   1.361   1.618   8.249
  586TIP3    H123317   1.379   1.575   8.333
  586TIP3    H223318   1.415   1.571   8.186
  587TIP3   OH223319   4.752   1.076   7.116
  587TIP3    H123320   4.697   1.142   7.075
  587TIP3    H223321   4.770   1.013   7.045
  588TIP3   OH223322   4.209   0.242   7.120
  588TIP3    H123323   4.129   0.209   7.078
  588TIP3    H223324   4.202   0.337   7.114
  589TIP3   OH223325   2.235   0.891   0.654
  589TIP3    H123326   2.253   0.982   0.675
  589TIP3    H223327   2.209   0.851   0.737
  590TIP3   OH223328   5.034   4.437   0.458
  590TIP3    H123329   5.069   4.491   0.388
  590TIP3    H223330   5.027   4.349   0.420
  591TIP3   OH223331   0.676   0.802   6.720
  591TIP3    H123332   0.668   0.773   6.629
  591TIP3    H223333   0.598   0.855   6.735
  592TIP3   OH223334   1.881   4.535   1.676
  592TIP3    H123335   1.885   4.593   1.752
  592TIP3    H223336   1.918   4.452   1.708
  593TIP3   OH223337   6.507   3.300   7.871
  593TIP3    H123338   6.566   3.316   7.944
  593TIP3    H223339   6.482   3.208   7.880
  594TIP3   OH223340   0.715   4.563   7.801
  594TIP3    H123341   0.645   4.502   7.824
  594TIP3    H223342   0.702   4.637   7.861
  595TIP3   OH223343   0.103   0.661   8.471
  595TIP3    H123344   0.082   0.754   8.471
  595TIP3    H223345   0.029   0.620   8.427
  596TIP3   OH223346   0.684   2.216   8.330
  596TIP3    H123347   0.691   2.290   8.390
  596TIP3    H223348   0.774   2.185   8.319
  597TIP3   OH223349   5.990   0.874   7.964
  597TIP3    H123350   5.956   0.963   7.949
  597TIP3    H223351   6.011   0.872   8.057
  598TIP3   OH223352   3.876   2.264   7.486
  598TIP3    H123353   3.837   2.294   7.568
  598TIP3    H223354   3.965   2.239   7.510
  599TIP3   OH223355   4.855   1.410   6.894
  599TIP3    H123356   4.919   1.365   6.839
  599TIP3    H223357   4.831   1.345   6.960
  600TIP3   OH223358   0.341   6.845   7.251
  600TIP3    H123359   0.247   6.826   7.249
  600TIP3    H223360   0.349   0.036   7.306
  601TIP3   OH223361   4.578   2.713   0.506
  601TIP3    H123362   4.493   2.718   0.462
  601TIP3    H223363   4.608   2.804   0.512
  602TIP3   OH223364   4.374   1.885   0.080
  602TIP3    H123365   4.287   1.844   0.081
  602TIP3    H223366   4.431   1.820   0.121
  603TIP3   OH223367   4.093   0.017   0.898
  603TIP3    H123368   4.036   0.069   0.954
  603TIP3    H223369   4.072   0.045   0.809
  604TIP3   OH223370   0.748   2.355   0.834
  604TIP3    H123371   0.829   2.378   0.789
  604TIP3    H223372   0.776   2.324   0.920
  605TIP3   OH223373   5.188   0.156   7.986
  605TIP3    H123374   5.260   0.150   7.923
  605TIP3    H223375   5.153   0.067   7.992
  606TIP3   OH223376   4.106   0.086   7.475
  606TIP3    H123377   4.190   0.072   7.520
  606TIP3    H223378   4.128   0.081   7.382
  607TIP3   OH223379   4.940   5.163   0.874
  607TIP3    H123380   4.922   5.194   0.785
  607TIP3    H223381   4.863   5.110   0.897
  608TIP3   OH223382   1.775   5.655   1.566
  608TIP3    H123383   1.691   5.702   1.565
  608TIP3    H223384   1.828   5.704   1.630
  609TIP3   OH223385   5.872   1.498   1.209
  609TIP3    H123386   5.854   1.559   1.280
  609TIP3    H223387   5.967   1.486   1.211
  610TIP3   OH223388   4.502   0.606   0.183
  610TIP3    H123389   4.549   0.626   0.101
  610TIP3    H223390   4.445   0.682   0.196
  611TIP3   OH223391   6.191   3.198   0.564
  611TIP3    H123392   6.211   3.241   0.481
  611TIP3    H223393   6.108   3.237   0.592
  612TIP3   OH223394   2.520   6.217   7.075
  612TIP3    H123395   2.601   6.165   7.076
  612TIP3    H223396   2.451   6.152   7.062
  613TIP3   OH223397   4.375   4.733   1.259
  613TIP3    H123398   4.314   4.735   1.186
  613TIP3    H223399   4.367   4.645   1.295
  614TIP3   OH223400   0.466   0.788   7.335
  614TIP3    H123401   0.526   0.716   7.316
  614TIP3    H223402   0.462   0.792   7.430
  615TIP3   OH223403   6.274   3.658   8.601
  615TIP3    H123404   6.180   3.650   8.584
  615TIP3    H223405   6.284   3.744   0.028
  616TIP3   OH223406   2.013   6.229   2.342
  616TIP3    H123407   2.107   6.241   2.329
  616TIP3    H223408   1.978   6.317   2.351
  617TIP3   OH223409   5.314   1.825   0.181
  617TIP3    H123410   5.335   1.794   0.093
  617TIP3    H223411   5.298   1.919   0.170
  618TIP3   OH223412   3.683   4.562   0.534
  618TIP3    H123413   3.722   4.491   0.483
  618TIP3    H223414   3.758   4.618   0.556
  619TIP3   OH223415   2.456   5.984   7.878
  619TIP3    H123416   2.420   5.902   7.846
  619TIP3    H223417   2.486   5.965   7.967
  620TIP3   OH223418   5.758   0.332   6.506
  620TIP3    H123419   5.752   0.237   6.513
  620TIP3    H223420   5.839   0.354   6.553
  621TIP3   OH223421   5.834   5.682   7.988
  621TIP3    H123422   5.829   5.777   7.997
  621TIP3    H223423   5.829   5.667   7.894
  622TIP3   OH223424   6.608   5.218   1.040
  622TIP3    H123425   6.588   5.268   1.119
  622TIP3    H223426   6.649   5.282   0.981
  623TIP3   OH223427   0.776   3.821   2.190
  623TIP3    H123428   0.770   3.727   2.210
  623TIP3    H223429   0.694   3.857   2.224
  624TIP3   OH223430   6.151   6.192   6.691
  624TIP3    H123431   6.205   6.218   6.616
  624TIP3    H223432   6.121   6.104   6.669
  625TIP3   OH223433   5.384   3.563   0.170
  625TIP3    H123434   5.346   3.517   0.095
  625TIP3    H223435   5.399   3.652   0.137
  626TIP3   OH223436   3.934   2.448   0.315
  626TIP3    H123437   3.941   2.473   0.223
  626TIP3    H223438   3.863   2.503   0.349
  627TIP3   OH223439   3.835   1.647   7.962
  627TIP3    H123440   3.836   1.557   7.930
  627TIP3    H223441   3.890   1.645   8.040
  628TIP3   OH223442   5.656   6.203   2.320
  628TIP3    H123443   5.683   6.292   2.344
  628TIP3    H223444   5.564   6.213   2.293
  629TIP3   OH223445   0.229   1.841   8.440
  629TIP3    H123446   0.189   1.755   8.456
  629TIP3    H223447   0.321   1.821   8.423
  630TIP3   OH223448   5.860   0.419   8.524
  630TIP3    H123449   5.834   0.506   8.494
  630TIP3    H223450   5.848   0.363   8.448
  631TIP3   OH223451   6.253   0.179   0.413
  631TIP3    H123452   6.192   0.226   0.470
  631TIP3    H223453   6.283   0.244   0.350
  632TIP3   OH223454   6.754   4.944   7.387
  632TIP3    H123455   6.677   4.913   7.339
  632TIP3    H223456   6.774   4.873   7.448
  633TIP3   OH223457   3.955   6.264   8.070
  633TIP3    H123458   4.006   6.267   7.989
  633TIP3    H223459   3.871   6.305   8.046
  634TIP3   OH223460   3.656   4.288   7.572
  634TIP3    H123461   3.619   4.236   7.644
  634TIP3    H223462   3.599   4.365   7.566
  635TIP3   OH223463   0.475   5.706   7.879
  635TIP3    H123464   0.442   5.692   7.790
  635TIP3    H223465   0.504   5.797   7.879
  636TIP3   OH223466   6.260   0.576   7.017
  636TIP3    H123467   6.276   0.669   7.002
  636TIP3    H223468   6.171   0.561   6.984
  637TIP3   OH223469   3.507   3.155   0.235
  637TIP3    H123470   3.566   3.188   0.302
  637TIP3    H223471   3.475   3.072   0.269
  638TIP3   OH223472   2.568   2.136   6.537
  638TIP3    H123473   2.529   2.191   6.468
  638TIP3    H223474   2.645   2.098   6.496
  639TIP3   OH223475   5.798   6.349   8.605
  639TIP3    H123476   5.773   6.387   8.521
  639TIP3    H223477   5.760   6.409   0.056
  640TIP3   OH223478   2.209   1.661   1.470
  640TIP3    H123479   2.231   1.753   1.484
  640TIP3    H223480   2.147   1.640   1.540
  641TIP3   OH223481   2.653   2.304   7.339
  641TIP3    H123482   2.716   2.232   7.336
  641TIP3    H223483   2.568   2.261   7.329
  642TIP3   OH223484   5.955   6.293   8.348
  642TIP3    H123485   5.948   6.197   8.352
  642TIP3    H223486   6.036   6.313   8.393
  643TIP3   OH223487   5.770   3.342   7.715
  643TIP3    H123488   5.860   3.324   7.741
  643TIP3    H223489   5.759   3.436   7.729
  644TIP3   OH223490   0.198   0.495   1.270
  644TIP3    H123491   0.151   0.414   1.292
  644TIP3    H223492   0.234   0.479   1.183
  645TIP3   OH223493   2.173   5.018   2.533
  645TIP3    H123494   2.139   5.075   2.464
  645TIP3    H223495   2.127   4.935   2.519
  646TIP3   OH223496   4.837   1.037   1.535
  646TIP3    H123497   4.789   1.116   1.511
  646TIP3    H223498   4.770   0.971   1.552
  647TIP3   OH223499   0.534   3.141   1.671
  647TIP3    H123500   0.592   3.142   1.595
  647TIP3    H223501   0.464   3.080   1.647
  648TIP3   OH223502   0.759   0.529   6.752
  648TIP3    H123503   0.773   0.496   6.841
  648TIP3    H223504   0.756   0.625   6.762
  649TIP3   OH223505   0.699   4.982   7.687
  649TIP3    H123506   0.654   4.901   7.709
  649TIP3    H223507   0.679   4.997   7.595
  650TIP3   OH223508   1.025   4.981   8.221
  650TIP3    H123509   1.100   4.961   8.276
  650TIP3    H223510   0.999   5.070   8.247
  651TIP3   OH223511   4.986   5.469   7.369
  651TIP3    H123512   4.929   5.392   7.361
  651TIP3    H223513   5.037   5.469   7.288
  652TIP3   OH223514   4.214   0.222   0.433
  652TIP3    H123515   4.146   0.253   0.373
  652TIP3    H223516   4.241   0.137   0.397
  653TIP3   OH223517   0.518   5.327   1.604
  653TIP3    H123518   0.494   5.369   1.686
  653TIP3    H223519   0.606   5.292   1.619
  654TIP3   OH223520   4.586   1.588   8.611
  654TIP3    H123521   4.645   1.515   0.014
  654TIP3    H223522   4.644   1.662   8.589
  655TIP3   OH223523   2.571   3.570   7.879
  655TIP3    H123524   2.648   3.621   7.905
  655TIP3    H223525   2.534   3.537   7.961
  656TIP3   OH223526   5.902   5.316   0.478
  656TIP3    H123527   5.925   5.364   0.399
  656TIP3    H223528   5.962   5.350   0.545
  657TIP3   OH223529   2.998   1.511   1.693
  657TIP3    H123530   3.061   1.553   1.635
  657TIP3    H223531   3.050   1.447   1.742
  658TIP3   OH223532   5.002   3.427   8.180
  658TIP3    H123533   4.951   3.483   8.121
  658TIP3    H223534   4.947   3.417   8.257
  659TIP3   OH223535   6.259   0.312   6.656
  659TIP3    H123536   6.345   0.341   6.628
  659TIP3    H223537   6.270   0.219   6.677
  660TIP3   OH223538   0.126   5.525   1.482
  660TIP3    H123539   0.075   5.470   1.422
  660TIP3    H223540   0.146   5.603   1.430
  661TIP3   OH223541   6.703   1.906   7.843
  661TIP3    H123542   6.664   1.833   7.892
  661TIP3    H223543   6.644   1.980   7.858
  662TIP3   OH223544   6.679   3.744   1.332
  662TIP3    H123545   6.697   3.656   1.299
  662TIP3    H223546   6.610   3.732   1.396
  663TIP3   OH223547   0.239   3.041   2.176
  663TIP3    H123548   0.309   3.099   2.206
  663TIP3    H223549   0.165   3.060   2.234
  664TIP3   OH223550   0.829   3.625   6.131
  664TIP3    H123551   0.859   3.715   6.126
  664TIP3    H223552   0.760   3.626   6.197
  665TIP3   OH223553   0.208   5.180   2.105
  665TIP3    H123554   0.197   5.091   2.072
  665TIP3    H223555   0.131   5.228   2.074
  666TIP3   OH223556   5.970   4.350   8.328
  666TIP3    H123557   6.055   4.318   8.298
  666TIP3    H223558   5.983   4.368   8.421
  667TIP3   OH223559   4.915   6.313   7.559
  667TIP3    H123560   4.956   6.257   7.625
  667TIP3    H223561   4.985   6.330   7.496
  668TIP3   OH223562   5.206   1.538   7.320
  668TIP3    H123563   5.142   1.538   7.391
  668TIP3    H223564   5.155   1.517   7.242
  669TIP3   OH223565   6.320   4.421   0.154
  669TIP3    H123566   6.401   4.449   0.110
  669TIP3    H223567   6.314   4.327   0.136
  670TIP3   OH223568   2.336   4.405   8.081
  670TIP3    H123569   2.430   4.387   8.074
  670TIP3    H223570   2.305   4.347   8.150
  671TIP3   OH223571   6.100   3.052   7.239
  671TIP3    H123572   6.006   3.040   7.255
  671TIP3    H223573   6.114   3.019   7.150
  672TIP3   OH223574   4.086   4.560   0.440
  672TIP3    H123575   4.007   4.561   0.495
  672TIP3    H223576   4.101   4.652   0.419
  673TIP3   OH223577   5.719   1.971   7.366
  673TIP3    H123578   5.798   1.938   7.323
  673TIP3    H223579   5.750   2.045   7.418
  674TIP3   OH223580   4.236   5.276   2.072
  674TIP3    H123581   4.214   5.304   2.161
  674TIP3    H223582   4.219   5.182   2.072
  675TIP3   OH223583   0.358   1.285   2.129
  675TIP3    H123584   0.268   1.306   2.153
  675TIP3    H223585   0.375   1.199   2.168
  676TIP3   OH223586   5.116   0.071   0.213
  676TIP3    H123587   5.192   0.013   0.204
  676TIP3    H223588   5.127   0.112   0.299
  677TIP3   OH223589   6.453   5.911   1.238
  677TIP3    H123590   6.489   5.997   1.262
  677TIP3    H223591   6.370   5.931   1.196
  678TIP3   OH223592   6.001   1.302   8.584
  678TIP3    H123593   5.984   1.246   8.508
  678TIP3    H223594   5.936   1.372   8.576
  679TIP3   OH223595   3.516   5.829   1.797
  679TIP3    H123596   3.535   5.820   1.890
  679TIP3    H223597   3.467   5.750   1.775
  680TIP3   OH223598   0.885   5.608   2.638
  680TIP3    H123599   0.946   5.534   2.635
  680TIP3    H223600   0.816   5.580   2.699
  681TIP3   OH223601   0.802   4.990   7.239
  681TIP3    H123602   0.794   5.083   7.260
  681TIP3    H223603   0.895   4.977   7.221
  682TIP3   OH223604   5.642   5.220   7.672
  682TIP3    H123605   5.729   5.233   7.710
  682TIP3    H223606   5.582   5.248   7.740
  683TIP3   OH223607   1.624   1.184   0.555
  683TIP3    H123608   1.718   1.203   0.561
  683TIP3    H223609   1.608   1.178   0.460
  684TIP3   OH223610   1.475   3.959   0.931
  684TIP3    H123611   1.553   3.910   0.955
  684TIP3    H223612   1.505   4.049   0.919
  685TIP3   OH223613   5.920   1.473   7.664
  685TIP3    H123614   5.827   1.463   7.646
  685TIP3    H223615   5.928   1.561   7.701
  686TIP3   OH223616   1.317   3.969   6.297
  686TIP3    H123617   1.352   3.958   6.385
  686TIP3    H223618   1.386   4.014   6.249
  687TIP3   OH223619   3.242   1.010   0.059
  687TIP3    H123620   3.282   1.040   8.591
  687TIP3    H223621   3.300   1.042   0.127
  688TIP3   OH223622   5.382   4.061   1.606
  688TIP3    H123623   5.322   4.135   1.618
  688TIP3    H223624   5.451   4.076   1.670
  689TIP3   OH223625   5.241   0.590   0.281
  689TIP3    H123626   5.164   0.592   0.223
  689TIP3    H223627   5.206   0.606   0.368
  690TIP3   OH223628   1.635   4.766   0.121
  690TIP3    H123629   1.603   4.856   0.114
  690TIP3    H223630   1.556   4.713   0.133
  691TIP3   OH223631   4.616   5.882   0.127
  691TIP3    H123632   4.685   5.820   0.152
  691TIP3    H223633   4.626   5.892   0.032
  692TIP3   OH223634   2.641   0.165   7.177
  692TIP3    H123635   2.676   0.166   7.088
  692TIP3    H223636   2.627   0.073   7.196
  693TIP3   OH223637   4.506   4.481   0.124
  693TIP3    H123638   4.535   4.491   0.215
  693TIP3    H223639   4.413   4.503   0.127
  694TIP3   OH223640   6.601   5.013   1.894
  694TIP3    H123641   6.520   4.988   1.850
  694TIP3    H223642   6.650   5.063   1.828
  695TIP3   OH223643   0.463   5.992   0.852
  695TIP3    H123644   0.467   6.004   0.757
  695TIP3    H223645   0.378   5.950   0.867
  696TIP3   OH223646   4.307   6.584   1.772
  696TIP3    H123647   4.365   6.511   1.752
  696TIP3    H223648   4.331   6.610   1.861
  697TIP3   OH223649   3.724   1.856   1.021
  697TIP3    H123650   3.686   1.910   1.090
  697TIP3    H223651   3.814   1.887   1.011
  698TIP3   OH223652   6.439   6.081   0.437
  698TIP3    H123653   6.351   6.116   0.450
  698TIP3    H223654   6.439   6.048   0.348
  699TIP3   OH223655   2.820   2.063   7.877
  699TIP3    H123656   2.789   2.152   7.862
  699TIP3    H223657   2.778   2.011   7.807
  700TIP3   OH223658   3.822   4.913   0.591
  700TIP3    H123659   3.854   4.896   0.503
  700TIP3    H223660   3.851   5.003   0.610
  701TIP3   OH223661   5.632   1.096   1.571
  701TIP3    H123662   5.701   1.069   1.511
  701TIP3    H223663   5.677   1.122   1.651
  702TIP3   OH223664   3.354   4.359   1.555
  702TIP3    H123665   3.280   4.313   1.516
  702TIP3    H223666   3.388   4.300   1.622
  703TIP3   OH223667   0.929   0.786   8.003
  703TIP3    H123668   0.893   0.753   7.920
  703TIP3    H223669   0.947   0.879   7.986
  704TIP3   OH223670   2.702   0.051   0.749
  704TIP3    H123671   2.634   0.079   0.811
  704TIP3    H223672   2.784   0.084   0.786
  705TIP3   OH223673   6.430   5.116   0.103
  705TIP3    H123674   6.498   5.180   0.082
  705TIP3    H223675   6.370   5.162   0.161
  706TIP3   OH223676   4.272   3.608   7.595
  706TIP3    H123677   4.269   3.616   7.690
  706TIP3    H223678   4.236   3.691   7.562
  707TIP3   OH223679   5.891   5.709   7.723
  707TIP3    H123680   5.903   5.786   7.667
  707TIP3    H223681   5.888   5.635   7.662
  708TIP3   OH223682   6.089   6.107   0.918
  708TIP3    H123683   6.020   6.120   0.853
  708TIP3    H223684   6.057   6.150   0.997
  709TIP3   OH223685   1.341   1.214   0.469
  709TIP3    H123686   1.282   1.187   0.539
  709TIP3    H223687   1.428   1.210   0.509
  710TIP3   OH223688   2.259   4.409   1.492
  710TIP3    H123689   2.274   4.325   1.448
  710TIP3    H223690   2.201   4.387   1.565
  711TIP3   OH223691   5.436   4.840   0.613
  711TIP3    H123692   5.407   4.860   0.525
  711TIP3    H223693   5.506   4.775   0.602
  712TIP3   OH223694   1.185   0.139   6.983
  712TIP3    H123695   1.268   0.162   7.025
  712TIP3    H223696   1.210   0.095   6.902
  713TIP3   OH223697   2.218   2.943   0.177
  713TIP3    H123698   2.281   3.006   0.142
  713TIP3    H223699   2.256   2.914   0.260
  714TIP3   OH223700   1.832   4.162   0.542
  714TIP3    H123701   1.741   4.140   0.561
  714TIP3    H223702   1.877   4.151   0.626
  715TIP3   OH223703   6.095   5.701   7.151
  715TIP3    H123704   6.160   5.630   7.151
  715TIP3    H223705   6.091   5.730   7.059
  716TIP3   OH223706   2.105   3.923   6.565
  716TIP3    H123707   2.059   3.965   6.492
  716TIP3    H223708   2.058   3.840   6.578
  717TIP3   OH223709   2.647   1.819   1.843
  717TIP3    H123710   2.729   1.769   1.846
  717TIP3    H223711   2.584   1.759   1.802
  718TIP3   OH223712   6.330   1.024   0.133
  718TIP3    H123713   6.252   1.077   0.120
  718TIP3    H223714   6.360   1.003   0.045
  719TIP3   OH223715   0.069   2.469   6.566
  719TIP3    H123716   0.072   2.469   6.470
  719TIP3    H223717   0.086   2.378   6.591
  720TIP3   OH223718   0.035   5.880   8.281
  720TIP3    H123719   0.112   5.912   8.235
  720TIP3    H223720   0.008   5.802   8.232
  721TIP3   OH223721   0.860   5.164   1.436
  721TIP3    H123722   0.858   5.073   1.465
  721TIP3    H223723   0.944   5.174   1.393
  722TIP3   OH223724   1.245   4.110   7.875
  722TIP3    H123725   1.239   4.060   7.794
  722TIP3    H223726   1.217   4.048   7.943
  723TIP3   OH223727   2.217   2.731   8.096
  723TIP3    H123728   2.210   2.660   8.160
  723TIP3    H223729   2.159   2.705   8.025
  724TIP3   OH223730   3.668   0.213   0.425
  724TIP3    H123731   3.712   0.282   0.476
  724TIP3    H223732   3.577   0.242   0.419
  725TIP3   OH223733   3.597   6.254   8.006
  725TIP3    H123734   3.597   6.343   8.040
  725TIP3    H223735   3.617   6.264   7.913
  726TIP3   OH223736   1.681   0.380   0.573
  726TIP3    H123737   1.693   0.297   0.621
  726TIP3    H223738   1.738   0.442   0.619
  727TIP3   OH223739   6.138   3.034   0.305
  727TIP3    H123740   6.140   2.961   0.243
  727TIP3    H223741   6.193   3.005   0.378
  728TIP3   OH223742   4.016   4.260   0.789
  728TIP3    H123743   3.921   4.269   0.779
  728TIP3    H223744   4.049   4.247   0.700
  729TIP3   OH223745   0.893   6.858   8.260
  729TIP3    H123746   0.985   6.849   8.285
  729TIP3    H223747   0.891   6.833   8.167
  730TIP3   OH223748   4.222   1.151   0.425
  730TIP3    H123749   4.208   1.123   0.335
  730TIP3    H223750   4.137   1.138   0.467
  731TIP3   OH223751   3.737   5.982   0.088
  731TIP3    H123752   3.776   5.903   0.050
  731TIP3    H223753   3.649   5.955   0.112
  732TIP3   OH223754   4.240   3.195   6.359
  732TIP3    H123755   4.226   3.278   6.313
  732TIP3    H223756   4.302   3.147   6.304
  733TIP3   OH223757   3.188   2.331   7.152
  733TIP3    H123758   3.162   2.283   7.230
  733TIP3    H223759   3.266   2.380   7.179
  734TIP3   OH223760   2.019   2.973   0.897
  734TIP3    H123761   2.085   2.939   0.957
  734TIP3    H223762   1.959   3.022   0.954
  735TIP3   OH223763   1.190   2.053   6.765
  735TIP3    H123764   1.281   2.025   6.777
  735TIP3    H223765   1.140   1.996   6.824
  736TIP3   OH223766   2.296   3.615   0.796
  736TIP3    H123767   2.225   3.653   0.848
  736TIP3    H223768   2.368   3.604   0.858
  737TIP3   OH223769   5.253   5.841   7.875
  737TIP3    H123770   5.233   5.784   7.949
  737TIP3    H223771   5.172   5.888   7.858
  738TIP3   OH223772   5.670   3.669   7.891
  738TIP3    H123773   5.683   3.636   7.802
  738TIP3    H223774   5.579   3.695   7.894
  739TIP3   OH223775   4.421   5.972   1.691
  739TIP3    H123776   4.334   5.988   1.728
  739TIP3    H223777   4.472   6.049   1.717
  740TIP3   OH223778   2.083   4.938   7.114
  740TIP3    H123779   2.124   4.910   7.033
  740TIP3    H223780   2.084   5.034   7.110
  741TIP3   OH223781   3.657   1.761   7.796
  741TIP3    H123782   3.711   1.765   7.717
  741TIP3    H223783   3.715   1.725   7.863
  742TIP3   OH223784   5.310   5.101   7.426
  742TIP3    H123785   5.227   5.060   7.403
  742TIP3    H223786   5.286   5.170   7.488
  743TIP3   OH223787   4.078   2.064   7.682
  743TIP3    H123788   4.101   2.091   7.593
  743TIP3    H223789   4.030   1.982   7.670
  744TIP3   OH223790   6.336   4.872   7.591
  744TIP3    H123791   6.402   4.877   7.661
  744TIP3    H223792   6.365   4.799   7.536
  745TIP3   OH223793   3.214   6.694   0.250
  745TIP3    H123794   3.133   6.739   0.275
  745TIP3    H223795   3.207   6.682   0.155
  746TIP3   OH223796   0.733   3.394   2.014
  746TIP3    H123797   0.827   3.408   2.008
  746TIP3    H223798   0.695   3.446   1.944
  747TIP3   OH223799   0.058   4.420   8.017
  747TIP3    H123800   6.851   4.434   8.031
  747TIP3    H223801   0.069   4.325   8.020
  748TIP3   OH223802   3.850   0.603   8.431
  748TIP3    H123803   3.911   0.675   8.441
  748TIP3    H223804   3.785   0.616   8.499
  749TIP3   OH223805   0.813   2.337   7.963
  749TIP3    H123806   0.764   2.259   7.936
  749TIP3    H223807   0.891   2.337   7.907
  750TIP3   OH223808   2.928   3.804   0.608
  750TIP3    H123809   2.835   3.799   0.586
  750TIP3    H223810   2.957   3.889   0.576
  751TIP3   OH223811   0.148   0.144   7.009
  751TIP3    H123812   0.242   0.134   6.998
  751TIP3    H223813   0.112   0.056   6.994
  752TIP3   OH223814   0.106   5.321   8.341
  752TIP3    H123815   0.023   5.368   8.327
  752TIP3    H223816   0.160   5.347   8.266
  753TIP3   OH223817   1.049   3.863   6.908
  753TIP3    H123818   1.128   3.897   6.866
  753TIP3    H223819   1.023   3.932   6.969
  754TIP3   OH223820   6.473   0.549   6.845
  754TIP3    H123821   6.397   0.563   6.902
  754TIP3    H223822   6.483   0.454   6.842
  755TIP3   OH223823   1.736   3.539   7.004
  755TIP3    H123824   1.734   3.461   6.948
  755TIP3    H223825   1.795   3.516   7.076
  756TIP3   OH223826   3.194   3.796   7.482
  756TIP3    H123827   3.229   3.824   7.397
  756TIP3    H223828   3.115   3.747   7.459
  757TIP3   OH223829   2.912   5.461   1.185
  757TIP3    H123830   2.831   5.410   1.194
  757TIP3    H223831   2.977   5.409   1.233
  758TIP3   OH223832   1.820   0.600   1.409
  758TIP3    H123833   1.886   0.667   1.428
  758TIP3    H223834   1.855   0.552   1.335
  759TIP3   OH223835   2.594   2.563   7.396
  759TIP3    H123836   2.626   2.473   7.409
  759TIP3    H223837   2.673   2.616   7.388
  760TIP3   OH223838   5.222   0.644   8.014
  760TIP3    H123839   5.255   0.691   8.091
  760TIP3    H223840   5.209   0.554   8.045
  761TIP3   OH223841   5.450   0.845   0.685
  761TIP3    H123842   5.460   0.939   0.701
  761TIP3    H223843   5.531   0.818   0.641
  762TIP3   OH223844   4.743   3.217   7.000
  762TIP3    H123845   4.648   3.213   7.006
  762TIP3    H223846   4.762   3.194   6.910
  763TIP3   OH223847   3.765   2.096   0.154
  763TIP3    H123848   3.813   2.088   0.072
  763TIP3    H223849   3.717   2.179   0.146
  764TIP3   OH223850   0.259   2.699   0.018
  764TIP3    H123851   0.209   2.638   0.072
  764TIP3    H223852   0.297   2.644   8.563
  765TIP3   OH223853   6.007   5.176   0.192
  765TIP3    H123854   6.100   5.184   0.218
  765TIP3    H223855   5.959   5.215   0.265
  766TIP3   OH223856   2.362   0.369   7.563
  766TIP3    H123857   2.411   0.366   7.481
  766TIP3    H223858   2.428   0.357   7.631
  767TIP3   OH223859   2.628   6.235   8.595
  767TIP3    H123860   2.682   6.290   0.039
  767TIP3    H223861   2.660   6.146   8.610
  768TIP3   OH223862   0.093   5.064   1.276
  768TIP3    H123863   0.163   5.003   1.254
  768TIP3    H223864   0.026   5.049   1.210
  769TIP3   OH223865   0.580   2.748   1.495
  769TIP3    H123866   0.507   2.804   1.521
  769TIP3    H223867   0.617   2.792   1.418
  770TIP3   OH223868   3.445   3.658   7.311
  770TIP3    H123869   3.459   3.753   7.314
  770TIP3    H223870   3.477   3.627   7.396
  771TIP3   OH223871   3.589   3.603   8.400
  771TIP3    H123872   3.585   3.551   8.481
  771TIP3    H223873   3.546   3.548   8.334
  772TIP3   OH223874   3.039   4.261   7.041
  772TIP3    H123875   2.978   4.328   7.073
  772TIP3    H223876   3.101   4.309   6.987
  773TIP3   OH223877   2.423   5.082   7.166
  773TIP3    H123878   2.375   5.000   7.175
  773TIP3    H223879   2.510   5.056   7.136
  774TIP3   OH223880   5.846   1.920   6.938
  774TIP3    H123881   5.881   1.870   6.864
  774TIP3    H223882   5.763   1.956   6.905
  775TIP3   OH223883   0.037   4.375   1.657
  775TIP3    H123884   0.012   4.345   1.569
  775TIP3    H223885   0.079   4.460   1.642
  776TIP3   OH223886   2.839   5.307   8.383
  776TIP3    H123887   2.845   5.403   8.383
  776TIP3    H223888   2.794   5.286   8.301
  777TIP3   OH223889   2.222   2.038   6.827
  777TIP3    H123890   2.205   2.038   6.922
  777TIP3    H223891   2.215   1.946   6.801
  778TIP3   OH223892   5.234   0.505   2.462
  778TIP3    H123893   5.183   0.474   2.536
  778TIP3    H223894   5.176   0.494   2.386
  779TIP3   OH223895   0.602   4.530   7.411
  779TIP3    H123896   0.624   4.511   7.320
  779TIP3    H223897   0.677   4.579   7.444
  780TIP3   OH223898   4.545   3.602   1.376
  780TIP3    H123899   4.589   3.581   1.294
  780TIP3    H223900   4.601   3.566   1.444
  781TIP3   OH223901   4.939   2.124   2.193
  781TIP3    H123902   4.950   2.031   2.210
  781TIP3    H223903   4.867   2.151   2.250
  782TIP3   OH223904   5.922   5.149   1.035
  782TIP3    H123905   5.954   5.210   0.969
  782TIP3    H223906   5.880   5.079   0.984
  783TIP3   OH223907   3.485   1.184   7.727
  783TIP3    H123908   3.458   1.092   7.719
  783TIP3    H223909   3.405   1.234   7.712
  784TIP3   OH223910   0.456   1.652   1.453
  784TIP3    H123911   0.502   1.569   1.456
  784TIP3    H223912   0.525   1.718   1.443
  785TIP3   OH223913   2.941   3.027   0.307
  785TIP3    H123914   2.938   2.976   0.226
  785TIP3    H223915   2.993   3.104   0.285
  786TIP3   OH223916   5.164   2.029   1.031
  786TIP3    H123917   5.207   1.953   0.991
  786TIP3    H223918   5.177   2.100   0.968
  787TIP3   OH223919   3.056   6.124   1.316
  787TIP3    H123920   3.111   6.171   1.379
  787TIP3    H223921   2.994   6.074   1.369
  788TIP3   OH223922   2.568   0.836   1.932
  788TIP3    H123923   2.563   0.931   1.936
  788TIP3    H223924   2.520   0.806   2.010
  789TIP3   OH223925   1.599   4.046   1.570
  789TIP3    H123926   1.525   4.083   1.522
  789TIP3    H223927   1.673   4.053   1.510
  790TIP3   OH223928   2.452   5.458   7.963
  790TIP3    H123929   2.429   5.380   8.013
  790TIP3    H223930   2.530   5.433   7.914
  791TIP3   OH223931   5.288   2.568   0.166
  791TIP3    H123932   5.280   2.500   0.232
  791TIP3    H223933   5.374   2.608   0.183
  792TIP3   OH223934   5.542   0.004   1.334
  792TIP3    H123935   5.471   0.032   1.392
  792TIP3    H223936   5.587   0.085   1.312
  793TIP3   OH223937   2.453   1.636   2.410
  793TIP3    H123938   2.367   1.646   2.370
  793TIP3    H223939   2.460   1.543   2.430
  794TIP3   OH223940   4.007   2.933   0.086
  794TIP3    H123941   3.923   2.969   0.112
  794TIP3    H223942   4.016   2.853   0.138
  795TIP3   OH223943   0.222   5.767   7.160
  795TIP3    H123944   0.217   5.695   7.098
  795TIP3    H223945   0.308   5.807   7.142
  796TIP3   OH223946   6.709   5.100   6.896
  796TIP3    H123947   6.714   5.013   6.935
  796TIP3    H223948   6.723   5.160   6.969
  797TIP3   OH223949   3.774   4.656   8.050
  797TIP3    H123950   3.700   4.653   8.110
  797TIP3    H223951   3.851   4.647   8.106
  798TIP3   OH223952   2.381   0.116   8.448
  798TIP3    H123953   2.424   0.128   8.363
  798TIP3    H223954   2.380   0.021   8.461
  799TIP3   OH223955   1.373   3.664   6.204
  799TIP3    H123956   1.326   3.747   6.215
  799TIP3    H223957   1.442   3.667   6.271
  800TIP3   OH223958   1.583   4.066   1.848
  800TIP3    H123959   1.640   3.996   1.880
  800TIP3    H223960   1.587   4.058   1.753
  801TIP3   OH223961   0.290   1.384   7.570
  801TIP3    H123962   0.241   1.410   7.492
  801TIP3    H223963   0.231   1.323   7.616
  802TIP3   OH223964   0.755   5.224   6.467
  802TIP3    H123965   0.724   5.301   6.419
  802TIP3    H223966   0.850   5.229   6.460
  803TIP3   OH223967   5.751   4.397   8.151
  803TIP3    H123968   5.827   4.371   8.204
  803TIP3    H223969   5.747   4.492   8.160
  804TIP3   OH223970   1.451   1.233   7.843
  804TIP3    H123971   1.395   1.156   7.835
  804TIP3    H223972   1.415   1.281   7.917
  805TIP3   OH223973   4.977   3.324   0.147
  805TIP3    H123974   4.975   3.408   0.192
  805TIP3    H223975   5.038   3.271   0.199
  806TIP3   OH223976   1.286   1.651   6.963
  806TIP3    H123977   1.349   1.583   6.988
  806TIP3    H223978   1.330   1.700   6.893
  807TIP3   OH223979   4.401   2.310   7.288
  807TIP3    H123980   4.466   2.332   7.355
  807TIP3    H223981   4.395   2.389   7.233
  808TIP3   OH223982   1.347   5.837   7.996
  808TIP3    H123983   1.257   5.830   8.027
  808TIP3    H223984   1.340   5.882   7.911
  809TIP3   OH223985   5.110   4.728   0.370
  809TIP3    H123986   5.139   4.765   0.287
  809TIP3    H223987   5.190   4.694   0.410
  810TIP3   OH223988   0.869   3.147   8.120
  810TIP3    H123989   0.884   3.066   8.071
  810TIP3    H223990   0.883   3.216   8.056
  811TIP3   OH223991   2.339   1.005   0.246
  811TIP3    H123992   2.383   1.087   0.222
  811TIP3    H223993   2.298   0.976   0.164
  812TIP3   OH223994   3.050   5.306   0.868
  812TIP3    H123995   3.096   5.389   0.881
  812TIP3    H223996   3.058   5.261   0.952
  813TIP3   OH223997   2.223   5.907   0.925
  813TIP3    H123998   2.232   5.812   0.914
  813TIP3    H223999   2.312   5.938   0.941
  814TIP3   OH224000   3.897   0.823   0.035
  814TIP3    H124001   3.921   0.905   0.080
  814TIP3    H224002   3.950   0.824   8.569
  815TIP3   OH224003   6.659   5.735   7.731
  815TIP3    H124004   6.678   5.768   7.643
  815TIP3    H224005   6.643   5.642   7.719
  816TIP3   OH224006   2.468   0.394   0.464
  816TIP3    H124007   2.454   0.386   0.559
  816TIP3    H224008   2.538   0.459   0.456
  817TIP3   OH224009   6.483   3.237   0.509
  817TIP3    H124010   6.423   3.167   0.534
  817TIP3    H224011   6.536   3.252   0.587
  818TIP3   OH224012   2.431   6.606   2.130
  818TIP3    H124013   2.519   6.620   2.095
  818TIP3    H224014   2.406   6.519   2.099
  819TIP3   OH224015   4.945   1.175   1.171
  819TIP3    H124016   4.945   1.271   1.172
  819TIP3    H224017   4.853   1.151   1.183
  820TIP3   OH224018   6.861   5.111   1.668
  820TIP3    H124019   0.038   5.144   1.605
  820TIP3    H224020   6.786   5.170   1.659
  821TIP3   OH224021   3.061   5.714   7.138
  821TIP3    H124022   3.085   5.688   7.227
  821TIP3    H224023   3.108   5.654   7.081
  822TIP3   OH224024   0.942   0.622   0.398
  822TIP3    H124025   0.971   0.669   0.320
  822TIP3    H224026   0.902   0.690   0.453
  823TIP3   OH224027   0.634   0.423   6.517
  823TIP3    H124028   0.680   0.466   6.589
  823TIP3    H224029   0.587   0.351   6.558
  824TIP3   OH224030   5.899   6.137   1.691
  824TIP3    H124031   5.946   6.129   1.774
  824TIP3    H224032   5.956   6.192   1.636
  825TIP3   OH224033   2.763   1.764   6.183
  825TIP3    H124034   2.825   1.735   6.117
  825TIP3    H224035   2.743   1.685   6.234
  826TIP3   OH224036   3.164   2.009   1.984
  826TIP3    H124037   3.159   2.079   2.049
  826TIP3    H224038   3.137   2.051   1.902
  827TIP3   OH224039   2.762   0.371   1.651
  827TIP3    H124040   2.813   0.431   1.706
  827TIP3    H224041   2.766   0.287   1.697
  828TIP3   OH224042   5.922   1.266   8.288
  828TIP3    H124043   5.979   1.271   8.212
  828TIP3    H224044   5.921   1.173   8.312
  829TIP3   OH224045   4.347   1.852   1.179
  829TIP3    H124046   4.421   1.796   1.153
  829TIP3    H224047   4.388   1.930   1.216
  830TIP3   OH224048   5.888   1.007   6.673
  830TIP3    H124049   5.983   1.005   6.665
  830TIP3    H224050   5.856   0.961   6.595
  831TIP3   OH224051   2.924   6.555   0.756
  831TIP3    H124052   2.992   6.497   0.721
  831TIP3    H224053   2.969   6.638   0.771
  832TIP3   OH224054   2.880   0.923   0.515
  832TIP3    H124055   2.906   0.906   0.424
  832TIP3    H224056   2.944   0.987   0.547
  833TIP3   OH224057   1.963   6.262   8.535
  833TIP3    H124058   2.016   6.315   8.475
  833TIP3    H224059   2.000   6.174   8.529
  834TIP3   OH224060   2.089   5.676   2.446
  834TIP3    H124061   2.152   5.725   2.394
  834TIP3    H224062   2.056   5.608   2.387
  835TIP3   OH224063   6.346   2.900   2.491
  835TIP3    H124064   6.333   2.946   2.574
  835TIP3    H224065   6.304   2.957   2.426
  836TIP3   OH224066   6.726   4.371   2.175
  836TIP3    H124067   6.638   4.375   2.212
  836TIP3    H224068   6.713   4.336   2.087
  837TIP3   OH224069   2.813   2.595   8.296
  837TIP3    H124070   2.906   2.610   8.310
  837TIP3    H224071   2.792   2.644   8.217
  838TIP3   OH224072   6.006   0.217   1.249
  838TIP3    H124073   6.004   0.121   1.253
  838TIP3    H224074   6.039   0.237   1.161
  839TIP3   OH224075   1.185   4.490   2.282
  839TIP3    H124076   1.114   4.463   2.340
  839TIP3    H224077   1.160   4.578   2.253
  840TIP3   OH224078   4.898   6.177   0.744
  840TIP3    H124079   4.835   6.248   0.750
  840TIP3    H224080   4.876   6.120   0.818
  841TIP3   OH224081   1.038   2.698   7.492
  841TIP3    H124082   0.948   2.677   7.515
  841TIP3    H224083   1.078   2.728   7.574
  842TIP3   OH224084   3.982   5.103   0.126
  842TIP3    H124085   4.029   5.025   0.095
  842TIP3    H224086   3.965   5.085   0.218
  843TIP3   OH224087   6.494   1.191   0.700
  843TIP3    H124088   6.427   1.256   0.677
  843TIP3    H224089   6.536   1.169   0.616
  844TIP3   OH224090   5.640   2.301   0.447
  844TIP3    H124091   5.681   2.226   0.405
  844TIP3    H224092   5.697   2.323   0.520
  845TIP3   OH224093   0.693   6.396   2.370
  845TIP3    H124094   0.776   6.348   2.365
  845TIP3    H224095   0.708   6.476   2.319
  846TIP3   OH224096   2.952   2.722   1.755
  846TIP3    H124097   2.944   2.641   1.704
  846TIP3    H224098   3.014   2.701   1.824
  847TIP3   OH224099   3.295   3.961   7.673
  847TIP3    H124100   3.251   3.958   7.588
  847TIP3    H224101   3.310   3.869   7.696
  848TIP3   OH224102   6.398   4.045   7.535
  848TIP3    H124103   6.457   4.086   7.471
  848TIP3    H224104   6.457   4.003   7.597
  849TIP3   OH224105   1.074   4.211   1.574
  849TIP3    H124106   1.058   4.305   1.572
  849TIP3    H224107   1.021   4.176   1.503
  850TIP3   OH224108   3.509   5.257   2.057
  850TIP3    H124109   3.539   5.254   1.966
  850TIP3    H224110   3.588   5.249   2.109
  851TIP3   OH224111   1.540   3.121   7.834
  851TIP3    H124112   1.497   3.062   7.895
  851TIP3    H224113   1.620   3.149   7.880
  852TIP3   OH224114   6.426   4.453   6.912
  852TIP3    H124115   6.485   4.449   6.836
  852TIP3    H224116   6.454   4.533   6.958
  853TIP3   OH224117   6.055   3.891   0.418
  853TIP3    H124118   6.067   3.814   0.474
  853TIP3    H224119   6.133   3.892   0.363
  854TIP3   OH224120   6.345   1.602   7.013
  854TIP3    H124121   6.413   1.562   6.959
  854TIP3    H224122   6.313   1.531   7.068
  855TIP3   OH224123   3.202   1.988   2.312
  855TIP3    H124124   3.263   2.028   2.373
  855TIP3    H224125   3.163   2.061   2.265
  856TIP3   OH224126   1.669   4.230   1.296
  856TIP3    H124127   1.586   4.182   1.301
  856TIP3    H224128   1.736   4.163   1.311
  857TIP3   OH224129   0.411   1.940   6.967
  857TIP3    H124130   0.320   1.950   6.995
  857TIP3    H224131   0.427   1.846   6.968
  858TIP3   OH224132   2.821   2.371   7.802
  858TIP3    H124133   2.882   2.379   7.729
  858TIP3    H224134   2.743   2.419   7.774
  859TIP3   OH224135   4.303   5.694   0.071
  859TIP3    H124136   4.333   5.769   0.020
  859TIP3    H224137   4.376   5.676   0.131
  860TIP3   OH224138   6.397   4.794   1.867
  860TIP3    H124139   6.319   4.738   1.862
  860TIP3    H224140   6.399   4.838   1.782
  861TIP3   OH224141   5.480   6.187   8.545
  861TIP3    H124142   5.476   6.112   8.603
  861TIP3    H224143   5.540   6.249   8.589
  862TIP3   OH224144   3.210   5.127   2.206
  862TIP3    H124145   3.266   5.087   2.139
  862TIP3    H224146   3.142   5.062   2.222
  863TIP3   OH224147   0.518   0.897   2.295
  863TIP3    H124148   0.439   0.949   2.314
  863TIP3    H224149   0.551   0.873   2.381
  864TIP3   OH224150   6.471   3.238   1.684
  864TIP3    H124151   6.538   3.201   1.626
  864TIP3    H224152   6.518   3.261   1.764
  865TIP3   OH224153   4.696   5.257   7.764
  865TIP3    H124154   4.665   5.339   7.725
  865TIP3    H224155   4.781   5.241   7.723
  866TIP3   OH224156   6.770   4.728   7.564
  866TIP3    H124157   6.713   4.793   7.605
  866TIP3    H224158   6.799   4.672   7.637
  867TIP3   OH224159   5.964   1.332   7.427
  867TIP3    H124160   5.948   1.372   7.512
  867TIP3    H224161   5.902   1.375   7.368
  868TIP3   OH224162   4.911   5.166   7.644
  868TIP3    H124163   4.922   5.168   7.549
  868TIP3    H224164   5.000   5.177   7.678
  869TIP3   OH224165   1.686   6.389   0.241
  869TIP3    H124166   1.690   6.381   0.336
  869TIP3    H224167   1.686   6.299   0.209
  870TIP3   OH224168   3.221   5.836   8.229
  870TIP3    H124169   3.151   5.836   8.165
  870TIP3    H224170   3.271   5.756   8.211
  871TIP3   OH224171   0.594   2.893   7.641
  871TIP3    H124172   0.599   2.988   7.641
  871TIP3    H224173   0.518   2.873   7.696
  872TIP3   OH224174   1.723   5.687   8.572
  872TIP3    H124175   1.643   5.662   0.003
  872TIP3    H224176   1.694   5.724   8.489
  873TIP3   OH224177   1.197   1.637   0.805
  873TIP3    H124178   1.270   1.621   0.863
  873TIP3    H224179   1.136   1.566   0.822
  874TIP3   OH224180   1.317   4.940   1.729
  874TIP3    H124181   1.300   4.891   1.810
  874TIP3    H224182   1.261   5.017   1.736
  875TIP3   OH224183   0.927   3.573   0.175
  875TIP3    H124184   0.981   3.642   0.136
  875TIP3    H224185   0.856   3.560   0.112
  876TIP3   OH224186   3.669   4.836   6.279
  876TIP3    H124187   3.699   4.782   6.206
  876TIP3    H224188   3.744   4.843   6.337
  877TIP3   OH224189   0.016   4.137   0.926
  877TIP3    H124190   0.015   4.226   0.961
  877TIP3    H224191   0.002   4.081   1.002
  878TIP3   OH224192   6.489   2.637   1.376
  878TIP3    H124193   6.484   2.703   1.307
  878TIP3    H224194   6.551   2.673   1.439
  879TIP3   OH224195   2.041   5.814   7.191
  879TIP3    H124196   1.997   5.879   7.245
  879TIP3    H224197   1.978   5.742   7.184
  880TIP3   OH224198   6.511   6.231   6.459
  880TIP3    H124199   6.551   6.186   6.533
  880TIP3    H224200   6.518   6.169   6.386
  881TIP3   OH224201   5.667   3.977   0.072
  881TIP3    H124202   5.708   4.047   0.021
  881TIP3    H224203   5.732   3.906   0.072
  882TIP3   OH224204   6.201   4.360   6.706
  882TIP3    H124205   6.257   4.428   6.669
  882TIP3    H224206   6.252   4.279   6.696
  883TIP3   OH224207   4.249   6.329   0.961
  883TIP3    H124208   4.169   6.300   0.918
  883TIP3    H224209   4.219   6.366   1.044
  884TIP3   OH224210   5.775   4.163   8.526
  884TIP3    H124211   5.865   4.186   8.549
  884TIP3    H224212   5.784   4.110   8.446
  885TIP3   OH224213   5.525   3.308   0.112
  885TIP3    H124214   5.567   3.377   0.165
  885TIP3    H224215   5.473   3.356   0.048
  886TIP3   OH224216   1.879   2.168   1.955
  886TIP3    H124217   1.848   2.256   1.978
  886TIP3    H224218   1.829   2.144   1.878
  887TIP3   OH224219   1.688   4.492   0.210
  887TIP3    H124220   1.687   4.532   0.123
  887TIP3    H224221   1.671   4.564   0.270
  888TIP3   OH224222   0.019   4.854   7.791
  888TIP3    H124223   6.867   4.767   7.799
  888TIP3    H224224   0.103   4.838   7.748
  889TIP3   OH224225   1.849   3.879   0.641
  889TIP3    H124226   1.763   3.853   0.606
  889TIP3    H224227   1.912   3.828   0.588
  890TIP3   OH224228   4.632   2.764   8.469
  890TIP3    H124229   4.537   2.771   8.465
  890TIP3    H224230   4.661   2.771   8.379
  891TIP3   OH224231   3.521   3.652   6.548
  891TIP3    H124232   3.526   3.708   6.470
  891TIP3    H224233   3.607   3.610   6.553
  892TIP3   OH224234   3.661   5.938   0.433
  892TIP3    H124235   3.574   5.896   0.426
  892TIP3    H224236   3.690   5.948   0.343
  893TIP3   OH224237   0.050   1.353   2.128
  893TIP3    H124238   0.060   1.307   2.044
  893TIP3    H224239   6.878   1.297   2.179
  894TIP3   OH224240   5.634   2.469   8.273
  894TIP3    H124241   5.627   2.564   8.285
  894TIP3    H224242   5.585   2.451   8.193
  895TIP3   OH224243   1.439   2.863   0.850
  895TIP3    H124244   1.532   2.859   0.872
  895TIP3    H224245   1.438   2.888   0.758
  896TIP3   OH224246   4.095   4.814   0.363
  896TIP3    H124247   4.015   4.863   0.383
  896TIP3    H224248   4.089   4.795   0.270
  897TIP3   OH224249   5.239   5.403   8.511
  897TIP3    H124250   5.324   5.365   8.489
  897TIP3    H224251   5.175   5.337   8.483
  898TIP3   OH224252   5.422   4.098   2.022
  898TIP3    H124253   5.465   4.056   1.948
  898TIP3    H224254   5.369   4.028   2.061
  899TIP3   OH224255   1.945   0.514   0.622
  899TIP3    H124256   1.979   0.474   0.542
  899TIP3    H224257   1.903   0.595   0.592
  900TIP3   OH224258   3.642   2.591   0.259
  900TIP3    H124259   3.596   2.672   0.239
  900TIP3    H224260   3.602   2.561   0.341
  901TIP3   OH224261   4.950   3.108   0.908
  901TIP3    H124262   5.017   3.156   0.957
  901TIP3    H224263   4.998   3.039   0.862
  902TIP3   OH224264   6.052   3.919   0.123
  902TIP3    H124265   6.023   4.001   0.163
  902TIP3    H224266   6.136   3.901   0.165
  903TIP3   OH224267   5.260   3.726   1.044
  903TIP3    H124268   5.276   3.812   1.004
  903TIP3    H224269   5.332   3.714   1.104
  904TIP3   OH224270   4.432   0.621   8.131
  904TIP3    H124271   4.519   0.627   8.171
  904TIP3    H224272   4.429   0.533   8.093
  905TIP3   OH224273   3.563   1.444   2.365
  905TIP3    H124274   3.618   1.377   2.406
  905TIP3    H224275   3.622   1.492   2.307
  906TIP3   OH224276   5.982   0.856   0.000
  906TIP3    H124277   5.909   0.800   0.026
  906TIP3    H224278   6.059   0.815   0.039
  907TIP3   OH224279   0.919   1.382   5.797
  907TIP3    H124280   0.975   1.319   5.752
  907TIP3    H224281   0.856   1.328   5.845
  908TIP3   OH224282   0.743   1.367   7.752
  908TIP3    H124283   0.804   1.308   7.796
  908TIP3    H224284   0.790   1.397   7.674
  909TIP3   OH224285   6.389   4.404   8.173
  909TIP3    H124286   6.464   4.458   8.197
  909TIP3    H224287   6.323   4.424   8.241
  910TIP3   OH224288   0.381   5.871   6.953
  910TIP3    H124289   0.395   5.826   6.870
  910TIP3    H224290   0.455   5.931   6.961
  911TIP3   OH224291   4.917   1.133   8.272
  911TIP3    H124292   4.874   1.209   8.310
  911TIP3    H224293   4.928   1.073   8.346
  912TIP3   OH224294   3.935   1.861   6.879
  912TIP3    H124295   4.025   1.831   6.890
  912TIP3    H224296   3.908   1.826   6.794
  913TIP3   OH224297   2.000   6.315   1.382
  913TIP3    H124298   2.042   6.313   1.296
  913TIP3    H224299   1.948   6.395   1.382
  914TIP3   OH224300   3.239   2.462   1.143
  914TIP3    H124301   3.206   2.548   1.119
  914TIP3    H224302   3.161   2.408   1.155
  915TIP3   OH224303   2.464   3.457   8.471
  915TIP3    H124304   2.540   3.511   8.493
  915TIP3    H224305   2.500   3.380   8.427
  916TIP3   OH224306   4.287   5.239   7.899
  916TIP3    H124307   4.344   5.276   7.966
  916TIP3    H224308   4.237   5.171   7.945
  917TIP3   OH224309   5.737   2.769   7.717
  917TIP3    H124310   5.759   2.810   7.801
  917TIP3    H224311   5.808   2.705   7.703
  918TIP3   OH224312   0.005   4.668   0.104
  918TIP3    H124313   6.865   4.681   0.195
  918TIP3    H224314   0.061   4.743   0.084
  919TIP3   OH224315   2.215   4.916   0.631
  919TIP3    H124316   2.250   4.897   0.718
  919TIP3    H224317   2.274   4.981   0.595
  920TIP3   OH224318   3.110   3.249   7.950
  920TIP3    H124319   3.177   3.316   7.963
  920TIP3    H224320   3.041   3.293   7.899
  921TIP3   OH224321   2.429   0.746   2.147
  921TIP3    H124322   2.364   0.687   2.186
  921TIP3    H224323   2.464   0.796   2.221
  922TIP3   OH224324   5.247   6.793   6.612
  922TIP3    H124325   5.186   6.838   6.553
  922TIP3    H224326   5.191   6.750   6.676
  923TIP3   OH224327   1.797   3.552   0.524
  923TIP3    H124328   1.738   3.600   0.467
  923TIP3    H224329   1.753   3.551   0.609
  924TIP3   OH224330   1.630   6.480   8.091
  924TIP3    H124331   1.551   6.427   8.100
  924TIP3    H224332   1.600   6.570   8.108
  925TIP3   OH224333   3.183   4.056   8.383
  925TIP3    H124334   3.095   4.061   8.421
  925TIP3    H224335   3.175   3.992   8.312
  926TIP3   OH224336   4.494   4.942   8.492
  926TIP3    H124337   4.429   4.905   8.432
  926TIP3    H224338   4.477   4.899   8.576
  927TIP3   OH224339   5.438   6.527   8.312
  927TIP3    H124340   5.530   6.536   8.335
  927TIP3    H224341   5.423   6.592   8.244
  928TIP3   OH224342   3.554   4.363   0.205
  928TIP3    H124343   3.531   4.289   0.262
  928TIP3    H224344   3.643   4.345   0.177
  929TIP3   OH224345   4.172   2.342   1.470
  929TIP3    H124346   4.171   2.376   1.380
  929TIP3    H224347   4.197   2.418   1.523
  930TIP3   OH224348   2.100   5.378   2.106
  930TIP3    H124349   2.147   5.299   2.134
  930TIP3    H224350   2.158   5.417   2.040
  931TIP3   OH224351   3.175   4.222   1.357
  931TIP3    H124352   3.110   4.214   1.427
  931TIP3    H224353   3.220   4.138   1.357
  932TIP3   OH224354   1.868   4.793   7.804
  932TIP3    H124355   1.845   4.782   7.897
  932TIP3    H224356   1.880   4.887   7.794
  933TIP3   OH224357   2.134   2.300   7.188
  933TIP3    H124358   2.060   2.282   7.130
  933TIP3    H224359   2.108   2.378   7.237
  934TIP3   OH224360   2.662   3.406   0.186
  934TIP3    H124361   2.687   3.496   0.164
  934TIP3    H224362   2.661   3.360   0.102
  935TIP3   OH224363   2.637   0.569   6.720
  935TIP3    H124364   2.572   0.515   6.763
  935TIP3    H224365   2.590   0.610   6.647
  936TIP3   OH224366   6.771   2.408   0.263
  936TIP3    H124367   6.781   2.397   0.357
  936TIP3    H224368   6.701   2.347   0.240
  937TIP3   OH224369   5.823   1.787   7.799
  937TIP3    H124370   5.888   1.825   7.741
  937TIP3    H224371   5.856   1.804   7.887
  938TIP3   OH224372   3.425   2.871   8.522
  938TIP3    H124373   3.366   2.858   8.447
  938TIP3    H224374   3.513   2.868   8.484
  939TIP3   OH224375   2.682   3.028   0.028
  939TIP3    H124376   2.683   2.947   8.591
  939TIP3    H224377   2.772   3.038   0.059
  940TIP3   OH224378   1.450   2.544   7.721
  940TIP3    H124379   1.449   2.541   7.625
  940TIP3    H224380   1.447   2.638   7.742
  941TIP3   OH224381   1.403   5.075   2.829
  941TIP3    H124382   1.464   5.047   2.898
  941TIP3    H224383   1.455   5.135   2.775
  942TIP3   OH224384   3.948   6.023   7.243
  942TIP3    H124385   3.904   5.953   7.195
  942TIP3    H224386   3.879   6.062   7.297
  943TIP3   OH224387   5.558   1.623   0.404
  943TIP3    H124388   5.474   1.580   0.419
  943TIP3    H224389   5.622   1.552   0.401
  944TIP3   OH224390   5.294   5.974   1.423
  944TIP3    H124391   5.233   6.023   1.367
  944TIP3    H224392   5.242   5.900   1.454
  945TIP3   OH224393   3.095   3.650   8.169
  945TIP3    H124394   3.115   3.739   8.138
  945TIP3    H224395   3.035   3.663   8.243
  946TIP3   OH224396   5.952   2.004   0.634
  946TIP3    H124397   5.879   1.990   0.574
  946TIP3    H224398   5.911   2.018   0.719
  947TIP3   OH224399   0.230   3.811   6.330
  947TIP3    H124400   0.313   3.806   6.282
  947TIP3    H224401   0.193   3.895   6.303
  948TIP3   OH224402   4.964   3.264   7.316
  948TIP3    H124403   4.951   3.359   7.326
  948TIP3    H224404   5.041   3.256   7.260
  949TIP3   OH224405   4.336   1.542   0.036
  949TIP3    H124406   4.422   1.567   0.003
  949TIP3    H224407   4.332   1.580   0.124
  950TIP3   OH224408   2.964   3.999   1.246
  950TIP3    H124409   2.963   4.086   1.206
  950TIP3    H224410   2.881   3.959   1.219
  951TIP3   OH224411   2.855   0.982   7.760
  951TIP3    H124412   2.918   1.050   7.741
  951TIP3    H224413   2.832   0.945   7.675
  952TIP3   OH224414   2.803   0.571   0.675
  952TIP3    H124415   2.871   0.638   0.685
  952TIP3    H224416   2.792   0.562   0.581
  953TIP3   OH224417   0.129   3.290   0.071
  953TIP3    H124418   0.191   3.280   0.143
  953TIP3    H224419   0.048   3.319   0.113
  954TIP3   OH224420   4.594   4.643   1.669
  954TIP3    H124421   4.611   4.629   1.762
  954TIP3    H224422   4.547   4.726   1.665
  955TIP3   OH224423   3.651   4.976   1.851
  955TIP3    H124424   3.567   4.963   1.895
  955TIP3    H224425   3.711   5.004   1.920
  956TIP3   OH224426   5.567   4.366   0.922
  956TIP3    H124427   5.533   4.389   0.836
  956TIP3    H224428   5.582   4.449   0.966
  957TIP3   OH224429   3.506   4.834   6.805
  957TIP3    H124430   3.470   4.923   6.807
  957TIP3    H224431   3.546   4.822   6.891
  958TIP3   OH224432   5.189   5.925   1.855
  958TIP3    H124433   5.140   5.846   1.876
  958TIP3    H224434   5.250   5.935   1.928
  959TIP3   OH224435   5.421   0.931   1.643
  959TIP3    H124436   5.492   0.984   1.606
  959TIP3    H224437   5.464   0.854   1.680
  960TIP3   OH224438   6.802   4.251   7.035
  960TIP3    H124439   6.717   4.233   6.994
  960TIP3    H224440   6.781   4.304   7.112
  961TIP3   OH224441   6.788   4.851   8.484
  961TIP3    H124442   6.810   4.937   8.447
  961TIP3    H224443   6.705   4.866   8.529
  962TIP3   OH224444   6.184   6.055   8.233
  962TIP3    H124445   6.220   5.986   8.177
  962TIP3    H224446   6.204   6.026   8.322
  963TIP3   OH224447   1.990   2.031   1.440
  963TIP3    H124448   1.898   2.054   1.457
  963TIP3    H224449   2.019   2.095   1.376
  964TIP3   OH224450   1.740   2.482   0.911
  964TIP3    H124451   1.677   2.528   0.855
  964TIP3    H224452   1.762   2.403   0.863
  965TIP3   OH224453   1.891   6.054   7.120
  965TIP3    H124454   1.913   6.141   7.155
  965TIP3    H224455   1.974   6.005   7.122
  966TIP3   OH224456   3.556   2.938   7.547
  966TIP3    H124457   3.652   2.936   7.545
  966TIP3    H224458   3.534   2.972   7.634
  967TIP3   OH224459   5.126   6.756   2.456
  967TIP3    H124460   5.098   6.672   2.491
  967TIP3    H224461   5.059   6.780   2.393
  968TIP3   OH224462   4.529   6.747   5.485
  968TIP3    H124463   4.546   6.725   5.577
  968TIP3    H224464   4.473   6.825   5.489
  969TIP3   OH224465   6.763   2.889   7.128
  969TIP3    H124466   6.750   2.819   7.064
  969TIP3    H224467   6.820   2.850   7.194
  970TIP3   OH224468   1.465   6.288   7.764
  970TIP3    H124469   1.531   6.258   7.827
  970TIP3    H224470   1.512   6.291   7.680
  971TIP3   OH224471   2.177   1.417   1.649
  971TIP3    H124472   2.135   1.384   1.728
  971TIP3    H224473   2.268   1.430   1.673
  972TIP3   OH224474   1.890   6.703   1.592
  972TIP3    H124475   1.982   6.726   1.603
  972TIP3    H224476   1.842   6.782   1.616
  973TIP3   OH224477   3.563   1.941   0.478
  973TIP3    H124478   3.612   2.019   0.452
  973TIP3    H224479   3.599   1.918   0.564
  974TIP3   OH224480   0.437   4.225   7.569
  974TIP3    H124481   0.466   4.308   7.608
  974TIP3    H224482   0.502   4.161   7.599
  975TIP3   OH224483   3.990   0.828   8.370
  975TIP3    H124484   4.078   0.825   8.333
  975TIP3    H224485   3.938   0.873   8.304
  976TIP3   OH224486   0.985   5.757   1.925
  976TIP3    H124487   1.027   5.837   1.956
  976TIP3    H224488   0.918   5.787   1.864
  977TIP3   OH224489   1.560   5.163   7.161
  977TIP3    H124490   1.586   5.138   7.073
  977TIP3    H224491   1.559   5.258   7.161
  978TIP3   OH224492   5.840   2.112   7.939
  978TIP3    H124493   5.875   2.069   7.860
  978TIP3    H224494   5.910   2.106   8.003
  979TIP3   OH224495   5.772   5.778   0.024
  979TIP3    H124496   5.685   5.746   8.613
  979TIP3    H224497   5.779   5.864   8.597
  980TIP3   OH224498   0.504   2.414   1.303
  980TIP3    H124499   0.441   2.485   1.293
  980TIP3    H224500   0.478   2.371   1.385
  981TIP3   OH224501   2.711   0.325   1.119
  981TIP3    H124502   2.690   0.412   1.153
  981TIP3    H224503   2.724   0.272   1.198
  982TIP3   OH224504   0.908   1.318   8.556
  982TIP3    H124505   0.982   1.372   8.530
  982TIP3    H224506   0.883   1.352   0.029
  983TIP3   OH224507   2.103   0.492   2.396
  983TIP3    H124508   2.133   0.536   2.317
  983TIP3    H224509   2.184   0.471   2.443
  984TIP3   OH224510   0.681   3.450   0.519
  984TIP3    H124511   0.610   3.477   0.461
  984TIP3    H224512   0.746   3.519   0.512
  985TIP3   OH224513   1.364   0.439   1.114
  985TIP3    H124514   1.346   0.454   1.021
  985TIP3    H224515   1.288   0.476   1.159
  986TIP3   OH224516   2.420   3.542   7.464
  986TIP3    H124517   2.456   3.507   7.546
  986TIP3    H224518   2.473   3.502   7.396
  987TIP3   OH224519   2.019   0.700   0.229
  987TIP3    H124520   2.027   0.608   0.253
  987TIP3    H224521   2.094   0.742   0.271
  988TIP3   OH224522   4.492   3.224   7.122
  988TIP3    H124523   4.495   3.167   7.198
  988TIP3    H224524   4.437   3.297   7.148
  989TIP3   OH224525   5.912   1.714   6.745
  989TIP3    H124526   6.002   1.684   6.758
  989TIP3    H224527   5.859   1.634   6.742
  990TIP3   OH224528   5.102   0.223   1.867
  990TIP3    H124529   5.011   0.195   1.879
  990TIP3    H224530   5.115   0.291   1.934
  991TIP3   OH224531   3.305   0.417   6.587
  991TIP3    H124532   3.265   0.389   6.669
  991TIP3    H224533   3.235   0.462   6.541
  992TIP3   OH224534   0.706   1.456   8.351
  992TIP3    H124535   0.723   1.369   8.316
  992TIP3    H224536   0.643   1.494   8.289
  993TIP3   OH224537   1.405   6.348   7.370
  993TIP3    H124538   1.445   6.365   7.285
  993TIP3    H224539   1.340   6.418   7.379
  994TIP3   OH224540   6.857   3.452   7.382
  994TIP3    H124541   6.877   3.393   7.455
  994TIP3    H224542   0.054   3.486   7.354
  995TIP3   OH224543   5.331   2.470   0.970
  995TIP3    H124544   5.272   2.543   0.989
  995TIP3    H224545   5.407   2.511   0.928
  996TIP3   OH224546   1.031   6.701   1.824
  996TIP3    H124547   1.104   6.720   1.884
  996TIP3    H224548   0.966   6.658   1.879
  997TIP3   OH224549   6.795   2.202   1.197
  997TIP3    H124550   6.729   2.201   1.265
  997TIP3    H224551   6.874   2.234   1.240
  998TIP3   OH224552   2.336   5.906   1.475
  998TIP3    H124553   2.374   5.929   1.390
  998TIP3    H224554   2.256   5.859   1.453
  999TIP3   OH224555   0.261   4.555   7.799
  999TIP3    H124556   0.190   4.518   7.851
  999TIP3    H224557   0.222   4.629   7.753
 1000TIP3   OH224558   6.727   1.195   7.538
 1000TIP3    H124559   6.635   1.203   7.562
 1000TIP3    H224560   6.731   1.116   7.484
 1001TIP3   OH224561   5.983   6.169   2.306
 1001TIP3    H124562   5.908   6.127   2.348
 1001TIP3    H224563   5.985   6.257   2.342
 1002TIP3   OH224564   4.708   1.959   6.496
 1002TIP3    H124565   4.776   1.900   6.465
 1002TIP3    H224566   4.755   2.037   6.524
 1003TIP3   OH224567   6.191   2.702   7.542
 1003TIP3    H124568   6.255   2.771   7.554
 1003TIP3    H224569   6.113   2.747   7.510
 1004TIP3   OH224570   2.327   0.809   1.801
 1004TIP3    H124571   2.417   0.809   1.834
 1004TIP3    H224572   2.307   0.716   1.790
 1005TIP3   OH224573   6.883   6.756   1.684
 1005TIP3    H124574   0.066   6.774   1.621
 1005TIP3    H224575   0.028   6.791   1.767
 1006TIP3   OH224576   6.798   3.854   0.189
 1006TIP3    H124577   6.771   3.945   0.199
 1006TIP3    H224578   6.751   3.807   0.258
 1007TIP3   OH224579   3.768   2.181   7.239
 1007TIP3    H124580   3.827   2.231   7.296
 1007TIP3    H224581   3.720   2.124   7.299
 1008TIP3   OH224582   5.747   0.380   6.846
 1008TIP3    H124583   5.831   0.366   6.802
 1008TIP3    H224584   5.755   0.467   6.885
 1009TIP3   OH224585   6.323   3.838   0.570
 1009TIP3    H124586   6.374   3.757   0.578
 1009TIP3    H224587   6.324   3.859   0.477
 1010TIP3   OH224588   2.017   6.852   7.752
 1010TIP3    H124589   2.101   0.010   7.763
 1010TIP3    H224590   1.952   0.034   7.761
 1011TIP3   OH224591   4.001   0.673   2.400
 1011TIP3    H124592   4.063   0.603   2.382
 1011TIP3    H224593   3.929   0.658   2.339
 1012TIP3   OH224594   4.896   5.503   7.639
 1012TIP3    H124595   4.949   5.470   7.567
 1012TIP3    H224596   4.856   5.584   7.605
 1013TIP3   OH224597   5.703   0.725   7.066
 1013TIP3    H124598   5.631   0.768   7.112
 1013TIP3    H224599   5.726   0.786   6.996
 1014TIP3   OH224600   4.478   3.826   7.502
 1014TIP3    H124601   4.456   3.919   7.495
 1014TIP3    H224602   4.405   3.788   7.552
 1015TIP3   OH224603   2.677   4.214   0.395
 1015TIP3    H124604   2.626   4.235   0.473
 1015TIP3    H224605   2.720   4.131   0.415
 1016TIP3   OH224606   4.898   0.212   1.159
 1016TIP3    H124607   4.953   0.291   1.165
 1016TIP3    H224608   4.827   0.228   1.220
 1017TIP3   OH224609   0.595   4.868   7.969
 1017TIP3    H124610   0.632   4.831   8.049
 1017TIP3    H224611   0.593   4.963   7.985
 1018TIP3   OH224612   2.185   6.716   1.547
 1018TIP3    H124613   2.280   6.710   1.544
 1018TIP3    H224614   2.166   6.761   1.629
 1019TIP3   OH224615   0.804   2.049   0.837
 1019TIP3    H124616   0.873   2.115   0.844
 1019TIP3    H224617   0.818   1.992   0.912
 1020TIP3   OH224618   6.860   1.185   0.397
 1020TIP3    H124619   0.034   1.170   0.325
 1020TIP3    H224620   6.866   1.106   0.451
 1021TIP3   OH224621   3.137   0.959   8.223
 1021TIP3    H124622   3.081   0.999   8.157
 1021TIP3    H224623   3.172   1.033   8.273
 1022TIP3   OH224624   6.501   2.291   7.598
 1022TIP3    H124625   6.447   2.248   7.531
 1022TIP3    H224626   6.548   2.359   7.550
 1023TIP3   OH224627   6.740   2.677   6.975
 1023TIP3    H124628   6.706   2.587   6.969
 1023TIP3    H224629   6.812   2.679   6.912
 1024TIP3   OH224630   5.622   5.573   1.535
 1024TIP3    H124631   5.543   5.580   1.589
 1024TIP3    H224632   5.681   5.517   1.585
 1025TIP3   OH224633   5.830   3.629   8.119
 1025TIP3    H124634   5.920   3.627   8.085
 1025TIP3    H224635   5.776   3.650   8.043
 1026TIP3   OH224636   1.225   0.641   6.622
 1026TIP3    H124637   1.262   0.581   6.558
 1026TIP3    H224638   1.130   0.634   6.611
 1027TIP3   OH224639   0.503   0.009   1.607
 1027TIP3    H124640   0.559   6.828   1.571
 1027TIP3    H224641   0.496   0.074   1.537
 1028TIP3   OH224642   0.358   0.092   1.318
 1028TIP3    H124643   0.274   0.088   1.273
 1028TIP3    H224644   0.337   0.123   1.406
 1029TIP3   OH224645   1.128   5.346   2.188
 1029TIP3    H124646   1.147   5.257   2.156
 1029TIP3    H224647   1.106   5.334   2.280
 1030TIP3   OH224648   5.957   0.807   1.447
 1030TIP3    H124649   5.987   0.751   1.376
 1030TIP3    H224650   5.931   0.888   1.405
 1031TIP3   OH224651   6.392   3.472   6.414
 1031TIP3    H124652   6.470   3.489   6.468
 1031TIP3    H224653   6.319   3.498   6.469
 1032TIP3   OH224654   1.335   3.530   1.142
 1032TIP3    H124655   1.253   3.498   1.106
 1032TIP3    H224656   1.358   3.466   1.210
 1033TIP3   OH224657   6.223   5.170   7.673
 1033TIP3    H124658   6.248   5.137   7.760
 1033TIP3    H224659   6.237   5.096   7.614
 1034TIP3   OH224660   5.312   1.700   7.549
 1034TIP3    H124661   5.373   1.773   7.543
 1034TIP3    H224662   5.324   1.651   7.467
 1035TIP3   OH224663   3.465   6.063   7.716
 1035TIP3    H124664   3.519   6.004   7.664
 1035TIP3    H224665   3.385   6.014   7.733
 1036TIP3   OH224666   4.936   6.275   6.602
 1036TIP3    H124667   4.958   6.189   6.566
 1036TIP3    H224668   4.841   6.281   6.594
 1037TIP3   OH224669   4.500   1.831   7.230
 1037TIP3    H124670   4.475   1.739   7.218
 1037TIP3    H224671   4.536   1.835   7.318
 1038TIP3   OH224672   3.474   0.144   7.883
 1038TIP3    H124673   3.384   0.164   7.907
 1038TIP3    H224674   3.524   0.160   7.963
 1039TIP3   OH224675   6.178   4.407   7.067
 1039TIP3    H124676   6.240   4.409   6.994
 1039TIP3    H224677   6.149   4.316   7.070
 1040TIP3   OH224678   0.744   6.650   6.276
 1040TIP3    H124679   0.811   6.594   6.314
 1040TIP3    H224680   0.664   6.630   6.325
 1041TIP3   OH224681   4.912   1.253   7.366
 1041TIP3    H124682   4.819   1.265   7.389
 1041TIP3    H224683   4.911   1.223   7.276
 1042TIP3   OH224684   1.701   2.285   8.101
 1042TIP3    H124685   1.655   2.278   8.018
 1042TIP3    H224686   1.632   2.287   8.167
 1043TIP3   OH224687   5.504   2.550   2.103
 1043TIP3    H124688   5.491   2.531   2.196
 1043TIP3    H224689   5.451   2.484   2.057
 1044TIP3   OH224690   6.851   5.323   0.889
 1044TIP3    H124691   6.879   5.262   0.821
 1044TIP3    H224692   0.025   5.307   0.962
 1045TIP3   OH224693   4.491   0.856   2.292
 1045TIP3    H124694   4.537   0.776   2.315
 1045TIP3    H224695   4.500   0.863   2.197
 1046TIP3   OH224696   4.411   0.404   0.023
 1046TIP3    H124697   4.393   0.447   0.107
 1046TIP3    H224698   4.431   0.313   0.046
 1047TIP3   OH224699   2.298   2.050   6.441
 1047TIP3    H124700   2.296   2.034   6.347
 1047TIP3    H224701   2.207   2.070   6.465
 1048TIP3   OH224702   3.712   4.239   8.012
 1048TIP3    H124703   3.649   4.269   8.077
 1048TIP3    H224704   3.678   4.272   7.929
 1049TIP3   OH224705   0.533   5.610   1.571
 1049TIP3    H124706   0.441   5.638   1.570
 1049TIP3    H224707   0.558   5.616   1.663
 1050TIP3   OH224708   6.335   0.157   1.133
 1050TIP3    H124709   6.408   0.207   1.170
 1050TIP3    H224710   6.274   0.147   1.206
 1051TIP3   OH224711   0.659   1.866   7.652
 1051TIP3    H124712   0.581   1.811   7.651
 1051TIP3    H224713   0.666   1.899   7.562
 1052TIP3   OH224714   5.382   2.489   7.117
 1052TIP3    H124715   5.425   2.408   7.088
 1052TIP3    H224716   5.363   2.474   7.209
 1053TIP3   OH224717   1.748   2.218   8.472
 1053TIP3    H124718   1.695   2.295   8.490
 1053TIP3    H224719   1.823   2.251   8.422
 1054TIP3   OH224720   5.735   1.096   0.018
 1054TIP3    H124721   5.719   1.036   8.559
 1054TIP3    H224722   5.804   1.054   0.069
 1055TIP3   OH224723   5.636   2.517   1.324
 1055TIP3    H124724   5.620   2.504   1.417
 1055TIP3    H224725   5.557   2.482   1.281
 1056TIP3   OH224726   1.560   3.590   8.406
 1056TIP3    H124727   1.632   3.547   8.453
 1056TIP3    H224728   1.603   3.640   8.337
 1057TIP3   OH224729   0.532   0.316   7.429
 1057TIP3    H124730   0.561   0.332   7.340
 1057TIP3    H224731   0.612   0.296   7.478
 1058TIP3   OH224732   0.277   3.721   7.943
 1058TIP3    H124733   0.349   3.770   7.901
 1058TIP3    H224734   0.321   3.657   7.998
 1059TIP3   OH224735   1.934   2.131   8.157
 1059TIP3    H124736   1.867   2.197   8.142
 1059TIP3    H224737   1.929   2.075   8.079
 1060TIP3   OH224738   5.516   5.304   7.911
 1060TIP3    H124739   5.561   5.372   7.961
 1060TIP3    H224740   5.426   5.308   7.941
 1061TIP3   OH224741   3.170   2.959   7.432
 1061TIP3    H124742   3.201   3.031   7.487
 1061TIP3    H224743   3.121   3.002   7.362
 1062TIP3   OH224744   2.138   2.047   0.228
 1062TIP3    H124745   2.072   2.066   0.162
 1062TIP3    H224746   2.196   2.123   0.228
 1063TIP3   OH224747   5.512   3.253   1.528
 1063TIP3    H124748   5.605   3.239   1.548
 1063TIP3    H224749   5.508   3.257   1.433
 1064TIP3   OH224750   2.779   3.819   1.795
 1064TIP3    H124751   2.828   3.738   1.806
 1064TIP3    H224752   2.768   3.828   1.700
 1065TIP3   OH224753   4.752   3.702   8.323
 1065TIP3    H124754   4.716   3.736   8.241
 1065TIP3    H224755   4.726   3.610   8.325
 1066TIP3   OH224756   0.027   3.889   1.090
 1066TIP3    H124757   0.100   3.830   1.070
 1066TIP3    H224758   6.836   3.840   1.062
 1067TIP3   OH224759   5.244   2.429   2.029
 1067TIP3    H124760   5.158   2.460   2.000
 1067TIP3    H224761   5.225   2.365   2.098
 1068TIP3   OH224762   3.453   4.186   7.783
 1068TIP3    H124763   3.388   4.121   7.755
 1068TIP3    H224764   3.402   4.253   7.829
 1069TIP3   OH224765   4.553   4.198   1.297
 1069TIP3    H124766   4.543   4.189   1.202
 1069TIP3    H224767   4.493   4.134   1.334
 1070TIP3   OH224768   0.849   6.402   1.735
 1070TIP3    H124769   0.831   6.413   1.828
 1070TIP3    H224770   0.883   6.313   1.726
 1071TIP3   OH224771   5.410   1.136   0.591
 1071TIP3    H124772   5.501   1.152   0.615
 1071TIP3    H224773   5.413   1.114   0.498
 1072TIP3   OH224774   0.705   5.021   6.790
 1072TIP3    H124775   0.777   5.058   6.840
 1072TIP3    H224776   0.726   4.928   6.783
 1073TIP3   OH224777   6.454   0.572   7.494
 1073TIP3    H124778   6.467   0.579   7.588
 1073TIP3    H224779   6.394   0.644   7.473
 1074TIP3   OH224780   3.261   0.327   7.919
 1074TIP3    H124781   3.209   0.388   7.971
 1074TIP3    H224782   3.199   0.257   7.895
 1075TIP3   OH224783   1.016   6.473   0.130
 1075TIP3    H124784   1.111   6.490   0.126
 1075TIP3    H224785   0.980   6.549   0.176
 1076TIP3   OH224786   4.341   4.353   0.485
 1076TIP3    H124787   4.370   4.437   0.522
 1076TIP3    H224788   4.384   4.287   0.540
 1077TIP3   OH224789   2.589   6.323   0.882
 1077TIP3    H124790   2.524   6.393   0.877
 1077TIP3    H224791   2.578   6.274   0.800
 1078TIP3   OH224792   4.354   3.751   8.466
 1078TIP3    H124793   4.389   3.706   8.543
 1078TIP3    H224794   4.413   3.825   8.453
 1079TIP3   OH224795   4.766   0.646   7.268
 1079TIP3    H124796   4.711   0.719   7.297
 1079TIP3    H224797   4.812   0.680   7.191
 1080TIP3   OH224798   2.848   0.916   1.826
 1080TIP3    H124799   2.878   1.006   1.813
 1080TIP3    H224800   2.794   0.920   1.905
 1081TIP3   OH224801   6.084   3.445   7.513
 1081TIP3    H124802   6.167   3.487   7.492
 1081TIP3    H224803   6.032   3.513   7.555
 1082TIP3   OH224804   3.248   5.875   0.613
 1082TIP3    H124805   3.338   5.862   0.583
 1082TIP3    H224806   3.226   5.795   0.660
 1083TIP3   OH224807   0.857   1.093   0.606
 1083TIP3    H124808   0.853   1.091   0.702
 1083TIP3    H224809   0.802   1.168   0.582
 1084TIP3   OH224810   0.183   3.454   0.419
 1084TIP3    H124811   0.097   3.477   0.384
 1084TIP3    H224812   0.177   3.476   0.512
 1085TIP3   OH224813   0.728   3.568   2.295
 1085TIP3    H124814   0.700   3.587   2.384
 1085TIP3    H224815   0.651   3.527   2.254
 1086TIP3   OH224816   1.552   0.976   0.708
 1086TIP3    H124817   1.565   1.048   0.647
 1086TIP3    H224818   1.558   0.897   0.654
 1087TIP3   OH224819   2.323   6.758   1.012
 1087TIP3    H124820   2.390   6.694   1.036
 1087TIP3    H224821   2.323   6.758   0.916
 1088TIP3   OH224822   4.258   0.298   6.465
 1088TIP3    H124823   4.349   0.317   6.485
 1088TIP3    H224824   4.214   0.383   6.468
 1089TIP3   OH224825   2.969   3.013   0.031
 1089TIP3    H124826   3.053   2.971   0.050
 1089TIP3    H224827   2.982   3.054   8.560
 1090TIP3   OH224828   3.723   1.547   0.780
 1090TIP3    H124829   3.788   1.495   0.733
 1090TIP3    H224830   3.650   1.487   0.794
 1091TIP3   OH224831   0.480   6.033   6.651
 1091TIP3    H124832   0.571   6.023   6.681
 1091TIP3    H224833   0.447   5.944   6.645
 1092TIP3   OH224834   6.086   5.915   6.642
 1092TIP3    H124835   6.030   5.844   6.671
 1092TIP3    H224836   6.159   5.915   6.703
 1093TIP3   OH224837   4.549   5.809   8.041
 1093TIP3    H124838   4.606   5.741   8.078
 1093TIP3    H224839   4.609   5.878   8.014
 1094TIP3   OH224840   4.687   0.533   0.420
 1094TIP3    H124841   4.692   0.545   0.325
 1094TIP3    H224842   4.627   0.602   0.449
 1095TIP3   OH224843   1.042   6.610   2.181
 1095TIP3    H124844   1.123   6.647   2.146
 1095TIP3    H224845   0.972   6.652   2.130
 1096TIP3   OH224846   5.044   6.423   6.150
 1096TIP3    H124847   4.974   6.397   6.210
 1096TIP3    H224848   5.006   6.414   6.063
 1097TIP3   OH224849   1.982   6.318   6.339
 1097TIP3    H124850   2.055   6.365   6.298
 1097TIP3    H224851   1.903   6.358   6.303
 1098TIP3   OH224852   0.076   1.178   7.085
 1098TIP3    H124853   0.115   1.257   7.050
 1098TIP3    H224854   0.062   1.197   7.178
 1099TIP3   OH224855   2.367   5.454   0.064
 1099TIP3    H124856   2.343   5.428   8.589
 1099TIP3    H224857   2.430   5.388   0.093
 1100TIP3   OH224858   6.547   3.030   1.505
 1100TIP3    H124859   6.603   3.075   1.441
 1100TIP3    H224860   6.594   2.949   1.524
 1101TIP3   OH224861   3.717   3.956   8.159
 1101TIP3    H124862   3.693   3.930   8.248
 1101TIP3    H224863   3.637   3.945   8.108
 1102TIP3   OH224864   6.154   6.575   1.133
 1102TIP3    H124865   6.245   6.545   1.130
 1102TIP3    H224866   6.103   6.499   1.106
 1103TIP3   OH224867   1.613   6.552   7.098
 1103TIP3    H124868   1.604   6.457   7.099
 1103TIP3    H224869   1.703   6.568   7.126
 1104TIP3   OH224870   5.063   4.107   0.888
 1104TIP3    H124871   5.128   4.178   0.885
 1104TIP3    H224872   5.071   4.071   0.977
 1105TIP3   OH224873   4.562   4.458   7.869
 1105TIP3    H124874   4.500   4.473   7.798
 1105TIP3    H224875   4.648   4.465   7.829
 1106TIP3   OH224876   1.305   4.848   0.721
 1106TIP3    H124877   1.258   4.893   0.790
 1106TIP3    H224878   1.352   4.917   0.674
 1107TIP3   OH224879   5.307   1.136   1.017
 1107TIP3    H124880   5.388   1.163   0.974
 1107TIP3    H224881   5.336   1.075   1.085
 1108TIP3   OH224882   6.629   4.200   1.641
 1108TIP3    H124883   6.686   4.124   1.629
 1108TIP3    H224884   6.633   4.219   1.735
 1109TIP3   OH224885   1.565   6.839   1.380
 1109TIP3    H124886   1.591   0.043   1.393
 1109TIP3    H224887   1.543   6.834   1.287
 1110TIP3   OH224888   6.160   5.076   1.144
 1110TIP3    H124889   6.201   5.063   1.058
 1110TIP3    H224890   6.088   5.137   1.127
 1111TIP3   OH224891   0.426   3.149   1.207
 1111TIP3    H124892   0.345   3.200   1.202
 1111TIP3    H224893   0.485   3.192   1.145
 1112TIP3   OH224894   1.356   3.433   6.779
 1112TIP3    H124895   1.441   3.442   6.736
 1112TIP3    H224896   1.308   3.370   6.726
 1113TIP3   OH224897   1.456   3.288   1.856
 1113TIP3    H124898   1.449   3.214   1.917
 1113TIP3    H224899   1.544   3.322   1.871
 1114TIP3   OH224900   6.649   6.566   1.315
 1114TIP3    H124901   6.731   6.516   1.317
 1114TIP3    H224902   6.652   6.614   1.232
 1115TIP3   OH224903   5.877   1.782   1.085
 1115TIP3    H124904   5.970   1.764   1.069
 1115TIP3    H224905   5.847   1.826   1.005
 1116TIP3   OH224906   3.351   2.047   7.252
 1116TIP3    H124907   3.355   2.050   7.347
 1116TIP3    H224908   3.409   2.117   7.223
 1117TIP3   OH224909   5.676   6.208   6.386
 1117TIP3    H124910   5.673   6.113   6.372
 1117TIP3    H224911   5.613   6.243   6.324
 1118TIP3   OH224912   2.077   6.764   1.802
 1118TIP3    H124913   2.136   6.839   1.802
 1118TIP3    H224914   1.997   6.797   1.844
 1119TIP3   OH224915   5.500   3.703   1.680
 1119TIP3    H124916   5.511   3.741   1.767
 1119TIP3    H224917   5.408   3.721   1.658
 1120TIP3   OH224918   3.894   3.225   7.205
 1120TIP3    H124919   3.928   3.314   7.197
 1120TIP3    H224920   3.874   3.198   7.116
 1121TIP3   OH224921   5.945   6.770   0.401
 1121TIP3    H124922   5.895   6.848   0.424
 1121TIP3    H224923   5.889   6.697   0.427
 1122TIP3   OH224924   1.281   3.544   1.461
 1122TIP3    H124925   1.302   3.534   1.554
 1122TIP3    H224926   1.218   3.616   1.458
 1123TIP3   OH224927   4.312   5.300   0.966
 1123TIP3    H124928   4.403   5.277   0.947
 1123TIP3    H224929   4.310   5.312   1.061
 1124TIP3   OH224930   4.910   4.497   2.153
 1124TIP3    H124931   4.925   4.523   2.244
 1124TIP3    H224932   4.846   4.426   2.159
 1125TIP3   OH224933   0.893   2.911   2.396
 1125TIP3    H124934   0.878   2.941   2.307
 1125TIP3    H224935   0.933   2.987   2.441
 1126TIP3   OH224936   2.782   0.309   7.963
 1126TIP3    H124937   2.827   0.295   7.880
 1126TIP3    H224938   2.850   0.301   8.029
 1127TIP3   OH224939   1.210   6.371   7.045
 1127TIP3    H124940   1.145   6.410   7.104
 1127TIP3    H224941   1.183   6.398   6.958
 1128TIP3   OH224942   1.280   1.311   0.985
 1128TIP3    H124943   1.238   1.396   0.997
 1128TIP3    H224944   1.366   1.321   1.026
 1129TIP3   OH224945   0.339   3.667   1.693
 1129TIP3    H124946   0.407   3.642   1.631
 1129TIP3    H224947   0.339   3.762   1.693
 1130TIP3   OH224948   3.084   3.421   7.490
 1130TIP3    H124949   3.168   3.417   7.536
 1130TIP3    H224950   3.025   3.367   7.544
 1131TIP3   OH224951   4.946   0.603   8.160
 1131TIP3    H124952   5.001   0.541   8.207
 1131TIP3    H224953   5.007   0.669   8.127
 1132TIP3   OH224954   6.774   3.513   8.603
 1132TIP3    H124955   6.751   3.442   0.049
 1132TIP3    H224956   6.691   3.554   8.581
 1133TIP3   OH224957   6.837   4.572   7.776
 1133TIP3    H124958   6.875   4.488   7.750
 1133TIP3    H224959   6.768   4.549   7.838
 1134TIP3   OH224960   2.685   4.011   7.044
 1134TIP3    H124961   2.685   3.951   7.118
 1134TIP3    H224962   2.777   4.015   7.017
 1135TIP3   OH224963   4.747   5.058   0.442
 1135TIP3    H124964   4.837   5.024   0.450
 1135TIP3    H224965   4.727   5.052   0.349
 1136TIP3   OH224966   1.492   4.845   8.104
 1136TIP3    H124967   1.435   4.774   8.075
 1136TIP3    H224968   1.493   4.837   8.200
 1137TIP3   OH224969   2.748   3.981   0.004
 1137TIP3    H124970   2.731   3.887   0.006
 1137TIP3    H224971   2.723   4.008   8.530
 1138TIP3   OH224972   3.358   4.516   2.121
 1138TIP3    H124973   3.364   4.469   2.205
 1138TIP3    H224974   3.367   4.447   2.055
 1139TIP3   OH224975   4.317   4.441   2.190
 1139TIP3    H124976   4.357   4.470   2.272
 1139TIP3    H224977   4.361   4.359   2.169
 1140TIP3   OH224978   2.996   5.284   1.400
 1140TIP3    H124979   2.935   5.234   1.454
 1140TIP3    H224980   3.064   5.312   1.461
 1141TIP3   OH224981   2.574   1.664   6.922
 1141TIP3    H124982   2.644   1.718   6.885
 1141TIP3    H224983   2.531   1.626   6.846
 1142TIP3   OH224984   5.317   5.619   1.955
 1142TIP3    H124985   5.326   5.643   2.047
 1142TIP3    H224986   5.227   5.643   1.932
 1143TIP3   OH224987   4.372   4.640   7.214
 1143TIP3    H124988   4.300   4.631   7.152
 1143TIP3    H224989   4.451   4.624   7.163
 1144TIP3   OH224990   4.849   6.815   8.493
 1144TIP3    H124991   4.911   6.881   8.460
 1144TIP3    H224992   4.842   6.834   8.587
 1145TIP3   OH224993   5.617   4.365   1.454
 1145TIP3    H124994   5.554   4.411   1.510
 1145TIP3    H224995   5.680   4.327   1.516
 1146TIP3   OH224996   6.501   5.466   0.739
 1146TIP3    H124997   6.420   5.482   0.788
 1146TIP3    H224998   6.533   5.553   0.718
 1147TIP3   OH224999   1.766   4.048   6.816
 1147TIP3    H125000   1.823   4.109   6.771
 1147TIP3    H225001   1.679   4.089   6.813
 1148TIP3   OH225002   1.378   1.626   1.005
 1148TIP3    H125003   1.395   1.561   1.073
 1148TIP3    H225004   1.465   1.651   0.973
 1149TIP3   OH225005   5.361   6.436   1.998
 1149TIP3    H125006   5.411   6.468   2.073
 1149TIP3    H225007   5.333   6.348   2.024
 1150TIP3   OH225008   1.279   5.509   2.486
 1150TIP3    H125009   1.352   5.532   2.428
 1150TIP3    H225010   1.236   5.593   2.504
 1151TIP3   OH225011   3.863   0.529   6.575
 1151TIP3    H125012   3.849   0.434   6.585
 1151TIP3    H225013   3.790   0.558   6.521
 1152TIP3   OH225014   1.203   6.113   8.147
 1152TIP3    H125015   1.142   6.041   8.134
 1152TIP3    H225016   1.239   6.099   8.235
 1153TIP3   OH225017   0.307   1.013   1.937
 1153TIP3    H125018   0.310   1.092   1.884
 1153TIP3    H225019   0.247   1.034   2.009
 1154TIP3   OH225020   5.570   3.834   7.433
 1154TIP3    H125021   5.527   3.876   7.359
 1154TIP3    H225022   5.643   3.785   7.394
 1155TIP3   OH225023   1.627   2.982   2.337
 1155TIP3    H125024   1.577   3.003   2.258
 1155TIP3    H225025   1.593   3.042   2.403
 1156TIP3   OH225026   4.651   1.723   8.091
 1156TIP3    H125027   4.676   1.669   8.166
 1156TIP3    H225028   4.733   1.762   8.060
 1157TIP3   OH225029   2.075   1.432   7.092
 1157TIP3    H125030   2.118   1.516   7.080
 1157TIP3    H225031   2.063   1.397   7.003
 1158TIP3   OH225032   6.818   3.045   0.122
 1158TIP3    H125033   0.021   3.067   0.097
 1158TIP3    H225034   6.797   2.967   0.071
 1159TIP3   OH225035   3.778   6.674   6.351
 1159TIP3    H125036   3.851   6.619   6.379
 1159TIP3    H225037   3.718   6.673   6.426
 1160TIP3   OH225038   1.151   1.491   7.954
 1160TIP3    H125039   1.116   1.580   7.961
 1160TIP3    H225040   1.110   1.456   7.875
 1161TIP3   OH225041   4.167   2.002   2.326
 1161TIP3    H125042   4.141   2.089   2.295
 1161TIP3    H225043   4.187   2.014   2.418
 1162TIP3   OH225044   1.176   1.450   7.098
 1162TIP3    H125045   1.181   1.522   7.035
 1162TIP3    H225046   1.082   1.434   7.107
 1163TIP3   OH225047   1.306   4.700   7.373
 1163TIP3    H125048   1.325   4.775   7.429
 1163TIP3    H225049   1.368   4.633   7.402
 1164TIP3   OH225050   3.310   2.479   8.543
 1164TIP3    H125051   3.336   2.570   8.554
 1164TIP3    H225052   3.382   2.439   8.493
 1165TIP3   OH225053   3.601   4.557   8.525
 1165TIP3    H125054   3.602   4.596   8.613
 1165TIP3    H225055   3.568   4.468   8.539
 1166TIP3   OH225056   3.466   2.257   6.865
 1166TIP3    H125057   3.446   2.303   6.784
 1166TIP3    H225058   3.382   2.225   6.896
 1167TIP3   OH225059   4.792   1.049   0.032
 1167TIP3    H125060   4.761   0.998   8.571
 1167TIP3    H225061   4.888   1.040   0.029
 1168TIP3   OH225062   5.658   5.051   7.425
 1168TIP3    H125063   5.646   5.104   7.503
 1168TIP3    H225064   5.601   4.975   7.438
 1169TIP3   OH225065   5.258   1.782   1.039
 1169TIP3    H125066   5.330   1.816   1.092
 1169TIP3    H225067   5.196   1.746   1.102
 1170TIP3   OH225068   2.465   3.116   2.014
 1170TIP3    H125069   2.502   3.034   2.046
 1170TIP3    H225070   2.492   3.120   1.922
 1171TIP3   OH225071   3.851   0.610   0.224
 1171TIP3    H125072   3.886   0.687   0.179
 1171TIP3    H225073   3.758   0.627   0.232
 1172TIP3   OH225074   2.748   0.627   7.915
 1172TIP3    H125075   2.725   0.687   7.986
 1172TIP3    H225076   2.726   0.540   7.949
 1173TIP3   OH225077   2.316   0.600   0.180
 1173TIP3    H125078   2.285   0.632   0.095
 1173TIP3    H225079   2.266   0.650   0.244
 1174TIP3   OH225080   5.129   4.528   0.699
 1174TIP3    H125081   5.044   4.562   0.726
 1174TIP3    H225082   5.123   4.521   0.603
 1175TIP3   OH225083   1.939   4.036   1.137
 1175TIP3    H125084   2.018   4.037   1.084
 1175TIP3    H225085   1.917   4.128   1.150
 1176TIP3   OH225086   2.535   3.356   7.266
 1176TIP3    H125087   2.480   3.356   7.187
 1176TIP3    H225088   2.623   3.336   7.233
 1177TIP3   OH225089   1.949   4.295   0.351
 1177TIP3    H125090   1.869   4.338   0.321
 1177TIP3    H225091   1.922   4.242   0.425
 1178TIP3   OH225092   2.789   6.286   7.368
 1178TIP3    H125093   2.694   6.279   7.379
 1178TIP3    H225094   2.817   6.347   7.436
 1179TIP3   OH225095   1.297   1.192   8.273
 1179TIP3    H125096   1.378   1.219   8.316
 1179TIP3    H225097   1.244   1.154   8.344
 1180TIP3   OH225098   3.661   1.821   0.746
 1180TIP3    H125099   3.692   1.854   0.830
 1180TIP3    H225100   3.665   1.725   0.755
 1181TIP3   OH225101   5.223   0.046   7.391
 1181TIP3    H125102   5.220   0.093   7.308
 1181TIP3    H225103   5.268   0.106   7.451
 1182TIP3   OH225104   1.721   3.884   1.084
 1182TIP3    H125105   1.789   3.942   1.116
 1182TIP3    H225106   1.719   3.812   1.148
 1183TIP3   OH225107   3.339   2.759   1.098
 1183TIP3    H125108   3.380   2.815   1.033
 1183TIP3    H225109   3.291   2.819   1.155
 1184TIP3   OH225110   1.780   0.579   6.934
 1184TIP3    H125111   1.818   0.633   6.864
 1184TIP3    H225112   1.711   0.529   6.890
 1185TIP3   OH225113   2.407   3.306   1.685
 1185TIP3    H125114   2.477   3.369   1.667
 1185TIP3    H225115   2.453   3.224   1.707
 1186TIP3   OH225116   5.654   1.680   8.213
 1186TIP3    H125117   5.634   1.635   8.132
 1186TIP3    H225118   5.605   1.632   8.280
 1187TIP3   OH225119   5.501   5.697   0.893
 1187TIP3    H125120   5.503   5.789   0.866
 1187TIP3    H225121   5.468   5.651   0.816
 1188TIP3   OH225122   3.344   1.653   0.763
 1188TIP3    H125123   3.251   1.669   0.782
 1188TIP3    H225124   3.372   1.595   0.834
 1189TIP3   OH225125   4.972   0.282   7.857
 1189TIP3    H125126   5.044   0.247   7.909
 1189TIP3    H225127   4.899   0.289   7.918
 1190TIP3   OH225128   5.285   1.050   7.560
 1190TIP3    H125129   5.298   1.031   7.467
 1190TIP3    H225130   5.257   0.967   7.598
 1191TIP3   OH225131   6.061   1.052   1.623
 1191TIP3    H125132   6.049   0.973   1.676
 1191TIP3    H225133   6.011   1.036   1.543
 1192TIP3   OH225134   2.157   2.844   7.595
 1192TIP3    H125135   2.097   2.876   7.662
 1192TIP3    H225136   2.100   2.812   7.525
 1193TIP3   OH225137   6.761   1.207   6.892
 1193TIP3    H125138   6.840   1.217   6.945
 1193TIP3    H225139   6.792   1.217   6.802
 1194TIP3   OH225140   3.208   3.691   7.756
 1194TIP3    H125141   3.301   3.700   7.776
 1194TIP3    H225142   3.202   3.709   7.662
 1195TIP3   OH225143   0.643   5.473   0.846
 1195TIP3    H125144   0.584   5.548   0.857
 1195TIP3    H225145   0.718   5.509   0.797
 1196TIP3   OH225146   6.197   4.328   2.205
 1196TIP3    H125147   6.186   4.395   2.273
 1196TIP3    H225148   6.176   4.246   2.249
 1197TIP3   OH225149   6.713   3.516   1.659
 1197TIP3    H125150   6.721   3.430   1.618
 1197TIP3    H225151   6.636   3.555   1.617
 1198TIP3   OH225152   0.101   2.168   6.437
 1198TIP3    H125153   0.147   2.090   6.406
 1198TIP3    H225154   0.143   2.241   6.390
 1199TIP3   OH225155   6.606   4.347   1.904
 1199TIP3    H125156   6.511   4.342   1.903
 1199TIP3    H225157   6.625   4.440   1.888
 1200TIP3   OH225158   5.391   2.395   1.231
 1200TIP3    H125159   5.314   2.411   1.285
 1200TIP3    H225160   5.363   2.417   1.142
 1201TIP3   OH225161   3.604   4.412   6.044
 1201TIP3    H125162   3.672   4.359   6.086
 1201TIP3    H225163   3.529   4.353   6.036
 1202TIP3   OH225164   1.940   4.361   7.153
 1202TIP3    H125165   1.941   4.403   7.067
 1202TIP3    H225166   1.897   4.277   7.139
 1203TIP3   OH225167   4.397   5.586   1.853
 1203TIP3    H125168   4.401   5.605   1.947
 1203TIP3    H225169   4.309   5.553   1.838
 1204TIP3   OH225170   3.220   3.356   1.594
 1204TIP3    H125171   3.261   3.287   1.543
 1204TIP3    H225172   3.289   3.385   1.654
 1205TIP3   OH225173   1.692   5.741   6.939
 1205TIP3    H125174   1.693   5.836   6.947
 1205TIP3    H225175   1.766   5.721   6.881
 1206TIP3   OH225176   2.245   6.377   0.391
 1206TIP3    H125177   2.321   6.328   0.360
 1206TIP3    H225178   2.184   6.376   0.318
 1207TIP3   OH225179   1.062   2.545   6.635
 1207TIP3    H125180   0.970   2.560   6.612
 1207TIP3    H225181   1.102   2.632   6.633
 1208TIP3   OH225182   2.810   1.797   6.825
 1208TIP3    H125183   2.759   1.854   6.768
 1208TIP3    H225184   2.894   1.787   6.780
 1209TIP3   OH225185   0.721   1.641   2.133
 1209TIP3    H125186   0.657   1.673   2.196
 1209TIP3    H225187   0.751   1.719   2.087
 1210TIP3   OH225188   5.523   4.296   7.562
 1210TIP3    H125189   5.463   4.279   7.635
 1210TIP3    H225190   5.498   4.382   7.530
 1211TIP3   OH225191   2.000   3.414   0.058
 1211TIP3    H125192   2.013   3.426   0.153
 1211TIP3    H225193   2.081   3.445   0.019
 1212TIP3   OH225194   3.304   2.981   6.296
 1212TIP3    H125195   3.337   2.902   6.339
 1212TIP3    H225196   3.382   3.034   6.280
 1213TIP3   OH225197   5.891   6.461   6.779
 1213TIP3    H125198   5.916   6.385   6.726
 1213TIP3    H225199   5.905   6.433   6.869
 1214TIP3   OH225200   0.178   5.298   7.061
 1214TIP3    H125201   0.271   5.275   7.063
 1214TIP3    H225202   0.150   5.279   6.972
 1215TIP3   OH225203   6.288   2.934   0.529
 1215TIP3    H125204   6.338   2.914   0.607
 1215TIP3    H225205   6.241   3.015   0.551
 1216TIP3   OH225206   2.349   2.283   6.699
 1216TIP3    H125207   2.348   2.332   6.617
 1216TIP3    H225208   2.390   2.342   6.762
 1217TIP3   OH225209   3.427   4.797   2.164
 1217TIP3    H125210   3.389   4.719   2.122
 1217TIP3    H225211   3.403   4.869   2.106
 1218TIP3   OH225212   0.820   1.928   7.873
 1218TIP3    H125213   0.764   1.916   7.796
 1218TIP3    H225214   0.793   2.013   7.909
 1219TIP3   OH225215   5.018   1.291   0.403
 1219TIP3    H125216   5.057   1.208   0.430
 1219TIP3    H225217   5.021   1.289   0.308
 1220TIP3   OH225218   5.584   5.983   0.635
 1220TIP3    H125219   5.633   5.901   0.633
 1220TIP3    H225220   5.581   6.007   0.728
 1221TIP3   OH225221   6.477   5.627   8.094
 1221TIP3    H125222   6.430   5.564   8.040
 1221TIP3    H225223   6.557   5.646   8.044
 1222TIP3   OH225224   4.503   4.102   7.458
 1222TIP3    H125225   4.482   4.141   7.374
 1222TIP3    H225226   4.476   4.168   7.523
 1223TIP3   OH225227   0.811   5.327   7.673
 1223TIP3    H125228   0.887   5.269   7.663
 1223TIP3    H225229   0.736   5.268   7.674
 1224TIP3   OH225230   3.784   0.921   8.219
 1224TIP3    H125231   3.700   0.876   8.209
 1224TIP3    H225232   3.774   0.976   8.297
 1225TIP3   OH225233   3.033   0.148   6.649
 1225TIP3    H125234   3.029   0.238   6.682
 1225TIP3    H225235   3.019   0.094   6.727
 1226TIP3   OH225236   6.834   2.888   2.248
 1226TIP3    H125237   6.828   2.805   2.294
 1226TIP3    H225238   6.781   2.949   2.299
 1227TIP3   OH225239   1.992   0.798   7.187
 1227TIP3    H125240   2.062   0.742   7.221
 1227TIP3    H225241   1.921   0.788   7.250
 1228TIP3   OH225242   3.488   5.526   1.177
 1228TIP3    H125243   3.560   5.567   1.226
 1228TIP3    H225244   3.435   5.599   1.146
 1229TIP3   OH225245   4.421   0.417   0.516
 1229TIP3    H125246   4.485   0.437   0.448
 1229TIP3    H225247   4.372   0.343   0.481
 1230TIP3   OH225248   4.657   0.559   7.532
 1230TIP3    H125249   4.635   0.558   7.438
 1230TIP3    H225250   4.749   0.534   7.535
 1231TIP3   OH225251   4.220   0.601   2.194
 1231TIP3    H125252   4.212   0.515   2.152
 1231TIP3    H225253   4.252   0.582   2.282
 1232TIP3   OH225254   5.822   2.431   6.554
 1232TIP3    H125255   5.911   2.432   6.517
 1232TIP3    H225256   5.827   2.489   6.630
 1233TIP3   OH225257   0.338   0.464   0.456
 1233TIP3    H125258   0.342   0.546   0.406
 1233TIP3    H225259   0.364   0.397   0.393
 1234TIP3   OH225260   1.329   4.367   6.194
 1234TIP3    H125261   1.417   4.397   6.216
 1234TIP3    H225262   1.278   4.447   6.185
 1235TIP3   OH225263   2.022   0.980   1.049
 1235TIP3    H125264   2.079   0.929   0.991
 1235TIP3    H225265   1.938   0.982   1.005
 1236TIP3   OH225266   0.776   2.534   6.931
 1236TIP3    H125267   0.738   2.528   7.018
 1236TIP3    H225268   0.701   2.519   6.872
 1237TIP3   OH225269   3.649   2.792   1.457
 1237TIP3    H125270   3.709   2.737   1.406
 1237TIP3    H225271   3.696   2.875   1.468
 1238TIP3   OH225272   0.775   1.189   8.141
 1238TIP3    H125273   0.867   1.195   8.116
 1238TIP3    H225274   0.777   1.154   8.230
 1239TIP3   OH225275   3.933   0.193   7.690
 1239TIP3    H125276   3.983   0.215   7.769
 1239TIP3    H225277   3.905   0.103   7.705
 1240TIP3   OH225278   3.914   2.369   0.625
 1240TIP3    H125279   3.826   2.336   0.608
 1240TIP3    H225280   3.913   2.460   0.593
 1241TIP3   OH225281   3.473   5.886   6.718
 1241TIP3    H125282   3.410   5.945   6.677
 1241TIP3    H225283   3.547   5.882   6.658
 1242TIP3   OH225284   0.256   1.020   6.944
 1242TIP3    H125285   0.286   1.019   7.035
 1242TIP3    H225286   0.214   1.106   6.933
 1243TIP3   OH225287   3.681   2.217   0.580
 1243TIP3    H125288   3.615   2.220   0.511
 1243TIP3    H225289   3.632   2.199   0.660
 1244TIP3   OH225290   4.049   4.320   2.440
 1244TIP3    H125291   4.028   4.384   2.371
 1244TIP3    H225292   4.068   4.373   2.517
 1245TIP3   OH225293   4.059   2.518   0.980
 1245TIP3    H125294   4.099   2.524   0.893
 1245TIP3    H225295   3.966   2.507   0.963
 1246TIP3   OH225296   6.450   6.620   1.126
 1246TIP3    H125297   6.424   6.633   1.217
 1246TIP3    H225298   6.464   6.708   1.092
 1247TIP3   OH225299   4.062   4.139   8.092
 1247TIP3    H125300   4.092   4.075   8.157
 1247TIP3    H225301   3.985   4.098   8.052
 1248TIP3   OH225302   0.581   4.935   8.373
 1248TIP3    H125303   0.535   4.879   8.436
 1248TIP3    H225304   0.643   4.985   8.426
 1249TIP3   OH225305   2.486   5.998   7.534
 1249TIP3    H125306   2.420   5.942   7.495
 1249TIP3    H225307   2.559   5.996   7.472
 1250TIP3   OH225308   6.695   5.978   8.032
 1250TIP3    H125309   6.681   5.883   8.040
 1250TIP3    H225310   6.622   6.017   8.080
 1251TIP3   OH225311   4.145   5.936   0.352
 1251TIP3    H125312   4.060   5.892   0.363
 1251TIP3    H225313   4.128   6.003   0.286
 1252TIP3   OH225314   0.172   0.921   0.916
 1252TIP3    H125315   0.211   1.009   0.915
 1252TIP3    H225316   0.126   0.917   1.000
 1253TIP3   OH225317   4.478   1.763   7.691
 1253TIP3    H125318   4.471   1.778   7.785
 1253TIP3    H225319   4.543   1.694   7.682
 1254TIP3   OH225320   6.531   0.543   2.743
 1254TIP3    H125321   6.518   0.534   2.837
 1254TIP3    H225322   6.458   0.495   2.704
 1255TIP3   OH225323   2.371   4.224   7.538
 1255TIP3    H125324   2.466   4.225   7.528
 1255TIP3    H225325   2.346   4.316   7.537
 1256TIP3   OH225326   5.554   0.547   1.562
 1256TIP3    H125327   5.604   0.500   1.495
 1256TIP3    H225328   5.592   0.635   1.562
 1257TIP3   OH225329   0.143   4.140   0.040
 1257TIP3    H125330   0.109   4.070   8.599
 1257TIP3    H225331   0.164   4.210   8.593
 1258TIP3   OH225332   4.321   2.300   6.305
 1258TIP3    H125333   4.267   2.320   6.382
 1258TIP3    H225334   4.298   2.368   6.242
 1259TIP3   OH225335   1.401   3.989   6.974
 1259TIP3    H125336   1.379   3.904   6.936
 1259TIP3    H225337   1.404   4.049   6.900
 1260TIP3   OH225338   4.379   6.753   1.408
 1260TIP3    H125339   4.387   6.658   1.419
 1260TIP3    H225340   4.313   6.764   1.340
 1261TIP3   OH225341   1.327   3.682   8.569
 1261TIP3    H125342   1.400   3.742   8.581
 1261TIP3    H225343   1.352   3.604   0.004
 1262TIP3   OH225344   0.000   1.913   1.919
 1262TIP3    H125345   6.808   1.859   1.914
 1262TIP3    H225346   0.017   1.921   2.013
 1263TIP3   OH225347   0.398   0.232   1.868
 1263TIP3    H125348   0.320   0.263   1.913
 1263TIP3    H225349   0.468   0.288   1.900
 1264TIP3   OH225350   1.192   2.575   0.380
 1264TIP3    H125351   1.098   2.559   0.371
 1264TIP3    H225352   1.199   2.628   0.460
 1265TIP3   OH225353   5.499   3.722   0.594
 1265TIP3    H125354   5.519   3.767   0.512
 1265TIP3    H225355   5.556   3.645   0.594
 1266TIP3   OH225356   3.047   1.898   0.648
 1266TIP3    H125357   3.033   1.924   0.557
 1266TIP3    H225358   3.061   1.803   0.644
 1267TIP3   OH225359   5.567   1.875   0.264
 1267TIP3    H125360   5.479   1.874   0.225
 1267TIP3    H225361   5.577   1.790   0.306
 1268TIP3   OH225362   4.052   4.474   2.208
 1268TIP3    H125363   4.145   4.452   2.215
 1268TIP3    H225364   4.032   4.464   2.115
 1269TIP3   OH225365   0.212   2.848   8.059
 1269TIP3    H125366   0.132   2.795   8.062
 1269TIP3    H225367   0.259   2.825   8.140
 1270TIP3   OH225368   4.900   5.974   7.076
 1270TIP3    H125369   4.823   6.009   7.030
 1270TIP3    H225370   4.863   5.928   7.151
 1271TIP3   OH225371   5.277   6.754   0.141
 1271TIP3    H125372   5.255   6.682   0.082
 1271TIP3    H225373   5.325   6.714   0.213
 1272TIP3   OH225374   3.103   0.525   8.054
 1272TIP3    H125375   3.094   0.548   7.961
 1272TIP3    H225376   3.068   0.600   8.101
 1273TIP3   OH225377   3.854   1.800   8.353
 1273TIP3    H125378   3.808   1.719   8.377
 1273TIP3    H225379   3.917   1.773   8.286
 1274TIP3   OH225380   6.209   0.608   6.532
 1274TIP3    H125381   6.175   0.520   6.548
 1274TIP3    H225382   6.274   0.596   6.463
 1275TIP3   OH225383   1.943   5.129   1.834
 1275TIP3    H125384   1.979   5.044   1.808
 1275TIP3    H225385   2.019   5.177   1.868
 1276TIP3   OH225386   1.633   4.204   0.070
 1276TIP3    H125387   1.671   4.274   0.122
 1276TIP3    H225388   1.626   4.130   0.130
 1277TIP3   OH225389   0.739   1.168   8.418
 1277TIP3    H125390   0.715   1.080   8.448
 1277TIP3    H225391   0.797   1.202   8.487
 1278TIP3   OH225392   0.213   1.727   1.223
 1278TIP3    H125393   0.180   1.783   1.292
 1278TIP3    H225394   0.238   1.646   1.267
 1279TIP3   OH225395   5.725   1.999   0.485
 1279TIP3    H125396   5.662   1.957   0.544
 1279TIP3    H225397   5.695   1.974   0.398
 1280TIP3   OH225398   6.337   6.101   2.433
 1280TIP3    H125399   6.325   6.155   2.511
 1280TIP3    H225400   6.352   6.013   2.468
 1281TIP3   OH225401   2.951   3.157   0.993
 1281TIP3    H125402   3.028   3.100   0.983
 1281TIP3    H225403   2.958   3.218   0.920
 1282TIP3   OH225404   3.983   1.316   7.242
 1282TIP3    H125405   3.930   1.381   7.196
 1282TIP3    H225406   3.920   1.267   7.295
 1283TIP3   OH225407   2.057   5.050   8.031
 1283TIP3    H125408   2.103   5.130   8.058
 1283TIP3    H225409   2.066   5.048   7.936
 1284TIP3   OH225410   6.728   2.660   0.165
 1284TIP3    H125411   6.737   2.566   0.182
 1284TIP3    H225412   6.637   2.680   0.185
 1285TIP3   OH225413   4.948   2.388   1.058
 1285TIP3    H125414   4.986   2.377   0.971
 1285TIP3    H225415   5.021   2.419   1.112
 1286TIP3   OH225416   0.411   2.314   1.541
 1286TIP3    H125417   0.318   2.330   1.560
 1286TIP3    H225418   0.422   2.220   1.548
 1287TIP3   OH225419   0.790   4.042   2.026
 1287TIP3    H125420   0.801   3.971   2.088
 1287TIP3    H225421   0.875   4.086   2.023
 1288TIP3   OH225422   2.588   2.305   1.233
 1288TIP3    H125423   2.639   2.311   1.152
 1288TIP3    H225424   2.634   2.240   1.285
 1289TIP3   OH225425   2.953   2.367   1.209
 1289TIP3    H125426   2.959   2.295   1.271
 1289TIP3    H225427   2.940   2.445   1.264
 1290TIP3   OH225428   6.178   1.822   0.276
 1290TIP3    H125429   6.108   1.861   0.224
 1290TIP3    H225430   6.202   1.743   0.228
 1291TIP3   OH225431   3.579   5.750   0.881
 1291TIP3    H125432   3.562   5.667   0.837
 1291TIP3    H225433   3.671   5.746   0.906
 1292TIP3   OH225434   0.600   1.628   7.310
 1292TIP3    H125435   0.584   1.692   7.380
 1292TIP3    H225436   0.513   1.595   7.288
 1293TIP3   OH225437   4.011   0.381   1.174
 1293TIP3    H125438   3.935   0.362   1.118
 1293TIP3    H225439   3.981   0.451   1.232
 1294TIP3   OH225440   4.426   0.291   2.540
 1294TIP3    H125441   4.382   0.206   2.545
 1294TIP3    H225442   4.463   0.294   2.452
 1295TIP3   OH225443   4.712   6.105   1.368
 1295TIP3    H125444   4.634   6.111   1.313
 1295TIP3    H225445   4.777   6.159   1.323
 1296TIP3   OH225446   4.628   5.235   1.682
 1296TIP3    H125447   4.719   5.234   1.711
 1296TIP3    H225448   4.596   5.147   1.700
 1297TIP3   OH225449   0.939   1.206   7.838
 1297TIP3    H125450   0.915   1.116   7.820
 1297TIP3    H225451   1.008   1.200   7.904
 1298TIP3   OH225452   0.596   6.268   7.043
 1298TIP3    H125453   0.687   6.283   7.017
 1298TIP3    H225454   0.583   6.174   7.030
 1299TIP3   OH225455   5.958   2.840   0.621
 1299TIP3    H125456   5.914   2.924   0.604
 1299TIP3    H225457   5.980   2.844   0.714
 1300TIP3   OH225458   2.327   2.719   0.853
 1300TIP3    H125459   2.385   2.724   0.777
 1300TIP3    H225460   2.342   2.801   0.901
 1301TIP3   OH225461   5.167   3.837   1.869
 1301TIP3    H125462   5.158   3.900   1.939
 1301TIP3    H225463   5.200   3.758   1.911
 1302TIP3   OH225464   5.949   6.210   7.325
 1302TIP3    H125465   5.984   6.121   7.323
 1302TIP3    H225466   5.860   6.202   7.289
 1303TIP3   OH225467   5.448   0.694   1.780
 1303TIP3    H125468   5.463   0.624   1.716
 1303TIP3    H225469   5.473   0.656   1.864
 1304TIP3   OH225470   5.139   2.691   7.872
 1304TIP3    H125471   5.060   2.743   7.885
 1304TIP3    H225472   5.211   2.750   7.896
 1305TIP3   OH225473   4.930   4.946   6.936
 1305TIP3    H125474   4.899   4.995   7.012
 1305TIP3    H225475   4.989   5.007   6.891
 1306TIP3   OH225476   3.255   0.890   1.301
 1306TIP3    H125477   3.207   0.966   1.334
 1306TIP3    H225478   3.212   0.815   1.342
 1307TIP3   OH225479   6.328   2.978   1.644
 1307TIP3    H125480   6.407   3.014   1.604
 1307TIP3    H225481   6.258   3.000   1.583
 1308TIP3   OH225482   4.444   4.602   8.435
 1308TIP3    H125483   4.460   4.578   8.526
 1308TIP3    H225484   4.529   4.592   8.392
 1309TIP3   OH225485   1.515   3.691   7.229
 1309TIP3    H125486   1.479   3.683   7.317
 1309TIP3    H225487   1.485   3.613   7.183
 1310TIP3   OH225488   3.560   1.321   1.186
 1310TIP3    H125489   3.554   1.399   1.241
 1310TIP3    H225490   3.650   1.320   1.154
 1311TIP3   OH225491   6.255   2.008   2.361
 1311TIP3    H125492   6.174   1.978   2.402
 1311TIP3    H225493   6.241   2.101   2.345
 1312TIP3   OH225494   2.615   5.804   6.870
 1312TIP3    H125495   2.703   5.775   6.895
 1312TIP3    H225496   2.556   5.747   6.919
 1313TIP3   OH225497   2.253   4.239   0.836
 1313TIP3    H125498   2.329   4.193   0.873
 1313TIP3    H225499   2.256   4.325   0.877
 1314TIP3   OH225500   5.496   1.571   8.002
 1314TIP3    H125501   5.530   1.501   7.948
 1314TIP3    H225502   5.455   1.632   7.940
 1315TIP3   OH225503   3.866   4.042   7.863
 1315TIP3    H125504   3.828   4.101   7.928
 1315TIP3    H225505   3.822   4.066   7.781
 1316TIP3   OH225506   5.258   6.339   8.381
 1316TIP3    H125507   5.319   6.272   8.411
 1316TIP3    H225508   5.314   6.406   8.341
 1317TIP3   OH225509   0.766   2.769   2.015
 1317TIP3    H125510   0.774   2.843   2.075
 1317TIP3    H225511   0.836   2.710   2.041
 1318TIP3   OH225512   1.517   1.605   7.157
 1318TIP3    H125513   1.557   1.553   7.088
 1318TIP3    H225514   1.580   1.675   7.174
 1319TIP3   OH225515   3.778   3.959   6.420
 1319TIP3    H125516   3.752   4.048   6.444
 1319TIP3    H225517   3.702   3.923   6.375
 1320TIP3   OH225518   2.301   3.712   1.590
 1320TIP3    H125519   2.243   3.666   1.652
 1320TIP3    H225520   2.377   3.738   1.643
 1321TIP3   OH225521   2.534   0.540   8.492
 1321TIP3    H125522   2.472   0.601   8.530
 1321TIP3    H225523   2.500   0.453   8.515
 1322TIP3   OH225524   3.697   4.914   7.900
 1322TIP3    H125525   3.777   4.965   7.895
 1322TIP3    H225526   3.725   4.826   7.923
 1323TIP3   OH225527   1.079   5.134   8.529
 1323TIP3    H125528   1.063   5.043   8.555
 1323TIP3    H225529   1.030   5.186   8.594
 1324TIP3   OH225530   1.798   2.812   0.228
 1324TIP3    H125531   1.877   2.809   0.282
 1324TIP3    H225532   1.830   2.805   0.138
 1325TIP3   OH225533   2.995   6.486   6.415
 1325TIP3    H125534   2.931   6.555   6.400
 1325TIP3    H225535   3.065   6.505   6.352
 1326TIP3   OH225536   2.861   1.212   7.607
 1326TIP3    H125537   2.776   1.189   7.570
 1326TIP3    H225538   2.923   1.193   7.537
 1327TIP3   OH225539   5.866   3.100   1.059
 1327TIP3    H125540   5.802   3.095   0.989
 1327TIP3    H225541   5.818   3.072   1.137
 1328TIP3   OH225542   1.445   3.441   6.532
 1328TIP3    H125543   1.400   3.387   6.467
 1328TIP3    H225544   1.463   3.523   6.487
 1329TIP3   OH225545   4.728   0.364   0.089
 1329TIP3    H125546   4.713   0.456   0.068
 1329TIP3    H225547   4.823   0.354   0.086
 1330TIP3   OH225548   3.594   1.225   7.118
 1330TIP3    H125549   3.677   1.180   7.133
 1330TIP3    H225550   3.558   1.239   7.206
 1331TIP3   OH225551   2.307   6.737   6.146
 1331TIP3    H125552   2.315   6.832   6.154
 1331TIP3    H225553   2.299   6.722   6.052
 1332TIP3   OH225554   4.761   0.370   1.608
 1332TIP3    H125555   4.839   0.391   1.557
 1332TIP3    H225556   4.698   0.337   1.544
 1333TIP3   OH225557   4.544   0.486   7.053
 1333TIP3    H125558   4.495   0.424   6.999
 1333TIP3    H225559   4.543   0.567   7.004
 1334TIP3   OH225560   6.035   0.041   0.999
 1334TIP3    H125561   6.056   0.067   0.909
 1334TIP3    H225562   5.962   6.866   0.990
 1335TIP3   OH225563   1.072   3.330   0.208
 1335TIP3    H125564   1.038   3.413   0.176
 1335TIP3    H225565   1.025   3.263   0.157
 1336TIP3   OH225566   4.609   3.828   8.126
 1336TIP3    H125567   4.527   3.874   8.105
 1336TIP3    H225568   4.654   3.820   8.042
 1337TIP3   OH225569   5.035   1.832   0.785
 1337TIP3    H125570   5.025   1.819   0.690
 1337TIP3    H225571   5.088   1.757   0.814
 1338TIP3   OH225572   6.881   1.088   1.607
 1338TIP3    H125573   0.052   1.013   1.594
 1338TIP3    H225574   6.812   1.055   1.664
 1339TIP3   OH225575   4.584   2.222   0.076
 1339TIP3    H125576   4.547   2.153   0.022
 1339TIP3    H225577   4.508   2.268   0.112
 1340TIP3   OH225578   5.570   3.086   1.959
 1340TIP3    H125579   5.547   2.999   1.994
 1340TIP3    H225580   5.514   3.147   2.007
 1341TIP3   OH225581   3.212   5.082   0.461
 1341TIP3    H125582   3.167   5.101   0.379
 1341TIP3    H225583   3.220   4.987   0.463
 1342TIP3   OH225584   2.303   2.899   6.801
 1342TIP3    H125585   2.255   2.871   6.880
 1342TIP3    H225586   2.248   2.870   6.729
 1343TIP3   OH225587   6.658   5.279   1.619
 1343TIP3    H125588   6.581   5.232   1.587
 1343TIP3    H225589   6.624   5.339   1.685
 1344TIP3   OH225590   0.883   6.807   7.998
 1344TIP3    H125591   0.976   6.791   8.007
 1344TIP3    H225592   0.861   6.771   7.911
 1345TIP3   OH225593   4.862   2.993   1.949
 1345TIP3    H125594   4.848   3.015   2.041
 1345TIP3    H225595   4.857   3.078   1.904
 1346TIP3   OH225596   1.843   5.100   7.664
 1346TIP3    H125597   1.896   5.180   7.657
 1346TIP3    H225598   1.812   5.083   7.575
 1347TIP3   OH225599   5.313   5.572   7.752
 1347TIP3    H125600   5.300   5.666   7.743
 1347TIP3    H225601   5.298   5.554   7.845
 1348TIP3   OH225602   4.600   6.551   8.301
 1348TIP3    H125603   4.610   6.644   8.322
 1348TIP3    H225604   4.594   6.549   8.205
 1349TIP3   OH225605   5.237   6.543   8.577
 1349TIP3    H125606   5.162   6.575   8.527
 1349TIP3    H225607   5.285   6.486   8.517
 1350TIP3   OH225608   6.702   2.391   0.533
 1350TIP3    H125609   6.731   2.459   0.594
 1350TIP3    H225610   6.648   2.333   0.586
 1351TIP3   OH225611   6.155   5.640   0.804
 1351TIP3    H125612   6.177   5.732   0.817
 1351TIP3    H225613   6.224   5.592   0.849
 1352TIP3   OH225614   6.457   3.622   6.207
 1352TIP3    H125615   6.446   3.608   6.301
 1352TIP3    H225616   6.420   3.544   6.166
 1353TIP3   OH225617   6.686   2.540   1.149
 1353TIP3    H125618   6.622   2.500   1.090
 1353TIP3    H225619   6.768   2.494   1.131
 1354TIP3   OH225620   1.404   4.316   0.513
 1354TIP3    H125621   1.351   4.310   0.434
 1354TIP3    H225622   1.386   4.404   0.547
 1355TIP3   OH225623   2.035   3.673   7.794
 1355TIP3    H125624   2.065   3.683   7.884
 1355TIP3    H225625   2.109   3.701   7.741
 1356TIP3   OH225626   5.630   2.212   8.380
 1356TIP3    H125627   5.643   2.292   8.329
 1356TIP3    H225628   5.698   2.153   8.350
 1357TIP3   OH225629   3.628   5.881   7.571
 1357TIP3    H125630   3.598   5.790   7.569
 1357TIP3    H225631   3.708   5.882   7.518
 1358TIP3   OH225632   2.549   3.499   6.912
 1358TIP3    H125633   2.572   3.521   6.822
 1358TIP3    H225634   2.593   3.565   6.966
 1359TIP3   OH225635   4.098   6.169   0.614
 1359TIP3    H125636   4.046   6.097   0.579
 1359TIP3    H225637   4.184   6.158   0.573
 1360TIP3   OH225638   2.215   0.169   7.213
 1360TIP3    H125639   2.165   0.118   7.150
 1360TIP3    H225640   2.168   0.158   7.296
 1361TIP3   OH225641   5.789   2.578   6.801
 1361TIP3    H125642   5.811   2.638   6.872
 1361TIP3    H225643   5.694   2.569   6.806
 1362TIP3   OH225644   4.764   0.691   0.764
 1362TIP3    H125645   4.806   0.608   0.787
 1362TIP3    H225646   4.819   0.758   0.805
 1363TIP3   OH225647   4.454   4.057   1.030
 1363TIP3    H125648   4.363   4.084   1.017
 1363TIP3    H225649   4.474   4.004   0.953
 1364TIP3   OH225650   4.088   4.145   8.389
 1364TIP3    H125651   4.113   4.058   8.359
 1364TIP3    H225652   3.995   4.152   8.366
 1365TIP3   OH225653   4.745   2.179   2.379
 1365TIP3    H125654   4.794   2.219   2.451
 1365TIP3    H225655   4.654   2.177   2.409
 1366TIP3   OH225656   2.155   6.803   0.643
 1366TIP3    H125657   2.193   6.717   0.624
 1366TIP3    H225658   2.068   6.800   0.602
 1367TIP3   OH225659   2.597   6.411   1.151
 1367TIP3    H125660   2.528   6.393   1.215
 1367TIP3    H225661   2.584   6.346   1.082
 1368TIP3   OH225662   0.046   5.359   1.265
 1368TIP3    H125663   6.841   5.362   1.241
 1368TIP3    H225664   0.069   5.266   1.260
 1369TIP3   OH225665   2.256   1.135   0.762
 1369TIP3    H125666   2.251   1.231   0.763
 1369TIP3    H225667   2.253   1.111   0.855
 1370TIP3   OH225668   5.797   3.218   1.583
 1370TIP3    H125669   5.795   3.309   1.611
 1370TIP3    H225670   5.864   3.214   1.515
 1371TIP3   OH225671   6.791   1.769   7.617
 1371TIP3    H125672   6.877   1.753   7.654
 1371TIP3    H225673   6.746   1.821   7.684
 1372TIP3   OH225674   6.521   0.233   7.645
 1372TIP3    H125675   6.588   0.281   7.693
 1372TIP3    H225676   6.499   0.160   7.702
 1373TIP3   OH225677   3.387   4.378   7.961
 1373TIP3    H125678   3.457   4.407   8.020
 1373TIP3    H225679   3.326   4.452   7.959
 1374TIP3   OH225680   2.944   5.513   8.009
 1374TIP3    H125681   3.006   5.513   8.082
 1374TIP3    H225682   2.859   5.528   8.049
 1375TIP3   OH225683   4.862   3.282   1.687
 1375TIP3    H125684   4.905   3.279   1.772
 1375TIP3    H225685   4.823   3.195   1.676
 1376TIP3   OH225686   1.792   4.145   7.079
 1376TIP3    H125687   1.798   4.060   7.037
 1376TIP3    H225688   1.727   4.193   7.028
 1377TIP3   OH225689   3.619   0.758   7.856
 1377TIP3    H125690   3.539   0.810   7.848
 1377TIP3    H225691   3.679   0.796   7.791
 1378TIP3   OH225692   0.790   3.849   7.948
 1378TIP3    H125693   0.835   3.857   8.032
 1378TIP3    H225694   0.839   3.905   7.888
 1379TIP3   OH225695   3.832   5.898   2.279
 1379TIP3    H125696   3.808   5.805   2.279
 1379TIP3    H225697   3.914   5.901   2.229
 1380TIP3   OH225698   1.732   1.500   7.036
 1380TIP3    H125699   1.814   1.549   7.030
 1380TIP3    H225700   1.683   1.525   6.957
 1381TIP3   OH225701   3.779   5.356   1.470
 1381TIP3    H125702   3.817   5.277   1.508
 1381TIP3    H225703   3.700   5.327   1.427
 1382TIP3   OH225704   3.111   2.151   7.337
 1382TIP3    H125705   3.186   2.104   7.302
 1382TIP3    H225706   3.104   2.122   7.427
 1383TIP3   OH225707   4.178   0.927   7.123
 1383TIP3    H125708   4.238   0.965   7.058
 1383TIP3    H225709   4.234   0.907   7.198
 1384TIP3   OH225710   1.534   4.952   2.479
 1384TIP3    H125711   1.620   4.911   2.485
 1384TIP3    H225712   1.525   5.001   2.561
 1385TIP3   OH225713   2.486   5.682   8.155
 1385TIP3    H125714   2.463   5.619   8.086
 1385TIP3    H225715   2.442   5.648   8.233
 1386TIP3   OH225716   1.930   1.398   7.663
 1386TIP3    H125717   1.951   1.391   7.570
 1386TIP3    H225718   1.849   1.347   7.673
 1387TIP3   OH225719   6.664   0.543   1.476
 1387TIP3    H125720   6.716   0.613   1.516
 1387TIP3    H225721   6.596   0.590   1.428
 1388TIP3   OH225722   1.359   0.444   0.363
 1388TIP3    H125723   1.453   0.450   0.376
 1388TIP3    H225724   1.326   0.532   0.385
 1389TIP3   OH225725   5.773   3.549   2.135
 1389TIP3    H125726   5.744   3.550   2.226
 1389TIP3    H225727   5.759   3.459   2.106
 1390TIP3   OH225728   1.988   1.282   0.878
 1390TIP3    H125729   1.913   1.330   0.915
 1390TIP3    H225730   2.050   1.351   0.853
 1391TIP3   OH225731   1.715   4.605   7.702
 1391TIP3    H125732   1.646   4.667   7.725
 1391TIP3    H225733   1.797   4.653   7.716
 1392TIP3   OH225734   5.299   1.411   8.157
 1392TIP3    H125735   5.353   1.475   8.110
 1392TIP3    H225736   5.261   1.357   8.088
 1393TIP3   OH225737   3.996   3.251   0.038
 1393TIP3    H125738   4.079   3.255   0.087
 1393TIP3    H225739   3.945   3.184   0.083
 1394TIP3   OH225740   6.687   6.453   8.597
 1394TIP3    H125741   6.689   6.522   0.050
 1394TIP3    H225742   6.707   6.497   8.515
 1395TIP3   OH225743   1.764   0.121   2.607
 1395TIP3    H125744   1.838   0.157   2.656
 1395TIP3    H225745   1.739   0.190   2.547
 1396TIP3   OH225746   5.471   1.546   8.379
 1396TIP3    H125747   5.499   1.581   8.464
 1396TIP3    H225748   5.530   1.472   8.363
 1397TIP3   OH225749   0.199   6.541   6.726
 1397TIP3    H125750   0.214   6.572   6.637
 1397TIP3    H225751   0.249   6.600   6.782
 1398TIP3   OH225752   1.721   4.340   7.659
 1398TIP3    H125753   1.729   4.434   7.678
 1398TIP3    H225754   1.626   4.325   7.656
 1399TIP3   OH225755   2.155   5.520   0.565
 1399TIP3    H125756   2.120   5.530   0.476
 1399TIP3    H225757   2.124   5.598   0.611
 1400TIP3   OH225758   2.830   1.868   7.084
 1400TIP3    H125759   2.920   1.853   7.112
 1400TIP3    H225760   2.826   1.831   6.996
 1401TIP3   OH225761   2.980   2.999   7.928
 1401TIP3    H125762   2.888   3.018   7.915
 1401TIP3    H225763   3.021   3.084   7.943
 1402TIP3   OH225764   1.027   3.109   0.918
 1402TIP3    H125765   1.012   3.158   0.998
 1402TIP3    H225766   0.966   3.147   0.854
 1403TIP3   OH225767   1.559   5.700   8.162
 1403TIP3    H125768   1.556   5.762   8.234
 1403TIP3    H225769   1.473   5.706   8.121
 1404TIP3   OH225770   6.200   4.610   1.836
 1404TIP3    H125771   6.118   4.580   1.876
 1404TIP3    H225772   6.263   4.542   1.858
 1405TIP3   OH225773   6.326   1.943   0.023
 1405TIP3    H125774   6.370   1.970   8.556
 1405TIP3    H225775   6.363   1.857   0.043
 1406TIP3   OH225776   1.226   0.866   0.941
 1406TIP3    H125777   1.168   0.908   0.877
 1406TIP3    H225778   1.167   0.836   1.010
 1407TIP3   OH225779   0.698   6.443   7.235
 1407TIP3    H125780   0.649   6.525   7.233
 1407TIP3    H225781   0.660   6.391   7.165
 1408TIP3   OH225782   4.515   3.853   1.255
 1408TIP3    H125783   4.481   3.906   1.328
 1408TIP3    H225784   4.536   3.769   1.294
 1409TIP3   OH225785   2.732   4.725   8.494
 1409TIP3    H125786   2.779   4.754   8.572
 1409TIP3    H225787   2.663   4.667   8.527
 1410TIP3   OH225788   1.283   5.586   0.324
 1410TIP3    H125789   1.311   5.651   0.388
 1410TIP3    H225790   1.240   5.518   0.376
 1411TIP3   OH225791   1.130   4.247   7.422
 1411TIP3    H125792   1.150   4.327   7.374
 1411TIP3    H225793   1.057   4.208   7.374
 1412TIP3   OH225794   3.960   1.390   0.420
 1412TIP3    H125795   3.912   1.466   0.451
 1412TIP3    H225796   4.052   1.414   0.431
 1413TIP3   OH225797   5.502   4.190   7.105
 1413TIP3    H125798   5.474   4.186   7.014
 1413TIP3    H225799   5.594   4.166   7.104
 1414TIP3   OH225800   3.799   5.817   8.214
 1414TIP3    H125801   3.776   5.769   8.134
 1414TIP3    H225802   3.884   5.856   8.194
 1415TIP3   OH225803   3.532   2.625   8.067
 1415TIP3    H125804   3.599   2.678   8.024
 1415TIP3    H225805   3.512   2.556   8.003
 1416TIP3   OH225806   0.661   6.224   1.170
 1416TIP3    H125807   0.570   6.217   1.139
 1416TIP3    H225808   0.689   6.133   1.182
 1417TIP3   OH225809   1.793   3.729   7.267
 1417TIP3    H125810   1.705   3.734   7.304
 1417TIP3    H225811   1.789   3.783   7.188
 1418TIP3   OH225812   0.225   4.504   0.190
 1418TIP3    H125813   0.134   4.478   0.197
 1418TIP3    H225814   0.223   4.590   0.146
 1419TIP3   OH225815   4.159   0.533   6.043
 1419TIP3    H125816   4.138   0.615   6.089
 1419TIP3    H225817   4.253   0.523   6.056
 1420TIP3   OH225818   5.955   0.576   6.920
 1420TIP3    H125819   5.949   0.669   6.941
 1420TIP3    H225820   5.942   0.532   7.003
 1421TIP3   OH225821   3.231   5.811   2.097
 1421TIP3    H125822   3.301   5.877   2.095
 1421TIP3    H225823   3.226   5.784   2.188
 1422TIP3   OH225824   6.867   6.072   0.170
 1422TIP3    H125825   6.809   6.147   0.163
 1422TIP3    H225826   0.013   6.059   0.081
 1423TIP3   OH225827   2.326   0.490   0.816
 1423TIP3    H125828   2.232   0.485   0.799
 1423TIP3    H225829   2.332   0.535   0.901
 1424TIP3   OH225830   1.217   1.213   0.753
 1424TIP3    H125831   1.157   1.140   0.765
 1424TIP3    H225832   1.240   1.240   0.843
 1425TIP3   OH225833   4.230   5.891   6.571
 1425TIP3    H125834   4.275   5.812   6.601
 1425TIP3    H225835   4.289   5.963   6.594
 1426TIP3   OH225836   5.247   5.257   7.978
 1426TIP3    H125837   5.281   5.187   8.034
 1426TIP3    H225838   5.154   5.260   7.997
 1427TIP3   OH225839   6.338   1.794   0.818
 1427TIP3    H125840   6.335   1.889   0.822
 1427TIP3    H225841   6.381   1.775   0.735
 1428TIP3   OH225842   1.606   3.226   0.958
 1428TIP3    H125843   1.656   3.182   1.027
 1428TIP3    H225844   1.661   3.217   0.880
 1429TIP3   OH225845   4.111   0.656   7.398
 1429TIP3    H125846   4.204   0.656   7.421
 1429TIP3    H225847   4.076   0.578   7.441
 1430TIP3   OH225848   4.061   4.827   1.783
 1430TIP3    H125849   4.048   4.921   1.789
 1430TIP3    H225850   4.084   4.801   1.872
 1431TIP3   OH225851   0.060   1.783   0.344
 1431TIP3    H125852   0.117   1.779   0.267
 1431TIP3    H225853   0.048   1.877   0.360
 1432TIP3   OH225854   2.250   5.587   7.290
 1432TIP3    H125855   2.209   5.512   7.247
 1432TIP3    H225856   2.180   5.626   7.342
 1433TIP3   OH225857   5.797   2.815   8.327
 1433TIP3    H125858   5.859   2.887   8.334
 1433TIP3    H225859   5.802   2.789   8.234
 1434TIP3   OH225860   4.900   2.874   0.552
 1434TIP3    H125861   4.899   2.820   0.473
 1434TIP3    H225862   4.917   2.962   0.521
 1435TIP3   OH225863   6.133   1.794   7.597
 1435TIP3    H125864   6.158   1.702   7.608
 1435TIP3    H225865   6.169   1.820   7.512
 1436TIP3   OH225866   0.568   5.579   1.838
 1436TIP3    H125867   0.500   5.590   1.904
 1436TIP3    H225868   0.646   5.553   1.888
 1437TIP3   OH225869   3.843   5.193   8.160
 1437TIP3    H125870   3.787   5.123   8.124
 1437TIP3    H225871   3.916   5.147   8.201
 1438TIP3   OH225872   0.019   5.499   7.425
 1438TIP3    H125873   0.040   5.473   7.514
 1438TIP3    H225874   0.010   5.417   7.377
 1439TIP3   OH225875   3.249   3.104   8.553
 1439TIP3    H125876   3.294   3.026   8.585
 1439TIP3    H225877   3.239   3.089   8.459
 1440TIP3   OH225878   3.907   6.460   0.302
 1440TIP3    H125879   3.924   6.367   0.314
 1440TIP3    H225880   3.866   6.487   0.384
 1441TIP3   OH225881   5.880   0.082   1.715
 1441TIP3    H125882   5.878   0.088   1.620
 1441TIP3    H225883   5.971   0.098   1.739
 1442TIP3   OH225884   2.127   4.754   0.935
 1442TIP3    H125885   2.181   4.830   0.955
 1442TIP3    H225886   2.186   4.679   0.945
 1443TIP3   OH225887   4.827   3.698   0.767
 1443TIP3    H125888   4.873   3.652   0.836
 1443TIP3    H225889   4.863   3.787   0.768
 1444TIP3   OH225890   3.022   0.095   1.754
 1444TIP3    H125891   2.968   0.128   1.825
 1444TIP3    H225892   2.975   0.120   1.674
 1445TIP3   OH225893   1.944   5.479   2.643
 1445TIP3    H125894   1.974   5.549   2.585
 1445TIP3    H225895   1.850   5.494   2.653
 1446TIP3   OH225896   6.636   1.253   1.253
 1446TIP3    H125897   6.562   1.223   1.305
 1446TIP3    H225898   6.618   1.345   1.237
 1447TIP3   OH225899   0.518   2.520   0.835
 1447TIP3    H125900   0.507   2.575   0.913
 1447TIP3    H225901   0.523   2.431   0.869
 1448TIP3   OH225902   5.600   3.132   7.743
 1448TIP3    H125903   5.631   3.221   7.728
 1448TIP3    H225904   5.649   3.102   7.821
 1449TIP3   OH225905   3.812   4.908   0.304
 1449TIP3    H125906   3.733   4.954   0.332
 1449TIP3    H225907   3.797   4.889   0.211
 1450TIP3   OH225908   3.388   5.440   7.623
 1450TIP3    H125909   3.383   5.361   7.568
 1450TIP3    H225910   3.312   5.434   7.680
 1451TIP3   OH225911   6.400   6.583   1.908
 1451TIP3    H125912   6.368   6.536   1.831
 1451TIP3    H225913   6.490   6.554   1.919
 1452TIP3   OH225914   5.034   3.880   0.653
 1452TIP3    H125915   5.106   3.870   0.591
 1452TIP3    H225916   5.070   3.932   0.724
 1453TIP3   OH225917   2.005   2.000   6.237
 1453TIP3    H125918   1.960   2.073   6.196
 1453TIP3    H225919   2.078   1.980   6.179
 1454TIP3   OH225920   2.977   5.743   0.199
 1454TIP3    H125921   2.983   5.768   0.292
 1454TIP3    H225922   2.994   5.649   0.198
 1455TIP3   OH225923   6.661   1.747   1.601
 1455TIP3    H125924   6.672   1.749   1.696
 1455TIP3    H225925   6.693   1.831   1.571
 1456TIP3   OH225926   5.173   4.962   0.160
 1456TIP3    H125927   5.141   5.049   0.184
 1456TIP3    H225928   5.113   4.931   0.093
 1457TIP3   OH225929   5.551   6.602   0.619
 1457TIP3    H125930   5.535   6.688   0.581
 1457TIP3    H225931   5.632   6.572   0.577
 1458TIP3   OH225932   6.772   4.347   7.531
 1458TIP3    H125933   6.795   4.255   7.544
 1458TIP3    H225934   6.683   4.354   7.566
 1459TIP3   OH225935   3.583   6.184   1.449
 1459TIP3    H125936   3.525   6.258   1.469
 1459TIP3    H225937   3.531   6.106   1.470
 1460TIP3   OH225938   5.744   3.904   1.862
 1460TIP3    H125939   5.802   3.864   1.927
 1460TIP3    H225940   5.786   3.886   1.778
 1461TIP3   OH225941   3.731   2.536   2.001
 1461TIP3    H125942   3.765   2.456   2.040
 1461TIP3    H225943   3.696   2.586   2.075
 1462TIP3   OH225944   1.690   0.965   1.369
 1462TIP3    H125945   1.670   1.017   1.290
 1462TIP3    H225946   1.784   0.946   1.362
 1463TIP3   OH225947   1.681   0.907   7.719
 1463TIP3    H125948   1.705   0.975   7.656
 1463TIP3    H225949   1.739   0.833   7.696
 1464TIP3   OH225950   1.737   3.181   8.033
 1464TIP3    H125951   1.729   3.095   8.075
 1464TIP3    H225952   1.669   3.234   8.074
 1465TIP3   OH225953   4.503   1.503   7.824
 1465TIP3    H125954   4.473   1.578   7.875
 1465TIP3    H225955   4.551   1.449   7.886
 1466TIP3   OH225956   5.319   3.093   1.165
 1466TIP3    H125957   5.300   3.002   1.188
 1466TIP3    H225958   5.251   3.144   1.209
 1467TIP3   OH225959   2.782   0.477   0.400
 1467TIP3    H125960   2.757   0.488   0.308
 1467TIP3    H225961   2.878   0.473   0.399
 1468TIP3   OH225962   0.496   2.570   7.673
 1468TIP3    H125963   0.430   2.630   7.637
 1468TIP3    H225964   0.486   2.577   7.768
 1469TIP3   OH225965   4.320   6.416   8.347
 1469TIP3    H125966   4.306   6.388   8.256
 1469TIP3    H225967   4.390   6.482   8.340
 1470TIP3   OH225968   2.567   3.869   7.714
 1470TIP3    H125969   2.488   3.817   7.734
 1470TIP3    H225970   2.567   3.878   7.619
 1471TIP3   OH225971   0.831   3.899   6.727
 1471TIP3    H125972   0.925   3.903   6.745
 1471TIP3    H225973   0.821   3.829   6.663
 1472TIP3   OH225974   6.395   2.126   7.013
 1472TIP3    H125975   6.299   2.129   7.014
 1472TIP3    H225976   6.420   2.183   6.940
 1473TIP3   OH225977   5.542   4.649   1.016
 1473TIP3    H125978   5.608   4.696   0.966
 1473TIP3    H225979   5.458   4.677   0.979
 1474TIP3   OH225980   4.305   0.731   1.585
 1474TIP3    H125981   4.392   0.759   1.558
 1474TIP3    H225982   4.267   0.691   1.506
 1475TIP3   OH225983   5.733   1.359   7.251
 1475TIP3    H125984   5.655   1.314   7.216
 1475TIP3    H225985   5.805   1.330   7.195
 1476TIP3   OH225986   3.131   0.160   7.017
 1476TIP3    H125987   3.066   0.090   7.006
 1476TIP3    H225988   3.139   0.199   6.930
 1477TIP3   OH225989   2.376   6.149   0.272
 1477TIP3    H125990   2.466   6.119   0.285
 1477TIP3    H225991   2.369   6.166   0.178
 1478TIP3   OH225992   2.794   1.064   6.237
 1478TIP3    H125993   2.828   0.975   6.249
 1478TIP3    H225994   2.868   1.121   6.258
 1479TIP3   OH225995   3.647   0.373   0.165
 1479TIP3    H125996   3.593   0.357   0.243
 1479TIP3    H225997   3.584   0.400   0.098
 1480TIP3   OH225998   3.009   0.117   8.410
 1480TIP3    H125999   3.081   0.165   8.370
 1480TIP3    H226000   2.937   0.180   8.415
 1481TIP3   OH226001   3.012   4.930   7.038
 1481TIP3    H126002   2.974   4.846   7.062
 1481TIP3    H226003   2.944   4.974   6.987
 1482TIP3   OH226004   5.395   4.370   1.270
 1482TIP3    H126005   5.488   4.382   1.288
 1482TIP3    H226006   5.365   4.457   1.243
 1483TIP3   OH226007   1.573   3.132   0.218
 1483TIP3    H126008   1.564   3.044   0.254
 1483TIP3    H226009   1.493   3.144   0.166
 1484TIP3   OH226010   0.692   0.145   1.954
 1484TIP3    H126011   0.639   0.096   2.018
 1484TIP3    H226012   0.658   0.234   1.959
 1485TIP3   OH226013   5.318   6.165   1.752
 1485TIP3    H126014   5.370   6.086   1.747
 1485TIP3    H226015   5.295   6.173   1.845
 1486TIP3   OH226016   5.516   6.043   7.427
 1486TIP3    H126017   5.488   6.066   7.515
 1486TIP3    H226018   5.575   5.969   7.438
 1487TIP3   OH226019   5.094   2.365   6.803
 1487TIP3    H126020   5.110   2.275   6.776
 1487TIP3    H226021   5.043   2.403   6.732
 1488TIP3   OH226022   5.808   6.529   7.180
 1488TIP3    H126023   5.817   6.442   7.139
 1488TIP3    H226024   5.715   6.548   7.175
 1489TIP3   OH226025   2.868   4.280   8.084
 1489TIP3    H126026   2.926   4.257   8.157
 1489TIP3    H226027   2.921   4.269   8.006
 1490TIP3   OH226028   5.985   4.551   1.955
 1490TIP3    H126029   6.010   4.463   1.983
 1490TIP3    H226030   5.891   4.557   1.976
 1491TIP3   OH226031   5.993   3.330   0.073
 1491TIP3    H126032   6.007   3.410   0.022
 1491TIP3    H226033   5.907   3.341   0.112
 1492TIP3   OH226034   5.013   4.080   8.210
 1492TIP3    H126035   5.015   4.071   8.306
 1492TIP3    H226036   5.007   3.990   8.178
 1493TIP3   OH226037   3.258   3.484   8.322
 1493TIP3    H126038   3.347   3.486   8.287
 1493TIP3    H226039   3.210   3.548   8.270
 1494TIP3   OH226040   2.357   6.100   2.254
 1494TIP3    H126041   2.452   6.106   2.270
 1494TIP3    H226042   2.321   6.178   2.298
 1495TIP3   OH226043   0.639   1.247   1.020
 1495TIP3    H126044   0.630   1.159   0.984
 1495TIP3    H226045   0.599   1.241   1.107
 1496TIP3   OH226046   1.030   2.810   7.767
 1496TIP3    H126047   1.060   2.887   7.814
 1496TIP3    H226048   0.941   2.794   7.801
 1497TIP3   OH226049   2.940   6.867   7.613
 1497TIP3    H126050   2.982   6.786   7.584
 1497TIP3    H226051   2.975   0.048   7.555
 1498TIP3   OH226052   2.050   6.132   1.065
 1498TIP3    H126053   2.102   6.136   1.145
 1498TIP3    H226054   2.084   6.056   1.017
 1499TIP3   OH226055   6.064   5.890   6.155
 1499TIP3    H126056   6.074   5.939   6.236
 1499TIP3    H226057   5.970   5.873   6.148
 1500TIP3   OH226058   3.262   6.232   6.755
 1500TIP3    H126059   3.291   6.150   6.714
 1500TIP3    H226060   3.179   6.253   6.713
 1501TIP3   OH226061   3.321   0.239   0.949
 1501TIP3    H126062   3.409   0.275   0.955
 1501TIP3    H226063   3.326   0.154   0.993
 1502TIP3   OH226064   2.360   1.367   1.361
 1502TIP3    H126065   2.299   1.296   1.343
 1502TIP3    H226066   2.362   1.373   1.456
 1503TIP3   OH226067   4.275   4.053   6.232
 1503TIP3    H126068   4.196   4.004   6.255
 1503TIP3    H226069   4.337   4.032   6.301
 1504TIP3   OH226070   4.307   2.506   8.590
 1504TIP3    H126071   4.398   2.492   8.563
 1504TIP3    H226072   4.282   2.425   0.020
 1505TIP3   OH226073   4.507   0.007   2.392
 1505TIP3    H126074   4.450   6.840   2.447
 1505TIP3    H226075   4.568   6.832   2.352
 1506TIP3   OH226076   0.243   6.696   1.072
 1506TIP3    H126077   0.284   6.720   0.989
 1506TIP3    H226078   0.253   6.601   1.077
 1507TIP3   OH226079   5.447   0.458   7.950
 1507TIP3    H126080   5.515   0.485   7.888
 1507TIP3    H226081   5.376   0.520   7.935
 1508TIP3   OH226082   4.674   1.569   7.391
 1508TIP3    H126083   4.639   1.541   7.475
 1508TIP3    H226084   4.645   1.660   7.382
 1509TIP3   OH226085   3.380   0.973   0.519
 1509TIP3    H126086   3.428   0.906   0.568
 1509TIP3    H226087   3.299   0.985   0.569
 1510TIP3   OH226088   6.264   3.406   7.850
 1510TIP3    H126089   6.346   3.358   7.861
 1510TIP3    H226090   6.286   3.497   7.869
 1511TIP3   OH226091   6.048   2.818   1.353
 1511TIP3    H126092   5.995   2.796   1.430
 1511TIP3    H226093   6.122   2.867   1.389
 1512TIP3   OH226094   2.734   0.690   1.097
 1512TIP3    H126095   2.645   0.655   1.106
 1512TIP3    H226096   2.721   0.779   1.063
 1513TIP3   OH226097   4.363   5.281   7.622
 1513TIP3    H126098   4.332   5.273   7.712
 1513TIP3    H226099   4.326   5.204   7.578
 1514TIP3   OH226100   0.215   5.690   1.015
 1514TIP3    H126101   0.201   5.715   1.106
 1514TIP3    H226102   0.273   5.614   1.020
 1515TIP3   OH226103   5.161   5.719   1.516
 1515TIP3    H126104   5.228   5.657   1.545
 1515TIP3    H226105   5.087   5.704   1.576
 1516TIP3   OH226106   5.827   3.071   0.588
 1516TIP3    H126107   5.866   3.156   0.611
 1516TIP3    H226108   5.784   3.042   0.668
 1517TIP3   OH226109   0.664   1.171   0.239
 1517TIP3    H126110   0.636   1.194   0.328
 1517TIP3    H226111   0.751   1.211   0.230
 1518TIP3   OH226112   5.244   3.792   0.482
 1518TIP3    H126113   5.307   3.844   0.532
 1518TIP3    H226114   5.279   3.704   0.484
 1519TIP3   OH226115   5.000   4.683   6.612
 1519TIP3    H126116   5.007   4.632   6.531
 1519TIP3    H226117   5.089   4.713   6.629
 1520TIP3   OH226118   3.052   0.960   6.401
 1520TIP3    H126119   3.032   1.036   6.347
 1520TIP3    H226120   2.995   0.891   6.368
 1521TIP3   OH226121   1.525   0.482   7.480
 1521TIP3    H126122   1.472   0.418   7.434
 1521TIP3    H226123   1.484   0.490   7.567
 1522TIP3   OH226124   3.513   3.825   7.831
 1522TIP3    H126125   3.568   3.876   7.772
 1522TIP3    H226126   3.477   3.891   7.892
 1523TIP3   OH226127   4.352   4.512   7.692
 1523TIP3    H126128   4.376   4.601   7.718
 1523TIP3    H226129   4.269   4.522   7.645
 1524TIP3   OH226130   1.116   4.573   0.287
 1524TIP3    H126131   1.035   4.588   0.238
 1524TIP3    H226132   1.098   4.609   0.374
 1525TIP3   OH226133   6.193   5.854   2.151
 1525TIP3    H126134   6.176   5.946   2.170
 1525TIP3    H226135   6.226   5.818   2.233
 1526TIP3   OH226136   2.457   2.682   7.204
 1526TIP3    H126137   2.480   2.623   7.276
 1526TIP3    H226138   2.529   2.673   7.142
 1527TIP3   OH226139   5.287   0.788   8.251
 1527TIP3    H126140   5.281   0.705   8.299
 1527TIP3    H226141   5.365   0.831   8.287
 1528TIP3   OH226142   3.893   0.987   1.277
 1528TIP3    H126143   3.932   0.902   1.259
 1528TIP3    H226144   3.890   1.031   1.193
 1529TIP3   OH226145   3.782   1.112   0.440
 1529TIP3    H126146   3.798   1.203   0.467
 1529TIP3    H226147   3.690   1.097   0.460
 1530TIP3   OH226148   2.846   5.932   8.476
 1530TIP3    H126149   2.772   5.930   8.536
 1530TIP3    H226150   2.916   5.887   8.523
 1531TIP3   OH226151   1.678   5.449   1.035
 1531TIP3    H126152   1.654   5.541   1.046
 1531TIP3    H226153   1.630   5.422   0.957
 1532TIP3   OH226154   1.975   2.951   1.256
 1532TIP3    H126155   2.032   2.914   1.188
 1532TIP3    H226156   2.016   2.925   1.339
 1533TIP3   OH226157   2.828   6.132   8.294
 1533TIP3    H126158   2.835   6.059   8.355
 1533TIP3    H226159   2.831   6.211   8.349
 1534TIP3   OH226160   4.810   6.724   6.594
 1534TIP3    H126161   4.874   6.659   6.623
 1534TIP3    H226162   4.818   6.726   6.499
 1535TIP3   OH226163   3.433   4.742   0.462
 1535TIP3    H126164   3.437   4.809   0.393
 1535TIP3    H226165   3.508   4.685   0.443
 1536TIP3   OH226166   6.711   2.240   6.381
 1536TIP3    H126167   6.799   2.205   6.394
 1536TIP3    H226168   6.724   2.333   6.364
 1537TIP3   OH226169   2.221   0.924   8.171
 1537TIP3    H126170   2.295   0.882   8.214
 1537TIP3    H226171   2.210   1.007   8.217
 1538TIP3   OH226172   2.021   4.952   0.304
 1538TIP3    H126173   2.002   4.897   0.229
 1538TIP3    H226174   2.116   4.949   0.313
 1539TIP3   OH226175   4.278   3.456   7.169
 1539TIP3    H126176   4.233   3.476   7.251
 1539TIP3    H226177   4.210   3.460   7.102
 1540TIP3   OH226178   0.092   6.667   0.164
 1540TIP3    H126179   0.126   6.630   0.082
 1540TIP3    H226180   0.019   6.722   0.137
 1541TIP3   OH226181   2.553   2.973   1.407
 1541TIP3    H126182   2.618   3.014   1.465
 1541TIP3    H226183   2.490   3.043   1.389
 1542TIP3   OH226184   2.609   0.720   7.701
 1542TIP3    H126185   2.632   0.675   7.782
 1542TIP3    H226186   2.672   0.686   7.637
 1543TIP3   OH226187   5.088   2.609   6.563
 1543TIP3    H126188   5.018   2.565   6.611
 1543TIP3    H226189   5.161   2.547   6.566
 1544TIP3   OH226190   4.199   4.442   7.087
 1544TIP3    H126191   4.151   4.408   7.162
 1544TIP3    H226192   4.287   4.405   7.095
 1545TIP3   OH226193   0.764   4.302   7.209
 1545TIP3    H126194   0.734   4.378   7.160
 1545TIP3    H226195   0.828   4.260   7.151
 1546TIP3   OH226196   3.077   1.592   7.665
 1546TIP3    H126197   3.023   1.633   7.598
 1546TIP3    H226198   3.099   1.663   7.725
 1547TIP3   OH226199   5.167   4.549   1.038
 1547TIP3    H126200   5.204   4.501   0.964
 1547TIP3    H226201   5.090   4.592   1.002
 1548TIP3   OH226202   3.904   6.636   7.006
 1548TIP3    H126203   3.814   6.630   7.039
 1548TIP3    H226204   3.948   6.695   7.067
 1549TIP3   OH226205   5.275   0.285   0.943
 1549TIP3    H126206   5.288   0.315   0.853
 1549TIP3    H226207   5.336   0.212   0.953
 1550TIP3   OH226208   4.237   1.062   2.463
 1550TIP3    H126209   4.192   1.147   2.459
 1550TIP3    H226210   4.177   1.002   2.420
 1551TIP3   OH226211   4.023   3.383   8.397
 1551TIP3    H126212   4.044   3.339   8.315
 1551TIP3    H226213   4.063   3.328   8.465
 1552TIP3   OH226214   1.986   2.899   8.226
 1552TIP3    H126215   1.998   2.876   8.134
 1552TIP3    H226216   2.075   2.909   8.260
 1553TIP3   OH226217   3.428   6.156   8.585
 1553TIP3    H126218   3.359   6.122   8.529
 1553TIP3    H226219   3.483   6.209   8.527
 1554TIP3   OH226220   1.477   6.617   6.802
 1554TIP3    H126221   1.459   6.662   6.884
 1554TIP3    H226222   1.402   6.637   6.747
 1555TIP3   OH226223   1.253   4.370   7.908
 1555TIP3    H126224   1.252   4.277   7.886
 1555TIP3    H226225   1.232   4.414   7.825
 1556TIP3   OH226226   3.757   2.655   0.000
 1556TIP3    H126227   3.736   2.601   0.077
 1556TIP3    H226228   3.810   2.597   8.559
 1557TIP3   OH226229   3.772   0.016   6.536
 1557TIP3    H126230   3.686   0.052   6.512
 1557TIP3    H226231   3.801   6.857   6.457
 1558TIP3   OH226232   2.574   4.594   0.636
 1558TIP3    H126233   2.500   4.596   0.696
 1558TIP3    H226234   2.575   4.505   0.602
 1559TIP3   OH226235   0.211   1.985   0.594
 1559TIP3    H126236   0.132   2.011   0.547
 1559TIP3    H226237   0.214   2.042   0.671
 1560TIP3   OH226238   2.028   4.116   0.128
 1560TIP3    H126239   2.104   4.080   0.173
 1560TIP3    H226240   1.987   4.174   0.193
 1561TIP3   OH226241   1.713   1.620   0.165
 1561TIP3    H126242   1.752   1.534   0.181
 1561TIP3    H226243   1.773   1.681   0.207
 1562TIP3   OH226244   3.365   3.407   7.585
 1562TIP3    H126245   3.382   3.383   7.676
 1562TIP3    H226246   3.358   3.324   7.539
 1563TIP3   OH226247   1.363   2.419   8.471
 1563TIP3    H126248   1.366   2.488   8.537
 1563TIP3    H226249   1.300   2.356   8.504
 1564TIP3   OH226250   2.805   4.313   1.430
 1564TIP3    H126251   2.826   4.396   1.388
 1564TIP3    H226252   2.727   4.282   1.384
 1565TIP3   OH226253   2.507   6.669   6.299
 1565TIP3    H126254   2.479   6.579   6.320
 1565TIP3    H226255   2.443   6.699   6.235
 1566TIP3   OH226256   4.130   2.073   8.609
 1566TIP3    H126257   4.138   1.994   0.048
 1566TIP3    H226258   4.098   2.139   0.057
 1567TIP3   OH226259   5.200   6.024   8.476
 1567TIP3    H126260   5.167   5.934   8.476
 1567TIP3    H226261   5.294   6.015   8.463
 1568TIP3   OH226262   1.263   6.529   7.968
 1568TIP3    H126263   1.333   6.547   8.031
 1568TIP3    H226264   1.226   6.616   7.948
 1569TIP3   OH226265   0.014   6.577   0.956
 1569TIP3    H126266   6.806   6.589   0.958
 1569TIP3    H226267   0.046   6.631   1.028
 1570TIP3   OH226268   0.802   6.183   0.005
 1570TIP3    H126269   0.733   6.168   0.069
 1570TIP3    H226270   0.758   6.176   8.534
 1571TIP3   OH226271   1.118   6.053   0.394
 1571TIP3    H126272   1.034   6.081   0.358
 1571TIP3    H226273   1.096   5.997   0.468
 1572TIP3   OH226274   4.192   4.380   1.530
 1572TIP3    H126275   4.147   4.464   1.525
 1572TIP3    H226276   4.226   4.376   1.620
 1573TIP3   OH226277   5.279   2.390   6.565
 1573TIP3    H126278   5.271   2.294   6.563
 1573TIP3    H226279   5.371   2.407   6.584
 1574TIP3   OH226280   4.662   2.376   7.700
 1574TIP3    H126281   4.606   2.375   7.778
 1574TIP3    H226282   4.688   2.468   7.691
 1575TIP3   OH226283   6.771   0.448   0.466
 1575TIP3    H126284   6.749   0.529   0.419
 1575TIP3    H226285   6.723   0.455   0.549
 1576TIP3   OH226286   0.071   4.860   1.602
 1576TIP3    H126287   0.059   4.868   1.696
 1576TIP3    H226288   0.012   4.925   1.564
 1577TIP3   OH226289   2.497   2.726   6.899
 1577TIP3    H126290   2.433   2.788   6.866
 1577TIP3    H226291   2.458   2.640   6.882
 1578TIP3   OH226292   2.519   0.094   7.978
 1578TIP3    H126293   2.521   6.885   7.986
 1578TIP3    H226294   2.611   0.120   7.978
 1579TIP3   OH226295   1.959   6.765   7.240
 1579TIP3    H126296   1.984   6.794   7.328
 1579TIP3    H226297   1.946   6.847   7.191
 1580TIP3   OH226298   2.564   1.659   8.288
 1580TIP3    H126299   2.532   1.704   8.366
 1580TIP3    H226300   2.566   1.726   8.220
 1581TIP3   OH226301   2.782   3.950   8.224
 1581TIP3    H126302   2.711   3.988   8.275
 1581TIP3    H226303   2.766   3.979   8.134
 1582TIP3   OH226304   5.833   5.381   7.808
 1582TIP3    H126305   5.864   5.294   7.834
 1582TIP3    H226306   5.835   5.432   7.889
 1583TIP3   OH226307   0.825   3.890   0.801
 1583TIP3    H126308   0.766   3.954   0.761
 1583TIP3    H226309   0.795   3.883   0.892
 1584TIP3   OH226310   5.647   6.272   7.351
 1584TIP3    H126311   5.628   6.350   7.299
 1584TIP3    H226312   5.562   6.231   7.366
 1585TIP3   OH226313   3.183   4.014   0.741
 1585TIP3    H126314   3.155   3.971   0.661
 1585TIP3    H226315   3.107   4.012   0.798
 1586TIP3   OH226316   4.526   3.454   7.309
 1586TIP3    H126317   4.442   3.478   7.272
 1586TIP3    H226318   4.505   3.424   7.398
 1587TIP3   OH226319   3.820   4.377   7.176
 1587TIP3    H126320   3.880   4.384   7.249
 1587TIP3    H226321   3.876   4.382   7.098
 1588TIP3   OH226322   4.250   1.960   7.898
 1588TIP3    H126323   4.197   2.021   7.847
 1588TIP3    H226324   4.289   2.014   7.966
 1589TIP3   OH226325   1.596   6.653   0.438
 1589TIP3    H126326   1.535   6.710   0.484
 1589TIP3    H226327   1.681   6.696   0.446
 1590TIP3   OH226328   1.953   0.348   6.694
 1590TIP3    H126329   1.900   0.391   6.627
 1590TIP3    H226330   1.947   0.255   6.673
 1591TIP3   OH226331   1.927   1.846   1.078
 1591TIP3    H126332   1.862   1.912   1.101
 1591TIP3    H226333   1.875   1.771   1.049
 1592TIP3   OH226334   1.026   1.478   8.227
 1592TIP3    H126335   1.078   1.536   8.172
 1592TIP3    H226336   0.943   1.525   8.238
 1593TIP3   OH226337   6.098   6.001   0.103
 1593TIP3    H126338   6.078   6.095   0.105
 1593TIP3    H226339   6.013   5.958   0.112
 1594TIP3   OH226340   1.565   6.676   1.866
 1594TIP3    H126341   1.560   6.650   1.774
 1594TIP3    H226342   1.495   6.741   1.877
 1595TIP3   OH226343   3.639   0.761   8.607
 1595TIP3    H126344   3.722   0.807   0.008
 1595TIP3    H226345   3.578   0.829   8.581
 1596TIP3   OH226346   2.898   5.431   2.180
 1596TIP3    H126347   2.942   5.468   2.257
 1596TIP3    H226348   2.961   5.443   2.109
 1597TIP3   OH226349   0.221   6.793   1.519
 1597TIP3    H126350   0.282   6.727   1.485
 1597TIP3    H226351   0.276   6.857   1.563
 1598TIP3   OH226352   5.034   1.216   8.518
 1598TIP3    H126353   5.043   1.133   8.564
 1598TIP3    H226354   5.115   1.225   8.468
 1599TIP3   OH226355   4.143   2.259   7.080
 1599TIP3    H126356   4.077   2.209   7.031
 1599TIP3    H226357   4.187   2.193   7.134
 1600TIP3   OH226358   0.629   0.745   1.076
 1600TIP3    H126359   0.535   0.728   1.088
 1600TIP3    H226360   0.659   0.769   1.164
 1601TIP3   OH226361   1.580   4.108   7.805
 1601TIP3    H126362   1.530   4.027   7.797
 1601TIP3    H226363   1.555   4.160   7.729
 1602TIP3   OH226364   4.347   1.084   2.072
 1602TIP3    H126365   4.320   0.996   2.096
 1602TIP3    H226366   4.271   1.139   2.089
 1603TIP3   OH226367   5.547   0.676   0.304
 1603TIP3    H126368   5.583   0.763   0.325
 1603TIP3    H226369   5.457   0.679   0.336
 1604TIP3   OH226370   5.911   6.434   0.904
 1604TIP3    H126371   5.869   6.377   0.968
 1604TIP3    H226372   5.858   6.514   0.904
 1605TIP3   OH226373   1.537   6.224   0.564
 1605TIP3    H126374   1.556   6.185   0.649
 1605TIP3    H226375   1.600   6.182   0.504
 1606TIP3   OH226376   4.784   4.871   7.656
 1606TIP3    H126377   4.771   4.965   7.666
 1606TIP3    H226378   4.839   4.847   7.731
 1607TIP3   OH226379   3.677   4.192   6.497
 1607TIP3    H126380   3.699   4.283   6.518
 1607TIP3    H226381   3.641   4.196   6.408
 1608TIP3   OH226382   6.831   4.463   0.548
 1608TIP3    H126383   6.794   4.420   0.625
 1608TIP3    H226384   6.814   4.402   0.476
 1609TIP3   OH226385   6.522   3.907   7.043
 1609TIP3    H126386   6.609   3.869   7.051
 1609TIP3    H226387   6.463   3.837   7.073
 1610TIP3   OH226388   2.852   6.017   7.357
 1610TIP3    H126389   2.947   6.002   7.353
 1610TIP3    H226390   2.843   6.112   7.363
 1611TIP3   OH226391   0.823   3.324   2.326
 1611TIP3    H126392   0.788   3.413   2.334
 1611TIP3    H226393   0.809   3.302   2.233
 1612TIP3   OH226394   1.498   3.152   7.205
 1612TIP3    H126395   1.508   3.171   7.112
 1612TIP3    H226396   1.582   3.175   7.244
 1613TIP3   OH226397   6.461   6.075   8.527
 1613TIP3    H126398   6.522   6.013   8.487
 1613TIP3    H226399   6.420   6.120   8.453
 1614TIP3   OH226400   6.786   2.990   6.757
 1614TIP3    H126401   6.727   2.918   6.734
 1614TIP3    H226402   6.822   3.020   6.673
 1615TIP3   OH226403   1.181   5.516   0.030
 1615TIP3    H126404   1.166   5.442   0.088
 1615TIP3    H226405   1.175   5.593   0.086
 1616TIP3   OH226406   0.496   5.121   0.619
 1616TIP3    H126407   0.546   5.190   0.663
 1616TIP3    H226408   0.455   5.166   0.544
 1617TIP3   OH226409   5.759   4.086   1.268
 1617TIP3    H126410   5.794   4.074   1.356
 1617TIP3    H226411   5.674   4.042   1.270
 1618TIP3   OH226412   4.858   0.310   8.265
 1618TIP3    H126413   4.929   0.295   8.202
 1618TIP3    H226414   4.785   0.257   8.233
 1619TIP3   OH226415   2.583   4.297   8.057
 1619TIP3    H126416   2.667   4.344   8.059
 1619TIP3    H226417   2.604   4.213   8.015
 1620TIP3   OH226418   0.479   1.550   0.958
 1620TIP3    H126419   0.505   1.612   1.025
 1620TIP3    H226420   0.561   1.507   0.932
 1621TIP3   OH226421   0.005   4.715   8.113
 1621TIP3    H126422   0.004   4.624   8.083
 1621TIP3    H226423   6.878   4.709   8.208
 1622TIP3   OH226424   6.499   5.684   1.090
 1622TIP3    H126425   6.581   5.705   1.044
 1622TIP3    H226426   6.483   5.759   1.147
 1623TIP3   OH226427   2.077   5.736   1.147
 1623TIP3    H126428   2.016   5.675   1.189
 1623TIP3    H226429   2.099   5.695   1.064
 1624TIP3   OH226430   6.235   3.603   1.456
 1624TIP3    H126431   6.249   3.520   1.501
 1624TIP3    H226432   6.161   3.586   1.397
 1625TIP3   OH226433   0.790   6.450   7.846
 1625TIP3    H126434   0.730   6.479   7.778
 1625TIP3    H226435   0.738   6.391   7.900
 1626TIP3   OH226436   1.742   5.478   6.802
 1626TIP3    H126437   1.716   5.473   6.711
 1626TIP3    H226438   1.791   5.560   6.809
 1627TIP3   OH226439   6.359   0.454   0.873
 1627TIP3    H126440   6.342   0.543   0.902
 1627TIP3    H226441   6.427   0.422   0.932
 1628TIP3   OH226442   5.195   1.408   1.031
 1628TIP3    H126443   5.199   1.313   1.030
 1628TIP3    H226444   5.114   1.429   1.078
 1629TIP3   OH226445   6.110   0.291   8.533
 1629TIP3    H126446   6.040   0.356   8.531
 1629TIP3    H226447   6.064   0.207   8.527
 1630TIP3   OH226448   3.142   1.276   8.227
 1630TIP3    H126449   3.149   1.372   8.227
 1630TIP3    H226450   3.055   1.258   8.192
 1631TIP3   OH226451   6.460   2.428   7.868
 1631TIP3    H126452   6.467   2.417   7.773
 1631TIP3    H226453   6.447   2.523   7.880
 1632TIP3   OH226454   1.273   4.143   8.421
 1632TIP3    H126455   1.264   4.231   8.383
 1632TIP3    H226456   1.269   4.084   8.345
 1633TIP3   OH226457   0.162   5.163   1.505
 1633TIP3    H126458   0.252   5.180   1.477
 1633TIP3    H226459   0.123   5.115   1.432
 1634TIP3   OH226460   5.538   2.713   7.959
 1634TIP3    H126461   5.493   2.757   7.886
 1634TIP3    H226462   5.627   2.750   7.957
 1635TIP3   OH226463   3.323   5.444   8.013
 1635TIP3    H126464   3.279   5.431   7.929
 1635TIP3    H226465   3.399   5.498   7.992
 1636TIP3   OH226466   3.969   6.393   0.711
 1636TIP3    H126467   3.968   6.308   0.666
 1636TIP3    H226468   3.947   6.372   0.802
 1637TIP3   OH226469   3.676   4.938   1.005
 1637TIP3    H126470   3.718   5.012   0.960
 1637TIP3    H226471   3.587   4.937   0.970
 1638TIP3   OH226472   5.052   4.084   2.067
 1638TIP3    H126473   5.123   4.044   2.117
 1638TIP3    H226474   4.978   4.088   2.128
 1639TIP3   OH226475   5.197   3.796   6.931
 1639TIP3    H126476   5.247   3.876   6.943
 1639TIP3    H226477   5.127   3.820   6.870
 1640TIP3   OH226478   6.189   4.894   7.919
 1640TIP3    H126479   6.244   4.820   7.946
 1640TIP3    H226480   6.235   4.972   7.950
 1641TIP3   OH226481   3.027   3.296   0.762
 1641TIP3    H126482   3.096   3.286   0.828
 1641TIP3    H226483   3.012   3.390   0.757
 1642TIP3   OH226484   2.788   2.790   8.098
 1642TIP3    H126485   2.695   2.801   8.082
 1642TIP3    H226486   2.824   2.760   8.015
 1643TIP3   OH226487   1.383   6.819   7.347
 1643TIP3    H126488   1.468   6.802   7.389
 1643TIP3    H226489   1.352   0.013   7.387
 1644TIP3   OH226490   0.104   4.510   7.118
 1644TIP3    H126491   0.125   4.562   7.196
 1644TIP3    H226492   0.022   4.465   7.141
 1645TIP3   OH226493   1.540   4.788   1.107
 1645TIP3    H126494   1.474   4.734   1.063
 1645TIP3    H226495   1.538   4.871   1.059
 1646TIP3   OH226496   2.541   2.799   0.191
 1646TIP3    H126497   2.543   2.860   0.118
 1646TIP3    H226498   2.566   2.852   0.267
 1647TIP3   OH226499   0.661   6.663   7.481
 1647TIP3    H126500   0.681   6.695   7.393
 1647TIP3    H226501   0.589   6.601   7.468
 1648TIP3   OH226502   2.207   0.549   1.323
 1648TIP3    H126503   2.271   0.579   1.388
 1648TIP3    H226504   2.128   0.600   1.342
 1649TIP3   OH226505   5.310   4.645   1.260
 1649TIP3    H126506   5.320   4.740   1.260
 1649TIP3    H226507   5.237   4.628   1.201
 1650TIP3   OH226508   3.477   5.215   8.141
 1650TIP3    H126509   3.565   5.225   8.178
 1650TIP3    H226510   3.460   5.299   8.098
 1651TIP3   OH226511   4.000   4.803   6.813
 1651TIP3    H126512   3.947   4.788   6.735
 1651TIP3    H226513   4.060   4.728   6.816
 1652TIP3   OH226514   0.090   3.855   8.154
 1652TIP3    H126515   0.162   3.849   8.217
 1652TIP3    H226516   0.129   3.827   8.070
 1653TIP3   OH226517   2.962   4.687   0.041
 1653TIP3    H126518   2.951   4.664   0.133
 1653TIP3    H226519   3.045   4.646   0.016
 1654TIP3   OH226520   0.432   6.503   7.518
 1654TIP3    H126521   0.484   6.423   7.522
 1654TIP3    H226522   0.405   6.519   7.608
 1655TIP3   OH226523   4.747   2.216   1.004
 1655TIP3    H126524   4.745   2.138   1.060
 1655TIP3    H226525   4.833   2.255   1.020
 1656TIP3   OH226526   5.284   1.873   8.037
 1656TIP3    H126527   5.372   1.896   8.010
 1656TIP3    H226528   5.244   1.834   7.960
 1657TIP3   OH226529   4.784   1.454   6.574
 1657TIP3    H126530   4.735   1.533   6.551
 1657TIP3    H226531   4.839   1.480   6.648
 1658TIP3   OH226532   3.156   2.788   0.107
 1658TIP3    H126533   3.098   2.756   0.176
 1658TIP3    H226534   3.244   2.783   0.146
 1659TIP3   OH226535   4.129   4.338   1.221
 1659TIP3    H126536   4.108   4.266   1.280
 1659TIP3    H226537   4.071   4.409   1.249
 1660TIP3   OH226538   5.120   0.623   6.883
 1660TIP3    H126539   5.214   0.631   6.865
 1660TIP3    H226540   5.102   0.529   6.879
 1661TIP3   OH226541   1.220   2.378   0.700
 1661TIP3    H126542   1.239   2.310   0.766
 1661TIP3    H226543   1.271   2.454   0.729
 1662TIP3   OH226544   5.123   5.764   6.972
 1662TIP3    H126545   5.073   5.846   6.975
 1662TIP3    H226546   5.143   5.745   7.063
 1663TIP3   OH226547   4.431   4.171   2.068
 1663TIP3    H126548   4.498   4.209   2.011
 1663TIP3    H226549   4.474   4.095   2.108
 1664TIP3   OH226550   3.295   0.558   7.294
 1664TIP3    H126551   3.380   0.548   7.250
 1664TIP3    H226552   3.230   0.539   7.226
 1665TIP3   OH226553   3.633   0.024   7.037
 1665TIP3    H126554   3.660   6.874   6.953
 1665TIP3    H226555   3.577   6.844   7.076
 1666TIP3   OH226556   6.405   6.707   1.379
 1666TIP3    H126557   6.493   6.674   1.362
 1666TIP3    H226558   6.416   6.766   1.454
 1667TIP3   OH226559   3.526   3.560   7.884
 1667TIP3    H126560   3.553   3.650   7.865
 1667TIP3    H226561   3.599   3.506   7.855
 1668TIP3   OH226562   0.179   5.656   7.953
 1668TIP3    H126563   0.251   5.595   7.933
 1668TIP3    H226564   0.192   5.679   8.045
 1669TIP3   OH226565   1.236   6.778   0.296
 1669TIP3    H126566   1.252   6.703   0.239
 1669TIP3    H226567   1.145   6.802   0.279
 1670TIP3   OH226568   5.416   5.793   1.147
 1670TIP3    H126569   5.455   5.794   1.060
 1670TIP3    H226570   5.484   5.755   1.203
 1671TIP3   OH226571   3.096   5.172   1.103
 1671TIP3    H126572   3.126   5.223   1.178
 1671TIP3    H226573   3.037   5.106   1.140
 1672TIP3   OH226574   0.794   4.512   0.717
 1672TIP3    H126575   0.857   4.453   0.760
 1672TIP3    H226576   0.816   4.507   0.624
 1673TIP3   OH226577   6.869   4.064   7.567
 1673TIP3    H126578   0.071   4.067   7.602
 1673TIP3    H226579   6.881   4.054   7.473
 1674TIP3   OH226580   5.486   0.035   2.462
 1674TIP3    H126581   5.403   0.078   2.438
 1674TIP3    H226582   5.520   0.088   2.534
 1675TIP3   OH226583   4.993   0.585   0.150
 1675TIP3    H126584   5.045   0.606   0.072
 1675TIP3    H226585   4.964   0.670   0.182
 1676TIP3   OH226586   5.112   0.538   7.215
 1676TIP3    H126587   5.081   0.519   7.126
 1676TIP3    H226588   5.205   0.515   7.214
 1677TIP3   OH226589   4.273   5.205   0.422
 1677TIP3    H126590   4.287   5.251   0.505
 1677TIP3    H226591   4.346   5.143   0.416
 1678TIP3   OH226592   2.042   1.476   8.534
 1678TIP3    H126593   1.984   1.467   8.459
 1678TIP3    H226594   2.109   1.539   8.506
 1679TIP3   OH226595   6.376   6.007   7.372
 1679TIP3    H126596   6.436   6.061   7.424
 1679TIP3    H226597   6.301   5.991   7.430
 1680TIP3   OH226598   2.460   2.879   7.433
 1680TIP3    H126599   2.488   2.885   7.342
 1680TIP3    H226600   2.431   2.968   7.455
 1681TIP3   OH226601   1.174   2.817   8.391
 1681TIP3    H126602   1.130   2.735   8.415
 1681TIP3    H226603   1.239   2.791   8.327
 1682TIP3   OH226604   4.447   3.606   8.146
 1682TIP3    H126605   4.480   3.575   8.230
 1682TIP3    H226606   4.487   3.692   8.135
 1683TIP3   OH226607   1.641   3.507   0.794
 1683TIP3    H126608   1.572   3.479   0.854
 1683TIP3    H226609   1.695   3.567   0.845
 1684TIP3   OH226610   3.167   2.966   7.732
 1684TIP3    H126611   3.249   2.925   7.760
 1684TIP3    H226612   3.106   2.950   7.804
 1685TIP3   OH226613   1.838   1.433   8.301
 1685TIP3    H126614   1.868   1.523   8.291
 1685TIP3    H226615   1.745   1.436   8.277
 1686TIP3   OH226616   3.026   4.019   0.495
 1686TIP3    H126617   3.025   4.023   0.400
 1686TIP3    H226618   3.088   4.086   0.522
 1687TIP3   OH226619   5.127   2.678   1.022
 1687TIP3    H126620   5.200   2.696   1.081
 1687TIP3    H226621   5.069   2.754   1.032
 1688TIP3   OH226622   6.400   2.898   0.294
 1688TIP3    H126623   6.359   2.897   0.381
 1688TIP3    H226624   6.493   2.912   0.311
 1689TIP3   OH226625   6.455   1.106   7.888
 1689TIP3    H126626   6.510   1.073   7.959
 1689TIP3    H226627   6.431   1.028   7.837
 1690TIP3   OH226628   3.139   0.025   2.857
 1690TIP3    H126629   3.137   0.121   2.862
 1690TIP3    H226630   3.062   0.002   2.806
 1691TIP3   OH226631   6.114   6.302   6.417
 1691TIP3    H126632   6.190   6.347   6.455
 1691TIP3    H226633   6.040   6.332   6.471
 1692TIP3   OH226634   3.213   0.753   0.190
 1692TIP3    H126635   3.207   0.687   0.121
 1692TIP3    H226636   3.283   0.812   0.160
 1693TIP3   OH226637   1.817   1.112   6.528
 1693TIP3    H126638   1.825   1.187   6.587
 1693TIP3    H226639   1.872   1.045   6.569
 1694TIP3   OH226640   3.470   1.105   8.211
 1694TIP3    H126641   3.500   1.015   8.215
 1694TIP3    H226642   3.529   1.147   8.149
 1695TIP3   OH226643   3.763   4.214   1.017
 1695TIP3    H126644   3.751   4.296   1.067
 1695TIP3    H226645   3.684   4.163   1.038
 1696TIP3   OH226646   1.080   4.875   0.281
 1696TIP3    H126647   1.076   4.832   0.367
 1696TIP3    H226648   1.093   4.804   0.219
 1697TIP3   OH226649   4.200   4.688   1.011
 1697TIP3    H126650   4.106   4.694   0.996
 1697TIP3    H226651   4.239   4.743   0.942
 1698TIP3   OH226652   5.062   0.889   8.118
 1698TIP3    H126653   5.062   0.960   8.054
 1698TIP3    H226654   5.128   0.915   8.182
 1699TIP3   OH226655   6.669   2.992   0.382
 1699TIP3    H126656   6.675   3.040   0.299
 1699TIP3    H226657   6.673   3.059   0.449
 1700TIP3   OH226658   1.363   3.354   7.835
 1700TIP3    H126659   1.283   3.345   7.783
 1700TIP3    H226660   1.409   3.271   7.824
 1701TIP3   OH226661   5.414   5.898   1.671
 1701TIP3    H126662   5.330   5.913   1.715
 1701TIP3    H226663   5.392   5.897   1.578
 1702TIP3   OH226664   6.446   1.196   7.572
 1702TIP3    H126665   6.379   1.128   7.568
 1702TIP3    H226666   6.431   1.240   7.655
 1703TIP3   OH226667   4.006   1.537   1.904
 1703TIP3    H126668   4.030   1.459   1.852
 1703TIP3    H226669   3.950   1.503   1.974
 1704TIP3   OH226670   5.270   0.630   1.188
 1704TIP3    H126671   5.275   0.660   1.097
 1704TIP3    H226672   5.269   0.710   1.240
 1705TIP3   OH226673   2.622   3.249   6.984
 1705TIP3    H126674   2.662   3.225   6.900
 1705TIP3    H226675   2.581   3.334   6.967
 1706TIP3   OH226676   3.004   6.590   1.215
 1706TIP3    H126677   3.040   6.653   1.278
 1706TIP3    H226678   2.962   6.645   1.148
 1707TIP3   OH226679   2.369   3.758   7.075
 1707TIP3    H126680   2.358   3.842   7.030
 1707TIP3    H226681   2.451   3.768   7.123
 1708TIP3   OH226682   5.067   1.925   7.577
 1708TIP3    H126683   5.025   1.905   7.494
 1708TIP3    H226684   5.129   1.854   7.590
 1709TIP3   OH226685   4.248   0.665   0.797
 1709TIP3    H126686   4.321   0.606   0.815
 1709TIP3    H226687   4.251   0.681   0.703
 1710TIP3   OH226688   3.080   5.183   7.705
 1710TIP3    H126689   3.149   5.195   7.639
 1710TIP3    H226690   3.007   5.147   7.655
 1711TIP3   OH226691   2.238   4.021   7.632
 1711TIP3    H126692   2.304   4.087   7.610
 1711TIP3    H226693   2.283   3.938   7.620
 1712TIP3   OH226694   1.403   5.127   1.179
 1712TIP3    H126695   1.393   5.076   1.259
 1712TIP3    H226696   1.490   5.104   1.147
 1713TIP3   OH226697   4.163   5.661   8.009
 1713TIP3    H126698   4.188   5.632   7.921
 1713TIP3    H226699   4.168   5.581   8.062
 1714TIP3   OH226700   6.131   6.826   1.591
 1714TIP3    H126701   6.205   6.859   1.642
 1714TIP3    H226702   6.153   6.844   1.500
 1715TIP3   OH226703   3.005   3.173   7.642
 1715TIP3    H126704   3.059   3.097   7.664
 1715TIP3    H226705   3.018   3.185   7.548
 1716TIP3   OH226706   5.626   5.365   0.100
 1716TIP3    H126707   5.650   5.352   0.009
 1716TIP3    H226708   5.665   5.291   0.146
 1717TIP3   OH226709   2.521   4.840   7.700
 1717TIP3    H126710   2.475   4.812   7.620
 1717TIP3    H226711   2.613   4.848   7.673
 1718TIP3   OH226712   1.772   4.047   8.116
 1718TIP3    H126713   1.830   4.014   8.047
 1718TIP3    H226714   1.804   4.005   8.196
 1719TIP3   OH226715   1.662   6.605   6.534
 1719TIP3    H126716   1.655   6.695   6.567
 1719TIP3    H226717   1.621   6.551   6.602
 1720TIP3   OH226718   3.845   3.409   0.566
 1720TIP3    H126719   3.783   3.430   0.496
 1720TIP3    H226720   3.914   3.476   0.559
 1721TIP3   OH226721   6.651   5.270   2.294
 1721TIP3    H126722   6.568   5.238   2.329
 1721TIP3    H226723   6.717   5.230   2.351
 1722TIP3   OH226724   0.063   6.781   7.265
 1722TIP3    H126725   0.040   6.698   7.306
 1722TIP3    H226726   0.028   6.776   7.177
 1723TIP3   OH226727   5.597   2.681   7.126
 1723TIP3    H126728   5.515   2.633   7.119
 1723TIP3    H226729   5.571   2.768   7.158
 1724TIP3   OH226730   5.710   6.298   7.683
 1724TIP3    H126731   5.680   6.300   7.592
 1724TIP3    H226732   5.792   6.348   7.681
 1725TIP3   OH226733   5.515   2.740   8.269
 1725TIP3    H126734   5.478   2.684   8.201
 1725TIP3    H226735   5.476   2.707   8.350
 1726TIP3   OH226736   2.835   1.169   1.103
 1726TIP3    H126737   2.742   1.193   1.103
 1726TIP3    H226738   2.880   1.246   1.069
 1727TIP3   OH226739   2.116   0.351   8.356
 1727TIP3    H126740   2.022   0.365   8.358
 1727TIP3    H226741   2.134   0.297   8.433
 1728TIP3   OH226742   0.784   6.634   0.268
 1728TIP3    H126743   0.724   6.652   0.340
 1728TIP3    H226744   0.731   6.586   0.204
 1729TIP3   OH226745   1.353   4.392   8.232
 1729TIP3    H126746   1.283   4.333   8.203
 1729TIP3    H226747   1.434   4.347   8.210
 1730TIP3   OH226748   1.213   3.972   6.723
 1730TIP3    H126749   1.203   4.064   6.748
 1730TIP3    H226750   1.286   3.972   6.661
 1731TIP3   OH226751   5.812   5.949   1.491
 1731TIP3    H126752   5.875   5.877   1.486
 1731TIP3    H226753   5.846   6.006   1.560
 1732TIP3   OH226754   4.755   2.038   1.207
 1732TIP3    H126755   4.682   2.019   1.266
 1732TIP3    H226756   4.763   1.960   1.152
 1733TIP3   OH226757   2.299   3.148   2.266
 1733TIP3    H126758   2.350   3.158   2.186
 1733TIP3    H226759   2.227   3.091   2.242
 1734TIP3   OH226760   4.698   1.152   6.362
 1734TIP3    H126761   4.618   1.157   6.415
 1734TIP3    H226762   4.696   1.231   6.307
 1735TIP3   OH226763   3.376   1.972   6.963
 1735TIP3    H126764   3.305   2.006   6.909
 1735TIP3    H226765   3.351   1.997   7.053
 1736TIP3   OH226766   0.860   0.526   1.424
 1736TIP3    H126767   0.919   0.560   1.492
 1736TIP3    H226768   0.840   0.602   1.370
 1737TIP3   OH226769   4.324   3.643   7.861
 1737TIP3    H126770   4.333   3.548   7.863
 1737TIP3    H226771   4.413   3.676   7.875
 1738TIP3   OH226772   0.912   3.139   0.061
 1738TIP3    H126773   0.851   3.071   0.088
 1738TIP3    H226774   0.859   3.202   0.012
 1739TIP3   OH226775   5.244   6.618   6.968
 1739TIP3    H126776   5.257   6.541   7.023
 1739TIP3    H226777   5.155   6.646   6.987
 1740TIP3   OH226778   2.453   6.370   8.101
 1740TIP3    H126779   2.539   6.332   8.082
 1740TIP3    H226780   2.450   6.379   8.196
 1741TIP3   OH226781   5.171   6.480   6.402
 1741TIP3    H126782   5.124   6.438   6.330
 1741TIP3    H226783   5.190   6.568   6.371
 1742TIP3   OH226784   1.459   1.439   1.185
 1742TIP3    H126785   1.552   1.445   1.207
 1742TIP3    H226786   1.422   1.377   1.248
 1743TIP3   OH226787   6.731   6.751   1.106
 1743TIP3    H126788   6.766   6.821   1.050
 1743TIP3    H226789   6.713   6.794   1.190
 1744TIP3   OH226790   6.595   0.950   8.084
 1744TIP3    H126791   6.607   0.885   8.014
 1744TIP3    H226792   6.643   0.912   8.159
 1745TIP3   OH226793   0.642   3.211   0.359
 1745TIP3    H126794   0.686   3.255   0.432
 1745TIP3    H226795   0.566   3.169   0.399
 1746TIP3   OH226796   3.926   6.235   8.340
 1746TIP3    H126797   3.888   6.149   8.360
 1746TIP3    H226798   3.917   6.243   8.245
 1747TIP3   OH226799   0.973   4.041   7.299
 1747TIP3    H126800   0.892   4.023   7.347
 1747TIP3    H226801   1.038   3.983   7.338
 1748TIP3   OH226802   4.617   3.494   0.735
 1748TIP3    H126803   4.693   3.549   0.751
 1748TIP3    H226804   4.647   3.428   0.673
 1749TIP3   OH226805   1.538   4.690   1.715
 1749TIP3    H126806   1.443   4.693   1.707
 1749TIP3    H226807   1.565   4.623   1.652
 1750TIP3   OH226808   0.274   3.385   7.188
 1750TIP3    H126809   0.344   3.446   7.209
 1750TIP3    H226810   0.319   3.308   7.153
 1751TIP3   OH226811   3.777   2.076   6.719
 1751TIP3    H126812   3.714   2.047   6.785
 1751TIP3    H226813   3.852   2.016   6.729
 1752TIP3   OH226814   5.477   3.497   2.109
 1752TIP3    H126815   5.440   3.444   2.180
 1752TIP3    H226816   5.461   3.588   2.136
 1753TIP3   OH226817   3.476   6.453   1.559
 1753TIP3    H126818   3.424   6.380   1.594
 1753TIP3    H226819   3.482   6.515   1.631
 1754TIP3   OH226820   3.613   2.256   1.378
 1754TIP3    H126821   3.647   2.322   1.439
 1754TIP3    H226822   3.519   2.274   1.373
 1755TIP3   OH226823   3.395   2.905   0.870
 1755TIP3    H126824   3.402   2.906   0.774
 1755TIP3    H226825   3.480   2.935   0.901
 1756TIP3   OH226826   2.424   5.330   1.617
 1756TIP3    H126827   2.422   5.305   1.709
 1756TIP3    H226828   2.429   5.425   1.617
 1757TIP3   OH226829   6.153   4.823   1.269
 1757TIP3    H126830   6.059   4.816   1.288
 1757TIP3    H226831   6.165   4.914   1.243
 1758TIP3   OH226832   0.941   2.017   6.676
 1758TIP3    H126833   1.001   2.034   6.749
 1758TIP3    H226834   0.987   2.050   6.599
 1759TIP3   OH226835   1.913   1.800   0.635
 1759TIP3    H126836   1.823   1.782   0.663
 1759TIP3    H226837   1.918   1.766   0.546
 1760TIP3   OH226838   6.733   0.507   6.714
 1760TIP3    H126839   6.644   0.488   6.744
 1760TIP3    H226840   6.720   0.567   6.640
 1761TIP3   OH226841   6.392   2.383   1.411
 1761TIP3    H126842   6.446   2.348   1.482
 1761TIP3    H226843   6.412   2.476   1.409
 1762TIP3   OH226844   3.774   5.461   8.264
 1762TIP3    H126845   3.862   5.471   8.301
 1762TIP3    H226846   3.781   5.388   8.204
 1763TIP3   OH226847   0.755   2.964   7.371
 1763TIP3    H126848   0.711   2.924   7.296
 1763TIP3    H226849   0.751   2.897   7.440
 1764TIP3   OH226850   6.281   6.279   8.069
 1764TIP3    H126851   6.254   6.232   8.148
 1764TIP3    H226852   6.256   6.222   7.997
 1765TIP3   OH226853   2.365   0.928   1.282
 1765TIP3    H126854   2.460   0.939   1.288
 1765TIP3    H226855   2.353   0.857   1.219
 1766TIP3   OH226856   2.202   5.050   8.353
 1766TIP3    H126857   2.255   5.060   8.274
 1766TIP3    H226858   2.160   4.965   8.344
 1767TIP3   OH226859   4.477   5.309   6.933
 1767TIP3    H126860   4.505   5.286   6.844
 1767TIP3    H226861   4.441   5.398   6.924
 1768TIP3   OH226862   0.399   2.244   6.964
 1768TIP3    H126863   0.385   2.338   6.970
 1768TIP3    H226864   0.493   2.233   6.973
 1769TIP3   OH226865   5.908   6.648   1.603
 1769TIP3    H126866   5.889   6.644   1.509
 1769TIP3    H226867   5.965   6.724   1.612
 1770TIP3   OH226868   2.331   2.498   0.042
 1770TIP3    H126869   2.329   2.563   8.585
 1770TIP3    H226870   2.344   2.414   8.611
 1771TIP3   OH226871   4.580   5.185   8.375
 1771TIP3    H126872   4.499   5.211   8.331
 1771TIP3    H226873   4.562   5.097   8.408
 1772TIP3   OH226874   1.249   5.771   1.696
 1772TIP3    H126875   1.214   5.700   1.642
 1772TIP3    H226876   1.184   5.841   1.689
 1773TIP3   OH226877   4.255   5.310   1.221
 1773TIP3    H126878   4.320   5.260   1.271
 1773TIP3    H226879   4.171   5.283   1.257
 1774TIP3   OH226880   2.526   0.218   6.470
 1774TIP3    H126881   2.466   0.292   6.460
 1774TIP3    H226882   2.498   0.176   6.552
 1775TIP3   OH226883   4.208   6.026   1.083
 1775TIP3    H126884   4.151   6.080   1.029
 1775TIP3    H226885   4.201   6.064   1.171
 1776TIP3   OH226886   5.320   4.880   7.123
 1776TIP3    H126887   5.326   4.874   7.027
 1776TIP3    H226888   5.238   4.927   7.139
 1777TIP3   OH226889   5.121   6.080   8.001
 1777TIP3    H126890   5.094   6.100   7.912
 1777TIP3    H226891   5.143   6.165   8.039
 1778TIP3   OH226892   2.632   4.921   2.643
 1778TIP3    H126893   2.697   4.931   2.573
 1778TIP3    H226894   2.587   5.005   2.645
 1779TIP3   OH226895   4.854   5.570   6.953
 1779TIP3    H126896   4.948   5.580   6.940
 1779TIP3    H226897   4.819   5.547   6.867
 1780TIP3   OH226898   6.083   4.190   7.933
 1780TIP3    H126899   6.172   4.204   7.899
 1780TIP3    H226900   6.090   4.110   7.984
 1781TIP3   OH226901   4.423   4.803   7.812
 1781TIP3    H126902   4.428   4.812   7.907
 1781TIP3    H226903   4.420   4.893   7.779
 1782TIP3   OH226904   5.468   5.411   1.131
 1782TIP3    H126905   5.496   5.477   1.194
 1782TIP3    H226906   5.445   5.335   1.184
 1783TIP3   OH226907   4.969   4.566   1.894
 1783TIP3    H126908   4.931   4.534   1.976
 1783TIP3    H226909   5.045   4.511   1.880
 1784TIP3   OH226910   6.678   1.538   7.671
 1784TIP3    H126911   6.624   1.504   7.600
 1784TIP3    H226912   6.722   1.614   7.634
 1785TIP3   OH226913   4.311   0.143   2.215
 1785TIP3    H126914   4.362   0.119   2.292
 1785TIP3    H226915   4.361   0.212   2.173
 1786TIP3   OH226916   5.692   2.951   2.284
 1786TIP3    H126917   5.781   2.987   2.288
 1786TIP3    H226918   5.659   2.957   2.373
 1787TIP3   OH226919   1.762   5.152   0.883
 1787TIP3    H126920   1.799   5.079   0.832
 1787TIP3    H226921   1.785   5.230   0.832
 1788TIP3   OH226922   4.721   1.440   1.109
 1788TIP3    H126923   4.816   1.452   1.101
 1788TIP3    H226924   4.706   1.351   1.077
 1789TIP3   OH226925   3.040   2.040   7.594
 1789TIP3    H126926   2.997   2.106   7.649
 1789TIP3    H226927   3.040   1.961   7.648
 1790TIP3   OH226928   0.666   2.761   2.380
 1790TIP3    H126929   0.592   2.818   2.360
 1790TIP3    H226930   0.742   2.819   2.374
 1791TIP3   OH226931   6.195   6.781   7.682
 1791TIP3    H126932   6.197   6.692   7.716
 1791TIP3    H226933   6.181   6.771   7.588
 1792TIP3   OH226934   1.016   2.252   0.901
 1792TIP3    H126935   1.110   2.260   0.915
 1792TIP3    H226936   0.980   2.234   0.988
 1793TIP3   OH226937   5.248   3.801   1.615
 1793TIP3    H126938   5.205   3.815   1.699
 1793TIP3    H226939   5.284   3.886   1.592
 1794TIP3   OH226940   5.270   4.042   0.698
 1794TIP3    H126941   5.230   4.116   0.743
 1794TIP3    H226942   5.294   4.075   0.612
 1795TIP3   OH226943   5.159   1.182   6.873
 1795TIP3    H126944   5.207   1.134   6.806
 1795TIP3    H226945   5.185   1.273   6.861
 1796TIP3   OH226946   4.475   4.953   1.122
 1796TIP3    H126947   4.498   4.865   1.152
 1796TIP3    H226948   4.379   4.952   1.119
 1797TIP3   OH226949   6.824   5.883   7.184
 1797TIP3    H126950   6.760   5.823   7.147
 1797TIP3    H226951   0.016   5.830   7.197
 1798TIP3   OH226952   2.310   1.376   7.920
 1798TIP3    H126953   2.387   1.429   7.898
 1798TIP3    H226954   2.342   1.286   7.923
 1799TIP3   OH226955   1.329   4.667   1.383
 1799TIP3    H126956   1.413   4.643   1.344
 1799TIP3    H226957   1.292   4.730   1.320
 1800TIP3   OH226958   4.389   4.399   7.348
 1800TIP3    H126959   4.314   4.400   7.407
 1800TIP3    H226960   4.403   4.491   7.326
 1801TIP3   OH226961   2.197   5.178   1.915
 1801TIP3    H126962   2.278   5.228   1.903
 1801TIP3    H226963   2.202   5.146   2.005
 1802TIP3   OH226964   0.729   2.699   7.476
 1802TIP3    H126965   0.666   2.672   7.408
 1802TIP3    H226966   0.674   2.725   7.550
 1803TIP3   OH226967   6.294   6.641   0.816
 1803TIP3    H126968   6.342   6.682   0.888
 1803TIP3    H226969   6.292   6.548   0.840
 1804TIP3   OH226970   0.404   3.723   0.919
 1804TIP3    H126971   0.422   3.631   0.940
 1804TIP3    H226972   0.426   3.731   0.826
 1805TIP3   OH226973   6.342   0.892   7.215
 1805TIP3    H126974   6.347   0.988   7.222
 1805TIP3    H226975   6.333   0.876   7.121
 1806TIP3   OH226976   0.256   3.754   1.140
 1806TIP3    H126977   0.313   3.790   1.208
 1806TIP3    H226978   0.315   3.735   1.067
 1807TIP3   OH226979   0.196   1.591   1.551
 1807TIP3    H126980   0.291   1.598   1.540
 1807TIP3    H226981   0.175   1.504   1.517
 1808TIP3   OH226982   2.388   2.666   7.607
 1808TIP3    H126983   2.437   2.718   7.544
 1808TIP3    H226984   2.335   2.731   7.655
 1809TIP3   OH226985   3.851   5.839   0.946
 1809TIP3    H126986   3.945   5.852   0.959
 1809TIP3    H226987   3.809   5.896   1.010
 1810TIP3   OH226988   4.969   4.655   8.309
 1810TIP3    H126989   4.909   4.628   8.239
 1810TIP3    H226990   4.911   4.680   8.381
 1811TIP3   OH226991   5.822   3.969   8.333
 1811TIP3    H126992   5.801   3.886   8.377
 1811TIP3    H226993   5.913   3.986   8.357
 1812TIP3   OH226994   4.339   3.008   0.447
 1812TIP3    H126995   4.270   3.005   0.514
 1812TIP3    H226996   4.420   3.003   0.497
 1813TIP3   OH226997   2.301   4.894   0.309
 1813TIP3    H126998   2.310   4.803   0.339
 1813TIP3    H226999   2.346   4.946   0.375
 1814TIP3   OH227000   0.956   2.601   1.154
 1814TIP3    H127001   0.946   2.627   1.062
 1814TIP3    H227002   1.015   2.526   1.152
 1815TIP3   OH227003   6.885   5.974   7.614
 1815TIP3    H127004   6.812   5.941   7.562
 1815TIP3    H227005   0.058   5.900   7.622
 1816TIP3   OH227006   6.265   3.436   7.046
 1816TIP3    H127007   6.220   3.416   7.128
 1816TIP3    H227008   6.210   3.501   7.004
 1817TIP3   OH227009   1.117   4.984   0.875
 1817TIP3    H127010   1.071   4.932   0.809
 1817TIP3    H227011   1.097   5.075   0.852
 1818TIP3   OH227012   6.836   5.577   0.815
 1818TIP3    H127013   0.044   5.583   0.810
 1818TIP3    H227014   6.818   5.484   0.822
 1819TIP3   OH227015   1.568   1.703   8.544
 1819TIP3    H127016   1.626   1.656   8.603
 1819TIP3    H227017   1.509   1.636   8.510
 1820TIP3   OH227018   2.664   4.050   7.930
 1820TIP3    H127019   2.621   3.981   7.879
 1820TIP3    H227020   2.688   4.116   7.864
 1821TIP3   OH227021   6.861   5.556   2.554
 1821TIP3    H127022   0.064   5.553   2.521
 1821TIP3    H227023   6.853   5.478   2.608
 1822TIP3   OH227024   0.728   0.890   2.054
 1822TIP3    H127025   0.679   0.888   2.137
 1822TIP3    H227026   0.704   0.809   2.010
 1823TIP3   OH227027   0.612   5.215   1.285
 1823TIP3    H127028   0.593   5.308   1.291
 1823TIP3    H227029   0.696   5.204   1.330
 1824TIP3   OH227030   4.731   2.223   7.978
 1824TIP3    H127031   4.776   2.287   7.922
 1824TIP3    H227032   4.645   2.262   7.995
 1825TIP3   OH227033   1.298   4.637   8.318
 1825TIP3    H127034   1.258   4.573   8.376
 1825TIP3    H227035   1.343   4.585   8.251
 1826TIP3   OH227036   1.451   1.535   2.048
 1826TIP3    H127037   1.522   1.590   2.082
 1826TIP3    H227038   1.372   1.569   2.090
 1827TIP3   OH227039   3.398   4.662   7.290
 1827TIP3    H127040   3.304   4.673   7.309
 1827TIP3    H227041   3.400   4.616   7.207
 1828TIP3   OH227042   4.121   0.699   0.324
 1828TIP3    H127043   4.163   0.752   0.256
 1828TIP3    H227044   4.046   0.752   0.353
 1829TIP3   OH227045   3.996   0.860   1.586
 1829TIP3    H127046   3.959   0.774   1.606
 1829TIP3    H227047   4.023   0.855   1.495
 1830TIP3   OH227048   0.545   0.786   7.022
 1830TIP3    H127049   0.489   0.716   7.057
 1830TIP3    H227050   0.526   0.786   6.928
 1831TIP3   OH227051   1.449   1.509   0.167
 1831TIP3    H127052   1.538   1.538   0.149
 1831TIP3    H227053   1.405   1.586   0.203
 1832TIP3   OH227054   2.884   4.872   8.332
 1832TIP3    H127055   2.963   4.858   8.384
 1832TIP3    H227056   2.822   4.808   8.364
 1833TIP3   OH227057   1.233   6.565   7.361
 1833TIP3    H127058   1.249   6.649   7.317
 1833TIP3    H227059   1.138   6.554   7.358
 1834TIP3   OH227060   0.500   3.625   0.656
 1834TIP3    H127061   0.592   3.609   0.676
 1834TIP3    H227062   0.496   3.631   0.561
 1835TIP3   OH227063   2.693   2.270   0.711
 1835TIP3    H127064   2.628   2.341   0.709
 1835TIP3    H227065   2.699   2.247   0.804
 1836TIP3   OH227066   1.113   1.110   1.527
 1836TIP3    H127067   1.026   1.121   1.565
 1836TIP3    H227068   1.147   1.199   1.518
 1837TIP3   OH227069   0.506   3.484   1.153
 1837TIP3    H127070   0.530   3.566   1.196
 1837TIP3    H227071   0.438   3.446   1.208
 1838TIP3   OH227072   3.920   2.618   7.968
 1838TIP3    H127073   3.847   2.657   7.920
 1838TIP3    H227074   3.945   2.684   8.032
 1839TIP3   OH227075   3.458   0.406   0.350
 1839TIP3    H127076   3.384   0.354   0.384
 1839TIP3    H227077   3.448   0.492   0.392
 1840TIP3   OH227078   6.178   0.414   0.154
 1840TIP3    H127079   6.272   0.413   0.174
 1840TIP3    H227080   6.170   0.360   0.075
 1841TIP3   OH227081   4.655   1.997   0.322
 1841TIP3    H127082   4.724   2.007   0.257
 1841TIP3    H227083   4.588   1.945   0.278
 1842TIP3   OH227084   3.657   1.936   7.338
 1842TIP3    H127085   3.713   1.897   7.271
 1842TIP3    H227086   3.594   1.868   7.360
 1843TIP3   OH227087   1.286   5.804   6.916
 1843TIP3    H127088   1.192   5.807   6.933
 1843TIP3    H227089   1.326   5.833   6.998
 1844TIP3   OH227090   6.458   2.144   6.407
 1844TIP3    H127091   6.548   2.172   6.392
 1844TIP3    H227092   6.412   2.224   6.433
 1845TIP3   OH227093   5.799   1.215   6.843
 1845TIP3    H127094   5.787   1.291   6.787
 1845TIP3    H227095   5.827   1.145   6.783
 1846TIP3   OH227096   0.989   6.778   0.981
 1846TIP3    H127097   1.051   6.727   0.929
 1846TIP3    H227098   1.003   6.748   1.071
 1847TIP3   OH227099   6.471   6.456   1.511
 1847TIP3    H127100   6.484   6.437   1.419
 1847TIP3    H227101   6.546   6.510   1.536
 1848TIP3   OH227102   3.243   0.153   1.535
 1848TIP3    H127103   3.257   0.240   1.497
 1848TIP3    H227104   3.323   0.135   1.584
 1849TIP3   OH227105   0.359   2.749   2.167
 1849TIP3    H127106   0.401   2.826   2.130
 1849TIP3    H227107   0.267   2.772   2.173
 1850TIP3   OH227108   3.868   0.223   0.823
 1850TIP3    H127109   3.818   0.149   0.788
 1850TIP3    H227110   3.952   0.220   0.776
 1851TIP3   OH227111   0.675   0.922   6.048
 1851TIP3    H127112   0.731   0.848   6.076
 1851TIP3    H227113   0.693   0.932   5.955
 1852TIP3   OH227114   6.078   0.210   6.460
 1852TIP3    H127115   6.028   0.280   6.418
 1852TIP3    H227116   6.165   0.246   6.473
 1853TIP3   OH227117   0.505   3.633   6.818
 1853TIP3    H127118   0.509   3.538   6.820
 1853TIP3    H227119   0.521   3.656   6.726
 1854TIP3   OH227120   6.136   1.428   1.155
 1854TIP3    H127121   6.130   1.352   1.213
 1854TIP3    H227122   6.222   1.420   1.114
 1855TIP3   OH227123   2.082   1.205   8.590
 1855TIP3    H127124   2.054   1.296   8.605
 1855TIP3    H227125   2.036   1.155   0.043
 1856TIP3   OH227126   4.385   3.997   1.696
 1856TIP3    H127127   4.390   3.906   1.724
 1856TIP3    H227128   4.300   4.027   1.725
 1857TIP3   OH227129   1.702   4.146   7.323
 1857TIP3    H127130   1.760   4.112   7.391
 1857TIP3    H227131   1.748   4.129   7.241
 1858TIP3   OH227132   3.471   4.272   0.784
 1858TIP3    H127133   3.472   4.337   0.854
 1858TIP3    H227134   3.407   4.206   0.812
 1859TIP3   OH227135   4.247   1.403   7.964
 1859TIP3    H127136   4.248   1.336   8.032
 1859TIP3    H227137   4.303   1.473   7.998
 1860TIP3   OH227138   6.782   2.610   2.360
 1860TIP3    H127139   6.697   2.566   2.355
 1860TIP3    H227140   6.844   2.542   2.385
 1861TIP3   OH227141   2.660   5.821   1.568
 1861TIP3    H127142   2.633   5.870   1.490
 1861TIP3    H227143   2.752   5.800   1.553
 1862TIP3   OH227144   4.421   1.831   0.493
 1862TIP3    H127145   4.486   1.812   0.425
 1862TIP3    H227146   4.370   1.904   0.457
 1863TIP3   OH227147   3.942   1.641   0.971
 1863TIP3    H127148   3.857   1.634   0.926
 1863TIP3    H227149   3.965   1.733   0.962
 1864TIP3   OH227150   4.465   3.900   0.256
 1864TIP3    H127151   4.553   3.865   0.270
 1864TIP3    H227152   4.438   3.931   0.342
 1865TIP3   OH227153   5.356   6.610   0.806
 1865TIP3    H127154   5.291   6.662   0.759
 1865TIP3    H227155   5.422   6.589   0.741
 1866TIP3   OH227156   4.942   4.365   7.604
 1866TIP3    H127157   4.989   4.383   7.523
 1866TIP3    H227158   4.981   4.285   7.638
 1867TIP3   OH227159   0.098   6.431   8.271
 1867TIP3    H127160   0.079   6.358   8.330
 1867TIP3    H227161   0.019   6.485   8.273
 1868TIP3   OH227162   2.286   2.708   8.418
 1868TIP3    H127163   2.351   2.671   8.359
 1868TIP3    H227164   2.276   2.799   8.389
 1869TIP3   OH227165   1.918   6.060   1.957
 1869TIP3    H127166   2.013   6.070   1.952
 1869TIP3    H227167   1.897   6.072   2.049
 1870TIP3   OH227168   3.826   4.780   2.013
 1870TIP3    H127169   3.899   4.842   2.009
 1870TIP3    H227170   3.748   4.834   2.016
 1871TIP3   OH227171   4.880   3.765   7.138
 1871TIP3    H127172   4.895   3.768   7.043
 1871TIP3    H227173   4.812   3.699   7.149
 1872TIP3   OH227174   5.865   0.481   8.081
 1872TIP3    H127175   5.918   0.531   8.142
 1872TIP3    H227176   5.925   0.455   8.011
 1873TIP3   OH227177   0.345   3.925   8.331
 1873TIP3    H127178   0.362   3.974   8.250
 1873TIP3    H227179   0.399   3.968   8.397
 1874TIP3   OH227180   1.647   1.862   7.228
 1874TIP3    H127181   1.724   1.806   7.238
 1874TIP3    H227182   1.680   1.950   7.247
 1875TIP3   OH227183   4.136   0.814   1.316
 1875TIP3    H127184   4.193   0.738   1.326
 1875TIP3    H227185   4.120   0.821   1.222
 1876TIP3   OH227186   5.354   2.088   1.467
 1876TIP3    H127187   5.354   1.998   1.434
 1876TIP3    H227188   5.350   2.142   1.388
 1877TIP3   OH227189   4.357   2.773   8.461
 1877TIP3    H127190   4.347   2.704   8.526
 1877TIP3    H227191   4.324   2.735   8.379
 1878TIP3   OH227192   5.372   3.530   7.516
 1878TIP3    H127193   5.290   3.578   7.529
 1878TIP3    H227194   5.346   3.439   7.508
 1879TIP3   OH227195   4.971   1.172   6.266
 1879TIP3    H127196   4.916   1.094   6.263
 1879TIP3    H227197   5.059   1.139   6.283
 1880TIP3   OH227198   0.123   0.314   1.973
 1880TIP3    H127199   0.055   0.255   2.008
 1880TIP3    H227200   0.081   0.358   1.899
 1881TIP3   OH227201   2.170   4.466   7.563
 1881TIP3    H127202   2.086   4.422   7.575
 1881TIP3    H227203   2.148   4.560   7.568
 1882TIP3   OH227204   6.205   1.724   1.751
 1882TIP3    H127205   6.271   1.741   1.684
 1882TIP3    H227206   6.244   1.658   1.807
 1883TIP3   OH227207   5.057   3.575   0.937
 1883TIP3    H127208   5.101   3.548   0.857
 1883TIP3    H227209   5.109   3.650   0.969
 1884TIP3   OH227210   4.357   0.072   1.138
 1884TIP3    H127211   4.421   0.030   1.196
 1884TIP3    H227212   4.311   0.135   1.194
 1885TIP3   OH227213   5.162   2.700   7.592
 1885TIP3    H127214   5.187   2.697   7.684
 1885TIP3    H227215   5.124   2.787   7.580
 1886TIP3   OH227216   3.145   0.131   7.776
 1886TIP3    H127217   3.107   0.163   7.695
 1886TIP3    H227218   3.212   0.069   7.748
 1887TIP3   OH227219   2.120   5.234   7.388
 1887TIP3    H127220   2.089   5.145   7.373
 1887TIP3    H227221   2.101   5.280   7.306
 1888TIP3   OH227222   1.408   2.296   7.405
 1888TIP3    H127223   1.466   2.364   7.438
 1888TIP3    H227224   1.441   2.276   7.317
 1889TIP3   OH227225   4.516   6.402   1.803
 1889TIP3    H127226   4.528   6.316   1.763
 1889TIP3    H227227   4.603   6.427   1.834
 1890TIP3   OH227228   5.266   4.393   7.685
 1890TIP3    H127229   5.212   4.472   7.688
 1890TIP3    H227230   5.206   4.324   7.658
 1891TIP3   OH227231   5.510   2.048   0.863
 1891TIP3    H127232   5.433   2.099   0.838
 1891TIP3    H227233   5.488   1.958   0.837
 1892TIP3   OH227234   2.661   2.653   7.820
 1892TIP3    H127235   2.615   2.623   7.898
 1892TIP3    H227236   2.605   2.722   7.784
 1893TIP3   OH227237   3.785   6.877   7.461
 1893TIP3    H127238   3.802   0.082   7.440
 1893TIP3    H227239   3.726   6.880   7.537
 1894TIP3   OH227240   4.216   2.547   1.724
 1894TIP3    H127241   4.283   2.613   1.739
 1894TIP3    H227242   4.206   2.503   1.809
 1895TIP3   OH227243   5.259   6.875   0.678
 1895TIP3    H127244   5.325   0.015   0.742
 1895TIP3    H227245   5.278   0.041   0.601
 1896TIP3   OH227246   2.407   1.910   7.674
 1896TIP3    H127247   2.396   1.859   7.755
 1896TIP3    H227248   2.391   1.847   7.604
 1897TIP3   OH227249   5.586   3.093   8.036
 1897TIP3    H127250   5.602   3.187   8.028
 1897TIP3    H227251   5.501   3.086   8.078
 1898TIP3   OH227252   2.236   1.886   8.269
 1898TIP3    H127253   2.180   1.821   8.226
 1898TIP3    H227254   2.249   1.954   8.203
 1899TIP3   OH227255   4.983   2.591   6.290
 1899TIP3    H127256   4.960   2.499   6.276
 1899TIP3    H227257   4.980   2.602   6.385
 1900TIP3   OH227258   6.175   4.502   1.579
 1900TIP3    H127259   6.264   4.494   1.545
 1900TIP3    H227260   6.177   4.577   1.638
 1901TIP3   OH227261   2.526   0.694   0.306
 1901TIP3    H127262   2.480   0.664   0.227
 1901TIP3    H227263   2.461   0.688   0.376
 1902TIP3   OH227264   0.619   6.059   0.205
 1902TIP3    H127265   0.543   6.044   0.150
 1902TIP3    H227266   0.591   6.124   0.269
 1903TIP3   OH227267   3.336   5.466   2.067
 1903TIP3    H127268   3.406   5.401   2.073
 1903TIP3    H227269   3.358   5.531   2.133
 1904TIP3   OH227270   0.623   0.047   8.532
 1904TIP3    H127271   0.652   6.873   8.464
 1904TIP3    H227272   0.535   0.072   8.504
 1905TIP3   OH227273   4.577   1.746   1.041
 1905TIP3    H127274   4.545   1.799   0.968
 1905TIP3    H227275   4.667   1.724   1.018
 1906TIP3   OH227276   2.456   6.488   7.152
 1906TIP3    H127277   2.500   6.405   7.135
 1906TIP3    H227278   2.365   6.471   7.128
 1907TIP3   OH227279   3.357   4.003   0.964
 1907TIP3    H127280   3.353   3.907   0.972
 1907TIP3    H227281   3.291   4.023   0.898
 1908TIP3   OH227282   6.825   1.574   1.124
 1908TIP3    H127283   6.851   1.664   1.139
 1908TIP3    H227284   0.016   1.522   1.142
 1909TIP3   OH227285   3.508   2.621   1.265
 1909TIP3    H127286   3.455   2.635   1.344
 1909TIP3    H227287   3.456   2.660   1.195
 1910TIP3   OH227288   0.412   4.960   0.965
 1910TIP3    H127289   0.429   5.047   0.930
 1910TIP3    H227290   0.498   4.925   0.987
 1911TIP3   OH227291   2.463   3.768   1.095
 1911TIP3    H127292   2.447   3.690   1.042
 1911TIP3    H227293   2.431   3.746   1.182
 1912TIP3   OH227294   6.866   5.512   1.714
 1912TIP3    H127295   0.028   5.498   1.634
 1912TIP3    H227296   6.801   5.578   1.691
 1913TIP3   OH227297   1.189   0.912   1.336
 1913TIP3    H127298   1.171   0.981   1.399
 1913TIP3    H227299   1.167   0.951   1.251
 1914TIP3   OH227300   5.522   1.304   7.838
 1914TIP3    H127301   5.488   1.219   7.865
 1914TIP3    H227302   5.593   1.284   7.776
 1915TIP3   OH227303   0.605   4.021   7.637
 1915TIP3    H127304   0.589   3.940   7.590
 1915TIP3    H227305   0.683   4.058   7.596
 1916TIP3   OH227306   5.113   2.131   7.278
 1916TIP3    H127307   5.028   2.145   7.319
 1916TIP3    H227308   5.125   2.206   7.220
 1917TIP3   OH227309   5.126   5.910   0.728
 1917TIP3    H127310   5.133   6.005   0.726
 1917TIP3    H227311   5.157   5.885   0.816
 1918TIP3   OH227312   1.431   1.930   6.817
 1918TIP3    H127313   1.407   1.841   6.792
 1918TIP3    H227314   1.507   1.950   6.763
 1919TIP3   OH227315   0.380   6.389   8.611
 1919TIP3    H127316   0.395   6.479   0.028
 1919TIP3    H227317   0.370   6.338   0.078
 1920TIP3   OH227318   6.124   3.347   7.254
 1920TIP3    H127319   6.111   3.387   7.341
 1920TIP3    H227320   6.098   3.256   7.265
 1921TIP3   OH227321   1.168   6.210   7.883
 1921TIP3    H127322   1.092   6.172   7.840
 1921TIP3    H227323   1.161   6.182   7.975
 1922TIP3   OH227324   1.308   1.210   7.104
 1922TIP3    H127325   1.349   1.284   7.060
 1922TIP3    H227326   1.215   1.235   7.109
 1923TIP3   OH227327   6.192   4.775   1.009
 1923TIP3    H127328   6.159   4.772   1.099
 1923TIP3    H227329   6.235   4.690   0.996
 1924TIP3   OH227330   0.163   5.131   8.540
 1924TIP3    H127331   0.224   5.197   8.574
 1924TIP3    H227332   0.141   5.162   8.452
 1925TIP3   OH227333   3.631   6.583   6.572
 1925TIP3    H127334   3.538   6.570   6.591
 1925TIP3    H227335   3.670   6.496   6.584
 1926TIP3   OH227336   4.919   5.889   1.311
 1926TIP3    H127337   4.842   5.946   1.314
 1926TIP3    H227338   4.986   5.941   1.268
 1927TIP3   OH227339   5.468   5.291   8.420
 1927TIP3    H127340   5.478   5.196   8.413
 1927TIP3    H227341   5.551   5.326   8.387
 1928TIP3   OH227342   1.864   0.302   8.611
 1928TIP3    H127343   1.852   0.296   8.516
 1928TIP3    H227344   1.923   0.229   0.018
 1929TIP3   OH227345   1.143   6.695   0.571
 1929TIP3    H127346   1.174   6.712   0.660
 1929TIP3    H227347   1.210   6.734   0.515
 1930TIP3   OH227348   3.553   0.063   7.638
 1930TIP3    H127349   3.502   0.080   7.558
 1930TIP3    H227350   3.506   0.111   7.706
 1931TIP3   OH227351   5.778   2.596   8.498
 1931TIP3    H127352   5.762   2.682   8.460
 1931TIP3    H227353   5.695   2.549   8.486
 1932TIP3   OH227354   5.985   4.890   7.734
 1932TIP3    H127355   6.064   4.883   7.789
 1932TIP3    H227356   5.946   4.803   7.739
 1933TIP3   OH227357   0.902   3.622   6.910
 1933TIP3    H127358   0.822   3.643   6.958
 1933TIP3    H227359   0.953   3.703   6.912
 1934TIP3   OH227360   2.797   0.078   0.162
 1934TIP3    H127361   2.764   0.157   0.118
 1934TIP3    H227362   2.727   0.014   0.153
 1935TIP3   OH227363   4.956   0.483   0.473
 1935TIP3    H127364   4.869   0.500   0.438
 1935TIP3    H227365   4.983   0.567   0.512
 1936TIP3   OH227366   1.922   1.401   1.512
 1936TIP3    H127367   2.009   1.386   1.475
 1936TIP3    H227368   1.939   1.438   1.599
 1937TIP3   OH227369   1.828   5.266   6.968
 1937TIP3    H127370   1.747   5.218   6.947
 1937TIP3    H227371   1.829   5.338   6.906
 1938TIP3   OH227372   0.934   1.052   6.381
 1938TIP3    H127373   0.988   0.984   6.341
 1938TIP3    H227374   0.861   1.004   6.421
 1939TIP3   OH227375   4.984   1.531   7.499
 1939TIP3    H127376   4.943   1.447   7.518
 1939TIP3    H227377   5.026   1.556   7.582
 1940TIP3   OH227378   2.747   4.350   0.992
 1940TIP3    H127379   2.747   4.412   0.919
 1940TIP3    H227380   2.840   4.338   1.012
 1941TIP3   OH227381   2.480   2.694   0.626
 1941TIP3    H127382   2.541   2.759   0.658
 1941TIP3    H227383   2.517   2.665   0.542
 1942TIP3   OH227384   6.774   4.998   0.172
 1942TIP3    H127385   6.804   5.086   0.192
 1942TIP3    H227386   6.854   4.947   0.160
 1943TIP3   OH227387   2.758   3.097   1.554
 1943TIP3    H127388   2.723   3.182   1.579
 1943TIP3    H227389   2.817   3.116   1.481
 1944TIP3   OH227390   0.387   0.202   0.930
 1944TIP3    H127391   0.365   0.109   0.924
 1944TIP3    H227392   0.451   0.206   1.001
 1945TIP3   OH227393   6.663   6.548   8.349
 1945TIP3    H127394   6.590   6.545   8.287
 1945TIP3    H227395   6.623   6.571   8.433
 1946TIP3   OH227396   0.795   1.609   0.644
 1946TIP3    H127397   0.794   1.590   0.738
 1946TIP3    H227398   0.863   1.551   0.608
 1947TIP3   OH227399   0.481   0.878   1.770
 1947TIP3    H127400   0.563   0.926   1.764
 1947TIP3    H227401   0.436   0.917   1.846
 1948TIP3   OH227402   2.793   6.398   7.905
 1948TIP3    H127403   2.744   6.341   7.965
 1948TIP3    H227404   2.729   6.426   7.840
 1949TIP3   OH227405   2.433   6.332   1.359
 1949TIP3    H127406   2.371   6.386   1.407
 1949TIP3    H227407   2.379   6.274   1.306
 1950TIP3   OH227408   0.453   6.617   0.158
 1950TIP3    H127409   0.407   6.699   0.142
 1950TIP3    H227410   0.489   6.627   0.246
 1951TIP3   OH227411   0.124   2.587   7.657
 1951TIP3    H127412   0.118   2.600   7.751
 1951TIP3    H227413   0.174   2.662   7.625
 1952TIP3   OH227414   5.376   6.140   7.708
 1952TIP3    H127415   5.371   6.220   7.657
 1952TIP3    H227416   5.312   6.152   7.778
 1953TIP3   OH227417   4.221   2.130   1.930
 1953TIP3    H127418   4.283   2.161   1.864
 1953TIP3    H227419   4.231   2.035   1.931
 1954TIP3   OH227420   4.127   3.317   0.826
 1954TIP3    H127421   4.051   3.372   0.845
 1954TIP3    H227422   4.093   3.245   0.774
 1955TIP3   OH227423   0.305   3.904   7.291
 1955TIP3    H127424   0.279   3.981   7.241
 1955TIP3    H227425   0.222   3.860   7.312
 1956TIP3   OH227426   3.506   6.466   6.089
 1956TIP3    H127427   3.504   6.373   6.111
 1956TIP3    H227428   3.440   6.506   6.146
 1957TIP3   OH227429   3.673   6.489   8.128
 1957TIP3    H127430   3.633   6.576   8.135
 1957TIP3    H227431   3.763   6.501   8.160
 1958TIP3   OH227432   6.385   6.028   0.180
 1958TIP3    H127433   6.296   6.007   0.151
 1958TIP3    H227434   6.433   6.044   0.098
 1959TIP3   OH227435   1.226   2.919   0.329
 1959TIP3    H127436   1.202   2.959   0.246
 1959TIP3    H227437   1.321   2.905   0.322
 1960TIP3   OH227438   0.870   1.116   1.653
 1960TIP3    H127439   0.817   1.036   1.657
 1960TIP3    H227440   0.943   1.100   1.712
 1961TIP3   OH227441   1.040   5.939   8.368
 1961TIP3    H127442   1.038   5.963   8.461
 1961TIP3    H227443   0.993   6.009   8.324
 1962TIP3   OH227444   4.850   0.945   6.358
 1962TIP3    H127445   4.788   1.017   6.374
 1962TIP3    H227446   4.816   0.872   6.410
 1963TIP3   OH227447   4.916   0.599   1.039
 1963TIP3    H127448   4.984   0.535   1.062
 1963TIP3    H227449   4.871   0.616   1.122
 1964TIP3   OH227450   6.528   5.310   8.376
 1964TIP3    H127451   6.459   5.268   8.324
 1964TIP3    H227452   6.483   5.344   8.453
 1965TIP3   OH227453   6.780   5.162   2.050
 1965TIP3    H127454   6.696   5.126   2.023
 1965TIP3    H227455   6.825   5.089   2.091
 1966TIP3   OH227456   2.350   4.611   1.316
 1966TIP3    H127457   2.325   4.551   1.386
 1966TIP3    H227458   2.316   4.696   1.345
 1967TIP3   OH227459   2.109   3.692   1.834
 1967TIP3    H127460   2.100   3.762   1.899
 1967TIP3    H227461   2.025   3.646   1.837
 1968TIP3   OH227462   0.976   0.715   0.143
 1968TIP3    H127463   0.917   0.706   0.068
 1968TIP3    H227464   1.055   0.669   0.116
 1969TIP3   OH227465   4.324   3.669   0.137
 1969TIP3    H127466   4.231   3.654   0.152
 1969TIP3    H227467   4.343   3.752   0.182
 1970TIP3   OH227468   3.643   4.446   1.448
 1970TIP3    H127469   3.567   4.423   1.395
 1970TIP3    H227470   3.615   4.522   1.499
 1971TIP3   OH227471   5.692   5.368   8.138
 1971TIP3    H127472   5.614   5.419   8.159
 1971TIP3    H227473   5.765   5.429   8.150
 1972TIP3   OH227474   3.668   2.010   1.213
 1972TIP3    H127475   3.733   2.010   1.283
 1972TIP3    H227476   3.618   2.090   1.226
 1973TIP3   OH227477   6.641   1.880   0.672
 1973TIP3    H127478   6.568   1.868   0.612
 1973TIP3    H227479   6.715   1.836   0.630
 1974TIP3   OH227480   0.312   4.888   1.442
 1974TIP3    H127481   0.227   4.901   1.484
 1974TIP3    H227482   0.376   4.909   1.511
 1975TIP3   OH227483   3.784   3.646   0.942
 1975TIP3    H127484   3.795   3.712   1.011
 1975TIP3    H227485   3.748   3.570   0.987
 1976TIP3   OH227486   1.156   4.182   0.624
 1976TIP3    H127487   1.236   4.202   0.575
 1976TIP3    H227488   1.181   4.189   0.716
 1977TIP3   OH227489   3.563   6.856   0.480
 1977TIP3    H127490   3.639   0.017   0.445
 1977TIP3    H227491   3.492   6.878   0.420
 1978TIP3   OH227492   0.912   5.629   8.242
 1978TIP3    H127493   0.967   5.556   8.271
 1978TIP3    H227494   0.879   5.602   8.157
 1979TIP3   OH227495   3.538   3.880   0.215
 1979TIP3    H127496   3.502   3.826   0.285
 1979TIP3    H227497   3.623   3.841   0.196
 1980TIP3   OH227498   5.215   1.003   0.761
 1980TIP3    H127499   5.265   1.044   0.690
 1980TIP3    H227500   5.242   1.050   0.840
 1981TIP3   OH227501   3.865   3.087   7.875
 1981TIP3    H127502   3.815   3.107   7.796
 1981TIP3    H227503   3.802   3.046   7.933
 1982TIP3   OH227504   4.752   1.544   0.272
 1982TIP3    H127505   4.781   1.487   0.201
 1982TIP3    H227506   4.751   1.486   0.349
 1983TIP3   OH227507   4.116   3.020   7.967
 1983TIP3    H127508   4.190   3.044   7.911
 1983TIP3    H227509   4.039   3.051   7.920
 1984TIP3   OH227510   6.240   1.963   1.225
 1984TIP3    H127511   6.202   2.040   1.183
 1984TIP3    H227512   6.165   1.916   1.262
 1985TIP3   OH227513   5.150   0.301   1.426
 1985TIP3    H127514   5.197   0.319   1.507
 1985TIP3    H227515   5.203   0.342   1.358
 1986TIP3   OH227516   5.280   3.336   7.979
 1986TIP3    H127517   5.319   3.417   7.945
 1986TIP3    H227518   5.283   3.346   8.074
 1987TIP3   OH227519   1.023   3.929   0.611
 1987TIP3    H127520   1.060   4.017   0.618
 1987TIP3    H227521   0.968   3.920   0.689
 1988TIP3   OH227522   1.975   4.317   1.118
 1988TIP3    H127523   1.966   4.401   1.072
 1988TIP3    H227524   1.990   4.342   1.210
 1989TIP3   OH227525   0.421   0.549   7.079
 1989TIP3    H127526   0.358   0.493   7.123
 1989TIP3    H227527   0.442   0.503   6.998
 1990TIP3   OH227528   5.204   5.257   1.507
 1990TIP3    H127529   5.119   5.221   1.531
 1990TIP3    H227530   5.261   5.238   1.582
 1991TIP3   OH227531   5.069   4.988   8.302
 1991TIP3    H127532   5.109   4.916   8.252
 1991TIP3    H227533   5.041   4.947   8.384
 1992TIP3   OH227534   5.731   0.042   8.576
 1992TIP3    H127535   5.643   0.004   8.576
 1992TIP3    H227536   5.756   0.044   8.484
 1993TIP3   OH227537   4.874   4.445   7.853
 1993TIP3    H127538   4.874   4.371   7.914
 1993TIP3    H227539   4.894   4.407   7.768
 1994TIP3   OH227540   3.799   5.105   6.548
 1994TIP3    H127541   3.822   5.020   6.510
 1994TIP3    H227542   3.829   5.100   6.639
 1995TIP3   OH227543   3.563   0.835   7.326
 1995TIP3    H127544   3.559   0.800   7.415
 1995TIP3    H227545   3.480   0.881   7.315
 1996TIP3   OH227546   6.437   1.947   2.559
 1996TIP3    H127547   6.386   1.989   2.490
 1996TIP3    H227548   6.407   1.988   2.640
 1997TIP3   OH227549   1.883   3.919   0.015
 1997TIP3    H127550   1.816   3.875   0.068
 1997TIP3    H227551   1.928   3.977   0.076
 1998TIP3   OH227552   0.375   0.338   0.189
 1998TIP3    H127553   0.447   0.372   0.137
 1998TIP3    H227554   0.397   0.246   0.204
 1999TIP3   OH227555   2.804   2.569   2.100
 1999TIP3    H127556   2.870   2.499   2.104
 1999TIP3    H227557   2.842   2.640   2.152
 2000TIP3   OH227558   1.722   1.367   1.005
 2000TIP3    H127559   1.713   1.398   0.915
 2000TIP3    H227560   1.757   1.442   1.052
 2001TIP3   OH227561   3.280   3.765   8.528
 2001TIP3    H127562   3.286   3.802   8.439
 2001TIP3    H227563   3.207   3.704   8.524
 2002TIP3   OH227564   0.991   4.250   0.208
 2002TIP3    H127565   0.954   4.338   0.205
 2002TIP3    H227566   0.917   4.193   0.230
 2003TIP3   OH227567   5.210   1.455   6.829
 2003TIP3    H127568   5.169   1.513   6.893
 2003TIP3    H227569   5.304   1.467   6.844
 2004TIP3   OH227570   4.215   1.788   7.547
 2004TIP3    H127571   4.193   1.753   7.634
 2004TIP3    H227572   4.310   1.780   7.541
 2005TIP3   OH227573   2.930   1.474   8.088
 2005TIP3    H127574   2.961   1.430   8.009
 2005TIP3    H227575   2.921   1.405   8.153
 2006TIP3   OH227576   1.317   1.831   7.167
 2006TIP3    H127577   1.391   1.810   7.224
 2006TIP3    H227578   1.323   1.767   7.096
 2007TIP3   OH227579   1.176   3.178   7.227
 2007TIP3    H127580   1.257   3.150   7.269
 2007TIP3    H227581   1.192   3.168   7.133
 2008TIP3   OH227582   6.029   5.728   6.883
 2008TIP3    H127583   5.946   5.710   6.839
 2008TIP3    H227584   6.083   5.651   6.864
 2009TIP3   OH227585   6.000   4.197   1.485
 2009TIP3    H127586   5.923   4.149   1.518
 2009TIP3    H227587   6.006   4.274   1.541
 2010TIP3   OH227588   6.843   2.857   8.164
 2010TIP3    H127589   6.882   2.942   8.185
 2010TIP3    H227590   6.831   2.815   8.249
 2011TIP3   OH227591   4.276   1.701   8.267
 2011TIP3    H127592   4.239   1.789   8.259
 2011TIP3    H227593   4.300   1.678   8.177
 2012TIP3   OH227594   4.818   2.079   1.599
 2012TIP3    H127595   4.829   1.993   1.559
 2012TIP3    H227596   4.749   2.120   1.547
 2013TIP3   OH227597   5.519   4.213   7.944
 2013TIP3    H127598   5.571   4.182   8.018
 2013TIP3    H227599   5.428   4.210   7.975
 2014TIP3   OH227600   5.959   6.376   1.540
 2014TIP3    H127601   5.955   6.462   1.581
 2014TIP3    H227602   6.041   6.377   1.491
 2015TIP3   OH227603   1.207   4.010   0.147
 2015TIP3    H127604   1.145   4.081   0.166
 2015TIP3    H227605   1.230   4.023   0.055
 2016TIP3   OH227606   6.575   5.635   0.422
 2016TIP3    H127607   6.632   5.560   0.440
 2016TIP3    H227608   6.601   5.701   0.487
 2017TIP3   OH227609   5.324   0.205   7.161
 2017TIP3    H127610   5.399   0.189   7.103
 2017TIP3    H227611   5.247   0.186   7.107
 2018TIP3   OH227612   4.368   1.336   8.485
 2018TIP3    H127613   4.358   1.418   8.534
 2018TIP3    H227614   4.352   1.360   8.394
 2019TIP3   OH227615   0.124   5.840   0.251
 2019TIP3    H127616   0.083   5.775   0.194
 2019TIP3    H227617   0.070   5.918   0.242
 2020TIP3   OH227618   5.697   4.518   0.160
 2020TIP3    H127619   5.656   4.439   0.125
 2020TIP3    H227620   5.791   4.501   0.155
 2021TIP3   OH227621   4.518   1.583   1.317
 2021TIP3    H127622   4.528   1.497   1.359
 2021TIP3    H227623   4.562   1.573   1.233
 2022TIP3   OH227624   0.432   1.654   6.926
 2022TIP3    H127625   0.513   1.607   6.907
 2022TIP3    H227626   0.373   1.630   6.854
 2023TIP3   OH227627   1.939   4.777   1.164
 2023TIP3    H127628   2.001   4.763   1.092
 2023TIP3    H227629   1.858   4.735   1.134
 2024TIP3   OH227630   0.763   6.635   1.206
 2024TIP3    H127631   0.788   6.723   1.234
 2024TIP3    H227632   0.669   6.629   1.224
 2025TIP3   OH227633   6.161   1.259   0.383
 2025TIP3    H127634   6.128   1.342   0.350
 2025TIP3    H227635   6.201   1.280   0.467
 2026TIP3   OH227636   4.599   6.801   6.895
 2026TIP3    H127637   4.671   6.861   6.912
 2026TIP3    H227638   4.561   6.785   6.982
 2027TIP3   OH227639   6.511   4.418   1.426
 2027TIP3    H127640   6.419   4.431   1.404
 2027TIP3    H227641   6.546   4.507   1.433
 2028TIP3   OH227642   3.035   1.657   8.256
 2028TIP3    H127643   3.071   1.596   8.321
 2028TIP3    H227644   2.995   1.601   8.190
 2029TIP3   OH227645   2.554   1.922   0.767
 2029TIP3    H127646   2.557   1.897   0.674
 2029TIP3    H227647   2.510   2.007   0.768
 2030TIP3   OH227648   5.607   2.089   6.838
 2030TIP3    H127649   5.579   2.140   6.915
 2030TIP3    H227650   5.530   2.089   6.781
 2031TIP3   OH227651   5.491   4.481   7.839
 2031TIP3    H127652   5.533   4.403   7.876
 2031TIP3    H227653   5.407   4.449   7.805
 2032TIP3   OH227654   0.233   2.629   1.626
 2032TIP3    H127655   0.221   2.536   1.643
 2032TIP3    H227656   0.246   2.668   1.712
 2033TIP3   OH227657   5.355   2.122   8.450
 2033TIP3    H127658   5.434   2.105   8.399
 2033TIP3    H227659   5.358   2.216   8.470
 2034TIP3   OH227660   3.349   3.428   1.228
 2034TIP3    H127661   3.339   3.334   1.218
 2034TIP3    H227662   3.404   3.438   1.306
 2035TIP3   OH227663   2.190   5.201   0.136
 2035TIP3    H127664   2.192   5.244   0.050
 2035TIP3    H227665   2.270   5.150   0.140
 2036TIP3   OH227666   0.287   0.380   8.283
 2036TIP3    H127667   0.205   0.380   8.333
 2036TIP3    H227668   0.356   0.382   8.349
 2037TIP3   OH227669   2.630   3.659   6.198
 2037TIP3    H127670   2.690   3.616   6.258
 2037TIP3    H227671   2.603   3.739   6.244
 2038TIP3   OH227672   1.786   6.765   6.996
 2038TIP3    H127673   1.725   6.692   6.990
 2038TIP3    H227674   1.843   6.755   6.920
 2039TIP3   OH227675   5.683   6.037   7.751
 2039TIP3    H127676   5.680   6.131   7.734
 2039TIP3    H227677   5.746   6.003   7.687
 2040TIP3   OH227678   5.812   6.052   8.573
 2040TIP3    H127679   5.781   6.142   8.574
 2040TIP3    H227680   5.848   6.040   8.485
 2041TIP3   OH227681   0.833   4.644   8.062
 2041TIP3    H127682   0.918   4.665   8.024
 2041TIP3    H227683   0.799   4.729   8.091
 2042TIP3   OH227684   4.769   2.822   8.227
 2042TIP3    H127685   4.819   2.758   8.176
 2042TIP3    H227686   4.688   2.833   8.176
 2043TIP3   OH227687   3.898   0.573   7.709
 2043TIP3    H127688   3.969   0.534   7.657
 2043TIP3    H227689   3.822   0.517   7.692
 2044TIP3   OH227690   5.501   6.067   6.753
 2044TIP3    H127691   5.489   5.974   6.773
 2044TIP3    H227692   5.417   6.095   6.715
 2045TIP3   OH227693   5.242   4.688   1.662
 2045TIP3    H127694   5.159   4.665   1.618
 2045TIP3    H227695   5.267   4.772   1.623
 2046TIP3   OH227696   4.797   1.125   0.849
 2046TIP3    H127697   4.726   1.148   0.790
 2046TIP3    H227698   4.753   1.097   0.929
 2047TIP3   OH227699   3.124   0.603   0.659
 2047TIP3    H127700   3.155   0.535   0.718
 2047TIP3    H227701   3.116   0.681   0.714
 2048TIP3   OH227702   3.012   1.892   1.628
 2048TIP3    H127703   3.105   1.870   1.617
 2048TIP3    H227704   3.009   1.987   1.621
 2049TIP3   OH227705   6.341   6.665   6.601
 2049TIP3    H127706   6.247   6.659   6.618
 2049TIP3    H227707   6.355   6.604   6.528
 2050TIP3   OH227708   1.374   1.905   7.916
 2050TIP3    H127709   1.462   1.888   7.883
 2050TIP3    H227710   1.329   1.947   7.844
 2051TIP3   OH227711   2.824   3.412   7.208
 2051TIP3    H127712   2.889   3.481   7.222
 2051TIP3    H227713   2.855   3.365   7.131
 2052TIP3   OH227714   2.958   4.752   0.775
 2052TIP3    H127715   2.972   4.668   0.818
 2052TIP3    H227716   2.864   4.768   0.783
 2053TIP3   OH227717   2.138   1.123   0.453
 2053TIP3    H127718   2.213   1.108   0.511
 2053TIP3    H227719   2.175   1.116   0.365
 2054TIP3   OH227720   5.054   3.244   6.975
 2054TIP3    H127721   4.958   3.244   6.972
 2054TIP3    H227722   5.077   3.337   6.980
 2055TIP3   OH227723   1.579   4.094   0.555
 2055TIP3    H127724   1.503   4.151   0.541
 2055TIP3    H227725   1.574   4.031   0.483
 2056TIP3   OH227726   4.236   6.667   0.555
 2056TIP3    H127727   4.143   6.649   0.571
 2056TIP3    H227728   4.267   6.704   0.638
 2057TIP3   OH227729   5.688   0.000   0.531
 2057TIP3    H127730   5.685   0.067   0.599
 2057TIP3    H227731   5.667   0.047   0.450
 2058TIP3   OH227732   1.167   3.660   8.339
 2058TIP3    H127733   1.223   3.681   8.413
 2058TIP3    H227734   1.208   3.584   8.297
 2059TIP3   OH227735   5.190   5.265   7.659
 2059TIP3    H127736   5.218   5.356   7.673
 2059TIP3    H227737   5.153   5.239   7.743
 2060TIP3   OH227738   0.914   3.218   7.485
 2060TIP3    H127739   0.831   3.196   7.527
 2060TIP3    H227740   0.925   3.311   7.501
 2061TIP3   OH227741   1.759   5.177   1.621
 2061TIP3    H127742   1.823   5.152   1.687
 2061TIP3    H227743   1.699   5.102   1.616
 2062TIP3   OH227744   3.378   2.649   7.056
 2062TIP3    H127745   3.380   2.577   7.119
 2062TIP3    H227746   3.292   2.642   7.014
 2063TIP3   OH227747   2.837   2.973   6.597
 2063TIP3    H127748   2.930   2.976   6.573
 2063TIP3    H227749   2.793   2.934   6.521
 2064TIP3   OH227750   3.973   2.178   0.833
 2064TIP3    H127751   3.960   2.266   0.798
 2064TIP3    H227752   4.066   2.161   0.823
 2065TIP3   OH227753   5.597   4.842   6.918
 2065TIP3    H127754   5.575   4.933   6.935
 2065TIP3    H227755   5.566   4.825   6.829
 2066TIP3   OH227756   5.209   5.619   8.056
 2066TIP3    H127757   5.188   5.590   8.144
 2066TIP3    H227758   5.132   5.597   8.004
 2067TIP3   OH227759   0.816   0.020   6.276
 2067TIP3    H127760   0.789   6.817   6.260
 2067TIP3    H227761   0.787   0.068   6.198
 2068TIP3   OH227762   4.350   3.769   6.508
 2068TIP3    H127763   4.414   3.705   6.477
 2068TIP3    H227764   4.379   3.852   6.471
 2069TIP3   OH227765   5.358   1.520   0.155
 2069TIP3    H127766   5.296   1.456   0.121
 2069TIP3    H227767   5.321   1.547   0.239
 2070TIP3   OH227768   6.090   1.102   1.936
 2070TIP3    H127769   6.164   1.118   1.995
 2070TIP3    H227770   6.088   1.179   1.880
 2071TIP3   OH227771   1.751   6.849   0.566
 2071TIP3    H127772   1.780   0.019   0.637
 2071TIP3    H227773   1.692   0.016   0.514
 2072TIP3   OH227774   2.443   5.224   8.197
 2072TIP3    H127775   2.411   5.150   8.146
 2072TIP3    H227776   2.491   5.184   8.270
 2073TIP3   OH227777   5.726   5.433   8.428
 2073TIP3    H127778   5.797   5.425   8.492
 2073TIP3    H227779   5.769   5.464   8.348
 2074TIP3   OH227780   4.181   3.869   7.542
 2074TIP3    H127781   4.124   3.870   7.619
 2074TIP3    H227782   4.126   3.836   7.471
 2075TIP3   OH227783   6.786   4.413   1.024
 2075TIP3    H127784   6.718   4.476   1.046
 2075TIP3    H227785   6.868   4.462   1.032
 2076TIP3   OH227786   4.475   2.682   6.883
 2076TIP3    H127787   4.392   2.725   6.900
 2076TIP3    H227788   4.497   2.705   6.793
 2077TIP3   OH227789   3.324   6.593   1.950
 2077TIP3    H127790   3.235   6.563   1.933
 2077TIP3    H227791   3.366   6.519   1.994
 2078TIP3   OH227792   4.308   4.858   7.371
 2078TIP3    H127793   4.400   4.857   7.397
 2078TIP3    H227794   4.298   4.779   7.318
 2079TIP3   OH227795   2.150   6.791   2.089
 2079TIP3    H127796   2.131   6.706   2.129
 2079TIP3    H227797   2.236   6.780   2.049
 2080TIP3   OH227798   4.461   5.113   7.134
 2080TIP3    H127799   4.470   5.166   7.054
 2080TIP3    H227800   4.482   5.173   7.205
 2081TIP3   OH227801   2.589   1.937   1.078
 2081TIP3    H127802   2.568   1.871   1.011
 2081TIP3    H227803   2.602   2.018   1.029
 2082TIP3   OH227804   1.323   6.073   6.436
 2082TIP3    H127805   1.275   6.022   6.371
 2082TIP3    H227806   1.380   6.130   6.385
 2083TIP3   OH227807   4.169   6.438   2.489
 2083TIP3    H127808   4.172   6.342   2.495
 2083TIP3    H227809   4.112   6.465   2.560
 2084TIP3   OH227810   1.307   3.184   1.632
 2084TIP3    H127811   1.361   3.218   1.703
 2084TIP3    H227812   1.266   3.105   1.668
 2085TIP3   OH227813   1.796   3.606   7.690
 2085TIP3    H127814   1.891   3.611   7.706
 2085TIP3    H227815   1.761   3.683   7.734
 2086TIP3   OH227816   5.054   5.108   2.488
 2086TIP3    H127817   5.072   5.077   2.577
 2086TIP3    H227818   4.960   5.125   2.488
 2087TIP3   OH227819   1.101   1.986   6.203
 2087TIP3    H127820   1.087   1.930   6.127
 2087TIP3    H227821   1.196   2.001   6.206
 2088TIP3   OH227822   0.164   5.469   6.398
 2088TIP3    H127823   0.071   5.454   6.418
 2088TIP3    H227824   0.196   5.522   6.471
 2089TIP3   OH227825   3.961   1.546   8.244
 2089TIP3    H127826   4.015   1.549   8.323
 2089TIP3    H227827   4.002   1.477   8.191
 2090TIP3   OH227828   4.925   1.619   6.740
 2090TIP3    H127829   4.905   1.571   6.820
 2090TIP3    H227830   5.018   1.603   6.725
 2091TIP3   OH227831   6.411   1.666   0.025
 2091TIP3    H127832   6.413   1.615   0.106
 2091TIP3    H227833   6.338   1.631   8.590
 2092TIP3   OH227834   5.048   4.492   6.430
 2092TIP3    H127835   5.036   4.405   6.468
 2092TIP3    H227836   4.979   4.501   6.365
 2093TIP3   OH227837   2.993   4.497   7.392
 2093TIP3    H127838   2.927   4.502   7.462
 2093TIP3    H227839   2.941   4.490   7.312
 2094TIP3   OH227840   6.873   4.977   8.023
 2094TIP3    H127841   0.014   4.896   8.064
 2094TIP3    H227842   6.883   4.962   7.929
 2095TIP3   OH227843   4.423   2.103   7.658
 2095TIP3    H127844   4.338   2.085   7.618
 2095TIP3    H227845   4.416   2.070   7.747
 2096TIP3   OH227846   1.372   0.084   1.690
 2096TIP3    H127847   1.403   0.070   1.779
 2096TIP3    H227848   1.278   0.094   1.698
 2097TIP3   OH227849   1.944   5.483   2.304
 2097TIP3    H127850   1.853   5.459   2.290
 2097TIP3    H227851   1.990   5.449   2.227
 2098TIP3   OH227852   4.952   4.843   2.032
 2098TIP3    H127853   4.884   4.862   1.968
 2098TIP3    H227854   4.918   4.876   2.114
 2099TIP3   OH227855   6.085   4.700   0.202
 2099TIP3    H127856   6.147   4.767   0.232
 2099TIP3    H227857   5.999   4.732   0.230
 2100TIP3   OH227858   6.846   2.891   6.298
 2100TIP3    H127859   6.856   2.960   6.364
 2100TIP3    H227860   0.049   2.864   6.279
 2101TIP3   OH227861   6.722   2.408   7.194
 2101TIP3    H127862   6.810   2.443   7.203
 2101TIP3    H227863   6.714   2.385   7.102
 2102TIP3   OH227864   6.010   6.707   7.153
 2102TIP3    H127865   5.948   6.634   7.142
 2102TIP3    H227866   6.045   6.722   7.066
 2103TIP3   OH227867   0.892   3.675   1.730
 2103TIP3    H127868   0.932   3.745   1.781
 2103TIP3    H227869   0.812   3.654   1.778
 2104TIP3   OH227870   2.710   5.553   0.658
 2104TIP3    H127871   2.704   5.468   0.702
 2104TIP3    H227872   2.622   5.568   0.622
 2105TIP3   OH227873   2.107   5.541   2.856
 2105TIP3    H127874   2.052   5.505   2.786
 2105TIP3    H227875   2.182   5.578   2.810
 2106TIP3   OH227876   5.321   3.216   7.736
 2106TIP3    H127877   5.292   3.255   7.818
 2106TIP3    H227878   5.397   3.164   7.759
 2107TIP3   OH227879   6.691   1.003   1.814
 2107TIP3    H127880   6.605   1.034   1.841
 2107TIP3    H227881   6.739   0.992   1.896
 2108TIP3   OH227882   0.839   0.202   6.479
 2108TIP3    H127883   0.835   0.147   6.401
 2108TIP3    H227884   0.775   0.271   6.463
 2109TIP3   OH227885   2.228   3.144   1.155
 2109TIP3    H127886   2.229   3.172   1.063
 2109TIP3    H227887   2.232   3.048   1.150
 2110TIP3   OH227888   3.138   4.792   0.533
 2110TIP3    H127889   3.208   4.728   0.533
 2110TIP3    H227890   3.074   4.759   0.595
 2111TIP3   OH227891   5.584   5.430   6.889
 2111TIP3    H127892   5.656   5.445   6.950
 2111TIP3    H227893   5.600   5.491   6.817
 2112TIP3   OH227894   0.278   6.791   0.428
 2112TIP3    H127895   0.299   6.878   0.394
 2112TIP3    H227896   0.197   6.767   0.382
 2113TIP3   OH227897   3.395   0.558   0.577
 2113TIP3    H127898   3.368   0.479   0.623
 2113TIP3    H227899   3.315   0.611   0.572
 2114TIP3   OH227900   6.776   6.365   7.568
 2114TIP3    H127901   6.826   6.289   7.538
 2114TIP3    H227902   6.839   6.416   7.619
 2115TIP3   OH227903   1.515   5.424   0.790
 2115TIP3    H127904   1.442   5.384   0.742
 2115TIP3    H227905   1.494   5.517   0.793
 2116TIP3   OH227906   6.261   5.150   0.344
 2116TIP3    H127907   6.303   5.204   0.410
 2116TIP3    H227908   6.238   5.069   0.390
 2117TIP3   OH227909   1.157   6.809   8.252
 2117TIP3    H127910   1.146   6.786   8.159
 2117TIP3    H227911   1.214   6.885   8.250
 2118TIP3   OH227912   5.537   2.640   0.466
 2118TIP3    H127913   5.614   2.585   0.477
 2118TIP3    H227914   5.533   2.657   0.372
 2119TIP3   OH227915   3.366   4.162   7.120
 2119TIP3    H127916   3.309   4.215   7.175
 2119TIP3    H227917   3.451   4.166   7.163
 2120TIP3   OH227918   4.153   2.160   7.435
 2120TIP3    H127919   4.155   2.107   7.355
 2120TIP3    H227920   4.211   2.234   7.416
 2121TIP3   OH227921   2.272   2.950   7.912
 2121TIP3    H127922   2.311   2.982   7.993
 2121TIP3    H227923   2.201   2.892   7.941
 2122TIP3   OH227924   0.120   0.795   7.317
 2122TIP3    H127925   0.035   0.795   7.361
 2122TIP3    H227926   0.150   0.705   7.325
 2123TIP3   OH227927   3.099   6.427   0.241
 2123TIP3    H127928   3.126   6.518   0.238
 2123TIP3    H227929   3.180   6.377   0.230
 2124TIP3   OH227930   6.656   0.898   1.195
 2124TIP3    H127931   6.680   0.811   1.161
 2124TIP3    H227932   6.614   0.941   1.121
 2125TIP3   OH227933   3.064   2.553   7.464
 2125TIP3    H127934   2.979   2.560   7.420
 2125TIP3    H227935   3.127   2.586   7.399
 2126TIP3   OH227936   3.729   5.316   7.448
 2126TIP3    H127937   3.760   5.392   7.399
 2126TIP3    H227938   3.661   5.278   7.393
 2127TIP3   OH227939   3.995   4.130   6.984
 2127TIP3    H127940   3.970   4.102   7.072
 2127TIP3    H227941   4.091   4.137   6.987
 2128TIP3   OH227942   4.377   6.483   7.764
 2128TIP3    H127943   4.323   6.561   7.779
 2128TIP3    H227944   4.391   6.482   7.669
 2129TIP3   OH227945   1.434   6.781   7.068
 2129TIP3    H127946   1.505   6.721   7.089
 2129TIP3    H227947   1.409   6.819   7.153
 2130TIP3   OH227948   1.605   6.140   2.385
 2130TIP3    H127949   1.584   6.216   2.439
 2130TIP3    H227950   1.541   6.073   2.412
 2131TIP3   OH227951   4.380   6.360   6.879
 2131TIP3    H127952   4.393   6.367   6.785
 2131TIP3    H227953   4.286   6.376   6.892
 2132TIP3   OH227954   4.210   4.380   8.465
 2132TIP3    H127955   4.162   4.296   8.465
 2132TIP3    H227956   4.193   4.417   8.378
 2133TIP3   OH227957   0.080   1.551   7.803
 2133TIP3    H127958   0.079   1.572   7.897
 2133TIP3    H227959   0.077   1.456   7.800
 2134TIP3   OH227960   0.288   0.223   8.062
 2134TIP3    H127961   0.219   0.160   8.081
 2134TIP3    H227962   0.274   0.293   8.126
 2135TIP3   OH227963   1.142   3.804   0.391
 2135TIP3    H127964   1.082   3.824   0.320
 2135TIP3    H227965   1.103   3.845   0.468
 2136TIP3   OH227966   0.766   4.385   8.099
 2136TIP3    H127967   0.796   4.476   8.105
 2136TIP3    H227968   0.672   4.392   8.084
 2137TIP3   OH227969   6.222   1.839   7.085
 2137TIP3    H127970   6.236   1.749   7.055
 2137TIP3    H227971   6.298   1.887   7.053
 2138TIP3   OH227972   0.663   2.345   1.632
 2138TIP3    H127973   0.670   2.440   1.645
 2138TIP3    H227974   0.569   2.330   1.620
 2139TIP3   OH227975   3.694   5.387   7.717
 2139TIP3    H127976   3.766   5.357   7.773
 2139TIP3    H227977   3.731   5.388   7.629
 2140TIP3   OH227978   5.572   3.820   0.339
 2140TIP3    H127979   5.660   3.793   0.311
 2140TIP3    H227980   5.521   3.823   0.259
 2141TIP3   OH227981   2.925   2.815   2.184
 2141TIP3    H127982   2.958   2.880   2.245
 2141TIP3    H227983   2.999   2.796   2.126
 2142TIP3   OH227984   1.837   4.806   7.120
 2142TIP3    H127985   1.800   4.843   7.039
 2142TIP3    H227986   1.928   4.836   7.120
 2143TIP3   OH227987   0.088   6.485   7.327
 2143TIP3    H127988   0.075   6.403   7.374
 2143TIP3    H227989   0.176   6.515   7.354
 2144TIP3   OH227990   0.161   2.347   2.026
 2144TIP3    H127991   0.224   2.397   1.974
 2144TIP3    H227992   0.126   2.282   1.965
 2145TIP3   OH227993   1.720   2.251   7.605
 2145TIP3    H127994   1.668   2.171   7.609
 2145TIP3    H227995   1.789   2.232   7.541
 2146TIP3   OH227996   1.702   6.243   8.259
 2146TIP3    H127997   1.692   6.181   8.332
 2146TIP3    H227998   1.612   6.265   8.235
 2147TIP3   OH227999   2.716   3.549   1.487
 2147TIP3    H128000   2.717   3.494   1.565
 2147TIP3    H228001   2.804   3.586   1.482
 2148TIP3   OH228002   1.935   0.989   6.731
 2148TIP3    H128003   1.919   0.984   6.825
 2148TIP3    H228004   1.954   1.082   6.715
 2149TIP3   OH228005   5.184   5.640   1.236
 2149TIP3    H128006   5.182   5.661   1.329
 2149TIP3    H228007   5.265   5.680   1.204
 2150TIP3   OH228008   6.261   4.139   1.623
 2150TIP3    H128009   6.232   4.190   1.547
 2150TIP3    H228010   6.191   4.148   1.687
 2151TIP3   OH228011   6.348   0.560   1.492
 2151TIP3    H128012   6.408   0.565   1.566
 2151TIP3    H228013   6.268   0.603   1.522
 2152TIP3   OH228014   3.578   4.945   8.258
 2152TIP3    H128015   3.491   4.978   8.238
 2152TIP3    H228016   3.605   4.992   8.336
 2153TIP3   OH228017   6.879   3.240   7.829
 2153TIP3    H128018   0.015   3.319   7.877
 2153TIP3    H228019   6.811   3.198   7.883
 2154TIP3   OH228020   1.801   5.943   8.540
 2154TIP3    H128021   1.761   5.867   8.582
 2154TIP3    H228022   1.816   5.916   8.450
 2155TIP3   OH228023   0.149   2.271   8.527
 2155TIP3    H128024   0.183   2.323   8.601
 2155TIP3    H228025   0.055   2.263   8.545
 2156TIP3   OH228026   3.449   3.829   5.962
 2156TIP3    H128027   3.486   3.752   5.919
 2156TIP3    H228028   3.387   3.793   6.025
 2157TIP3   OH228029   4.558   2.005   7.903
 2157TIP3    H128030   4.631   2.063   7.927
 2157TIP3    H228031   4.592   1.951   7.832
 2158TIP3   OH228032   4.839   6.124   6.103
 2158TIP3    H128033   4.914   6.066   6.116
 2158TIP3    H228034   4.837   6.179   6.181
 2159TIP3   OH228035   5.764   0.219   0.959
 2159TIP3    H128036   5.832   0.286   0.948
 2159TIP3    H228037   5.800   0.141   0.916
 2160TIP3   OH228038   3.141   6.810   1.422
 2160TIP3    H128039   3.222   6.760   1.425
 2160TIP3    H228040   3.156   6.884   1.480
 2161TIP3   OH228041   5.363   5.928   8.232
 2161TIP3    H128042   5.283   5.934   8.180
 2161TIP3    H228043   5.389   5.836   8.227
 2162TIP3   OH228044   1.605   4.686   0.415
 2162TIP3    H128045   1.688   4.668   0.460
 2162TIP3    H228046   1.538   4.650   0.473
 2163TIP3   OH228047   5.319   0.765   2.197
 2163TIP3    H128048   5.232   0.749   2.233
 2163TIP3    H228049   5.303   0.800   2.109
 2164TIP3   OH228050   3.855   1.795   6.602
 2164TIP3    H128051   3.873   1.706   6.572
 2164TIP3    H228052   3.905   1.851   6.543
 2165TIP3   OH228053   1.645   0.506   0.319
 2165TIP3    H128054   1.633   0.590   0.363
 2165TIP3    H228055   1.689   0.451   0.384
 2166TIP3   OH228056   2.577   2.025   7.213
 2166TIP3    H128057   2.672   2.037   7.218
 2166TIP3    H228058   2.543   2.066   7.292
 2167TIP3   OH228059   4.249   0.466   7.692
 2167TIP3    H128060   4.168   0.443   7.645
 2167TIP3    H228061   4.285   0.381   7.719
 2168TIP3   OH228062   2.373   4.374   2.113
 2168TIP3    H128063   2.353   4.388   2.206
 2168TIP3    H228064   2.293   4.402   2.068
 2169TIP3   OH228065   4.294   0.813   2.044
 2169TIP3    H128066   4.271   0.748   2.110
 2169TIP3    H228067   4.253   0.780   1.963
 2170TIP3   OH228068   5.979   0.487   7.178
 2170TIP3    H128069   6.038   0.542   7.230
 2170TIP3    H228070   5.989   0.399   7.215
 2171TIP3   OH228071   5.861   0.625   7.652
 2171TIP3    H128072   5.853   0.552   7.592
 2171TIP3    H228073   5.955   0.639   7.661
 2172TIP3   OH228074   0.507   1.848   8.396
 2172TIP3    H128075   0.511   1.934   8.352
 2172TIP3    H228076   0.570   1.795   8.347
 2173TIP3   OH228077   5.205   6.789   1.132
 2173TIP3    H128078   5.112   6.789   1.150
 2173TIP3    H228079   5.238   6.869   1.172
 2174TIP3   OH228080   2.347   3.355   7.060
 2174TIP3    H128081   2.392   3.385   6.981
 2174TIP3    H228082   2.273   3.416   7.070
 2175TIP3   OH228083   3.487   3.590   0.059
 2175TIP3    H128084   3.454   3.633   8.595
 2175TIP3    H228085   3.409   3.565   0.108
 2176TIP3   OH228086   1.266   0.684   2.480
 2176TIP3    H128087   1.186   0.714   2.438
 2176TIP3    H228088   1.240   0.665   2.570
 2177TIP3   OH228089   2.715   1.339   0.453
 2177TIP3    H128090   2.790   1.280   0.466
 2177TIP3    H228091   2.639   1.285   0.475
 2178TIP3   OH228092   0.578   5.501   1.290
 2178TIP3    H128093   0.551   5.528   1.378
 2178TIP3    H228094   0.672   5.485   1.298
 2179TIP3   OH228095   0.229   4.532   0.583
 2179TIP3    H128096   0.136   4.539   0.606
 2179TIP3    H228097   0.253   4.442   0.606
 2180TIP3   OH228098   6.189   1.655   6.731
 2180TIP3    H128099   6.255   1.705   6.779
 2180TIP3    H228100   6.219   1.657   6.640
 2181TIP3   OH228101   5.882   0.781   0.419
 2181TIP3    H128102   5.949   0.841   0.387
 2181TIP3    H228103   5.876   0.713   0.351
 2182TIP3   OH228104   1.314   6.039   8.516
 2182TIP3    H128105   1.381   5.972   8.530
 2182TIP3    H228106   1.247   6.020   8.581
 2183TIP3   OH228107   0.984   0.398   7.736
 2183TIP3    H128108   0.943   0.389   7.650
 2183TIP3    H228109   1.015   0.488   7.738
 2184TIP3   OH228110   5.896   1.053   0.677
 2184TIP3    H128111   5.928   1.144   0.680
 2184TIP3    H228112   5.975   1.000   0.679
 2185TIP3   OH228113   3.972   0.195   7.015
 2185TIP3    H128114   3.986   0.128   6.948
 2185TIP3    H228115   3.893   0.241   6.987
 2186TIP3   OH228116   2.394   4.331   1.795
 2186TIP3    H128117   2.320   4.374   1.838
 2186TIP3    H228118   2.449   4.300   1.867
 2187TIP3   OH228119   1.587   0.717   7.127
 2187TIP3    H128120   1.636   0.701   7.208
 2187TIP3    H228121   1.652   0.703   7.057
 2188TIP3   OH228122   5.956   5.986   7.553
 2188TIP3    H128123   6.025   6.042   7.587
 2188TIP3    H228124   5.969   5.987   7.458
 2189TIP3   OH228125   2.946   1.194   1.739
 2189TIP3    H128126   2.982   1.218   1.825
 2189TIP3    H228127   2.852   1.208   1.748
 2190TIP3   OH228128   6.315   5.404   1.240
 2190TIP3    H128129   6.236   5.458   1.233
 2190TIP3    H228130   6.321   5.383   1.333
 2191TIP3   OH228131   6.020   3.713   0.993
 2191TIP3    H128132   6.091   3.738   0.934
 2191TIP3    H228133   5.974   3.795   1.013
 2192TIP3   OH228134   1.004   1.706   7.874
 2192TIP3    H128135   0.974   1.788   7.837
 2192TIP3    H228136   1.014   1.647   7.799
 2193TIP3   OH228137   6.132   2.419   8.210
 2193TIP3    H128138   6.114   2.369   8.289
 2193TIP3    H228139   6.184   2.494   8.240
 2194TIP3   OH228140   1.703   3.256   0.691
 2194TIP3    H128141   1.699   3.351   0.705
 2194TIP3    H228142   1.626   3.236   0.638
 2195TIP3   OH228143   4.057   2.540   0.081
 2195TIP3    H128144   4.015   2.494   0.008
 2195TIP3    H228145   4.142   2.567   0.047
 2196TIP3   OH228146   3.500   0.344   6.964
 2196TIP3    H128147   3.467   0.419   6.914
 2196TIP3    H228148   3.535   0.285   6.898
 2197TIP3   OH228149   6.586   2.982   8.434
 2197TIP3    H128150   6.540   2.991   8.518
 2197TIP3    H228151   6.645   3.057   8.431
 2198TIP3   OH228152   3.564   1.022   8.519
 2198TIP3    H128153   3.474   1.045   8.496
 2198TIP3    H228154   3.612   1.105   8.516
 2199TIP3   OH228155   5.974   1.421   1.818
 2199TIP3    H128156   5.939   1.391   1.734
 2199TIP3    H228157   5.998   1.512   1.802
 2200TIP3   OH228158   2.927   0.891   6.975
 2200TIP3    H128159   2.939   0.884   6.880
 2200TIP3    H228160   2.871   0.817   6.997
 2201TIP3   OH228161   5.844   1.539   0.006
 2201TIP3    H128162   5.759   1.543   0.049
 2201TIP3    H228163   5.854   1.624   8.578
 2202TIP3   OH228164   2.449   5.575   0.568
 2202TIP3    H128165   2.387   5.507   0.594
 2202TIP3    H228166   2.397   5.636   0.515
 2203TIP3   OH228167   4.013   5.252   1.328
 2203TIP3    H128168   3.958   5.191   1.280
 2203TIP3    H228169   3.963   5.333   1.332
 2204TIP3   OH228170   4.962   2.000   0.308
 2204TIP3    H128171   5.043   1.966   0.347
 2204TIP3    H228172   4.936   2.072   0.366
 2205TIP3   OH228173   3.821   4.705   2.289
 2205TIP3    H128174   3.738   4.691   2.334
 2205TIP3    H228175   3.800   4.699   2.196
 2206TIP3   OH228176   5.881   0.107   8.037
 2206TIP3    H128177   5.806   0.048   8.049
 2206TIP3    H228178   5.851   0.172   7.973
 2207TIP3   OH228179   4.698   0.254   1.343
 2207TIP3    H128180   4.648   0.172   1.347
 2207TIP3    H228181   4.648   0.309   1.283
 2208TIP3   OH228182   3.745   4.486   7.808
 2208TIP3    H128183   3.732   4.512   7.899
 2208TIP3    H228184   3.828   4.527   7.783
 2209TIP3   OH228185   5.594   6.661   1.605
 2209TIP3    H128186   5.577   6.568   1.621
 2209TIP3    H228187   5.688   6.665   1.587
 2210TIP3   OH228188   2.808   4.273   2.214
 2210TIP3    H128189   2.783   4.197   2.266
 2210TIP3    H228190   2.782   4.349   2.266
 2211TIP3   OH228191   5.832   3.742   0.300
 2211TIP3    H128192   5.838   3.646   0.304
 2211TIP3    H228193   5.912   3.773   0.341
 2212TIP3   OH228194   0.189   3.478   0.698
 2212TIP3    H128195   0.238   3.487   0.779
 2212TIP3    H228196   0.097   3.476   0.725
 2213TIP3   OH228197   0.347   6.353   7.048
 2213TIP3    H128198   0.362   6.418   7.117
 2213TIP3    H228199   0.429   6.303   7.045
 2214TIP3   OH228200   6.507   3.448   1.055
 2214TIP3    H128201   6.568   3.467   1.127
 2214TIP3    H228202   6.488   3.533   1.016
 2215TIP3   OH228203   0.470   5.168   0.201
 2215TIP3    H128204   0.442   5.172   0.110
 2215TIP3    H228205   0.563   5.188   0.199
 2216TIP3   OH228206   0.747   0.160   7.540
 2216TIP3    H128207   0.756   0.079   7.589
 2216TIP3    H228208   0.833   0.202   7.546
 2217TIP3   OH228209   5.453   2.529   2.382
 2217TIP3    H128210   5.484   2.613   2.415
 2217TIP3    H228211   5.519   2.466   2.410
 2218TIP3   OH228212   1.078   2.250   7.823
 2218TIP3    H128213   1.128   2.331   7.828
 2218TIP3    H228214   1.089   2.210   7.909
 2219TIP3   OH228215   0.628   6.780   8.313
 2219TIP3    H128216   0.711   6.826   8.301
 2219TIP3    H228217   0.580   6.794   8.232
 2220TIP3   OH228218   5.386   0.196   2.132
 2220TIP3    H128219   5.418   0.270   2.184
 2220TIP3    H228220   5.338   0.142   2.195
 2221TIP3   OH228221   4.638   2.730   1.551
 2221TIP3    H128222   4.596   2.647   1.528
 2221TIP3    H228223   4.586   2.764   1.623
 2222TIP3   OH228224   5.626   1.483   7.619
 2222TIP3    H128225   5.561   1.426   7.577
 2222TIP3    H228226   5.573   1.545   7.670
 2223TIP3   OH228227   2.649   2.983   0.432
 2223TIP3    H128228   2.726   3.038   0.419
 2223TIP3    H228229   2.666   2.937   0.515
 2224TIP3   OH228230   3.295   5.114   6.759
 2224TIP3    H128231   3.202   5.127   6.740
 2224TIP3    H228232   3.341   5.165   6.692
 2225TIP3   OH228233   1.040   0.921   1.876
 2225TIP3    H128234   1.061   1.012   1.856
 2225TIP3    H228235   1.017   0.921   1.969
 2226TIP3   OH228236   3.176   2.087   6.816
 2226TIP3    H128237   3.093   2.129   6.839
 2226TIP3    H228238   3.163   2.055   6.727
 2227TIP3   OH228239   2.426   6.828   1.842
 2227TIP3    H128240   2.359   0.005   1.819
 2227TIP3    H228241   2.504   6.879   1.860
 2228TIP3   OH228242   6.624   4.553   1.711
 2228TIP3    H128243   6.685   4.488   1.676
 2228TIP3    H228244   6.578   4.587   1.635
 2229TIP3   OH228245   4.608   4.883   7.149
 2229TIP3    H128246   4.579   4.861   7.061
 2229TIP3    H228247   4.536   4.933   7.186
 2230TIP3   OH228248   4.357   4.236   0.826
 2230TIP3    H128249   4.356   4.312   0.884
 2230TIP3    H228250   4.303   4.171   0.870
 2231TIP3   OH228251   0.985   5.163   7.519
 2231TIP3    H128252   0.967   5.191   7.429
 2231TIP3    H228253   1.030   5.080   7.510
 2232TIP3   OH228254   6.094   6.400   1.892
 2232TIP3    H128255   6.061   6.484   1.859
 2232TIP3    H228256   6.178   6.388   1.847
 2233TIP3   OH228257   2.434   1.362   0.734
 2233TIP3    H128258   2.410   1.290   0.676
 2233TIP3    H228259   2.529   1.355   0.744
 2234TIP3   OH228260   5.273   2.208   0.826
 2234TIP3    H128261   5.300   2.286   0.874
 2234TIP3    H228262   5.242   2.241   0.742
 2235TIP3   OH228263   1.975   1.018   1.312
 2235TIP3    H128264   2.053   1.067   1.339
 2235TIP3    H228265   1.987   1.004   1.219
 2236TIP3   OH228266   5.355   6.383   7.571
 2236TIP3    H128267   5.299   6.426   7.637
 2236TIP3    H228268   5.422   6.448   7.551
 2237TIP3   OH228269   5.715   3.951   7.911
 2237TIP3    H128270   5.633   3.945   7.960
 2237TIP3    H228271   5.735   3.861   7.886
 2238TIP3   OH228272   4.725   3.712   7.431
 2238TIP3    H128273   4.657   3.768   7.470
 2238TIP3    H228274   4.682   3.671   7.356
 2239TIP3   OH228275   3.849   1.166   2.221
 2239TIP3    H128276   3.828   1.142   2.312
 2239TIP3    H228277   3.945   1.167   2.219
 2240TIP3   OH228278   3.533   4.126   1.157
 2240TIP3    H128279   3.473   4.186   1.202
 2240TIP3    H228280   3.478   4.080   1.094
 2241TIP3   OH228281   4.632   4.852   1.383
 2241TIP3    H128282   4.654   4.759   1.374
 2241TIP3    H228283   4.538   4.853   1.402
 2242TIP3   OH228284   0.816   0.691   6.062
 2242TIP3    H128285   0.898   0.648   6.037
 2242TIP3    H228286   0.798   0.660   6.150
 2243TIP3   OH228287   5.505   3.761   1.934
 2243TIP3    H128288   5.600   3.770   1.932
 2243TIP3    H228289   5.482   3.767   2.027
 2244TIP3   OH228290   2.207   0.007   6.529
 2244TIP3    H128291   2.267   6.878   6.457
 2244TIP3    H228292   2.180   0.098   6.518
 2245TIP3   OH228293   2.361   3.994   8.062
 2245TIP3    H128294   2.442   4.045   8.072
 2245TIP3    H228295   2.310   4.041   7.996
 2246TIP3   OH228296   0.950   5.435   6.720
 2246TIP3    H128297   0.937   5.476   6.805
 2246TIP3    H228298   1.039   5.462   6.695
 2247TIP3   OH228299   1.269   6.101   6.704
 2247TIP3    H128300   1.286   6.099   6.609
 2247TIP3    H228301   1.177   6.125   6.712
 2248TIP3   OH228302   2.826   2.591   0.669
 2248TIP3    H128303   2.866   2.590   0.756
 2248TIP3    H228304   2.736   2.564   0.684
 2249TIP3   OH228305   3.703   3.452   0.334
 2249TIP3    H128306   3.726   3.510   0.261
 2249TIP3    H228307   3.609   3.437   0.324
 2250TIP3   OH228308   1.556   5.037   0.047
 2250TIP3    H128309   1.490   5.081   8.608
 2250TIP3    H228310   1.619   5.105   0.068
 2251TIP3   OH228311   4.453   5.379   8.084
 2251TIP3    H128312   4.546   5.370   8.105
 2251TIP3    H228313   4.416   5.425   8.160
 2252TIP3   OH228314   6.353   6.594   8.337
 2252TIP3    H128315   6.376   6.600   8.244
 2252TIP3    H228316   6.259   6.613   8.339
 2253TIP3   OH228317   3.074   6.220   8.247
 2253TIP3    H128318   2.983   6.189   8.245
 2253TIP3    H228319   3.109   6.186   8.329
 2254TIP3   OH228320   5.381   2.495   7.714
 2254TIP3    H128321   5.439   2.448   7.775
 2254TIP3    H228322   5.293   2.463   7.735
 2255TIP3   OH228323   5.155   4.975   0.867
 2255TIP3    H128324   5.209   5.012   0.937
 2255TIP3    H228325   5.129   5.051   0.815
 2256TIP3   OH228326   0.322   5.619   0.597
 2256TIP3    H128327   0.234   5.602   0.565
 2256TIP3    H228328   0.326   5.576   0.682
 2257TIP3   OH228329   2.162   2.501   6.877
 2257TIP3    H128330   2.207   2.558   6.940
 2257TIP3    H228331   2.197   2.527   6.792
 2258TIP3   OH228332   5.133   1.649   1.988
 2258TIP3    H128333   5.211   1.628   1.939
 2258TIP3    H228334   5.067   1.671   1.922
 2259TIP3   OH228335   1.321   6.302   8.422
 2259TIP3    H128336   1.357   6.350   8.496
 2259TIP3    H228337   1.346   6.211   8.437
 2260TIP3   OH228338   5.682   4.623   6.335
 2260TIP3    H128339   5.618   4.677   6.381
 2260TIP3    H228340   5.677   4.652   6.244
 2261TIP3   OH228341   1.518   2.018   0.209
 2261TIP3    H128342   1.544   2.108   0.227
 2261TIP3    H228343   1.491   2.018   0.117
 2262TIP3   OH228344   6.279   3.279   0.158
 2262TIP3    H128345   6.253   3.360   0.203
 2262TIP3    H228346   6.200   3.224   0.162
 2263TIP3   OH228347   4.672   6.013   6.952
 2263TIP3    H128348   4.608   5.949   6.982
 2263TIP3    H228349   4.626   6.097   6.955
 2264TIP3   OH228350   1.395   6.803   0.570
 2264TIP3    H128351   1.400   0.010   0.555
 2264TIP3    H228352   1.410   6.794   0.665
 2265TIP3   OH228353   0.584   0.892   7.707
 2265TIP3    H128354   0.590   0.982   7.676
 2265TIP3    H228355   0.578   0.900   7.802
 2266TIP3   OH228356   0.401   3.924   2.621
 2266TIP3    H128357   0.410   3.888   2.709
 2266TIP3    H228358   0.307   3.925   2.605
 2267TIP3   OH228359   2.033   6.033   6.096
 2267TIP3    H128360   2.112   6.079   6.072
 2267TIP3    H228361   1.961   6.091   6.070
 2268TIP3   OH228362   5.004   0.215   0.903
 2268TIP3    H128363   4.974   0.211   0.994
 2268TIP3    H228364   5.099   0.208   0.909
 2269TIP3   OH228365   5.961   2.567   7.316
 2269TIP3    H128366   5.867   2.557   7.324
 2269TIP3    H228367   5.979   2.552   7.223
 2270TIP3   OH228368   0.399   2.919   1.588
 2270TIP3    H128369   0.345   2.963   1.522
 2270TIP3    H228370   0.336   2.889   1.654
 2271TIP3   OH228371   0.172   1.155   7.739
 2271TIP3    H128372   0.110   1.120   7.802
 2271TIP3    H228373   0.210   1.078   7.697
 2272TIP3   OH228374   0.984   2.754   0.575
 2272TIP3    H128375   1.033   2.787   0.500
 2272TIP3    H228376   0.940   2.831   0.611
 2273TIP3   OH228377   1.360   5.809   1.256
 2273TIP3    H128378   1.293   5.791   1.322
 2273TIP3    H228379   1.335   5.894   1.220
 2274TIP3   OH228380   6.477   6.628   0.603
 2274TIP3    H128381   6.418   6.690   0.560
 2274TIP3    H228382   6.442   6.620   0.692
 2275TIP3   OH228383   3.219   6.692   6.995
 2275TIP3    H128384   3.147   6.746   6.963
 2275TIP3    H228385   3.203   6.606   6.955
 2276TIP3   OH228386   3.761   5.962   1.414
 2276TIP3    H128387   3.724   6.036   1.462
 2276TIP3    H228388   3.686   5.907   1.393
 2277TIP3   OH228389   0.487   4.370   7.828
 2277TIP3    H128390   0.410   4.428   7.825
 2277TIP3    H228391   0.454   4.288   7.863
 2278TIP3   OH228392   0.376   2.497   1.897
 2278TIP3    H128393   0.374   2.548   1.977
 2278TIP3    H228394   0.462   2.514   1.859
 2279TIP3   OH228395   4.965   4.031   8.504
 2279TIP3    H128396   4.888   4.039   8.560
 2279TIP3    H228397   4.983   3.937   8.501
 2280TIP3   OH228398   3.662   4.903   8.549
 2280TIP3    H128399   3.615   4.827   8.584
 2280TIP3    H228400   3.738   4.865   8.505
 2281TIP3   OH228401   2.556   5.878   2.146
 2281TIP3    H128402   2.596   5.907   2.228
 2281TIP3    H228403   2.607   5.801   2.120
 2282TIP3   OH228404   4.476   5.024   0.486
 2282TIP3    H128405   4.443   4.941   0.519
 2282TIP3    H228406   4.570   5.008   0.470
 2283TIP3   OH228407   3.289   0.554   1.495
 2283TIP3    H128408   3.233   0.564   1.572
 2283TIP3    H228409   3.234   0.512   1.430
 2284TIP3   OH228410   6.538   4.170   2.587
 2284TIP3    H128411   6.526   4.183   2.493
 2284TIP3    H228412   6.630   4.142   2.595
 2285TIP3   OH228413   1.099   0.442   0.529
 2285TIP3    H128414   1.075   0.525   0.489
 2285TIP3    H228415   1.069   0.449   0.620
 2286TIP3   OH228416   5.094   3.529   7.021
 2286TIP3    H128417   5.163   3.595   7.031
 2286TIP3    H228418   5.041   3.560   6.948
 2287TIP3   OH228419   6.171   1.169   7.354
 2287TIP3    H128420   6.096   1.225   7.373
 2287TIP3    H228421   6.179   1.169   7.259
 2288TIP3   OH228422   4.346   2.927   0.186
 2288TIP3    H128423   4.344   2.930   0.282
 2288TIP3    H228424   4.257   2.950   0.159
 2289TIP3   OH228425   6.026   5.958   7.268
 2289TIP3    H128426   6.043   5.998   7.182
 2289TIP3    H228427   6.033   5.864   7.253
 2290TIP3   OH228428   6.277   3.175   1.241
 2290TIP3    H128429   6.315   3.251   1.197
 2290TIP3    H228430   6.192   3.163   1.198
 2291TIP3   OH228431   1.542   5.455   0.328
 2291TIP3    H128432   1.462   5.505   0.309
 2291TIP3    H228433   1.610   5.522   0.337
 2292TIP3   OH228434   1.259   2.430   7.161
 2292TIP3    H128435   1.348   2.394   7.156
 2292TIP3    H228436   1.202   2.356   7.139
 2293TIP3   OH228437   4.808   3.972   0.850
 2293TIP3    H128438   4.768   3.980   0.937
 2293TIP3    H228439   4.878   4.037   0.850
 2294TIP3   OH228440   5.722   2.960   0.829
 2294TIP3    H128441   5.725   2.912   0.912
 2294TIP3    H228442   5.661   2.909   0.775
 2295TIP3   OH228443   6.858   3.805   2.090
 2295TIP3    H128444   0.052   3.820   2.041
 2295TIP3    H228445   6.809   3.743   2.037
 2296TIP3   OH228446   6.041   6.018   6.389
 2296TIP3    H128447   6.043   6.113   6.399
 2296TIP3    H228448   6.052   5.984   6.477
 2297TIP3   OH228449   0.730   6.114   1.635
 2297TIP3    H128450   0.764   6.088   1.721
 2297TIP3    H228451   0.659   6.052   1.618
 2298TIP3   OH228452   3.637   0.490   6.453
 2298TIP3    H128453   3.621   0.551   6.381
 2298TIP3    H228454   3.667   0.409   6.410
 2299TIP3   OH228455   1.157   5.357   0.426
 2299TIP3    H128456   1.121   5.281   0.380
 2299TIP3    H228457   1.083   5.417   0.433
 2300TIP3   OH228458   2.234   4.126   1.436
 2300TIP3    H128459   2.292   4.049   1.435
 2300TIP3    H228460   2.148   4.090   1.458
 2301TIP3   OH228461   2.620   0.131   0.471
 2301TIP3    H128462   2.704   0.115   0.514
 2301TIP3    H228463   2.606   0.225   0.480
 2302TIP3   OH228464   3.568   3.825   1.142
 2302TIP3    H128465   3.525   3.762   1.084
 2302TIP3    H228466   3.624   3.877   1.085
 2303TIP3   OH228467   1.565   0.185   2.012
 2303TIP3    H128468   1.627   0.171   2.084
 2303TIP3    H228469   1.512   0.106   2.011
 2304TIP3   OH228470   2.395   1.708   0.087
 2304TIP3    H128471   2.387   1.624   0.133
 2304TIP3    H228472   2.320   1.710   0.028
 2305TIP3   OH228473   5.206   0.131   2.420
 2305TIP3    H128474   5.184   0.040   2.439
 2305TIP3    H228475   5.181   0.179   2.499
 2306TIP3   OH228476   0.780   3.512   0.986
 2306TIP3    H128477   0.781   3.605   1.006
 2306TIP3    H228478   0.778   3.507   0.891
 2307TIP3   OH228479   1.617   4.549   6.573
 2307TIP3    H128480   1.531   4.533   6.535
 2307TIP3    H228481   1.633   4.642   6.559
 2308TIP3   OH228482   5.119   4.438   8.340
 2308TIP3    H128483   5.045   4.380   8.356
 2308TIP3    H228484   5.080   4.526   8.339
 2309TIP3   OH228485   2.287   5.641   2.682
 2309TIP3    H128486   2.205   5.669   2.641
 2309TIP3    H228487   2.352   5.647   2.612
 2310TIP3   OH228488   5.400   0.647   0.051
 2310TIP3    H128489   5.418   0.741   0.048
 2310TIP3    H228490   5.368   0.632   0.140
 2311TIP3   OH228491   2.110   3.499   8.299
 2311TIP3    H128492   2.161   3.574   8.328
 2311TIP3    H228493   2.023   3.534   8.279
 2312TIP3   OH228494   5.992   1.311   7.080
 2312TIP3    H128495   6.031   1.224   7.078
 2312TIP3    H228496   5.943   1.317   6.997
 2313TIP3   OH228497   4.331   0.000   6.295
 2313TIP3    H128498   4.350   6.853   6.207
 2313TIP3    H228499   4.338   6.811   6.352
 2314TIP3   OH228500   4.689   5.292   2.242
 2314TIP3    H128501   4.647   5.375   2.268
 2314TIP3    H228502   4.619   5.242   2.201
 2315TIP3   OH228503   4.522   2.908   8.195
 2315TIP3    H128504   4.584   2.981   8.185
 2315TIP3    H228505   4.482   2.899   8.109
 2316TIP3   OH228506   6.513   0.967   0.968
 2316TIP3    H128507   6.420   0.967   0.945
 2316TIP3    H228508   6.548   0.888   0.928
 2317TIP3   OH228509   6.877   0.751   1.878
 2317TIP3    H128510   0.084   0.758   1.860
 2317TIP3    H228511   6.858   0.826   1.934
 2318TIP3   OH228512   5.100   5.418   0.502
 2318TIP3    H128513   5.133   5.483   0.441
 2318TIP3    H228514   5.163   5.418   0.574
 2319TIP3   OH228515   0.326   5.180   1.177
 2319TIP3    H128516   0.418   5.185   1.204
 2319TIP3    H228517   0.279   5.235   1.240
 2320TIP3   OH228518   0.984   2.623   8.008
 2320TIP3    H128519   0.938   2.594   7.929
 2320TIP3    H228520   0.976   2.549   8.068
 2321TIP3   OH228521   1.634   4.766   1.371
 2321TIP3    H128522   1.627   4.671   1.380
 2321TIP3    H228523   1.617   4.781   1.278
 2322TIP3   OH228524   0.042   1.632   2.114
 2322TIP3    H128525   0.075   1.553   2.157
 2322TIP3    H228526   6.839   1.611   2.092
 2323TIP3   OH228527   0.185   5.464   8.589
 2323TIP3    H128528   0.191   5.431   8.500
 2323TIP3    H228529   0.257   5.527   8.596
 2324TIP3   OH228530   2.781   3.934   7.489
 2324TIP3    H128531   2.855   3.897   7.440
 2324TIP3    H228532   2.703   3.907   7.441
 2325TIP3   OH228533   1.254   4.391   1.314
 2325TIP3    H128534   1.227   4.474   1.354
 2325TIP3    H228535   1.269   4.413   1.222
 2326TIP3   OH228536   0.769   4.719   7.528
 2326TIP3    H128537   0.807   4.794   7.483
 2326TIP3    H228538   0.842   4.679   7.575
 2327TIP3   OH228539   1.019   4.687   7.640
 2327TIP3    H128540   1.094   4.630   7.661
 2327TIP3    H228541   1.042   4.771   7.679
 2328TIP3   OH228542   4.332   4.416   7.997
 2328TIP3    H128543   4.321   4.327   7.962
 2328TIP3    H228544   4.417   4.444   7.963
 2329TIP3   OH228545   3.688   3.131   0.477
 2329TIP3    H128546   3.697   3.039   0.454
 2329TIP3    H228547   3.707   3.135   0.571
 2330TIP3   OH228548   2.929   1.658   8.598
 2330TIP3    H128549   2.961   1.578   0.026
 2330TIP3    H228550   2.879   1.703   0.052
 2331TIP3   OH228551   4.318   3.707   1.473
 2331TIP3    H128552   4.400   3.659   1.477
 2331TIP3    H228553   4.264   3.670   1.542
 2332TIP3   OH228554   3.422   0.463   7.728
 2332TIP3    H128555   3.503   0.413   7.732
 2332TIP3    H228556   3.377   0.444   7.810
 2333TIP3   OH228557   5.309   4.996   6.856
 2333TIP3    H128558   5.322   5.090   6.865
 2333TIP3    H228559   5.386   4.965   6.810
 2334TIP3   OH228560   4.304   0.595   1.862
 2334TIP3    H128561   4.292   0.643   1.780
 2334TIP3    H228562   4.228   0.536   1.867
 2335TIP3   OH228563   0.200   3.472   1.476
 2335TIP3    H128564   0.246   3.480   1.559
 2335TIP3    H228565   0.167   3.560   1.458
 2336TIP3   OH228566   4.339   5.660   6.704
 2336TIP3    H128567   4.406   5.623   6.647
 2336TIP3    H228568   4.305   5.585   6.752
 2337TIP3   OH228569   0.174   6.241   1.791
 2337TIP3    H128570   0.098   6.286   1.828
 2337TIP3    H228571   0.241   6.247   1.859
 2338TIP3   OH228572   2.564   3.358   0.729
 2338TIP3    H128573   2.625   3.287   0.707
 2338TIP3    H228574   2.514   3.371   0.648
 2339TIP3   OH228575   6.380   5.770   1.597
 2339TIP3    H128576   6.364   5.751   1.504
 2339TIP3    H228577   6.475   5.782   1.602
 2340TIP3   OH228578   2.727   2.278   0.438
 2340TIP3    H128579   2.750   2.243   0.524
 2340TIP3    H228580   2.631   2.280   0.438
 2341TIP3   OH228581   1.469   4.173   8.122
 2341TIP3    H128582   1.509   4.208   8.043
 2341TIP3    H228583   1.526   4.100   8.147
 2342TIP3   OH228584   2.340   0.117   1.202
 2342TIP3    H128585   2.336   0.055   1.129
 2342TIP3    H228586   2.262   0.172   1.192
 2343TIP3   OH228587   4.807   3.812   1.456
 2343TIP3    H128588   4.895   3.778   1.439
 2343TIP3    H228589   4.763   3.742   1.504
 2344TIP3   OH228590   6.365   4.930   8.523
 2344TIP3    H128591   6.404   4.980   8.595
 2344TIP3    H228592   6.272   4.953   8.526
 2345TIP3   OH228593   3.909   2.126   6.973
 2345TIP3    H128594   3.858   2.149   7.050
 2345TIP3    H228595   3.871   2.043   6.943
 2346TIP3   OH228596   3.659   0.697   6.272
 2346TIP3    H128597   3.685   0.787   6.292
 2346TIP3    H228598   3.586   0.705   6.210
 2347TIP3   OH228599   2.133   1.326   6.851
 2347TIP3    H128600   2.191   1.256   6.880
 2347TIP3    H228601   2.180   1.368   6.779
 2348TIP3   OH228602   3.029   0.517   6.488
 2348TIP3    H128603   2.957   0.461   6.519
 2348TIP3    H228604   3.033   0.499   6.394
 2349TIP3   OH228605   6.177   6.366   0.844
 2349TIP3    H128606   6.084   6.387   0.849
 2349TIP3    H228607   6.188   6.290   0.900
 2350TIP3   OH228608   6.439   2.695   7.916
 2350TIP3    H128609   6.380   2.764   7.885
 2350TIP3    H228610   6.513   2.743   7.954
 2351TIP3   OH228611   3.054   6.057   7.005
 2351TIP3    H128612   2.977   6.111   6.986
 2351TIP3    H228613   3.084   6.089   7.090
 2352TIP3   OH228614   6.817   4.005   7.969
 2352TIP3    H128615   6.831   3.928   7.914
 2352TIP3    H228616   0.015   4.020   8.011
 2353TIP3   OH228617   2.559   5.900   0.967
 2353TIP3    H128618   2.576   5.912   0.873
 2353TIP3    H228619   2.605   5.819   0.989
 2354TIP3   OH228620   1.893   4.794   1.559
 2354TIP3    H128621   1.876   4.701   1.572
 2354TIP3    H228622   1.818   4.826   1.508
 2355TIP3   OH228623   1.139   5.735   2.526
 2355TIP3    H128624   1.065   5.774   2.572
 2355TIP3    H228625   1.178   5.807   2.477
 2356TIP3   OH228626   3.584   2.406   7.509
 2356TIP3    H128627   3.620   2.319   7.523
 2356TIP3    H228628   3.629   2.438   7.431
 2357TIP3   OH228629   2.426   6.100   1.730
 2357TIP3    H128630   2.373   6.116   1.652
 2357TIP3    H228631   2.450   6.008   1.724
 2358TIP3   OH228632   2.808   5.638   1.358
 2358TIP3    H128633   2.884   5.694   1.372
 2358TIP3    H228634   2.833   5.581   1.285
 2359TIP3   OH228635   6.600   6.393   2.087
 2359TIP3    H128636   6.601   6.457   2.159
 2359TIP3    H228637   6.667   6.424   2.026
 2360TIP3   OH228638   2.229   1.772   6.740
 2360TIP3    H128639   2.296   1.705   6.727
 2360TIP3    H228640   2.148   1.731   6.711
 2361TIP3   OH228641   0.006   2.737   7.295
 2361TIP3    H128642   0.002   2.645   7.324
 2361TIP3    H228643   0.099   2.757   7.294
 2362TIP3   OH228644   0.749   2.738   7.794
 2362TIP3    H128645   0.766   2.660   7.742
 2362TIP3    H228646   0.693   2.792   7.737
 2363TIP3   OH228647   4.771   2.105   8.325
 2363TIP3    H128648   4.802   2.015   8.312
 2363TIP3    H228649   4.677   2.095   8.344
 2364TIP3   OH228650   5.185   6.452   7.770
 2364TIP3    H128651   5.166   6.545   7.759
 2364TIP3    H228652   5.146   6.429   7.854
 2365TIP3   OH228653   4.779   3.261   7.581
 2365TIP3    H128654   4.767   3.356   7.587
 2365TIP3    H228655   4.873   3.248   7.597
 2366TIP3   OH228656   5.797   2.658   2.165
 2366TIP3    H128657   5.710   2.642   2.129
 2366TIP3    H228658   5.808   2.590   2.232
 2367TIP3   OH228659   5.758   6.601   8.115
 2367TIP3    H128660   5.764   6.507   8.099
 2367TIP3    H228661   5.706   6.634   8.042
 2368TIP3   OH228662   1.938   6.618   0.832
 2368TIP3    H128663   1.862   6.563   0.814
 2368TIP3    H228664   1.932   6.638   0.925
 2369TIP3   OH228665   2.225   2.701   7.063
 2369TIP3    H128666   2.307   2.704   7.112
 2369TIP3    H228667   2.167   2.761   7.110
 2370TIP3   OH228668   5.261   4.086   7.494
 2370TIP3    H128669   5.321   4.083   7.568
 2370TIP3    H228670   5.302   4.147   7.432
 2371TIP3   OH228671   1.210   5.826   0.206
 2371TIP3    H128672   1.238   5.749   0.255
 2371TIP3    H228673   1.194   5.892   0.274
 2372TIP3   OH228674   6.669   1.045   0.122
 2372TIP3    H128675   6.640   0.990   0.195
 2372TIP3    H228676   6.759   1.069   0.145
 2373TIP3   OH228677   5.530   5.037   1.740
 2373TIP3    H128678   5.601   5.095   1.766
 2373TIP3    H228679   5.573   4.953   1.722
 2374TIP3   OH228680   2.682   5.942   0.055
 2374TIP3    H128681   2.668   5.973   0.144
 2374TIP3    H228682   2.663   5.848   0.059
 2375TIP3   OH228683   1.876   1.637   1.950
 2375TIP3    H128684   1.950   1.604   2.001
 2375TIP3    H228685   1.872   1.731   1.971
 2376TIP3   OH228686   6.836   2.611   0.717
 2376TIP3    H128687   0.043   2.626   0.704
 2376TIP3    H228688   6.795   2.695   0.695
 2377TIP3   OH228689   1.192   3.409   1.855
 2377TIP3    H128690   1.280   3.384   1.885
 2377TIP3    H228691   1.173   3.348   1.783
 2378TIP3   OH228692   2.278   0.948   8.588
 2378TIP3    H128693   2.310   0.905   8.508
 2378TIP3    H228694   2.189   0.976   8.566
 2379TIP3   OH228695   0.831   0.835   0.875
 2379TIP3    H128696   0.903   0.792   0.921
 2379TIP3    H228697   0.759   0.836   0.938
 2380TIP3   OH228698   1.731   6.869   1.032
 2380TIP3    H128699   1.814   6.886   0.990
 2380TIP3    H228700   1.747   6.791   1.085
 2381TIP3   OH228701   4.637   2.957   0.626
 2381TIP3    H128702   4.730   2.938   0.611
 2381TIP3    H228703   4.611   2.897   0.696
 2382TIP3   OH228704   4.154   0.316   0.732
 2382TIP3    H128705   4.235   0.300   0.779
 2382TIP3    H228706   4.182   0.335   0.642
 2383TIP3   OH228707   0.680   1.117   6.599
 2383TIP3    H128708   0.716   1.039   6.557
 2383TIP3    H228709   0.646   1.169   6.527
 2384TIP3   OH228710   5.553   2.823   2.094
 2384TIP3    H128711   5.617   2.852   2.159
 2384TIP3    H228712   5.519   2.741   2.131
 2385TIP3   OH228713   5.154   6.486   1.545
 2385TIP3    H128714   5.194   6.527   1.622
 2385TIP3    H228715   5.128   6.399   1.574
 2386TIP3   OH228716   2.769   4.649   1.696
 2386TIP3    H128717   2.776   4.628   1.789
 2386TIP3    H228718   2.706   4.586   1.661
 2387TIP3   OH228719   6.258   6.767   0.433
 2387TIP3    H128720   6.236   6.860   0.426
 2387TIP3    H228721   6.188   6.729   0.485
 2388TIP3   OH228722   5.629   2.502   0.235
 2388TIP3    H128723   5.657   2.436   0.300
 2388TIP3    H228724   5.626   2.454   0.153
 2389TIP3   OH228725   1.498   1.268   1.998
 2389TIP3    H128726   1.426   1.246   1.940
 2389TIP3    H228727   1.488   1.362   2.014
 2390TIP3   OH228728   6.812   2.407   1.428
 2390TIP3    H128729   6.724   2.369   1.436
 2390TIP3    H228730   6.802   2.476   1.362
 2391TIP3   OH228731   0.406   0.855   6.777
 2391TIP3    H128732   0.327   0.830   6.730
 2391TIP3    H228733   0.375   0.918   6.842
 2392TIP3   OH228734   5.548   1.007   1.238
 2392TIP3    H128735   5.530   1.010   1.144
 2392TIP3    H228736   5.598   1.087   1.255
 2393TIP3   OH228737   6.081   5.008   8.573
 2393TIP3    H128738   6.071   5.082   0.019
 2393TIP3    H228739   6.068   5.045   8.486
 2394TIP3   OH228740   1.802   1.458   2.146
 2394TIP3    H128741   1.887   1.476   2.186
 2394TIP3    H228742   1.800   1.515   2.068
 2395TIP3   OH228743   5.063   2.084   6.731
 2395TIP3    H128744   5.035   1.993   6.723
 2395TIP3    H228745   5.003   2.132   6.675
 2396TIP3   OH228746   6.858   4.058   1.888
 2396TIP3    H128747   0.017   4.140   1.905
 2396TIP3    H228748   6.838   4.024   1.975
 2397TIP3   OH228749   3.821   2.871   6.574
 2397TIP3    H128750   3.904   2.913   6.554
 2397TIP3    H228751   3.761   2.905   6.508
 2398TIP3   OH228752   6.440   5.981   2.792
 2398TIP3    H128753   6.431   5.942   2.706
 2398TIP3    H228754   6.515   5.937   2.832
 2399TIP3   OH228755   5.906   5.065   1.304
 2399TIP3    H128756   5.904   5.074   1.209
 2399TIP3    H228757   5.881   4.974   1.320
 2400TIP3   OH228758   0.788   1.266   6.810
 2400TIP3    H128759   0.749   1.245   6.895
 2400TIP3    H228760   0.754   1.200   6.750
 2401TIP3   OH228761   3.109   6.503   2.177
 2401TIP3    H128762   3.143   6.476   2.091
 2401TIP3    H228763   3.187   6.513   2.231
 2402TIP3   OH228764   0.494   3.600   7.716
 2402TIP3    H128765   0.457   3.636   7.635
 2402TIP3    H228766   0.509   3.677   7.772
 2403TIP3   OH228767   5.080   3.870   6.666
 2403TIP3    H128768   5.070   3.837   6.576
 2403TIP3    H228769   5.119   3.957   6.655
 2404TIP3   OH228770   4.957   1.849   6.526
 2404TIP3    H128771   4.979   1.756   6.534
 2404TIP3    H228772   5.041   1.893   6.515
 2405TIP3   OH228773   4.639   6.170   0.585
 2405TIP3    H128774   4.695   6.113   0.638
 2405TIP3    H228775   4.681   6.256   0.591
 2406TIP3   OH228776   2.718   4.591   7.426
 2406TIP3    H128777   2.716   4.515   7.367
 2406TIP3    H228778   2.685   4.557   7.509
 2407TIP3   OH228779   3.758   3.661   0.163
 2407TIP3    H128780   3.666   3.661   0.137
 2407TIP3    H228781   3.805   3.636   0.083
 2408TIP3   OH228782   2.627   2.237   6.107
 2408TIP3    H128783   2.717   2.222   6.077
 2408TIP3    H228784   2.596   2.311   6.056
 2409TIP3   OH228785   1.584   4.491   1.260
 2409TIP3    H128786   1.624   4.405   1.246
 2409TIP3    H228787   1.514   4.496   1.195
 2410TIP3   OH228788   0.133   1.321   1.524
 2410TIP3    H128789   0.087   1.237   1.537
 2410TIP3    H228790   0.194   1.304   1.453
 2411TIP3   OH228791   1.906   6.285   7.781
 2411TIP3    H128792   1.925   6.379   7.789
 2411TIP3    H228793   1.991   6.242   7.790
 2412TIP3   OH228794   5.460   0.553   2.100
 2412TIP3    H128795   5.412   0.627   2.138
 2412TIP3    H228796   5.531   0.536   2.162
 2413TIP3   OH228797   2.669   2.858   0.702
 2413TIP3    H128798   2.761   2.834   0.691
 2413TIP3    H228799   2.665   2.901   0.787
 2414TIP3   OH228800   0.332   3.215   6.677
 2414TIP3    H128801   0.366   3.270   6.606
 2414TIP3    H228802   0.238   3.209   6.660
 2415TIP3   OH228803   1.135   0.467   7.217
 2415TIP3    H128804   1.205   0.531   7.200
 2415TIP3    H228805   1.176   0.402   7.274
 2416TIP3   OH228806   2.628   3.223   8.355
 2416TIP3    H128807   2.651   3.135   8.383
 2416TIP3    H228808   2.696   3.279   8.393
 2417TIP3   OH228809   4.719   2.685   6.600
 2417TIP3    H128810   4.749   2.617   6.661
 2417TIP3    H228811   4.733   2.767   6.648
 2418TIP3   OH228812   6.516   2.003   0.218
 2418TIP3    H128813   6.590   1.980   0.162
 2418TIP3    H228814   6.439   1.971   0.171
 2419TIP3   OH228815   3.702   3.936   7.637
 2419TIP3    H128816   3.651   4.000   7.587
 2419TIP3    H228817   3.746   3.884   7.570
 2420TIP3   OH228818   4.186   6.266   0.312
 2420TIP3    H128819   4.236   6.222   0.244
 2420TIP3    H228820   4.252   6.306   0.369
 2421TIP3   OH228821   1.891   6.589   1.356
 2421TIP3    H128822   1.939   6.639   1.291
 2421TIP3    H228823   1.901   6.638   1.437
 2422TIP3   OH228824   4.415   0.975   7.934
 2422TIP3    H128825   4.448   0.979   8.024
 2422TIP3    H228826   4.360   0.896   7.933
 2423TIP3   OH228827   5.531   1.722   7.759
 2423TIP3    H128828   5.623   1.731   7.782
 2423TIP3    H228829   5.516   1.790   7.692
 2424TIP3   OH228830   1.944   1.616   6.905
 2424TIP3    H128831   1.976   1.594   6.817
 2424TIP3    H228832   1.907   1.703   6.896
 2425TIP3   OH228833   6.107   0.638   7.383
 2425TIP3    H128834   6.145   0.724   7.370
 2425TIP3    H228835   6.134   0.613   7.471
 2426TIP3   OH228836   2.615   0.845   0.525
 2426TIP3    H128837   2.607   0.804   0.439
 2426TIP3    H228838   2.703   0.882   0.526
 2427TIP3   OH228839   1.625   0.781   1.069
 2427TIP3    H128840   1.532   0.786   1.091
 2427TIP3    H228841   1.668   0.836   1.134
 2428TIP3   OH228842   1.096   0.596   6.002
 2428TIP3    H128843   1.094   0.669   5.942
 2428TIP3    H228844   1.129   0.633   6.084
 2429TIP3   OH228845   0.881   0.930   7.776
 2429TIP3    H128846   0.793   0.894   7.775
 2429TIP3    H228847   0.927   0.885   7.705
 2430TIP3   OH228848   2.644   5.307   7.337
 2430TIP3    H128849   2.555   5.334   7.311
 2430TIP3    H228850   2.664   5.234   7.278
 2431TIP3   OH228851   3.701   3.963   0.600
 2431TIP3    H128852   3.720   4.047   0.643
 2431TIP3    H228853   3.783   3.937   0.560
 2432TIP3   OH228854   2.908   4.595   8.166
 2432TIP3    H128855   2.992   4.627   8.201
 2432TIP3    H228856   2.898   4.508   8.204
 2433TIP3   OH228857   1.999   6.883   1.409
 2433TIP3    H128858   2.076   6.827   1.422
 2433TIP3    H228859   1.984   6.880   1.314
 2434TIP3   OH228860   3.180   4.253   0.521
 2434TIP3    H128861   3.142   4.283   0.438
 2434TIP3    H228862   3.263   4.300   0.527
 2435TIP3   OH228863   5.117   0.011   2.072
 2435TIP3    H128864   5.100   0.103   2.053
 2435TIP3    H228865   5.169   6.867   1.998
 2436TIP3   OH228866   4.447   2.819   6.641
 2436TIP3    H128867   4.506   2.894   6.637
 2436TIP3    H228868   4.365   2.849   6.604
 2437TIP3   OH228869   2.792   5.325   7.561
 2437TIP3    H128870   2.820   5.233   7.567
 2437TIP3    H228871   2.756   5.333   7.472
 2438TIP3   OH228872   3.017   2.456   7.999
 2438TIP3    H128873   2.932   2.434   7.961
 2438TIP3    H228874   3.032   2.548   7.975
 2439TIP3   OH228875   4.551   3.484   8.353
 2439TIP3    H128876   4.608   3.417   8.316
 2439TIP3    H228877   4.536   3.456   8.444
 2440TIP3   OH228878   4.790   6.411   1.895
 2440TIP3    H128879   4.839   6.337   1.932
 2440TIP3    H228880   4.822   6.417   1.805
 2441TIP3   OH228881   0.323   0.393   7.813
 2441TIP3    H128882   0.315   0.327   7.882
 2441TIP3    H228883   0.259   0.367   7.747
 2442TIP3   OH228884   2.747   1.260   0.165
 2442TIP3    H128885   2.706   1.287   0.248
 2442TIP3    H228886   2.685   1.197   0.127
 2443TIP3   OH228887   1.560   0.140   0.481
 2443TIP3    H128888   1.507   0.186   0.546
 2443TIP3    H228889   1.504   0.133   0.404
 2444TIP3   OH228890   4.745   0.158   6.951
 2444TIP3    H128891   4.763   0.219   6.880
 2444TIP3    H228892   4.651   0.166   6.968
 2445TIP3   OH228893   4.389   2.221   1.705
 2445TIP3    H128894   4.328   2.268   1.648
 2445TIP3    H228895   4.445   2.289   1.742
 2446TIP3   OH228896   2.764   1.109   6.514
 2446TIP3    H128897   2.774   1.015   6.504
 2446TIP3    H228898   2.732   1.139   6.429
 2447TIP3   OH228899   4.157   3.825   7.125
 2447TIP3    H128900   4.108   3.765   7.068
 2447TIP3    H228901   4.215   3.873   7.066
 2448TIP3   OH228902   5.340   0.535   8.428
 2448TIP3    H128903   5.315   0.557   8.518
 2448TIP3    H228904   5.367   0.443   8.434
 2449TIP3   OH228905   5.260   4.311   1.511
 2449TIP3    H128906   5.317   4.314   1.435
 2449TIP3    H228907   5.304   4.366   1.576
 2450TIP3   OH228908   4.714   1.831   8.579
 2450TIP3    H128909   4.659   1.893   8.532
 2450TIP3    H228910   4.794   1.880   8.598
 2451TIP3   OH228911   1.048   1.526   7.644
 2451TIP3    H128912   0.982   1.484   7.589
 2451TIP3    H228913   1.117   1.554   7.583
 2452TIP3   OH228914   2.139   0.015   5.931
 2452TIP3    H128915   2.200   0.056   5.868
 2452TIP3    H228916   2.071   0.081   5.945
 2453TIP3   OH228917   2.559   6.804   8.285
 2453TIP3    H128918   2.640   6.778   8.329
 2453TIP3    H228919   2.576   6.787   8.193
 2454TIP3   OH228920   4.207   4.953   1.143
 2454TIP3    H128921   4.159   4.896   1.202
 2454TIP3    H228922   4.146   4.971   1.071
 2455TIP3   OH228923   1.040   6.070   0.857
 2455TIP3    H128924   1.020   6.017   0.935
 2455TIP3    H228925   1.033   6.160   0.887
 2456TIP3   OH228926   5.094   4.017   0.210
 2456TIP3    H128927   5.102   3.922   0.199
 2456TIP3    H228928   5.162   4.054   0.154
 2457TIP3   OH228929   5.128   6.706   7.683
 2457TIP3    H128930   5.089   6.736   7.601
 2457TIP3    H228931   5.135   6.785   7.737
 2458TIP3   OH228932   1.454   5.865   0.072
 2458TIP3    H128933   1.505   5.931   0.119
 2458TIP3    H228934   1.385   5.839   0.133
 2459TIP3   OH228935   5.125   1.335   0.133
 2459TIP3    H128936   5.098   1.320   0.043
 2459TIP3    H228937   5.090   1.421   0.155
 2460TIP3   OH228938   1.053   6.305   8.476
 2460TIP3    H128939   1.008   6.260   8.405
 2460TIP3    H228940   1.145   6.307   8.449
 2461TIP3   OH228941   1.860   5.937   6.576
 2461TIP3    H128942   1.914   5.954   6.498
 2461TIP3    H228943   1.852   6.023   6.618
 2462TIP3   OH228944   3.263   6.005   8.438
 2462TIP3    H128945   3.179   6.031   8.476
 2462TIP3    H228946   3.240   5.968   8.353
 2463TIP3   OH228947   6.148   4.179   0.455
 2463TIP3    H128948   6.088   4.106   0.469
 2463TIP3    H228949   6.234   4.138   0.444
 2464TIP3   OH228950   0.256   4.135   0.689
 2464TIP3    H128951   0.177   4.115   0.740
 2464TIP3    H228952   0.296   4.050   0.673
 2465TIP3   OH228953   6.167   1.145   1.243
 2465TIP3    H128954   6.157   1.116   1.152
 2465TIP3    H228955   6.078   1.140   1.279
 2466TIP3   OH228956   0.153   5.134   7.600
 2466TIP3    H128957   0.235   5.183   7.604
 2466TIP3    H228958   0.175   5.048   7.637
 2467TIP3   OH228959   4.318   5.876   1.452
 2467TIP3    H128960   4.333   5.895   1.544
 2467TIP3    H228961   4.251   5.807   1.452
 2468TIP3   OH228962   5.835   1.899   1.516
 2468TIP3    H128963   5.802   1.971   1.462
 2468TIP3    H228964   5.785   1.905   1.598
 2469TIP3   OH228965   6.324   5.504   0.964
 2469TIP3    H128966   6.388   5.566   1.000
 2469TIP3    H228967   6.314   5.438   1.033
 2470TIP3   OH228968   3.153   2.726   6.186
 2470TIP3    H128969   3.142   2.676   6.268
 2470TIP3    H228970   3.237   2.697   6.152
 2471TIP3   OH228971   1.646   1.254   7.086
 2471TIP3    H128972   1.593   1.270   7.164
 2471TIP3    H228973   1.690   1.336   7.069
 2472TIP3   OH228974   0.197   2.308   7.682
 2472TIP3    H128975   0.172   2.400   7.675
 2472TIP3    H228976   0.234   2.299   7.770
 2473TIP3   OH228977   4.384   0.238   0.867
 2473TIP3    H128978   4.328   0.258   0.942
 2473TIP3    H228979   4.466   0.284   0.885
 2474TIP3   OH228980   0.392   6.518   7.789
 2474TIP3    H128981   0.375   6.608   7.817
 2474TIP3    H228982   0.373   6.465   7.866
 2475TIP3   OH228983   0.829   2.307   1.124
 2475TIP3    H128984   0.823   2.327   1.217
 2475TIP3    H228985   0.740   2.282   1.099
 2476TIP3   OH228986   1.362   1.166   0.004
 2476TIP3    H128987   1.362   1.195   0.096
 2476TIP3    H228988   1.273   1.135   8.602
 2477TIP3   OH228989   0.438   5.148   7.015
 2477TIP3    H128990   0.410   5.100   6.937
 2477TIP3    H228991   0.425   5.086   7.087
 2478TIP3   OH228992   1.485   6.291   7.086
 2478TIP3    H128993   1.402   6.335   7.066
 2478TIP3    H228994   1.483   6.212   7.031
 2479TIP3   OH228995   2.335   0.550   1.087
 2479TIP3    H128996   2.274   0.547   1.161
 2479TIP3    H228997   2.421   0.555   1.127
 2480TIP3   OH228998   0.892   4.883   1.452
 2480TIP3    H128999   0.929   4.854   1.535
 2480TIP3    H229000   0.900   4.807   1.394
 2481TIP3   OH229001   5.413   6.430   0.152
 2481TIP3    H129002   5.330   6.446   0.106
 2481TIP3    H229003   5.390   6.367   0.221
 2482TIP3   OH229004   0.157   6.537   8.533
 2482TIP3    H129005   0.118   6.452   8.517
 2482TIP3    H229006   0.245   6.531   8.495
 2483TIP3   OH229007   1.268   5.205   7.760
 2483TIP3    H129008   1.321   5.152   7.820
 2483TIP3    H229009   1.305   5.293   7.766
 2484TIP3   OH229010   5.184   4.149   2.398
 2484TIP3    H129011   5.186   4.093   2.475
 2484TIP3    H229012   5.232   4.101   2.331
 2485TIP3   OH229013   2.660   0.497   8.199
 2485TIP3    H129014   2.605   0.514   8.276
 2485TIP3    H229015   2.648   0.404   8.181
 2486TIP3   OH229016   2.185   6.549   0.607
 2486TIP3    H129017   2.224   6.476   0.559
 2486TIP3    H229018   2.122   6.508   0.667
 2487TIP3   OH229019   5.557   4.561   8.425
 2487TIP3    H129020   5.636   4.615   8.425
 2487TIP3    H229021   5.582   4.484   8.476
 2488TIP3   OH229022   6.620   6.550   7.238
 2488TIP3    H129023   6.615   6.613   7.166
 2488TIP3    H229024   6.678   6.591   7.302
 2489TIP3   OH229025   4.097   1.754   1.303
 2489TIP3    H129026   4.185   1.762   1.265
 2489TIP3    H229027   4.084   1.837   1.349
 2490TIP3   OH229028   5.973   3.659   0.009
 2490TIP3    H129029   5.917   3.680   8.548
 2490TIP3    H229030   5.979   3.741   0.058
 2491TIP3   OH229031   4.030   2.987   0.425
 2491TIP3    H129032   4.018   2.901   0.465
 2491TIP3    H229033   3.991   2.979   0.338
 2492TIP3   OH229034   0.193   4.600   1.628
 2492TIP3    H129035   0.140   4.679   1.632
 2492TIP3    H229036   0.201   4.581   1.534
 2493TIP3   OH229037   2.552   6.424   0.187
 2493TIP3    H129038   2.469   6.470   0.175
 2493TIP3    H229039   2.549   6.352   0.125
 2494TIP3   OH229040   4.555   4.905   7.425
 2494TIP3    H129041   4.626   4.873   7.369
 2494TIP3    H229042   4.576   4.873   7.512
 2495TIP3   OH229043   2.948   4.018   6.995
 2495TIP3    H129044   2.991   3.994   6.913
 2495TIP3    H229045   2.980   4.106   7.014
 2496TIP3   OH229046   0.905   3.028   1.595
 2496TIP3    H129047   0.813   3.004   1.610
 2496TIP3    H229048   0.906   3.063   1.506
 2497TIP3   OH229049   5.095   2.033   1.741
 2497TIP3    H129050   5.041   2.109   1.717
 2497TIP3    H229051   5.084   1.972   1.669
 2498TIP3   OH229052   6.042   5.390   7.079
 2498TIP3    H129053   6.093   5.420   7.155
 2498TIP3    H229054   6.094   5.414   7.003
 2499TIP3   OH229055   6.057   5.700   0.034
 2499TIP3    H129056   5.962   5.689   0.038
 2499TIP3    H229057   6.082   5.663   8.564
 2500TIP3   OH229058   0.495   5.410   0.453
 2500TIP3    H129059   0.465   5.483   0.507
 2500TIP3    H229060   0.414   5.370   0.420
 2501TIP3   OH229061   5.017   6.440   0.572
 2501TIP3    H129062   5.038   6.364   0.517
 2501TIP3    H229063   5.102   6.473   0.601
 2502TIP3   OH229064   3.595   6.305   8.417
 2502TIP3    H129065   3.615   6.219   8.380
 2502TIP3    H229066   3.681   6.346   8.430
 2503TIP3   OH229067   3.588   5.977   8.050
 2503TIP3    H129068   3.584   6.064   8.012
 2503TIP3    H229069   3.647   5.928   7.992
 2504TIP3   OH229070   1.421   6.069   6.943
 2504TIP3    H129071   1.491   6.014   6.906
 2504TIP3    H229072   1.375   6.103   6.866
 2505TIP3   OH229073   1.379   2.516   8.178
 2505TIP3    H129074   1.401   2.432   8.218
 2505TIP3    H229075   1.397   2.580   8.246
 2506TIP3   OH229076   2.028   6.474   7.423
 2506TIP3    H129077   1.984   6.472   7.508
 2506TIP3    H229078   2.076   6.557   7.423
 2507TIP3   OH229079   2.859   1.729   7.543
 2507TIP3    H129080   2.806   1.803   7.572
 2507TIP3    H229081   2.833   1.715   7.452
 2508TIP3   OH229082   5.363   5.567   7.005
 2508TIP3    H129083   5.425   5.532   6.941
 2508TIP3    H229084   5.371   5.662   6.997
 2509TIP3   OH229085   4.285   4.162   5.985
 2509TIP3    H129086   4.287   4.122   6.072
 2509TIP3    H229087   4.372   4.200   5.974
 2510TIP3   OH229088   6.244   2.138   7.711
 2510TIP3    H129089   6.286   2.223   7.693
 2510TIP3    H229090   6.262   2.086   7.633
 2511TIP3   OH229091   0.739   0.091   7.833
 2511TIP3    H129092   0.693   0.175   7.825
 2511TIP3    H229093   0.794   0.101   7.911
 2512TIP3   OH229094   4.620   0.657   7.783
 2512TIP3    H129095   4.648   0.631   7.695
 2512TIP3    H229096   4.528   0.681   7.773
 2513TIP3   OH229097   1.397   4.189   1.450
 2513TIP3    H129098   1.423   4.147   1.368
 2513TIP3    H229099   1.356   4.271   1.423
 2514TIP3   OH229100   0.188   4.619   1.353
 2514TIP3    H129101   0.093   4.619   1.362
 2514TIP3    H229102   0.209   4.705   1.317
 2515TIP3   OH229103   0.901   6.234   2.231
 2515TIP3    H129104   0.954   6.213   2.308
 2515TIP3    H229105   0.890   6.151   2.185
 2516TIP3   OH229106   0.864   1.332   1.456
 2516TIP3    H129107   0.842   1.270   1.525
 2516TIP3    H229108   0.902   1.407   1.502
 2517TIP3   OH229109   4.745   1.441   7.175
 2517TIP3    H129110   4.784   1.519   7.135
 2517TIP3    H229111   4.712   1.472   7.259
 2518TIP3   OH229112   3.123   2.142   1.769
 2518TIP3    H129113   3.192   2.169   1.708
 2518TIP3    H229114   3.042   2.176   1.731
 2519TIP3   OH229115   0.056   3.551   1.144
 2519TIP3    H129116   0.122   3.619   1.144
 2519TIP3    H229117   0.017   3.556   1.056
 2520TIP3   OH229118   4.498   4.319   8.520
 2520TIP3    H129119   4.515   4.358   8.606
 2520TIP3    H229120   4.402   4.318   8.514
 2521TIP3   OH229121   0.854   3.017   2.125
 2521TIP3    H129122   0.930   3.074   2.137
 2521TIP3    H229123   0.808   3.054   2.049
 2522TIP3   OH229124   1.176   2.952   2.078
 2522TIP3    H129125   1.125   3.032   2.090
 2522TIP3    H229126   1.184   2.915   2.166
 2523TIP3   OH229127   5.706   5.260   1.404
 2523TIP3    H129128   5.750   5.321   1.345
 2523TIP3    H229129   5.741   5.174   1.380
 2524TIP3   OH229130   0.433   4.989   1.672
 2524TIP3    H129131   0.362   5.044   1.707
 2524TIP3    H229132   0.512   5.041   1.688
 2525TIP3   OH229133   3.377   2.246   2.031
 2525TIP3    H129134   3.313   2.219   2.098
 2525TIP3    H229135   3.401   2.164   1.988
 2526TIP3   OH229136   2.409   0.018   6.977
 2526TIP3    H129137   2.318   0.047   6.983
 2526TIP3    H229138   2.428   6.867   7.063
 2527TIP3   OH229139   1.218   0.650   7.931
 2527TIP3    H129140   1.209   0.669   7.838
 2527TIP3    H229141   1.252   0.561   7.935
 2528TIP3   OH229142   1.252   6.359   0.782
 2528TIP3    H129143   1.302   6.428   0.738
 2528TIP3    H229144   1.174   6.347   0.728
 2529TIP3   OH229145   3.422   1.864   2.156
 2529TIP3    H129146   3.345   1.893   2.205
 2529TIP3    H229147   3.496   1.899   2.206
 2530TIP3   OH229148   3.872   1.910   8.055
 2530TIP3    H129149   3.882   1.831   8.001
 2530TIP3    H229150   3.846   1.978   7.992
 2531TIP3   OH229151   0.629   2.621   1.765
 2531TIP3    H129152   0.670   2.706   1.747
 2531TIP3    H229153   0.550   2.620   1.711
 2532TIP3   OH229154   2.487   2.301   8.360
 2532TIP3    H129155   2.499   2.258   8.275
 2532TIP3    H229156   2.414   2.254   8.401
 2533TIP3   OH229157   1.653   1.109   1.122
 2533TIP3    H129158   1.686   1.198   1.106
 2533TIP3    H229159   1.581   1.099   1.060
 2534TIP3   OH229160   0.239   0.878   7.625
 2534TIP3    H129161   0.277   0.884   7.537
 2534TIP3    H229162   0.272   0.796   7.661
 2535TIP3   OH229163   0.925   5.529   0.418
 2535TIP3    H129164   0.855   5.489   0.367
 2535TIP3    H229165   0.879   5.575   0.489
 2536TIP3   OH229166   3.070   6.153   8.538
 2536TIP3    H129167   3.013   6.229   8.529
 2536TIP3    H229168   3.093   6.151   0.018
 2537TIP3   OH229169   4.864   5.951   0.919
 2537TIP3    H129170   4.821   5.934   1.003
 2537TIP3    H229171   4.952   5.914   0.930
 2538TIP3   OH229172   5.317   4.404   2.384
 2538TIP3    H129173   5.273   4.478   2.426
 2538TIP3    H229174   5.256   4.331   2.392
 2539TIP3   OH229175   4.870   4.656   1.090
 2539TIP3    H129176   4.881   4.655   1.185
 2539TIP3    H229177   4.792   4.603   1.074
 2540TIP3   OH229178   6.853   0.718   0.633
 2540TIP3    H129179   6.838   0.778   0.560
 2540TIP3    H229180   0.061   0.719   0.647
 2541TIP3   OH229181   3.086   2.059   1.026
 2541TIP3    H129182   3.090   1.967   1.000
 2541TIP3    H229183   3.034   2.059   1.107
 2542TIP3   OH229184   6.056   1.341   8.054
 2542TIP3    H129185   6.071   1.431   8.026
 2542TIP3    H229186   6.143   1.304   8.067
 2543TIP3   OH229187   1.322   2.973   7.567
 2543TIP3    H129188   1.374   2.968   7.487
 2543TIP3    H229189   1.358   2.904   7.623
 2544TIP3   OH229190   0.254   6.067   2.053
 2544TIP3    H129191   0.310   6.140   2.028
 2544TIP3    H229192   0.305   6.019   2.118
 2545TIP3   OH229193   1.603   6.242   7.509
 2545TIP3    H129194   1.691   6.237   7.470
 2545TIP3    H229195   1.546   6.269   7.438
 2546TIP3   OH229196   3.239   1.368   0.828
 2546TIP3    H129197   3.324   1.408   0.845
 2546TIP3    H229198   3.237   1.353   0.734
 2547TIP3   OH229199   0.219   0.407   7.182
 2547TIP3    H129200   0.166   0.417   7.260
 2547TIP3    H229201   0.189   0.325   7.142
 2548TIP3   OH229202   6.422   0.513   1.774
 2548TIP3    H129203   6.453   0.604   1.781
 2548TIP3    H229204   6.393   0.492   1.863
 2549TIP3   OH229205   0.371   6.848   1.876
 2549TIP3    H129206   0.417   6.863   1.793
 2549TIP3    H229207   0.373   0.045   1.920
 2550TIP3   OH229208   0.160   0.463   1.697
 2550TIP3    H129209   0.094   0.520   1.658
 2550TIP3    H229210   0.217   0.521   1.748
 2551TIP3   OH229211   1.196   0.353   8.350
 2551TIP3    H129212   1.178   0.262   8.323
 2551TIP3    H229213   1.133   0.405   8.300
 2552TIP3   OH229214   0.872   5.669   1.012
 2552TIP3    H129215   0.959   5.659   1.053
 2552TIP3    H229216   0.817   5.606   1.059
 2553TIP3   OH229217   4.242   4.004   2.190
 2553TIP3    H129218   4.307   4.072   2.172
 2553TIP3    H229219   4.291   3.922   2.185
 2554TIP3   OH229220   2.773   0.309   7.686
 2554TIP3    H129221   2.689   0.354   7.698
 2554TIP3    H229222   2.749   0.216   7.679
 2555TIP3   OH229223   2.967   3.638   7.091
 2555TIP3    H129224   2.982   3.631   6.997
 2555TIP3    H229225   3.052   3.619   7.131
 2556TIP3   OH229226   0.495   6.242   0.406
 2556TIP3    H129227   0.448   6.326   0.412
 2556TIP3    H229228   0.562   6.247   0.474
 2557TIP3   OH229229   3.685   1.218   2.462
 2557TIP3    H129230   3.654   1.129   2.477
 2557TIP3    H229231   3.756   1.230   2.525
 2558TIP3   OH229232   3.124   1.621   6.937
 2558TIP3    H129233   3.209   1.607   6.978
 2558TIP3    H229234   3.139   1.597   6.845
 2559TIP3   OH229235   4.625   5.485   1.194
 2559TIP3    H129236   4.623   5.418   1.262
 2559TIP3    H229237   4.689   5.452   1.130
 2560TIP3   OH229238   3.887   0.871   0.847
 2560TIP3    H129239   3.881   0.813   0.771
 2560TIP3    H229240   3.858   0.817   0.921
 2561TIP3   OH229241   3.930   1.015   8.009
 2561TIP3    H129242   3.888   0.974   8.085
 2561TIP3    H229243   4.007   0.961   7.992
 2562TIP3   OH229244   6.539   4.220   7.037
 2562TIP3    H129245   6.489   4.146   7.002
 2562TIP3    H229246   6.501   4.297   6.994
 2563TIP3   OH229247   3.379   1.105   7.005
 2563TIP3    H129248   3.450   1.169   7.009
 2563TIP3    H229249   3.384   1.060   7.090
 2564TIP3   OH229250   0.130   2.428   0.157
 2564TIP3    H129251   0.046   2.407   0.199
 2564TIP3    H229252   0.195   2.386   0.214
 2565TIP3   OH229253   5.573   0.383   1.794
 2565TIP3    H129254   5.619   0.427   1.865
 2565TIP3    H229255   5.580   0.442   1.719
 2566TIP3   OH229256   1.359   1.883   8.484
 2566TIP3    H129257   1.430   1.913   8.428
 2566TIP3    H229258   1.395   1.810   8.533
 2567TIP3   OH229259   6.100   0.894   0.574
 2567TIP3    H129260   6.195   0.879   0.572
 2567TIP3    H229261   6.064   0.818   0.528
 2568TIP3   OH229262   2.339   3.703   7.703
 2568TIP3    H129263   2.344   3.650   7.624
 2568TIP3    H229264   2.314   3.640   7.772
 2569TIP3   OH229265   4.252   3.157   1.259
 2569TIP3    H129266   4.305   3.082   1.285
 2569TIP3    H229267   4.281   3.228   1.316
 2570TIP3   OH229268   4.427   3.140   6.843
 2570TIP3    H129269   4.422   3.218   6.898
 2570TIP3    H229270   4.511   3.146   6.798
 2571TIP3   OH229271   4.189   5.027   8.030
 2571TIP3    H129272   4.160   4.953   7.977
 2571TIP3    H229273   4.145   5.016   8.114
 2572TIP3   OH229274   3.692   5.851   6.570
 2572TIP3    H129275   3.749   5.809   6.634
 2572TIP3    H229276   3.753   5.893   6.509
 2573TIP3   OH229277   5.671   2.309   7.878
 2573TIP3    H129278   5.741   2.371   7.857
 2573TIP3    H229279   5.717   2.227   7.895
 2574TIP3   OH229280   1.919   3.208   0.552
 2574TIP3    H129281   1.891   3.182   0.465
 2574TIP3    H229282   1.840   3.242   0.594
 2575TIP3   OH229283   0.094   4.318   6.479
 2575TIP3    H129284   0.074   4.335   6.571
 2575TIP3    H229285   0.085   4.403   6.436
 2576TIP3   OH229286   6.755   6.607   1.983
 2576TIP3    H129287   6.728   6.611   2.075
 2576TIP3    H229288   6.850   6.599   1.986
 2577TIP3   OH229289   0.538   5.953   8.120
 2577TIP3    H129290   0.613   5.943   8.062
 2577TIP3    H229291   0.554   5.889   8.190
 2578TIP3   OH229292   5.354   4.988   0.390
 2578TIP3    H129293   5.316   4.966   0.305
 2578TIP3    H229294   5.350   5.084   0.393
 2579TIP3   OH229295   1.316   0.196   0.605
 2579TIP3    H129296   1.247   0.136   0.633
 2579TIP3    H229297   1.338   0.246   0.684
 2580TIP3   OH229298   5.863   4.793   1.280
 2580TIP3    H129299   5.776   4.780   1.243
 2580TIP3    H229300   5.880   4.712   1.329
 2581TIP3   OH229301   6.358   0.513   6.328
 2581TIP3    H129302   6.403   0.564   6.261
 2581TIP3    H229303   6.309   0.447   6.279
 2582TIP3   OH229304   2.352   0.847   6.668
 2582TIP3    H129305   2.416   0.802   6.612
 2582TIP3    H229306   2.388   0.935   6.680
 2583TIP3   OH229307   0.027   6.598   1.346
 2583TIP3    H129308   0.050   6.640   1.263
 2583TIP3    H229309   0.033   6.668   1.411
 2584TIP3   OH229310   1.345   0.949   7.216
 2584TIP3    H129311   1.337   1.035   7.175
 2584TIP3    H229312   1.403   0.900   7.157
 2585TIP3   OH229313   3.973   0.636   6.800
 2585TIP3    H129314   3.948   0.579   6.727
 2585TIP3    H229315   4.066   0.651   6.788
 2586TIP3   OH229316   1.601   0.132   0.802
 2586TIP3    H129317   1.559   0.046   0.798
 2586TIP3    H229318   1.647   0.132   0.885
 2587TIP3   OH229319   1.053   0.556   1.637
 2587TIP3    H129320   1.127   0.610   1.609
 2587TIP3    H229321   0.998   0.616   1.688
 2588TIP3   OH229322   2.845   2.656   7.304
 2588TIP3    H129323   2.829   2.689   7.216
 2588TIP3    H229324   2.815   2.726   7.362
 2589TIP3   OH229325   2.938   6.379   7.124
 2589TIP3    H129326   2.885   6.354   7.049
 2589TIP3    H229327   2.884   6.358   7.200
 2590TIP3   OH229328   3.192   3.951   7.234
 2590TIP3    H129329   3.128   3.975   7.301
 2590TIP3    H229330   3.221   4.034   7.197
 2591TIP3   OH229331   0.564   4.575   0.457
 2591TIP3    H129332   0.600   4.578   0.545
 2591TIP3    H229333   0.506   4.499   0.457
 2592TIP3   OH229334   5.857   0.798   7.296
 2592TIP3    H129335   5.930   0.741   7.274
 2592TIP3    H229336   5.805   0.803   7.216
 2593TIP3   OH229337   3.378   3.778   8.269
 2593TIP3    H129338   3.420   3.700   8.234
 2593TIP3    H229339   3.413   3.850   8.217
 2594TIP3   OH229340   1.957   2.990   7.699
 2594TIP3    H129341   1.899   3.039   7.641
 2594TIP3    H229342   1.988   3.054   7.762
 2595TIP3   OH229343   6.186   5.938   8.476
 2595TIP3    H129344   6.220   5.851   8.453
 2595TIP3    H229345   6.186   5.938   8.572
 2596TIP3   OH229346   0.413   1.248   7.849
 2596TIP3    H129347   0.430   1.312   7.780
 2596TIP3    H229348   0.335   1.201   7.820
 2597TIP3   OH229349   0.854   6.776   0.602
 2597TIP3    H129350   0.923   6.718   0.634
 2597TIP3    H229351   0.785   6.769   0.668
 2598TIP3   OH229352   2.263   6.690   2.425
 2598TIP3    H129353   2.299   6.602   2.439
 2598TIP3    H229354   2.240   6.691   2.332
 2599TIP3   OH229355   3.266   3.480   7.936
 2599TIP3    H129356   3.212   3.555   7.911
 2599TIP3    H229357   3.354   3.515   7.946
 2600TIP3   OH229358   6.413   3.057   8.183
 2600TIP3    H129359   6.341   3.111   8.148
 2600TIP3    H229360   6.440   3.102   8.263
 2601TIP3   OH229361   0.337   5.623   7.350
 2601TIP3    H129362   0.296   5.695   7.301
 2601TIP3    H229363   0.275   5.550   7.340
 2602TIP3   OH229364   3.765   1.971   6.314
 2602TIP3    H129365   3.703   2.044   6.306
 2602TIP3    H229366   3.850   2.013   6.322
 2603TIP3   OH229367   4.465   1.965   1.634
 2603TIP3    H129368   4.493   1.920   1.714
 2603TIP3    H229369   4.448   2.055   1.661
 2604TIP3   OH229370   0.278   2.089   1.131
 2604TIP3    H129371   0.206   2.123   1.183
 2604TIP3    H229372   0.337   2.048   1.194
 2605TIP3   OH229373   2.485   3.057   1.743
 2605TIP3    H129374   2.414   2.996   1.724
 2605TIP3    H229375   2.565   3.009   1.722
 2606TIP3   OH229376   4.777   4.929   0.977
 2606TIP3    H129377   4.805   4.871   1.048
 2606TIP3    H229378   4.836   4.908   0.905
 2607TIP3   OH229379   2.508   5.255   0.273
 2607TIP3    H129380   2.440   5.291   0.330
 2607TIP3    H229381   2.485   5.162   0.265
 2608TIP3   OH229382   5.518   2.727   0.188
 2608TIP3    H129383   5.577   2.802   0.175
 2608TIP3    H229384   5.577   2.651   0.194
 2609TIP3   OH229385   5.688   0.677   0.616
 2609TIP3    H129386   5.717   0.681   0.707
 2609TIP3    H229387   5.758   0.719   0.567
 2610TIP3   OH229388   3.902   0.195   0.293
 2610TIP3    H129389   3.809   0.190   0.317
 2610TIP3    H229390   3.947   0.146   0.361
 2611TIP3   OH229391   4.199   0.073   8.035
 2611TIP3    H129392   4.141   6.886   8.053
 2611TIP3    H229393   4.142   0.150   8.041
 2612TIP3   OH229394   4.439   3.322   0.531
 2612TIP3    H129395   4.468   3.260   0.463
 2612TIP3    H229396   4.494   3.301   0.607
 2613TIP3   OH229397   6.542   5.744   7.298
 2613TIP3    H129398   6.532   5.756   7.203
 2613TIP3    H229399   6.453   5.724   7.329
 2614TIP3   OH229400   1.824   2.478   1.447
 2614TIP3    H129401   1.761   2.531   1.496
 2614TIP3    H229402   1.815   2.507   1.357
 2615TIP3   OH229403   3.498   3.455   1.503
 2615TIP3    H129404   3.546   3.532   1.472
 2615TIP3    H229405   3.565   3.390   1.523
 2616TIP3   OH229406   1.926   2.789   7.430
 2616TIP3    H129407   1.845   2.765   7.475
 2616TIP3    H229408   1.922   2.884   7.423
 2617TIP3   OH229409   3.704   3.615   2.139
 2617TIP3    H129410   3.762   3.571   2.201
 2617TIP3    H229411   3.751   3.694   2.114
 2618TIP3   OH229412   3.959   3.945   0.500
 2618TIP3    H129413   3.972   3.928   0.407
 2618TIP3    H229414   4.014   3.880   0.544
 2619TIP3   OH229415   2.958   1.755   1.257
 2619TIP3    H129416   2.911   1.764   1.339
 2619TIP3    H229417   3.050   1.766   1.280
 2620TIP3   OH229418   5.372   2.041   0.508
 2620TIP3    H129419   5.314   2.116   0.495
 2620TIP3    H229420   5.458   2.072   0.480
 2621TIP3   OH229421   1.914   1.754   1.393
 2621TIP3    H129422   2.008   1.741   1.378
 2621TIP3    H229423   1.901   1.848   1.385
 2622TIP3   OH229424   2.483   1.087   6.693
 2622TIP3    H129425   2.559   1.102   6.638
 2622TIP3    H229426   2.469   1.171   6.737
 2623TIP3   OH229427   1.828   5.170   8.129
 2623TIP3    H129428   1.822   5.180   8.224
 2623TIP3    H229429   1.893   5.101   8.116
 2624TIP3   OH229430   1.044   6.529   7.759
 2624TIP3    H129431   0.967   6.476   7.780
 2624TIP3    H229432   1.026   6.614   7.799
 2625TIP3   OH229433   3.206   5.345   0.541
 2625TIP3    H129434   3.130   5.329   0.598
 2625TIP3    H229435   3.225   5.260   0.502
 2626TIP3   OH229436   0.186   4.144   7.936
 2626TIP3    H129437   0.244   4.106   8.002
 2626TIP3    H229438   0.197   4.087   7.859
 2627TIP3   OH229439   3.023   0.933   2.657
 2627TIP3    H129440   3.037   0.855   2.604
 2627TIP3    H229441   3.086   0.997   2.623
 2628TIP3   OH229442   5.096   3.073   0.188
 2628TIP3    H129443   5.137   2.987   0.175
 2628TIP3    H229444   5.003   3.056   0.180
 2629TIP3   OH229445   4.251   0.226   6.138
 2629TIP3    H129446   4.327   0.167   6.136
 2629TIP3    H229447   4.288   0.313   6.125
 2630TIP3   OH229448   1.334   5.640   7.397
 2630TIP3    H129449   1.362   5.665   7.485
 2630TIP3    H229450   1.239   5.633   7.402
 2631TIP3   OH229451   3.410   6.490   0.951
 2631TIP3    H129452   3.385   6.535   0.871
 2631TIP3    H229453   3.360   6.408   0.950
 2632TIP3   OH229454   0.285   1.047   8.049
 2632TIP3    H129455   0.298   1.136   8.083
 2632TIP3    H229456   0.213   1.055   7.986
 2633TIP3   OH229457   6.028   2.044   2.010
 2633TIP3    H129458   6.064   2.072   2.094
 2633TIP3    H229459   5.937   2.022   2.028
 2634TIP3   OH229460   0.686   3.704   7.046
 2634TIP3    H129461   0.648   3.703   6.958
 2634TIP3    H229462   0.707   3.796   7.062
 2635TIP3   OH229463   5.789   6.537   0.498
 2635TIP3    H129464   5.854   6.559   0.566
 2635TIP3    H229465   5.819   6.453   0.463
 2636TIP3   OH229466   1.720   6.748   8.259
 2636TIP3    H129467   1.750   6.807   8.190
 2636TIP3    H229468   1.634   6.782   8.284
 2637TIP3   OH229469   6.203   4.204   8.239
 2637TIP3    H129470   6.285   4.238   8.204
 2637TIP3    H229471   6.221   4.111   8.256
 2638TIP3   OH229472   6.616   3.731   0.350
 2638TIP3    H129473   6.588   3.649   0.391
 2638TIP3    H229474   6.538   3.761   0.302
 2639TIP3   OH229475   1.526   5.468   8.327
 2639TIP3    H129476   1.481   5.413   8.263
 2639TIP3    H229477   1.521   5.557   8.290
 2640TIP3   OH229478   6.092   2.270   1.342
 2640TIP3    H129479   6.159   2.334   1.365
 2640TIP3    H229480   6.127   2.186   1.372
 2641TIP3   OH229481   0.270   1.352   8.300
 2641TIP3    H129482   0.303   1.417   8.361
 2641TIP3    H229483   0.194   1.394   8.259
 2642TIP3   OH229484   2.464   6.688   1.627
 2642TIP3    H129485   2.521   6.757   1.594
 2642TIP3    H229486   2.449   6.712   1.719
 2643TIP3   OH229487   2.403   3.196   1.385
 2643TIP3    H129488   2.455   3.274   1.368
 2643TIP3    H229489   2.337   3.195   1.316
 2644TIP3   OH229490   3.369   6.879   6.786
 2644TIP3    H129491   3.297   6.836   6.832
 2644TIP3    H229492   3.334   0.010   6.698
 2645TIP3   OH229493   6.048   3.757   7.256
 2645TIP3    H129494   6.109   3.829   7.238
 2645TIP3    H229495   6.065   3.693   7.188
 2646TIP3   OH229496   5.837   6.014   1.125
 2646TIP3    H129497   5.758   5.972   1.159
 2646TIP3    H229498   5.837   6.101   1.166
 2647TIP3   OH229499   2.733   1.727   6.511
 2647TIP3    H129500   2.812   1.743   6.563
 2647TIP3    H229501   2.756   1.654   6.454
 2648TIP3   OH229502   0.534   3.724   1.229
 2648TIP3    H129503   0.499   3.790   1.289
 2648TIP3    H229504   0.608   3.768   1.186
 2649TIP3   OH229505   3.025   5.232   6.322
 2649TIP3    H129506   2.961   5.301   6.341
 2649TIP3    H229507   3.103   5.280   6.293
 2650TIP3   OH229508   0.234   0.951   1.637
 2650TIP3    H129509   0.303   0.910   1.689
 2650TIP3    H229510   0.272   1.035   1.610
 2651TIP3   OH229511   0.645   6.247   2.026
 2651TIP3    H129512   0.685   6.167   2.059
 2651TIP3    H229513   0.703   6.317   2.055
 2652TIP3   OH229514   3.382   1.843   0.299
 2652TIP3    H129515   3.428   1.890   0.368
 2652TIP3    H229516   3.418   1.879   0.218
 2653TIP3   OH229517   2.822   0.597   2.012
 2653TIP3    H129518   2.817   0.624   1.921
 2653TIP3    H229519   2.822   0.679   2.062
 2654TIP3   OH229520   5.869   0.457   1.313
 2654TIP3    H129521   5.935   0.391   1.293
 2654TIP3    H229522   5.914   0.540   1.303
 2655TIP3   OH229523   3.077   0.576   2.223
 2655TIP3    H129524   3.035   0.496   2.253
 2655TIP3    H229525   3.163   0.548   2.190
 2656TIP3   OH229526   4.623   1.182   7.856
 2656TIP3    H129527   4.599   1.241   7.928
 2656TIP3    H229528   4.583   1.099   7.880
 2657TIP3   OH229529   2.496   4.583   8.544
 2657TIP3    H129530   2.500   4.500   8.497
 2657TIP3    H229531   2.405   4.591   8.573
 2658TIP3   OH229532   1.978   3.357   6.929
 2658TIP3    H129533   2.033   3.375   6.853
 2658TIP3    H229534   1.953   3.444   6.961
 2659TIP3   OH229535   6.750   1.121   6.385
 2659TIP3    H129536   6.700   1.085   6.457
 2659TIP3    H229537   6.768   1.047   6.328
 2660TIP3   OH229538   0.393   2.828   0.527
 2660TIP3    H129539   0.485   2.824   0.503
 2660TIP3    H229540   0.351   2.874   0.454
 2661TIP3   OH229541   4.001   0.940   6.911
 2661TIP3    H129542   4.066   0.933   6.981
 2661TIP3    H229543   4.051   0.929   6.830
 2662TIP3   OH229544   1.380   4.581   8.020
 2662TIP3    H129545   1.467   4.569   8.058
 2662TIP3    H229546   1.345   4.492   8.013
 2663TIP3   OH229547   4.078   2.780   1.026
 2663TIP3    H129548   4.069   2.686   1.010
 2663TIP3    H229549   3.990   2.808   1.051
 2664TIP3   OH229550   5.016   6.524   2.535
 2664TIP3    H129551   5.043   6.433   2.547
 2664TIP3    H229552   4.939   6.519   2.478
 2665TIP3   OH229553   2.069   4.514   1.284
 2665TIP3    H129554   2.065   4.610   1.280
 2665TIP3    H229555   2.129   4.496   1.356
 2666TIP3   OH229556   6.633   2.788   0.576
 2666TIP3    H129557   6.652   2.841   0.497
 2666TIP3    H229558   6.597   2.706   0.542
 2667TIP3   OH229559   5.786   2.905   7.941
 2667TIP3    H129560   5.869   2.880   7.981
 2667TIP3    H229561   5.736   2.947   8.011
 2668TIP3   OH229562   2.934   1.840   8.001
 2668TIP3    H129563   2.925   1.836   8.096
 2668TIP3    H229564   2.894   1.924   7.977
 2669TIP3   OH229565   0.769   2.580   1.430
 2669TIP3    H129566   0.774   2.580   1.334
 2669TIP3    H229567   0.696   2.638   1.450
 2670TIP3   OH229568   0.285   5.718   1.647
 2670TIP3    H129569   0.238   5.801   1.653
 2670TIP3    H229570   0.216   5.653   1.634
 2671TIP3   OH229571   0.760   1.609   0.937
 2671TIP3    H129572   0.773   1.703   0.944
 2671TIP3    H229573   0.808   1.573   1.011
 2672TIP3   OH229574   6.132   3.081   1.490
 2672TIP3    H129575   6.204   3.145   1.490
 2672TIP3    H229576   6.072   3.112   1.423
 2673TIP3   OH229577   1.251   4.009   8.183
 2673TIP3    H129578   1.257   3.921   8.147
 2673TIP3    H229579   1.325   4.056   8.143
 2674TIP3   OH229580   5.931   1.327   0.639
 2674TIP3    H129581   5.971   1.414   0.643
 2674TIP3    H229582   5.844   1.338   0.676
 2675TIP3   OH229583   1.736   4.283   7.970
 2675TIP3    H129584   1.691   4.251   7.891
 2675TIP3    H229585   1.752   4.204   8.022
 2676TIP3   OH229586   4.888   3.078   8.211
 2676TIP3    H129587   4.980   3.077   8.187
 2676TIP3    H229588   4.861   2.986   8.206
 2677TIP3   OH229589   1.014   4.841   7.983
 2677TIP3    H129590   0.989   4.902   7.913
 2677TIP3    H229591   1.026   4.897   8.060
 2678TIP3   OH229592   3.349   5.077   1.232
 2678TIP3    H129593   3.315   5.164   1.252
 2678TIP3    H229594   3.364   5.078   1.137
 2679TIP3   OH229595   6.558   4.910   1.251
 2679TIP3    H129596   6.642   4.948   1.226
 2679TIP3    H229597   6.522   4.875   1.169
 2680TIP3   OH229598   3.565   6.312   0.744
 2680TIP3    H129599   3.550   6.260   0.665
 2680TIP3    H229600   3.477   6.326   0.780
 2681TIP3   OH229601   3.981   0.504   0.796
 2681TIP3    H129602   4.040   0.431   0.775
 2681TIP3    H229603   4.033   0.561   0.852
 2682TIP3   OH229604   0.228   3.575   7.418
 2682TIP3    H129605   0.274   3.520   7.482
 2682TIP3    H229606   0.294   3.595   7.352
 2683TIP3   OH229607   4.015   1.131   1.690
 2683TIP3    H129608   4.010   1.182   1.609
 2683TIP3    H229609   4.017   1.040   1.662
 2684TIP3   OH229610   2.506   2.910   7.754
 2684TIP3    H129611   2.502   2.972   7.682
 2684TIP3    H229612   2.420   2.915   7.795
 2685TIP3   OH229613   0.266   1.389   1.008
 2685TIP3    H129614   0.346   1.440   0.995
 2685TIP3    H229615   0.210   1.413   0.934
 2686TIP3   OH229616   6.598   2.807   1.168
 2686TIP3    H129617   6.611   2.717   1.140
 2686TIP3    H229618   6.683   2.835   1.202
 2687TIP3   OH229619   1.704   0.949   7.998
 2687TIP3    H129620   1.791   0.942   8.036
 2687TIP3    H229621   1.718   0.937   7.904
 2688TIP3   OH229622   3.853   1.533   1.622
 2688TIP3    H129623   3.948   1.524   1.628
 2688TIP3    H229624   3.839   1.612   1.571
 2689TIP3   OH229625   4.492   3.714   6.969
 2689TIP3    H129626   4.526   3.744   7.053
 2689TIP3    H229627   4.425   3.779   6.946
 2690TIP3   OH229628   1.501   1.394   7.322
 2690TIP3    H129629   1.495   1.466   7.259
 2690TIP3    H229630   1.534   1.434   7.402
 2691TIP3   OH229631   0.999   5.227   7.257
 2691TIP3    H129632   1.069   5.171   7.226
 2691TIP3    H229633   0.992   5.296   7.191
 2692TIP3   OH229634   1.619   0.511   1.174
 2692TIP3    H129635   1.541   0.474   1.133
 2692TIP3    H229636   1.610   0.606   1.161
 2693TIP3   OH229637   1.958   0.016   8.566
 2693TIP3    H129638   1.985   6.871   8.480
 2693TIP3    H229639   1.863   0.002   8.568
 2694TIP3   OH229640   3.253   4.742   8.535
 2694TIP3    H129641   3.231   4.744   0.014
 2694TIP3    H229642   3.344   4.712   8.533
 2695TIP3   OH229643   3.397   5.049   0.964
 2695TIP3    H129644   3.357   4.962   0.972
 2695TIP3    H229645   3.365   5.082   0.879
 2696TIP3   OH229646   4.426   2.987   1.385
 2696TIP3    H129647   4.378   2.910   1.416
 2696TIP3    H229648   4.476   2.955   1.310
 2697TIP3   OH229649   3.839   0.397   8.229
 2697TIP3    H129650   3.846   0.439   8.315
 2697TIP3    H229651   3.790   0.459   8.175
 2698TIP3   OH229652   3.392   5.010   1.989
 2698TIP3    H129653   3.421   5.099   2.010
 2698TIP3    H229654   3.352   5.018   1.902
 2699TIP3   OH229655   1.538   3.525   1.641
 2699TIP3    H129656   1.601   3.520   1.569
 2699TIP3    H229657   1.589   3.506   1.720
 2700TIP3   OH229658   5.306   2.812   7.255
 2700TIP3    H129659   5.359   2.883   7.216
 2700TIP3    H229660   5.290   2.842   7.345
 2701TIP3   OH229661   6.300   1.708   6.471
 2701TIP3    H129662   6.276   1.800   6.480
 2701TIP3    H229663   6.378   1.708   6.415
 2702TIP3   OH229664   5.931   6.498   7.654
 2702TIP3    H129665   5.970   6.487   7.567
 2702TIP3    H229666   5.901   6.589   7.655
 2703TIP3   OH229667   1.525   1.824   0.834
 2703TIP3    H129668   1.519   1.832   0.738
 2703TIP3    H229669   1.453   1.877   0.867
 2704TIP3   OH229670   0.724   3.527   8.609
 2704TIP3    H129671   0.668   3.602   0.015
 2704TIP3    H229672   0.663   3.455   8.591
 2705TIP3   OH229673   4.617   4.483   1.108
 2705TIP3    H129674   4.625   4.430   1.029
 2705TIP3    H229675   4.527   4.471   1.137
 2706TIP3   OH229676   0.490   4.729   7.630
 2706TIP3    H129677   0.470   4.636   7.646
 2706TIP3    H229678   0.560   4.727   7.564
 2707TIP3   OH229679   3.470   1.590   1.272
 2707TIP3    H129680   3.392   1.646   1.282
 2707TIP3    H229681   3.509   1.589   1.359
 2708TIP3   OH229682   5.156   6.241   7.432
 2708TIP3    H129683   5.161   6.225   7.337
 2708TIP3    H229684   5.224   6.306   7.449
 2709TIP3   OH229685   2.944   6.345   0.440
 2709TIP3    H129686   2.940   6.253   0.413
 2709TIP3    H229687   3.001   6.386   0.375
 2710TIP3   OH229688   5.108   2.350   7.121
 2710TIP3    H129689   5.131   2.435   7.159
 2710TIP3    H229690   5.103   2.367   7.027
 2711TIP3   OH229691   4.466   5.494   2.278
 2711TIP3    H129692   4.441   5.502   2.186
 2711TIP3    H229693   4.424   5.568   2.321
 2712TIP3   OH229694   5.936   5.627   2.129
 2712TIP3    H129695   5.945   5.684   2.205
 2712TIP3    H229696   5.871   5.562   2.155
 2713TIP3   OH229697   4.695   3.116   0.250
 2713TIP3    H129698   4.608   3.136   0.216
 2713TIP3    H229699   4.733   3.057   0.184
 2714TIP3   OH229700   2.323   4.751   7.493
 2714TIP3    H129701   2.231   4.766   7.514
 2714TIP3    H229702   2.340   4.808   7.418
 2715TIP3   OH229703   1.285   0.364   7.689
 2715TIP3    H129704   1.300   0.320   7.605
 2715TIP3    H229705   1.194   0.343   7.711
 2716TIP3   OH229706   6.303   5.369   2.055
 2716TIP3    H129707   6.285   5.415   2.137
 2716TIP3    H229708   6.396   5.345   2.061
 2717TIP3   OH229709   5.611   5.605   1.265
 2717TIP3    H129710   5.692   5.596   1.215
 2717TIP3    H229711   5.639   5.609   1.356
 2718TIP3   OH229712   3.752   2.376   7.774
 2718TIP3    H129713   3.663   2.407   7.789
 2718TIP3    H229714   3.801   2.455   7.749
 2719TIP3   OH229715   2.008   0.853   8.459
 2719TIP3    H129716   1.915   0.865   8.476
 2719TIP3    H229717   2.027   0.766   8.492
 2720TIP3   OH229718   5.990   0.849   1.842
 2720TIP3    H129719   6.019   0.935   1.871
 2720TIP3    H229720   6.000   0.793   1.919
 2721TIP3   OH229721   3.248   2.896   8.302
 2721TIP3    H129722   3.161   2.927   8.278
 2721TIP3    H229723   3.258   2.815   8.251
 2722TIP3   OH229724   1.285   6.286   0.445
 2722TIP3    H129725   1.370   6.263   0.483
 2722TIP3    H229726   1.249   6.203   0.415
 2723TIP3   OH229727   4.472   5.741   7.743
 2723TIP3    H129728   4.471   5.647   7.764
 2723TIP3    H229729   4.470   5.784   7.829
 2724TIP3   OH229730   3.044   6.244   7.950
 2724TIP3    H129731   2.961   6.277   7.916
 2724TIP3    H229732   3.025   6.219   8.040
 2725TIP3   OH229733   2.222   0.794   0.383
 2725TIP3    H129734   2.203   0.809   0.476
 2725TIP3    H229735   2.286   0.863   0.361
 2726TIP3   OH229736   5.442   3.827   7.938
 2726TIP3    H129737   5.439   3.896   7.871
 2726TIP3    H229738   5.360   3.837   7.987
 2727TIP3   OH229739   4.176   4.300   6.619
 2727TIP3    H129740   4.093   4.334   6.653
 2727TIP3    H229741   4.226   4.379   6.595
 2728TIP3   OH229742   5.263   0.393   0.684
 2728TIP3    H129743   5.214   0.334   0.627
 2728TIP3    H229744   5.218   0.477   0.677
 2729TIP3   OH229745   4.293   2.247   2.176
 2729TIP3    H129746   4.207   2.256   2.218
 2729TIP3    H229747   4.274   2.223   2.085
 2730TIP3   OH229748   0.826   0.365   0.289
 2730TIP3    H129749   0.839   0.347   0.382
 2730TIP3    H229750   0.878   0.443   0.272
 2731TIP3   OH229751   6.571   5.333   7.561
 2731TIP3    H129752   6.625   5.254   7.566
 2731TIP3    H229753   6.622   5.401   7.604
 2732TIP3   OH229754   2.675   2.196   7.650
 2732TIP3    H129755   2.746   2.260   7.656
 2732TIP3    H229756   2.595   2.248   7.654
 2733TIP3   OH229757   3.924   3.392   1.161
 2733TIP3    H129758   3.886   3.391   1.249
 2733TIP3    H229759   4.009   3.435   1.173
 2734TIP3   OH229760   2.514   2.839   8.133
 2734TIP3    H129761   2.424   2.809   8.149
 2734TIP3    H229762   2.509   2.934   8.138
 2735TIP3   OH229763   3.254   0.623   8.544
 2735TIP3    H129764   3.198   0.657   8.474
 2735TIP3    H229765   3.210   0.544   8.575
 2736TIP3   OH229766   4.211   4.506   0.124
 2736TIP3    H129767   4.176   4.595   0.117
 2736TIP3    H229768   4.186   4.464   0.041
 2737TIP3   OH229769   4.897   3.467   8.440
 2737TIP3    H129770   4.856   3.547   8.474
 2737TIP3    H229771   4.870   3.398   8.500
 2738TIP3   OH229772   1.204   3.378   0.958
 2738TIP3    H129773   1.237   3.374   0.868
 2738TIP3    H229774   1.110   3.394   0.948
 2739TIP3   OH229775   6.700   1.957   0.409
 2739TIP3    H129776   6.636   1.971   0.339
 2739TIP3    H229777   6.687   1.865   0.434
 2740TIP3   OH229778   6.090   0.265   1.800
 2740TIP3    H129779   6.166   0.260   1.742
 2740TIP3    H229780   6.029   0.322   1.754
 2741TIP3   OH229781   2.263   3.633   7.967
 2741TIP3    H129782   2.328   3.673   8.024
 2741TIP3    H229783   2.238   3.552   8.013
 2742TIP3   OH229784   5.276   3.078   0.423
 2742TIP3    H129785   5.349   3.066   0.362
 2742TIP3    H229786   5.206   3.115   0.369
 2743TIP3   OH229787   3.232   4.954   6.425
 2743TIP3    H129788   3.325   4.960   6.448
 2743TIP3    H229789   3.202   5.045   6.422
 2744TIP3   OH229790   4.541   3.234   7.806
 2744TIP3    H129791   4.628   3.220   7.767
 2744TIP3    H229792   4.558   3.290   7.882
 2745TIP3   OH229793   0.774   4.406   8.437
 2745TIP3    H129794   0.767   4.399   8.532
 2745TIP3    H229795   0.846   4.347   8.414
 2746TIP3   OH229796   0.613   2.833   8.021
 2746TIP3    H129797   0.545   2.894   7.992
 2746TIP3    H229798   0.672   2.824   7.946
 2747TIP3   OH229799   6.320   6.229   2.657
 2747TIP3    H129800   6.249   6.229   2.721
 2747TIP3    H229801   6.386   6.171   2.695
 2748TIP3   OH229802   5.931   1.023   8.407
 2748TIP3    H129803   5.840   0.998   8.393
 2748TIP3    H229804   5.957   0.977   8.487
 2749TIP3   OH229805   3.663   2.925   0.888
 2749TIP3    H129806   3.672   2.965   0.975
 2749TIP3    H229807   3.740   2.955   0.839
 2750TIP3   OH229808   1.691   5.978   1.352
 2750TIP3    H129809   1.697   5.976   1.447
 2750TIP3    H229810   1.773   5.939   1.322
 2751TIP3   OH229811   6.125   2.506   0.907
 2751TIP3    H129812   6.163   2.587   0.941
 2751TIP3    H229813   6.070   2.473   0.978
 2752TIP3   OH229814   6.789   4.439   8.571
 2752TIP3    H129815   6.818   4.474   8.487
 2752TIP3    H229816   6.813   4.506   0.021
 2753TIP3   OH229817   2.365   5.876   7.312
 2753TIP3    H129818   2.337   5.796   7.267
 2753TIP3    H229819   2.446   5.901   7.267
 2754TIP3   OH229820   5.851   0.289   2.514
 2754TIP3    H129821   5.913   0.232   2.469
 2754TIP3    H229822   5.870   0.377   2.480
 2755TIP3   OH229823   5.808   2.423   0.618
 2755TIP3    H129824   5.798   2.496   0.679
 2755TIP3    H229825   5.871   2.454   0.553
 2756TIP3   OH229826   5.086   3.343   0.410
 2756TIP3    H129827   5.033   3.416   0.443
 2756TIP3    H229828   5.093   3.283   0.485
 2757TIP3   OH229829   4.364   6.106   0.583
 2757TIP3    H129830   4.354   6.082   0.675
 2757TIP3    H229831   4.458   6.114   0.570
 2758TIP3   OH229832   1.616   5.788   7.419
 2758TIP3    H129833   1.543   5.848   7.436
 2758TIP3    H229834   1.629   5.742   7.502
 2759TIP3   OH229835   4.528   3.465   0.026
 2759TIP3    H129836   4.465   3.535   0.045
 2759TIP3    H229837   4.481   3.385   0.048
 2760TIP3   OH229838   5.862   5.668   1.455
 2760TIP3    H129839   5.906   5.588   1.485
 2760TIP3    H229840   5.775   5.664   1.494
 2761TIP3   OH229841   1.611   6.392   6.724
 2761TIP3    H129842   1.665   6.372   6.801
 2761TIP3    H229843   1.553   6.463   6.753
 2762TIP3   OH229844   5.444   3.813   0.110
 2762TIP3    H129845   5.373   3.855   0.063
 2762TIP3    H229846   5.522   3.864   0.087
 2763TIP3   OH229847   2.933   6.582   7.495
 2763TIP3    H129848   2.843   6.609   7.478
 2763TIP3    H229849   2.977   6.592   7.411
 2764TIP3   OH229850   3.604   2.148   0.840
 2764TIP3    H129851   3.546   2.075   0.861
 2764TIP3    H229852   3.690   2.121   0.874
 2765TIP3   OH229853   1.429   6.163   0.927
 2765TIP3    H129854   1.508   6.216   0.939
 2765TIP3    H229855   1.371   6.218   0.874
 2766TIP3   OH229856   2.107   0.674   8.182
 2766TIP3    H129857   2.155   0.756   8.173
 2766TIP3    H229858   2.034   0.694   8.241
 2767TIP3   OH229859   0.111   2.333   0.623
 2767TIP3    H129860   0.185   2.360   0.568
 2767TIP3    H229861   0.053   2.287   0.563
 2768TIP3   OH229862   1.524   6.039   7.253
 2768TIP3    H129863   1.463   6.109   7.231
 2768TIP3    H229864   1.610   6.079   7.245
 2769TIP3   OH229865   3.399   0.538   6.814
 2769TIP3    H129866   3.400   0.517   6.721
 2769TIP3    H229867   3.315   0.583   6.828
 2770TIP3   OH229868   3.935   0.251   6.428
 2770TIP3    H129869   3.849   0.248   6.385
 2770TIP3    H229870   3.916   0.265   6.520
 2771TIP3   OH229871   3.035   0.796   0.848
 2771TIP3    H129872   3.079   0.815   0.930
 2771TIP3    H229873   2.943   0.815   0.865
 2772TIP3   OH229874   1.684   3.439   0.194
 2772TIP3    H129875   1.606   3.422   0.140
 2772TIP3    H229876   1.757   3.403   0.143
 2773TIP3   OH229877   3.952   0.298   1.611
 2773TIP3    H129878   3.913   0.382   1.586
 2773TIP3    H229879   3.917   0.236   1.548
 2774TIP3   OH229880   4.819   0.930   7.743
 2774TIP3    H129881   4.743   0.975   7.707
 2774TIP3    H229882   4.785   0.880   7.816
 2775TIP3   OH229883   2.169   6.400   7.194
 2775TIP3    H129884   2.120   6.394   7.275
 2775TIP3    H229885   2.189   6.310   7.170
 2776TIP3   OH229886   3.574   3.161   7.108
 2776TIP3    H129887   3.489   3.199   7.085
 2776TIP3    H229888   3.626   3.236   7.138
 2777TIP3   OH229889   3.090   5.577   2.038
 2777TIP3    H129890   3.174   5.532   2.049
 2777TIP3    H229891   3.108   5.667   2.065
 2778TIP3   OH229892   4.819   3.988   0.512
 2778TIP3    H129893   4.854   4.074   0.486
 2778TIP3    H229894   4.883   3.954   0.574
 2779TIP3   OH229895   3.068   0.415   0.045
 2779TIP3    H129896   2.977   0.417   0.017
 2779TIP3    H229897   3.073   0.339   0.103
 2780TIP3   OH229898   1.959   4.032   2.356
 2780TIP3    H129899   2.022   4.102   2.335
 2780TIP3    H229900   1.937   4.047   2.447
 2781TIP3   OH229901   5.763   4.767   0.596
 2781TIP3    H129902   5.751   4.859   0.574
 2781TIP3    H229903   5.857   4.756   0.609
 2782TIP3   OH229904   4.996   1.437   1.221
 2782TIP3    H129905   4.966   1.422   1.311
 2782TIP3    H229906   4.969   1.527   1.201
 2783TIP3   OH229907   4.777   6.822   1.804
 2783TIP3    H129908   4.681   6.820   1.811
 2783TIP3    H229909   4.801   0.023   1.830
 2784TIP3   OH229910   5.672   5.763   0.276
 2784TIP3    H129911   5.735   5.720   0.334
 2784TIP3    H229912   5.723   5.787   0.199
 2785TIP3   OH229913   3.807   0.683   1.065
 2785TIP3    H129914   3.722   0.701   1.105
 2785TIP3    H229915   3.865   0.665   1.139
 2786TIP3   OH229916   3.886   0.537   6.219
 2786TIP3    H129917   3.940   0.616   6.212
 2786TIP3    H229918   3.802   0.569   6.252
 2787TIP3   OH229919   6.200   0.726   0.060
 2787TIP3    H129920   6.151   0.650   0.092
 2787TIP3    H229921   6.264   0.743   0.130
 2788TIP3   OH229922   4.757   0.144   2.461
 2788TIP3    H129923   4.687   0.099   2.414
 2788TIP3    H229924   4.815   0.177   2.393
 2789TIP3   OH229925   2.051   4.821   2.385
 2789TIP3    H129926   2.085   4.819   2.295
 2789TIP3    H229927   2.110   4.764   2.434
 2790TIP3   OH229928   3.091   0.157   0.180
 2790TIP3    H129929   3.035   0.177   0.255
 2790TIP3    H229930   3.042   0.093   0.128
 2791TIP3   OH229931   1.314   1.748   6.252
 2791TIP3    H129932   1.358   1.665   6.269
 2791TIP3    H229933   1.275   1.738   6.165
 2792TIP3   OH229934   5.734   6.403   1.173
 2792TIP3    H129935   5.689   6.461   1.111
 2792TIP3    H229936   5.667   6.342   1.202
 2793TIP3   OH229937   4.497   6.859   7.786
 2793TIP3    H129938   4.553   6.835   7.712
 2793TIP3    H229939   4.492   6.779   7.839
 2794TIP3   OH229940   3.013   1.932   8.458
 2794TIP3    H129941   2.941   1.980   8.499
 2794TIP3    H229942   2.994   1.840   8.475
 2795TIP3   OH229943   6.164   5.465   6.844
 2795TIP3    H129944   6.155   5.441   6.752
 2795TIP3    H229945   6.247   5.513   6.848
 2796TIP3   OH229946   0.511   2.870   1.991
 2796TIP3    H129947   0.544   2.960   1.981
 2796TIP3    H229948   0.587   2.814   1.977
 2797TIP3   OH229949   4.857   5.711   1.066
 2797TIP3    H129950   4.848   5.620   1.094
 2797TIP3    H229951   4.893   5.756   1.143
 2798TIP3   OH229952   2.933   0.901   8.559
 2798TIP3    H129953   3.020   0.867   8.579
 2798TIP3    H229954   2.879   0.872   0.019
 2799TIP3   OH229955   1.681   5.118   1.141
 2799TIP3    H129956   1.746   5.055   1.173
 2799TIP3    H229957   1.715   5.145   1.055
 2800TIP3   OH229958   6.349   3.886   7.988
 2800TIP3    H129959   6.312   3.952   7.929
 2800TIP3    H229960   6.359   3.932   8.071
 2801TIP3   OH229961   0.840   3.003   0.650
 2801TIP3    H129962   0.749   3.020   0.676
 2801TIP3    H229963   0.865   3.082   0.601
 2802TIP3   OH229964   1.429   3.010   8.321
 2802TIP3    H129965   1.387   3.077   8.374
 2802TIP3    H229966   1.521   3.036   8.318
 2803TIP3   OH229967   3.545   5.133   8.458
 2803TIP3    H129968   3.457   5.096   8.464
 2803TIP3    H229969   3.596   5.083   8.522
 2804TIP3   OH229970   6.698   2.792   1.520
 2804TIP3    H129971   6.784   2.792   1.478
 2804TIP3    H229972   6.705   2.726   1.588
 2805TIP3   OH229973   2.797   3.398   8.464
 2805TIP3    H129974   2.783   3.493   8.457
 2805TIP3    H229975   2.822   3.385   8.556
 2806TIP3   OH229976   2.074   3.997   2.021
 2806TIP3    H129977   2.047   4.006   1.930
 2806TIP3    H229978   2.016   4.055   2.070
 2807TIP3   OH229979   6.229   3.932   8.293
 2807TIP3    H129980   6.316   3.897   8.309
 2807TIP3    H229981   6.181   3.917   8.375
 2808TIP3   OH229982   6.342   5.665   8.393
 2808TIP3    H129983   6.362   5.616   8.313
 2808TIP3    H229984   6.414   5.728   8.400
 2809TIP3   OH229985   4.921   1.379   0.850
 2809TIP3    H129986   4.847   1.362   0.792
 2809TIP3    H229987   4.940   1.294   0.890
 2810TIP3   OH229988   4.760   0.957   8.119
 2810TIP3    H129989   4.825   1.021   8.147
 2810TIP3    H229990   4.801   0.910   8.047
 2811TIP3   OH229991   4.513   2.021   8.470
 2811TIP3    H129992   4.448   1.959   8.502
 2811TIP3    H229993   4.491   2.035   8.378
 2812TIP3   OH229994   5.452   1.451   1.097
 2812TIP3    H129995   5.357   1.453   1.088
 2812TIP3    H229996   5.480   1.542   1.083
 2813TIP3   OH229997   6.300   4.796   1.530
 2813TIP3    H129998   6.256   4.828   1.451
 2813TIP3    H229999   6.318   4.875   1.581
 2814TIP3   OH230000   0.654   5.510   7.454
 2814TIP3    H130001   0.697   5.554   7.380
 2814TIP3    H230002   0.716   5.442   7.481
 2815TIP3   OH230003   1.429   6.513   0.661
 2815TIP3    H130004   1.439   6.467   0.578
 2815TIP3    H230005   1.452   6.603   0.642
 2816TIP3   OH230006   5.676   0.300   1.484
 2816TIP3    H130007   5.716   0.242   1.419
 2816TIP3    H230008   5.630   0.240   1.544
 2817TIP3   OH230009   2.693   0.683   1.450
 2817TIP3    H130010   2.628   0.710   1.514
 2817TIP3    H230011   2.752   0.758   1.442
 2818TIP3   OH230012   5.502   6.687   1.891
 2818TIP3    H130013   5.585   6.668   1.933
 2818TIP3    H230014   5.455   6.603   1.893
 2819TIP3   OH230015   6.819   2.149   0.933
 2819TIP3    H130016   6.737   2.100   0.918
 2819TIP3    H230017   6.817   2.170   1.026
 2820TIP3   OH230018   5.722   5.044   7.155
 2820TIP3    H130019   5.710   5.038   7.250
 2820TIP3    H230020   5.634   5.051   7.120
 2821TIP3   OH230021   2.585   4.341   1.207
 2821TIP3    H130022   2.510   4.289   1.180
 2821TIP3    H230023   2.644   4.338   1.131
 2822TIP3   OH230024   4.648   0.175   8.134
 2822TIP3    H130025   4.660   0.214   8.047
 2822TIP3    H230026   4.554   0.176   8.148
 2823TIP3   OH230027   4.027   3.442   7.512
 2823TIP3    H130028   3.997   3.467   7.425
 2823TIP3    H230029   4.097   3.504   7.532
 2824TIP3   OH230030   0.975   5.471   8.472
 2824TIP3    H130031   0.916   5.500   8.542
 2824TIP3    H230032   1.063   5.481   8.510
 2825TIP3   OH230033   2.150   4.766   1.443
 2825TIP3    H130034   2.201   4.726   1.513
 2825TIP3    H230035   2.060   4.767   1.477
 2826TIP3   OH230036   3.625   2.685   2.236
 2826TIP3    H130037   3.714   2.666   2.264
 2826TIP3    H230038   3.578   2.704   2.318
 2827TIP3   OH230039   4.034   4.056   6.603
 2827TIP3    H130040   4.052   4.006   6.524
 2827TIP3    H230041   4.077   4.140   6.589
 2828TIP3   OH230042   1.895   2.338   0.228
 2828TIP3    H130043   1.904   2.313   0.320
 2828TIP3    H230044   1.941   2.421   0.221
 2829TIP3   OH230045   4.124   0.973   6.384
 2829TIP3    H130046   4.154   1.031   6.454
 2829TIP3    H230047   4.202   0.957   6.331
 2830TIP3   OH230048   6.453   5.696   0.173
 2830TIP3    H130049   6.489   5.675   0.259
 2830TIP3    H230050   6.463   5.791   0.166
 2831TIP3   OH230051   4.993   0.722   7.677
 2831TIP3    H130052   4.964   0.693   7.591
 2831TIP3    H230053   4.919   0.771   7.712
 2832TIP3   OH230054   4.443   3.203   0.108
 2832TIP3    H130055   4.421   3.147   0.033
 2832TIP3    H230056   4.364   3.202   0.162
 2833TIP3   OH230057   1.145   4.490   7.305
 2833TIP3    H130058   1.190   4.559   7.354
 2833TIP3    H230059   1.073   4.535   7.262
 2834TIP3   OH230060   2.259   1.270   1.982
 2834TIP3    H130061   2.243   1.325   2.059
 2834TIP3    H230062   2.347   1.235   1.995
 2835TIP3   OH230063   0.416   3.117   0.456
 2835TIP3    H130064   0.384   3.065   0.382
 2835TIP3    H230065   0.338   3.159   0.492
 2836TIP3   OH230066   4.963   3.814   8.174
 2836TIP3    H130067   4.909   3.766   8.237
 2836TIP3    H230068   4.957   3.762   8.093
 2837TIP3   OH230069   3.388   5.780   8.537
 2837TIP3    H130070   3.476   5.797   8.502
 2837TIP3    H230071   3.333   5.847   8.496
 2838TIP3   OH230072   2.309   4.847   7.228
 2838TIP3    H130073   2.329   4.771   7.174
 2838TIP3    H230074   2.217   4.865   7.210
 2839TIP3   OH230075   4.928   4.602   1.613
 2839TIP3    H130076   4.937   4.597   1.709
 2839TIP3    H230077   4.842   4.641   1.599
 2840TIP3   OH230078   0.659   4.960   1.121
 2840TIP3    H130079   0.746   4.935   1.152
 2840TIP3    H230080   0.661   5.056   1.122
 2841TIP3   OH230081   4.280   1.602   0.338
 2841TIP3    H130082   4.273   1.547   0.416
 2841TIP3    H230083   4.230   1.681   0.360
 2842TIP3   OH230084   6.044   3.946   8.062
 2842TIP3    H130085   6.094   3.956   8.143
 2842TIP3    H230086   5.953   3.941   8.091
 2843TIP3   OH230087   4.203   0.885   1.802
 2843TIP3    H130088   4.271   0.953   1.806
 2843TIP3    H230089   4.190   0.869   1.708
 2844TIP3   OH230090   5.979   2.840   0.903
 2844TIP3    H130091   6.008   2.927   0.875
 2844TIP3    H230092   6.032   2.821   0.981
 2845TIP3   OH230093   3.234   2.027   8.605
 2845TIP3    H130094   3.322   2.035   8.568
 2845TIP3    H230095   3.177   2.014   8.529
 2846TIP3   OH230096   2.668   2.362   0.008
 2846TIP3    H130097   2.630   2.357   8.534
 2846TIP3    H230098   2.676   2.270   0.036
 2847TIP3   OH230099   3.222   3.921   6.455
 2847TIP3    H130100   3.149   3.962   6.409
 2847TIP3    H230101   3.276   3.995   6.484
 2848TIP3   OH230102   0.203   1.737   7.657
 2848TIP3    H130103   0.270   1.779   7.711
 2848TIP3    H230104   0.156   1.680   7.717
 2849TIP3   OH230105   6.238   5.208   1.835
 2849TIP3    H130106   6.262   5.253   1.916
 2849TIP3    H230107   6.177   5.268   1.792
 2850TIP3   OH230108   0.945   5.261   2.436
 2850TIP3    H130109   0.861   5.307   2.443
 2850TIP3    H230110   0.922   5.169   2.448
 2851TIP3   OH230111   4.755   5.089   6.759
 2851TIP3    H130112   4.850   5.094   6.768
 2851TIP3    H230113   4.722   5.098   6.848
 2852TIP3   OH230114   5.697   3.533   0.603
 2852TIP3    H130115   5.792   3.536   0.588
 2852TIP3    H230116   5.681   3.444   0.634
 2853TIP3   OH230117   2.710   0.331   7.398
 2853TIP3    H130118   2.681   0.280   7.322
 2853TIP3    H230119   2.732   0.266   7.464
 2854TIP3   OH230120   6.580   6.830   8.070
 2854TIP3    H130121   6.554   6.824   7.978
 2854TIP3    H230122   6.649   6.765   8.079
 2855TIP3   OH230123   6.453   3.244   7.079
 2855TIP3    H130124   6.505   3.228   7.000
 2855TIP3    H230125   6.399   3.319   7.057
 2856TIP3   OH230126   0.684   4.839   7.063
 2856TIP3    H130127   0.737   4.825   6.985
 2856TIP3    H230128   0.741   4.888   7.122
 2857TIP3   OH230129   2.603   2.414   1.599
 2857TIP3    H130130   2.631   2.463   1.676
 2857TIP3    H230131   2.620   2.322   1.622
 2858TIP3   OH230132   3.297   6.879   1.084
 2858TIP3    H130133   3.378   6.828   1.080
 2858TIP3    H230134   3.240   6.829   1.143
 2859TIP3   OH230135   2.465   4.513   7.638
 2859TIP3    H130136   2.436   4.522   7.729
 2859TIP3    H230137   2.404   4.567   7.588
 2860TIP3   OH230138   2.417   3.997   0.928
 2860TIP3    H130139   2.474   3.977   0.853
 2860TIP3    H230140   2.437   3.929   0.992
 2861TIP3   OH230141   1.191   5.054   2.062
 2861TIP3    H130142   1.242   5.079   2.140
 2861TIP3    H230143   1.110   5.017   2.098
 2862TIP3   OH230144   4.910   6.520   0.175
 2862TIP3    H130145   4.945   6.608   0.160
 2862TIP3    H230146   4.820   6.534   0.202
 2863TIP3   OH230147   5.367   5.342   1.958
 2863TIP3    H130148   5.348   5.435   1.951
 2863TIP3    H230149   5.441   5.336   2.018
 2864TIP3   OH230150   3.674   5.372   0.371
 2864TIP3    H130151   3.770   5.375   0.367
 2864TIP3    H230152   3.645   5.448   0.320
 2865TIP3   OH230153   3.580   1.043   0.811
 2865TIP3    H130154   3.662   1.028   0.857
 2865TIP3    H230155   3.566   0.965   0.759
 2866TIP3   OH230156   5.404   2.266   2.268
 2866TIP3    H130157   5.424   2.291   2.358
 2866TIP3    H230158   5.315   2.299   2.253
 2867TIP3   OH230159   6.196   0.263   1.523
 2867TIP3    H130160   6.111   0.272   1.481
 2867TIP3    H230161   6.240   0.346   1.506
 2868TIP3   OH230162   5.546   4.516   2.354
 2868TIP3    H130163   5.527   4.610   2.347
 2868TIP3    H230164   5.461   4.476   2.375
 2869TIP3   OH230165   3.036   5.776   8.551
 2869TIP3    H130166   3.119   5.728   8.544
 2869TIP3    H230167   3.020   5.781   0.031
 2870TIP3   OH230168   0.210   2.859   0.973
 2870TIP3    H130169   0.163   2.847   0.890
 2870TIP3    H230170   0.215   2.772   1.011
 2871TIP3   OH230171   2.123   6.233   1.748
 2871TIP3    H130172   2.096   6.296   1.815
 2871TIP3    H230173   2.168   6.164   1.796
 2872TIP3   OH230174   6.580   2.683   8.476
 2872TIP3    H130175   6.613   2.715   8.559
 2872TIP3    H230176   6.622   2.738   8.410
 2873TIP3   OH230177   3.782   1.740   1.444
 2873TIP3    H130178   3.731   1.818   1.468
 2873TIP3    H230179   3.851   1.773   1.386
 2874TIP3   OH230180   1.252   1.335   0.234
 2874TIP3    H130181   1.293   1.410   0.191
 2874TIP3    H230182   1.293   1.332   0.320
 2875TIP3   OH230183   0.210   1.430   1.271
 2875TIP3    H130184   0.138   1.369   1.287
 2875TIP3    H230185   0.250   1.399   1.189
 2876TIP3   OH230186   3.984   3.960   0.222
 2876TIP3    H130187   4.015   3.877   0.187
 2876TIP3    H230188   3.947   4.005   0.146
 2877TIP3   OH230189   6.057   6.601   0.671
 2877TIP3    H130190   6.076   6.515   0.634
 2877TIP3    H230191   6.127   6.617   0.734
 2878TIP3   OH230192   5.415   6.724   6.340
 2878TIP3    H130193   5.508   6.745   6.348
 2878TIP3    H230194   5.376   6.760   6.420
 2879TIP3   OH230195   5.049   5.187   8.552
 2879TIP3    H130196   4.965   5.173   8.596
 2879TIP3    H230197   5.046   5.129   8.476
 2880TIP3   OH230198   0.972   3.512   1.985
 2880TIP3    H130199   0.946   3.604   1.979
 2880TIP3    H230200   1.044   3.503   1.922
 2881TIP3   OH230201   4.325   6.294   7.528
 2881TIP3    H130202   4.236   6.280   7.561
 2881TIP3    H230203   4.313   6.342   7.446
 2882TIP3   OH230204   6.188   2.503   1.615
 2882TIP3    H130205   6.272   2.462   1.595
 2882TIP3    H230206   6.210   2.591   1.644
 2883TIP3   OH230207   2.663   1.129   0.774
 2883TIP3    H130208   2.626   1.172   0.852
 2883TIP3    H230209   2.755   1.154   0.774
 2884TIP3   OH230210   6.342   0.882   6.946
 2884TIP3    H130211   6.421   0.916   6.905
 2884TIP3    H230212   6.296   0.836   6.875
 2885TIP3   OH230213   2.880   0.163   1.977
 2885TIP3    H130214   2.898   0.095   2.041
 2885TIP3    H230215   2.800   0.134   1.933
 2886TIP3   OH230216   1.384   2.714   0.202
 2886TIP3    H130217   1.339   2.642   0.158
 2886TIP3    H230218   1.422   2.765   0.130
 2887TIP3   OH230219   0.557   0.443   8.423
 2887TIP3    H130220   0.614   0.508   8.382
 2887TIP3    H230221   0.484   0.494   8.458
 2888TIP3   OH230222   4.635   4.089   1.615
 2888TIP3    H130223   4.625   4.183   1.621
 2888TIP3    H230224   4.555   4.053   1.653
 2889TIP3   OH230225   2.810   1.825   8.248
 2889TIP3    H130226   2.894   1.782   8.267
 2889TIP3    H230227   2.755   1.800   8.322
 2890TIP3   OH230228   6.866   0.695   1.599
 2890TIP3    H130229   6.864   0.730   1.688
 2890TIP3    H230230   0.058   0.733   1.561
 2891TIP3   OH230231   4.893   4.080   2.293
 2891TIP3    H130232   4.883   4.005   2.351
 2891TIP3    H230233   4.882   4.156   2.351
 2892TIP3   OH230234   1.080   0.329   6.000
 2892TIP3    H130235   1.151   0.270   6.026
 2892TIP3    H230236   1.120   0.415   5.997
 2893TIP3   OH230237   4.288   2.266   0.534
 2893TIP3    H130238   4.348   2.297   0.465
 2893TIP3    H230239   4.260   2.180   0.505
 2894TIP3   OH230240   3.395   4.393   1.276
 2894TIP3    H130241   3.399   4.442   1.358
 2894TIP3    H230242   3.311   4.346   1.282
 2895TIP3   OH230243   6.640   2.688   1.796
 2895TIP3    H130244   6.667   2.779   1.807
 2895TIP3    H230245   6.579   2.673   1.868
 2896TIP3   OH230246   3.447   2.694   7.445
 2896TIP3    H130247   3.478   2.773   7.489
 2896TIP3    H230248   3.380   2.725   7.384
 2897TIP3   OH230249   0.564   5.029   7.434
 2897TIP3    H130250   0.475   5.007   7.407
 2897TIP3    H230251   0.619   4.966   7.388
 2898TIP3   OH230252   5.885   5.354   6.586
 2898TIP3    H130253   5.800   5.369   6.545
 2898TIP3    H230254   5.869   5.283   6.648
 2899TIP3   OH230255   5.896   4.122   0.202
 2899TIP3    H130256   5.904   4.203   0.252
 2899TIP3    H230257   5.866   4.057   0.266
 2900TIP3   OH230258   1.221   5.575   8.081
 2900TIP3    H130259   1.257   5.545   7.998
 2900TIP3    H230260   1.139   5.619   8.057
 2901TIP3   OH230261   0.503   4.776   1.275
 2901TIP3    H130262   0.429   4.804   1.328
 2901TIP3    H230263   0.549   4.858   1.253
 2902TIP3   OH230264   1.216   1.839   8.137
 2902TIP3    H130265   1.266   1.763   8.166
 2902TIP3    H230266   1.244   1.854   8.047
 2903TIP3   OH230267   2.247   4.592   0.018
 2903TIP3    H130268   2.213   4.681   0.007
 2903TIP3    H230269   2.233   4.573   0.111
 2904TIP3   OH230270   4.630   4.575   1.927
 2904TIP3    H130271   4.701   4.536   1.979
 2904TIP3    H230272   4.607   4.655   1.976
 2905TIP3   OH230273   5.678   2.092   1.375
 2905TIP3    H130274   5.588   2.094   1.408
 2905TIP3    H230275   5.713   2.178   1.398
 2906TIP3   OH230276   1.143   0.688   2.036
 2906TIP3    H130277   1.223   0.650   2.000
 2906TIP3    H230278   1.093   0.717   1.959
 2907TIP3   OH230279   2.772   1.686   7.283
 2907TIP3    H130280   2.783   1.764   7.229
 2907TIP3    H230281   2.721   1.626   7.230
 2908TIP3   OH230282   0.697   2.464   7.177
 2908TIP3    H130283   0.608   2.479   7.207
 2908TIP3    H230284   0.693   2.379   7.132
 2909TIP3   OH230285   3.002   5.832   1.213
 2909TIP3    H130286   3.044   5.900   1.160
 2909TIP3    H230287   2.953   5.779   1.150
 2910TIP3   OH230288   3.356   4.456   0.058
 2910TIP3    H130289   3.295   4.383   0.049
 2910TIP3    H230290   3.418   4.428   0.125
 2911TIP3   OH230291   6.605   2.475   1.618
 2911TIP3    H130292   6.691   2.436   1.635
 2911TIP3    H230293   6.596   2.543   1.684
 2912TIP3   OH230294   6.146   2.436   6.510
 2912TIP3    H130295   6.112   2.526   6.511
 2912TIP3    H230296   6.223   2.440   6.453
 2913TIP3   OH230297   5.490   5.015   8.333
 2913TIP3    H130298   5.449   4.964   8.403
 2913TIP3    H230299   5.578   4.980   8.326
 2914TIP3   OH230300   3.931   0.611   1.737
 2914TIP3    H130301   3.973   0.659   1.808
 2914TIP3    H230302   3.846   0.584   1.773
 2915TIP3   OH230303   4.991   0.034   1.614
 2915TIP3    H130304   4.956   0.102   1.556
 2915TIP3    H230305   4.941   0.044   1.695
 2916TIP3   OH230306   5.241   5.657   6.742
 2916TIP3    H130307   5.228   5.719   6.670
 2916TIP3    H230308   5.212   5.705   6.820
 2917TIP3   OH230309   1.497   5.524   7.223
 2917TIP3    H130310   1.558   5.477   7.282
 2917TIP3    H230311   1.429   5.558   7.282
 2918TIP3   OH230312   0.523   4.956   2.314
 2918TIP3    H130313   0.445   4.946   2.369
 2918TIP3    H230314   0.595   4.968   2.376
 2919TIP3   OH230315   2.700   6.677   7.429
 2919TIP3    H130316   2.653   6.725   7.361
 2919TIP3    H230317   2.638   6.609   7.457
 2920TIP3   OH230318   4.575   0.001   2.082
 2920TIP3    H130319   4.586   6.803   2.124
 2920TIP3    H230320   4.641   0.057   2.123
 2921TIP3   OH230321   3.184   0.625   7.632
 2921TIP3    H130322   3.106   0.580   7.664
 2921TIP3    H230323   3.257   0.584   7.679
 2922TIP3   OH230324   1.348   5.178   8.528
 2922TIP3    H130325   1.256   5.161   8.511
 2922TIP3    H230326   1.383   5.206   8.444
 2923TIP3   OH230327   3.569   4.266   6.942
 2923TIP3    H130328   3.582   4.256   7.036
 2923TIP3    H230329   3.649   4.232   6.903
 2924TIP3   OH230330   1.317   5.270   0.698
 2924TIP3    H130331   1.267   5.283   0.618
 2924TIP3    H230332   1.353   5.182   0.691
 2925TIP3   OH230333   4.412   5.255   0.646
 2925TIP3    H130334   4.484   5.294   0.694
 2925TIP3    H230335   4.451   5.182   0.598
 2926TIP3   OH230336   5.743   6.684   6.821
 2926TIP3    H130337   5.786   6.599   6.834
 2926TIP3    H230338   5.743   6.696   6.726
 2927TIP3   OH230339   6.717   6.804   0.531
 2927TIP3    H130340   6.655   6.762   0.590
 2927TIP3    H230341   6.673   6.884   0.502
 2928TIP3   OH230342   1.205   1.826   1.072
 2928TIP3    H130343   1.250   1.750   1.037
 2928TIP3    H230344   1.228   1.827   1.165
 2929TIP3   OH230345   4.392   6.375   0.042
 2929TIP3    H130346   4.380   6.280   0.047
 2929TIP3    H230347   4.426   6.391   8.568
 2930TIP3   OH230348   3.514   4.908   7.356
 2930TIP3    H130349   3.525   4.943   7.444
 2930TIP3    H230350   3.467   4.825   7.368
 2931TIP3   OH230351   3.342   2.179   7.511
 2931TIP3    H130352   3.434   2.172   7.536
 2931TIP3    H230353   3.313   2.260   7.552
 2932TIP3   OH230354   1.270   4.283   0.285
 2932TIP3    H130355   1.177   4.259   0.282
 2932TIP3    H230356   1.294   4.296   0.193
 2933TIP3   OH230357   1.487   2.896   7.371
 2933TIP3    H130358   1.485   2.926   7.281
 2933TIP3    H230359   1.581   2.890   7.392
 2934TIP3   OH230360   5.242   0.934   0.367
 2934TIP3    H130361   5.172   0.988   0.402
 2934TIP3    H230362   5.242   0.855   0.422
 2935TIP3   OH230363   6.001   2.700   7.799
 2935TIP3    H130364   6.033   2.613   7.824
 2935TIP3    H230365   6.064   2.731   7.734
 2936TIP3   OH230366   4.766   1.640   7.677
 2936TIP3    H130367   4.790   1.553   7.709
 2936TIP3    H230368   4.813   1.649   7.594
 2937TIP3   OH230369   5.842   4.360   1.663
 2937TIP3    H130370   5.839   4.455   1.664
 2937TIP3    H230371   5.807   4.333   1.747
 2938TIP3   OH230372   6.279   3.905   7.217
 2938TIP3    H130373   6.319   3.818   7.209
 2938TIP3    H230374   6.348   3.960   7.253
 2939TIP3   OH230375   3.912   2.108   0.395
 2939TIP3    H130376   3.848   2.110   0.324
 2939TIP3    H230377   3.871   2.158   0.466
 2940TIP3   OH230378   4.868   4.011   1.804
 2940TIP3    H130379   4.791   3.971   1.842
 2940TIP3    H230380   4.903   4.068   1.873
 2941TIP3   OH230381   3.099   0.529   7.100
 2941TIP3    H130382   3.022   0.583   7.083
 2941TIP3    H230383   3.065   0.452   7.145
 2942TIP3   OH230384   0.230   2.614   0.692
 2942TIP3    H130385   0.264   2.632   0.604
 2942TIP3    H230386   0.241   2.520   0.703
 2943TIP3   OH230387   4.809   6.048   0.288
 2943TIP3    H130388   4.843   6.055   0.199
 2943TIP3    H230389   4.818   5.955   0.310
 2944TIP3   OH230390   2.152   4.703   0.511
 2944TIP3    H130391   2.058   4.704   0.497
 2944TIP3    H230392   2.171   4.788   0.550
 2945TIP3   OH230393   2.162   5.885   7.745
 2945TIP3    H130394   2.203   5.805   7.779
 2945TIP3    H230395   2.143   5.937   7.823
 2946TIP3   OH230396   0.549   0.653   7.565
 2946TIP3    H130397   0.630   0.619   7.528
 2946TIP3    H230398   0.578   0.706   7.640
 2947TIP3   OH230399   5.141   6.375   0.291
 2947TIP3    H130400   5.055   6.406   0.260
 2947TIP3    H230401   5.121   6.306   0.354
 2948TIP3   OH230402   6.610   4.580   8.220
 2948TIP3    H130403   6.583   4.668   8.246
 2948TIP3    H230404   6.686   4.561   8.274
 2949TIP3   OH230405   1.443   4.829   2.152
 2949TIP3    H130406   1.350   4.834   2.130
 2949TIP3    H230407   1.449   4.759   2.216
 2950TIP3   OH230408   0.076   4.282   1.968
 2950TIP3    H130409   0.155   4.276   2.023
 2950TIP3    H230410   0.090   4.358   1.913
 2951TIP3   OH230411   4.020   0.723   1.991
 2951TIP3    H130412   4.013   0.784   2.064
 2951TIP3    H230413   4.086   0.762   1.934
 2952TIP3   OH230414   0.687   2.810   1.256
 2952TIP3    H130415   0.663   2.777   1.169
 2952TIP3    H230416   0.752   2.878   1.238
 2953TIP3   OH230417   2.739   3.056   7.186
 2953TIP3    H130418   2.756   3.110   7.109
 2953TIP3    H230419   2.651   3.021   7.173
 2954TIP3   OH230420   4.970   2.872   1.084
 2954TIP3    H130421   4.977   2.926   1.163
 2954TIP3    H230422   4.932   2.930   1.019
 2955TIP3   OH230423   5.611   3.309   0.744
 2955TIP3    H130424   5.584   3.244   0.680
 2955TIP3    H230425   5.544   3.305   0.813
 2956TIP3   OH230426   2.949   4.439   8.509
 2956TIP3    H130427   2.929   4.532   8.497
 2956TIP3    H230428   2.868   4.400   8.540
 2957TIP3   OH230429   6.638   4.743   0.701
 2957TIP3    H130430   6.608   4.659   0.735
 2957TIP3    H230431   6.594   4.753   0.617
 2958TIP3   OH230432   1.145   2.365   1.192
 2958TIP3    H130433   1.103   2.279   1.190
 2958TIP3    H230434   1.161   2.382   1.285
 2959TIP3   OH230435   0.840   6.403   0.406
 2959TIP3    H130436   0.847   6.480   0.349
 2959TIP3    H230437   0.922   6.402   0.454
 2960TIP3   OH230438   1.237   4.206   6.396
 2960TIP3    H130439   1.251   4.277   6.333
 2960TIP3    H230440   1.263   4.126   6.348
 2961TIP3   OH230441   1.992   4.155   0.818
 2961TIP3    H130442   2.081   4.191   0.825
 2961TIP3    H230443   2.004   4.060   0.828
 2962TIP3   OH230444   4.281   1.886   2.098
 2962TIP3    H130445   4.261   1.950   2.166
 2962TIP3    H230446   4.377   1.879   2.099
 2963TIP3   OH230447   5.329   2.892   7.866
 2963TIP3    H130448   5.391   2.952   7.825
 2963TIP3    H230449   5.298   2.940   7.943
 2964TIP3   OH230450   3.911   2.029   1.366
 2964TIP3    H130451   3.936   2.094   1.431
 2964TIP3    H230452   3.932   2.069   1.282
 2965TIP3   OH230453   2.252   2.665   6.653
 2965TIP3    H130454   2.311   2.602   6.611
 2965TIP3    H230455   2.164   2.635   6.631
 2966TIP3   OH230456   4.629   1.426   8.039
 2966TIP3    H130457   4.615   1.495   8.104
 2966TIP3    H230458   4.718   1.439   8.009
 2967TIP3   OH230459   0.001   3.245   7.570
 2967TIP3    H130460   0.002   3.237   7.665
 2967TIP3    H230461   6.882   3.155   7.538
 2968TIP3   OH230462   3.112   6.720   1.827
 2968TIP3    H130463   3.197   6.757   1.854
 2968TIP3    H230464   3.071   6.789   1.776
 2969TIP3   OH230465   0.863   2.847   8.450
 2969TIP3    H130466   0.811   2.839   8.530
 2969TIP3    H230467   0.932   2.782   8.459
 2970TIP3   OH230468   3.677   0.980   1.811
 2970TIP3    H130469   3.744   1.041   1.840
 2970TIP3    H230470   3.680   0.985   1.715
 2971TIP3   OH230471   5.812   1.971   0.877
 2971TIP3    H130472   5.819   2.024   0.956
 2971TIP3    H230473   5.718   1.966   0.860
 2972TIP3   OH230474   1.497   0.933   8.589
 2972TIP3    H130475   1.445   1.013   8.601
 2972TIP3    H230476   1.576   0.963   8.545
 2973TIP3   OH230477   6.632   3.079   7.403
 2973TIP3    H130478   6.613   3.173   7.406
 2973TIP3    H230479   6.556   3.040   7.360
 2974TIP3   OH230480   2.882   6.327   0.929
 2974TIP3    H130481   2.796   6.360   0.904
 2974TIP3    H230482   2.944   6.383   0.882
 2975TIP3   OH230483   1.876   3.213   7.134
 2975TIP3    H130484   1.859   3.140   7.075
 2975TIP3    H230485   1.925   3.276   7.081
 2976TIP3   OH230486   4.934   6.264   1.362
 2976TIP3    H130487   4.998   6.239   1.428
 2976TIP3    H230488   4.975   6.337   1.315
 2977TIP3   OH230489   5.819   2.773   6.997
 2977TIP3    H130490   5.734   2.736   7.018
 2977TIP3    H230491   5.850   2.812   7.079
 2978TIP3   OH230492   3.774   6.163   0.811
 2978TIP3    H130493   3.700   6.220   0.791
 2978TIP3    H230494   3.806   6.194   0.895
 2979TIP3   OH230495   5.778   3.256   2.081
 2979TIP3    H130496   5.816   3.201   2.150
 2979TIP3    H230497   5.742   3.193   2.018
 2980TIP3   OH230498   5.384   3.074   8.510
 2980TIP3    H130499   5.300   3.118   8.518
 2980TIP3    H230500   5.446   3.132   8.555
 2981TIP3   OH230501   6.393   6.860   0.962
 2981TIP3    H130502   6.455   0.022   0.909
 2981TIP3    H230503   6.351   0.039   1.017
 2982TIP3   OH230504   2.846   6.862   2.170
 2982TIP3    H130505   2.848   6.768   2.190
 2982TIP3    H230506   2.844   0.018   2.255
 2983TIP3   OH230507   1.869   3.341   8.290
 2983TIP3    H130508   1.962   3.318   8.282
 2983TIP3    H230509   1.838   3.348   8.200
 2984TIP3   OH230510   2.537   5.668   1.334
 2984TIP3    H130511   2.632   5.657   1.325
 2984TIP3    H230512   2.518   5.642   1.424
 2985TIP3   OH230513   3.214   1.810   0.980
 2985TIP3    H130514   3.248   1.745   1.041
 2985TIP3    H230515   3.151   1.762   0.926
 2986TIP3   OH230516   2.775   1.267   1.474
 2986TIP3    H130517   2.780   1.360   1.493
 2986TIP3    H230518   2.796   1.224   1.557
 2987TIP3   OH230519   1.992   5.201   2.413
 2987TIP3    H130520   1.962   5.182   2.501
 2987TIP3    H230521   1.992   5.297   2.407
 2988TIP3   OH230522   2.145   4.870   8.609
 2988TIP3    H130523   2.148   4.965   8.598
 2988TIP3    H230524   2.055   4.851   0.020
 2989TIP3   OH230525   2.177   3.935   6.910
 2989TIP3    H130526   2.189   4.026   6.934
 2989TIP3    H230527   2.191   3.933   6.816
 2990TIP3   OH230528   3.695   2.836   8.391
 2990TIP3    H130529   3.720   2.757   8.440
 2990TIP3    H230530   3.778   2.874   8.363
 2991TIP3   OH230531   6.361   5.426   7.936
 2991TIP3    H130532   6.349   5.331   7.943
 2991TIP3    H230533   6.331   5.446   7.847
 2992TIP3   OH230534   3.857   4.710   8.484
 2992TIP3    H130535   3.923   4.720   8.553
 2992TIP3    H230536   3.819   4.624   8.500
 2993TIP3   OH230537   6.781   4.302   0.761
 2993TIP3    H130538   6.816   4.215   0.779
 2993TIP3    H230539   6.768   4.341   0.848
 2994TIP3   OH230540   1.011   4.858   8.571
 2994TIP3    H130541   1.101   4.832   8.549
 2994TIP3    H230542   0.957   4.811   8.507
 2995TIP3   OH230543   6.783   6.263   0.864
 2995TIP3    H130544   6.770   6.351   0.899
 2995TIP3    H230545   6.713   6.211   0.902
 2996TIP3   OH230546   3.267   3.758   0.781
 2996TIP3    H130547   3.348   3.717   0.810
 2996TIP3    H230548   3.279   3.851   0.800
 2997TIP3   OH230549   0.066   1.086   0.148
 2997TIP3    H130550   0.136   1.021   0.146
 2997TIP3    H230551   0.098   1.158   0.094
 2998TIP3   OH230552   3.009   3.600   6.826
 2998TIP3    H130553   2.949   3.544   6.777
 2998TIP3    H230554   3.094   3.585   6.786
 2999TIP3   OH230555   4.563   1.180   8.366
 2999TIP3    H130556   4.636   1.241   8.374
 2999TIP3    H230557   4.486   1.231   8.394
 3000TIP3   OH230558   6.405   0.261   0.130
 3000TIP3    H130559   6.501   0.265   0.130
 3000TIP3    H230560   6.384   0.185   0.076
 3001TIP3   OH230561   5.604   1.089   7.228
 3001TIP3    H130562   5.598   1.107   7.321
 3001TIP3    H230563   5.525   1.039   7.208
 3002TIP3   OH230564   5.994   0.029   6.650
 3002TIP3    H130565   5.906   0.029   6.614
 3002TIP3    H230566   6.046   0.077   6.586
 3003TIP3   OH230567   4.582   4.757   0.833
 3003TIP3    H130568   4.653   4.819   0.851
 3003TIP3    H230569   4.577   4.702   0.911
 3004TIP3   OH230570   2.607   4.011   1.995
 3004TIP3    H130571   2.518   3.980   2.011
 3004TIP3    H230572   2.598   4.107   1.994
 3005TIP3   OH230573   5.192   3.008   1.461
 3005TIP3    H130574   5.278   2.967   1.469
 3005TIP3    H230575   5.203   3.094   1.501
 3006TIP3   OH230576   6.771   6.559   0.441
 3006TIP3    H130577   6.786   6.652   0.462
 3006TIP3    H230578   6.726   6.524   0.518
 3007TIP3   OH230579   0.534   3.838   2.303
 3007TIP3    H130580   0.443   3.867   2.298
 3007TIP3    H230581   0.536   3.778   2.378
 3008TIP3   OH230582   2.931   1.154   0.738
 3008TIP3    H130583   2.995   1.083   0.738
 3008TIP3    H230584   2.957   1.210   0.666
 3009TIP3   OH230585   4.917   3.692   6.865
 3009TIP3    H130586   4.877   3.760   6.812
 3009TIP3    H230587   4.846   3.631   6.884
 3010TIP3   OH230588   6.774   6.002   6.376
 3010TIP3    H130589   6.803   5.911   6.376
 3010TIP3    H230590   6.692   6.001   6.327
 3011TIP3   OH230591   6.823   3.561   0.888
 3011TIP3    H130592   6.813   3.656   0.881
 3011TIP3    H230593   6.744   3.526   0.846
 3012TIP3   OH230594   5.668   2.270   0.895
 3012TIP3    H130595   5.601   2.202   0.891
 3012TIP3    H230596   5.718   2.261   0.814
 3013TIP3   OH230597   5.039   3.191   7.694
 3013TIP3    H130598   5.128   3.205   7.664
 3013TIP3    H230599   5.040   3.214   7.787
 3014TIP3   OH230600   4.839   4.541   7.285
 3014TIP3    H130601   4.889   4.492   7.219
 3014TIP3    H230602   4.781   4.476   7.324
 3015TIP3   OH230603   6.310   4.545   1.301
 3015TIP3    H130604   6.245   4.483   1.269
 3015TIP3    H230605   6.263   4.629   1.305
 3016TIP3   OH230606   1.333   3.133   1.039
 3016TIP3    H130607   1.412   3.178   1.008
 3016TIP3    H230608   1.268   3.202   1.048
 3017TIP3   OH230609   0.874   2.509   1.838
 3017TIP3    H130610   0.800   2.570   1.833
 3017TIP3    H230611   0.851   2.449   1.909
 3018TIP3   OH230612   0.238   5.204   0.922
 3018TIP3    H130613   0.261   5.177   1.011
 3018TIP3    H230614   0.241   5.123   0.870
 3019TIP3   OH230615   3.293   5.666   6.602
 3019TIP3    H130616   3.380   5.646   6.568
 3019TIP3    H230617   3.302   5.751   6.644
 3020TIP3   OH230618   4.695   1.011   2.537
 3020TIP3    H130619   4.749   1.075   2.491
 3020TIP3    H230620   4.754   0.940   2.559
 3021TIP3   OH230621   4.441   1.318   7.165
 3021TIP3    H130622   4.382   1.264   7.217
 3021TIP3    H230623   4.500   1.255   7.122
 3022TIP3   OH230624   5.963   5.462   0.244
 3022TIP3    H130625   5.928   5.531   0.301
 3022TIP3    H230626   6.015   5.508   0.179
 3023TIP3   OH230627   3.826   3.103   0.235
 3023TIP3    H130628   3.813   3.158   0.312
 3023TIP3    H230629   3.739   3.071   0.213
 3024TIP3   OH230630   6.143   6.531   8.060
 3024TIP3    H130631   6.174   6.442   8.077
 3024TIP3    H230632   6.103   6.559   8.142
 3025TIP3   OH230633   6.234   0.775   6.732
 3025TIP3    H130634   6.228   0.707   6.664
 3025TIP3    H230635   6.204   0.855   6.689
 3026TIP3   OH230636   2.455   5.443   0.950
 3026TIP3    H130637   2.427   5.377   1.013
 3026TIP3    H230638   2.414   5.417   0.868
 3027TIP3   OH230639   1.804   4.722   7.396
 3027TIP3    H130640   1.808   4.745   7.303
 3027TIP3    H230641   1.778   4.630   7.397
 3028TIP3   OH230642   4.755   6.020   8.483
 3028TIP3    H130643   4.774   6.080   8.555
 3028TIP3    H230644   4.680   6.059   8.438
 3029TIP3   OH230645   6.451   2.626   0.160
 3029TIP3    H130646   6.434   2.718   0.180
 3029TIP3    H230647   6.372   2.597   0.113
 3030TIP3   OH230648   1.416   6.784   0.838
 3030TIP3    H130649   1.340   6.731   0.860
 3030TIP3    H230650   1.464   6.793   0.921
 3031TIP3   OH230651   3.551   6.165   0.521
 3031TIP3    H130652   3.565   6.226   0.449
 3031TIP3    H230653   3.587   6.081   0.490
 3032TIP3   OH230654   2.864   5.399   0.442
 3032TIP3    H130655   2.927   5.421   0.374
 3032TIP3    H230656   2.801   5.471   0.440
 3033TIP3   OH230657   3.112   6.494   1.636
 3033TIP3    H130658   3.079   6.459   1.719
 3033TIP3    H230659   3.130   6.586   1.654
 3034TIP3   OH230660   2.314   1.140   6.946
 3034TIP3    H130661   2.260   1.087   7.005
 3034TIP3    H230662   2.390   1.084   6.926
 3035TIP3   OH230663   2.448   1.923   0.239
 3035TIP3    H130664   2.428   1.858   0.171
 3035TIP3    H230665   2.436   2.007   0.196
 3036TIP3   OH230666   1.576   5.067   8.303
 3036TIP3    H130667   1.614   5.010   8.236
 3036TIP3    H230668   1.545   5.007   8.371
 3037TIP3   OH230669   3.789   6.857   7.768
 3037TIP3    H130670   3.723   0.039   7.763
 3037TIP3    H230671   3.741   6.776   7.751
 3038TIP3   OH230672   0.241   4.059   7.679
 3038TIP3    H130673   0.290   4.125   7.630
 3038TIP3    H230674   0.249   3.979   7.626
 3039TIP3   OH230675   3.696   6.741   8.541
 3039TIP3    H130676   3.744   6.793   8.606
 3039TIP3    H230677   3.731   6.652   8.550
 3040TIP3   OH230678   3.940   6.845   7.218
 3040TIP3    H130679   3.880   6.831   7.292
 3040TIP3    H230680   3.903   0.033   7.172
 3041TIP3   OH230681   4.667   3.491   1.112
 3041TIP3    H130682   4.725   3.561   1.142
 3041TIP3    H230683   4.688   3.416   1.169
 3042TIP3   OH230684   4.706   6.221   8.060
 3042TIP3    H130685   4.746   6.199   8.144
 3042TIP3    H230686   4.716   6.142   8.007
 3043TIP3   OH230687   0.542   0.655   0.796
 3043TIP3    H130688   0.521   0.562   0.789
 3043TIP3    H230689   0.633   0.658   0.826
 3044TIP3   OH230690   2.256   6.365   2.294
 3044TIP3    H130691   2.206   6.445   2.279
 3044TIP3    H230692   2.347   6.391   2.279
 3045TIP3   OH230693   5.062   1.380   2.056
 3045TIP3    H130694   5.110   1.461   2.042
 3045TIP3    H230695   5.026   1.387   2.144
 3046TIP3   OH230696   0.425   1.553   0.310
 3046TIP3    H130697   0.497   1.587   0.363
 3046TIP3    H230698   0.441   1.587   0.222
 3047TIP3   OH230699   5.586   6.095   8.312
 3047TIP3    H130700   5.569   6.138   8.396
 3047TIP3    H230701   5.501   6.060   8.285
 3048TIP3   OH230702   5.548   4.750   7.877
 3048TIP3    H130703   5.501   4.676   7.838
 3048TIP3    H230704   5.638   4.740   7.847
 3049TIP3   OH230705   2.042   0.769   1.451
 3049TIP3    H130706   2.004   0.853   1.426
 3049TIP3    H230707   2.048   0.772   1.546
 3050TIP3   OH230708   1.277   5.307   0.972
 3050TIP3    H130709   1.303   5.231   1.024
 3050TIP3    H230710   1.310   5.289   0.884
 3051TIP3   OH230711   0.443   2.553   7.238
 3051TIP3    H130712   0.407   2.507   7.314
 3051TIP3    H230713   0.389   2.524   7.165
 3052TIP3   OH230714   2.533   3.855   7.414
 3052TIP3    H130715   2.489   3.919   7.358
 3052TIP3    H230716   2.488   3.772   7.396
 3053TIP3   OH230717   6.539   2.269   0.234
 3053TIP3    H130718   6.515   2.178   0.217
 3053TIP3    H230719   6.490   2.292   0.314
 3054TIP3   OH230720   2.100   0.162   7.467
 3054TIP3    H130721   2.019   0.214   7.467
 3054TIP3    H230722   2.161   0.214   7.519
 3055TIP3   OH230723   3.461   4.457   7.508
 3055TIP3    H130724   3.376   4.479   7.548
 3055TIP3    H230725   3.461   4.503   7.425
 3056TIP3   OH230726   6.336   0.586   1.211
 3056TIP3    H130727   6.350   0.680   1.207
 3056TIP3    H230728   6.351   0.564   1.303
 3057TIP3   OH230729   0.497   3.636   2.783
 3057TIP3    H130730   0.406   3.624   2.758
 3057TIP3    H230731   0.493   3.700   2.855
 3058TIP3   OH230732   5.909   4.827   1.831
 3058TIP3    H130733   5.938   4.767   1.900
 3058TIP3    H230734   5.884   4.770   1.758
 3059TIP3   OH230735   0.865   5.586   0.760
 3059TIP3    H130736   0.855   5.622   0.848
 3059TIP3    H230737   0.916   5.506   0.772
 3060TIP3   OH230738   6.432   4.070   1.353
 3060TIP3    H130739   6.420   4.036   1.442
 3060TIP3    H230740   6.409   3.996   1.296
 3061TIP3   OH230741   4.753   6.424   0.907
 3061TIP3    H130742   4.679   6.452   0.853
 3061TIP3    H230743   4.823   6.485   0.885
 3062TIP3   OH230744   3.763   3.898   1.356
 3062TIP3    H130745   3.704   3.852   1.297
 3062TIP3    H230746   3.802   3.829   1.410
 3063TIP3   OH230747   3.441   1.061   6.408
 3063TIP3    H130748   3.513   1.010   6.371
 3063TIP3    H230749   3.483   1.126   6.464
 3064TIP3   OH230750   4.164   1.823   1.637
 3064TIP3    H130751   4.180   1.792   1.727
 3064TIP3    H230752   4.240   1.791   1.587
 3065TIP3   OH230753   6.372   6.657   0.157
 3065TIP3    H130754   6.467   6.653   0.157
 3065TIP3    H230755   6.349   6.684   0.246
 3066TIP3   OH230756   0.099   4.679   7.403
 3066TIP3    H130757   0.009   4.665   7.433
 3066TIP3    H230758   0.104   4.774   7.390
 3067TIP3   OH230759   3.261   5.877   6.970
 3067TIP3    H130760   3.212   5.795   6.964
 3067TIP3    H230761   3.194   5.945   6.969
 3068TIP3   OH230762   4.904   4.260   1.664
 3068TIP3    H130763   4.892   4.342   1.616
 3068TIP3    H230764   4.895   4.284   1.756
 3069TIP3   OH230765   4.996   6.688   1.461
 3069TIP3    H130766   4.989   6.745   1.537
 3069TIP3    H230767   5.049   6.614   1.491
 3070TIP3   OH230768   3.430   3.100   6.823
 3070TIP3    H130769   3.499   3.036   6.842
 3070TIP3    H230770   3.388   3.116   6.907
 3071TIP3   OH230771   1.771   2.226   0.498
 3071TIP3    H130772   1.729   2.272   0.571
 3071TIP3    H230773   1.828   2.161   0.540
 3072TIP3   OH230774   0.211   1.828   0.942
 3072TIP3    H130775   0.151   1.825   0.867
 3072TIP3    H230776   0.177   1.762   1.002
 3073TIP3   OH230777   0.511   3.427   1.586
 3073TIP3    H130778   0.498   3.340   1.624
 3073TIP3    H230779   0.601   3.426   1.556
 3074TIP3   OH230780   1.920   4.076   1.801
 3074TIP3    H130781   1.878   4.132   1.867
 3074TIP3    H230782   1.869   3.995   1.802
 3075TIP3   OH230783   0.564   3.477   8.309
 3075TIP3    H130784   0.493   3.540   8.316
 3075TIP3    H230785   0.552   3.419   8.383
 3076TIP3   OH230786   4.234   0.382   1.030
 3076TIP3    H130787   4.156   0.369   1.084
 3076TIP3    H230788   4.274   0.462   1.063
 3077TIP3   OH230789   5.318   3.605   1.335
 3077TIP3    H130790   5.342   3.550   1.261
 3077TIP3    H230791   5.332   3.549   1.412
 3078TIP3   OH230792   4.696   3.552   2.583
 3078TIP3    H130793   4.730   3.465   2.604
 3078TIP3    H230794   4.728   3.570   2.495
 3079TIP3   OH230795   0.360   4.738   8.050
 3079TIP3    H130796   0.450   4.765   8.030
 3079TIP3    H230797   0.329   4.697   7.969
 3080TIP3   OH230798   2.400   5.611   1.587
 3080TIP3    H130799   2.426   5.600   1.679
 3080TIP3    H230800   2.376   5.704   1.580
 3081TIP3   OH230801   3.740   5.407   2.396
 3081TIP3    H130802   3.722   5.316   2.373
 3081TIP3    H230803   3.658   5.453   2.382
 3082TIP3   OH230804   4.181   6.726   1.208
 3082TIP3    H130805   4.127   6.779   1.268
 3082TIP3    H230806   4.137   6.641   1.204
 3083TIP3   OH230807   3.025   1.228   6.310
 3083TIP3    H130808   3.003   1.287   6.383
 3083TIP3    H230809   3.120   1.220   6.314
 3084TIP3   OH230810   3.375   4.118   6.601
 3084TIP3    H130811   3.336   4.153   6.680
 3084TIP3    H230812   3.467   4.143   6.606
 3085TIP3   OH230813   3.284   5.506   0.912
 3085TIP3    H130814   3.300   5.570   0.981
 3085TIP3    H230815   3.366   5.457   0.905
 3086TIP3   OH230816   0.974   6.369   8.087
 3086TIP3    H130817   1.044   6.380   8.023
 3086TIP3    H230818   1.003   6.420   8.163
 3087TIP3   OH230819   3.027   3.629   8.578
 3087TIP3    H130820   3.018   3.534   8.589
 3087TIP3    H230821   2.944   3.665   8.610
 3088TIP3   OH230822   2.052   0.844   1.721
 3088TIP3    H130823   2.004   0.773   1.763
 3088TIP3    H230824   2.142   0.833   1.752
 3089TIP3   OH230825   4.919   0.930   7.444
 3089TIP3    H130826   4.856   0.966   7.508
 3089TIP3    H230827   4.999   0.918   7.494
 3090TIP3   OH230828   1.848   0.391   1.057
 3090TIP3    H130829   1.862   0.303   1.094
 3090TIP3    H230830   1.772   0.424   1.106
 3091TIP3   OH230831   3.264   5.683   7.853
 3091TIP3    H130832   3.242   5.770   7.885
 3091TIP3    H230833   3.179   5.642   7.836
 3092TIP3   OH230834   0.967   0.973   2.164
 3092TIP3    H130835   0.943   1.032   2.235
 3092TIP3    H230836   0.884   0.945   2.126
 3093TIP3   OH230837   6.746   2.003   8.271
 3093TIP3    H130838   6.663   1.999   8.223
 3093TIP3    H230839   6.791   2.079   8.235
 3094TIP3   OH230840   0.439   6.577   7.248
 3094TIP3    H130841   0.441   6.573   7.344
 3094TIP3    H230842   0.405   6.665   7.230
 3095TIP3   OH230843   2.756   3.154   2.266
 3095TIP3    H130844   2.693   3.090   2.232
 3095TIP3    H230845   2.703   3.215   2.317
 3096TIP3   OH230846   6.577   3.523   7.678
 3096TIP3    H130847   6.576   3.549   7.771
 3096TIP3    H230848   6.541   3.434   7.679
 3097TIP3   OH230849   6.601   6.388   0.577
 3097TIP3    H130850   6.551   6.320   0.622
 3097TIP3    H230851   6.553   6.469   0.595
 3098TIP3   OH230852   4.152   2.318   7.713
 3098TIP3    H130853   4.114   2.231   7.700
 3098TIP3    H230854   4.131   2.340   7.804
 3099TIP3   OH230855   6.694   5.468   7.754
 3099TIP3    H130856   6.784   5.449   7.728
 3099TIP3    H230857   6.684   5.425   7.840
 3100TIP3   OH230858   4.492   3.110   7.404
 3100TIP3    H130859   4.578   3.090   7.367
 3100TIP3    H230860   4.501   3.199   7.439
 3101TIP3   OH230861   4.000   2.745   0.630
 3101TIP3    H130862   4.094   2.728   0.620
 3101TIP3    H230863   3.995   2.815   0.696
 3102TIP3   OH230864   6.106   5.751   7.868
 3102TIP3    H130865   6.167   5.711   7.807
 3102TIP3    H230866   6.020   5.738   7.828
 3103TIP3   OH230867   4.548   6.870   0.305
 3103TIP3    H130868   4.566   0.077   0.303
 3103TIP3    H230869   4.457   6.864   0.336
 3104TIP3   OH230870   0.492   4.473   0.700
 3104TIP3    H130871   0.422   4.474   0.766
 3104TIP3    H230872   0.573   4.476   0.751
 3105TIP3   OH230873   4.920   3.391   0.705
 3105TIP3    H130874   4.911   3.413   0.798
 3105TIP3    H230875   4.990   3.325   0.703
 3106TIP3   OH230876   5.363   0.076   1.876
 3106TIP3    H130877   5.371   0.108   1.966
 3106TIP3    H230878   5.279   0.110   1.845
 3107TIP3   OH230879   6.079   5.599   1.230
 3107TIP3    H130880   6.042   5.544   1.161
 3107TIP3    H230881   6.003   5.628   1.281
 3108TIP3   OH230882   0.173   4.531   1.877
 3108TIP3    H130883   0.223   4.526   1.796
 3108TIP3    H230884   0.239   4.541   1.946
 3109TIP3   OH230885   2.880   5.057   6.472
 3109TIP3    H130886   2.796   5.102   6.461
 3109TIP3    H230887   2.936   5.093   6.403
 3110TIP3   OH230888   6.667   4.200   0.273
 3110TIP3    H130889   6.620   4.217   0.192
 3110TIP3    H230890   6.748   4.250   0.265
 3111TIP3   OH230891   0.890   3.889   0.245
 3111TIP3    H130892   0.870   3.938   0.325
 3111TIP3    H230893   0.809   3.895   0.193
 3112TIP3   OH230894   2.771   2.486   7.016
 3112TIP3    H130895   2.795   2.578   7.019
 3112TIP3    H230896   2.770   2.457   7.107
 3113TIP3   OH230897   3.485   5.868   2.278
 3113TIP3    H130898   3.492   5.956   2.314
 3113TIP3    H230899   3.531   5.873   2.194
 3114TIP3   OH230900   3.477   0.510   1.675
 3114TIP3    H130901   3.419   0.526   1.600
 3114TIP3    H230902   3.422   0.465   1.739
 3115TIP3   OH230903   1.316   2.567   1.117
 3115TIP3    H130904   1.370   2.561   1.196
 3115TIP3    H230905   1.259   2.490   1.122
 3116TIP3   OH230906   1.764   3.445   8.532
 3116TIP3    H130907   1.788   3.414   8.444
 3116TIP3    H230908   1.848   3.458   8.576
 3117TIP3   OH230909   6.714   6.178   1.879
 3117TIP3    H130910   6.635   6.171   1.932
 3117TIP3    H230911   6.772   6.235   1.930
 3118TIP3   OH230912   4.217   6.620   7.301
 3118TIP3    H130913   4.252   6.579   7.222
 3118TIP3    H230914   4.201   6.711   7.277
 3119TIP3   OH230915   2.554   4.499   1.586
 3119TIP3    H130916   2.523   4.418   1.546
 3119TIP3    H230917   2.505   4.506   1.668
 3120TIP3   OH230918   5.171   2.529   7.336
 3120TIP3    H130919   5.146   2.536   7.428
 3120TIP3    H230920   5.202   2.616   7.312
 3121TIP3   OH230921   0.398   0.445   6.816
 3121TIP3    H130922   0.441   0.380   6.762
 3121TIP3    H230923   0.356   0.505   6.754
 3122TIP3   OH230924   0.109   6.139   6.507
 3122TIP3    H130925   0.169   6.114   6.437
 3122TIP3    H230926   0.023   6.116   6.474
 3123TIP3   OH230927   0.462   6.272   8.073
 3123TIP3    H130928   0.553   6.262   8.045
 3123TIP3    H230929   0.467   6.297   8.165
 3124TIP3   OH230930   2.323   2.151   7.610
 3124TIP3    H130931   2.370   2.072   7.637
 3124TIP3    H230932   2.235   2.141   7.647
 3125TIP3   OH230933   5.227   1.976   6.966
 3125TIP3    H130934   5.183   1.962   6.883
 3125TIP3    H230935   5.170   1.935   7.031
 3126TIP3   OH230936   5.047   5.853   0.347
 3126TIP3    H130937   5.114   5.920   0.334
 3126TIP3    H230938   5.083   5.796   0.415
 3127TIP3   OH230939   4.520   4.698   0.339
 3127TIP3    H130940   4.500   4.711   0.431
 3127TIP3    H230941   4.610   4.666   0.338
 3128TIP3   OH230942   2.897   5.658   0.996
 3128TIP3    H130943   2.916   5.586   1.055
 3128TIP3    H230944   2.807   5.643   0.967
 3129TIP3   OH230945   3.233   5.718   1.400
 3129TIP3    H130946   3.199   5.760   1.479
 3129TIP3    H230947   3.176   5.749   1.330
 3130TIP3   OH230948   4.324   3.108   8.486
 3130TIP3    H130949   4.320   3.023   8.441
 3130TIP3    H230950   4.296   3.171   8.420
 3131TIP3   OH230951   2.665   2.839   1.197
 3131TIP3    H130952   2.634   2.912   1.250
 3131TIP3    H230953   2.633   2.761   1.243
 3132TIP3   OH230954   2.187   4.474   1.917
 3132TIP3    H130955   2.097   4.474   1.949
 3132TIP3    H230956   2.223   4.558   1.946
 3133TIP3   OH230957   6.328   2.573   8.308
 3133TIP3    H130958   6.411   2.598   8.348
 3133TIP3    H230959   6.300   2.650   8.259
 3134TIP3   OH230960   3.520   4.744   0.105
 3134TIP3    H130961   3.486   4.823   0.147
 3134TIP3    H230962   3.448   4.681   0.112
 3135TIP3   OH230963   3.390   0.107   8.317
 3135TIP3    H130964   3.471   0.152   8.293
 3135TIP3    H230965   3.408   0.072   8.405
 3136TIP3   OH230966   5.996   5.067   1.729
 3136TIP3    H130967   5.958   4.999   1.784
 3136TIP3    H230968   6.083   5.083   1.767
 3137TIP3   OH230969   2.342   6.482   0.873
 3137TIP3    H130970   2.379   6.534   0.802
 3137TIP3    H230971   2.269   6.434   0.833
 3138TIP3   OH230972   2.263   5.855   2.256
 3138TIP3    H130973   2.331   5.798   2.293
 3138TIP3    H230974   2.312   5.928   2.217
 3139TIP3   OH230975   0.027   3.236   1.732
 3139TIP3    H130976   0.103   3.198   1.776
 3139TIP3    H230977   6.851   3.254   1.802
 3140TIP3   OH230978   4.092   3.888   1.442
 3140TIP3    H130979   4.019   3.831   1.467
 3140TIP3    H230980   4.169   3.831   1.448
 3141TIP3   OH230981   2.256   4.431   6.467
 3141TIP3    H130982   2.348   4.422   6.491
 3141TIP3    H230983   2.228   4.342   6.445
 3142TIP3   OH230984   3.656   2.719   1.723
 3142TIP3    H130985   3.564   2.737   1.745
 3142TIP3    H230986   3.658   2.717   1.627
 3143TIP3   OH230987   5.492   5.125   0.650
 3143TIP3    H130988   5.429   5.059   0.677
 3143TIP3    H230989   5.459   5.157   0.566
 3144TIP3   OH230990   5.663   4.620   7.625
 3144TIP3    H130991   5.754   4.595   7.612
 3144TIP3    H230992   5.638   4.579   7.708
 3145TIP3   OH230993   5.031   6.694   0.693
 3145TIP3    H130994   5.016   6.675   0.601
 3145TIP3    H230995   5.108   6.752   0.693
 3146TIP3   OH230996   5.785   0.641   1.728
 3146TIP3    H130997   5.781   0.630   1.823
 3146TIP3    H230998   5.726   0.714   1.709
 3147TIP3   OH230999   1.719   2.430   1.188
 3147TIP3    H131000   1.624   2.418   1.192
 3147TIP3    H231001   1.738   2.437   1.094
 3148TIP3   OH231002   3.927   5.953   8.437
 3148TIP3    H131003   3.884   5.873   8.407
 3148TIP3    H231004   3.998   5.967   8.375
 3149TIP3   OH231005   3.703   1.695   2.220
 3149TIP3    H131006   3.779   1.726   2.270
 3149TIP3    H231007   3.738   1.628   2.161
 3150TIP3   OH231008   6.074   6.086   1.938
 3150TIP3    H131009   6.114   6.172   1.953
 3150TIP3    H231010   6.127   6.025   1.989
 3151TIP3   OH231011   2.672   4.865   0.911
 3151TIP3    H131012   2.768   4.872   0.911
 3151TIP3    H231013   2.648   4.866   1.003
 3152TIP3   OH231014   5.880   4.372   0.463
 3152TIP3    H131015   5.869   4.286   0.503
 3152TIP3    H231016   5.927   4.424   0.528
 3153TIP3   OH231017   2.617   0.030   1.245
 3153TIP3    H131018   2.529   0.066   1.249
 3153TIP3    H231019   2.609   6.837   1.193
 3154TIP3   OH231020   1.670   2.712   7.603
 3154TIP3    H131021   1.648   2.805   7.604
 3154TIP3    H231022   1.699   2.693   7.692
 3155TIP3   OH231023   6.672   4.450   7.988
 3155TIP3    H131024   6.612   4.377   7.973
 3155TIP3    H231025   6.634   4.497   8.062
 3156TIP3   OH231026   3.894   2.677   2.264
 3156TIP3    H131027   3.913   2.720   2.348
 3156TIP3    H231028   3.954   2.603   2.261
 3157TIP3   OH231029   3.805   6.492   8.533
 3157TIP3    H131030   3.803   6.430   8.606
 3157TIP3    H231031   3.897   6.499   8.510
 3158TIP3   OH231032   4.835   0.428   0.806
 3158TIP3    H131033   4.866   0.403   0.718
 3158TIP3    H231034   4.892   0.379   0.866
 3159TIP3   OH231035   4.142   5.171   6.733
 3159TIP3    H131036   4.058   5.126   6.744
 3159TIP3    H231037   4.207   5.101   6.741
 3160TIP3   OH231038   0.420   1.151   1.580
 3160TIP3    H131039   0.488   1.169   1.645
 3160TIP3    H231040   0.456   1.079   1.528
 3161TIP3   OH231041   2.139   6.313   8.258
 3161TIP3    H131042   2.128   6.353   8.171
 3161TIP3    H231043   2.148   6.219   8.240
 3162TIP3   OH231044   5.069   2.262   0.103
 3162TIP3    H131045   5.038   2.306   0.182
 3162TIP3    H231046   4.994   2.263   0.044
 3163TIP3   OH231047   4.960   6.100   1.823
 3163TIP3    H131048   4.898   6.096   1.895
 3163TIP3    H231049   5.037   6.053   1.855
 3164TIP3   OH231050   3.367   3.296   7.023
 3164TIP3    H131051   3.287   3.311   7.073
 3164TIP3    H231052   3.409   3.382   7.017
 3165TIP3   OH231053   1.208   5.669   2.140
 3165TIP3    H131054   1.259   5.695   2.216
 3165TIP3    H231055   1.197   5.749   2.089
 3166TIP3   OH231056   3.396   2.743   0.244
 3166TIP3    H131057   3.394   2.798   0.323
 3166TIP3    H231058   3.354   2.662   0.270
 3167TIP3   OH231059   2.204   0.627   7.325
 3167TIP3    H131060   2.215   0.550   7.270
 3167TIP3    H231061   2.245   0.604   7.408
 3168TIP3   OH231062   3.076   2.978   6.482
 3168TIP3    H131063   3.048   3.069   6.474
 3168TIP3    H231064   3.127   2.962   6.402
 3169TIP3   OH231065   2.505   0.853   1.581
 3169TIP3    H131066   2.496   0.881   1.490
 3169TIP3    H231067   2.431   0.793   1.595
 3170TIP3   OH231068   2.761   5.281   0.828
 3170TIP3    H131069   2.851   5.311   0.845
 3170TIP3    H231070   2.716   5.291   0.912
 3171TIP3   OH231071   1.216   6.614   0.952
 3171TIP3    H131072   1.278   6.604   1.025
 3171TIP3    H231073   1.217   6.529   0.908
 3172TIP3   OH231074   6.666   3.521   6.419
 3172TIP3    H131075   6.697   3.535   6.329
 3172TIP3    H231076   6.696   3.432   6.440
 3173TIP3   OH231077   5.969   1.771   6.458
 3173TIP3    H131078   5.964   1.761   6.553
 3173TIP3    H231079   5.902   1.836   6.437
 3174TIP3   OH231080   5.123   0.585   1.758
 3174TIP3    H131081   5.149   0.520   1.823
 3174TIP3    H231082   5.182   0.570   1.684
 3175TIP3   OH231083   3.789   3.036   1.553
 3175TIP3    H131084   3.853   3.053   1.484
 3175TIP3    H231085   3.743   3.119   1.564
 3176TIP3   OH231086   4.151   0.392   1.783
 3176TIP3    H131087   4.236   0.382   1.740
 3176TIP3    H231088   4.088   0.356   1.721
 3177TIP3   OH231089   6.508   5.692   2.093
 3177TIP3    H131090   6.478   5.708   2.183
 3177TIP3    H231091   6.429   5.697   2.040
 3178TIP3   OH231092   5.884   3.450   0.922
 3178TIP3    H131093   5.960   3.508   0.922
 3178TIP3    H231094   5.839   3.471   1.004
 3179TIP3   OH231095   2.321   1.113   7.936
 3179TIP3    H131096   2.305   1.063   7.856
 3179TIP3    H231097   2.375   1.055   7.990
 3180TIP3   OH231098   1.713   6.457   0.805
 3180TIP3    H131099   1.632   6.475   0.758
 3180TIP3    H231100   1.685   6.407   0.882
 3181TIP3   OH231101   2.219   1.145   1.366
 3181TIP3    H131102   2.294   1.087   1.354
 3181TIP3    H231103   2.179   1.116   1.449
 3182TIP3   OH231104   4.865   5.787   8.381
 3182TIP3    H131105   4.923   5.829   8.318
 3182TIP3    H231106   4.817   5.859   8.422
 3183TIP3   OH231107   1.780   4.444   7.353
 3183TIP3    H131108   1.875   4.438   7.341
 3183TIP3    H231109   1.746   4.365   7.311
 3184TIP3   OH231110   1.636   1.213   1.448
 3184TIP3    H131111   1.549   1.183   1.420
 3184TIP3    H231112   1.693   1.138   1.435
 3185TIP3   OH231113   4.971   3.035   1.304
 3185TIP3    H131114   4.905   2.978   1.345
 3185TIP3    H231115   5.042   3.038   1.367
 3186TIP3   OH231116   6.157   2.352   7.922
 3186TIP3    H131117   6.156   2.400   8.005
 3186TIP3    H231118   6.250   2.337   7.904
 3187TIP3   OH231119   2.669   3.188   7.679
 3187TIP3    H131120   2.624   3.266   7.648
 3187TIP3    H231121   2.754   3.191   7.636
 3188TIP3   OH231122   6.590   3.427   0.793
 3188TIP3    H131123   6.615   3.348   0.745
 3188TIP3    H231124   6.579   3.398   0.883
 3189TIP3   OH231125   3.631   5.808   8.421
 3189TIP3    H131126   3.687   5.751   8.472
 3189TIP3    H231127   3.665   5.802   8.331
 3190TIP3   OH231128   3.899   4.012   8.577
 3190TIP3    H131129   3.965   4.058   8.525
 3190TIP3    H231130   3.842   3.971   8.511
 3191TIP3   OH231131   3.200   3.445   0.202
 3191TIP3    H131132   3.126   3.482   0.251
 3191TIP3    H231133   3.162   3.420   0.118
 3192TIP3   OH231134   5.770   2.457   2.357
 3192TIP3    H131135   5.769   2.538   2.409
 3192TIP3    H231136   5.850   2.412   2.385
 3193TIP3   OH231137   2.980   0.495   7.761
 3193TIP3    H131138   2.922   0.540   7.823
 3193TIP3    H231139   2.925   0.427   7.722
 3194TIP3   OH231140   1.064   1.866   6.923
 3194TIP3    H131141   1.121   1.797   6.959
 3194TIP3    H231142   0.995   1.875   6.989
 3195TIP3   OH231143   1.192   6.379   2.121
 3195TIP3    H131144   1.166   6.393   2.030
 3195TIP3    H231145   1.132   6.435   2.171
 3196TIP3   OH231146   4.772   0.597   1.306
 3196TIP3    H131147   4.789   0.691   1.312
 3196TIP3    H231148   4.841   0.557   1.359
 3197TIP3   OH231149   4.125   1.658   2.130
 3197TIP3    H131150   4.158   1.748   2.140
 3197TIP3    H231151   4.121   1.646   2.035
 3198TIP3   OH231152   0.369   3.746   0.168
 3198TIP3    H131153   0.304   3.808   0.199
 3198TIP3    H231154   0.319   3.671   0.136
 3199TIP3   OH231155   6.110   2.278   0.776
 3199TIP3    H131156   6.109   2.350   0.839
 3199TIP3    H231157   6.043   2.302   0.712
 3200TIP3   OH231158   2.980   2.658   0.289
 3200TIP3    H131159   2.896   2.630   0.254
 3200TIP3    H231160   2.991   2.607   0.370
 3201TIP3   OH231161   0.445   3.551   8.069
 3201TIP3    H131162   0.402   3.499   8.002
 3201TIP3    H231163   0.453   3.492   8.144
 3202TIP3   OH231164   3.806   0.687   7.019
 3202TIP3    H131165   3.853   0.717   7.096
 3202TIP3    H231166   3.874   0.668   6.954
 3203TIP3   OH231167   2.762   3.403   7.473
 3203TIP3    H131168   2.745   3.483   7.521
 3203TIP3    H231169   2.738   3.423   7.382
 3204TIP3   OH231170   3.763   4.313   0.410
 3204TIP3    H131171   3.794   4.311   0.320
 3204TIP3    H231172   3.684   4.258   0.410
 3205TIP3   OH231173   4.487   0.346   6.618
 3205TIP3    H131174   4.481   0.276   6.682
 3205TIP3    H231175   4.555   0.404   6.651
 3206TIP3   OH231176   3.026   0.184   1.250
 3206TIP3    H131177   3.005   0.197   1.343
 3206TIP3    H231178   3.098   0.121   1.251
 3207TIP3   OH231179   4.591   6.658   2.242
 3207TIP3    H131180   4.679   6.626   2.263
 3207TIP3    H231181   4.540   6.580   2.224
 3208TIP3   OH231182   5.809   1.042   7.066
 3208TIP3    H131183   5.764   1.056   6.982
 3208TIP3    H231184   5.743   1.064   7.132
 3209TIP3   OH231185   4.153   0.871   8.046
 3209TIP3    H131186   4.137   0.784   8.009
 3209TIP3    H231187   4.216   0.855   8.117
 3210TIP3   OH231188   1.274   3.329   6.331
 3210TIP3    H131189   1.333   3.311   6.258
 3210TIP3    H231190   1.187   3.309   6.297
 3211TIP3   OH231191   3.773   5.170   0.861
 3211TIP3    H131192   3.735   5.243   0.910
 3211TIP3    H231193   3.820   5.211   0.788
 3212TIP3   OH231194   0.404   4.444   1.385
 3212TIP3    H131195   0.435   4.466   1.473
 3212TIP3    H231196   0.352   4.520   1.358
 3213TIP3   OH231197   2.660   3.810   0.520
 3213TIP3    H131198   2.703   3.772   0.444
 3213TIP3    H231199   2.570   3.827   0.492
 3214TIP3   OH231200   3.587   0.147   0.986
 3214TIP3    H131201   3.639   0.075   0.951
 3214TIP3    H231202   3.651   0.201   1.033
 3215TIP3   OH231203   1.201   5.266   2.528
 3215TIP3    H131204   1.241   5.351   2.546
 3215TIP3    H231205   1.114   5.287   2.494
 3216TIP3   OH231206   1.313   0.594   1.811
 3216TIP3    H131207   1.309   0.612   1.717
 3216TIP3    H231208   1.389   0.536   1.821
 3217TIP3   OH231209   3.147   5.459   6.490
 3217TIP3    H131210   3.188   5.418   6.414
 3217TIP3    H231211   3.205   5.532   6.512
 3218TIP3   OH231212   4.069   6.076   1.320
 3218TIP3    H131213   4.058   6.156   1.372
 3218TIP3    H231214   4.076   6.006   1.384
 3219TIP3   OH231215   4.623   0.429   1.138
 3219TIP3    H131216   4.549   0.481   1.105
 3219TIP3    H231217   4.691   0.493   1.156
 3220TIP3   OH231218   2.733   2.589   0.179
 3220TIP3    H131219   2.697   2.515   0.130
 3220TIP3    H231220   2.672   2.661   0.164
 3221TIP3   OH231221   4.097   5.768   1.090
 3221TIP3    H131222   4.172   5.826   1.103
 3221TIP3    H231223   4.132   5.698   1.034
 3222TIP3   OH231224   3.257   0.348   8.409
 3222TIP3    H131225   3.322   0.404   8.453
 3222TIP3    H231226   3.304   0.267   8.391
 3223TIP3   OH231227   6.567   3.792   1.873
 3223TIP3    H131228   6.560   3.697   1.874
 3223TIP3    H231229   6.550   3.819   1.963
 3224TIP3   OH231230   3.105   6.744   6.252
 3224TIP3    H131231   3.012   6.739   6.228
 3224TIP3    H231232   3.137   6.823   6.208
 3225TIP3   OH231233   0.276   6.216   6.708
 3225TIP3    H131234   0.349   6.156   6.692
 3225TIP3    H231235   0.225   6.215   6.626
 3226TIP3   OH231236   4.201   4.635   6.852
 3226TIP3    H131237   4.229   4.590   6.773
 3226TIP3    H231238   4.216   4.573   6.923
 3227TIP3   OH231239   4.054   6.022   0.078
 3227TIP3    H131240   4.130   6.021   0.020
 3227TIP3    H231241   3.984   5.983   0.025
 3228TIP3   OH231242   2.441   3.490   1.011
 3228TIP3    H131243   2.470   3.449   1.092
 3228TIP3    H231244   2.519   3.535   0.978
 3229TIP3   OH231245   1.153   2.584   6.918
 3229TIP3    H131246   1.103   2.510   6.883
 3229TIP3    H231247   1.189   2.552   7.001
 3230TIP3   OH231248   1.491   0.303   8.441
 3230TIP3    H131249   1.498   0.208   8.435
 3230TIP3    H231250   1.555   0.327   8.508
 3231TIP3   OH231251   0.983   3.449   8.509
 3231TIP3    H131252   0.893   3.449   8.541
 3231TIP3    H231253   0.977   3.480   8.419
 3232TIP3   OH231254   1.585   3.663   1.232
 3232TIP3    H131255   1.497   3.662   1.196
 3232TIP3    H231256   1.615   3.572   1.225
 3233TIP3   OH231257   1.268   1.883   1.326
 3233TIP3    H131258   1.269   1.847   1.415
 3233TIP3    H231259   1.254   1.977   1.338
 3234TIP3   OH231260   5.884   1.345   1.546
 3234TIP3    H131261   5.804   1.323   1.499
 3234TIP3    H231262   5.943   1.271   1.530
 3235TIP3   OH231263   6.328   4.565   0.942
 3235TIP3    H131264   6.398   4.518   0.896
 3235TIP3    H231265   6.253   4.506   0.939
 3236TIP3   OH231266   6.608   4.201   7.905
 3236TIP3    H131267   6.576   4.132   7.845
 3236TIP3    H231268   6.680   4.160   7.952
 3237TIP3   OH231269   0.198   6.102   7.271
 3237TIP3    H131270   0.202   6.058   7.186
 3237TIP3    H231271   0.283   6.085   7.311
 3238TIP3   OH231272   0.127   2.857   6.588
 3238TIP3    H131273   0.078   2.933   6.557
 3238TIP3    H231274   0.061   2.796   6.618
 3239TIP3   OH231275   3.995   3.057   1.372
 3239TIP3    H131276   3.912   3.042   1.326
 3239TIP3    H231277   4.041   3.121   1.318
 3240TIP3   OH231278   1.064   3.450   8.115
 3240TIP3    H131279   1.020   3.430   8.032
 3240TIP3    H231280   0.993   3.454   8.179
 3241TIP3   OH231281   2.697   2.017   6.315
 3241TIP3    H131282   2.717   1.925   6.297
 3241TIP3    H231283   2.634   2.041   6.246
 3242TIP3   OH231284   1.039   5.951   0.021
 3242TIP3    H131285   0.997   5.960   0.106
 3242TIP3    H231286   1.103   5.880   0.034
 3243TIP3   OH231287   0.283   0.533   7.528
 3243TIP3    H131288   0.378   0.521   7.522
 3243TIP3    H231289   0.270   0.582   7.609
 3244TIP3   OH231290   2.980   1.393   0.064
 3244TIP3    H131291   2.997   1.312   0.016
 3244TIP3    H231292   2.911   1.371   0.126
 3245TIP3   OH231293   3.049   6.535   8.314
 3245TIP3    H131294   3.041   6.598   8.242
 3245TIP3    H231295   3.116   6.474   8.285
 3246TIP3   OH231296   5.671   6.719   7.573
 3246TIP3    H131297   5.711   6.742   7.489
 3246TIP3    H231298   5.579   6.704   7.552
 3247TIP3   OH231299   0.534   6.652   6.476
 3247TIP3    H131300   0.510   6.735   6.516
 3247TIP3    H231301   0.588   6.608   6.542
 3248TIP3   OH231302   2.839   0.384   6.668
 3248TIP3    H131303   2.798   0.308   6.626
 3248TIP3    H231304   2.766   0.431   6.707
 3249TIP3   OH231305   4.312   3.374   1.090
 3249TIP3    H131306   4.269   3.289   1.092
 3249TIP3    H231307   4.260   3.429   1.149
 3250TIP3   OH231308   0.455   3.307   0.701
 3250TIP3    H131309   0.443   3.368   0.773
 3250TIP3    H231310   0.487   3.361   0.629
 3251TIP3   OH231311   0.102   2.160   1.822
 3251TIP3    H131312   0.015   2.194   1.842
 3251TIP3    H231313   0.097   2.067   1.844
 3252TIP3   OH231314   3.744   6.771   0.928
 3252TIP3    H131315   3.726   6.681   0.900
 3252TIP3    H231316   3.786   6.761   1.013
 3253TIP3   OH231317   2.748   6.063   7.004
 3253TIP3    H131318   2.733   6.019   6.921
 3253TIP3    H231319   2.802   6.002   7.054
 3254TIP3   OH231320   2.731   6.118   1.057
 3254TIP3    H131321   2.744   6.176   0.982
 3254TIP3    H231322   2.648   6.074   1.040
 3255TIP3   OH231323   3.054   1.244   6.639
 3255TIP3    H131324   2.972   1.199   6.619
 3255TIP3    H231325   3.050   1.325   6.588
 3256TIP3   OH231326   4.643   0.236   7.465
 3256TIP3    H131327   4.630   0.317   7.416
 3256TIP3    H231328   4.728   0.247   7.507
 3257TIP3   OH231329   6.479   1.528   6.763
 3257TIP3    H131330   6.567   1.542   6.798
 3257TIP3    H231331   6.494   1.494   6.674
 3258TIP3   OH231332   6.585   1.532   1.215
 3258TIP3    H131333   6.674   1.558   1.194
 3258TIP3    H231334   6.532   1.609   1.194
 3259TIP3   OH231335   4.930   4.508   0.045
 3259TIP3    H131336   5.018   4.544   0.047
 3259TIP3    H231337   4.875   4.577   0.082
 3260TIP3   OH231338   0.087   3.968   6.578
 3260TIP3    H131339   0.151   3.987   6.509
 3260TIP3    H231340   0.005   3.957   6.530
 3261TIP3   OH231341   0.053   3.880   7.118
 3261TIP3    H131342   0.057   3.945   7.048
 3261TIP3    H231343   6.887   3.809   7.082
 3262TIP3   OH231344   0.823   1.864   0.269
 3262TIP3    H131345   0.783   1.908   0.194
 3262TIP3    H231346   0.820   1.929   0.339
 3263TIP3   OH231347   5.370   6.612   1.369
 3263TIP3    H131348   5.426   6.685   1.395
 3263TIP3    H231349   5.306   6.604   1.440
 3264TIP3   OH231350   2.241   0.556   2.156
 3264TIP3    H131351   2.253   0.465   2.126
 3264TIP3    H231352   2.150   0.576   2.134
 3265TIP3   OH231353   0.256   3.358   1.239
 3265TIP3    H131354   0.190   3.415   1.199
 3265TIP3    H231355   0.251   3.377   1.333
 3266TIP3   OH231356   4.398   0.569   1.175
 3266TIP3    H131357   4.456   0.632   1.133
 3266TIP3    H231358   4.436   0.555   1.262
 3267TIP3   OH231359   1.157   6.441   1.807
 3267TIP3    H131360   1.068   6.476   1.816
 3267TIP3    H231361   1.213   6.519   1.801
 3268TIP3   OH231362   4.336   2.329   8.315
 3268TIP3    H131363   4.432   2.332   8.310
 3268TIP3    H231364   4.311   2.415   8.350
 3269TIP3   OH231365   4.808   3.898   2.477
 3269TIP3    H131366   4.732   3.881   2.533
 3269TIP3    H231367   4.800   3.835   2.406
 3270TIP3   OH231368   4.794   2.441   7.346
 3270TIP3    H131369   4.756   2.412   7.429
 3270TIP3    H231370   4.857   2.373   7.323
 3271TIP3   OH231371   4.998   6.795   7.465
 3271TIP3    H131372   5.066   6.859   7.442
 3271TIP3    H231373   4.920   6.825   7.419
 3272TIP3   OH231374   4.975   4.723   7.807
 3272TIP3    H131375   4.918   4.654   7.842
 3272TIP3    H231376   5.016   4.683   7.730
 3273TIP3   OH231377   2.254   2.282   8.490
 3273TIP3    H131378   2.200   2.333   8.429
 3273TIP3    H231379   2.198   2.210   8.518
 3274TIP3   OH231380   3.525   5.548   7.881
 3274TIP3    H131381   3.449   5.605   7.873
 3274TIP3    H231382   3.521   5.491   7.804
 3275TIP3   OH231383   1.452   2.065   7.547
 3275TIP3    H131384   1.453   2.152   7.507
 3275TIP3    H231385   1.365   2.058   7.587
 3276TIP3   OH231386   4.832   3.691   1.168
 3276TIP3    H131387   4.812   3.784   1.165
 3276TIP3    H231388   4.924   3.687   1.193
 3277TIP3   OH231389   4.946   2.240   0.466
 3277TIP3    H131390   4.899   2.253   0.548
 3277TIP3    H231391   4.885   2.267   0.398
 3278TIP3   OH231392   5.845   1.201   1.080
 3278TIP3    H131393   5.917   1.142   1.060
 3278TIP3    H231394   5.834   1.193   1.175
 3279TIP3   OH231395   1.804   3.738   0.863
 3279TIP3    H131396   1.819   3.795   0.788
 3279TIP3    H231397   1.782   3.798   0.935
 3280TIP3   OH231398   0.267   5.989   8.120
 3280TIP3    H131399   0.242   5.967   8.030
 3280TIP3    H231400   0.362   5.981   8.121
 3281TIP3   OH231401   4.978   4.375   7.071
 3281TIP3    H131402   5.047   4.437   7.095
 3281TIP3    H231403   5.023   4.291   7.061
 3282TIP3   OH231404   0.981   4.343   2.572
 3282TIP3    H131405   1.054   4.304   2.620
 3282TIP3    H231406   0.922   4.271   2.554
 3283TIP3   OH231407   2.858   4.170   7.338
 3283TIP3    H131408   2.846   4.085   7.294
 3283TIP3    H231409   2.808   4.232   7.285
 3284TIP3   OH231410   2.810   2.101   6.886
 3284TIP3    H131411   2.854   2.183   6.907
 3284TIP3    H231412   2.829   2.043   6.960
 3285TIP3   OH231413   4.890   1.959   0.968
 3285TIP3    H131414   4.901   1.913   0.885
 3285TIP3    H231415   4.971   2.008   0.978
 3286TIP3   OH231416   3.560   0.610   7.146
 3286TIP3    H131417   3.619   0.631   7.074
 3286TIP3    H231418   3.574   0.681   7.209
 3287TIP3   OH231419   5.784   5.033   0.547
 3287TIP3    H131420   5.775   5.039   0.642
 3287TIP3    H231421   5.839   5.107   0.523
 3288TIP3   OH231422   5.624   6.562   0.972
 3288TIP3    H131423   5.574   6.555   0.891
 3288TIP3    H231424   5.578   6.629   1.023
 3289TIP3   OH231425   3.026   3.343   6.705
 3289TIP3    H131426   3.064   3.307   6.626
 3289TIP3    H231427   2.933   3.353   6.685
 3290TIP3   OH231428   4.052   1.447   1.319
 3290TIP3    H131429   4.072   1.432   1.227
 3290TIP3    H231430   4.046   1.543   1.327
 3291TIP3   OH231431   5.941   3.016   0.023
 3291TIP3    H131432   5.964   3.016   8.544
 3291TIP3    H231433   6.024   3.000   0.069
 3292TIP3   OH231434   0.187   5.960   1.709
 3292TIP3    H131435   0.218   6.012   1.635
 3292TIP3    H231436   0.203   6.016   1.786
 3293TIP3   OH231437   5.345   4.922   1.276
 3293TIP3    H131438   5.379   5.011   1.275
 3293TIP3    H231439   5.254   4.932   1.306
 3294TIP3   OH231440   0.987   6.521   8.317
 3294TIP3    H131441   1.031   6.594   8.359
 3294TIP3    H231442   1.001   6.447   8.376
 3295TIP3   OH231443   5.823   3.676   8.378
 3295TIP3    H131444   5.823   3.666   8.283
 3295TIP3    H231445   5.737   3.643   8.405
 3296TIP3   OH231446   6.843   3.603   1.898
 3296TIP3    H131447   6.796   3.540   1.954
 3296TIP3    H231448   6.809   3.587   1.810
 3297TIP3   OH231449   3.112   1.980   6.584
 3297TIP3    H131450   3.092   1.888   6.601
 3297TIP3    H231451   3.044   2.009   6.524
 3298TIP3   OH231452   0.778   4.555   1.009
 3298TIP3    H131453   0.722   4.578   0.935
 3298TIP3    H231454   0.841   4.493   0.973
 3299TIP3   OH231455   3.599   3.272   7.414
 3299TIP3    H131456   3.612   3.338   7.346
 3299TIP3    H231457   3.515   3.231   7.392
 3300TIP3   OH231458   3.677   1.251   1.517
 3300TIP3    H131459   3.681   1.302   1.436
 3300TIP3    H231460   3.628   1.306   1.578
 3301TIP3   OH231461   4.268   4.050   0.442
 3301TIP3    H131462   4.207   3.977   0.433
 3301TIP3    H231463   4.286   4.055   0.536
 3302TIP3   OH231464   3.861   1.120   7.774
 3302TIP3    H131465   3.896   1.100   7.861
 3302TIP3    H231466   3.858   1.035   7.729
 3303TIP3   OH231467   3.388   1.570   7.027
 3303TIP3    H131468   3.433   1.513   6.965
 3303TIP3    H231469   3.430   1.553   7.111
 3304TIP3   OH231470   2.855   6.601   2.215
 3304TIP3    H131471   2.947   6.579   2.199
 3304TIP3    H231472   2.848   6.605   2.310
 3305TIP3   OH231473   4.069   5.747   8.266
 3305TIP3    H131474   4.053   5.684   8.336
 3305TIP3    H231475   4.084   5.693   8.188
 3306TIP3   OH231476   1.558   5.899   1.106
 3306TIP3    H131477   1.480   5.854   1.138
 3306TIP3    H231478   1.583   5.957   1.179
 3307TIP3   OH231479   6.711   4.149   8.295
 3307TIP3    H131480   6.656   4.177   8.222
 3307TIP3    H231481   6.797   4.188   8.277
 3308TIP3   OH231482   0.545   2.232   1.112
 3308TIP3    H131483   0.535   2.165   1.180
 3308TIP3    H231484   0.535   2.315   1.159
 3309TIP3   OH231485   6.380   4.099   0.742
 3309TIP3    H131486   6.355   4.179   0.696
 3309TIP3    H231487   6.389   4.034   0.672
 3310TIP3   OH231488   2.209   5.295   8.486
 3310TIP3    H131489   2.224   5.222   8.426
 3310TIP3    H231490   2.132   5.339   8.450
 3311TIP3   OH231491   5.110   4.398   7.369
 3311TIP3    H131492   5.188   4.349   7.345
 3311TIP3    H231493   5.093   4.455   7.293
 3312TIP3   OH231494   3.415   4.687   0.961
 3312TIP3    H131495   3.332   4.714   0.920
 3312TIP3    H231496   3.483   4.730   0.908
 3313TIP3   OH231497   1.803   0.761   0.564
 3313TIP3    H131498   1.710   0.741   0.577
 3313TIP3    H231499   1.831   0.803   0.645
 3314TIP3   OH231500   6.076   5.238   0.831
 3314TIP3    H131501   6.142   5.171   0.815
 3314TIP3    H231502   6.056   5.272   0.744
 3315TIP3   OH231503   4.266   5.912   7.865
 3315TIP3    H131504   4.183   5.959   7.869
 3315TIP3    H231505   4.262   5.851   7.938
 3316TIP3   OH231506   6.332   0.383   7.285
 3316TIP3    H131507   6.307   0.445   7.216
 3316TIP3    H231508   6.347   0.438   7.362
 3317TIP3   OH231509   6.079   3.243   7.689
 3317TIP3    H131510   6.092   3.318   7.746
 3317TIP3    H231511   6.115   3.270   7.604
 3318TIP3   OH231512   6.667   6.277   7.219
 3318TIP3    H131513   6.649   6.367   7.246
 3318TIP3    H231514   6.662   6.226   7.299
 3319TIP3   OH231515   2.686   1.925   7.654
 3319TIP3    H131516   2.685   2.020   7.644
 3319TIP3    H231517   2.596   1.903   7.677
 3320TIP3   OH231518   2.944   6.779   0.318
 3320TIP3    H131519   2.925   6.816   0.232
 3320TIP3    H231520   2.870   6.720   0.336
 3321TIP3   OH231521   6.363   0.858   7.810
 3321TIP3    H131522   6.274   0.873   7.779
 3321TIP3    H231523   6.363   0.769   7.845
 3322TIP3   OH231524   3.510   3.519   8.161
 3322TIP3    H131525   3.558   3.438   8.178
 3322TIP3    H231526   3.522   3.535   8.067
 3323TIP3   OH231527   4.334   4.442   1.044
 3323TIP3    H131528   4.299   4.525   1.012
 3323TIP3    H231529   4.260   4.399   1.087
 3324TIP3   OH231530   1.472   1.531   1.508
 3324TIP3    H131531   1.501   1.620   1.485
 3324TIP3    H231532   1.416   1.543   1.585
 3325TIP3   OH231533   0.721   4.734   0.284
 3325TIP3    H131534   0.779   4.672   0.240
 3325TIP3    H231535   0.670   4.680   0.345
 3326TIP3   OH231536   6.539   0.257   7.989
 3326TIP3    H131537   6.446   0.277   7.981
 3326TIP3    H231538   6.543   0.163   8.006
 3327TIP3   OH231539   0.188   0.220   1.563
 3327TIP3    H131540   0.281   0.239   1.577
 3327TIP3    H231541   0.142   0.291   1.607
 3328TIP3   OH231542   0.029   2.942   0.711
 3328TIP3    H131543   0.014   2.983   0.626
 3328TIP3    H231544   0.124   2.927   0.714
 3329TIP3   OH231545   3.144   1.525   2.520
 3329TIP3    H131546   3.209   1.581   2.562
 3329TIP3    H231547   3.185   1.498   2.438
 3330TIP3   OH231548   0.309   1.258   0.316
 3330TIP3    H131549   0.315   1.280   0.409
 3330TIP3    H231550   0.286   1.341   0.273
 3331TIP3   OH231551   0.106   4.787   2.693
 3331TIP3    H131552   0.057   4.849   2.638
 3331TIP3    H231553   0.185   4.769   2.642
 3332TIP3   OH231554   1.789   3.862   1.931
 3332TIP3    H131555   1.814   3.771   1.917
 3332TIP3    H231556   1.821   3.881   2.020
 3333TIP3   OH231557   2.849   4.987   1.230
 3333TIP3    H131558   2.849   5.021   1.320
 3333TIP3    H231559   2.768   4.937   1.224
 3334TIP3   OH231560   0.652   2.236   0.276
 3334TIP3    H131561   0.638   2.149   0.239
 3334TIP3    H231562   0.684   2.219   0.365
 3335TIP3   OH231563   2.165   6.087   0.725
 3335TIP3    H131564   2.255   6.077   0.694
 3335TIP3    H231565   2.155   6.018   0.791
 3336TIP3   OH231566   3.521   1.679   1.013
 3336TIP3    H131567   3.541   1.645   1.100
 3336TIP3    H231568   3.586   1.748   0.998
 3337TIP3   OH231569   5.344   4.168   1.099
 3337TIP3    H131570   5.255   4.199   1.112
 3337TIP3    H231571   5.399   4.244   1.118
 3338TIP3   OH231572   0.926   3.207   1.797
 3338TIP3    H131573   0.929   3.148   1.722
 3338TIP3    H231574   0.902   3.292   1.760
 3339TIP3   OH231575   6.745   6.189   0.457
 3339TIP3    H131576   6.662   6.153   0.424
 3339TIP3    H231577   6.719   6.268   0.505
 3340TIP3   OH231578   0.755   0.898   0.279
 3340TIP3    H131579   0.824   0.865   0.221
 3340TIP3    H231580   0.735   0.985   0.244
 3341TIP3   OH231581   0.579   1.611   7.876
 3341TIP3    H131582   0.632   1.569   7.945
 3341TIP3    H231583   0.620   1.584   7.795
 3342TIP3   OH231584   0.609   1.520   6.779
 3342TIP3    H131585   0.613   1.553   6.689
 3342TIP3    H231586   0.673   1.448   6.781
 3343TIP3   OH231587   0.552   4.560   8.394
 3343TIP3    H131588   0.638   4.523   8.415
 3343TIP3    H231589   0.537   4.625   8.463
 3344TIP3   OH231590   3.392   2.469   7.259
 3344TIP3    H131591   3.442   2.387   7.257
 3344TIP3    H231592   3.413   2.507   7.344
 3345TIP3   OH231593   6.356   1.518   0.236
 3345TIP3    H131594   6.277   1.469   0.256
 3345TIP3    H231595   6.419   1.451   0.209
 3346TIP3   OH231596   6.657   4.784   7.972
 3346TIP3    H131597   6.745   4.765   8.003
 3346TIP3    H231598   6.607   4.804   8.051
 3347TIP3   OH231599   3.780   2.785   7.100
 3347TIP3    H131600   3.861   2.825   7.131
 3347TIP3    H231601   3.710   2.841   7.135
 3348TIP3   OH231602   1.269   6.579   0.111
 3348TIP3    H131603   1.277   6.605   0.019
 3348TIP3    H231604   1.354   6.600   0.149
 3349TIP3   OH231605   0.461   5.590   7.611
 3349TIP3    H131606   0.393   5.600   7.544
 3349TIP3    H231607   0.539   5.563   7.563
 3350TIP3   OH231608   0.563   5.948   7.813
 3350TIP3    H131609   0.652   5.981   7.799
 3350TIP3    H231610   0.509   6.026   7.817
 3351TIP3   OH231611   4.678   3.273   1.291
 3351TIP3    H131612   4.620   3.232   1.355
 3351TIP3    H231613   4.702   3.201   1.231
 3352TIP3   OH231614   5.442   0.961   0.131
 3352TIP3    H131615   5.528   1.004   0.130
 3352TIP3    H231616   5.409   0.976   0.220
 3353TIP3   OH231617   2.802   1.804   1.469
 3353TIP3    H131618   2.868   1.810   1.538
 3353TIP3    H231619   2.725   1.847   1.506
 3354TIP3   OH231620   2.420   2.431   0.703
 3354TIP3    H131621   2.348   2.410   0.644
 3354TIP3    H231622   2.419   2.527   0.709
 3355TIP3   OH231623   3.709   2.870   0.382
 3355TIP3    H131624   3.780   2.806   0.379
 3355TIP3    H231625   3.681   2.879   0.291
 3356TIP3   OH231626   3.543   2.821   6.814
 3356TIP3    H131627   3.527   2.796   6.905
 3356TIP3    H231628   3.457   2.825   6.774
 3357TIP3   OH231629   3.896   2.174   1.118
 3357TIP3    H131630   3.808   2.193   1.084
 3357TIP3    H231631   3.953   2.178   1.041
 3358TIP3   OH231632   5.894   6.156   0.716
 3358TIP3    H131633   5.934   6.196   0.638
 3358TIP3    H231634   5.821   6.214   0.737
 3359TIP3   OH231635   3.448   2.409   6.267
 3359TIP3    H131636   3.363   2.386   6.306
 3359TIP3    H231637   3.425   2.449   6.183
 3360TIP3   OH231638   4.542   6.641   7.205
 3360TIP3    H131639   4.476   6.606   7.145
 3360TIP3    H231640   4.494   6.706   7.257
 3361TIP3   OH231641   4.342   0.974   0.631
 3361TIP3    H131642   4.289   1.023   0.568
 3361TIP3    H231643   4.297   0.890   0.640
 3362TIP3   OH231644   6.748   5.769   7.468
 3362TIP3    H131645   6.811   5.699   7.452
 3362TIP3    H231646   6.679   5.754   7.404
 3363TIP3   OH231647   5.783   2.624   0.824
 3363TIP3    H131648   5.778   2.586   0.912
 3363TIP3    H231649   5.858   2.683   0.828
 3364TIP3   OH231650   0.931   0.282   7.155
 3364TIP3    H131651   0.951   0.188   7.162
 3364TIP3    H231652   1.002   0.325   7.202
 3365TIP3   OH231653   6.490   5.081   0.830
 3365TIP3    H131654   6.539   5.133   0.893
 3365TIP3    H231655   6.539   5.091   0.748
 3366TIP3   OH231656   0.849   3.934   1.475
 3366TIP3    H131657   0.868   3.922   1.568
 3366TIP3    H231658   0.856   3.846   1.438
 3367TIP3   OH231659   0.465   1.779   6.518
 3367TIP3    H131660   0.536   1.715   6.518
 3367TIP3    H231661   0.385   1.727   6.527
 3368TIP3   OH231662   3.696   2.435   1.577
 3368TIP3    H131663   3.771   2.490   1.555
 3368TIP3    H231664   3.645   2.487   1.638
 3369TIP3   OH231665   1.767   1.253   8.591
 3369TIP3    H131666   1.771   1.239   8.496
 3369TIP3    H231667   1.680   1.290   8.606
 3370TIP3   OH231668   0.572   1.402   1.477
 3370TIP3    H131669   0.522   1.345   1.535
 3370TIP3    H231670   0.664   1.382   1.496
 3371TIP3   OH231671   3.989   3.365   0.333
 3371TIP3    H131672   3.907   3.386   0.288
 3371TIP3    H231673   4.013   3.447   0.377
 3372TIP3   OH231674   2.415   4.740   8.233
 3372TIP3    H131675   2.469   4.745   8.154
 3372TIP3    H231676   2.359   4.663   8.219
 3373TIP3   OH231677   1.939   0.208   0.580
 3373TIP3    H131678   1.899   0.245   0.501
 3373TIP3    H231679   2.033   0.208   0.561
 3374TIP3   OH231680   1.636   5.340   7.408
 3374TIP3    H131681   1.568   5.375   7.467
 3374TIP3    H231682   1.637   5.246   7.425
 3375TIP3   OH231683   5.438   6.534   7.875
 3375TIP3    H131684   5.358   6.492   7.843
 3375TIP3    H231685   5.462   6.483   7.952
 3376TIP3   OH231686   1.777   5.653   0.641
 3376TIP3    H131687   1.711   5.657   0.572
 3376TIP3    H231688   1.856   5.688   0.600
 3377TIP3   OH231689   5.130   4.726   6.863
 3377TIP3    H131690   5.087   4.809   6.886
 3377TIP3    H231691   5.197   4.751   6.799
 3378TIP3   OH231692   2.562   1.000   7.067
 3378TIP3    H131693   2.625   0.930   7.051
 3378TIP3    H231694   2.485   0.956   7.101
 3379TIP3   OH231695   2.154   3.929   0.881
 3379TIP3    H131696   2.241   3.953   0.911
 3379TIP3    H231697   2.139   3.842   0.917
 3380TIP3   OH231698   6.305   4.667   8.049
 3380TIP3    H131699   6.224   4.635   8.008
 3380TIP3    H231700   6.350   4.589   8.079
 3381TIP3   OH231701   0.177   6.410   1.564
 3381TIP3    H131702   0.184   6.355   1.642
 3381TIP3    H231703   0.090   6.449   1.569
 3382TIP3   OH231704   2.845   6.368   0.116
 3382TIP3    H131705   2.785   6.416   0.173
 3382TIP3    H231706   2.917   6.342   0.174
 3383TIP3   OH231707   4.205   6.163   1.686
 3383TIP3    H131708   4.238   6.136   1.771
 3383TIP3    H231709   4.113   6.186   1.702
 3384TIP3   OH231710   4.846   0.043   7.182
 3384TIP3    H131711   4.841   0.072   7.091
 3384TIP3    H231712   4.880   0.119   7.230
 3385TIP3   OH231713   5.406   6.650   7.541
 3385TIP3    H131714   5.404   6.618   7.450
 3385TIP3    H231715   5.324   6.699   7.551
 3386TIP3   OH231716   1.287   0.171   5.999
 3386TIP3    H131717   1.366   0.201   6.044
 3386TIP3    H231718   1.289   0.076   6.006
 3387TIP3   OH231719   6.157   1.343   6.035
 3387TIP3    H131720   6.213   1.420   6.051
 3387TIP3    H231721   6.188   1.308   5.952
 3388TIP3   OH231722   6.817   3.116   7.010
 3388TIP3    H131723   6.790   3.057   7.081
 3388TIP3    H231724   6.813   3.061   6.932
 3389TIP3   OH231725   0.188   2.971   8.548
 3389TIP3    H131726   0.100   2.935   8.530
 3389TIP3    H231727   0.243   2.893   8.561
 3390TIP3   OH231728   2.024   5.305   0.341
 3390TIP3    H131729   1.986   5.388   0.313
 3390TIP3    H231730   2.055   5.264   0.260
 3391TIP3   OH231731   1.869   2.119   0.085
 3391TIP3    H131732   1.889   2.199   0.134
 3391TIP3    H231733   1.846   2.150   8.611
 3392TIP3   OH231734   1.056   2.112   6.442
 3392TIP3    H131735   1.151   2.109   6.452
 3392TIP3    H231736   1.042   2.092   6.349
 3393TIP3   OH231737   2.928   6.081   0.409
 3393TIP3    H131738   2.984   6.086   0.332
 3393TIP3    H231739   2.952   5.999   0.451
 3394TIP3   OH231740   3.595   3.234   1.321
 3394TIP3    H131741   3.641   3.230   1.405
 3394TIP3    H231742   3.599   3.144   1.287
 3395TIP3   OH231743   4.498   6.822   1.773
 3395TIP3    H131744   4.462   6.765   1.842
 3395TIP3    H231745   4.513   6.763   1.699
 3396TIP3   OH231746   4.653   0.289   2.714
 3396TIP3    H131747   4.560   0.302   2.696
 3396TIP3    H231748   4.686   0.240   2.638
 3397TIP3   OH231749   3.225   2.513   0.286
 3397TIP3    H131750   3.166   2.503   0.361
 3397TIP3    H231751   3.167   2.502   0.210
 3398TIP3   OH231752   0.955   5.493   7.367
 3398TIP3    H131753   0.957   5.452   7.280
 3398TIP3    H231754   0.987   5.424   7.426
 3399TIP3   OH231755   4.251   2.114   0.848
 3399TIP3    H131756   4.252   2.184   0.913
 3399TIP3    H231757   4.332   2.065   0.864
 3400TIP3   OH231758   5.917   3.827   1.676
 3400TIP3    H131759   6.008   3.834   1.706
 3400TIP3    H231760   5.919   3.759   1.608
 3401TIP3   OH231761   2.258   3.745   8.399
 3401TIP3    H131762   2.295   3.768   8.484
 3401TIP3    H231763   2.220   3.827   8.366
 3402TIP3   OH231764   2.250   6.202   6.128
 3402TIP3    H131765   2.309   6.173   6.197
 3402TIP3    H231766   2.217   6.287   6.159
 3403TIP3   OH231767   6.788   4.638   1.916
 3403TIP3    H131768   6.869   4.605   1.875
 3403TIP3    H231769   6.727   4.647   1.843
 3404TIP3   OH231770   0.819   4.671   1.285
 3404TIP3    H131771   0.726   4.651   1.287
 3404TIP3    H231772   0.850   4.634   1.202
 3405TIP3   OH231773   1.466   5.535   8.590
 3405TIP3    H131774   1.372   5.519   8.604
 3405TIP3    H231775   1.483   5.500   8.502
 3406TIP3   OH231776   3.293   2.801   6.694
 3406TIP3    H131777   3.348   2.834   6.624
 3406TIP3    H231778   3.208   2.785   6.653
 3407TIP3   OH231779   3.243   3.590   6.679
 3407TIP3    H131780   3.313   3.656   6.684
 3407TIP3    H231781   3.278   3.523   6.620
 3408TIP3   OH231782   0.370   5.810   0.382
 3408TIP3    H131783   0.348   5.750   0.453
 3408TIP3    H231784   0.289   5.815   0.330
 3409TIP3   OH231785   3.601   4.635   1.640
 3409TIP3    H131786   3.593   4.597   1.727
 3409TIP3    H231787   3.666   4.705   1.650
 3410TIP3   OH231788   2.084   3.234   8.459
 3410TIP3    H131789   1.999   3.279   8.462
 3410TIP3    H231790   2.145   3.296   8.501
 3411TIP3   OH231791   1.960   5.346   7.639
 3411TIP3    H131792   2.021   5.381   7.703
 3411TIP3    H231793   2.007   5.351   7.556
 3412TIP3   OH231794   1.277   5.032   6.945
 3412TIP3    H131795   1.347   4.974   6.916
 3412TIP3    H231796   1.238   5.065   6.864
 3413TIP3   OH231797   2.235   1.207   1.042
 3413TIP3    H131798   2.211   1.175   1.129
 3413TIP3    H231799   2.155   1.199   0.990
 3414TIP3   OH231800   5.231   1.709   7.814
 3414TIP3    H131801   5.277   1.688   7.733
 3414TIP3    H231802   5.200   1.625   7.847
 3415TIP3   OH231803   2.566   2.576   1.292
 3415TIP3    H131804   2.573   2.487   1.258
 3415TIP3    H231805   2.537   2.565   1.382
 3416TIP3   OH231806   2.358   2.667   1.159
 3416TIP3    H131807   2.373   2.713   1.241
 3416TIP3    H231808   2.436   2.612   1.149
 3417TIP3   OH231809   2.584   5.411   7.024
 3417TIP3    H131810   2.629   5.356   6.959
 3417TIP3    H231811   2.491   5.390   7.013
 3418TIP3   OH231812   5.707   5.413   0.659
 3418TIP3    H131813   5.685   5.334   0.709
 3418TIP3    H231814   5.740   5.380   0.576
 3419TIP3   OH231815   2.856   5.229   1.698
 3419TIP3    H131816   2.810   5.303   1.738
 3419TIP3    H231817   2.902   5.188   1.771
 3420TIP3   OH231818   4.941   3.694   1.768
 3420TIP3    H131819   5.001   3.757   1.808
 3420TIP3    H231820   4.979   3.676   1.682
 3421TIP3   OH231821   4.861   1.805   7.911
 3421TIP3    H131822   4.899   1.888   7.884
 3421TIP3    H231823   4.859   1.752   7.832
 3422TIP3   OH231824   2.971   2.193   8.115
 3422TIP3    H131825   2.925   2.143   8.047
 3422TIP3    H231826   2.980   2.281   8.079
 3423TIP3   OH231827   0.290   2.605   1.347
 3423TIP3    H131828   0.288   2.699   1.327
 3423TIP3    H231829   0.258   2.599   1.437
 3424TIP3   OH231830   1.252   2.961   1.816
 3424TIP3    H131831   1.199   2.954   1.896
 3424TIP3    H231832   1.298   2.877   1.810
 3425TIP3   OH231833   5.832   4.876   0.022
 3425TIP3    H131834   5.915   4.868   8.590
 3425TIP3    H231835   5.851   4.847   0.111
 3426TIP3   OH231836   4.051   4.161   1.433
 3426TIP3    H131837   4.107   4.225   1.477
 3426TIP3    H231838   4.075   4.077   1.473
 3427TIP3   OH231839   1.935   0.020   0.817
 3427TIP3    H131840   1.944   6.812   0.817
 3427TIP3    H231841   1.949   0.046   0.726
 3428TIP3   OH231842   3.412   6.861   8.566
 3428TIP3    H131843   3.436   0.011   0.038
 3428TIP3    H231844   3.374   6.776   8.587
 3429TIP3   OH231845   0.288   2.827   1.837
 3429TIP3    H131846   0.215   2.831   1.899
 3429TIP3    H231847   0.363   2.800   1.891
 3430TIP3   OH231848   0.715   6.742   0.859
 3430TIP3    H131849   0.784   6.775   0.918
 3430TIP3    H231850   0.710   6.648   0.879
 3431TIP3   OH231851   6.283   1.025   2.123
 3431TIP3    H131852   6.320   0.992   2.205
 3431TIP3    H231853   6.208   1.077   2.150
 3432TIP3   OH231854   0.266   1.575   2.280
 3432TIP3    H131855   0.196   1.639   2.261
 3432TIP3    H231856   0.341   1.629   2.305
 3433TIP3   OH231857   6.266   4.483   7.746
 3433TIP3    H131858   6.219   4.496   7.829
 3433TIP3    H231859   6.212   4.529   7.681
 3434TIP3   OH231860   1.730   5.713   1.020
 3434TIP3    H131861   1.787   5.683   1.091
 3434TIP3    H231862   1.660   5.760   1.065
 3435TIP3   OH231863   4.542   2.764   0.129
 3435TIP3    H131864   4.473   2.828   0.151
 3435TIP3    H231865   4.589   2.806   0.057
 3436TIP3   OH231866   3.962   0.831   7.277
 3436TIP3    H131867   4.032   0.860   7.218
 3436TIP3    H231868   4.006   0.772   7.339
 3437TIP3   OH231869   3.087   4.105   7.484
 3437TIP3    H131870   3.069   4.095   7.577
 3437TIP3    H231871   3.004   4.133   7.446
 3438TIP3   OH231872   0.699   5.965   0.612
 3438TIP3    H131873   0.606   5.980   0.593
 3438TIP3    H231874   0.736   6.053   0.621
 3439TIP3   OH231875   6.401   2.964   0.031
 3439TIP3    H131876   6.371   2.926   0.114
 3439TIP3    H231877   6.341   2.928   8.580
 3440TIP3   OH231878   4.852   0.652   7.001
 3440TIP3    H131879   4.931   0.647   6.947
 3440TIP3    H231880   4.819   0.562   7.003
 3441TIP3   OH231881   3.808   4.165   2.108
 3441TIP3    H131882   3.813   4.254   2.075
 3441TIP3    H231883   3.875   4.160   2.176
 3442TIP3   OH231884   4.198   4.196   0.189
 3442TIP3    H131885   4.251   4.150   0.124
 3442TIP3    H231886   4.182   4.131   0.258
 3443TIP3   OH231887   6.221   2.520   6.828
 3443TIP3    H131888   6.245   2.496   6.738
 3443TIP3    H231889   6.268   2.602   6.844
 3444TIP3   OH231890   4.862   5.217   7.372
 3444TIP3    H131891   4.777   5.213   7.415
 3444TIP3    H231892   4.847   5.185   7.283
 3445TIP3   OH231893   6.496   4.008   0.970
 3445TIP3    H131894   6.411   4.006   1.014
 3445TIP3    H231895   6.479   4.047   0.884
 3446TIP3   OH231896   5.407   3.943   8.264
 3446TIP3    H131897   5.492   3.982   8.244
 3446TIP3    H231898   5.426   3.879   8.332
 3447TIP3   OH231899   4.302   6.554   0.231
 3447TIP3    H131900   4.301   6.500   0.310
 3447TIP3    H231901   4.354   6.505   0.168
 3448TIP3   OH231902   6.489   6.255   7.571
 3448TIP3    H131903   6.552   6.204   7.622
 3448TIP3    H231904   6.542   6.319   7.525
 3449TIP3   OH231905   4.961   1.878   2.286
 3449TIP3    H131906   4.944   1.798   2.235
 3449TIP3    H231907   5.038   1.857   2.338
 3450TIP3   OH231908   3.424   3.440   0.328
 3450TIP3    H131909   3.345   3.426   0.275
 3450TIP3    H231910   3.409   3.388   0.407
 3451TIP3   OH231911   4.390   0.203   8.269
 3451TIP3    H131912   4.405   0.144   8.344
 3451TIP3    H231913   4.433   0.285   8.295
 3452TIP3   OH231914   1.714   6.812   2.430
 3452TIP3    H131915   1.745   6.871   2.498
 3452TIP3    H231916   1.793   6.768   2.398
 3453TIP3   OH231917   4.456   3.297   6.534
 3453TIP3    H131918   4.388   3.259   6.478
 3453TIP3    H231919   4.508   3.222   6.564
 3454TIP3   OH231920   3.249   4.532   7.662
 3454TIP3    H131921   3.259   4.576   7.746
 3454TIP3    H231922   3.191   4.458   7.681
 3455TIP3   OH231923   6.340   2.169   7.419
 3455TIP3    H131924   6.278   2.218   7.365
 3455TIP3    H231925   6.334   2.079   7.386
 3456TIP3   OH231926   3.458   5.621   0.154
 3456TIP3    H131927   3.419   5.673   0.084
 3456TIP3    H231928   3.384   5.583   0.200
 3457TIP3   OH231929   2.542   3.474   0.413
 3457TIP3    H131930   2.461   3.525   0.407
 3457TIP3    H231931   2.559   3.445   0.323
 3458TIP3   OH231932   0.929   3.456   7.175
 3458TIP3    H131933   0.939   3.493   7.087
 3458TIP3    H231934   0.922   3.362   7.160
 3459TIP3   OH231935   4.558   4.866   6.856
 3459TIP3    H131936   4.615   4.902   6.788
 3459TIP3    H231937   4.556   4.772   6.839
 3460TIP3   OH231938   0.183   3.923   0.217
 3460TIP3    H131939   0.102   3.879   0.190
 3460TIP3    H231940   0.173   4.012   0.182
 3461TIP3   OH231941   2.264   3.094   7.078
 3461TIP3    H131942   2.310   3.177   7.070
 3461TIP3    H231943   2.186   3.104   7.023
 3462TIP3   OH231944   6.378   1.382   1.019
 3462TIP3    H131945   6.359   1.386   0.926
 3462TIP3    H231946   6.474   1.377   1.024
 3463TIP3   OH231947   3.279   6.791   2.654
 3463TIP3    H131948   3.276   6.695   2.657
 3463TIP3    H231949   3.209   6.819   2.713
 3464TIP3   OH231950   1.553   2.845   0.009
 3464TIP3    H131951   1.517   2.928   8.593
 3464TIP3    H231952   1.634   2.835   8.574
 3465TIP3   OH231953   4.200   3.829   0.605
 3465TIP3    H131954   4.149   3.818   0.685
 3465TIP3    H231955   4.281   3.781   0.620
 3466TIP3   OH231956   1.339   3.828   0.721
 3466TIP3    H131957   1.252   3.862   0.742
 3466TIP3    H231958   1.393   3.855   0.795
 3467TIP3   OH231959   4.536   4.971   1.698
 3467TIP3    H131960   4.487   4.954   1.779
 3467TIP3    H231961   4.474   4.950   1.628
 3468TIP3   OH231962   5.518   2.456   8.033
 3468TIP3    H131963   5.580   2.417   7.972
 3468TIP3    H231964   5.515   2.549   8.008
 3469TIP3   OH231965   6.274   5.330   1.497
 3469TIP3    H131966   6.191   5.292   1.524
 3469TIP3    H231967   6.290   5.401   1.559
 3470TIP3   OH231968   0.675   1.236   7.053
 3470TIP3    H131969   0.694   1.147   7.083
 3470TIP3    H231970   0.594   1.261   7.098
 3471TIP3   OH231971   1.299   0.596   0.885
 3471TIP3    H131972   1.293   0.570   0.792
 3471TIP3    H231973   1.265   0.685   0.887
 3472TIP3   OH231974   2.800   6.345   2.104
 3472TIP3    H131975   2.829   6.432   2.132
 3472TIP3    H231976   2.874   6.288   2.123
 3473TIP3   OH231977   1.459   4.661   2.366
 3473TIP3    H131978   1.377   4.616   2.384
 3473TIP3    H231979   1.463   4.731   2.431
 3474TIP3   OH231980   0.775   5.409   1.908
 3474TIP3    H131981   0.760   5.370   1.822
 3474TIP3    H231982   0.738   5.346   1.970
 3475TIP3   OH231983   2.514   0.547   1.718
 3475TIP3    H131984   2.593   0.494   1.713
 3475TIP3    H231985   2.457   0.500   1.779
 3476TIP3   OH231986   6.349   5.122   6.744
 3476TIP3    H131987   6.254   5.125   6.756
 3476TIP3    H231988   6.372   5.029   6.751
 3477TIP3   OH231989   3.175   2.863   1.296
 3477TIP3    H131990   3.144   2.887   1.384
 3477TIP3    H231991   3.095   2.834   1.250
 3478TIP3   OH231992   0.653   0.920   6.415
 3478TIP3    H131993   0.623   0.952   6.330
 3478TIP3    H231994   0.599   0.843   6.433
 3479TIP3   OH231995   2.702   2.103   1.409
 3479TIP3    H131996   2.653   2.023   1.426
 3479TIP3    H231997   2.712   2.144   1.495
 3480TIP3   OH231998   1.703   1.580   1.248
 3480TIP3    H131999   1.774   1.633   1.282
 3480TIP3    H232000   1.682   1.618   1.163
 3481TIP3   OH232001   4.919   1.633   2.143
 3481TIP3    H132002   4.990   1.639   2.079
 3481TIP3    H232003   4.841   1.665   2.097
 3482TIP3   OH232004   5.567   5.129   6.939
 3482TIP3    H132005   5.501   5.161   7.000
 3482TIP3    H232006   5.612   5.208   6.909
 3483TIP3   OH232007   4.781   1.341   8.380
 3483TIP3    H132008   4.825   1.362   8.462
 3483TIP3    H232009   4.806   1.412   8.321
 3484TIP3   OH232010   5.370   4.908   8.570
 3484TIP3    H132011   5.337   4.958   0.031
 3484TIP3    H232012   5.417   4.835   8.609
 3485TIP3   OH232013   5.409   3.944   0.937
 3485TIP3    H132014   5.383   3.972   0.849
 3485TIP3    H232015   5.379   4.014   0.994
 3486TIP3   OH232016   0.838   6.357   6.948
 3486TIP3    H132017   0.834   6.414   6.871
 3486TIP3    H232018   0.917   6.384   6.994
 3487TIP3   OH232019   1.881   1.262   6.747
 3487TIP3    H132020   1.944   1.286   6.815
 3487TIP3    H232021   1.897   1.325   6.677
 3488TIP3   OH232022   1.184   3.312   0.644
 3488TIP3    H132023   1.234   3.322   0.563
 3488TIP3    H232024   1.126   3.389   0.645
 3489TIP3   OH232025   5.861   2.759   0.350
 3489TIP3    H132026   5.873   2.666   0.335
 3489TIP3    H232027   5.875   2.771   0.444
 3490TIP3   OH232028   4.385   4.456   1.322
 3490TIP3    H132029   4.432   4.373   1.316
 3490TIP3    H232030   4.309   4.437   1.378
 3491TIP3   OH232031   5.479   5.557   0.645
 3491TIP3    H132032   5.488   5.594   0.557
 3491TIP3    H232033   5.546   5.489   0.649
 3492TIP3   OH232034   4.333   3.538   0.797
 3492TIP3    H132035   4.360   3.567   0.710
 3492TIP3    H232036   4.267   3.470   0.780
 3493TIP3   OH232037   0.784   6.087   7.518
 3493TIP3    H132038   0.819   6.095   7.606
 3493TIP3    H232039   0.769   5.993   7.506
 3494TIP3   OH232040   4.110   6.605   0.944
 3494TIP3    H132041   4.078   6.518   0.969
 3494TIP3    H232042   4.049   6.634   0.876
 3495TIP3   OH232043   6.860   0.778   8.019
 3495TIP3    H132044   0.046   0.723   7.989
 3495TIP3    H232045   6.867   0.777   8.114
 3496TIP3   OH232046   5.083   6.096   1.173
 3496TIP3    H132047   5.139   6.173   1.161
 3496TIP3    H232048   4.994   6.129   1.164
 3497TIP3   OH232049   3.984   3.116   6.964
 3497TIP3    H132050   4.056   3.097   6.904
 3497TIP3    H232051   3.910   3.067   6.928
 3498TIP3   OH232052   3.034   2.780   2.489
 3498TIP3    H132053   3.037   2.850   2.424
 3498TIP3    H232054   3.106   2.722   2.465
 3499TIP3   OH232055   0.170   4.117   6.308
 3499TIP3    H132056   0.136   4.182   6.370
 3499TIP3    H232057   0.265   4.129   6.310
 3500TIP3   OH232058   1.902   5.700   6.758
 3500TIP3    H132059   1.973   5.713   6.821
 3500TIP3    H232060   1.910   5.774   6.698
 3501TIP3   OH232061   3.899   1.736   0.535
 3501TIP3    H132062   3.922   1.646   0.559
 3501TIP3    H232063   3.835   1.727   0.466
 3502TIP3   OH232064   1.103   2.071   1.177
 3502TIP3    H132065   1.136   2.073   1.267
 3502TIP3    H232066   1.157   2.005   1.134
 3503TIP3   OH232067   0.349   4.965   8.207
 3503TIP3    H132068   0.351   4.902   8.135
 3503TIP3    H232069   0.436   4.959   8.246
 3504TIP3   OH232070   0.600   3.777   0.062
 3504TIP3    H132071   0.598   3.864   0.022
 3504TIP3    H232072   0.513   3.767   0.101
 3505TIP3   OH232073   0.296   1.707   0.560
 3505TIP3    H132074   0.296   1.803   0.565
 3505TIP3    H232075   0.388   1.683   0.571
 3506TIP3   OH232076   0.946   0.359   6.238
 3506TIP3    H132077   1.016   0.395   6.183
 3506TIP3    H232078   0.901   0.296   6.182
 3507TIP3   OH232079   4.553   0.166   8.584
 3507TIP3    H132080   4.515   0.123   0.046
 3507TIP3    H232081   4.634   0.207   0.003
 3508TIP3   OH232082   0.829   0.359   1.228
 3508TIP3    H132083   0.811   0.416   1.303
 3508TIP3    H232084   0.768   0.286   1.239
 3509TIP3   OH232085   3.131   4.535   0.856
 3509TIP3    H132086   3.189   4.567   0.787
 3509TIP3    H232087   3.091   4.457   0.819
 3510TIP3   OH232088   6.058   3.533   1.764
 3510TIP3    H132089   5.989   3.587   1.803
 3510TIP3    H232090   6.085   3.475   1.835
 3511TIP3   OH232091   2.976   2.306   6.990
 3511TIP3    H132092   3.047   2.319   7.053
 3511TIP3    H232093   2.918   2.381   7.004
 3512TIP3   OH232094   1.570   2.280   0.214
 3512TIP3    H132095   1.574   2.364   0.169
 3512TIP3    H232096   1.650   2.277   0.267
 3513TIP3   OH232097   0.844   5.498   1.264
 3513TIP3    H132098   0.845   5.529   1.354
 3513TIP3    H232099   0.935   5.473   1.246
 3514TIP3   OH232100   3.527   2.252   7.128
 3514TIP3    H132101   3.613   2.224   7.160
 3514TIP3    H232102   3.539   2.262   7.033
 3515TIP3   OH232103   6.170   6.528   1.430
 3515TIP3    H132104   6.236   6.597   1.427
 3515TIP3    H232105   6.106   6.555   1.363
 3516TIP3   OH232106   2.901   0.941   8.048
 3516TIP3    H132107   2.840   0.879   8.089
 3516TIP3    H232108   2.856   0.970   7.968
 3517TIP3   OH232109   2.187   0.601   1.789
 3517TIP3    H132110   2.104   0.600   1.837
 3517TIP3    H232111   2.233   0.523   1.819
 3518TIP3   OH232112   6.078   6.839   0.173
 3518TIP3    H132113   6.040   6.885   0.249
 3518TIP3    H232114   6.103   6.753   0.207
 3519TIP3   OH232115   5.614   2.362   0.017
 3519TIP3    H132116   5.558   2.287   0.035
 3519TIP3    H232117   5.654   2.343   8.546
 3520TIP3   OH232118   1.827   1.836   8.570
 3520TIP3    H132119   1.733   1.822   8.559
 3520TIP3    H232120   1.838   1.859   0.049
 3521TIP3   OH232121   6.383   3.920   8.551
 3521TIP3    H132122   6.395   3.890   0.027
 3521TIP3    H232123   6.444   3.868   8.500
 3522TIP3   OH232124   5.845   5.904   0.859
 3522TIP3    H132125   5.847   5.970   0.790
 3522TIP3    H232126   5.888   5.946   0.934
 3523TIP3   OH232127   4.033   3.771   7.366
 3523TIP3    H132128   3.940   3.759   7.387
 3523TIP3    H232129   4.036   3.764   7.271
 3524TIP3   OH232130   2.215   3.372   6.741
 3524TIP3    H132131   2.268   3.305   6.783
 3524TIP3    H232132   2.156   3.324   6.683
 3525TIP3   OH232133   1.875   0.985   0.429
 3525TIP3    H132134   1.963   0.995   0.465
 3525TIP3    H232135   1.839   0.908   0.472
 3526TIP3   OH232136   3.207   0.889   1.037
 3526TIP3    H132137   3.269   0.960   1.025
 3526TIP3    H232138   3.199   0.879   1.132
 3527TIP3   OH232139   2.596   5.221   8.562
 3527TIP3    H132140   2.529   5.174   8.612
 3527TIP3    H232141   2.619   5.161   8.491
 3528TIP3   OH232142   6.584   5.447   2.093
 3528TIP3    H132143   6.602   5.393   2.169
 3528TIP3    H232144   6.536   5.523   2.128
 3529TIP3   OH232145   0.657   6.109   8.376
 3529TIP3    H132146   0.626   6.018   8.373
 3529TIP3    H232147   0.581   6.161   8.351
 3530TIP3   OH232148   4.247   1.368   0.823
 3530TIP3    H132149   4.325   1.418   0.800
 3530TIP3    H232150   4.280   1.292   0.870
 3531TIP3   OH232151   5.105   6.776   7.989
 3531TIP3    H132152   5.184   6.758   8.041
 3531TIP3    H232153   5.039   6.718   8.025
 3532TIP3   OH232154   1.602   5.325   0.088
 3532TIP3    H132155   1.559   5.334   0.173
 3532TIP3    H232156   1.569   5.399   0.037
 3533TIP3   OH232157   5.992   2.146   6.149
 3533TIP3    H132158   6.019   2.180   6.234
 3533TIP3    H232159   5.920   2.086   6.169
 3534TIP3   OH232160   3.818   4.723   0.835
 3534TIP3    H132161   3.825   4.794   0.771
 3534TIP3    H232162   3.805   4.769   0.918
 3535TIP3   OH232163   1.730   6.491   8.430
 3535TIP3    H132164   1.734   6.402   8.393
 3535TIP3    H232165   1.751   6.548   8.356
 3536TIP3   OH232166   3.561   5.879   6.986
 3536TIP3    H132167   3.514   5.874   6.904
 3536TIP3    H232168   3.519   5.950   7.034
 3537TIP3   OH232169   4.571   5.974   1.010
 3537TIP3    H132170   4.530   5.997   0.926
 3537TIP3    H232171   4.585   6.058   1.054
 3538TIP3   OH232172   0.358   1.206   0.825
 3538TIP3    H132173   0.399   1.139   0.880
 3538TIP3    H232174   0.322   1.269   0.888
 3539TIP3   OH232175   4.853   0.810   0.199
 3539TIP3    H132176   4.902   0.885   0.164
 3539TIP3    H232177   4.807   0.846   0.275
 3540TIP3   OH232178   1.096   0.692   8.399
 3540TIP3    H132179   1.167   0.656   8.452
 3540TIP3    H232180   1.016   0.659   8.440
 3541TIP3   OH232181   6.186   5.130   7.142
 3541TIP3    H132182   6.218   5.106   7.229
 3541TIP3    H232183   6.160   5.222   7.150
 3542TIP3   OH232184   3.265   1.179   7.459
 3542TIP3    H132185   3.188   1.217   7.417
 3542TIP3    H232186   3.261   1.211   7.549
 3543TIP3   OH232187   4.596   0.654   1.810
 3543TIP3    H132188   4.645   0.574   1.790
 3543TIP3    H232189   4.505   0.624   1.821
 3544TIP3   OH232190   1.311   3.815   1.184
 3544TIP3    H132191   1.313   3.721   1.166
 3544TIP3    H232192   1.227   3.830   1.228
 3545TIP3   OH232193   2.070   5.761   8.514
 3545TIP3    H132194   2.002   5.747   8.580
 3545TIP3    H232195   2.082   5.856   8.513
 3546TIP3   OH232196   6.603   5.667   1.396
 3546TIP3    H132197   6.616   5.623   1.480
 3546TIP3    H232198   6.509   5.661   1.380
 3547TIP3   OH232199   5.148   5.894   1.007
 3547TIP3    H132200   5.231   5.859   1.039
 3547TIP3    H232201   5.124   5.963   1.069
 3548TIP3   OH232202   6.411   5.843   7.854
 3548TIP3    H132203   6.497   5.852   7.814
 3548TIP3    H232204   6.356   5.803   7.786
 3549TIP3   OH232205   4.395   2.611   8.210
 3549TIP3    H132206   4.454   2.547   8.170
 3549TIP3    H232207   4.399   2.687   8.151
 3550TIP3   OH232208   3.964   5.945   6.698
 3550TIP3    H132209   3.924   5.862   6.726
 3550TIP3    H232210   4.014   5.922   6.620
 3551TIP3   OH232211   4.986   6.577   8.456
 3551TIP3    H132212   4.930   6.499   8.457
 3551TIP3    H232213   4.924   6.650   8.461
 3552TIP3   OH232214   3.189   6.314   1.456
 3552TIP3    H132215   3.166   6.379   1.522
 3552TIP3    H232216   3.255   6.356   1.402
 3553TIP3   OH232217   1.407   4.930   7.531
 3553TIP3    H132218   1.452   5.007   7.567
 3553TIP3    H232219   1.369   4.960   7.449
 3554TIP3   OH232220   3.185   2.717   7.275
 3554TIP3    H132221   3.162   2.798   7.321
 3554TIP3    H232222   3.114   2.704   7.212
 3555TIP3   OH232223   3.497   2.526   0.543
 3555TIP3    H132224   3.439   2.583   0.594
 3555TIP3    H232225   3.438   2.465   0.499
 3556TIP3   OH232226   4.256   2.755   7.775
 3556TIP3    H132227   4.233   2.664   7.756
 3556TIP3    H232228   4.220   2.805   7.702
 3557TIP3   OH232229   1.824   5.137   0.440
 3557TIP3    H132230   1.848   5.091   0.360
 3557TIP3    H232231   1.889   5.206   0.450
 3558TIP3   OH232232   6.528   2.409   0.963
 3558TIP3    H132233   6.480   2.398   0.881
 3558TIP3    H232234   6.460   2.406   1.030
 3559TIP3   OH232235   6.336   1.341   7.816
 3559TIP3    H132236   6.350   1.250   7.843
 3559TIP3    H232237   6.385   1.392   7.881
 3560TIP3   OH232238   4.785   0.263   2.191
 3560TIP3    H132239   4.778   0.357   2.172
 3560TIP3    H232240   4.879   0.245   2.184
 3561TIP3   OH232241   1.081   3.745   0.055
 3561TIP3    H132242   1.163   3.719   0.012
 3561TIP3    H232243   1.095   3.837   0.079
 3562TIP3   OH232244   4.048   2.375   7.984
 3562TIP3    H132245   4.007   2.459   7.968
 3562TIP3    H232246   3.999   2.337   8.057
 3563TIP3   OH232247   3.243   3.702   6.144
 3563TIP3    H132248   3.216   3.680   6.233
 3563TIP3    H232249   3.178   3.660   6.088
 3564TIP3   OH232250   6.077   4.135   6.968
 3564TIP3    H132251   6.026   4.068   6.923
 3564TIP3    H232252   6.167   4.103   6.964
 3565TIP3   OH232253   6.486   6.852   7.479
 3565TIP3    H132254   6.504   6.774   7.425
 3565TIP3    H232255   6.466   6.817   7.565
 3566TIP3   OH232256   2.353   4.996   8.119
 3566TIP3    H132257   2.388   4.979   8.031
 3566TIP3    H232258   2.367   4.914   8.167
 3567TIP3   OH232259   3.603   6.096   1.792
 3567TIP3    H132260   3.596   6.002   1.775
 3567TIP3    H232261   3.673   6.103   1.858
 3568TIP3   OH232262   0.553   3.892   1.696
 3568TIP3    H132263   0.604   3.963   1.657
 3568TIP3    H232264   0.539   3.921   1.786
 3569TIP3   OH232265   6.585   1.941   6.259
 3569TIP3    H132266   6.519   2.006   6.281
 3569TIP3    H232267   6.668   1.982   6.285
 3570TIP3   OH232268   6.828   1.686   7.355
 3570TIP3    H132269   6.746   1.668   7.309
 3570TIP3    H232270   6.800   1.717   7.441
 3571TIP3   OH232271   2.093   2.856   1.479
 3571TIP3    H132272   2.069   2.851   1.572
 3571TIP3    H232273   2.180   2.816   1.475
 3572TIP3   OH232274   4.018   4.802   1.283
 3572TIP3    H132275   3.966   4.722   1.271
 3572TIP3    H232276   3.961   4.861   1.332
 3573TIP3   OH232277   6.164   3.857   1.449
 3573TIP3    H132278   6.161   3.886   1.540
 3573TIP3    H232279   6.190   3.765   1.454
 3574TIP3   OH232280   1.345   3.445   8.304
 3574TIP3    H132281   1.411   3.486   8.359
 3574TIP3    H232282   1.287   3.400   8.365
 3575TIP3   OH232283   5.710   5.094   0.819
 3575TIP3    H132284   5.640   5.087   0.754
 3575TIP3    H232285   5.681   5.165   0.877
 3576TIP3   OH232286   0.895   1.854   1.054
 3576TIP3    H132287   0.987   1.826   1.053
 3576TIP3    H232288   0.864   1.828   1.141
 3577TIP3   OH232289   1.022   3.643   0.934
 3577TIP3    H132290   1.060   3.727   0.907
 3577TIP3    H232291   0.945   3.667   0.985
 3578TIP3   OH232292   5.683   0.626   0.896
 3578TIP3    H132293   5.622   0.556   0.919
 3578TIP3    H232294   5.642   0.706   0.929
 3579TIP3   OH232295   1.919   4.202   8.487
 3579TIP3    H132296   1.935   4.178   8.579
 3579TIP3    H232297   1.957   4.130   8.437
 3580TIP3   OH232298   3.284   1.326   0.575
 3580TIP3    H132299   3.301   1.411   0.534
 3580TIP3    H232300   3.260   1.269   0.502
 3581TIP3   OH232301   5.362   1.097   6.739
 3581TIP3    H132302   5.403   1.016   6.710
 3581TIP3    H232303   5.412   1.122   6.818
 3582TIP3   OH232304   5.483   6.008   7.154
 3582TIP3    H132305   5.565   5.966   7.130
 3582TIP3    H232306   5.497   6.040   7.243
 3583TIP3   OH232307   2.194   2.327   7.860
 3583TIP3    H132308   2.126   2.263   7.839
 3583TIP3    H232309   2.176   2.401   7.802
 3584TIP3   OH232310   0.357   6.562   1.843
 3584TIP3    H132311   0.347   6.655   1.822
 3584TIP3    H232312   0.435   6.535   1.795
 3585TIP3   OH232313   6.727   1.680   0.451
 3585TIP3    H132314   6.818   1.698   0.428
 3585TIP3    H232315   6.704   1.603   0.400
 3586TIP3   OH232316   3.890   6.017   0.569
 3586TIP3    H132317   3.818   6.022   0.505
 3586TIP3    H232318   3.864   6.076   0.639
 3587TIP3   OH232319   5.558   0.703   8.352
 3587TIP3    H132320   5.585   0.689   8.261
 3587TIP3    H232321   5.507   0.625   8.374
 3588TIP3   OH232322   0.869   1.412   7.482
 3588TIP3    H132323   0.898   1.335   7.433
 3588TIP3    H232324   0.774   1.415   7.468
 3589TIP3   OH232325   5.839   6.193   1.332
 3589TIP3    H132326   5.821   6.270   1.385
 3589TIP3    H232327   5.792   6.122   1.377
 3590TIP3   OH232328   5.462   1.053   7.909
 3590TIP3    H132329   5.379   1.018   7.876
 3590TIP3    H232330   5.529   0.998   7.868
 3591TIP3   OH232331   3.968   5.396   0.418
 3591TIP3    H132332   3.946   5.482   0.455
 3591TIP3    H232333   4.063   5.399   0.406
 3592TIP3   OH232334   1.000   0.211   7.958
 3592TIP3    H132335   1.029   0.259   7.881
 3592TIP3    H232336   1.033   0.122   7.945
 3593TIP3   OH232337   2.923   3.187   7.370
 3593TIP3    H132338   2.905   3.280   7.381
 3593TIP3    H232339   2.849   3.154   7.317
 3594TIP3   OH232340   0.318   0.542   8.518
 3594TIP3    H132341   0.257   0.608   8.486
 3594TIP3    H232342   0.270   0.497   8.587
 3595TIP3   OH232343   1.282   2.205   0.924
 3595TIP3    H132344   1.372   2.221   0.951
 3595TIP3    H232345   1.284   2.119   0.882
 3596TIP3   OH232346   6.055   4.267   8.583
 3596TIP3    H132347   6.146   4.259   0.000
 3596TIP3    H232348   6.010   4.314   0.039
 3597TIP3   OH232349   4.875   1.370   1.837
 3597TIP3    H132350   4.906   1.309   1.770
 3597TIP3    H232351   4.934   1.357   1.911
 3598TIP3   OH232352   5.603   5.415   0.345
 3598TIP3    H132353   5.573   5.400   0.255
 3598TIP3    H232354   5.674   5.478   0.337
 3599TIP3   OH232355   2.199   1.796   0.405
 3599TIP3    H132356   2.171   1.704   0.401
 3599TIP3    H232357   2.194   1.827   0.315
 3600TIP3   OH232358   6.746   0.380   1.252
 3600TIP3    H132359   6.719   0.417   1.336
 3600TIP3    H232360   6.821   0.324   1.273
 3601TIP3   OH232361   2.553   3.434   1.278
 3601TIP3    H132362   2.607   3.484   1.340
 3601TIP3    H232363   2.616   3.393   1.219
 3602TIP3   OH232364   0.215   4.344   1.115
 3602TIP3    H132365   0.214   4.256   1.151
 3602TIP3    H232366   0.182   4.400   1.186
 3603TIP3   OH232367   0.156   0.114   0.305
 3603TIP3    H132368   0.066   0.100   0.275
 3603TIP3    H232369   0.153   0.196   0.353
 3604TIP3   OH232370   2.512   0.045   1.518
 3604TIP3    H132371   2.540   0.010   1.434
 3604TIP3    H232372   2.447   0.112   1.497
 3605TIP3   OH232373   2.168   3.571   7.051
 3605TIP3    H132374   2.242   3.630   7.061
 3605TIP3    H232375   2.142   3.580   6.959
 3606TIP3   OH232376   0.489   4.218   1.689
 3606TIP3    H132377   0.485   4.231   1.784
 3606TIP3    H232378   0.398   4.228   1.660
 3607TIP3   OH232379   0.444   1.631   7.567
 3607TIP3    H132380   0.442   1.538   7.587
 3607TIP3    H232381   0.352   1.658   7.565
 3608TIP3   OH232382   4.021   2.970   2.110
 3608TIP3    H132383   4.079   3.007   2.178
 3608TIP3    H232384   4.021   2.876   2.128
 3609TIP3   OH232385   4.221   2.845   1.669
 3609TIP3    H132386   4.229   2.936   1.699
 3609TIP3    H232387   4.287   2.797   1.719
 3610TIP3   OH232388   2.710   1.286   1.785
 3610TIP3    H132389   2.657   1.206   1.791
 3610TIP3    H232390   2.693   1.333   1.867
 3611TIP3   OH232391   3.912   4.413   6.901
 3611TIP3    H132392   3.928   4.422   6.807
 3611TIP3    H232393   3.984   4.359   6.933
 3612TIP3   OH232394   2.323   4.475   7.264
 3612TIP3    H132395   2.297   4.387   7.291
 3612TIP3    H232396   2.271   4.534   7.318
 3613TIP3   OH232397   6.445   3.691   0.995
 3613TIP3    H132398   6.514   3.757   1.001
 3613TIP3    H232399   6.376   3.733   0.944
 3614TIP3   OH232400   6.346   3.530   7.439
 3614TIP3    H132401   6.410   3.511   7.508
 3614TIP3    H232402   6.387   3.497   7.359
 3615TIP3   OH232403   3.514   0.692   7.555
 3615TIP3    H132404   3.508   0.646   7.639
 3615TIP3    H232405   3.521   0.623   7.490
 3616TIP3   OH232406   6.746   1.312   0.727
 3616TIP3    H132407   6.787   1.226   0.734
 3616TIP3    H232408   6.657   1.298   0.759
 3617TIP3   OH232409   0.675   0.995   7.138
 3617TIP3    H132410   0.618   0.936   7.088
 3617TIP3    H232411   0.683   0.954   7.224
 3618TIP3   OH232412   0.747   0.869   1.655
 3618TIP3    H132413   0.802   0.797   1.687
 3618TIP3    H232414   0.741   0.855   1.561
 3619TIP3   OH232415   1.161   2.353   7.468
 3619TIP3    H132416   1.118   2.275   7.433
 3619TIP3    H232417   1.254   2.328   7.474
 3620TIP3   OH232418   2.298   3.572   0.306
 3620TIP3    H132419   2.238   3.621   0.250
 3620TIP3    H232420   2.256   3.575   0.393
 3621TIP3   OH232421   4.363   0.840   2.608
 3621TIP3    H132422   4.271   0.833   2.634
 3621TIP3    H232423   4.402   0.756   2.634
 3622TIP3   OH232424   3.403   5.213   6.990
 3622TIP3    H132425   3.351   5.155   6.933
 3622TIP3    H232426   3.378   5.301   6.963
 3623TIP3   OH232427   4.536   0.462   8.389
 3623TIP3    H132428   4.537   0.387   8.450
 3623TIP3    H232429   4.535   0.539   8.446
 3624TIP3   OH232430   5.618   3.367   8.005
 3624TIP3    H132431   5.586   3.410   7.926
 3624TIP3    H232432   5.579   3.417   8.077
 3625TIP3   OH232433   1.546   3.117   1.246
 3625TIP3    H132434   1.509   3.189   1.297
 3625TIP3    H232435   1.486   3.107   1.172
 3626TIP3   OH232436   4.482   0.964   8.554
 3626TIP3    H132437   4.457   1.025   8.484
 3626TIP3    H232438   4.471   1.014   0.021
 3627TIP3   OH232439   6.872   2.973   7.453
 3627TIP3    H132440   6.866   2.882   7.423
 3627TIP3    H232441   6.791   3.014   7.421
 3628TIP3   OH232442   2.099   3.482   1.592
 3628TIP3    H132443   2.119   3.448   1.505
 3628TIP3    H232444   2.049   3.562   1.576
 3629TIP3   OH232445   5.481   0.181   6.333
 3629TIP3    H132446   5.510   0.229   6.256
 3629TIP3    H232447   5.503   0.090   6.315
 3630TIP3   OH232448   2.113   0.797   7.849
 3630TIP3    H132449   2.159   0.726   7.804
 3630TIP3    H232450   2.182   0.853   7.882
 3631TIP3   OH232451   2.505   3.402   7.678
 3631TIP3    H132452   2.453   3.329   7.709
 3631TIP3    H232453   2.522   3.455   7.756
 3632TIP3   OH232454   6.048   5.197   1.495
 3632TIP3    H132455   6.003   5.156   1.569
 3632TIP3    H232456   6.016   5.150   1.418
 3633TIP3   OH232457   3.298   6.036   1.502
 3633TIP3    H132458   3.268   6.123   1.529
 3633TIP3    H232459   3.297   5.985   1.583
 3634TIP3   OH232460   0.706   4.221   1.155
 3634TIP3    H132461   0.672   4.247   1.069
 3634TIP3    H232462   0.646   4.153   1.185
 3635TIP3   OH232463   0.616   0.038   0.216
 3635TIP3    H132464   0.656   0.045   0.129
 3635TIP3    H232465   0.526   0.010   0.198
 3636TIP3   OH232466   2.747   0.350   6.334
 3636TIP3    H132467   2.661   0.315   6.357
 3636TIP3    H232468   2.801   0.273   6.317
 3637TIP3   OH232469   0.198   3.082   1.479
 3637TIP3    H132470   0.151   3.105   1.399
 3637TIP3    H232471   0.202   3.164   1.529
 3638TIP3   OH232472   1.083   3.320   1.531
 3638TIP3    H132473   1.159   3.270   1.560
 3638TIP3    H232474   1.049   3.271   1.456
 3639TIP3   OH232475   2.984   0.701   1.359
 3639TIP3    H132476   3.021   0.650   1.287
 3639TIP3    H232477   2.962   0.786   1.320
 3640TIP3   OH232478   0.670   5.122   8.574
 3640TIP3    H132479   0.732   5.195   8.573
 3640TIP3    H232480   0.704   5.062   0.026
 3641TIP3   OH232481   1.644   4.514   8.137
 3641TIP3    H132482   1.684   4.442   8.088
 3641TIP3    H232483   1.674   4.503   8.227
 3642TIP3   OH232484   4.544   2.305   0.823
 3642TIP3    H132485   4.624   2.277   0.868
 3642TIP3    H232486   4.532   2.241   0.753
 3643TIP3   OH232487   5.006   0.383   6.980
 3643TIP3    H132488   4.911   0.384   6.994
 3643TIP3    H232489   5.030   0.290   6.983
 3644TIP3   OH232490   1.761   4.277   0.935
 3644TIP3    H132491   1.827   4.240   0.876
 3644TIP3    H232492   1.803   4.280   1.020
 3645TIP3   OH232493   1.011   4.654   0.555
 3645TIP3    H132494   0.975   4.729   0.604
 3645TIP3    H232495   1.046   4.596   0.622
 3646TIP3   OH232496   3.004   3.538   1.023
 3646TIP3    H132497   3.063   3.474   1.063
 3646TIP3    H232498   3.039   3.551   0.935
 3647TIP3   OH232499   3.044   0.728   2.446
 3647TIP3    H132500   3.033   0.815   2.408
 3647TIP3    H232501   3.033   0.668   2.371
 3648TIP3   OH232502   5.029   2.212   1.459
 3648TIP3    H132503   5.032   2.147   1.389
 3648TIP3    H232504   4.956   2.184   1.514
 3649TIP3   OH232505   2.721   0.807   6.479
 3649TIP3    H132506   2.637   0.772   6.508
 3649TIP3    H232507   2.760   0.737   6.426
 3650TIP3   OH232508   2.411   3.122   0.111
 3650TIP3    H132509   2.388   3.215   0.120
 3650TIP3    H232510   2.505   3.122   0.094
 3651TIP3   OH232511   4.299   6.797   8.208
 3651TIP3    H132512   4.392   6.777   8.210
 3651TIP3    H232513   4.294   6.884   8.169
 3652TIP3   OH232514   1.566   5.161   7.659
 3652TIP3    H132515   1.658   5.138   7.675
 3652TIP3    H232516   1.520   5.133   7.738
 3653TIP3   OH232517   4.109   0.565   6.483
 3653TIP3    H132518   4.018   0.571   6.510
 3653TIP3    H232519   4.158   0.558   6.565
 3654TIP3   OH232520   4.238   2.086   2.599
 3654TIP3    H132521   4.153   2.130   2.604
 3654TIP3    H232522   4.290   2.142   2.540
 3655TIP3   OH232523   2.695   2.929   8.355
 3655TIP3    H132524   2.676   2.855   8.413
 3655TIP3    H232525   2.671   2.898   8.268
 3656TIP3   OH232526   6.620   1.966   0.932
 3656TIP3    H132527   6.546   1.923   0.974
 3656TIP3    H232528   6.616   1.938   0.840
 3657TIP3   OH232529   3.601   3.546   7.514
 3657TIP3    H132530   3.668   3.517   7.576
 3657TIP3    H232531   3.528   3.487   7.527
 3658TIP3   OH232532   5.610   5.539   7.758
 3658TIP3    H132533   5.682   5.477   7.770
 3658TIP3    H232534   5.531   5.489   7.776
 3659TIP3   OH232535   5.509   6.517   2.223
 3659TIP3    H132536   5.590   6.492   2.268
 3659TIP3    H232537   5.457   6.561   2.289
 3660TIP3   OH232538   6.363   1.219   1.429
 3660TIP3    H132539   6.353   1.144   1.487
 3660TIP3    H232540   6.300   1.203   1.359
 3661TIP3   OH232541   2.778   2.248   1.030
 3661TIP3    H132542   2.831   2.303   1.087
 3661TIP3    H232543   2.823   2.163   1.031
 3662TIP3   OH232544   3.021   1.185   8.509
 3662TIP3    H132545   2.930   1.157   8.502
 3662TIP3    H232546   3.066   1.110   8.547
 3663TIP3   OH232547   2.188   5.709   8.284
 3663TIP3    H132548   2.253   5.642   8.305
 3663TIP3    H232549   2.139   5.720   8.365
 3664TIP3   OH232550   2.095   5.119   1.485
 3664TIP3    H132551   2.044   5.194   1.516
 3664TIP3    H232552   2.110   5.066   1.564
 3665TIP3   OH232553   3.344   1.229   2.062
 3665TIP3    H132554   3.275   1.251   2.124
 3665TIP3    H232555   3.399   1.166   2.109
 3666TIP3   OH232556   3.505   4.974   6.460
 3666TIP3    H132557   3.581   5.015   6.501
 3666TIP3    H232558   3.539   4.936   6.379
 3667TIP3   OH232559   0.885   4.856   0.736
 3667TIP3    H132560   0.878   4.949   0.711
 3667TIP3    H232561   0.795   4.829   0.750
 3668TIP3   OH232562   3.941   6.162   0.297
 3668TIP3    H132563   3.971   6.098   0.233
 3668TIP3    H232564   4.022   6.202   0.331
 3669TIP3   OH232565   6.518   0.403   1.085
 3669TIP3    H132566   6.478   0.474   1.135
 3669TIP3    H232567   6.588   0.370   1.141
 3670TIP3   OH232568   3.533   1.949   0.092
 3670TIP3    H132569   3.516   1.978   0.003
 3670TIP3    H232570   3.589   2.017   0.129
 3671TIP3   OH232571   4.111   0.778   2.633
 3671TIP3    H132572   4.099   0.873   2.630
 3671TIP3    H232573   4.046   0.744   2.571
 3672TIP3   OH232574   1.121   3.674   7.792
 3672TIP3    H132575   1.188   3.660   7.725
 3672TIP3    H232576   1.150   3.622   7.867
 3673TIP3   OH232577   3.174   4.242   0.034
 3673TIP3    H132578   3.193   4.152   0.006
 3673TIP3    H232579   3.107   4.271   8.586
 3674TIP3   OH232580   4.218   5.013   7.110
 3674TIP3    H132581   4.307   5.049   7.109
 3674TIP3    H232582   4.212   4.968   7.195
 3675TIP3   OH232583   0.896   5.205   0.651
 3675TIP3    H132584   0.933   5.290   0.670
 3675TIP3    H232585   0.816   5.200   0.705
 3676TIP3   OH232586   2.066   0.331   7.828
 3676TIP3    H132587   1.991   0.273   7.846
 3676TIP3    H232588   2.035   0.418   7.852
 3677TIP3   OH232589   3.906   1.863   2.315
 3677TIP3    H132590   3.980   1.910   2.354
 3677TIP3    H232591   3.868   1.926   2.253
 3678TIP3   OH232592   1.434   6.486   1.094
 3678TIP3    H132593   1.459   6.512   1.183
 3678TIP3    H232594   1.518   6.474   1.049
 3679TIP3   OH232595   1.358   3.084   0.025
 3679TIP3    H132596   1.281   3.028   0.026
 3679TIP3    H232597   1.342   3.148   8.570
 3680TIP3   OH232598   5.759   2.100   1.104
 3680TIP3    H132599   5.688   2.158   1.074
 3680TIP3    H232600   5.744   2.090   1.198
 3681TIP3   OH232601   5.731   2.513   1.067
 3681TIP3    H132602   5.697   2.529   1.156
 3681TIP3    H232603   5.706   2.423   1.048
 3682TIP3   OH232604   5.306   0.859   1.935
 3682TIP3    H132605   5.258   0.905   1.867
 3682TIP3    H232606   5.355   0.791   1.888
 3683TIP3   OH232607   6.377   4.522   0.577
 3683TIP3    H132608   6.415   4.599   0.534
 3683TIP3    H232609   6.303   4.498   0.521
 3684TIP3   OH232610   1.262   0.701   1.544
 3684TIP3    H132611   1.340   0.669   1.500
 3684TIP3    H232612   1.223   0.763   1.482
 3685TIP3   OH232613   1.874   5.398   0.107
 3685TIP3    H132614   1.895   5.434   0.020
 3685TIP3    H232615   1.782   5.371   0.100
 3686TIP3   OH232616   6.755   0.581   8.361
 3686TIP3    H132617   6.684   0.540   8.411
 3686TIP3    H232618   6.735   0.560   8.270
 3687TIP3   OH232619   6.804   6.847   0.053
 3687TIP3    H132620   6.714   6.879   0.056
 3687TIP3    H232621   6.854   0.033   0.016
 3688TIP3   OH232622   4.432   3.706   1.027
 3688TIP3    H132623   4.423   3.765   1.102
 3688TIP3    H232624   4.435   3.764   0.951
 3689TIP3   OH232625   4.489   0.069   6.048
 3689TIP3    H132626   4.509   6.863   6.057
 3689TIP3    H232627   4.486   0.083   5.953
 3690TIP3   OH232628   3.655   1.962   6.942
 3690TIP3    H132629   3.681   1.901   7.011
 3690TIP3    H232630   3.560   1.970   6.952
 3691TIP3   OH232631   1.202   2.108   0.362
 3691TIP3    H132632   1.137   2.154   0.414
 3691TIP3    H232633   1.211   2.023   0.404
 3692TIP3   OH232634   4.727   6.052   1.956
 3692TIP3    H132635   4.680   5.970   1.946
 3692TIP3    H232636   4.688   6.093   2.033
 3693TIP3   OH232637   0.455   0.051   7.712
 3693TIP3    H132638   0.467   0.105   7.790
 3693TIP3    H232639   0.513   0.091   7.646
 3694TIP3   OH232640   6.734   4.419   7.267
 3694TIP3    H132641   6.639   4.430   7.273
 3694TIP3    H232642   6.758   4.375   7.348
 3695TIP3   OH232643   6.867   2.673   8.370
 3695TIP3    H132644   0.061   2.623   8.382
 3695TIP3    H232645   6.799   2.607   8.364
 3696TIP3   OH232646   0.983   0.901   0.486
 3696TIP3    H132647   0.917   0.884   0.417
 3696TIP3    H232648   0.949   0.978   0.532
 3697TIP3   OH232649   6.081   5.695   2.574
 3697TIP3    H132650   6.120   5.731   2.654
 3697TIP3    H232651   6.034   5.617   2.604
 3698TIP3   OH232652   1.771   3.510   1.495
 3698TIP3    H132653   1.754   3.521   1.401
 3698TIP3    H232654   1.837   3.575   1.515
 3699TIP3   OH232655   6.549   0.808   1.444
 3699TIP3    H132656   6.475   0.855   1.406
 3699TIP3    H232657   6.626   0.842   1.397
 3700TIP3   OH232658   4.125   3.643   0.950
 3700TIP3    H132659   4.137   3.635   1.045
 3700TIP3    H232660   4.213   3.655   0.915
 3701TIP3   OH232661   6.127   5.086   6.865
 3701TIP3    H132662   6.161   5.094   6.954
 3701TIP3    H232663   6.094   4.996   6.860
 3702TIP3   OH232664   3.275   2.086   7.822
 3702TIP3    H132665   3.323   2.130   7.752
 3702TIP3    H232666   3.258   2.154   7.886
 3703TIP3   OH232667   5.524   5.975   0.909
 3703TIP3    H132668   5.610   5.983   0.950
 3703TIP3    H232669   5.476   6.052   0.939
 3704TIP3   OH232670   6.546   5.449   6.886
 3704TIP3    H132671   6.539   5.382   6.818
 3704TIP3    H232672   6.488   5.519   6.858
 3705TIP3   OH232673   4.826   5.672   8.069
 3705TIP3    H132674   4.874   5.641   7.992
 3705TIP3    H232675   4.894   5.693   8.133
 3706TIP3   OH232676   2.641   6.314   0.534
 3706TIP3    H132677   2.656   6.402   0.568
 3706TIP3    H232678   2.727   6.271   0.540
 3707TIP3   OH232679   3.948   6.454   7.652
 3707TIP3    H132680   3.891   6.394   7.606
 3707TIP3    H232681   3.970   6.521   7.588
 3708TIP3   OH232682   5.812   6.876   1.464
 3708TIP3    H132683   5.726   6.834   1.456
 3708TIP3    H232684   5.847   6.877   1.376
 3709TIP3   OH232685   5.700   3.497   1.650
 3709TIP3    H132686   5.641   3.572   1.663
 3709TIP3    H232687   5.777   3.534   1.607
 3710TIP3   OH232688   0.098   0.250   7.669
 3710TIP3    H132689   0.135   0.162   7.676
 3710TIP3    H232690   0.004   0.236   7.658
 3711TIP3   OH232691   4.501   1.861   0.815
 3711TIP3    H132692   4.568   1.924   0.788
 3711TIP3    H232693   4.439   1.859   0.742
 3712TIP3   OH232694   6.102   4.500   7.969
 3712TIP3    H132695   6.069   4.425   7.919
 3712TIP3    H232696   6.042   4.508   8.043
 3713TIP3   OH232697   4.138   2.599   8.293
 3713TIP3    H132698   4.227   2.599   8.258
 3713TIP3    H232699   4.089   2.656   8.234
 3714TIP3   OH232700   0.581   6.501   1.717
 3714TIP3    H132701   0.634   6.580   1.720
 3714TIP3    H232702   0.640   6.434   1.681
 3715TIP3   OH232703   6.375   2.328   1.831
 3715TIP3    H132704   6.392   2.284   1.747
 3715TIP3    H232705   6.417   2.271   1.896
 3716TIP3   OH232706   1.679   0.675   1.775
 3716TIP3    H132707   1.627   0.605   1.816
 3716TIP3    H232708   1.763   0.673   1.820
 3717TIP3   OH232709   3.105   6.370   0.665
 3717TIP3    H132710   3.068   6.373   0.577
 3717TIP3    H232711   3.124   6.277   0.680
 3718TIP3   OH232712   6.391   2.652   0.876
 3718TIP3    H132713   6.384   2.588   0.947
 3718TIP3    H232714   6.402   2.598   0.797
 3719TIP3   OH232715   3.775   3.224   8.414
 3719TIP3    H132716   3.716   3.182   8.476
 3719TIP3    H232717   3.845   3.262   8.467
 3720TIP3   OH232718   2.265   0.655   8.515
 3720TIP3    H132719   2.197   0.589   8.529
 3720TIP3    H232720   2.263   0.671   8.421
 3721TIP3   OH232721   4.005   1.779   7.341
 3721TIP3    H132722   4.049   1.786   7.426
 3721TIP3    H232723   4.075   1.757   7.279
 3722TIP3   OH232724   4.053   0.330   8.059
 3722TIP3    H132725   3.966   0.316   8.097
 3722TIP3    H232726   4.054   0.421   8.033
 3723TIP3   OH232727   2.898   2.840   1.518
 3723TIP3    H132728   2.831   2.908   1.527
 3723TIP3    H232729   2.926   2.823   1.608
 3724TIP3   OH232730   4.415   6.847   0.836
 3724TIP3    H132731   4.502   6.839   0.874
 3724TIP3    H232732   4.396   0.054   0.838
 3725TIP3   OH232733   4.230   5.068   7.530
 3725TIP3    H132734   4.238   4.999   7.465
 3725TIP3    H232735   4.190   5.025   7.606
 3726TIP3   OH232736   3.060   3.688   1.942
 3726TIP3    H132737   3.103   3.620   1.993
 3726TIP3    H232738   2.999   3.641   1.886
 3727TIP3   OH232739   6.820   2.468   1.843
 3727TIP3    H132740   6.784   2.556   1.833
 3727TIP3    H232741   0.011   2.480   1.898
 3728TIP3   OH232742   4.860   0.741   1.648
 3728TIP3    H132743   4.871   0.682   1.573
 3728TIP3    H232744   4.947   0.777   1.664
 3729TIP3   OH232745   3.322   0.973   7.267
 3729TIP3    H132746   3.273   1.027   7.329
 3729TIP3    H232747   3.259   0.906   7.239
 3730TIP3   OH232748   6.773   3.091   2.049
 3730TIP3    H132749   6.808   3.032   2.116
 3730TIP3    H232750   6.773   3.177   2.091
 3731TIP3   OH232751   4.939   6.802   2.258
 3731TIP3    H132752   4.889   6.730   2.220
 3731TIP3    H232753   4.993   6.834   2.186
 3732TIP3   OH232754   1.603   6.578   7.646
 3732TIP3    H132755   1.632   6.490   7.673
 3732TIP3    H232756   1.508   6.576   7.655
 3733TIP3   OH232757   4.388   0.359   8.027
 3733TIP3    H132758   4.339   0.322   8.100
 3733TIP3    H232759   4.364   0.304   7.952
 3734TIP3   OH232760   4.582   1.491   2.049
 3734TIP3    H132761   4.560   1.577   2.083
 3734TIP3    H232762   4.636   1.509   1.972
 3735TIP3   OH232763   1.853   0.420   1.681
 3735TIP3    H132764   1.762   0.393   1.668
 3735TIP3    H232765   1.851   0.516   1.678
 3736TIP3   OH232766   2.678   2.884   1.848
 3736TIP3    H132767   2.666   2.892   1.943
 3736TIP3    H232768   2.698   2.792   1.834
 3737TIP3   OH232769   5.671   4.678   7.108
 3737TIP3    H132770   5.669   4.746   7.041
 3737TIP3    H232771   5.606   4.706   7.172
 3738TIP3   OH232772   2.494   6.242   7.405
 3738TIP3    H132773   2.446   6.159   7.414
 3738TIP3    H232774   2.468   6.276   7.319
 3739TIP3   OH232775   6.494   3.026   7.825
 3739TIP3    H132776   6.548   2.974   7.884
 3739TIP3    H232777   6.409   2.983   7.827
 3740TIP3   OH232778   4.955   4.323   2.402
 3740TIP3    H132779   4.992   4.401   2.444
 3740TIP3    H232780   5.027   4.260   2.399
 3741TIP3   OH232781   2.228   6.123   7.252
 3741TIP3    H132782   2.203   6.053   7.312
 3741TIP3    H232783   2.278   6.080   7.183
 3742TIP3   OH232784   1.701   2.677   0.582
 3742TIP3    H132785   1.634   2.672   0.514
 3742TIP3    H232786   1.688   2.763   0.622
 3743TIP3   OH232787   3.144   6.381   1.100
 3743TIP3    H132788   3.094   6.456   1.133
 3743TIP3    H232789   3.231   6.392   1.137
 3744TIP3   OH232790   1.342   2.176   7.999
 3744TIP3    H132791   1.413   2.200   7.940
 3744TIP3    H232792   1.365   2.087   8.029
 3745TIP3   OH232793   5.392   0.023   6.907
 3745TIP3    H132794   5.473   0.062   6.874
 3745TIP3    H232795   5.377   6.835   6.850
 3746TIP3   OH232796   3.708   5.849   7.837
 3746TIP3    H132797   3.691   5.824   7.747
 3746TIP3    H232798   3.736   5.767   7.880
 3747TIP3   OH232799   6.830   6.349   1.203
 3747TIP3    H132800   6.854   6.258   1.222
 3747TIP3    H232801   0.027   6.394   1.194
 3748TIP3   OH232802   4.115   3.187   8.177
 3748TIP3    H132803   4.074   3.115   8.127
 3748TIP3    H232804   4.208   3.178   8.159
 3749TIP3   OH232805   5.883   3.351   8.057
 3749TIP3    H132806   5.901   3.428   8.110
 3749TIP3    H232807   5.793   3.363   8.027
 3750TIP3   OH232808   4.464   6.004   1.255
 3750TIP3    H132809   4.434   5.968   1.339
 3750TIP3    H232810   4.429   5.944   1.190
 3751TIP3   OH232811   0.260   0.926   6.338
 3751TIP3    H132812   0.265   0.842   6.383
 3751TIP3    H232813   0.180   0.921   6.286
 3752TIP3   OH232814   4.320   2.802   8.027
 3752TIP3    H132815   4.291   2.784   7.938
 3752TIP3    H232816   4.253   2.861   8.062
 3753TIP3   OH232817   2.102   1.511   0.791
 3753TIP3    H132818   2.194   1.496   0.772
 3753TIP3    H232819   2.089   1.605   0.778
 3754TIP3   OH232820   1.530   0.778   0.488
 3754TIP3    H132821   1.545   0.815   0.401
 3754TIP3    H232822   1.437   0.756   0.489
 3755TIP3   OH232823   5.634   5.056   6.606
 3755TIP3    H132824   5.701   5.072   6.673
 3755TIP3    H232825   5.588   4.978   6.636
 3756TIP3   OH232826   4.857   1.591   8.241
 3756TIP3    H132827   4.897   1.677   8.228
 3756TIP3    H232828   4.909   1.532   8.186
 3757TIP3   OH232829   6.731   4.172   6.756
 3757TIP3    H132830   6.702   4.258   6.723
 3757TIP3    H232831   6.653   4.117   6.751
 3758TIP3   OH232832   2.075   6.696   1.176
 3758TIP3    H132833   2.061   6.782   1.136
 3758TIP3    H232834   2.152   6.661   1.131
 3759TIP3   OH232835   5.778   1.601   1.438
 3759TIP3    H132836   5.796   1.550   1.517
 3759TIP3    H232837   5.738   1.682   1.470
 3760TIP3   OH232838   4.483   1.222   0.092
 3760TIP3    H132839   4.436   1.243   0.011
 3760TIP3    H232840   4.437   1.274   0.159
 3761TIP3   OH232841   1.604   0.563   6.567
 3761TIP3    H132842   1.694   0.593   6.560
 3761TIP3    H232843   1.609   0.469   6.554
 3762TIP3   OH232844   3.352   6.203   0.910
 3762TIP3    H132845   3.332   6.203   1.004
 3762TIP3    H232846   3.405   6.125   0.897
 3763TIP3   OH232847   5.098   4.908   1.448
 3763TIP3    H132848   5.083   4.996   1.415
 3763TIP3    H232849   5.165   4.918   1.515
 3764TIP3   OH232850   4.330   4.859   0.817
 3764TIP3    H132851   4.304   4.951   0.825
 3764TIP3    H232852   4.422   4.857   0.841
 3765TIP3   OH232853   4.651   3.713   0.548
 3765TIP3    H132854   4.616   3.802   0.548
 3765TIP3    H232855   4.711   3.710   0.622
 3766TIP3   OH232856   5.424   1.667   0.829
 3766TIP3    H132857   5.353   1.626   0.781
 3766TIP3    H232858   5.381   1.713   0.901
 3767TIP3   OH232859   3.736   6.171   2.575
 3767TIP3    H132860   3.811   6.212   2.617
 3767TIP3    H232861   3.756   6.077   2.575
 3768TIP3   OH232862   1.112   4.265   8.179
 3768TIP3    H132863   1.128   4.317   8.101
 3768TIP3    H232864   1.102   4.176   8.148
 3769TIP3   OH232865   5.034   1.388   7.153
 3769TIP3    H132866   4.957   1.385   7.210
 3769TIP3    H232867   5.043   1.299   7.120
 3770TIP3   OH232868   5.404   2.981   8.222
 3770TIP3    H132869   5.401   2.995   8.317
 3770TIP3    H232870   5.448   2.897   8.212
 3771TIP3   OH232871   0.359   5.320   7.626
 3771TIP3    H132872   0.379   5.407   7.660
 3771TIP3    H232873   0.406   5.260   7.683
 3772TIP3   OH232874   3.379   6.307   0.200
 3772TIP3    H132875   3.461   6.300   0.250
 3772TIP3    H232876   3.400   6.268   0.115
 3773TIP3   OH232877   2.299   0.239   1.496
 3773TIP3    H132878   2.217   0.283   1.519
 3773TIP3    H232879   2.281   0.199   1.411
 3774TIP3   OH232880   2.887   3.881   7.243
 3774TIP3    H132881   2.930   3.798   7.263
 3774TIP3    H232882   2.930   3.913   7.164
 3775TIP3   OH232883   1.013   1.218   7.369
 3775TIP3    H132884   1.096   1.241   7.412
 3775TIP3    H232885   1.023   1.250   7.279
 3776TIP3   OH232886   6.262   0.077   8.297
 3776TIP3    H132887   6.220   0.088   8.211
 3776TIP3    H232888   6.207   0.012   8.342
 3777TIP3   OH232889   0.993   0.733   6.795
 3777TIP3    H132890   0.934   0.799   6.832
 3777TIP3    H232891   0.977   0.736   6.701
 3778TIP3   OH232892   3.566   0.808   0.640
 3778TIP3    H132893   3.550   0.714   0.649
 3778TIP3    H232894   3.611   0.817   0.556
 3779TIP3   OH232895   5.771   6.665   2.007
 3779TIP3    H132896   5.791   6.671   2.101
 3779TIP3    H232897   5.857   6.662   1.965
 3780TIP3   OH232898   2.460   2.268   7.919
 3780TIP3    H132899   2.373   2.244   7.886
 3780TIP3    H232900   2.489   2.338   7.860
 3781TIP3   OH232901   3.242   4.662   7.884
 3781TIP3    H132902   3.299   4.678   7.960
 3781TIP3    H232903   3.207   4.749   7.861
 3782TIP3   OH232904   6.065   1.885   8.344
 3782TIP3    H132905   6.130   1.847   8.284
 3782TIP3    H232906   6.115   1.909   8.421
 3783TIP3   OH232907   2.192   6.799   0.041
 3783TIP3    H132908   2.103   6.791   0.007
 3783TIP3    H232909   2.249   6.781   8.580
 3784TIP3   OH232910   1.808   1.377   0.225
 3784TIP3    H132911   1.892   1.356   0.266
 3784TIP3    H232912   1.797   1.309   0.158
 3785TIP3   OH232913   6.647   3.819   6.249
 3785TIP3    H132914   6.569   3.767   6.230
 3785TIP3    H232915   6.720   3.760   6.232
 3786TIP3   OH232916   3.676   1.520   8.248
 3786TIP3    H132917   3.769   1.520   8.224
 3786TIP3    H232918   3.631   1.552   8.169
 3787TIP3   OH232919   5.855   4.389   6.913
 3787TIP3    H132920   5.842   4.419   7.003
 3787TIP3    H232921   5.781   4.331   6.895
 3788TIP3   OH232922   1.952   0.293   2.241
 3788TIP3    H132923   1.968   0.380   2.206
 3788TIP3    H232924   1.913   0.244   2.169
 3789TIP3   OH232925   0.693   5.201   0.833
 3789TIP3    H132926   0.760   5.204   0.902
 3789TIP3    H232927   0.667   5.292   0.822
 3790TIP3   OH232928   4.174   2.144   8.341
 3790TIP3    H132929   4.196   2.119   8.430
 3790TIP3    H232930   4.222   2.226   8.327
 3791TIP3   OH232931   0.297   4.772   0.430
 3791TIP3    H132932   0.380   4.801   0.393
 3791TIP3    H232933   0.319   4.693   0.480
 3792TIP3   OH232934   4.413   2.564   7.161
 3792TIP3    H132935   4.425   2.557   7.067
 3792TIP3    H232936   4.483   2.623   7.190
 3793TIP3   OH232937   4.555   2.369   1.130
 3793TIP3    H132938   4.616   2.307   1.092
 3793TIP3    H232939   4.568   2.450   1.080
 3794TIP3   OH232940   5.644   1.351   8.339
 3794TIP3    H132941   5.617   1.286   8.275
 3794TIP3    H232942   5.740   1.350   8.336
 3795TIP3   OH232943   3.525   3.711   1.848
 3795TIP3    H132944   3.476   3.727   1.928
 3795TIP3    H232945   3.458   3.701   1.780
 3796TIP3   OH232946   4.618   5.317   1.415
 3796TIP3    H132947   4.587   5.232   1.386
 3796TIP3    H232948   4.642   5.304   1.507
 3797TIP3   OH232949   6.581   0.757   7.232
 3797TIP3    H132950   6.486   0.756   7.249
 3797TIP3    H232951   6.599   0.844   7.198
 3798TIP3   OH232952   4.831   4.143   1.363
 3798TIP3    H132953   4.877   4.225   1.381
 3798TIP3    H232954   4.740   4.169   1.347
 3799TIP3   OH232955   2.402   5.083   0.513
 3799TIP3    H132956   2.457   5.097   0.590
 3799TIP3    H232957   2.374   5.171   0.487
 3800TIP3   OH232958   4.820   3.902   6.719
 3800TIP3    H132959   4.761   3.911   6.645
 3800TIP3    H232960   4.903   3.873   6.681
 3801TIP3   OH232961   3.462   1.411   8.367
 3801TIP3    H132962   3.513   1.337   8.400
 3801TIP3    H232963   3.526   1.464   8.319
 3802TIP3   OH232964   1.718   5.418   1.757
 3802TIP3    H132965   1.748   5.497   1.711
 3802TIP3    H232966   1.720   5.349   1.691
 3803TIP3   OH232967   1.005   6.876   7.464
 3803TIP3    H132968   0.985   6.788   7.431
 3803TIP3    H232969   1.087   6.866   7.513
 3804TIP3   OH232970   3.412   6.097   2.065
 3804TIP3    H132971   3.500   6.080   2.032
 3804TIP3    H232972   3.362   6.125   1.988
 3805TIP3   OH232973   6.703   3.996   1.447
 3805TIP3    H132974   6.740   3.937   1.381
 3805TIP3    H232975   6.699   3.943   1.526
 3806TIP3   OH232976   5.772   4.059   1.550
 3806TIP3    H132977   5.820   3.997   1.606
 3806TIP3    H232978   5.706   4.097   1.608
 3807TIP3   OH232979   6.405   4.097   0.403
 3807TIP3    H132980   6.391   4.022   0.346
 3807TIP3    H232981   6.497   4.120   0.391
 3808TIP3   OH232982   0.968   3.877   7.708
 3808TIP3    H132983   1.034   3.940   7.679
 3808TIP3    H232984   1.020   3.803   7.742
 3809TIP3   OH232985   2.035   0.072   2.378
 3809TIP3    H132986   2.003   6.878   2.338
 3809TIP3    H232987   2.009   0.141   2.316
 3810TIP3   OH232988   6.868   2.487   6.281
 3810TIP3    H132989   6.835   2.570   6.246
 3810TIP3    H232990   0.072   2.483   6.250
 3811TIP3   OH232991   4.992   0.504   1.448
 3811TIP3    H132992   5.075   0.546   1.467
 3811TIP3    H232993   5.016   0.417   1.416
 3812TIP3   OH232994   4.913   6.788   0.150
 3812TIP3    H132995   5.006   6.812   0.140
 3812TIP3    H232996   4.894   6.805   0.242
 3813TIP3   OH232997   6.849   2.238   8.092
 3813TIP3    H132998   6.818   2.309   8.035
 3813TIP3    H232999   6.885   2.173   8.032
 3814TIP3   OH233000   0.522   5.767   1.188
 3814TIP3    H133001   0.547   5.695   1.246
 3814TIP3    H233002   0.455   5.814   1.238
 3815TIP3   OH233003   3.926   3.519   8.607
 3815TIP3    H133004   3.954   3.429   0.008
 3815TIP3    H233005   3.946   3.535   8.515
 3816TIP3   OH233006   3.670   0.949   6.347
 3816TIP3    H133007   3.679   1.020   6.283
 3816TIP3    H233008   3.705   0.985   6.428
 3817TIP3   OH233009   3.145   1.458   0.268
 3817TIP3    H133010   3.150   1.551   0.293
 3817TIP3    H233011   3.095   1.458   0.187
 3818TIP3   OH233012   1.979   5.413   8.375
 3818TIP3    H133013   1.960   5.505   8.355
 3818TIP3    H233014   1.894   5.369   8.370
 3819TIP3   OH233015   3.194   1.503   1.081
 3819TIP3    H133016   3.259   1.437   1.057
 3819TIP3    H233017   3.155   1.470   1.162
 3820TIP3   OH233018   6.692   1.583   6.503
 3820TIP3    H133019   6.755   1.539   6.561
 3820TIP3    H233020   6.619   1.521   6.496
 3821TIP3   OH233021   2.196   3.495   0.554
 3821TIP3    H133022   2.240   3.543   0.625
 3821TIP3    H233023   2.217   3.403   0.571
 3822TIP3   OH233024   6.655   5.104   0.623
 3822TIP3    H133025   6.641   5.049   0.546
 3822TIP3    H233026   6.743   5.140   0.611
 3823TIP3   OH233027   0.050   6.342   0.349
 3823TIP3    H133028   6.859   6.287   0.356
 3823TIP3    H233029   0.017   6.431   0.364
 3824TIP3   OH233030   2.042   0.282   1.858
 3824TIP3    H133031   1.981   0.240   1.919
 3824TIP3    H233032   1.988   0.343   1.809
 3825TIP3   OH233033   1.363   0.124   0.283
 3825TIP3    H133034   1.408   0.124   0.199
 3825TIP3    H233035   1.328   0.036   0.292
 3826TIP3   OH233036   3.000   5.476   0.202
 3826TIP3    H133037   3.060   5.427   0.146
 3826TIP3    H233038   2.913   5.440   0.181
 3827TIP3   OH233039   2.362   1.345   0.450
 3827TIP3    H133040   2.399   1.257   0.457
 3827TIP3    H233041   2.363   1.380   0.539
 3828TIP3   OH233042   1.079   5.989   1.593
 3828TIP3    H133043   1.072   6.049   1.667
 3828TIP3    H233044   1.063   6.044   1.516
 3829TIP3   OH233045   2.111   3.872   8.164
 3829TIP3    H133046   2.189   3.926   8.173
 3829TIP3    H233047   2.101   3.860   8.069
 3830TIP3   OH233048   1.004   0.362   6.626
 3830TIP3    H133049   0.962   0.290   6.579
 3830TIP3    H233050   0.952   0.439   6.601
 3831TIP3   OH233051   4.645   1.692   6.579
 3831TIP3    H133052   4.564   1.669   6.625
 3831TIP3    H233053   4.626   1.775   6.537
 3832TIP3   OH233054   1.165   4.424   7.631
 3832TIP3    H133055   1.179   4.369   7.553
 3832TIP3    H233056   1.073   4.410   7.653
 3833TIP3   OH233057   0.996   2.583   8.402
 3833TIP3    H133058   0.946   2.531   8.465
 3833TIP3    H233059   0.977   2.543   8.317
 3834TIP3   OH233060   3.635   2.337   0.116
 3834TIP3    H133061   3.661   2.421   0.155
 3834TIP3    H233062   3.546   2.323   0.150
 3835TIP3   OH233063   5.578   3.711   1.320
 3835TIP3    H133064   5.500   3.668   1.354
 3835TIP3    H233065   5.564   3.804   1.339
 3836TIP3   OH233066   3.525   5.637   6.502
 3836TIP3    H133067   3.580   5.705   6.539
 3836TIP3    H233068   3.586   5.567   6.477
 3837TIP3   OH233069   6.745   6.705   7.450
 3837TIP3    H133070   6.796   6.637   7.494
 3837TIP3    H233071   6.778   6.788   7.485
 3838TIP3   OH233072   6.446   0.531   2.270
 3838TIP3    H133073   6.490   0.591   2.211
 3838TIP3    H233074   6.507   0.519   2.343
 3839TIP3   OH233075   2.540   2.799   2.363
 3839TIP3    H133076   2.584   2.718   2.389
 3839TIP3    H233077   2.449   2.773   2.349
 3840TIP3   OH233078   5.785   2.876   7.284
 3840TIP3    H133079   5.773   2.806   7.348
 3840TIP3    H233080   5.698   2.912   7.270
 3841TIP3   OH233081   4.568   5.279   0.315
 3841TIP3    H133082   4.568   5.189   0.347
 3841TIP3    H233083   4.554   5.333   0.393
 3842TIP3   OH233084   0.754   1.248   5.985
 3842TIP3    H133085   0.812   1.255   6.060
 3842TIP3    H233086   0.725   1.156   5.985
 3843TIP3   OH233087   6.419   5.045   1.712
 3843TIP3    H133088   6.354   5.110   1.737
 3843TIP3    H233089   6.418   5.045   1.616
 3844TIP3   OH233090   6.250   3.345   1.601
 3844TIP3    H133091   6.327   3.313   1.647
 3844TIP3    H233092   6.185   3.359   1.670
 3845TIP3   OH233093   2.896   0.371   6.995
 3845TIP3    H133094   2.959   0.412   6.936
 3845TIP3    H233095   2.850   0.307   6.939
 3846TIP3   OH233096   1.922   1.932   6.506
 3846TIP3    H133097   1.930   1.911   6.413
 3846TIP3    H233098   1.963   1.857   6.551
 3847TIP3   OH233099   1.426   0.771   6.916
 3847TIP3    H133100   1.498   0.782   6.854
 3847TIP3    H233101   1.468   0.770   7.002
 3848TIP3   OH233102   0.313   3.416   0.941
 3848TIP3    H133103   0.272   3.331   0.927
 3848TIP3    H233104   0.393   3.396   0.990
 3849TIP3   OH233105   6.300   4.884   8.262
 3849TIP3    H133106   6.277   4.801   8.220
 3849TIP3    H233107   6.339   4.859   8.346
 3850TIP3   OH233108   3.658   0.515   0.634
 3850TIP3    H133109   3.656   0.431   0.679
 3850TIP3    H233110   3.576   0.518   0.584
 3851TIP3   OH233111   0.900   1.282   6.213
 3851TIP3    H133112   0.904   1.200   6.262
 3851TIP3    H233113   0.873   1.347   6.278
 3852TIP3   OH233114   6.429   1.105   1.901
 3852TIP3    H133115   6.350   1.132   1.855
 3852TIP3    H233116   6.398   1.043   1.967
 3853TIP3   OH233117   4.549   3.968   0.542
 3853TIP3    H133118   4.642   3.983   0.523
 3853TIP3    H233119   4.520   4.050   0.584
 3854TIP3   OH233120   2.181   3.168   1.609
 3854TIP3    H133121   2.256   3.222   1.584
 3854TIP3    H233122   2.192   3.087   1.560
 3855TIP3   OH233123   3.152   5.367   8.608
 3855TIP3    H133124   3.222   5.413   8.562
 3855TIP3    H233125   3.123   5.299   8.547
 3856TIP3   OH233126   5.922   2.421   0.065
 3856TIP3    H133127   5.904   2.329   0.043
 3856TIP3    H233128   5.853   2.470   0.020
 3857TIP3   OH233129   2.253   3.688   7.323
 3857TIP3    H133130   2.293   3.610   7.361
 3857TIP3    H233131   2.302   3.703   7.242
 3858TIP3   OH233132   6.578   4.858   8.242
 3858TIP3    H133133   6.648   4.889   8.298
 3858TIP3    H233134   6.505   4.917   8.260
 3859TIP3   OH233135   2.359   5.313   7.284
 3859TIP3    H133136   2.377   5.223   7.256
 3859TIP3    H233137   2.268   5.311   7.313
 3860TIP3   OH233138   3.257   0.843   6.519
 3860TIP3    H133139   3.185   0.891   6.478
 3860TIP3    H233140   3.336   0.880   6.481
 3861TIP3   OH233141   1.550   2.294   7.839
 3861TIP3    H133142   1.616   2.281   7.771
 3861TIP3    H233143   1.515   2.382   7.823
 3862TIP3   OH233144   4.416   3.434   6.929
 3862TIP3    H133145   4.325   3.415   6.954
 3862TIP3    H233146   4.439   3.511   6.982
 3863TIP3   OH233147   4.338   4.078   1.429
 3863TIP3    H133148   4.373   4.073   1.518
 3863TIP3    H233149   4.243   4.086   1.441
 3864TIP3   OH233150   4.561   5.582   6.954
 3864TIP3    H133151   4.627   5.581   7.024
 3864TIP3    H233152   4.608   5.550   6.877
 3865TIP3   OH233153   3.640   6.855   2.688
 3865TIP3    H133154   3.620   0.039   2.627
 3865TIP3    H233155   3.555   6.817   2.710
 3866TIP3   OH233156   1.906   5.980   7.641
 3866TIP3    H133157   1.988   5.967   7.689
 3866TIP3    H233158   1.841   6.000   7.708
 3867TIP3   OH233159   0.081   6.442   0.736
 3867TIP3    H133160   0.067   6.501   0.810
 3867TIP3    H233161   0.012   6.376   0.744
 3868TIP3   OH233162   2.518   5.855   1.811
 3868TIP3    H133163   2.506   5.764   1.840
 3868TIP3    H233164   2.589   5.851   1.747
 3869TIP3   OH233165   0.239   4.363   8.522
 3869TIP3    H133166   0.310   4.390   8.581
 3869TIP3    H233167   0.234   4.433   8.456
 3870TIP3   OH233168   4.044   1.198   1.401
 3870TIP3    H133169   3.959   1.167   1.368
 3870TIP3    H233170   4.052   1.287   1.368
 3871TIP3   OH233171   0.601   1.368   7.427
 3871TIP3    H133172   0.565   1.455   7.414
 3871TIP3    H233173   0.554   1.313   7.365
 3872TIP3   OH233174   0.181   2.158   0.804
 3872TIP3    H133175   0.098   2.143   0.850
 3872TIP3    H233176   0.162   2.228   0.742
 3873TIP3   OH233177   2.419   5.706   7.043
 3873TIP3    H133178   2.470   5.710   7.124
 3873TIP3    H233179   2.406   5.613   7.026
 3874TIP3   OH233180   2.111   6.377   1.998
 3874TIP3    H133181   2.112   6.398   2.091
 3874TIP3    H233182   2.140   6.458   1.955
 3875TIP3   OH233183   6.502   4.799   7.305
 3875TIP3    H133184   6.487   4.760   7.219
 3875TIP3    H233185   6.482   4.729   7.367
 3876TIP3   OH233186   2.569   1.814   8.538
 3876TIP3    H133187   2.637   1.786   8.599
 3876TIP3    H233188   2.487   1.787   8.580
 3877TIP3   OH233189   2.600   5.473   8.468
 3877TIP3    H133190   2.686   5.483   8.427
 3877TIP3    H233191   2.606   5.390   8.516
 3878TIP3   OH233192   1.111   1.147   8.457
 3878TIP3    H133193   1.088   1.074   8.399
 3878TIP3    H233194   1.031   1.164   8.507
 3879TIP3   OH233195   2.448   3.865   8.562
 3879TIP3    H133196   2.476   3.898   0.033
 3879TIP3    H233197   2.497   3.783   8.551
 3880TIP3   OH233198   6.648   6.488   7.787
 3880TIP3    H133199   6.645   6.412   7.728
 3880TIP3    H233200   6.699   6.457   7.863
 3881TIP3   OH233201   3.209   3.578   7.210
 3881TIP3    H133202   3.216   3.489   7.244
 3881TIP3    H233203   3.292   3.619   7.233
 3882TIP3   OH233204   5.469   6.363   8.093
 3882TIP3    H133205   5.436   6.419   8.164
 3882TIP3    H233206   5.559   6.342   8.119
 3883TIP3   OH233207   0.542   1.498   8.584
 3883TIP3    H133208   0.599   1.484   8.508
 3883TIP3    H233209   0.516   1.410   8.611
 3884TIP3   OH233210   6.800   4.590   1.329
 3884TIP3    H133211   6.716   4.627   1.358
 3884TIP3    H233212   6.816   4.631   1.244
 3885TIP3   OH233213   2.598   1.511   7.152
 3885TIP3    H133214   2.527   1.451   7.175
 3885TIP3    H233215   2.563   1.562   7.080
 3886TIP3   OH233216   6.186   4.462   0.393
 3886TIP3    H133217   6.251   4.464   0.323
 3886TIP3    H233218   6.163   4.369   0.402
 3887TIP3   OH233219   4.160   4.124   0.975
 3887TIP3    H133220   4.115   4.177   0.911
 3887TIP3    H233221   4.121   4.149   1.059
 3888TIP3   OH233222   2.399   1.491   1.061
 3888TIP3    H133223   2.414   1.575   1.019
 3888TIP3    H233224   2.450   1.428   1.009
 3889TIP3   OH233225   1.481   5.633   6.740
 3889TIP3    H133226   1.537   5.684   6.682
 3889TIP3    H233227   1.399   5.624   6.692
 3890TIP3   OH233228   2.935   5.940   7.765
 3890TIP3    H133229   2.849   5.970   7.736
 3890TIP3    H233230   2.934   5.846   7.750
 3891TIP3   OH233231   4.987   6.198   0.474
 3891TIP3    H133232   4.907   6.181   0.424
 3891TIP3    H233233   4.968   6.165   0.561
 3892TIP3   OH233234   0.818   3.189   7.141
 3892TIP3    H133235   0.833   3.225   7.054
 3892TIP3    H233236   0.724   3.200   7.155
 3893TIP3   OH233237   2.875   2.876   6.873
 3893TIP3    H133238   2.820   2.899   6.798
 3893TIP3    H233239   2.944   2.942   6.874
 3894TIP3   OH233240   1.866   1.914   8.301
 3894TIP3    H133241   1.918   1.983   8.260
 3894TIP3    H233242   1.881   1.925   8.395
 3895TIP3   OH233243   4.997   0.469   8.471
 3895TIP3    H133244   4.913   0.434   8.440
 3895TIP3    H233245   4.979   0.562   8.488
 3896TIP3   OH233246   5.098   1.778   8.525
 3896TIP3    H133247   5.160   1.736   8.466
 3896TIP3    H233248   5.128   1.755   8.613
 3897TIP3   OH233249   4.518   1.491   6.825
 3897TIP3    H133250   4.470   1.433   6.765
 3897TIP3    H233251   4.504   1.579   6.789
 3898TIP3   OH233252   0.209   5.740   1.342
 3898TIP3    H133253   0.116   5.741   1.320
 3898TIP3    H233254   0.228   5.831   1.368
 3899TIP3   OH233255   5.829   1.158   0.331
 3899TIP3    H133256   5.844   1.148   0.425
 3899TIP3    H233257   5.915   1.144   0.291
 3900TIP3   OH233258   5.354   6.429   1.715
 3900TIP3    H133259   5.354   6.335   1.694
 3900TIP3    H233260   5.330   6.432   1.808
 3901TIP3   OH233261   4.558   4.317   1.895
 3901TIP3    H133262   4.648   4.286   1.904
 3901TIP3    H233263   4.564   4.412   1.902
 3902TIP3   OH233264   6.788   3.488   0.572
 3902TIP3    H133265   6.755   3.554   0.633
 3902TIP3    H233266   6.795   3.533   0.488
 3903TIP3   OH233267   6.478   4.307   2.316
 3903TIP3    H133268   6.475   4.379   2.380
 3903TIP3    H233269   6.389   4.303   2.281
 3904TIP3   OH233270   5.675   0.781   1.492
 3904TIP3    H133271   5.767   0.806   1.504
 3904TIP3    H233272   5.652   0.818   1.406
 3905TIP3   OH233273   0.936   4.984   1.143
 3905TIP3    H133274   0.934   4.915   1.210
 3905TIP3    H233275   1.004   4.956   1.082
 3906TIP3   OH233276   2.476   2.389   7.668
 3906TIP3    H133277   2.403   2.339   7.633
 3906TIP3    H233278   2.481   2.467   7.612
 3907TIP3   OH233279   0.397   4.682   7.314
 3907TIP3    H133280   0.467   4.637   7.362
 3907TIP3    H233281   0.317   4.659   7.361
 3908TIP3   OH233282   5.448   4.443   0.688
 3908TIP3    H133283   5.381   4.511   0.683
 3908TIP3    H233284   5.497   4.451   0.606
 3909TIP3   OH233285   4.066   6.197   7.555
 3909TIP3    H133286   3.996   6.192   7.489
 3909TIP3    H233287   4.026   6.161   7.635
 3910TIP3   OH233288   3.907   4.395   8.489
 3910TIP3    H133289   3.904   4.452   8.413
 3910TIP3    H233290   3.869   4.312   8.459
 3911TIP3   OH233291   3.083   1.494   7.244
 3911TIP3    H133292   3.108   1.527   7.158
 3911TIP3    H233293   3.111   1.561   7.306
 3912TIP3   OH233294   2.247   6.420   1.559
 3912TIP3    H133295   2.211   6.363   1.627
 3912TIP3    H233296   2.176   6.480   1.538
 3913TIP3   OH233297   6.305   5.614   0.503
 3913TIP3    H133298   6.388   5.636   0.461
 3913TIP3    H233299   6.240   5.615   0.433
 3914TIP3   OH233300   0.820   1.756   7.033
 3914TIP3    H133301   0.839   1.663   7.023
 3914TIP3    H233302   0.758   1.760   7.106
 3915TIP3   OH233303   0.435   4.348   0.114
 3915TIP3    H133304   0.406   4.425   0.163
 3915TIP3    H233305   0.401   4.274   0.163
 3916TIP3   OH233306   5.396   5.472   6.602
 3916TIP3    H133307   5.330   5.520   6.651
 3916TIP3    H233308   5.477   5.483   6.652
 3917TIP3   OH233309   3.055   4.323   0.299
 3917TIP3    H133310   2.991   4.253   0.286
 3917TIP3    H233311   3.085   4.344   0.210
 3918TIP3   OH233312   1.451   5.393   1.222
 3918TIP3    H133313   1.426   5.301   1.225
 3918TIP3    H233314   1.491   5.404   1.136
 3919TIP3   OH233315   3.878   3.500   7.224
 3919TIP3    H133316   3.784   3.506   7.239
 3919TIP3    H233317   3.889   3.529   7.133
 3920TIP3   OH233318   2.628   5.900   7.260
 3920TIP3    H133319   2.661   5.811   7.258
 3920TIP3    H233320   2.704   5.954   7.281
 3921TIP3   OH233321   0.707   5.276   7.121
 3921TIP3    H133322   0.619   5.269   7.157
 3921TIP3    H233323   0.708   5.215   7.048
 3922TIP3   OH233324   1.073   0.082   1.662
 3922TIP3    H133325   1.104   0.140   1.592
 3922TIP3    H233326   1.036   0.007   1.615
 3923TIP3   OH233327   2.029   5.839   1.610
 3923TIP3    H133328   2.061   5.925   1.581
 3923TIP3    H233329   2.050   5.780   1.538
 3924TIP3   OH233330   6.249   3.524   0.262
 3924TIP3    H133331   6.285   3.527   0.173
 3924TIP3    H233332   6.220   3.613   0.279
 3925TIP3   OH233333   0.001   2.425   0.971
 3925TIP3    H133334   6.838   2.345   0.953
 3925TIP3    H233335   6.848   2.491   0.913
 3926TIP3   OH233336   5.922   0.420   0.908
 3926TIP3    H133337   5.896   0.505   0.944
 3926TIP3    H233338   5.996   0.392   0.963
 3927TIP3   OH233339   4.091   6.474   6.862
 3927TIP3    H133340   4.016   6.525   6.891
 3927TIP3    H233341   4.061   6.431   6.783
 3928TIP3   OH233342   4.266   0.778   0.094
 3928TIP3    H133343   4.262   0.711   0.026
 3928TIP3    H233344   4.262   0.861   0.046
 3929TIP3   OH233345   5.550   2.125   0.130
 3929TIP3    H133346   5.595   2.104   0.048
 3929TIP3    H233347   5.550   2.043   0.179
 3930TIP3   OH233348   6.695   6.594   2.521
 3930TIP3    H133349   6.657   6.506   2.517
 3930TIP3    H233350   6.620   6.652   2.534
 3931TIP3   OH233351   2.462   1.377   1.605
 3931TIP3    H133352   2.472   1.291   1.645
 3931TIP3    H233353   2.552   1.404   1.583
 3932TIP3   OH233354   2.232   5.630   0.864
 3932TIP3    H133355   2.137   5.620   0.870
 3932TIP3    H233356   2.267   5.554   0.911
 3933TIP3   OH233357   6.750   5.451   8.372
 3933TIP3    H133358   6.670   5.399   8.378
 3933TIP3    H233359   6.743   5.514   8.444
 3934TIP3   OH233360   1.864   5.689   2.900
 3934TIP3    H133361   1.937   5.630   2.919
 3934TIP3    H233362   1.897   5.748   2.833
 3935TIP3   OH233363   1.424   3.420   0.019
 3935TIP3    H133364   1.380   3.347   0.063
 3935TIP3    H233365   1.462   3.380   8.554
 3936TIP3   OH233366   5.512   2.888   1.029
 3936TIP3    H133367   5.480   2.831   0.958
 3936TIP3    H233368   5.470   2.972   1.012
 3937TIP3   OH233369   3.889   1.856   7.638
 3937TIP3    H133370   3.941   1.781   7.668
 3937TIP3    H233371   3.901   1.857   7.543
 3938TIP3   OH233372   4.908   3.284   1.975
 3938TIP3    H133373   4.989   3.336   1.980
 3938TIP3    H233374   4.887   3.266   2.067
 3939TIP3   OH233375   1.858   6.519   7.190
 3939TIP3    H133376   1.888   6.476   7.270
 3939TIP3    H233377   1.895   6.607   7.196
 3940TIP3   OH233378   5.510   6.462   7.205
 3940TIP3    H133379   5.478   6.423   7.124
 3940TIP3    H233380   5.445   6.529   7.226
 3941TIP3   OH233381   4.424   1.579   0.721
 3941TIP3    H133382   4.348   1.602   0.667
 3941TIP3    H233383   4.432   1.650   0.784
 3942TIP3   OH233384   1.119   1.927   0.145
 3942TIP3    H133385   1.069   1.868   0.201
 3942TIP3    H233386   1.145   1.999   0.202
 3943TIP3   OH233387   5.541   2.409   6.814
 3943TIP3    H133388   5.499   2.494   6.804
 3943TIP3    H233389   5.471   2.351   6.844
 3944TIP3   OH233390   0.144   4.099   2.186
 3944TIP3    H133391   0.077   4.119   2.251
 3944TIP3    H233392   0.197   4.179   2.182
 3945TIP3   OH233393   4.102   1.807   0.107
 3945TIP3    H133394   4.017   1.769   0.084
 3945TIP3    H233395   4.107   1.800   0.203
 3946TIP3   OH233396   4.583   5.711   7.456
 3946TIP3    H133397   4.547   5.638   7.507
 3946TIP3    H233398   4.555   5.695   7.366
 3947TIP3   OH233399   1.842   3.853   2.197
 3947TIP3    H133400   1.875   3.924   2.251
 3947TIP3    H233401   1.760   3.826   2.240
 3948TIP3   OH233402   0.459   2.094   0.500
 3948TIP3    H133403   0.385   2.039   0.477
 3948TIP3    H233404   0.507   2.044   0.566
 3949TIP3   OH233405   3.810   4.165   8.346
 3949TIP3    H133406   3.792   4.100   8.278
 3949TIP3    H233407   3.725   4.181   8.387
 3950TIP3   OH233408   4.225   6.309   1.460
 3950TIP3    H133409   4.304   6.279   1.416
 3950TIP3    H233410   4.222   6.258   1.541
 3951TIP3   OH233411   2.500   1.266   7.513
 3951TIP3    H133412   2.537   1.185   7.477
 3951TIP3    H233413   2.567   1.332   7.495
 3952TIP3   OH233414   4.612   6.314   7.413
 3952TIP3    H133415   4.657   6.381   7.464
 3952TIP3    H233416   4.592   6.356   7.330
 3953TIP3   OH233417   3.123   3.356   8.572
 3953TIP3    H133418   3.176   3.375   8.494
 3953TIP3    H233419   3.140   3.263   8.590
 3954TIP3   OH233420   0.979   4.407   0.863
 3954TIP3    H133421   1.046   4.471   0.840
 3954TIP3    H233422   1.029   4.330   0.890
 3955TIP3   OH233423   3.269   3.132   1.454
 3955TIP3    H133424   3.283   3.155   1.362
 3955TIP3    H233425   3.329   3.059   1.470
 3956TIP3   OH233426   4.936   6.832   1.077
 3956TIP3    H133427   4.950   0.031   1.116
 3956TIP3    H233428   4.882   6.785   1.142
 3957TIP3   OH233429   4.013   3.183   6.635
 3957TIP3    H133430   4.086   3.205   6.693
 3957TIP3    H233431   4.037   3.098   6.597
 3958TIP3   OH233432   4.503   0.812   1.401
 3958TIP3    H133433   4.502   0.875   1.329
 3958TIP3    H233434   4.544   0.859   1.473
 3959TIP3   OH233435   1.732   6.391   1.457
 3959TIP3    H133436   1.783   6.471   1.443
 3959TIP3    H233437   1.763   6.358   1.542
 3960TIP3   OH233438   2.097   5.689   0.347
 3960TIP3    H133439   2.180   5.681   0.300
 3960TIP3    H233440   2.038   5.728   0.282
 3961TIP3   OH233441   1.478   2.260   8.276
 3961TIP3    H133442   1.460   2.324   8.346
 3961TIP3    H233443   1.492   2.178   8.322
 3962TIP3   OH233444   5.624   1.672   1.167
 3962TIP3    H133445   5.686   1.736   1.131
 3962TIP3    H233446   5.671   1.633   1.241
 3963TIP3   OH233447   5.604   0.117   6.769
 3963TIP3    H133448   5.631   0.070   6.690
 3963TIP3    H233449   5.672   0.184   6.780
 3964TIP3   OH233450   0.828   2.065   0.465
 3964TIP3    H133451   0.775   2.068   0.544
 3964TIP3    H233452   0.906   2.116   0.487
 3965TIP3   OH233453   5.996   2.484   7.044
 3965TIP3    H133454   5.918   2.437   7.014
 3965TIP3    H233455   6.053   2.488   6.968
 3966TIP3   OH233456   0.845   0.916   6.933
 3966TIP3    H133457   0.787   0.899   6.859
 3966TIP3    H233458   0.788   0.957   6.998
 3967TIP3   OH233459   4.576   6.194   0.301
 3967TIP3    H133460   4.563   6.171   0.393
 3967TIP3    H233461   4.655   6.145   0.275
 3968TIP3   OH233462   2.325   6.025   7.035
 3968TIP3    H133463   2.278   6.061   6.960
 3968TIP3    H233464   2.313   5.931   7.027
 3969TIP3   OH233465   6.394   0.739   8.439
 3969TIP3    H133466   6.318   0.742   8.497
 3969TIP3    H233467   6.417   0.830   8.425
 3970TIP3   OH233468   6.468   0.148   1.985
 3970TIP3    H133469   6.407   0.086   1.945
 3970TIP3    H233470   6.552   0.131   1.941
 3971TIP3   OH233471   4.172   5.297   0.170
 3971TIP3    H133472   4.081   5.265   0.166
 3971TIP3    H233473   4.206   5.261   0.253
 3972TIP3   OH233474   1.963   3.054   0.070
 3972TIP3    H133475   2.027   3.076   0.139
 3972TIP3    H233476   1.988   3.110   8.610
 3973TIP3   OH233477   1.894   6.571   0.098
 3973TIP3    H133478   1.842   6.494   0.122
 3973TIP3    H233479   1.894   6.572   0.003
 3974TIP3   OH233480   4.928   2.312   7.780
 3974TIP3    H133481   4.887   2.390   7.743
 3974TIP3    H233482   5.013   2.343   7.813
 3975TIP3   OH233483   6.819   5.941   0.860
 3975TIP3    H133484   0.023   5.961   0.881
 3975TIP3    H233485   6.817   5.929   0.765
 3976TIP3   OH233486   0.270   3.174   8.088
 3976TIP3    H133487   0.178   3.146   8.094
 3976TIP3    H233488   0.314   3.127   8.158
 3977TIP3   OH233489   2.410   0.553   7.973
 3977TIP3    H133490   2.400   0.647   7.956
 3977TIP3    H233491   2.370   0.540   8.059
 3978TIP3   OH233492   3.927   0.356   7.243
 3978TIP3    H133493   3.949   0.299   7.169
 3978TIP3    H233494   3.963   0.441   7.219
 3979TIP3   OH233495   2.525   6.772   7.225
 3979TIP3    H133496   2.525   6.677   7.212
 3979TIP3    H233497   2.448   6.790   7.278
 3980TIP3   OH233498   6.831   4.603   6.691
 3980TIP3    H133499   6.747   4.595   6.646
 3980TIP3    H233500   0.008   4.616   6.620
 3981TIP3   OH233501   4.118   4.942   7.729
 3981TIP3    H133502   4.105   4.871   7.792
 3981TIP3    H233503   4.059   5.011   7.759
 3982TIP3   OH233504   5.714   0.229   0.686
 3982TIP3    H133505   5.723   0.249   0.779
 3982TIP3    H233506   5.662   0.301   0.650
 3983TIP3   OH233507   5.739   5.727   0.684
 3983TIP3    H133508   5.775   5.774   0.760
 3983TIP3    H233509   5.730   5.636   0.714
 3984TIP3   OH233510   1.997   1.647   1.706
 3984TIP3    H133511   1.991   1.743   1.696
 3984TIP3    H233512   1.945   1.628   1.783
 3985TIP3   OH233513   1.918   2.175   7.438
 3985TIP3    H133514   1.950   2.135   7.518
 3985TIP3    H233515   1.990   2.163   7.375
 3986TIP3   OH233516   2.492   0.916   7.545
 3986TIP3    H133517   2.552   0.969   7.493
 3986TIP3    H233518   2.548   0.871   7.609
 3987TIP3   OH233519   6.885   3.773   7.854
 3987TIP3    H133520   0.083   3.734   7.875
 3987TIP3    H233521   6.869   3.748   7.763
 3988TIP3   OH233522   4.429   1.579   7.135
 3988TIP3    H133523   4.485   1.564   7.059
 3988TIP3    H233524   4.417   1.493   7.174
 3989TIP3   OH233525   6.224   4.686   2.219
 3989TIP3    H133526   6.197   4.669   2.310
 3989TIP3    H233527   6.145   4.669   2.167
 3990TIP3   OH233528   6.149   2.804   1.700
 3990TIP3    H133529   6.198   2.748   1.760
 3990TIP3    H233530   6.212   2.872   1.675
 3991TIP3   OH233531   1.947   1.896   1.966
 3991TIP3    H133532   1.973   1.898   1.873
 3991TIP3    H233533   1.915   1.984   1.983
 3992TIP3   OH233534   5.789   6.321   8.141
 3992TIP3    H133535   5.841   6.325   8.221
 3992TIP3    H233536   5.831   6.254   8.087
 3993TIP3   OH233537   0.229   4.174   1.622
 3993TIP3    H133538   0.173   4.236   1.668
 3993TIP3    H233539   0.205   4.089   1.659
 3994TIP3   OH233540   3.757   3.752   7.401
 3994TIP3    H133541   3.709   3.682   7.447
 3994TIP3    H233542   3.688   3.803   7.358
 3995TIP3   OH233543   2.408   2.092   1.310
 3995TIP3    H133544   2.469   2.164   1.297
 3995TIP3    H233545   2.356   2.090   1.229
 3996TIP3   OH233546   5.565   1.230   0.996
 3996TIP3    H133547   5.660   1.225   0.995
 3996TIP3    H233548   5.545   1.317   1.031
 3997TIP3   OH233549   2.568   6.682   1.111
 3997TIP3    H133550   2.603   6.594   1.127
 3997TIP3    H233551   2.620   6.715   1.037
 3998TIP3   OH233552   4.125   6.427   1.211
 3998TIP3    H133553   4.030   6.419   1.213
 3998TIP3    H233554   4.155   6.379   1.288
 3999TIP3   OH233555   4.522   2.037   1.386
 3999TIP3    H133556   4.505   1.995   1.470
 3999TIP3    H233557   4.563   2.121   1.409
 4000TIP3   OH233558   1.495   4.015   1.235
 4000TIP3    H133559   1.572   3.968   1.205
 4000TIP3    H233560   1.422   3.955   1.217
 4001TIP3   OH233561   6.866   5.262   7.283
 4001TIP3    H133562   6.784   5.289   7.242
 4001TIP3    H233563   0.043   5.263   7.212
 4002TIP3   OH233564   1.736   1.403   1.738
 4002TIP3    H133565   1.775   1.381   1.823
 4002TIP3    H233566   1.730   1.499   1.738
 4003TIP3   OH233567   6.584   3.589   6.899
 4003TIP3    H133568   6.599   3.524   6.830
 4003TIP3    H233569   6.528   3.655   6.859
 4004TIP3   OH233570   6.599   4.990   0.376
 4004TIP3    H133571   6.575   4.898   0.377
 4004TIP3    H233572   6.652   5.000   0.296
 4005TIP3   OH233573   2.971   1.374   0.961
 4005TIP3    H133574   3.057   1.409   0.984
 4005TIP3    H233575   2.987   1.318   0.885
 4006TIP3   OH233576   0.470   2.675   1.084
 4006TIP3    H133577   0.502   2.746   1.028
 4006TIP3    H233578   0.422   2.719   1.153
 4007TIP3   OH233579   4.499   2.493   1.606
 4007TIP3    H133580   4.523   2.480   1.698
 4007TIP3    H233581   4.440   2.568   1.607
 4008TIP3   OH233582   4.045   5.090   1.870
 4008TIP3    H133583   3.960   5.120   1.904
 4008TIP3    H233584   4.093   5.063   1.948
 4009TIP3   OH233585   0.111   2.820   2.036
 4009TIP3    H133586   0.081   2.882   2.103
 4009TIP3    H233587   0.060   2.740   2.053
 4010TIP3   OH233588   4.318   3.895   8.055
 4010TIP3    H133589   4.308   3.946   8.136
 4010TIP3    H233590   4.310   3.960   7.985
 4011TIP3   OH233591   4.676   6.864   0.920
 4011TIP3    H133592   4.746   0.042   0.913
 4011TIP3    H233593   4.709   6.789   0.871
 4012TIP3   OH233594   2.741   6.579   0.311
 4012TIP3    H133595   2.728   6.561   0.404
 4012TIP3    H233596   2.664   6.541   0.269
 4013TIP3   OH233597   1.658   6.314   1.028
 4013TIP3    H133598   1.618   6.309   1.115
 4013TIP3    H233599   1.710   6.234   1.021
 4014TIP3   OH233600   2.558   1.883   2.374
 4014TIP3    H133601   2.532   1.795   2.401
 4014TIP3    H233602   2.516   1.941   2.438
 4015TIP3   OH233603   4.163   5.248   1.580
 4015TIP3    H133604   4.147   5.278   1.491
 4015TIP3    H233605   4.252   5.277   1.600
 4016TIP3   OH233606   4.573   3.284   0.919
 4016TIP3    H133607   4.625   3.284   0.838
 4016TIP3    H233608   4.628   3.239   0.982
 4017TIP3   OH233609   2.915   3.476   6.302
 4017TIP3    H133610   2.864   3.478   6.383
 4017TIP3    H233611   2.988   3.536   6.318
 4018TIP3   OH233612   3.542   0.237   6.675
 4018TIP3    H133613   3.495   0.320   6.664
 4018TIP3    H233614   3.485   0.172   6.635
 4019TIP3   OH233615   1.698   0.672   7.383
 4019TIP3    H133616   1.755   0.705   7.452
 4019TIP3    H233617   1.646   0.603   7.425
 4020TIP3   OH233618   3.686   1.277   7.575
 4020TIP3    H133619   3.621   1.241   7.634
 4020TIP3    H233620   3.761   1.218   7.581
 4021TIP3   OH233621   3.776   6.251   0.107
 4021TIP3    H133622   3.828   6.198   0.168
 4021TIP3    H233623   3.732   6.186   0.052
 4022TIP3   OH233624   5.479   6.322   1.238
 4022TIP3    H133625   5.495   6.249   1.297
 4022TIP3    H233626   5.453   6.394   1.295
 4023TIP3   OH233627   5.105   4.138   7.016
 4023TIP3    H133628   5.196   4.123   6.992
 4023TIP3    H233629   5.056   4.114   6.937
 4024TIP3   OH233630   4.106   1.898   8.198
 4024TIP3    H133631   4.131   1.983   8.235
 4024TIP3    H233632   4.030   1.918   8.144
 4025TIP3   OH233633   4.891   3.109   0.438
 4025TIP3    H133634   4.813   3.115   0.383
 4025TIP3    H233635   4.958   3.156   0.388
 4026TIP3   OH233636   2.532   3.499   8.154
 4026TIP3    H133637   2.577   3.561   8.211
 4026TIP3    H233638   2.589   3.422   8.152
 4027TIP3   OH233639   4.783   0.747   7.959
 4027TIP3    H133640   4.715   0.698   7.913
 4027TIP3    H233641   4.802   0.695   8.037
 4028TIP3   OH233642   1.786   0.798   0.127
 4028TIP3    H133643   1.879   0.795   0.151
 4028TIP3    H233644   1.769   0.713   0.087
 4029TIP3   OH233645   3.361   0.100   7.416
 4029TIP3    H133646   3.387   0.187   7.384
 4029TIP3    H233647   3.266   0.105   7.422
 4030TIP3   OH233648   1.249   1.756   1.571
 4030TIP3    H133649   1.160   1.793   1.573
 4030TIP3    H233650   1.257   1.712   1.656
 4031TIP3   OH233651   0.706   5.540   7.172
 4031TIP3    H133652   0.746   5.570   7.090
 4031TIP3    H233653   0.680   5.450   7.155
 4032TIP3   OH233654   6.493   0.385   6.555
 4032TIP3    H133655   6.465   0.417   6.469
 4032TIP3    H233656   6.548   0.309   6.536
 4033TIP3   OH233657   4.518   2.471   7.460
 4033TIP3    H133658   4.562   2.501   7.540
 4033TIP3    H233659   4.536   2.539   7.396
 4034TIP3   OH233660   2.593   4.282   2.005
 4034TIP3    H133661   2.527   4.317   2.064
 4034TIP3    H233662   2.677   4.298   2.049
 4035TIP3   OH233663   3.352   6.590   0.447
 4035TIP3    H133664   3.433   6.567   0.403
 4035TIP3    H233665   3.290   6.608   0.376
 4036TIP3   OH233666   6.512   0.488   8.514
 4036TIP3    H133667   6.478   0.574   8.493
 4036TIP3    H233668   6.436   0.430   8.508
 4037TIP3   OH233669   1.111   2.966   0.032
 4037TIP3    H133670   1.051   3.041   0.033
 4037TIP3    H233671   1.119   2.943   8.553
 4038TIP3   OH233672   6.733   3.342   1.906
 4038TIP3    H133673   6.730   3.324   2.000
 4038TIP3    H233674   6.650   3.386   1.887
 4039TIP3   OH233675   6.705   3.835   0.914
 4039TIP3    H133676   6.691   3.817   0.821
 4039TIP3    H233677   6.644   3.906   0.934
 4040TIP3   OH233678   4.747   4.987   1.903
 4040TIP3    H133679   4.742   4.942   1.819
 4040TIP3    H233680   4.781   5.074   1.882
 4041TIP3   OH233681   5.093   5.211   0.294
 4041TIP3    H133682   5.106   5.253   0.380
 4041TIP3    H233683   5.042   5.275   0.244
 4042TIP3   OH233684   4.758   5.044   1.238
 4042TIP3    H133685   4.698   5.050   1.164
 4042TIP3    H233686   4.729   4.965   1.285
 4043TIP3   OH233687   5.949   5.015   7.463
 4043TIP3    H133688   5.965   4.993   7.554
 4043TIP3    H233689   5.854   5.011   7.453
 4044TIP3   OH233690   4.377   4.075   8.309
 4044TIP3    H133691   4.332   4.068   8.393
 4044TIP3    H233692   4.453   4.131   8.326
 4045TIP3   OH233693   4.788   6.686   1.280
 4045TIP3    H133694   4.750   6.603   1.309
 4045TIP3    H233695   4.868   6.693   1.332
 4046TIP3   OH233696   1.443   1.054   0.948
 4046TIP3    H133697   1.505   1.044   0.876
 4046TIP3    H233698   1.376   0.988   0.932
 4047TIP3   OH233699   1.944   2.630   7.034
 4047TIP3    H133700   1.970   2.712   7.076
 4047TIP3    H233701   2.026   2.591   7.006
 4048TIP3   OH233702   1.387   5.445   7.872
 4048TIP3    H133703   1.459   5.419   7.929
 4048TIP3    H233704   1.429   5.492   7.800
 4049TIP3   OH233705   0.684   0.920   8.542
 4049TIP3    H133706   0.615   0.907   8.477
 4049TIP3    H233707   0.676   0.844   8.600
 4050TIP3   OH233708   1.902   2.253   1.310
 4050TIP3    H133709   1.833   2.315   1.332
 4050TIP3    H233710   1.975   2.307   1.280
 4051TIP3   OH233711   0.880   5.152   6.930
 4051TIP3    H133712   0.957   5.162   6.873
 4051TIP3    H233713   0.888   5.224   6.993
 4052TIP3   OH233714   1.006   4.903   7.409
 4052TIP3    H133715   1.067   4.901   7.336
 4052TIP3    H233716   1.037   4.834   7.468
 4053TIP3   OH233717   0.675   3.554   7.278
 4053TIP3    H133718   0.728   3.477   7.298
 4053TIP3    H233719   0.712   3.588   7.196
 4054TIP3   OH233720   2.962   5.795   7.505
 4054TIP3    H133721   2.944   5.838   7.421
 4054TIP3    H233722   2.900   5.723   7.509
 4055TIP3   OH233723   1.720   5.653   0.314
 4055TIP3    H133724   1.772   5.627   0.238
 4055TIP3    H233725   1.746   5.743   0.332
 4056TIP3   OH233726   2.102   6.738   7.472
 4056TIP3    H133727   2.064   6.717   7.557
 4056TIP3    H233728   2.105   6.833   7.470
 4057TIP3   OH233729   4.220   1.401   0.539
 4057TIP3    H133730   4.212   1.376   0.631
 4057TIP3    H233731   4.244   1.320   0.494
 4058TIP3   OH233732   2.073   2.053   8.486
 4058TIP3    H133733   2.010   2.011   8.545
 4058TIP3    H233734   2.139   1.985   8.470
 4059TIP3   OH233735   4.756   3.511   7.161
 4059TIP3    H133736   4.680   3.470   7.203
 4059TIP3    H233737   4.759   3.474   7.073
 4060TIP3   OH233738   4.272   0.562   2.445
 4060TIP3    H133739   4.327   0.486   2.464
 4060TIP3    H233740   4.253   0.600   2.531
 4061TIP3   OH233741   2.828   4.417   1.854
 4061TIP3    H133742   2.829   4.469   1.935
 4061TIP3    H233743   2.867   4.333   1.879
 4062TIP3   OH233744   5.932   4.571   7.534
 4062TIP3    H133745   6.027   4.563   7.529
 4062TIP3    H233746   5.899   4.504   7.474
 4063TIP3   OH233747   1.040   6.216   6.689
 4063TIP3    H133748   1.097   6.289   6.665
 4063TIP3    H233749   0.953   6.254   6.695
 4064TIP3   OH233750   0.297   6.747   7.587
 4064TIP3    H133751   0.351   6.823   7.608
 4064TIP3    H233752   0.356   6.688   7.540
 4065TIP3   OH233753   3.279   4.193   6.201
 4065TIP3    H133754   3.292   4.163   6.111
 4065TIP3    H233755   3.188   4.171   6.220
 4066TIP3   OH233756   2.125   6.638   7.056
 4066TIP3    H133757   2.085   6.692   7.124
 4066TIP3    H233758   2.130   6.550   7.094
 4067TIP3   OH233759   1.391   0.805   1.208
 4067TIP3    H133760   1.350   0.802   1.121
 4067TIP3    H233761   1.322   0.838   1.265
 4068TIP3   OH233762   3.079   3.425   1.378
 4068TIP3    H133763   3.043   3.505   1.417
 4068TIP3    H233764   3.136   3.388   1.445
 4069TIP3   OH233765   1.247   0.199   6.513
 4069TIP3    H133766   1.181   0.266   6.499
 4069TIP3    H233767   1.311   0.213   6.444
 4070TIP3   OH233768   0.849   1.657   8.508
 4070TIP3    H133769   0.928   1.689   8.464
 4070TIP3    H233770   0.812   1.594   8.446
 4071TIP3   OH233771   4.750   5.757   0.459
 4071TIP3    H133772   4.798   5.706   0.394
 4071TIP3    H233773   4.812   5.766   0.532
 4072TIP3   OH233774   2.172   1.131   6.613
 4072TIP3    H133775   2.207   1.219   6.629
 4072TIP3    H233776   2.211   1.078   6.682
 4073TIP3   OH233777   4.505   0.967   8.175
 4073TIP3    H133778   4.499   1.044   8.231
 4073TIP3    H233779   4.591   0.973   8.134
 4074TIP3   OH233780   1.593   0.167   0.076
 4074TIP3    H133781   1.643   0.233   0.123
 4074TIP3    H233782   1.652   0.092   0.070
 4075TIP3   OH233783   4.497   6.121   7.776
 4075TIP3    H133784   4.453   6.201   7.747
 4075TIP3    H233785   4.430   6.074   7.826
 4076TIP3   OH233786   5.686   0.494   7.242
 4076TIP3    H133787   5.681   0.566   7.180
 4076TIP3    H233788   5.779   0.491   7.268
 4077TIP3   OH233789   4.362   2.663   0.356
 4077TIP3    H133790   4.281   2.615   0.372
 4077TIP3    H233791   4.342   2.721   0.283
 4078TIP3   OH233792   2.971   0.946   1.229
 4078TIP3    H133793   2.963   0.956   1.134
 4078TIP3    H233794   3.007   1.029   1.259
 4079TIP3   OH233795   6.732   0.834   8.302
 4079TIP3    H133796   6.777   0.874   8.377
 4079TIP3    H233797   6.714   0.744   8.331
 4080TIP3   OH233798   5.140   2.297   2.242
 4080TIP3    H133799   5.088   2.352   2.301
 4080TIP3    H233800   5.079   2.230   2.212
 4081TIP3   OH233801   0.535   3.346   7.616
 4081TIP3    H133802   0.445   3.318   7.631
 4081TIP3    H233803   0.542   3.431   7.660
 4082TIP3   OH233804   2.500   2.570   8.326
 4082TIP3    H133805   2.581   2.594   8.370
 4082TIP3    H233806   2.477   2.484   8.363
 4083TIP3   OH233807   4.462   3.132   1.748
 4083TIP3    H133808   4.371   3.138   1.778
 4083TIP3    H233809   4.475   3.039   1.730
 4084TIP3   OH233810   5.796   2.155   6.640
 4084TIP3    H133811   5.742   2.136   6.716
 4084TIP3    H233812   5.786   2.250   6.627
 4085TIP3   OH233813   3.581   4.848   7.087
 4085TIP3    H133814   3.638   4.771   7.093
 4085TIP3    H233815   3.561   4.871   7.178
 4086TIP3   OH233816   5.168   3.729   8.362
 4086TIP3    H133817   5.104   3.732   8.291
 4086TIP3    H233818   5.117   3.715   8.441
 4087TIP3   OH233819   4.163   5.946   7.476
 4087TIP3    H133820   4.253   5.948   7.509
 4087TIP3    H233821   4.138   6.038   7.470
 4088TIP3   OH233822   6.407   6.242   0.742
 4088TIP3    H133823   6.396   6.256   0.836
 4088TIP3    H233824   6.320   6.253   0.705
 4089TIP3   OH233825   6.136   0.036   8.052
 4089TIP3    H133826   6.048   0.074   8.059
 4089TIP3    H233827   6.122   6.836   8.016
 4090TIP3   OH233828   0.371   5.922   2.297
 4090TIP3    H133829   0.452   5.947   2.254
 4090TIP3    H233830   0.387   5.833   2.330
 4091TIP3   OH233831   1.274   6.850   7.621
 4091TIP3    H133832   1.287   6.880   7.711
 4091TIP3    H233833   1.292   0.039   7.567
 4092TIP3   OH233834   3.272   0.372   7.514
 4092TIP3    H133835   3.328   0.403   7.586
 4092TIP3    H233836   3.275   0.442   7.449
 4093TIP3   OH233837   4.825   6.537   2.314
 4093TIP3    H133838   4.790   6.448   2.313
 4093TIP3    H233839   4.899   6.534   2.253
 4094TIP3   OH233840   5.088   1.889   1.504
 4094TIP3    H133841   5.088   1.947   1.428
 4094TIP3    H233842   5.032   1.816   1.478
 4095TIP3   OH233843   4.938   0.869   0.865
 4095TIP3    H133844   4.983   0.855   0.949
 4095TIP3    H233845   4.943   0.964   0.851
 4096TIP3   OH233846   0.634   2.359   7.585
 4096TIP3    H133847   0.584   2.440   7.596
 4096TIP3    H233848   0.647   2.351   7.491
 4097TIP3   OH233849   0.313   2.903   1.238
 4097TIP3    H133850   0.355   2.988   1.240
 4097TIP3    H233851   0.263   2.903   1.156
 4098TIP3   OH233852   6.050   2.965   7.661
 4098TIP3    H133853   5.959   2.936   7.663
 4098TIP3    H233854   6.046   3.059   7.678
 4099TIP3   OH233855   2.759   2.365   8.153
 4099TIP3    H133856   2.726   2.410   8.076
 4099TIP3    H233857   2.795   2.434   8.208
 4100TIP3   OH233858   2.963   5.990   1.656
 4100TIP3    H133859   2.937   6.054   1.722
 4100TIP3    H233860   3.055   5.972   1.675
 4101TIP3   OH233861   6.492   2.081   8.161
 4101TIP3    H133862   6.499   2.173   8.185
 4101TIP3    H233863   6.476   2.082   8.067
 4102TIP3   OH233864   3.569   2.579   6.478
 4102TIP3    H133865   3.553   2.509   6.414
 4102TIP3    H233866   3.660   2.605   6.462
 4103TIP3   OH233867   3.502   5.033   1.600
 4103TIP3    H133868   3.571   5.010   1.662
 4103TIP3    H233869   3.469   5.117   1.631
 4104TIP3   OH233870   5.256   4.858   7.640
 4104TIP3    H133871   5.220   4.893   7.721
 4104TIP3    H233872   5.350   4.876   7.647
 4105TIP3   OH233873   4.528   4.227   0.615
 4105TIP3    H133874   4.605   4.282   0.628
 4105TIP3    H233875   4.472   4.244   0.690
 4106TIP3   OH233876   5.360   1.826   1.375
 4106TIP3    H133877   5.446   1.785   1.364
 4106TIP3    H233878   5.317   1.770   1.440
 4107TIP3   OH233879   0.434   3.894   1.432
 4107TIP3    H133880   0.413   3.980   1.394
 4107TIP3    H233881   0.435   3.909   1.526
 4108TIP3   OH233882   0.473   2.593   7.958
 4108TIP3    H133883   0.525   2.663   7.997
 4108TIP3    H233884   0.495   2.516   8.010
 4109TIP3   OH233885   2.144   6.604   7.826
 4109TIP3    H133886   2.128   6.576   7.916
 4109TIP3    H233887   2.094   6.685   7.817
 4110TIP3   OH233888   6.885   1.432   8.248
 4110TIP3    H133889   6.865   1.466   8.336
 4110TIP3    H233890   0.035   1.508   8.202
 4111TIP3   OH233891   0.999   4.273   8.432
 4111TIP3    H133892   1.065   4.287   8.364
 4111TIP3    H233893   0.973   4.181   8.421
 4112TIP3   OH233894   1.732   5.296   8.358
 4112TIP3    H133895   1.654   5.352   8.350
 4112TIP3    H233896   1.698   5.207   8.354
 4113TIP3   OH233897   1.523   0.609   1.504
 4113TIP3    H133898   1.592   0.621   1.440
 4113TIP3    H233899   1.567   0.620   1.589
 4114TIP3   OH233900   2.037   2.572   0.229
 4114TIP3    H133901   2.038   2.630   0.152
 4114TIP3    H233902   2.082   2.622   0.297
 4115TIP3   OH233903   6.186   5.858   0.535
 4115TIP3    H133904   6.165   5.886   0.624
 4115TIP3    H233905   6.224   5.771   0.546
 4116TIP3   OH233906   1.216   3.258   8.489
 4116TIP3    H133907   1.143   3.311   8.520
 4116TIP3    H233908   1.176   3.197   8.426
 4117TIP3   OH233909   2.697   3.022   7.906
 4117TIP3    H133910   2.688   3.075   7.827
 4117TIP3    H233911   2.619   2.966   7.908
 4118TIP3   OH233912   5.591   4.813   1.227
 4118TIP3    H133913   5.526   4.883   1.230
 4118TIP3    H233914   5.560   4.755   1.157
 4119TIP3   OH233915   5.461   2.193   1.923
 4119TIP3    H133916   5.447   2.226   1.834
 4119TIP3    H233917   5.506   2.264   1.969
 4120TIP3   OH233918   3.071   5.148   8.435
 4120TIP3    H133919   3.002   5.211   8.415
 4120TIP3    H233920   3.027   5.079   8.485
 4121TIP3   OH233921   4.313   3.125   0.910
 4121TIP3    H133922   4.262   3.202   0.886
 4121TIP3    H233923   4.401   3.159   0.926
 4122TIP3   OH233924   2.567   1.069   0.029
 4122TIP3    H133925   2.570   1.001   0.096
 4122TIP3    H233926   2.479   1.062   8.605
 4123TIP3   OH233927   4.625   6.728   0.666
 4123TIP3    H133928   4.603   6.689   0.581
 4123TIP3    H233929   4.540   6.755   0.702
 4124TIP3   OH233930   3.598   1.186   7.991
 4124TIP3    H133931   3.580   1.165   7.900
 4124TIP3    H233932   3.597   1.282   7.995
 4125TIP3   OH233933   0.034   4.309   0.227
 4125TIP3    H133934   0.073   4.264   0.153
 4125TIP3    H233935   0.092   4.289   0.301
 4126TIP3   OH233936   3.457   0.977   0.245
 4126TIP3    H133937   3.419   0.969   0.333
 4126TIP3    H233938   3.497   1.063   0.245
 4127TIP3   OH233939   3.354   6.643   6.269
 4127TIP3    H133940   3.261   6.623   6.257
 4127TIP3    H233941   3.375   6.610   6.356
 4128TIP3   OH233942   3.696   0.574   8.086
 4128TIP3    H133943   3.618   0.519   8.093
 4128TIP3    H233944   3.678   0.632   8.011
 4129TIP3   OH233945   1.846   6.247   7.371
 4129TIP3    H133946   1.904   6.171   7.378
 4129TIP3    H233947   1.902   6.322   7.387
 4130TIP3   OH233948   3.279   2.679   8.116
 4130TIP3    H133949   3.211   2.611   8.123
 4130TIP3    H233950   3.361   2.632   8.128
 4131TIP3   OH233951   5.516   5.501   7.222
 4131TIP3    H133952   5.462   5.529   7.148
 4131TIP3    H233953   5.506   5.406   7.223
 4132TIP3   OH233954   3.210   2.790   2.085
 4132TIP3    H133955   3.281   2.847   2.055
 4132TIP3    H233956   3.249   2.738   2.156
 4133TIP3   OH233957   5.280   6.445   1.011
 4133TIP3    H133958   5.280   6.500   0.932
 4133TIP3    H233959   5.313   6.503   1.080
 4134TIP3   OH233960   6.432   6.596   7.631
 4134TIP3    H133961   6.381   6.565   7.706
 4134TIP3    H233962   6.523   6.579   7.655
 4135TIP3   OH233963   5.277   2.874   0.098
 4135TIP3    H133964   5.344   2.834   0.154
 4135TIP3    H233965   5.321   2.947   0.055
 4136TIP3   OH233966   6.272   0.613   7.902
 4136TIP3    H133967   6.327   0.536   7.920
 4136TIP3    H233968   6.197   0.603   7.961
 4137TIP3   OH233969   2.967   5.239   7.314
 4137TIP3    H133970   3.010   5.154   7.317
 4137TIP3    H233971   2.886   5.224   7.264
 4138TIP3   OH233972   4.712   1.031   6.652
 4138TIP3    H133973   4.650   1.090   6.609
 4138TIP3    H233974   4.687   0.943   6.622
 4139TIP3   OH233975   4.379   6.022   6.820
 4139TIP3    H133976   4.311   6.090   6.820
 4139TIP3    H233977   4.439   6.050   6.751
 4140TIP3   OH233978   2.815   0.410   1.388
 4140TIP3    H133979   2.788   0.389   1.478
 4140TIP3    H233980   2.850   0.499   1.393
 4141TIP3   OH233981   1.547   1.248   8.317
 4141TIP3    H133982   1.553   1.153   8.313
 4141TIP3    H233983   1.553   1.277   8.226
 4142TIP3   OH233984   5.489   4.536   7.395
 4142TIP3    H133985   5.549   4.567   7.464
 4142TIP3    H233986   5.407   4.581   7.413
 4143TIP3   OH233987   0.965   0.080   0.015
 4143TIP3    H133988   1.057   0.096   8.606
 4143TIP3    H233989   0.915   0.139   8.572
 4144TIP3   OH233990   3.097   6.778   0.791
 4144TIP3    H133991   3.188   6.750   0.786
 4144TIP3    H233992   3.096   6.846   0.857
 4145TIP3   OH233993   5.659   5.007   7.971
 4145TIP3    H133994   5.566   5.028   7.982
 4145TIP3    H233995   5.661   4.912   7.962
 4146TIP3   OH233996   4.997   1.204   1.663
 4146TIP3    H133997   4.955   1.130   1.619
 4146TIP3    H233998   5.088   1.177   1.673
 4147TIP3   OH233999   3.803   4.273   0.109
 4147TIP3    H134000   3.847   4.341   0.058
 4147TIP3    H234001   3.801   4.197   0.051
 4148TIP3   OH234002   0.118   2.430   2.359
 4148TIP3    H134003   0.197   2.481   2.380
 4148TIP3    H234004   0.151   2.352   2.315
 4149TIP3   OH234005   4.852   5.554   0.297
 4149TIP3    H134006   4.911   5.525   0.227
 4149TIP3    H234007   4.830   5.473   0.345
 4150TIP3   OH234008   3.042   4.524   2.210
 4150TIP3    H134009   3.087   4.440   2.224
 4150TIP3    H234010   2.949   4.500   2.204
 4151TIP3   OH234011   5.613   2.794   1.294
 4151TIP3    H134012   5.581   2.805   1.204
 4151TIP3    H234013   5.621   2.699   1.304
 4152TIP3   OH234014   5.418   5.229   1.345
 4152TIP3    H134015   5.329   5.238   1.381
 4152TIP3    H234016   5.470   5.292   1.394
 4153TIP3   OH234017   1.870   0.069   6.326
 4153TIP3    H134018   1.899   0.080   6.416
 4153TIP3    H234019   1.811   0.143   6.310
 4154TIP3   OH234020   4.611   0.619   2.319
 4154TIP3    H134021   4.548   0.549   2.302
 4154TIP3    H234022   4.694   0.586   2.284
 4155TIP3   OH234023   4.266   2.460   1.977
 4155TIP3    H134024   4.237   2.419   2.058
 4155TIP3    H234025   4.352   2.421   1.959
 4156TIP3   OH234026   1.510   1.096   0.271
 4156TIP3    H134027   1.418   1.093   0.296
 4156TIP3    H234028   1.532   1.006   0.247
 4157TIP3   OH234029   0.678   2.850   0.436
 4157TIP3    H134030   0.756   2.841   0.381
 4157TIP3    H234031   0.708   2.827   0.524
 4158TIP3   OH234032   3.335   1.106   0.905
 4158TIP3    H134033   3.323   1.186   0.853
 4158TIP3    H234034   3.419   1.070   0.875
 4159TIP3   OH234035   0.492   0.694   6.468
 4159TIP3    H134036   0.515   0.602   6.482
 4159TIP3    H234037   0.397   0.696   6.480
 4160TIP3   OH234038   0.898   4.120   7.049
 4160TIP3    H134039   0.937   4.098   7.134
 4160TIP3    H234040   0.812   4.078   7.050
 4161TIP3   OH234041   0.600   3.191   7.317
 4161TIP3    H134042   0.609   3.273   7.365
 4161TIP3    H234043   0.651   3.127   7.367
 4162TIP3   OH234044   6.591   2.478   7.430
 4162TIP3    H134045   6.642   2.549   7.469
 4162TIP3    H234046   6.637   2.456   7.349
 4163TIP3   OH234047   5.065   0.807   7.226
 4163TIP3    H134048   5.021   0.820   7.311
 4163TIP3    H234049   5.064   0.713   7.213
 4164TIP3   OH234050   1.547   2.934   1.910
 4164TIP3    H134051   1.496   2.880   1.850
 4164TIP3    H234052   1.633   2.943   1.868
 4165TIP3   OH234053   5.625   1.105   8.162
 4165TIP3    H134054   5.686   1.070   8.097
 4165TIP3    H234055   5.539   1.093   8.123
 4166TIP3   OH234056   4.267   2.860   0.826
 4166TIP3    H134057   4.282   2.951   0.852
 4166TIP3    H234058   4.204   2.827   0.890
 4167TIP3   OH234059   2.342   3.910   2.028
 4167TIP3    H134060   2.326   3.817   2.011
 4167TIP3    H234061   2.255   3.947   2.039
 4168TIP3   OH234062   4.064   6.879   1.424
 4168TIP3    H134063   4.080   6.816   1.494
 4168TIP3    H234064   3.969   0.002   1.421
 4169TIP3   OH234065   6.610   6.059   0.988
 4169TIP3    H134066   6.686   6.018   0.946
 4169TIP3    H234067   6.535   6.019   0.945
 4170TIP3   OH234068   4.838   6.642   2.023
 4170TIP3    H134069   4.794   6.563   1.992
 4170TIP3    H234070   4.805   6.712   1.966
 4171TIP3   OH234071   1.502   5.604   7.648
 4171TIP3    H134072   1.477   5.519   7.612
 4171TIP3    H234073   1.587   5.588   7.690
 4172TIP3   OH234074   5.737   2.251   6.336
 4172TIP3    H134075   5.824   2.214   6.347
 4172TIP3    H234076   5.746   2.343   6.361
 4173TIP3   OH234077   0.103   6.728   7.876
 4173TIP3    H134078   0.066   6.702   7.960
 4173TIP3    H234079   0.195   6.748   7.896
 4174TIP3   OH234080   5.225   1.771   1.751
 4174TIP3    H134081   5.296   1.775   1.688
 4174TIP3    H234082   5.146   1.757   1.699
 4175TIP3   OH234083   3.890   3.444   1.433
 4175TIP3    H134084   3.977   3.442   1.473
 4175TIP3    H234085   3.833   3.400   1.495
 4176TIP3   OH234086   6.387   2.195   0.449
 4176TIP3    H134087   6.309   2.146   0.473
 4176TIP3    H234088   6.460   2.137   0.472
 4177TIP3   OH234089   3.044   4.814   6.571
 4177TIP3    H134090   2.974   4.866   6.532
 4177TIP3    H234091   3.124   4.845   6.529
 4178TIP3   OH234092   2.343   1.246   0.018
 4178TIP3    H134093   2.257   1.213   8.610
 4178TIP3    H234094   2.367   1.302   8.557
 4179TIP3   OH234095   0.341   3.321   0.239
 4179TIP3    H134096   0.418   3.286   0.284
 4179TIP3    H234097   0.301   3.380   0.302
 4180TIP3   OH234098   6.271   3.336   0.930
 4180TIP3    H134099   6.346   3.363   0.983
 4180TIP3    H234100   6.306   3.328   0.841
 4181TIP3   OH234101   4.184   5.630   1.527
 4181TIP3    H134102   4.236   5.555   1.555
 4181TIP3    H234103   4.093   5.603   1.541
 4182TIP3   OH234104   0.482   2.229   8.602
 4182TIP3    H134105   0.541   2.303   8.587
 4182TIP3    H234106   0.536   2.164   0.033
 4183TIP3   OH234107   2.045   6.547   5.947
 4183TIP3    H134108   2.015   6.628   5.989
 4183TIP3    H234109   1.975   6.484   5.965
 4184TIP3   OH234110   4.051   0.442   0.324
 4184TIP3    H134111   3.981   0.442   0.389
 4184TIP3    H234112   4.076   0.534   0.315
 4185TIP3   OH234113   3.281   2.356   8.228
 4185TIP3    H134114   3.217   2.301   8.273
 4185TIP3    H234115   3.358   2.355   8.284
 4186TIP3   OH234116   0.854   3.495   8.263
 4186TIP3    H134117   0.852   3.578   8.311
 4186TIP3    H234118   0.763   3.465   8.264
 4187TIP3   OH234119   3.850   6.352   1.354
 4187TIP3    H134120   3.829   6.344   1.261
 4187TIP3    H234121   3.768   6.334   1.399
 4188TIP3   OH234122   5.332   3.388   8.563
 4188TIP3    H134123   5.261   3.341   8.606
 4188TIP3    H234124   5.295   3.416   8.479
 4189TIP3   OH234125   0.824   6.545   6.497
 4189TIP3    H134126   0.819   6.459   6.540
 4189TIP3    H234127   0.893   6.591   6.543
 4190TIP3   OH234128   0.543   3.278   0.974
 4190TIP3    H134129   0.574   3.353   1.025
 4190TIP3    H234130   0.581   3.291   0.887
 4191TIP3   OH234131   1.165   3.612   7.083
 4191TIP3    H134132   1.254   3.585   7.105
 4191TIP3    H234133   1.173   3.659   7.001
 4192TIP3   OH234134   5.686   6.378   1.674
 4192TIP3    H134135   5.778   6.370   1.649
 4192TIP3    H234136   5.686   6.367   1.769
 4193TIP3   OH234137   2.213   0.916   7.087
 4193TIP3    H134138   2.122   0.898   7.110
 4193TIP3    H234139   2.264   0.879   7.159
 4194TIP3   OH234140   0.668   2.568   0.293
 4194TIP3    H134141   0.623   2.635   0.344
 4194TIP3    H234142   0.651   2.486   0.339
 4195TIP3   OH234143   6.513   3.153   0.165
 4195TIP3    H134144   6.428   3.187   0.193
 4195TIP3    H234145   6.491   3.078   0.109
 4196TIP3   OH234146   3.385   6.332   1.267
 4196TIP3    H134147   3.456   6.386   1.233
 4196TIP3    H234148   3.409   6.242   1.242
 4197TIP3   OH234149   3.949   2.827   1.704
 4197TIP3    H134150   3.900   2.901   1.666
 4197TIP3    H234151   4.040   2.845   1.682
 4198TIP3   OH234152   3.218   4.082   7.951
 4198TIP3    H134153   3.206   4.176   7.967
 4198TIP3    H234154   3.200   4.071   7.858
 4199TIP3   OH234155   4.765   3.612   0.074
 4199TIP3    H134156   4.691   3.556   0.049
 4199TIP3    H234157   4.726   3.684   0.123
 4200TIP3   OH234158   2.754   3.623   7.639
 4200TIP3    H134159   2.767   3.586   7.726
 4200TIP3    H234160   2.718   3.711   7.655
 4201TIP3   OH234161   5.294   1.463   1.848
 4201TIP3    H134162   5.247   1.386   1.817
 4201TIP3    H234163   5.297   1.521   1.772
 4202TIP3   OH234164   6.359   6.459   6.422
 4202TIP3    H134165   6.403   6.377   6.443
 4202TIP3    H234166   6.373   6.470   6.328
 4203TIP3   OH234167   6.228   5.003   0.829
 4203TIP3    H134168   6.211   4.929   0.886
 4203TIP3    H234169   6.323   5.016   0.833
 4204TIP3   OH234170   1.329   6.436   1.469
 4204TIP3    H134171   1.374   6.392   1.541
 4204TIP3    H234172   1.358   6.390   1.390
 4205TIP3   OH234173   6.669   3.622   7.928
 4205TIP3    H134174   6.653   3.697   7.986
 4205TIP3    H234175   6.761   3.630   7.903
 4206TIP3   OH234176   0.135   1.450   7.365
 4206TIP3    H134177   0.064   1.514   7.375
 4206TIP3    H234178   0.182   1.479   7.287
 4207TIP3   OH234179   0.986   4.365   0.524
 4207TIP3    H134180   1.034   4.427   0.469
 4207TIP3    H234181   1.053   4.307   0.559
 4208TIP3   OH234182   6.078   2.950   8.064
 4208TIP3    H134183   6.074   3.016   8.133
 4208TIP3    H234184   6.060   2.867   8.108
 4209TIP3   OH234185   4.152   5.853   0.710
 4209TIP3    H134186   4.065   5.892   0.699
 4209TIP3    H234187   4.138   5.783   0.774
 4210TIP3   OH234188   4.237   4.553   1.964
 4210TIP3    H134189   4.215   4.645   1.978
 4210TIP3    H234190   4.274   4.524   2.048
 4211TIP3   OH234191   1.713   6.777   8.579
 4211TIP3    H134192   1.632   6.813   8.543
 4211TIP3    H234193   1.730   6.699   8.526
 4212TIP3   OH234194   3.043   5.527   2.386
 4212TIP3    H134195   3.119   5.471   2.404
 4212TIP3    H234196   3.080   5.615   2.380
 4213TIP3   OH234197   4.780   4.513   8.146
 4213TIP3    H134198   4.697   4.560   8.152
 4213TIP3    H234199   4.803   4.517   8.053
 4214TIP3   OH234200   5.008   3.608   0.487
 4214TIP3    H134201   4.959   3.569   0.560
 4214TIP3    H234202   5.042   3.691   0.522
 4215TIP3   OH234203   0.124   0.304   0.498
 4215TIP3    H134204   0.199   0.362   0.511
 4215TIP3    H234205   0.058   0.360   0.456
 4216TIP3   OH234206   6.529   3.598   8.532
 4216TIP3    H134207   6.439   3.602   8.565
 4216TIP3    H234208   6.522   3.626   8.441
 4217TIP3   OH234209   0.039   2.128   0.413
 4217TIP3    H134210   0.068   2.155   0.326
 4217TIP3    H234211   6.840   2.089   0.399
 4218TIP3   OH234212   0.453   0.295   2.436
 4218TIP3    H134213   0.504   0.366   2.475
 4218TIP3    H234214   0.365   0.332   2.426
 4219TIP3   OH234215   1.637   1.494   7.555
 4219TIP3    H134216   1.573   1.538   7.611
 4219TIP3    H234217   1.667   1.420   7.608
 4220TIP3   OH234218   3.779   4.648   7.000
 4220TIP3    H134219   3.815   4.575   6.950
 4220TIP3    H234220   3.854   4.683   7.048
 4221TIP3   OH234221   5.822   2.309   1.476
 4221TIP3    H134222   5.810   2.401   1.499
 4221TIP3    H234223   5.907   2.305   1.432
 4222TIP3   OH234224   4.040   5.321   0.902
 4222TIP3    H134225   4.122   5.300   0.948
 4222TIP3    H234226   3.985   5.362   0.969
 4223TIP3   OH234227   5.230   1.584   6.582
 4223TIP3    H134228   5.221   1.549   6.671
 4223TIP3    H234229   5.320   1.614   6.577
 4224TIP3   OH234230   0.394   6.233   0.958
 4224TIP3    H134231   0.423   6.155   0.912
 4224TIP3    H234232   0.305   6.213   0.987
 4225TIP3   OH234233   1.432   4.200   7.351
 4225TIP3    H134234   1.525   4.200   7.327
 4225TIP3    H234235   1.387   4.230   7.272
 4226TIP3   OH234236   2.365   2.753   1.473
 4226TIP3    H134237   2.365   2.770   1.567
 4226TIP3    H234238   2.429   2.814   1.437
 4227TIP3   OH234239   2.455   6.828   0.375
 4227TIP3    H134240   2.525   0.005   0.392
 4227TIP3    H234241   2.374   6.877   0.388
 4228TIP3   OH234242   6.512   0.714   2.073
 4228TIP3    H134243   6.569   0.654   2.024
 4228TIP3    H234244   6.569   0.786   2.098
 4229TIP3   OH234245   4.947   4.179   0.362
 4229TIP3    H134246   4.880   4.202   0.297
 4229TIP3    H234247   4.997   4.109   0.321
 4230TIP3   OH234248   0.309   2.291   7.946
 4230TIP3    H134249   0.267   2.234   8.010
 4230TIP3    H234250   0.396   2.308   7.983
 4231TIP3   OH234251   1.532   0.111   6.821
 4231TIP3    H134252   1.521   0.107   6.916
 4231TIP3    H234253   1.453   0.070   6.786
 4232TIP3   OH234254   0.639   0.473   1.608
 4232TIP3    H134255   0.667   0.464   1.699
 4232TIP3    H234256   0.714   0.511   1.564
 4233TIP3   OH234257   1.032   3.788   8.150
 4233TIP3    H134258   1.053   3.734   8.074
 4233TIP3    H234259   1.047   3.731   8.225
 4234TIP3   OH234260   4.894   1.607   8.518
 4234TIP3    H134261   4.841   1.614   8.439
 4234TIP3    H234262   4.960   1.675   8.509
 4235TIP3   OH234263   6.685   3.831   8.130
 4235TIP3    H134264   6.748   3.848   8.200
 4235TIP3    H234265   6.713   3.888   8.058
 4236TIP3   OH234266   1.262   5.482   6.923
 4236TIP3    H134267   1.253   5.510   6.832
 4236TIP3    H234268   1.320   5.406   6.920
 4237TIP3   OH234269   3.803   1.407   2.080
 4237TIP3    H134270   3.826   1.338   2.018
 4237TIP3    H234271   3.840   1.378   2.163
 4238TIP3   OH234272   1.514   0.990   8.181
 4238TIP3    H134273   1.586   0.975   8.120
 4238TIP3    H234274   1.437   0.953   8.137
 4239TIP3   OH234275   0.862   1.214   0.891
 4239TIP3    H134276   0.777   1.241   0.927
 4239TIP3    H234277   0.888   1.139   0.945
 4240TIP3   OH234278   4.761   6.413   0.606
 4240TIP3    H134279   4.853   6.435   0.594
 4240TIP3    H234280   4.714   6.490   0.575
 4241TIP3   OH234281   1.530   0.835   6.523
 4241TIP3    H134282   1.471   0.760   6.532
 4241TIP3    H234283   1.618   0.797   6.529
 4242TIP3   OH234284   4.673   4.454   0.370
 4242TIP3    H134285   4.697   4.461   0.462
 4242TIP3    H234286   4.728   4.384   0.335
 4243TIP3   OH234287   5.310   5.522   1.626
 4243TIP3    H134288   5.359   5.439   1.632
 4243TIP3    H234289   5.225   5.503   1.665
 4244TIP3   OH234290   3.162   4.473   6.895
 4244TIP3    H134291   3.097   4.498   6.829
 4244TIP3    H234292   3.168   4.550   6.953
 4245TIP3   OH234293   5.744   0.523   1.968
 4245TIP3    H134294   5.821   0.467   1.982
 4245TIP3    H234295   5.717   0.549   2.056
 4246TIP3   OH234296   3.395   6.254   1.721
 4246TIP3    H134297   3.326   6.229   1.783
 4246TIP3    H234298   3.465   6.190   1.736
 4247TIP3   OH234299   3.719   6.676   1.913
 4247TIP3    H134300   3.707   6.628   1.995
 4247TIP3    H234301   3.814   6.685   1.904
 4248TIP3   OH234302   1.588   5.837   2.053
 4248TIP3    H134303   1.518   5.794   2.004
 4248TIP3    H234304   1.627   5.768   2.105
 4249TIP3   OH234305   5.700   4.043   0.438
 4249TIP3    H134306   5.702   3.955   0.401
 4249TIP3    H234307   5.622   4.084   0.400
 4250TIP3   OH234308   6.197   5.996   6.954
 4250TIP3    H134309   6.266   6.022   7.015
 4250TIP3    H234310   6.241   5.938   6.891
 4251TIP3   OH234311   5.443   3.687   8.398
 4251TIP3    H134312   5.461   3.609   8.450
 4251TIP3    H234313   5.348   3.688   8.388
 4252TIP3   OH234314   0.990   0.253   7.483
 4252TIP3    H134315   0.985   0.157   7.478
 4252TIP3    H234316   1.064   0.276   7.427
 4253TIP3   OH234317   0.083   3.494   8.196
 4253TIP3    H134318   0.060   3.447   8.276
 4253TIP3    H234319   0.125   3.574   8.226
 4254TIP3   OH234320   2.870   3.574   7.963
 4254TIP3    H134321   2.916   3.585   8.047
 4254TIP3    H234322   2.881   3.481   7.942
 4255TIP3   OH234323   1.953   0.105   2.042
 4255TIP3    H134324   1.884   0.038   2.037
 4255TIP3    H234325   2.035   0.055   2.039
 4256TIP3   OH234326   1.755   2.716   8.305
 4256TIP3    H134327   1.826   2.696   8.243
 4256TIP3    H234328   1.798   2.762   8.377
 4257TIP3   OH234329   4.001   6.690   7.512
 4257TIP3    H134330   4.068   6.707   7.446
 4257TIP3    H234331   3.954   6.773   7.519
 4258TIP3   OH234332   6.279   5.153   8.216
 4258TIP3    H134333   6.276   5.061   8.242
 4258TIP3    H234334   6.202   5.165   8.161
 4259TIP3   OH234335   2.934   3.484   0.331
 4259TIP3    H134336   2.898   3.508   0.416
 4259TIP3    H234337   2.860   3.446   0.283
 4260TIP3   OH234338   6.308   2.649   1.868
 4260TIP3    H134339   6.310   2.554   1.855
 4260TIP3    H234340   6.380   2.666   1.929
 4261TIP3   OH234341   2.417   0.912   8.346
 4261TIP3    H134342   2.505   0.877   8.351
 4261TIP3    H234343   2.428   1.001   8.315
 4262TIP3   OH234344   5.802   2.315   6.957
 4262TIP3    H134345   5.743   2.281   7.024
 4262TIP3    H234346   5.744   2.363   6.897
 4263TIP3   OH234347   2.243   0.230   8.123
 4263TIP3    H134348   2.201   0.257   8.042
 4263TIP3    H234349   2.180   0.253   8.192
 4264TIP3   OH234350   0.009   4.664   1.090
 4264TIP3    H134351   6.842   4.707   1.023
 4264TIP3    H234352   0.083   4.723   1.102
 4265TIP3   OH234353   2.579   5.931   8.144
 4265TIP3    H134354   2.546   5.842   8.136
 4265TIP3    H234355   2.667   5.922   8.179
 4266TIP3   OH234356   3.305   1.133   6.644
 4266TIP3    H134357   3.213   1.154   6.633
 4266TIP3    H234358   3.325   1.073   6.571
 4267TIP3   OH234359   3.619   4.199   7.219
 4267TIP3    H134360   3.599   4.215   7.311
 4267TIP3    H234361   3.694   4.255   7.200
 4268TIP3   OH234362   3.545   4.546   1.883
 4268TIP3    H134363   3.497   4.465   1.864
 4268TIP3    H234364   3.545   4.551   1.979
 4269TIP3   OH234365   3.758   6.588   7.842
 4269TIP3    H134366   3.820   6.538   7.789
 4269TIP3    H234367   3.782   6.570   7.932
 4270TIP3   OH234368   1.443   2.252   0.458
 4270TIP3    H134369   1.508   2.273   0.391
 4270TIP3    H234370   1.362   2.238   0.410
 4271TIP3   OH234371   2.968   2.223   0.650
 4271TIP3    H134372   3.016   2.235   0.732
 4271TIP3    H234373   2.882   2.260   0.667
 4272TIP3   OH234374   1.018   1.876   7.289
 4272TIP3    H134375   1.112   1.861   7.294
 4272TIP3    H234376   0.980   1.790   7.270
 4273TIP3   OH234377   4.664   6.149   1.668
 4273TIP3    H134378   4.726   6.092   1.713
 4273TIP3    H234379   4.685   6.140   1.575
 4274TIP3   OH234380   1.846   6.417   0.513
 4274TIP3    H134381   1.807   6.414   0.600
 4274TIP3    H234382   1.881   6.505   0.506
 4275TIP3   OH234383   5.380   0.391   1.303
 4275TIP3    H134384   5.356   0.482   1.288
 4275TIP3    H234385   5.473   0.387   1.282
 4276TIP3   OH234386   1.730   4.620   2.336
 4276TIP3    H134387   1.640   4.636   2.306
 4276TIP3    H234388   1.751   4.533   2.303
 4277TIP3   OH234389   3.134   1.090   7.744
 4277TIP3    H134390   3.105   1.177   7.720
 4277TIP3    H234391   3.172   1.100   7.832
 4278TIP3   OH234392   6.068   3.676   7.675
 4278TIP3    H134393   6.060   3.748   7.612
 4278TIP3    H234394   6.160   3.677   7.701
 4279TIP3   OH234395   6.004   0.059   7.783
 4279TIP3    H134396   5.980   6.886   7.854
 4279TIP3    H234397   6.063   0.008   7.727
 4280TIP3   OH234398   1.814   5.627   7.201
 4280TIP3    H134399   1.768   5.633   7.285
 4280TIP3    H234400   1.746   5.641   7.135
 4281TIP3   OH234401   5.693   1.391   0.295
 4281TIP3    H134402   5.607   1.353   0.310
 4281TIP3    H234403   5.753   1.317   0.299
 4282TIP3   OH234404   6.816   0.615   1.123
 4282TIP3    H134405   0.024   0.612   1.116
 4282TIP3    H234406   6.791   0.530   1.159
 4283TIP3   OH234407   5.745   1.973   6.443
 4283TIP3    H134408   5.698   2.029   6.381
 4283TIP3    H234409   5.778   2.034   6.509
 4284TIP3   OH234410   0.745   6.632   2.217
 4284TIP3    H134411   0.656   6.628   2.180
 4284TIP3    H234412   0.762   6.725   2.227
 4285TIP3   OH234413   4.271   2.381   1.178
 4285TIP3    H134414   4.364   2.377   1.156
 4285TIP3    H234415   4.237   2.295   1.154
 4286TIP3   OH234416   4.154   5.390   8.115
 4286TIP3    H134417   4.125   5.402   8.206
 4286TIP3    H234418   4.220   5.321   8.120
 4287TIP3   OH234419   6.438   3.912   1.669
 4287TIP3    H134420   6.477   3.893   1.754
 4287TIP3    H234421   6.481   3.992   1.640
 4288TIP3   OH234422   6.353   2.909   1.201
 4288TIP3    H134423   6.448   2.898   1.202
 4288TIP3    H234424   6.340   3.004   1.199
 4289TIP3   OH234425   1.846   2.856   8.527
 4289TIP3    H134426   1.868   2.939   8.570
 4289TIP3    H234427   1.918   2.797   8.550
 4290TIP3   OH234428   1.330   0.155   1.370
 4290TIP3    H134429   1.343   0.112   1.454
 4290TIP3    H234430   1.407   0.211   1.359
 4291TIP3   OH234431   2.820   4.165   1.715
 4291TIP3    H134432   2.770   4.127   1.643
 4291TIP3    H234433   2.789   4.256   1.720
 4292TIP3   OH234434   4.788   6.540   7.286
 4292TIP3    H134435   4.794   6.526   7.381
 4292TIP3    H234436   4.704   6.583   7.274
 4293TIP3   OH234437   2.863   3.708   8.303
 4293TIP3    H134438   2.809   3.706   8.382
 4293TIP3    H234439   2.850   3.796   8.267
 4294TIP3   OH234440   2.901   3.218   1.352
 4294TIP3    H134441   2.839   3.287   1.327
 4294TIP3    H234442   2.987   3.258   1.340
 4295TIP3   OH234443   1.288   3.387   0.399
 4295TIP3    H134444   1.314   3.473   0.431
 4295TIP3    H234445   1.221   3.405   0.334
 4296TIP3   OH234446   5.835   4.342   7.426
 4296TIP3    H134447   5.775   4.315   7.496
 4296TIP3    H234448   5.914   4.289   7.440
 4297TIP3   OH234449   4.903   3.419   6.693
 4297TIP3    H134450   4.882   3.326   6.698
 4297TIP3    H234451   4.818   3.463   6.704
 4298TIP3   OH234452   2.103   6.101   1.527
 4298TIP3    H134453   2.061   6.173   1.481
 4298TIP3    H234454   2.109   6.130   1.618
 4299TIP3   OH234455   6.765   5.727   1.029
 4299TIP3    H134456   6.791   5.816   1.006
 4299TIP3    H234457   6.786   5.675   0.951
 4300TIP3   OH234458   0.848   3.430   1.619
 4300TIP3    H134459   0.877   3.513   1.658
 4300TIP3    H234460   0.928   3.393   1.581
 4301TIP3   OH234461   0.642   5.429   8.295
 4301TIP3    H134462   0.624   5.465   8.208
 4301TIP3    H234463   0.737   5.426   8.301
 4302TIP3   OH234464   2.436   2.946   0.927
 4302TIP3    H134465   2.378   3.022   0.920
 4302TIP3    H234466   2.524   2.983   0.930
 4303TIP3   OH234467   2.598   5.679   0.042
 4303TIP3    H134468   2.613   5.602   8.600
 4303TIP3    H234469   2.527   5.726   8.613
 4304TIP3   OH234470   6.000   5.468   8.099
 4304TIP3    H134471   6.047   5.517   8.167
 4304TIP3    H234472   6.006   5.523   8.021
 4305TIP3   OH234473   5.272   0.134   1.238
 4305TIP3    H134474   5.335   0.201   1.209
 4305TIP3    H234475   5.231   0.172   1.316
 4306TIP3   OH234476   4.717   3.004   7.606
 4306TIP3    H134477   4.629   3.013   7.641
 4306TIP3    H234478   4.751   3.093   7.602
 4307TIP3   OH234479   3.962   1.421   0.710
 4307TIP3    H134480   4.021   1.462   0.774
 4307TIP3    H234481   4.019   1.364   0.658
 4308TIP3   OH234482   1.676   6.868   6.646
 4308TIP3    H134483   1.630   0.019   6.721
 4308TIP3    H234484   1.616   6.881   6.573
 4309TIP3   OH234485   1.508   2.283   7.130
 4309TIP3    H134486   1.594   2.299   7.092
 4309TIP3    H234487   1.482   2.198   7.097
 4310TIP3   OH234488   2.473   0.827   1.009
 4310TIP3    H134489   2.456   0.917   0.979
 4310TIP3    H234490   2.538   0.793   0.947
 4311TIP3   OH234491   1.404   3.829   7.994
 4311TIP3    H134492   1.440   3.846   7.907
 4311TIP3    H234493   1.346   3.754   7.983
 4312TIP3   OH234494   1.487   5.790   7.156
 4312TIP3    H134495   1.529   5.876   7.156
 4312TIP3    H234496   1.501   5.756   7.244
 4313TIP3   OH234497   2.943   4.062   0.216
 4313TIP3    H134498   2.894   4.068   0.133
 4313TIP3    H234499   3.031   4.035   0.190
 4314TIP3   OH234500   0.855   0.646   7.698
 4314TIP3    H134501   0.839   0.573   7.639
 4314TIP3    H234502   0.889   0.716   7.642
 4315TIP3   OH234503   3.828   0.274   6.705
 4315TIP3    H134504   3.738   0.248   6.686
 4315TIP3    H234505   3.828   0.295   6.798
 4316TIP3   OH234506   3.316   2.100   6.444
 4316TIP3    H134507   3.259   2.041   6.492
 4316TIP3    H234508   3.266   2.181   6.437
 4317TIP3   OH234509   1.152   0.316   1.554
 4317TIP3    H134510   1.097   0.384   1.595
 4317TIP3    H234511   1.138   0.328   1.460
 4318TIP3   OH234512   5.958   4.410   0.210
 4318TIP3    H134513   5.934   4.397   0.301
 4318TIP3    H234514   6.029   4.475   0.212
 4319TIP3   OH234515   6.748   5.593   7.056
 4319TIP3    H134516   6.810   5.526   7.086
 4319TIP3    H234517   6.679   5.543   7.012
 4320TIP3   OH234518   0.007   0.107   0.912
 4320TIP3    H134519   0.006   0.202   0.913
 4320TIP3    H234520   0.049   0.084   0.829
 4321TIP3   OH234521   6.581   4.864   7.724
 4321TIP3    H134522   6.581   4.957   7.744
 4321TIP3    H234523   6.607   4.821   7.805
 4322TIP3   OH234524   3.145   0.886   7.499
 4322TIP3    H134525   3.181   0.804   7.533
 4322TIP3    H234526   3.158   0.949   7.569
 4323TIP3   OH234527   4.006   3.911   8.301
 4323TIP3    H134528   3.925   3.892   8.254
 4323TIP3    H234529   4.041   3.825   8.324
 4324TIP3   OH234530   5.999   3.177   1.774
 4324TIP3    H134531   6.029   3.146   1.689
 4324TIP3    H234532   5.913   3.137   1.785
 4325TIP3   OH234533   3.400   4.672   1.457
 4325TIP3    H134534   3.453   4.686   1.378
 4325TIP3    H234535   3.464   4.656   1.526
 4326TIP3   OH234536   4.200   5.099   0.729
 4326TIP3    H134537   4.179   5.157   0.802
 4326TIP3    H234538   4.277   5.138   0.688
 4327TIP3   OH234539   6.612   4.096   2.277
 4327TIP3    H134540   6.691   4.089   2.331
 4327TIP3    H234541   6.607   4.189   2.254
 4328TIP3   OH234542   4.379   0.634   7.532
 4328TIP3    H134543   4.469   0.602   7.540
 4328TIP3    H234544   4.328   0.574   7.586
 4329TIP3   OH234545   5.315   1.262   6.531
 4329TIP3    H134546   5.343   1.353   6.545
 4329TIP3    H234547   5.332   1.219   6.615
 4330TIP3   OH234548   1.954   3.508   6.413
 4330TIP3    H134549   1.972   3.568   6.485
 4330TIP3    H234550   1.863   3.526   6.389
 4331TIP3   OH234551   2.253   6.848   8.093
 4331TIP3    H134552   2.276   0.054   8.100
 4331TIP3    H234553   2.337   6.802   8.099
 4332TIP3   OH234554   4.521   3.413   1.727
 4332TIP3    H134555   4.534   3.320   1.709
 4332TIP3    H234556   4.450   3.439   1.667
 4333TIP3   OH234557   4.629   1.846   7.467
 4333TIP3    H134558   4.602   1.833   7.559
 4333TIP3    H234559   4.659   1.936   7.464
 4334TIP3   OH234560   1.532   0.445   8.135
 4334TIP3    H134561   1.443   0.427   8.106
 4334TIP3    H234562   1.530   0.430   8.229
 4335TIP3   OH234563   6.237   0.267   7.610
 4335TIP3    H134564   6.331   0.256   7.595
 4335TIP3    H234565   6.203   0.178   7.620
 4336TIP3   OH234566   6.521   1.370   6.514
 4336TIP3    H134567   6.468   1.298   6.547
 4336TIP3    H234568   6.554   1.340   6.430
 4337TIP3   OH234569   4.714   3.996   1.135
 4337TIP3    H134570   4.750   3.993   1.224
 4337TIP3    H234571   4.625   3.962   1.145
 4338TIP3   OH234572   6.236   1.491   8.472
 4338TIP3    H134573   6.178   1.539   8.412
 4338TIP3    H234574   6.192   1.407   8.485
 4339TIP3   OH234575   5.423   1.357   7.458
 4339TIP3    H134576   5.431   1.262   7.466
 4339TIP3    H234577   5.377   1.371   7.375
 4340TIP3   OH234578   3.857   6.877   0.103
 4340TIP3    H134579   3.858   0.076   0.143
 4340TIP3    H234580   3.924   6.827   0.150
 4341TIP3   OH234581   3.517   1.240   7.368
 4341TIP3    H134582   3.575   1.241   7.444
 4341TIP3    H234583   3.439   1.193   7.398
 4342TIP3   OH234584   0.572   3.062   0.671
 4342TIP3    H134585   0.537   3.147   0.700
 4342TIP3    H234586   0.509   3.032   0.605
 4343TIP3   OH234587   4.915   0.881   8.406
 4343TIP3    H134588   4.954   0.849   8.324
 4343TIP3    H234589   4.821   0.886   8.388
 4344TIP3   OH234590   3.354   5.812   7.222
 4344TIP3    H134591   3.347   5.842   7.131
 4344TIP3    H234592   3.428   5.751   7.222
 4345TIP3   OH234593   0.528   1.572   0.666
 4345TIP3    H134594   0.619   1.595   0.649
 4345TIP3    H234595   0.510   1.609   0.753
 4346TIP3   OH234596   3.566   0.356   8.365
 4346TIP3    H134597   3.550   0.383   8.455
 4346TIP3    H234598   3.659   0.337   8.362
 4347TIP3   OH234599   2.035   6.842   8.290
 4347TIP3    H134600   2.100   6.887   8.236
 4347TIP3    H234601   1.951   6.859   8.246
 4348TIP3   OH234602   1.366   4.365   0.052
 4348TIP3    H134603   1.410   4.444   0.082
 4348TIP3    H234604   1.436   4.301   0.041
 4349TIP3   OH234605   5.676   0.965   8.393
 4349TIP3    H134606   5.608   0.899   8.383
 4349TIP3    H234607   5.668   1.019   8.314
 4350TIP3   OH234608   0.308   0.676   7.783
 4350TIP3    H134609   0.316   0.584   7.808
 4350TIP3    H234610   0.380   0.720   7.827
 4351TIP3   OH234611   6.395   1.272   8.381
 4351TIP3    H134612   6.489   1.287   8.371
 4351TIP3    H234613   6.364   1.346   8.433
 4352TIP3   OH234614   6.741   3.244   1.528
 4352TIP3    H134615   6.812   3.234   1.591
 4352TIP3    H234616   6.777   3.209   1.446
 4353TIP3   OH234617   3.363   2.412   6.672
 4353TIP3    H134618   3.394   2.502   6.662
 4353TIP3    H234619   3.357   2.379   6.583
 4354TIP3   OH234620   4.463   4.350   7.062
 4354TIP3    H134621   4.461   4.341   7.157
 4354TIP3    H234622   4.508   4.434   7.047
 4355TIP3   OH234623   1.722   2.895   0.864
 4355TIP3    H134624   1.739   2.931   0.951
 4355TIP3    H234625   1.782   2.941   0.806
 4356TIP3   OH234626   6.465   0.681   6.117
 4356TIP3    H134627   6.492   0.755   6.171
 4356TIP3    H234628   6.394   0.715   6.063
 4357TIP3   OH234629   4.728   2.555   1.001
 4357TIP3    H134630   4.726   2.585   0.910
 4357TIP3    H234631   4.814   2.513   1.010
 4358TIP3   OH234632   0.643   4.005   7.134
 4358TIP3    H134633   0.686   3.964   7.209
 4358TIP3    H234634   0.565   4.046   7.171
 4359TIP3   OH234635   5.349   4.384   8.220
 4359TIP3    H134636   5.376   4.456   8.162
 4359TIP3    H234637   5.268   4.416   8.261
 4360TIP3   OH234638   0.462   6.303   8.368
 4360TIP3    H134639   0.411   6.314   8.449
 4360TIP3    H234640   0.529   6.372   8.372
 4361TIP3   OH234641   6.740   0.996   7.359
 4361TIP3    H134642   6.695   0.942   7.423
 4361TIP3    H234643   6.686   0.990   7.280
 4362TIP3   OH234644   6.743   3.319   0.197
 4362TIP3    H134645   6.778   3.230   0.190
 4362TIP3    H234646   6.648   3.308   0.187
 4363TIP3   OH234647   6.846   1.539   8.514
 4363TIP3    H134648   0.009   1.538   8.596
 4363TIP3    H234649   6.813   1.629   8.507
 4364TIP3   OH234650   6.504   4.837   0.937
 4364TIP3    H134651   6.500   4.929   0.912
 4364TIP3    H234652   6.510   4.789   0.855
 4365TIP3   OH234653   3.574   4.162   8.441
 4365TIP3    H134654   3.487   4.192   8.415
 4365TIP3    H234655   3.556   4.086   8.497
 4366TIP3   OH234656   0.432   5.674   2.076
 4366TIP3    H134657   0.409   5.677   2.169
 4366TIP3    H234658   0.489   5.750   2.063
 4367TIP3   OH234659   1.169   4.956   7.673
 4367TIP3    H134660   1.200   5.042   7.700
 4367TIP3    H234661   1.230   4.895   7.715
 4368TIP3   OH234662   5.564   4.325   8.608
 4368TIP3    H134663   5.489   4.305   8.552
 4368TIP3    H234664   5.627   4.256   8.589
 4369TIP3   OH234665   4.205   0.559   8.509
 4369TIP3    H134666   4.286   0.516   8.536
 4369TIP3    H234667   4.157   0.492   8.461
 4370TIP3   OH234668   2.336   5.542   7.563
 4370TIP3    H134669   2.357   5.450   7.545
 4370TIP3    H234670   2.342   5.585   7.478
 4371TIP3   OH234671   5.737   4.155   0.999
 4371TIP3    H134672   5.727   4.108   1.082
 4371TIP3    H234673   5.656   4.206   0.991
 4372TIP3   OH234674   6.056   3.691   7.966
 4372TIP3    H134675   6.072   3.783   7.987
 4372TIP3    H234676   6.042   3.690   7.872
 4373TIP3   OH234677   3.533   1.528   7.620
 4373TIP3    H134678   3.516   1.587   7.693
 4373TIP3    H234679   3.595   1.576   7.565
 4374TIP3   OH234680   6.468   6.106   1.725
 4374TIP3    H134681   6.559   6.132   1.713
 4374TIP3    H234682   6.448   6.130   1.815
 4375TIP3   OH234683   0.913   6.128   1.416
 4375TIP3    H134684   0.955   6.209   1.443
 4375TIP3    H234685   0.845   6.112   1.481
 4376TIP3   OH234686   3.125   3.777   1.117
 4376TIP3    H134687   3.081   3.851   1.159
 4376TIP3    H234688   3.055   3.726   1.078
 4377TIP3   OH234689   3.181   3.962   0.113
 4377TIP3    H134690   3.228   3.895   0.162
 4377TIP3    H234691   3.172   3.926   0.025
 4378TIP3   OH234692   3.698   5.357   1.073
 4378TIP3    H134693   3.715   5.291   1.140
 4378TIP3    H234694   3.635   5.417   1.113
 4379TIP3   OH234695   2.984   0.583   1.110
 4379TIP3    H134696   2.893   0.609   1.125
 4379TIP3    H234697   2.987   0.558   1.018
 4380TIP3   OH234698   0.353   5.276   6.385
 4380TIP3    H134699   0.270   5.323   6.381
 4380TIP3    H234700   0.349   5.225   6.465
 4381TIP3   OH234701   2.963   2.749   1.164
 4381TIP3    H134702   2.888   2.800   1.135
 4381TIP3    H234703   2.929   2.697   1.238
 4382TIP3   OH234704   6.610   6.230   0.122
 4382TIP3    H134705   6.638   6.315   0.086
 4382TIP3    H234706   6.573   6.184   0.047
 4383TIP3   OH234707   3.620   1.291   8.595
 4383TIP3    H134708   3.631   1.263   0.072
 4383TIP3    H234709   3.647   1.383   8.595
 4384TIP3   OH234710   1.230   3.211   8.084
 4384TIP3    H134711   1.172   3.287   8.081
 4384TIP3    H234712   1.227   3.182   8.175
 4385TIP3   OH234713   3.815   1.507   7.096
 4385TIP3    H134714   3.732   1.482   7.055
 4385TIP3    H234715   3.792   1.580   7.153
 4386TIP3   OH234716   1.384   3.263   7.456
 4386TIP3    H134717   1.429   3.216   7.386
 4386TIP3    H234718   1.363   3.196   7.521
 4387TIP3   OH234719   5.213   4.455   1.859
 4387TIP3    H134720   5.266   4.428   1.933
 4387TIP3    H234721   5.267   4.519   1.813
 4388TIP3   OH234722   2.011   6.741   6.326
 4388TIP3    H134723   2.092   6.744   6.276
 4388TIP3    H234724   1.968   6.824   6.308
 4389TIP3   OH234725   3.648   1.382   1.756
 4389TIP3    H134726   3.722   1.402   1.699
 4389TIP3    H234727   3.607   1.466   1.773
 4390TIP3   OH234728   0.140   2.608   1.115
 4390TIP3    H134729   0.098   2.530   1.077
 4390TIP3    H234730   0.177   2.577   1.197
 4391TIP3   OH234731   3.882   3.350   6.887
 4391TIP3    H134732   3.960   3.403   6.906
 4391TIP3    H234733   3.912   3.260   6.896
 4392TIP3   OH234734   6.027   2.017   2.525
 4392TIP3    H134735   5.941   1.979   2.544
 4392TIP3    H234736   6.007   2.103   2.488
 4393TIP3   OH234737   5.823   6.609   1.332
 4393TIP3    H134738   5.812   6.664   1.255
 4393TIP3    H234739   5.802   6.520   1.302
 4394TIP3   OH234740   2.161   0.197   8.587
 4394TIP3    H134741   2.106   0.122   8.609
 4394TIP3    H234742   2.247   0.160   8.571
 4395TIP3   OH234743   5.984   0.407   6.670
 4395TIP3    H134744   5.991   0.480   6.731
 4395TIP3    H234745   6.073   0.371   6.664
 4396TIP3   OH234746   2.776   0.444   0.039
 4396TIP3    H134747   2.768   0.382   8.580
 4396TIP3    H234748   2.705   0.507   0.025
 4397TIP3   OH234749   0.650   1.140   7.602
 4397TIP3    H134750   0.669   1.208   7.666
 4397TIP3    H234751   0.637   1.187   7.520
 4398TIP3   OH234752   2.932   5.270   6.989
 4398TIP3    H134753   3.023   5.239   6.987
 4398TIP3    H234754   2.881   5.195   6.957
 4399TIP3   OH234755   3.645   0.792   0.366
 4399TIP3    H134756   3.738   0.809   0.349
 4399TIP3    H234757   3.598   0.849   0.306
 4400TIP3   OH234758   2.507   0.082   6.697
 4400TIP3    H134759   2.579   0.021   6.680
 4400TIP3    H234760   2.460   0.043   6.771
 4401TIP3   OH234761   1.717   1.314   8.062
 4401TIP3    H134762   1.718   1.232   8.113
 4401TIP3    H234763   1.650   1.299   7.995
 4402TIP3   OH234764   1.716   6.198   0.026
 4402TIP3    H134765   1.733   6.105   0.010
 4402TIP3    H234766   1.783   6.244   8.591
 4403TIP3   OH234767   5.101   4.613   7.584
 4403TIP3    H134768   5.169   4.680   7.581
 4403TIP3    H234769   5.102   4.573   7.497
 4404TIP3   OH234770   0.360   1.466   8.043
 4404TIP3    H134771   0.388   1.421   7.963
 4404TIP3    H234772   0.393   1.412   8.115
 4405TIP3   OH234773   1.997   6.651   0.365
 4405TIP3    H134774   2.028   6.592   0.434
 4405TIP3    H234775   1.961   6.592   0.298
 4406TIP3   OH234776   0.318   2.344   7.405
 4406TIP3    H134777   0.284   2.294   7.331
 4406TIP3    H234778   0.242   2.362   7.460
 4407TIP3   OH234779   6.303   0.738   0.626
 4407TIP3    H134780   6.399   0.739   0.635
 4407TIP3    H234781   6.283   0.647   0.603
 4408TIP3   OH234782   3.962   4.052   1.197
 4408TIP3    H134783   3.880   4.003   1.191
 4408TIP3    H234784   3.980   4.056   1.291
 4409TIP3   OH234785   2.992   2.672   7.039
 4409TIP3    H134786   2.938   2.711   6.971
 4409TIP3    H234787   3.073   2.647   6.995
 4410TIP3   OH234788   3.883   3.720   1.522
 4410TIP3    H134789   3.892   3.633   1.481
 4410TIP3    H234790   3.857   3.701   1.612
 4411TIP3   OH234791   6.778   5.463   6.477
 4411TIP3    H134792   6.819   5.455   6.562
 4411TIP3    H234793   6.688   5.434   6.491
 4412TIP3   OH234794   1.570   2.870   0.337
 4412TIP3    H134795   1.518   2.800   0.297
 4412TIP3    H234796   1.660   2.849   0.314
 4413TIP3   OH234797   6.741   1.634   0.861
 4413TIP3    H134798   6.782   1.710   0.821
 4413TIP3    H234799   6.803   1.604   0.927
 4414TIP3   OH234800   4.989   0.302   0.095
 4414TIP3    H134801   5.050   0.255   0.151
 4414TIP3    H234802   5.029   0.388   0.082
 4415TIP3   OH234803   5.255   3.366   8.294
 4415TIP3    H134804   5.194   3.313   8.345
 4415TIP3    H234805   5.199   3.415   8.233
 4416TIP3   OH234806   2.686   2.553   1.820
 4416TIP3    H134807   2.720   2.585   1.904
 4416TIP3    H234808   2.599   2.520   1.840
 4417TIP3   OH234809   5.888   4.516   6.521
 4417TIP3    H134810   5.949   4.583   6.553
 4417TIP3    H234811   5.838   4.561   6.453
 4418TIP3   OH234812   5.408   4.338   6.875
 4418TIP3    H134813   5.328   4.357   6.825
 4418TIP3    H234814   5.391   4.376   6.961
 4419TIP3   OH234815   4.961   0.586   7.445
 4419TIP3    H134816   4.886   0.590   7.385
 4419TIP3    H234817   5.031   0.549   7.392
 4420TIP3   OH234818   5.730   6.819   8.274
 4420TIP3    H134819   5.745   6.746   8.214
 4420TIP3    H234820   5.660   6.870   8.233
 4421TIP3   OH234821   0.099   0.669   0.147
 4421TIP3    H134822   0.112   0.696   0.056
 4421TIP3    H234823   0.180   0.694   0.191
 4422TIP3   OH234824   2.903   6.674   2.492
 4422TIP3    H134825   2.940   6.740   2.551
 4422TIP3    H234826   2.956   6.596   2.507
 4423TIP3   OH234827   0.366   1.369   0.603
 4423TIP3    H134828   0.409   1.453   0.618
 4423TIP3    H234829   0.368   1.326   0.688
 4424TIP3   OH234830   2.699   3.898   1.065
 4424TIP3    H134831   2.634   3.841   1.106
 4424TIP3    H234832   2.661   3.921   0.980
 4425TIP3   OH234833   0.568   5.768   7.255
 4425TIP3    H134834   0.484   5.742   7.294
 4425TIP3    H234835   0.595   5.691   7.205
 4426TIP3   OH234836   4.994   5.945   8.205
 4426TIP3    H134837   5.034   5.975   8.123
 4426TIP3    H234838   4.983   6.025   8.257
 4427TIP3   OH234839   4.796   4.350   8.468
 4427TIP3    H134840   4.810   4.430   8.519
 4427TIP3    H234841   4.702   4.334   8.476
 4428TIP3   OH234842   2.104   3.127   6.833
 4428TIP3    H134843   2.029   3.182   6.856
 4428TIP3    H234844   2.101   3.120   6.738
 4429TIP3   OH234845   6.748   5.697   8.004
 4429TIP3    H134846   6.760   5.703   7.909
 4429TIP3    H234847   6.791   5.614   8.027
 4430TIP3   OH234848   5.433   3.427   1.185
 4430TIP3    H134849   5.458   3.335   1.177
 4430TIP3    H234850   5.463   3.467   1.104
 4431TIP3   OH234851   0.901   2.430   8.201
 4431TIP3    H134852   0.842   2.380   8.143
 4431TIP3    H234853   0.985   2.385   8.194
 4432TIP3   OH234854   5.652   1.566   1.698
 4432TIP3    H134855   5.667   1.492   1.756
 4432TIP3    H234856   5.731   1.620   1.707
 4433TIP3   OH234857   4.240   5.478   8.564
 4433TIP3    H134858   4.266   5.562   8.602
 4433TIP3    H234859   4.229   5.420   0.026
 4434TIP3   OH234860   1.075   0.478   1.165
 4434TIP3    H134861   1.002   0.421   1.191
 4434TIP3    H234862   1.093   0.454   1.074
 4435TIP3   OH234863   0.369   6.313   1.977
 4435TIP3    H134864   0.463   6.300   1.986
 4435TIP3    H234865   0.359   6.404   1.950
 4436TIP3   OH234866   2.798   5.242   2.009
 4436TIP3    H134867   2.859   5.171   1.990
 4436TIP3    H234868   2.841   5.294   2.076
 4437TIP3   OH234869   4.420   5.129   1.375
 4437TIP3    H134870   4.434   5.079   1.295
 4437TIP3    H234871   4.430   5.065   1.446
 4438TIP3   OH234872   1.919   2.673   1.035
 4438TIP3    H134873   1.869   2.628   0.967
 4438TIP3    H234874   1.870   2.753   1.052
 4439TIP3   OH234875   1.300   0.465   6.397
 4439TIP3    H134876   1.378   0.433   6.352
 4439TIP3    H234877   1.255   0.520   6.332
 4440TIP3   OH234878   0.026   5.247   0.164
 4440TIP3    H134879   0.074   5.298   0.099
 4440TIP3    H234880   0.040   5.295   0.246
 4441TIP3   OH234881   1.596   6.026   0.746
 4441TIP3    H134882   1.671   6.022   0.806
 4441TIP3    H234883   1.521   6.006   0.801
 4442TIP3   OH234884   0.220   0.595   8.116
 4442TIP3    H134885   0.267   0.519   8.149
 4442TIP3    H234886   0.265   0.670   8.154
 4443TIP3   OH234887   3.547   4.126   0.398
 4443TIP3    H134888   3.540   4.066   0.324
 4443TIP3    H234889   3.600   4.080   0.462
 4444TIP3   OH234890   2.295   2.872   1.713
 4444TIP3    H134891   2.326   2.840   1.798
 4444TIP3    H234892   2.201   2.883   1.725
 4445TIP3   OH234893   1.914   3.228   1.163
 4445TIP3    H134894   1.980   3.271   1.108
 4445TIP3    H234895   1.960   3.156   1.206
 4446TIP3   OH234896   1.464   4.299   7.604
 4446TIP3    H134897   1.433   4.265   7.520
 4446TIP3    H234898   1.384   4.316   7.654
 4447TIP3   OH234899   4.819   5.070   7.151
 4447TIP3    H134900   4.753   5.001   7.157
 4447TIP3    H234901   4.779   5.137   7.097
 4448TIP3   OH234902   2.811   5.711   7.009
 4448TIP3    H134903   2.776   5.636   7.057
 4448TIP3    H234904   2.900   5.721   7.041
 4449TIP3   OH234905   1.803   0.344   2.434
 4449TIP3    H134906   1.811   0.430   2.475
 4449TIP3    H234907   1.865   0.346   2.361
 4450TIP3   OH234908   2.260   2.428   0.465
 4450TIP3    H134909   2.289   2.508   0.420
 4450TIP3    H234910   2.165   2.433   0.463
 4451TIP3   OH234911   3.460   6.215   6.158
 4451TIP3    H134912   3.403   6.213   6.234
 4451TIP3    H234913   3.437   6.135   6.109
 4452TIP3   OH234914   0.245   6.274   7.681
 4452TIP3    H134915   0.210   6.262   7.593
 4452TIP3    H234916   0.213   6.360   7.708
 4453TIP3   OH234917   2.986   4.256   1.161
 4453TIP3    H134918   2.923   4.320   1.194
 4453TIP3    H234919   3.058   4.257   1.224
 4454TIP3   OH234920   0.346   0.995   7.205
 4454TIP3    H134921   0.385   0.919   7.249
 4454TIP3    H234922   0.254   0.993   7.232
 4455TIP3   OH234923   4.826   4.884   1.628
 4455TIP3    H134924   4.742   4.917   1.596
 4455TIP3    H234925   4.879   4.874   1.550
 4456TIP3   OH234926   4.588   4.800   6.546
 4456TIP3    H134927   4.508   4.762   6.509
 4456TIP3    H234928   4.621   4.733   6.605
 4457TIP3   OH234929   3.748   6.770   8.223
 4457TIP3    H134930   3.817   6.724   8.271
 4457TIP3    H234931   3.679   6.785   8.288
 4458TIP3   OH234932   6.751   0.314   6.995
 4458TIP3    H134933   6.754   0.240   7.055
 4458TIP3    H234934   6.661   0.314   6.962
 4459TIP3   OH234935   4.826   6.311   6.304
 4459TIP3    H134936   4.786   6.276   6.384
 4459TIP3    H234937   4.768   6.382   6.277
 4460TIP3   OH234938   5.795   6.030   6.720
 4460TIP3    H134939   5.810   5.941   6.688
 4460TIP3    H234940   5.700   6.040   6.722
 4461TIP3   OH234941   5.768   5.635   1.001
 4461TIP3    H134942   5.677   5.661   0.984
 4461TIP3    H234943   5.820   5.710   0.975
 4462TIP3   OH234944   6.583   0.344   1.653
 4462TIP3    H134945   6.524   0.398   1.705
 4462TIP3    H234946   6.614   0.403   1.584
 4463TIP3   OH234947   2.790   0.918   0.933
 4463TIP3    H134948   2.722   0.936   0.869
 4463TIP3    H234949   2.799   1.000   0.982
 4464TIP3   OH234950   5.074   0.662   0.755
 4464TIP3    H134951   5.025   0.742   0.773
 4464TIP3    H234952   5.031   0.595   0.808
 4465TIP3   OH234953   5.908   3.084   7.007
 4465TIP3    H134954   5.955   3.003   6.987
 4465TIP3    H234955   5.816   3.063   6.990
 4466TIP3   OH234956   2.705   1.087   7.416
 4466TIP3    H134957   2.706   1.163   7.359
 4466TIP3    H234958   2.770   1.027   7.378
 4467TIP3   OH234959   5.490   6.089   7.984
 4467TIP3    H134960   5.444   6.058   8.062
 4467TIP3    H234961   5.492   6.185   7.993
 4468TIP3   OH234962   3.931   2.497   8.454
 4468TIP3    H134963   3.996   2.542   8.400
 4468TIP3    H234964   3.879   2.446   8.392
 4469TIP3   OH234965   0.484   0.844   7.969
 4469TIP3    H134966   0.431   0.919   7.996
 4469TIP3    H234967   0.512   0.803   8.050
 4470TIP3   OH234968   6.601   6.780   1.556
 4470TIP3    H134969   6.693   6.774   1.580
 4470TIP3    H234970   6.559   6.821   1.631
 4471TIP3   OH234971   3.430   1.626   0.453
 4471TIP3    H134972   3.379   1.696   0.412
 4471TIP3    H234973   3.446   1.657   0.542
 4472TIP3   OH234974   2.143   5.995   0.321
 4472TIP3    H134975   2.193   6.076   0.308
 4472TIP3    H234976   2.208   5.925   0.307
 4473TIP3   OH234977   5.886   5.507   7.527
 4473TIP3    H134978   5.951   5.442   7.502
 4473TIP3    H234979   5.817   5.499   7.461
 4474TIP3   OH234980   5.942   5.360   8.574
 4474TIP3    H134981   6.021   5.347   8.521
 4474TIP3    H234982   5.960   5.314   0.042
 4475TIP3   OH234983   2.762   2.883   6.352
 4475TIP3    H134984   2.740   2.971   6.320
 4475TIP3    H234985   2.793   2.837   6.274
 4476TIP3   OH234986   1.153   3.449   7.350
 4476TIP3    H134987   1.165   3.360   7.318
 4476TIP3    H234988   1.151   3.503   7.271
 4477TIP3   OH234989   6.527   4.831   6.730
 4477TIP3    H134990   6.446   4.785   6.753
 4477TIP3    H234991   6.536   4.817   6.636
 4478TIP3   OH234992   1.037   5.293   7.914
 4478TIP3    H134993   1.126   5.308   7.881
 4478TIP3    H234994   1.029   5.198   7.917
 4479TIP3   OH234995   4.574   0.016   1.334
 4479TIP3    H134996   4.641   6.837   1.317
 4479TIP3    H234997   4.504   6.854   1.378
 4480TIP3   OH234998   3.019   2.482   0.506
 4480TIP3    H134999   2.974   2.544   0.562
 4480TIP3    H235000   3.005   2.397   0.548
 4481TIP3   OH235001   3.786   4.825   1.670
 4481TIP3    H135002   3.845   4.773   1.724
 4481TIP3    H235003   3.737   4.877   1.733
 4482TIP3   OH235004   5.334   4.025   6.918
 4482TIP3    H135005   5.419   3.994   6.889
 4482TIP3    H235006   5.295   4.065   6.841
 4483TIP3   OH235007   5.042   3.504   7.788
 4483TIP3    H135008   5.100   3.555   7.731
 4483TIP3    H235009   4.965   3.487   7.734
 4484TIP3   OH235010   0.945   4.113   0.981
 4484TIP3    H135011   0.923   4.022   1.000
 4484TIP3    H235012   0.984   4.146   1.062
 4485TIP3   OH235013   4.828   2.294   8.568
 4485TIP3    H135014   4.753   2.285   0.012
 4485TIP3    H235015   4.794   2.272   8.481
 4486TIP3   OH235016   0.244   2.186   7.195
 4486TIP3    H135017   0.159   2.225   7.175
 4486TIP3    H235018   0.287   2.177   7.109
 4487TIP3   OH235019   1.727   1.650   1.562
 4487TIP3    H135020   1.792   1.672   1.494
 4487TIP3    H235021   1.665   1.723   1.561
 4488TIP3   OH235022   1.484   6.141   2.022
 4488TIP3    H135023   1.520   6.053   2.007
 4488TIP3    H235024   1.513   6.192   1.946
 4489TIP3   OH235025   0.782   5.559   0.040
 4489TIP3    H135026   0.794   5.633   8.594
 4489TIP3    H235027   0.714   5.588   0.101
 4490TIP3   OH235028   0.364   5.461   1.062
 4490TIP3    H135029   0.345   5.367   1.061
 4490TIP3    H235030   0.423   5.473   1.136
 4491TIP3   OH235031   1.426   0.696   8.246
 4491TIP3    H135032   1.381   0.695   8.161
 4491TIP3    H235033   1.441   0.789   8.264
 4492TIP3   OH235034   3.029   3.896   1.512
 4492TIP3    H135035   3.061   3.955   1.580
 4492TIP3    H235036   3.066   3.930   1.431
 4493TIP3   OH235037   0.311   6.438   0.412
 4493TIP3    H135038   0.352   6.501   0.353
 4493TIP3    H235039   0.220   6.433   0.383
 4494TIP3   OH235040   1.311   5.865   2.313
 4494TIP3    H135041   1.377   5.866   2.382
 4494TIP3    H235042   1.307   5.956   2.282
 4495TIP3   OH235043   0.450   6.081   7.354
 4495TIP3    H135044   0.493   6.003   7.390
 4495TIP3    H235045   0.489   6.154   7.402
 4496TIP3   OH235046   2.826   0.686   7.145
 4496TIP3    H135047   2.793   0.623   7.210
 4496TIP3    H235048   2.760   0.755   7.143
 4497TIP3   OH235049   3.248   5.110   0.722
 4497TIP3    H135050   3.173   5.144   0.771
 4497TIP3    H235051   3.218   5.104   0.632
 4498TIP3   OH235052   6.424   2.268   2.170
 4498TIP3    H135053   6.388   2.217   2.097
 4498TIP3    H235054   6.348   2.289   2.225
 4499TIP3   OH235055   4.942   1.850   8.175
 4499TIP3    H135056   4.931   1.864   8.081
 4499TIP3    H235057   5.007   1.915   8.201
 4500TIP3   OH235058   3.140   4.730   7.373
 4500TIP3    H135059   3.087   4.652   7.356
 4500TIP3    H235060   3.142   4.737   7.468
 4501TIP3   OH235061   5.692   6.831   7.052
 4501TIP3    H135062   5.599   6.850   7.041
 4501TIP3    H235063   5.712   6.768   6.982
 4502TIP3   OH235064   3.114   6.091   0.206
 4502TIP3    H135065   3.128   5.997   0.209
 4502TIP3    H235066   3.151   6.123   0.288
 4503TIP3   OH235067   2.154   0.000   0.286
 4503TIP3    H135068   2.094   6.822   0.322
 4503TIP3    H235069   2.188   6.847   0.206
 4504TIP3   OH235070   3.429   1.197   1.750
 4504TIP3    H135071   3.485   1.266   1.785
 4504TIP3    H235072   3.463   1.116   1.789
 4505TIP3   OH235073   5.666   6.694   7.851
 4505TIP3    H135074   5.593   6.633   7.845
 4505TIP3    H235075   5.678   6.727   7.762
 4506TIP3   OH235076   0.760   5.992   6.739
 4506TIP3    H135077   0.770   5.929   6.811
 4506TIP3    H235078   0.803   5.950   6.665
 4507TIP3   OH235079   3.190   1.505   8.410
 4507TIP3    H135080   3.275   1.465   8.425
 4507TIP3    H235081   3.129   1.453   8.463
 4508TIP3   OH235082   1.366   6.838   1.163
 4508TIP3    H135083   1.339   0.025   1.108
 4508TIP3    H235084   1.345   6.866   1.253
 4509TIP3   OH235085   0.588   0.682   0.005
 4509TIP3    H135086   0.610   0.616   0.070
 4509TIP3    H235087   0.492   0.687   0.007
 4510TIP3   OH235088   5.046   0.251   2.207
 4510TIP3    H135089   5.103   0.197   2.261
 4510TIP3    H235090   5.064   0.341   2.235
 4511TIP3   OH235091   4.045   6.119   0.887
 4511TIP3    H135092   4.071   6.140   0.797
 4511TIP3    H235093   3.950   6.106   0.882
 4512TIP3   OH235094   6.672   6.013   8.353
 4512TIP3    H135095   6.763   5.990   8.335
 4512TIP3    H235096   6.645   6.067   8.279
 4513TIP3   OH235097   2.361   1.455   0.189
 4513TIP3    H135098   2.381   1.413   0.273
 4513TIP3    H235099   2.350   1.382   0.129
 4514TIP3   OH235100   0.797   4.937   0.151
 4514TIP3    H135101   0.873   4.905   0.103
 4514TIP3    H235102   0.782   4.872   0.219
 4515TIP3   OH235103   1.339   5.849   6.639
 4515TIP3    H135104   1.315   5.941   6.640
 4515TIP3    H235105   1.373   5.832   6.727
 4516TIP3   OH235106   6.371   5.870   1.868
 4516TIP3    H135107   6.355   5.901   1.779
 4516TIP3    H235108   6.403   5.947   1.915
 4517TIP3   OH235109   2.953   4.192   1.982
 4517TIP3    H135110   3.048   4.183   1.976
 4517TIP3    H235111   2.936   4.201   2.076
 4518TIP3   OH235112   3.034   6.573   8.044
 4518TIP3    H135113   2.956   6.517   8.043
 4518TIP3    H235114   3.009   6.650   7.993
 4519TIP3   OH235115   4.636   3.552   6.821
 4519TIP3    H135116   4.567   3.487   6.830
 4519TIP3    H235117   4.599   3.632   6.859
 4520TIP3   OH235118   3.154   2.739   0.733
 4520TIP3    H135119   3.229   2.679   0.736
 4520TIP3    H235120   3.088   2.697   0.789
 4521TIP3   OH235121   2.256   1.633   1.837
 4521TIP3    H135122   2.169   1.671   1.824
 4521TIP3    H235123   2.240   1.553   1.887
 4522TIP3   OH235124   0.583   1.797   0.432
 4522TIP3    H135125   0.650   1.820   0.367
 4522TIP3    H235126   0.614   1.835   0.514
 4523TIP3   OH235127   0.559   6.251   7.541
 4523TIP3    H135128   0.528   6.203   7.617
 4523TIP3    H235129   0.646   6.216   7.524
 4524TIP3   OH235130   2.898   0.868   6.688
 4524TIP3    H135131   2.849   0.803   6.637
 4524TIP3    H235132   2.955   0.911   6.624
 4525TIP3   OH235133   4.290   4.907   2.633
 4525TIP3    H135134   4.197   4.926   2.648
 4525TIP3    H235135   4.290   4.823   2.587
 4526TIP3   OH235136   5.482   2.752   2.560
 4526TIP3    H135137   5.473   2.847   2.557
 4526TIP3    H235138   5.414   2.724   2.621
 4527TIP3   OH235139   1.028   5.429   7.081
 4527TIP3    H135140   0.972   5.479   7.022
 4527TIP3    H235141   1.113   5.427   7.038
 4528TIP3   OH235142   3.969   3.177   0.637
 4528TIP3    H135143   3.917   3.250   0.602
 4528TIP3    H235144   3.998   3.129   0.560
 4529TIP3   OH235145   4.556   5.979   7.244
 4529TIP3    H135146   4.580   6.050   7.185
 4529TIP3    H235147   4.535   5.906   7.186
 4530TIP3   OH235148   4.170   0.786   1.036
 4530TIP3    H135149   4.182   0.760   0.945
 4530TIP3    H235150   4.254   0.824   1.062
 4531TIP3   OH235151   4.790   2.349   7.039
 4531TIP3    H135152   4.804   2.387   7.126
 4531TIP3    H235153   4.834   2.264   7.043
 4532TIP3   OH235154   0.581   5.806   8.353
 4532TIP3    H135155   0.663   5.778   8.394
 4532TIP3    H235156   0.513   5.778   8.414
 4533TIP3   OH235157   2.783   1.981   2.219
 4533TIP3    H135158   2.710   1.944   2.269
 4533TIP3    H235159   2.833   2.030   2.284
 4534TIP3   OH235160   0.649   0.351   7.162
 4534TIP3    H135161   0.740   0.325   7.176
 4534TIP3    H235162   0.652   0.445   7.146
 4535TIP3   OH235163   2.439   4.141   7.036
 4535TIP3    H135164   2.510   4.079   7.052
 4535TIP3    H235165   2.438   4.153   6.941
 4536TIP3   OH235166   4.197   0.214   1.304
 4536TIP3    H135167   4.157   0.141   1.351
 4536TIP3    H235168   4.127   0.248   1.249
 4537TIP3   OH235169   4.346   0.674   7.871
 4537TIP3    H135170   4.303   0.591   7.853
 4537TIP3    H235171   4.382   0.664   7.960
 4538TIP3   OH235172   3.816   5.712   8.613
 4538TIP3    H135173   3.767   5.638   0.036
 4538TIP3    H235174   3.903   5.705   0.039
 4539TIP3   OH235175   4.847   3.912   7.741
 4539TIP3    H135176   4.792   3.858   7.798
 4539TIP3    H235177   4.820   4.002   7.760
 4540TIP3   OH235178   4.693   4.130   8.323
 4540TIP3    H135179   4.748   4.199   8.360
 4540TIP3    H235180   4.738   4.103   8.243
 4541TIP3   OH235181   1.192   1.594   1.333
 4541TIP3    H135182   1.168   1.609   1.424
 4541TIP3    H235183   1.244   1.670   1.309
 4542TIP3   OH235184   5.017   1.586   0.170
 4542TIP3    H135185   4.993   1.588   0.077
 4542TIP3    H235186   4.937   1.612   0.215
 4543TIP3   OH235187   3.520   4.727   0.719
 4543TIP3    H135188   3.489   4.739   0.629
 4543TIP3    H235189   3.611   4.698   0.709
 4544TIP3   OH235190   0.718   3.089   8.406
 4544TIP3    H135191   0.755   3.112   8.321
 4544TIP3    H235192   0.764   3.009   8.431
 4545TIP3   OH235193   1.931   3.709   8.248
 4545TIP3    H135194   1.887   3.767   8.309
 4545TIP3    H235195   2.005   3.760   8.215
 4546TIP3   OH235196   0.410   3.630   7.210
 4546TIP3    H135197   0.498   3.648   7.178
 4546TIP3    H235198   0.358   3.706   7.182
 4547TIP3   OH235199   0.862   2.651   0.908
 4547TIP3    H135200   0.868   2.630   0.815
 4547TIP3    H235201   0.812   2.579   0.946
 4548TIP3   OH235202   0.035   6.216   7.034
 4548TIP3    H135203   6.829   6.223   7.056
 4548TIP3    H235204   0.080   6.222   7.118
 4549TIP3   OH235205   3.947   1.055   2.607
 4549TIP3    H135206   3.987   1.119   2.548
 4549TIP3    H235207   3.889   1.004   2.551
 4550TIP3   OH235208   1.521   3.492   7.414
 4550TIP3    H135209   1.464   3.418   7.435
 4550TIP3    H235210   1.575   3.462   7.342
 4551TIP3   OH235211   3.996   4.866   7.073
 4551TIP3    H135212   3.959   4.841   6.989
 4551TIP3    H235213   4.076   4.913   7.051
 4552TIP3   OH235214   5.498   2.000   6.279
 4552TIP3    H135215   5.500   1.937   6.207
 4552TIP3    H235216   5.454   2.077   6.243
 4553TIP3   OH235217   6.658   1.513   7.215
 4553TIP3    H135218   6.619   1.446   7.160
 4553TIP3    H235219   6.618   1.500   7.301
 4554TIP3   OH235220   4.449   0.077   5.781
 4554TIP3    H135221   4.421   0.097   5.692
 4554TIP3    H235222   4.491   6.878   5.774
 4555TIP3   OH235223   6.018   1.974   7.765
 4555TIP3    H135224   6.059   1.896   7.728
 4555TIP3    H235225   6.082   2.044   7.751
 4556TIP3   OH235226   5.090   4.233   0.023
 4556TIP3    H135227   5.052   4.169   8.576
 4556TIP3    H235228   5.030   4.307   0.020
 4557TIP3   OH235229   1.540   6.564   1.335
 4557TIP3    H135230   1.590   6.511   1.397
 4557TIP3    H235231   1.577   6.652   1.343
 4558TIP3   OH235232   5.477   1.308   1.538
 4558TIP3    H135233   5.533   1.235   1.563
 4558TIP3    H235234   5.520   1.347   1.461
 4559TIP3   OH235235   6.446   3.977   2.135
 4559TIP3    H135236   6.395   3.937   2.205
 4559TIP3    H235237   6.527   4.005   2.177
 4560TIP3   OH235238   1.155   1.131   1.165
 4560TIP3    H135239   1.061   1.131   1.150
 4560TIP3    H235240   1.191   1.190   1.099
 4561TIP3   OH235241   0.315   0.852   0.118
 4561TIP3    H135242   0.335   0.894   0.034
 4561TIP3    H235243   0.350   0.912   0.183
 4562TIP3   OH235244   4.875   0.463   1.928
 4562TIP3    H135245   4.915   0.537   1.883
 4562TIP3    H235246   4.864   0.492   2.018
 4563TIP3   OH235247   4.399   3.205   8.201
 4563TIP3    H135248   4.383   3.286   8.152
 4563TIP3    H235249   4.494   3.201   8.209
 4564TIP3   OH235250   3.950   5.399   7.898
 4564TIP3    H135251   4.030   5.441   7.867
 4564TIP3    H235252   3.972   5.369   7.987
 4565TIP3   OH235253   2.780   0.265   8.436
 4565TIP3    H135254   2.723   0.234   8.507
 4565TIP3    H235255   2.726   0.256   8.357
 4566TIP3   OH235256   6.538   5.457   1.808
 4566TIP3    H135257   6.446   5.430   1.807
 4566TIP3    H235258   6.558   5.472   1.900
 4567TIP3   OH235259   2.170   2.338   6.125
 4567TIP3    H135260   2.097   2.277   6.112
 4567TIP3    H235261   2.129   2.424   6.131
 4568TIP3   OH235262   4.565   5.832   1.879
 4568TIP3    H135263   4.520   5.892   1.819
 4568TIP3    H235264   4.514   5.751   1.873
 4569TIP3   OH235265   2.190   6.232   7.593
 4569TIP3    H135266   2.254   6.209   7.661
 4569TIP3    H235267   2.204   6.167   7.524
 4570TIP3   OH235268   0.401   4.118   8.135
 4570TIP3    H135269   0.368   4.205   8.155
 4570TIP3    H235270   0.484   4.132   8.091
 4571TIP3   OH235271   0.713   0.346   0.610
 4571TIP3    H135272   0.619   0.351   0.626
 4571TIP3    H235273   0.722   0.284   0.538
 4572TIP3   OH235274   2.305   3.194   7.701
 4572TIP3    H135275   2.277   3.105   7.725
 4572TIP3    H235276   2.230   3.249   7.722
 4573TIP3   OH235277   3.881   3.865   1.999
 4573TIP3    H135278   3.864   3.938   2.059
 4573TIP3    H235279   3.976   3.866   1.988
 4574TIP3   OH235280   4.559   4.334   7.604
 4574TIP3    H135281   4.486   4.395   7.617
 4574TIP3    H235282   4.577   4.337   7.510
 4575TIP3   OH235283   2.623   5.595   7.220
 4575TIP3    H135284   2.597   5.521   7.165
 4575TIP3    H235285   2.711   5.572   7.250
 4576TIP3   OH235286   4.451   6.288   8.113
 4576TIP3    H135287   4.382   6.236   8.072
 4576TIP3    H235288   4.529   6.268   8.062
 4577TIP3   OH235289   5.174   3.283   1.449
 4577TIP3    H135290   5.224   3.362   1.465
 4577TIP3    H235291   5.086   3.315   1.426
 4578TIP3   OH235292   3.686   1.587   8.521
 4578TIP3    H135293   3.600   1.622   8.544
 4578TIP3    H235294   3.676   1.556   8.431
 4579TIP3   OH235295   5.618   3.851   0.814
 4579TIP3    H135296   5.543   3.886   0.863
 4579TIP3    H235297   5.582   3.832   0.727
 4580TIP3   OH235298   1.365   0.934   7.685
 4580TIP3    H135299   1.359   0.897   7.597
 4580TIP3    H235300   1.459   0.943   7.701
 4581TIP3   OH235301   4.549   6.175   8.371
 4581TIP3    H135302   4.475   6.124   8.403
 4581TIP3    H235303   4.511   6.237   8.309
 4582TIP3   OH235304   6.300   1.882   7.346
 4582TIP3    H135305   6.281   1.854   7.257
 4582TIP3    H235306   6.392   1.859   7.360
 4583TIP3   OH235307   4.128   2.545   0.474
 4583TIP3    H135308   4.052   2.493   0.446
 4583TIP3    H235309   4.165   2.497   0.548
 4584TIP3   OH235310   4.427   6.424   0.770
 4584TIP3    H135311   4.353   6.405   0.827
 4584TIP3    H235312   4.415   6.367   0.694
 4585TIP3   OH235313   3.013   0.118   0.946
 4585TIP3    H135314   2.986   0.203   0.913
 4585TIP3    H235315   3.061   0.136   1.027
 4586TIP3   OH235316   3.301   1.273   6.293
 4586TIP3    H135317   3.349   1.295   6.213
 4586TIP3    H235318   3.352   1.203   6.333
 4587TIP3   OH235319   2.704   3.298   8.023
 4587TIP3    H135320   2.780   3.304   8.080
 4587TIP3    H235321   2.680   3.205   8.026
 4588TIP3   OH235322   0.037   5.393   0.390
 4588TIP3    H135323   6.849   5.376   0.448
 4588TIP3    H235324   0.058   5.486   0.405
 4589TIP3   OH235325   5.731   0.293   7.911
 4589TIP3    H135326   5.694   0.311   7.997
 4589TIP3    H235327   5.787   0.368   7.892
 4590TIP3   OH235328   3.256   6.421   8.136
 4590TIP3    H135329   3.227   6.336   8.168
 4590TIP3    H235330   3.308   6.457   8.208
 4591TIP3   OH235331   1.728   2.981   8.218
 4591TIP3    H135332   1.698   2.891   8.222
 4591TIP3    H235333   1.824   2.975   8.218
 4592TIP3   OH235334   2.016   2.526   7.343
 4592TIP3    H135335   2.000   2.616   7.370
 4592TIP3    H235336   1.930   2.493   7.317
 4593TIP3   OH235337   6.570   5.251   6.706
 4593TIP3    H135338   6.488   5.205   6.721
 4593TIP3    H235339   6.636   5.196   6.748
 4594TIP3   OH235340   3.755   1.573   7.440
 4594TIP3    H135341   3.841   1.613   7.432
 4594TIP3    H235342   3.772   1.479   7.446
 4595TIP3   OH235343   0.745   4.221   1.655
 4595TIP3    H135344   0.650   4.218   1.659
 4595TIP3    H235345   0.765   4.293   1.595
 4596TIP3   OH235346   2.912   1.362   7.822
 4596TIP3    H135347   2.934   1.449   7.788
 4596TIP3    H235348   2.886   1.313   7.744
 4597TIP3   OH235349   2.354   6.203   0.012
 4597TIP3    H135350   2.312   6.285   8.601
 4597TIP3    H235351   2.445   6.212   8.596
 4598TIP3   OH235352   6.066   3.639   7.008
 4598TIP3    H135353   6.120   3.706   6.966
 4598TIP3    H235354   5.989   3.631   6.952
 4599TIP3   OH235355   4.152   5.389   1.824
 4599TIP3    H135356   4.173   5.333   1.899
 4599TIP3    H235357   4.171   5.335   1.748
 4600TIP3   OH235358   5.328   5.047   8.104
 4600TIP3    H135359   5.389   5.020   8.173
 4600TIP3    H235360   5.252   4.989   8.115
 4601TIP3   OH235361   4.959   1.694   1.170
 4601TIP3    H135362   4.910   1.696   1.088
 4601TIP3    H235363   4.911   1.752   1.229
 4602TIP3   OH235364   3.508   5.836   1.400
 4602TIP3    H135365   3.487   5.853   1.492
 4602TIP3    H235366   3.425   5.811   1.360
 4603TIP3   OH235367   6.147   0.668   1.619
 4603TIP3    H135368   6.135   0.701   1.708
 4603TIP3    H235369   6.083   0.717   1.567
 4604TIP3   OH235370   0.731   1.140   1.904
 4604TIP3    H135371   0.718   1.062   1.959
 4604TIP3    H235372   0.826   1.146   1.894
 4605TIP3   OH235373   3.297   2.604   1.502
 4605TIP3    H135374   3.309   2.581   1.594
 4605TIP3    H235375   3.203   2.592   1.486
 4606TIP3   OH235376   6.275   3.627   1.901
 4606TIP3    H135377   6.196   3.610   1.851
 4606TIP3    H235378   6.274   3.721   1.919
 4607TIP3   OH235379   6.245   1.524   7.426
 4607TIP3    H135380   6.225   1.515   7.519
 4607TIP3    H235381   6.163   1.555   7.387
 4608TIP3   OH235382   1.608   6.019   0.253
 4608TIP3    H135383   1.671   6.075   0.209
 4608TIP3    H235384   1.658   5.975   0.321
 4609TIP3   OH235385   6.404   3.429   8.170
 4609TIP3    H135386   6.353   3.352   8.145
 4609TIP3    H235387   6.352   3.503   8.138
 4610TIP3   OH235388   0.948   5.266   8.299
 4610TIP3    H135389   1.033   5.282   8.257
 4610TIP3    H235390   0.951   5.317   8.380
 4611TIP3   OH235391   1.480   2.742   8.302
 4611TIP3    H135392   1.467   2.837   8.304
 4611TIP3    H235393   1.575   2.731   8.295
 4612TIP3   OH235394   0.278   2.417   0.930
 4612TIP3    H135395   0.183   2.423   0.937
 4612TIP3    H235396   0.308   2.507   0.915
 4613TIP3   OH235397   6.003   2.170   6.430
 4613TIP3    H135398   6.084   2.221   6.427
 4613TIP3    H235399   5.986   2.158   6.523
 4614TIP3   OH235400   6.139   6.788   6.839
 4614TIP3    H135401   6.102   6.776   6.752
 4614TIP3    H235402   6.125   6.880   6.859
 4615TIP3   OH235403   4.580   2.121   0.617
 4615TIP3    H135404   4.532   2.074   0.548
 4615TIP3    H235405   4.656   2.157   0.572
 4616TIP3   OH235406   3.591   6.508   1.160
 4616TIP3    H135407   3.539   6.527   1.082
 4616TIP3    H235408   3.680   6.496   1.127
 4617TIP3   OH235409   1.501   5.024   0.883
 4617TIP3    H135410   1.518   4.990   0.795
 4617TIP3    H235411   1.561   5.098   0.891
 4618TIP3   OH235412   4.327   5.523   0.812
 4618TIP3    H135413   4.384   5.479   0.750
 4618TIP3    H235414   4.314   5.460   0.883
 4619TIP3   OH235415   3.809   1.799   7.147
 4619TIP3    H135416   3.884   1.792   7.207
 4619TIP3    H235417   3.848   1.805   7.060
 4620TIP3   OH235418   4.923   6.285   6.989
 4620TIP3    H135419   4.946   6.204   7.035
 4620TIP3    H235420   4.970   6.281   6.906
 4621TIP3   OH235421   3.799   0.603   2.217
 4621TIP3    H135422   3.801   0.692   2.181
 4621TIP3    H235423   3.724   0.561   2.174
 4622TIP3   OH235424   4.442   5.925   7.542
 4622TIP3    H135425   4.475   5.854   7.487
 4622TIP3    H235426   4.444   5.889   7.631
 4623TIP3   OH235427   6.546   1.525   0.701
 4623TIP3    H135428   6.565   1.569   0.619
 4623TIP3    H235429   6.613   1.557   0.762
 4624TIP3   OH235430   1.516   3.225   0.505
 4624TIP3    H135431   1.447   3.284   0.476
 4624TIP3    H235432   1.578   3.223   0.432
 4625TIP3   OH235433   3.373   2.586   0.802
 4625TIP3    H135434   3.360   2.492   0.787
 4625TIP3    H235435   3.381   2.594   0.897
 4626TIP3   OH235436   6.843   5.735   1.292
 4626TIP3    H135437   6.837   5.711   1.199
 4626TIP3    H235438   6.752   5.733   1.322
 4627TIP3   OH235439   5.135   0.090   6.998
 4627TIP3    H135440   5.220   0.048   7.000
 4627TIP3    H235441   5.079   0.029   6.948
 4628TIP3   OH235442   3.015   1.253   7.371
 4628TIP3    H135443   3.026   1.339   7.331
 4628TIP3    H235444   3.008   1.192   7.297
 4629TIP3   OH235445   2.208   6.362   7.970
 4629TIP3    H135446   2.279   6.383   8.030
 4629TIP3    H235447   2.228   6.413   7.891
 4630TIP3   OH235448   3.814   6.052   1.152
 4630TIP3    H135449   3.785   6.089   1.235
 4630TIP3    H235450   3.907   6.032   1.165
 4631TIP3   OH235451   0.431   3.421   6.538
 4631TIP3    H135452   0.496   3.386   6.477
 4631TIP3    H235453   0.459   3.512   6.552
 4632TIP3   OH235454   5.526   0.305   8.169
 4632TIP3    H135455   5.496   0.377   8.114
 4632TIP3    H235456   5.464   0.303   8.242
 4633TIP3   OH235457   4.018   2.829   8.129
 4633TIP3    H135458   3.976   2.876   8.201
 4633TIP3    H235459   4.040   2.897   8.065
 4634TIP3   OH235460   1.603   2.763   1.346
 4634TIP3    H135461   1.548   2.684   1.343
 4634TIP3    H235462   1.632   2.768   1.437
 4635TIP3   OH235463   2.414   3.896   0.491
 4635TIP3    H135464   2.340   3.914   0.550
 4635TIP3    H235465   2.378   3.908   0.403
 4636TIP3   OH235466   1.829   3.150   0.292
 4636TIP3    H135467   1.743   3.167   0.254
 4636TIP3    H235468   1.865   3.080   0.238
 4637TIP3   OH235469   0.364   0.694   1.095
 4637TIP3    H135470   0.335   0.614   1.051
 4637TIP3    H235471   0.310   0.699   1.174
 4638TIP3   OH235472   5.309   0.301   1.666
 4638TIP3    H135473   5.383   0.315   1.725
 4638TIP3    H235474   5.232   0.318   1.721
 4639TIP3   OH235475   1.514   4.810   8.376
 4639TIP3    H135476   1.467   4.727   8.379
 4639TIP3    H235477   1.561   4.813   8.460
 4640TIP3   OH235478   3.495   2.094   8.450
 4640TIP3    H135479   3.540   2.074   8.369
 4640TIP3    H235480   3.498   2.189   8.458
 4641TIP3   OH235481   5.145   2.969   8.170
 4641TIP3    H135482   5.231   2.988   8.209
 4641TIP3    H235483   5.126   2.880   8.199
 4642TIP3   OH235484   3.607   1.977   1.559
 4642TIP3    H135485   3.602   2.053   1.501
 4642TIP3    H235486   3.580   2.011   1.645
 4643TIP3   OH235487   3.734   0.996   7.159
 4643TIP3    H135488   3.819   0.978   7.200
 4643TIP3    H235489   3.671   0.947   7.213
 4644TIP3   OH235490   4.252   4.547   8.242
 4644TIP3    H135491   4.332   4.551   8.294
 4644TIP3    H235492   4.278   4.504   8.160
 4645TIP3   OH235493   2.474   1.391   2.523
 4645TIP3    H135494   2.412   1.329   2.562
 4645TIP3    H235495   2.560   1.361   2.552
 4646TIP3   OH235496   0.004   4.672   0.386
 4646TIP3    H135497   6.877   4.600   0.448
 4646TIP3    H235498   0.081   4.717   0.420
 4647TIP3   OH235499   4.622   2.262   1.510
 4647TIP3    H135500   4.540   2.295   1.547
 4647TIP3    H235501   4.648   2.328   1.446
 4648TIP3   OH235502   2.883   2.589   1.398
 4648TIP3    H135503   2.888   2.679   1.431
 4648TIP3    H235504   2.796   2.559   1.421
 4649TIP3   OH235505   5.995   5.397   1.916
 4649TIP3    H135506   5.921   5.364   1.969
 4649TIP3    H235507   5.989   5.492   1.924
 4650TIP3   OH235508   6.747   0.098   7.304
 4650TIP3    H135509   6.714   0.112   7.215
 4650TIP3    H235510   6.836   0.067   7.293
 4651TIP3   OH235511   5.745   5.116   8.235
 4651TIP3    H135512   5.717   5.208   8.232
 4651TIP3    H235513   5.717   5.080   8.151
 4652TIP3   OH235514   0.278   3.007   7.652
 4652TIP3    H135515   0.188   2.982   7.635
 4652TIP3    H235516   0.274   3.102   7.669
 4653TIP3   OH235517   2.935   4.152   8.415
 4653TIP3    H135518   2.895   4.238   8.424
 4653TIP3    H235519   2.864   4.095   8.387
 4654TIP3   OH235520   2.699   1.435   0.868
 4654TIP3    H135521   2.786   1.432   0.909
 4654TIP3    H235522   2.698   1.517   0.819
 4655TIP3   OH235523   6.164   1.990   1.785
 4655TIP3    H135524   6.111   1.992   1.865
 4655TIP3    H235525   6.186   1.897   1.774
 4656TIP3   OH235526   5.081   1.000   0.094
 4656TIP3    H135527   5.106   1.006   0.186
 4656TIP3    H235528   5.150   0.947   0.054
 4657TIP3   OH235529   2.992   4.578   6.714
 4657TIP3    H135530   2.970   4.526   6.637
 4657TIP3    H235531   3.017   4.664   6.680
 4658TIP3   OH235532   5.097   3.777   1.326
 4658TIP3    H135533   5.156   3.722   1.275
 4658TIP3    H235534   5.152   3.815   1.395
 4659TIP3   OH235535   3.264   1.358   7.686
 4659TIP3    H135536   3.205   1.434   7.693
 4659TIP3    H235537   3.351   1.395   7.702
 4660TIP3   OH235538   3.287   2.472   1.758
 4660TIP3    H135539   3.199   2.491   1.790
 4660TIP3    H235540   3.324   2.412   1.822
 4661TIP3   OH235541   6.154   0.529   7.636
 4661TIP3    H135542   6.212   0.560   7.705
 4661TIP3    H235543   6.197   0.450   7.603
 4662TIP3   OH235544   2.272   2.090   1.055
 4662TIP3    H135545   2.343   2.112   0.995
 4662TIP3    H235546   2.192   2.101   1.003
 4663TIP3   OH235547   5.066   3.900   7.568
 4663TIP3    H135548   5.128   3.970   7.549
 4663TIP3    H235549   5.015   3.932   7.642
 4664TIP3   OH235550   4.705   2.349   8.260
 4664TIP3    H135551   4.742   2.267   8.291
 4664TIP3    H235552   4.714   2.347   8.165
 4665TIP3   OH235553   1.195   2.491   7.781
 4665TIP3    H135554   1.139   2.562   7.749
 4665TIP3    H235555   1.283   2.528   7.781
 4666TIP3   OH235556   1.080   6.011   7.523
 4666TIP3    H135557   1.022   6.021   7.598
 4666TIP3    H235558   1.071   5.919   7.498
 4667TIP3   OH235559   5.715   2.221   7.576
 4667TIP3    H135560   5.798   2.231   7.530
 4667TIP3    H235561   5.730   2.260   7.662
 4668TIP3   OH235562   2.044   6.611   8.089
 4668TIP3    H135563   2.095   6.692   8.097
 4668TIP3    H235564   2.030   6.582   8.179
 4669TIP3   OH235565   4.695   0.541   8.169
 4669TIP3    H135566   4.789   0.557   8.166
 4669TIP3    H235567   4.682   0.492   8.250
 4670TIP3   OH235568   4.016   4.538   7.797
 4670TIP3    H135569   4.060   4.480   7.858
 4670TIP3    H235570   4.024   4.493   7.712
 4671TIP3   OH235571   4.895   1.450   2.332
 4671TIP3    H135572   4.874   1.485   2.246
 4671TIP3    H235573   4.918   1.527   2.384
 4672TIP3   OH235574   3.044   0.196   6.200
 4672TIP3    H135575   3.006   0.283   6.187
 4672TIP3    H235576   3.014   0.170   6.287
 4673TIP3   OH235577   0.808   5.577   1.517
 4673TIP3    H135578   0.718   5.609   1.522
 4673TIP3    H235579   0.854   5.622   1.587
 4674TIP3   OH235580   3.172   4.647   8.271
 4674TIP3    H135581   3.226   4.656   8.193
 4674TIP3    H235582   3.223   4.687   8.341
 4675TIP3   OH235583   0.162   4.951   7.335
 4675TIP3    H135584   0.087   5.009   7.319
 4675TIP3    H235585   0.224   5.006   7.383
 4676TIP3   OH235586   4.978   4.377   1.389
 4676TIP3    H135587   5.044   4.375   1.459
 4676TIP3    H235588   4.971   4.469   1.366
 4677TIP3   OH235589   5.828   6.296   7.036
 4677TIP3    H135590   5.897   6.232   7.024
 4677TIP3    H235591   5.748   6.251   7.007
 4678TIP3   OH235592   3.570   5.201   1.396
 4678TIP3    H135593   3.528   5.153   1.324
 4678TIP3    H235594   3.550   5.149   1.474
 4679TIP3   OH235595   6.332   4.313   1.915
 4679TIP3    H135596   6.301   4.277   1.997
 4679TIP3    H235597   6.283   4.266   1.848
 4680TIP3   OH235598   2.962   5.201   0.617
 4680TIP3    H135599   2.917   5.265   0.562
 4680TIP3    H235600   2.965   5.241   0.703
 4681TIP3   OH235601   3.046   4.265   7.804
 4681TIP3    H135602   2.965   4.312   7.822
 4681TIP3    H235603   3.020   4.191   7.749
 4682TIP3   OH235604   0.008   2.439   7.457
 4682TIP3    H135605   0.046   2.495   7.525
 4682TIP3    H235606   6.871   2.358   7.503
 4683TIP3   OH235607   0.627   3.591   1.807
 4683TIP3    H135608   0.589   3.619   1.890
 4683TIP3    H235609   0.582   3.642   1.741
 4684TIP3   OH235610   5.495   5.765   7.643
 4684TIP3    H135611   5.537   5.689   7.682
 4684TIP3    H235612   5.458   5.733   7.561
 4685TIP3   OH235613   5.283   4.750   7.374
 4685TIP3    H135614   5.258   4.780   7.287
 4685TIP3    H235615   5.248   4.817   7.433
 4686TIP3   OH235616   2.978   3.295   7.009
 4686TIP3    H135617   2.980   3.379   6.963
 4686TIP3    H235618   3.000   3.230   6.941
 4687TIP3   OH235619   1.165   3.216   7.652
 4687TIP3    H135620   1.095   3.212   7.587
 4687TIP3    H235621   1.165   3.130   7.693
 4688TIP3   OH235622   3.114   1.149   1.347
 4688TIP3    H135623   3.182   1.182   1.290
 4688TIP3    H235624   3.128   1.194   1.430
 4689TIP3   OH235625   5.022   4.016   1.152
 4689TIP3    H135626   4.965   4.089   1.176
 4689TIP3    H235627   5.010   3.951   1.221
 4690TIP3   OH235628   1.592   3.776   0.586
 4690TIP3    H135629   1.501   3.786   0.615
 4690TIP3    H235630   1.584   3.757   0.492
 4691TIP3   OH235631   3.887   0.348   0.537
 4691TIP3    H135632   3.831   0.425   0.529
 4691TIP3    H235633   3.896   0.334   0.631
 4692TIP3   OH235634   2.788   5.377   6.748
 4692TIP3    H135635   2.833   5.332   6.819
 4692TIP3    H235636   2.724   5.314   6.716
 4693TIP3   OH235637   3.176   6.445   6.891
 4693TIP3    H135638   3.220   6.364   6.867
 4693TIP3    H235639   3.084   6.419   6.905
 4694TIP3   OH235640   4.625   6.449   0.201
 4694TIP3    H135641   4.555   6.450   0.135
 4694TIP3    H235642   4.612   6.366   0.247
 4695TIP3   OH235643   0.352   1.772   7.885
 4695TIP3    H135644   0.393   1.858   7.890
 4695TIP3    H235645   0.425   1.711   7.878
 4696TIP3   OH235646   0.823   0.278   8.522
 4696TIP3    H135647   0.745   0.223   8.518
 4696TIP3    H235648   0.838   0.306   8.432
 4697TIP3   OH235649   6.772   6.411   1.562
 4697TIP3    H135650   6.725   6.329   1.547
 4697TIP3    H235651   6.773   6.455   1.477
 4698TIP3   OH235652   4.525   1.973   8.200
 4698TIP3    H135653   4.589   1.902   8.191
 4698TIP3    H235654   4.535   2.024   8.119
 4699TIP3   OH235655   0.175   6.165   0.535
 4699TIP3    H135656   0.123   6.213   0.471
 4699TIP3    H235657   0.164   6.214   0.616
 4700TIP3   OH235658   2.453   0.356   0.202
 4700TIP3    H135659   2.415   0.441   0.177
 4700TIP3    H235660   2.455   0.358   0.297
 4701TIP3   OH235661   2.120   1.492   1.089
 4701TIP3    H135662   2.187   1.424   1.086
 4701TIP3    H235663   2.103   1.513   0.997
 4702TIP3   OH235664   3.779   0.000   0.681
 4702TIP3    H135665   3.696   0.006   0.634
 4702TIP3    H235666   3.757   6.846   0.764
 4703TIP3   OH235667   3.497   6.090   7.388
 4703TIP3    H135668   3.577   6.041   7.407
 4703TIP3    H235669   3.429   6.045   7.439
 4704TIP3   OH235670   2.740   2.868   7.451
 4704TIP3    H135671   2.771   2.958   7.448
 4704TIP3    H235672   2.645   2.875   7.451
 4705TIP3   OH235673   0.240   3.650   2.667
 4705TIP3    H135674   0.239   3.620   2.576
 4705TIP3    H235675   0.160   3.701   2.677
 4706TIP3   OH235676   5.029   1.872   7.147
 4706TIP3    H135677   5.043   1.832   7.233
 4706TIP3    H235678   5.044   1.965   7.161
 4707TIP3   OH235679   3.264   2.665   2.322
 4707TIP3    H135680   3.290   2.580   2.286
 4707TIP3    H235681   3.344   2.699   2.361
 4708TIP3   OH235682   4.315   0.671   0.537
 4708TIP3    H135683   4.353   0.584   0.551
 4708TIP3    H235684   4.268   0.663   0.454
 4709TIP3   OH235685   1.294   5.777   8.275
 4709TIP3    H135686   1.202   5.801   8.265
 4709TIP3    H235687   1.304   5.699   8.220
 4710TIP3   OH235688   0.859   5.244   1.055
 4710TIP3    H135689   0.911   5.170   1.086
 4710TIP3    H235690   0.856   5.304   1.129
 4711TIP3   OH235691   6.483   3.257   7.576
 4711TIP3    H135692   6.484   3.241   7.671
 4711TIP3    H235693   6.396   3.229   7.548
 4712TIP3   OH235694   2.192   1.807   1.189
 4712TIP3    H135695   2.099   1.800   1.167
 4712TIP3    H235696   2.224   1.880   1.136
 4713TIP3   OH235697   5.430   2.858   1.485
 4713TIP3    H135698   5.512   2.841   1.437
 4713TIP3    H235699   5.421   2.783   1.544
 4714TIP3   OH235700   1.783   6.768   1.986
 4714TIP3    H135701   1.709   6.742   1.932
 4714TIP3    H235702   1.799   6.694   2.043
 4715TIP3   OH235703   1.225   1.054   7.860
 4715TIP3    H135704   1.269   0.985   7.811
 4715TIP3    H235705   1.175   1.103   7.794
 4716TIP3   OH235706   3.713   0.479   1.523
 4716TIP3    H135707   3.752   0.566   1.509
 4716TIP3    H235708   3.627   0.497   1.560
 4717TIP3   OH235709   1.884   2.481   8.069
 4717TIP3    H135710   1.861   2.502   7.979
 4717TIP3    H235711   1.821   2.415   8.096
 4718TIP3   OH235712   2.578   0.726   6.972
 4718TIP3    H135713   2.598   0.730   6.878
 4718TIP3    H235714   2.484   0.707   6.976
 4719TIP3   OH235715   3.854   1.709   0.067
 4719TIP3    H135716   3.819   1.679   0.151
 4719TIP3    H235717   3.790   1.679   0.003
 4720TIP3   OH235718   2.494   1.846   6.599
 4720TIP3    H135719   2.560   1.812   6.538
 4720TIP3    H235720   2.448   1.769   6.631
 4721TIP3   OH235721   0.549   2.370   8.069
 4721TIP3    H135722   0.567   2.311   8.143
 4721TIP3    H235723   0.636   2.389   8.032
 4722TIP3   OH235724   4.198   0.126   1.637
 4722TIP3    H135725   4.126   0.160   1.584
 4722TIP3    H235726   4.190   0.031   1.630
 4723TIP3   OH235727   2.601   2.148   8.113
 4723TIP3    H135728   2.652   2.225   8.140
 4723TIP3    H235729   2.563   2.174   8.029
 4724TIP3   OH235730   3.745   4.758   1.214
 4724TIP3    H135731   3.704   4.807   1.286
 4724TIP3    H235732   3.734   4.813   1.137
 4725TIP3   OH235733   3.427   1.956   0.865
 4725TIP3    H135734   3.338   1.935   0.892
 4725TIP3    H235735   3.462   1.874   0.831
 4726TIP3   OH235736   4.277   2.917   7.272
 4726TIP3    H135737   4.352   2.887   7.221
 4726TIP3    H235738   4.310   2.993   7.321
 4727TIP3   OH235739   1.523   4.551   1.958
 4727TIP3    H135740   1.523   4.608   1.880
 4727TIP3    H235741   1.489   4.607   2.028
 4728TIP3   OH235742   4.808   6.372   8.389
 4728TIP3    H135743   4.732   6.419   8.353
 4728TIP3    H235744   4.770   6.305   8.445
 4729TIP3   OH235745   6.196   3.244   8.065
 4729TIP3    H135746   6.222   3.294   7.987
 4729TIP3    H235747   6.105   3.221   8.049
 4730TIP3   OH235748   3.636   1.241   0.646
 4730TIP3    H135749   3.604   1.187   0.719
 4730TIP3    H235750   3.557   1.281   0.610
 4731TIP3   OH235751   1.108   0.941   8.288
 4731TIP3    H135752   1.163   0.938   8.210
 4731TIP3    H235753   1.127   0.858   8.333
 4732TIP3   OH235754   6.288   0.503   0.432
 4732TIP3    H135755   6.383   0.511   0.424
 4732TIP3    H235756   6.257   0.500   0.341
 4733TIP3   OH235757   1.049   3.472   1.275
 4733TIP3    H135758   1.000   3.552   1.257
 4733TIP3    H235759   1.090   3.487   1.361
 4734TIP3   OH235760   6.736   3.811   0.642
 4734TIP3    H135761   6.694   3.837   0.560
 4734TIP3    H235762   6.804   3.876   0.656
 4735TIP3   OH235763   5.258   2.095   0.192
 4735TIP3    H135764   5.332   2.156   0.192
 4735TIP3    H235765   5.180   2.150   0.196
 4736TIP3   OH235766   1.135   1.495   8.493
 4736TIP3    H135767   1.125   1.589   8.476
 4736TIP3    H235768   1.126   1.454   8.407
 4737TIP3   OH235769   2.609   4.063   8.389
 4737TIP3    H135770   2.558   4.005   8.445
 4737TIP3    H235771   2.549   4.135   8.369
 4738TIP3   OH235772   4.623   6.619   0.407
 4738TIP3    H135773   4.602   6.706   0.372
 4738TIP3    H235774   4.603   6.559   0.336
 4739TIP3   OH235775   0.996   1.560   1.591
 4739TIP3    H135776   1.028   1.526   1.675
 4739TIP3    H235777   0.919   1.612   1.613
 4740TIP3   OH235778   0.425   3.158   7.085
 4740TIP3    H135779   0.461   3.143   7.173
 4740TIP3    H235780   0.364   3.085   7.071
 4741TIP3   OH235781   2.837   3.564   6.023
 4741TIP3    H135782   2.864   3.505   6.093
 4741TIP3    H235783   2.760   3.608   6.058
 4742TIP3   OH235784   1.093   5.459   1.205
 4742TIP3    H135785   1.141   5.504   1.136
 4742TIP3    H235786   1.159   5.407   1.251
 4743TIP3   OH235787   1.192   5.326   8.200
 4743TIP3    H135788   1.221   5.416   8.186
 4743TIP3    H235789   1.264   5.272   8.166
 4744TIP3   OH235790   3.864   5.604   0.605
 4744TIP3    H135791   3.825   5.542   0.667
 4744TIP3    H235792   3.956   5.610   0.633
 4745TIP3   OH235793   2.718   0.791   0.101
 4745TIP3    H135794   2.648   0.777   0.164
 4745TIP3    H235795   2.799   0.771   0.149
 4746TIP3   OH235796   2.532   3.922   6.305
 4746TIP3    H135797   2.482   3.943   6.384
 4746TIP3    H235798   2.618   3.960   6.320
 4747TIP3   OH235799   0.555   2.943   0.935
 4747TIP3    H135800   0.613   2.943   0.858
 4747TIP3    H235801   0.522   3.033   0.939
 4748TIP3   OH235802   5.298   0.999   7.298
 4748TIP3    H135803   5.297   1.078   7.244
 4748TIP3    H235804   5.239   0.938   7.254
 4749TIP3   OH235805   5.546   2.778   1.815
 4749TIP3    H135806   5.546   2.781   1.911
 4749TIP3    H235807   5.616   2.838   1.789
 4750TIP3   OH235808   0.885   6.054   1.855
 4750TIP3    H135809   0.974   6.070   1.889
 4750TIP3    H235810   0.835   6.024   1.931
 4751TIP3   OH235811   1.930   5.040   1.248
 4751TIP3    H135812   1.949   4.948   1.236
 4751TIP3    H235813   1.971   5.063   1.331
 4752TIP3   OH235814   5.755   5.943   8.029
 4752TIP3    H135815   5.669   5.978   8.006
 4752TIP3    H235816   5.817   6.009   7.996
 4753TIP3   OH235817   3.142   2.207   0.412
 4753TIP3    H135818   3.069   2.216   0.352
 4753TIP3    H235819   3.101   2.196   0.498
 4754TIP3   OH235820   3.087   4.197   1.617
 4754TIP3    H135821   3.144   4.173   1.690
 4754TIP3    H235822   2.999   4.176   1.649
 4755TIP3   OH235823   0.826   0.996   7.402
 4755TIP3    H135824   0.884   1.073   7.406
 4755TIP3    H235825   0.785   0.994   7.488
 4756TIP3   OH235826   5.944   5.427   1.591
 4756TIP3    H135827   5.932   5.425   1.686
 4756TIP3    H235828   5.981   5.341   1.570
 4757TIP3   OH235829   0.839   6.512   2.009
 4757TIP3    H135830   0.785   6.590   2.025
 4757TIP3    H235831   0.874   6.488   2.095
 4758TIP3   OH235832   5.221   5.180   1.775
 4758TIP3    H135833   5.136   5.225   1.780
 4758TIP3    H235834   5.281   5.236   1.824
 4759TIP3   OH235835   5.299   4.085   0.432
 4759TIP3    H135836   5.370   4.122   0.379
 4759TIP3    H235837   5.247   4.034   0.369
 4760TIP3   OH235838   3.149   2.154   8.329
 4760TIP3    H135839   3.100   2.152   8.247
 4760TIP3    H235840   3.115   2.080   8.380
 4761TIP3   OH235841   2.055   4.909   1.725
 4761TIP3    H135842   2.008   4.863   1.655
 4761TIP3    H235843   2.040   4.855   1.802
 4762TIP3   OH235844   4.217   3.123   1.574
 4762TIP3    H135845   4.304   3.145   1.540
 4762TIP3    H235846   4.180   3.064   1.508
 4763TIP3   OH235847   5.510   2.621   0.811
 4763TIP3    H135848   5.601   2.593   0.807
 4763TIP3    H235849   5.491   2.655   0.724
 4764TIP3   OH235850   6.141   0.049   1.965
 4764TIP3    H135851   6.151   0.131   1.916
 4764TIP3    H235852   6.178   0.068   2.051
 4765TIP3   OH235853   5.201   0.394   7.473
 4765TIP3    H135854   5.246   0.321   7.515
 4765TIP3    H235855   5.191   0.459   7.542
 4766TIP3   OH235856   3.496   2.875   0.610
 4766TIP3    H135857   3.442   2.938   0.563
 4766TIP3    H235858   3.565   2.851   0.548
 4767TIP3   OH235859   6.578   5.262   0.295
 4767TIP3    H135860   6.554   5.182   0.341
 4767TIP3    H235861   6.606   5.322   0.364
 4768TIP3   OH235862   2.254   4.864   7.797
 4768TIP3    H135863   2.218   4.939   7.750
 4768TIP3    H235864   2.348   4.866   7.776
 4769TIP3   OH235865   3.163   0.436   1.247
 4769TIP3    H135866   3.119   0.354   1.225
 4769TIP3    H235867   3.120   0.503   1.194
 4770TIP3   OH235868   3.927   3.882   6.895
 4770TIP3    H135869   3.954   3.796   6.926
 4770TIP3    H235870   3.987   3.943   6.938
 4771TIP3   OH235871   6.819   2.204   7.647
 4771TIP3    H135872   6.770   2.248   7.717
 4771TIP3    H235873   0.024   2.216   7.671
 4772TIP3   OH235874   6.508   5.972   0.687
 4772TIP3    H135875   6.505   5.977   0.591
 4772TIP3    H235876   6.507   6.063   0.715
 4773TIP3   OH235877   2.941   3.244   6.453
 4773TIP3    H135878   2.853   3.213   6.429
 4773TIP3    H235879   2.963   3.308   6.385
 4774TIP3   OH235880   0.115   0.070   0.658
 4774TIP3    H135881   0.193   0.022   0.629
 4774TIP3    H235882   0.106   0.141   0.594
 4775TIP3   OH235883   2.746   6.177   6.680
 4775TIP3    H135884   2.716   6.220   6.600
 4775TIP3    H235885   2.667   6.135   6.716
 4776TIP3   OH235886   2.051   5.424   1.818
 4776TIP3    H135887   2.110   5.352   1.796
 4776TIP3    H235888   1.974   5.410   1.763
 4777TIP3   OH235889   1.207   6.270   7.580
 4777TIP3    H135890   1.154   6.205   7.535
 4777TIP3    H235891   1.286   6.279   7.526
 4778TIP3   OH235892   4.025   6.688   0.188
 4778TIP3    H135893   3.949   6.629   0.186
 4778TIP3    H235894   4.100   6.630   0.198
 4779TIP3   OH235895   2.020   3.256   6.570
 4779TIP3    H135896   2.024   3.311   6.492
 4779TIP3    H235897   1.927   3.242   6.585
 4780TIP3   OH235898   1.732   6.017   6.888
 4780TIP3    H135899   1.777   6.064   6.958
 4780TIP3    H235900   1.739   6.075   6.812
 4781TIP3   OH235901   0.231   2.383   6.225
 4781TIP3    H135902   0.278   2.458   6.260
 4781TIP3    H235903   0.299   2.332   6.180
 4782TIP3   OH235904   6.857   4.614   8.371
 4782TIP3    H135905   6.847   4.678   8.442
 4782TIP3    H235906   0.064   4.616   8.350
 4783TIP3   OH235907   1.625   1.171   6.833
 4783TIP3    H135908   1.639   1.185   6.926
 4783TIP3    H235909   1.708   1.194   6.792
 4784TIP3   OH235910   3.211   6.239   7.189
 4784TIP3    H135911   3.162   6.315   7.158
 4784TIP3    H235912   3.217   6.251   7.283
 4785TIP3   OH235913   5.380   3.535   7.819
 4785TIP3    H135914   5.375   3.494   7.733
 4785TIP3    H235915   5.347   3.624   7.806
 4786TIP3   OH235916   2.057   2.180   6.549
 4786TIP3    H135917   2.061   2.262   6.499
 4786TIP3    H235918   1.995   2.126   6.500
 4787TIP3   OH235919   6.715   0.437   0.090
 4787TIP3    H135920   6.654   0.487   0.034
 4787TIP3    H235921   6.798   0.441   0.043
 4788TIP3   OH235922   4.378   1.708   1.519
 4788TIP3    H135923   4.434   1.777   1.554
 4788TIP3    H235924   4.415   1.689   1.432
 4789TIP3   OH235925   6.093   2.071   8.103
 4789TIP3    H135926   6.143   2.037   8.177
 4789TIP3    H235927   6.156   2.075   8.031
 4790TIP3   OH235928   4.505   5.478   7.805
 4790TIP3    H135929   4.488   5.434   7.889
 4790TIP3    H235930   4.505   5.407   7.741
 4791TIP3   OH235931   3.740   6.583   7.394
 4791TIP3    H135932   3.792   6.662   7.410
 4791TIP3    H235933   3.651   6.607   7.419
 4792TIP3   OH235934   3.288   3.165   6.598
 4792TIP3    H135935   3.339   3.148   6.678
 4792TIP3    H235936   3.267   3.079   6.564
 4793TIP3   OH235937   0.873   1.818   1.752
 4793TIP3    H135938   0.790   1.858   1.774
 4793TIP3    H235939   0.932   1.841   1.824
 4794TIP3   OH235940   4.633   2.974   7.929
 4794TIP3    H135941   4.711   2.925   7.903
 4794TIP3    H235942   4.561   2.929   7.885
 4795TIP3   OH235943   4.864   2.084   7.043
 4795TIP3    H135944   4.862   2.020   6.972
 4795TIP3    H235945   4.819   2.041   7.116
 4796TIP3   OH235946   0.992   6.455   7.181
 4796TIP3    H135947   0.906   6.454   7.223
 4796TIP3    H235948   1.003   6.545   7.151
 4797TIP3   OH235949   3.131   4.650   1.405
 4797TIP3    H135950   3.222   4.631   1.427
 4797TIP3    H235951   3.131   4.665   1.311
 4798TIP3   OH235952   0.381   2.350   0.533
 4798TIP3    H135953   0.371   2.363   0.438
 4798TIP3    H235954   0.428   2.267   0.541
 4799TIP3   OH235955   4.398   1.142   7.726
 4799TIP3    H135956   4.390   1.073   7.792
 4799TIP3    H235957   4.465   1.201   7.762
 4800TIP3   OH235958   3.495   2.951   1.258
 4800TIP3    H135959   3.422   2.906   1.301
 4800TIP3    H235960   3.570   2.894   1.273
 4801TIP3   OH235961   5.166   6.275   0.792
 4801TIP3    H135962   5.167   6.312   0.881
 4801TIP3    H235963   5.073   6.267   0.771
 4802TIP3   OH235964   5.837   0.263   8.281
 4802TIP3    H135965   5.808   0.335   8.225
 4802TIP3    H235966   5.868   0.197   8.219
 4803TIP3   OH235967   6.216   2.213   0.078
 4803TIP3    H135968   6.257   2.128   0.063
 4803TIP3    H235969   6.145   2.195   0.139
 4804TIP3   OH235970   3.269   2.373   7.966
 4804TIP3    H135971   3.180   2.407   7.967
 4804TIP3    H235972   3.284   2.340   8.055
 4805TIP3   OH235973   3.204   1.497   1.494
 4805TIP3    H135974   3.138   1.493   1.424
 4805TIP3    H235975   3.210   1.408   1.526
 4806TIP3   OH235976   3.437   3.341   0.590
 4806TIP3    H135977   3.518   3.294   0.567
 4806TIP3    H235978   3.445   3.356   0.684
 4807TIP3   OH235979   4.617   5.502   0.491
 4807TIP3    H135980   4.617   5.474   0.583
 4807TIP3    H235981   4.672   5.580   0.489
 4808TIP3   OH235982   4.238   2.767   6.967
 4808TIP3    H135983   4.229   2.673   6.954
 4808TIP3    H235984   4.239   2.779   7.062
 4809TIP3   OH235985   4.594   1.219   6.910
 4809TIP3    H135986   4.616   1.186   6.823
 4809TIP3    H235987   4.583   1.314   6.898
 4810TIP3   OH235988   0.757   5.581   7.772
 4810TIP3    H135989   0.663   5.597   7.766
 4810TIP3    H235990   0.770   5.495   7.733
 4811TIP3   OH235991   3.325   1.492   2.289
 4811TIP3    H135992   3.372   1.521   2.211
 4811TIP3    H235993   3.390   1.492   2.358
 4812TIP3   OH235994   2.612   4.843   1.194
 4812TIP3    H135995   2.638   4.769   1.248
 4812TIP3    H235996   2.528   4.872   1.231
 4813TIP3   OH235997   6.604   5.406   1.231
 4813TIP3    H135998   6.600   5.502   1.224
 4813TIP3    H235999   6.513   5.379   1.246
 4814TIP3   OH236000   0.790   0.463   7.480
 4814TIP3    H136001   0.783   0.517   7.401
 4814TIP3    H236002   0.858   0.398   7.459
 4815TIP3   OH236003   2.343   5.699   7.820
 4815TIP3    H136004   2.356   5.661   7.733
 4815TIP3    H236005   2.379   5.634   7.881
 4816TIP3   OH236006   4.605   3.797   2.659
 4816TIP3    H136007   4.659   3.826   2.733
 4816TIP3    H236008   4.632   3.706   2.644
 4817TIP3   OH236009   0.728   4.285   0.508
 4817TIP3    H136010   0.816   4.324   0.507
 4817TIP3    H236011   0.721   4.243   0.593
 4818TIP3   OH236012   3.359   2.317   0.805
 4818TIP3    H136013   3.343   2.234   0.760
 4818TIP3    H236014   3.448   2.309   0.839
 4819TIP3   OH236015   0.501   6.680   1.254
 4819TIP3    H136016   0.456   6.738   1.193
 4819TIP3    H236017   0.432   6.624   1.290
 4820TIP3   OH236018   3.648   2.212   6.278
 4820TIP3    H136019   3.720   2.258   6.320
 4820TIP3    H236020   3.571   2.265   6.299
 4821TIP3   OH236021   4.189   5.832   6.972
 4821TIP3    H136022   4.120   5.768   6.953
 4821TIP3    H236023   4.228   5.850   6.887
 4822TIP3   OH236024   3.680   0.385   7.682
 4822TIP3    H136025   3.714   0.333   7.755
 4822TIP3    H236026   3.694   0.330   7.605
 4823TIP3   OH236027   5.715   4.422   7.188
 4823TIP3    H136028   5.696   4.402   7.279
 4823TIP3    H236029   5.715   4.518   7.183
 4824TIP3   OH236030   6.566   4.757   0.155
 4824TIP3    H136031   6.640   4.811   0.128
 4824TIP3    H236032   6.546   4.704   0.078
 4825TIP3   OH236033   4.057   3.885   6.316
 4825TIP3    H136034   4.087   3.795   6.307
 4825TIP3    H236035   3.970   3.878   6.356
 4826TIP3   OH236036   1.774   1.829   6.922
 4826TIP3    H136037   1.753   1.881   6.844
 4826TIP3    H236038   1.707   1.852   6.986
 4827TIP3   OH236039   0.040   3.153   2.315
 4827TIP3    H136040   0.097   3.180   2.387
 4827TIP3    H236041   6.859   3.220   2.312
 4828TIP3   OH236042   6.520   3.990   6.724
 4828TIP3    H136043   6.522   3.894   6.719
 4828TIP3    H236044   6.464   4.017   6.652
 4829TIP3   OH236045   6.724   1.777   8.512
 4829TIP3    H136046   6.718   1.832   8.434
 4829TIP3    H236047   6.704   1.837   8.584
 4830TIP3   OH236048   6.038   6.305   1.129
 4830TIP3    H136049   5.953   6.291   1.171
 4830TIP3    H236050   6.101   6.307   1.201
 4831TIP3   OH236051   5.892   4.339   1.236
 4831TIP3    H136052   5.868   4.247   1.227
 4831TIP3    H236053   5.816   4.380   1.278
 4832TIP3   OH236054   4.268   4.667   1.649
 4832TIP3    H136055   4.181   4.703   1.665
 4832TIP3    H236056   4.272   4.589   1.705
 4833TIP3   OH236057   2.411   4.233   8.567
 4833TIP3    H136058   2.391   4.258   0.044
 4833TIP3    H236059   2.326   4.217   8.528
 4834TIP3   OH236060   2.589   5.749   0.371
 4834TIP3    H136061   2.500   5.764   0.402
 4834TIP3    H236062   2.579   5.683   0.302
 4835TIP3   OH236063   4.805   4.881   8.117
 4835TIP3    H136064   4.880   4.938   8.096
 4835TIP3    H236065   4.729   4.927   8.082
 4836TIP3   OH236066   2.233   2.202   0.672
 4836TIP3    H136067   2.235   2.224   0.579
 4836TIP3    H236068   2.232   2.106   0.674
 4837TIP3   OH236069   3.419   1.550   8.110
 4837TIP3    H136070   3.360   1.499   8.164
 4837TIP3    H236071   3.404   1.641   8.137
 4838TIP3   OH236072   3.636   6.777   6.791
 4838TIP3    H136073   3.545   6.797   6.771
 4838TIP3    H236074   3.671   6.738   6.711
 4839TIP3   OH236075   0.159   0.159   2.621
 4839TIP3    H136076   0.247   0.121   2.613
 4839TIP3    H236077   0.101   0.083   2.631
 4840TIP3   OH236078   6.350   5.130   7.914
 4840TIP3    H136079   6.349   5.131   8.009
 4840TIP3    H236080   6.440   5.107   7.891
 4841TIP3   OH236081   0.968   1.840   7.598
 4841TIP3    H136082   0.872   1.843   7.594
 4841TIP3    H236083   0.992   1.776   7.531
 4842TIP3   OH236084   1.523   4.784   7.737
 4842TIP3    H136085   1.454   4.734   7.782
 4842TIP3    H236086   1.483   4.810   7.654
 4843TIP3   OH236087   5.431   3.643   7.060
 4843TIP3    H136088   5.360   3.666   7.120
 4843TIP3    H236089   5.429   3.711   6.993
 4844TIP3   OH236090   4.413   4.819   0.124
 4844TIP3    H136091   4.318   4.808   0.119
 4844TIP3    H236092   4.438   4.776   0.206
 4845TIP3   OH236093   0.362   6.742   7.955
 4845TIP3    H136094   0.433   6.805   7.968
 4845TIP3    H236095   0.355   6.697   8.039
 4846TIP3   OH236096   5.124   2.422   1.315
 4846TIP3    H136097   5.101   2.349   1.372
 4846TIP3    H236098   5.057   2.488   1.331
 4847TIP3   OH236099   2.432   5.903   1.224
 4847TIP3    H136100   2.467   5.915   1.136
 4847TIP3    H236101   2.472   5.822   1.255
 4848TIP3   OH236102   1.509   6.659   0.178
 4848TIP3    H136103   1.528   6.646   0.271
 4848TIP3    H236104   1.593   6.644   0.134
 4849TIP3   OH236105   6.488   2.621   2.069
 4849TIP3    H136106   6.463   2.655   2.155
 4849TIP3    H236107   6.556   2.556   2.088
 4850TIP3   OH236108   6.001   0.409   2.037
 4850TIP3    H136109   6.045   0.390   1.954
 4850TIP3    H236110   6.070   0.403   2.103
 4851TIP3   OH236111   5.191   0.407   8.148
 4851TIP3    H136112   5.200   0.338   8.082
 4851TIP3    H236113   5.214   0.364   8.231
 4852TIP3   OH236114   3.983   5.588   0.862
 4852TIP3    H136115   3.996   5.508   0.811
 4852TIP3    H236116   4.008   5.563   0.951
 4853TIP3   OH236117   5.301   0.991   8.520
 4853TIP3    H136118   5.370   0.985   8.585
 4853TIP3    H236119   5.330   1.060   8.460
 4854TIP3   OH236120   4.002   1.147   0.648
 4854TIP3    H136121   4.015   1.081   0.716
 4854TIP3    H236122   3.936   1.206   0.684
 4855TIP3   OH236123   2.668   0.799   8.426
 4855TIP3    H136124   2.706   0.826   8.510
 4855TIP3    H236125   2.653   0.705   8.435
 4856TIP3   OH236126   2.179   3.781   0.092
 4856TIP3    H136127   2.096   3.811   0.054
 4856TIP3    H236128   2.202   3.850   0.155
 4857TIP3   OH236129   4.738   4.827   8.390
 4857TIP3    H136130   4.659   4.866   8.428
 4857TIP3    H236131   4.726   4.835   8.295
 4858TIP3   OH236132   1.135   3.082   8.313
 4858TIP3    H136133   1.062   3.078   8.252
 4858TIP3    H236134   1.171   2.993   8.314
 4859TIP3   OH236135   3.991   6.716   1.917
 4859TIP3    H136136   4.056   6.765   1.967
 4859TIP3    H236137   3.998   6.750   1.828
 4860TIP3   OH236138   2.185   5.173   7.049
 4860TIP3    H136139   2.277   5.166   7.075
 4860TIP3    H236140   2.178   5.120   6.970
 4861TIP3   OH236141   5.672   5.095   0.086
 4861TIP3    H136142   5.741   5.052   0.036
 4861TIP3    H236143   5.634   5.025   0.139
 4862TIP3   OH236144   2.975   4.968   0.009
 4862TIP3    H136145   2.902   4.990   0.067
 4862TIP3    H236146   2.976   4.872   0.007
 4863TIP3   OH236147   2.687   3.169   6.742
 4863TIP3    H136148   2.737   3.099   6.700
 4863TIP3    H236149   2.670   3.232   6.672
 4864TIP3   OH236150   3.106   2.588   1.939
 4864TIP3    H136151   3.055   2.560   2.016
 4864TIP3    H236152   3.162   2.658   1.972
 4865TIP3   OH236153   3.522   6.045   1.152
 4865TIP3    H136154   3.570   6.053   1.070
 4865TIP3    H236155   3.566   5.975   1.200
 4866TIP3   OH236156   0.817   1.510   0.132
 4866TIP3    H136157   0.905   1.548   0.123
 4866TIP3    H236158   0.767   1.545   0.059
 4867TIP3   OH236159   0.699   5.082   1.766
 4867TIP3    H136160   0.749   5.059   1.845
 4867TIP3    H236161   0.731   5.169   1.742
 4868TIP3   OH236162   2.491   4.219   1.568
 4868TIP3    H136163   2.424   4.204   1.501
 4868TIP3    H236164   2.442   4.237   1.648
 4869TIP3   OH236165   0.141   2.240   1.327
 4869TIP3    H136166   0.187   2.179   1.384
 4869TIP3    H236167   0.106   2.306   1.386
 4870TIP3   OH236168   2.706   4.682   1.382
 4870TIP3    H136169   2.661   4.618   1.438
 4870TIP3    H236170   2.788   4.701   1.429
 4871TIP3   OH236171   4.768   2.288   0.273
 4871TIP3    H136172   4.707   2.248   0.212
 4871TIP3    H236173   4.736   2.377   0.286
 4872TIP3   OH236174   0.696   6.779   1.812
 4872TIP3    H136175   0.788   6.806   1.812
 4872TIP3    H236176   0.653   6.840   1.751
 4873TIP3   OH236177   3.001   2.715   8.513
 4873TIP3    H136178   3.035   2.736   8.599
 4873TIP3    H236179   3.064   2.753   8.452
 4874TIP3   OH236180   1.956   3.199   7.865
 4874TIP3    H136181   1.880   3.196   7.923
 4874TIP3    H236182   1.965   3.291   7.842
 4875TIP3   OH236183   5.525   3.139   0.537
 4875TIP3    H136184   5.574   3.196   0.477
 4875TIP3    H236185   5.445   3.118   0.489
 4876TIP3   OH236186   0.772   4.866   8.195
 4876TIP3    H136187   0.847   4.925   8.191
 4876TIP3    H236188   0.719   4.898   8.267
 4877TIP3   OH236189   6.061   0.641   1.198
 4877TIP3    H136190   6.150   0.607   1.189
 4877TIP3    H236191   6.035   0.667   1.110
 4878TIP3   OH236192   2.401   0.847   7.270
 4878TIP3    H136193   2.392   0.859   7.365
 4878TIP3    H236194   2.435   0.759   7.261
 4879TIP3   OH236195   6.442   3.275   8.502
 4879TIP3    H136196   6.482   3.360   8.482
 4879TIP3    H236197   6.431   3.276   8.597
 4880TIP3   OH236198   2.385   2.165   7.345
 4880TIP3    H136199   2.302   2.169   7.296
 4880TIP3    H236200   2.358   2.139   7.433
 4881TIP3   OH236201   3.198   5.259   1.909
 4881TIP3    H136202   3.202   5.290   2.000
 4881TIP3    H236203   3.108   5.231   1.897
 4882TIP3   OH236204   1.894   1.170   8.345
 4882TIP3    H136205   1.987   1.164   8.366
 4882TIP3    H236206   1.879   1.263   8.327
 4883TIP3   OH236207   3.047   6.031   0.975
 4883TIP3    H136208   3.013   6.049   0.887
 4883TIP3    H236209   3.142   6.043   0.966
 4884TIP3   OH236210   0.014   1.057   7.941
 4884TIP3    H136211   6.864   0.985   7.992
 4884TIP3    H236212   6.833   1.125   7.943
 4885TIP3   OH236213   5.288   6.358   7.028
 4885TIP3    H136214   5.254   6.286   7.081
 4885TIP3    H236215   5.249   6.345   6.942
 4886TIP3   OH236216   0.480   5.961   1.895
 4886TIP3    H136217   0.400   5.934   1.938
 4886TIP3    H236218   0.538   5.987   1.966
 4887TIP3   OH236219   6.711   0.782   0.931
 4887TIP3    H136220   6.765   0.784   0.852
 4887TIP3    H236221   6.758   0.725   0.991
 4888TIP3   OH236222   0.672   2.627   8.238
 4888TIP3    H136223   0.758   2.586   8.224
 4888TIP3    H236224   0.676   2.708   8.186
 4889TIP3   OH236225   2.467   1.676   1.675
 4889TIP3    H136226   2.497   1.601   1.625
 4889TIP3    H236227   2.376   1.657   1.696
 4890TIP3   OH236228   3.564   5.414   8.423
 4890TIP3    H136229   3.637   5.425   8.363
 4890TIP3    H236230   3.545   5.320   8.421
 4891TIP3   OH236231   0.449   1.168   8.358
 4891TIP3    H136232   0.377   1.231   8.366
 4891TIP3    H236233   0.491   1.190   8.275
 4892TIP3   OH236234   0.638   1.275   0.501
 4892TIP3    H136235   0.563   1.288   0.559
 4892TIP3    H236236   0.666   1.364   0.478
 4893TIP3   OH236237   0.540   0.144   2.211
 4893TIP3    H136238   0.476   0.072   2.218
 4893TIP3    H236239   0.513   0.206   2.278
 4894TIP3   OH236240   6.620   6.812   1.852
 4894TIP3    H136241   6.660   6.728   1.875
 4894TIP3    H236242   6.691   6.862   1.811
 4895TIP3   OH236243   2.021   0.232   2.628
 4895TIP3    H136244   2.053   0.212   2.541
 4895TIP3    H236245   2.033   0.327   2.637
 4896TIP3   OH236246   3.932   6.249   1.703
 4896TIP3    H136247   3.916   6.324   1.646
 4896TIP3    H236248   3.858   6.250   1.764
 4897TIP3   OH236249   2.179   6.454   6.216
 4897TIP3    H136250   2.179   6.542   6.179
 4897TIP3    H236251   2.260   6.451   6.268
 4898TIP3   OH236252   2.183   5.457   7.761
 4898TIP3    H136253   2.139   5.529   7.806
 4898TIP3    H236254   2.247   5.499   7.705
 4899TIP3   OH236255   0.264   6.224   0.212
 4899TIP3    H136256   0.172   6.230   0.239
 4899TIP3    H236257   0.312   6.213   0.294
 4900TIP3   OH236258   2.775   3.531   0.564
 4900TIP3    H136259   2.702   3.469   0.558
 4900TIP3    H236260   2.733   3.617   0.562
 4901TIP3   OH236261   1.701   3.323   7.297
 4901TIP3    H136262   1.725   3.307   7.389
 4901TIP3    H236263   1.779   3.297   7.248
 4902TIP3   OH236264   0.249   3.297   7.672
 4902TIP3    H136265   0.169   3.299   7.619
 4902TIP3    H236266   0.217   3.295   7.763
 4903TIP3   OH236267   5.295   2.382   8.553
 4903TIP3    H136268   5.307   2.469   8.591
 4903TIP3    H236269   5.245   2.334   0.004
 4904TIP3   OH236270   1.293   2.849   1.129
 4904TIP3    H136271   1.382   2.878   1.150
 4904TIP3    H236272   1.298   2.753   1.130
 4905TIP3   OH236273   5.195   2.772   6.379
 4905TIP3    H136274   5.188   2.736   6.468
 4905TIP3    H236275   5.139   2.716   6.326
 4906TIP3   OH236276   5.369   2.207   6.916
 4906TIP3    H136277   5.365   2.142   6.986
 4906TIP3    H236278   5.285   2.200   6.871
 4907TIP3   OH236279   6.367   6.110   1.441
 4907TIP3    H136280   6.280   6.073   1.427
 4907TIP3    H236281   6.378   6.111   1.536
 4908TIP3   OH236282   4.199   4.304   7.524
 4908TIP3    H136283   4.230   4.241   7.589
 4908TIP3    H236284   4.113   4.332   7.557
 4909TIP3   OH236285   6.417   2.714   2.322
 4909TIP3    H136286   6.467   2.648   2.369
 4909TIP3    H236287   6.395   2.779   2.388
 4910TIP3   OH236288   5.117   0.410   1.121
 4910TIP3    H136289   5.168   0.353   1.063
 4910TIP3    H236290   5.176   0.482   1.141
 4911TIP3   OH236291   0.188   3.163   0.949
 4911TIP3    H136292   0.099   3.153   0.916
 4911TIP3    H236293   0.216   3.073   0.969
 4912TIP3   OH236294   4.988   6.568   8.171
 4912TIP3    H136295   4.894   6.553   8.162
 4912TIP3    H236296   5.000   6.581   8.265
 4913TIP3   OH236297   5.598   1.637   0.037
 4913TIP3    H136298   5.538   1.572   0.074
 4913TIP3    H236299   5.555   1.721   0.053
 4914TIP3   OH236300   5.205   3.968   2.612
 4914TIP3    H136301   5.240   3.901   2.553
 4914TIP3    H236302   5.253   3.955   2.694
 4915TIP3   OH236303   4.281   1.022   8.360
 4915TIP3    H136304   4.243   1.026   8.448
 4915TIP3    H236305   4.296   0.929   8.344
 4916TIP3   OH236306   5.328   4.942   1.589
 4916TIP3    H136307   5.403   4.904   1.544
 4916TIP3    H236308   5.366   5.010   1.645
 4917TIP3   OH236309   6.730   4.499   6.917
 4917TIP3    H136310   6.779   4.547   6.849
 4917TIP3    H236311   6.786   4.425   6.939
 4918TIP3   OH236312   6.070   2.983   8.330
 4918TIP3    H136313   6.124   2.916   8.372
 4918TIP3    H236314   6.109   3.066   8.359
 4919TIP3   OH236315   0.070   6.033   8.531
 4919TIP3    H136316   0.160   6.040   8.498
 4919TIP3    H236317   0.035   5.956   8.488
 4920TIP3   OH236318   6.801   1.305   7.791
 4920TIP3    H136319   6.743   1.376   7.763
 4920TIP3    H236320   6.817   1.255   7.711
 4921TIP3   OH236321   2.905   6.597   6.686
 4921TIP3    H136322   2.980   6.551   6.649
 4921TIP3    H236323   2.943   6.657   6.750
 4922TIP3   OH236324   6.278   5.691   7.655
 4922TIP3    H136325   6.263   5.687   7.561
 4922TIP3    H236326   6.296   5.601   7.680
 4923TIP3   OH236327   2.461   1.171   8.252
 4923TIP3    H136328   2.537   1.205   8.300
 4923TIP3    H236329   2.453   1.228   8.176
 4924TIP3   OH236330   6.771   6.643   8.079
 4924TIP3    H136331   6.740   6.614   8.165
 4924TIP3    H236332   6.783   6.562   8.029
 4925TIP3   OH236333   0.427   5.267   8.553
 4925TIP3    H136334   0.506   5.236   8.509
 4925TIP3    H236335   0.428   5.362   8.539
 4926TIP3   OH236336   1.736   5.838   7.894
 4926TIP3    H136337   1.687   5.882   7.964
 4926TIP3    H236338   1.698   5.872   7.814
 4927TIP3   OH236339   1.380   0.514   7.085
 4927TIP3    H136340   1.459   0.565   7.103
 4927TIP3    H236341   1.412   0.425   7.073
 4928TIP3   OH236342   0.230   3.887   2.004
 4928TIP3    H136343   0.325   3.896   2.001
 4928TIP3    H236344   0.201   3.964   2.053
 4929TIP3   OH236345   3.864   2.281   6.449
 4929TIP3    H136346   3.955   2.300   6.469
 4929TIP3    H236347   3.853   2.188   6.470
 4930TIP3   OH236348   5.906   3.763   0.627
 4930TIP3    H136349   5.911   3.855   0.602
 4930TIP3    H236350   5.883   3.764   0.720
 4931TIP3   OH236351   4.196   3.811   1.178
 4931TIP3    H136352   4.150   3.884   1.135
 4931TIP3    H236353   4.242   3.853   1.251
 4932TIP3   OH236354   3.470   2.833   6.483
 4932TIP3    H136355   3.548   2.883   6.459
 4932TIP3    H236356   3.503   2.745   6.501
 4933TIP3   OH236357   0.202   3.119   7.297
 4933TIP3    H136358   0.153   3.200   7.290
 4933TIP3    H236359   0.156   3.069   7.364
 4934TIP3   OH236360   2.246   1.923   1.453
 4934TIP3    H136361   2.154   1.949   1.441
 4934TIP3    H236362   2.297   1.995   1.416
 4935TIP3   OH236363   4.198   1.360   7.695
 4935TIP3    H136364   4.223   1.267   7.696
 4935TIP3    H236365   4.200   1.386   7.787
 4936TIP3   OH236366   0.979   6.833   0.240
 4936TIP3    H136367   0.967   6.887   0.161
 4936TIP3    H236368   0.917   6.761   0.230
 4937TIP3   OH236369   6.375   0.416   2.029
 4937TIP3    H136370   6.368   0.321   2.017
 4937TIP3    H236371   6.333   0.433   2.113
 4938TIP3   OH236372   2.731   5.535   8.160
 4938TIP3    H136373   2.648   5.540   8.112
 4938TIP3    H236374   2.721   5.597   8.232
 4939TIP3   OH236375   2.526   6.332   2.183
 4939TIP3    H136376   2.618   6.351   2.164
 4939TIP3    H236377   2.506   6.255   2.130
 4940TIP3   OH236378   3.611   0.217   8.116
 4940TIP3    H136379   3.560   0.297   8.120
 4940TIP3    H236380   3.683   0.230   8.177
 4941TIP3   OH236381   5.848   1.753   8.442
 4941TIP3    H136382   5.931   1.783   8.405
 4941TIP3    H236383   5.793   1.736   8.365
 4942TIP3   OH236384   6.830   2.097   7.094
 4942TIP3    H136385   6.752   2.125   7.142
 4942TIP3    H236386   6.861   2.176   7.050
 4943TIP3   OH236387   4.264   1.035   1.411
 4943TIP3    H136388   4.191   1.096   1.414
 4943TIP3    H236389   4.224   0.950   1.393
 4944TIP3   OH236390   6.718   4.245   6.388
 4944TIP3    H136391   6.725   4.151   6.400
 4944TIP3    H236392   6.807   4.278   6.400
 4945TIP3   OH236393   1.327   2.699   0.616
 4945TIP3    H136394   1.392   2.630   0.606
 4945TIP3    H236395   1.377   2.780   0.610
 4946TIP3   OH236396   5.929   0.392   1.616
 4946TIP3    H136397   5.906   0.476   1.654
 4946TIP3    H236398   5.861   0.376   1.550
 4947TIP3   OH236399   5.561   6.196   6.974
 4947TIP3    H136400   5.521   6.154   7.051
 4947TIP3    H236401   5.524   6.148   6.900
 4948TIP3   OH236402   0.242   5.363   7.912
 4948TIP3    H136403   0.236   5.274   7.945
 4948TIP3    H236404   0.248   5.418   7.990
 4949TIP3   OH236405   0.487   5.742   0.026
 4949TIP3    H136406   0.535   5.719   0.105
 4949TIP3    H236407   0.455   5.830   0.042
 4950TIP3   OH236408   5.586   4.515   0.447
 4950TIP3    H136409   5.602   4.519   0.353
 4950TIP3    H236410   5.671   4.531   0.487
 4951TIP3   OH236411   5.534   0.406   8.610
 4951TIP3    H136412   5.593   0.365   0.061
 4951TIP3    H236413   5.508   0.488   0.036
 4952TIP3   OH236414   2.269   0.160   0.706
 4952TIP3    H136415   2.322   0.196   0.635
 4952TIP3    H236416   2.234   0.078   0.671
 4953TIP3   OH236417   3.827   2.696   1.152
 4953TIP3    H136418   3.858   2.651   1.230
 4953TIP3    H236419   3.798   2.627   1.093
 4954TIP3   OH236420   0.554   1.633   8.201
 4954TIP3    H136421   0.591   1.692   8.135
 4954TIP3    H236422   0.482   1.589   8.155
 4955TIP3   OH236423   5.077   4.944   7.339
 4955TIP3    H136424   5.040   5.030   7.323
 4955TIP3    H236425   5.001   4.886   7.350
 4956TIP3   OH236426   0.034   2.304   6.919
 4956TIP3    H136427   0.092   2.266   6.853
 4956TIP3    H236428   6.834   2.302   6.878
 4957TIP3   OH236429   3.374   5.260   1.675
 4957TIP3    H136430   3.333   5.300   1.599
 4957TIP3    H236431   3.309   5.268   1.744
 4958TIP3   OH236432   5.811   6.338   1.956
 4958TIP3    H136433   5.897   6.379   1.962
 4958TIP3    H236434   5.762   6.371   2.032
 4959TIP3   OH236435   2.140   1.794   0.884
 4959TIP3    H136436   2.083   1.825   0.954
 4959TIP3    H236437   2.107   1.839   0.806
 4960TIP3   OH236438   1.844   6.063   2.207
 4960TIP3    H136439   1.903   6.111   2.265
 4960TIP3    H236440   1.759   6.068   2.249
 4961TIP3   OH236441   4.613   1.049   7.569
 4961TIP3    H136442   4.551   1.078   7.636
 4961TIP3    H236443   4.625   1.126   7.513
 4962TIP3   OH236444   5.311   1.530   0.448
 4962TIP3    H136445   5.314   1.529   0.544
 4962TIP3    H236446   5.236   1.587   0.428
 4963TIP3   OH236447   6.657   0.260   0.271
 4963TIP3    H136448   6.701   0.304   0.344
 4963TIP3    H236449   6.685   0.308   0.193
 4964TIP3   OH236450   5.214   3.877   8.079
 4964TIP3    H136451   5.124   3.876   8.111
 4964TIP3    H236452   5.266   3.907   8.154
 4965TIP3   OH236453   0.530   3.969   0.998
 4965TIP3    H136454   0.611   3.930   1.031
 4965TIP3    H236455   0.466   3.899   1.001
 4966TIP3   OH236456   2.690   6.829   2.414
 4966TIP3    H136457   2.739   0.024   2.417
 4966TIP3    H236458   2.744   6.767   2.464
 4967TIP3   OH236459   6.282   1.808   8.205
 4967TIP3    H136460   6.305   1.715   8.210
 4967TIP3    H236461   6.294   1.830   8.112
 4968TIP3   OH236462   3.887   4.487   1.696
 4968TIP3    H136463   3.955   4.540   1.655
 4968TIP3    H236464   3.814   4.489   1.633
 4969TIP3   OH236465   4.290   4.380   1.781
 4969TIP3    H136466   4.268   4.438   1.854
 4969TIP3    H236467   4.366   4.331   1.812
 4970TIP3   OH236468   6.241   6.138   2.176
 4970TIP3    H136469   6.149   6.159   2.191
 4970TIP3    H236470   6.274   6.113   2.263
 4971TIP3   OH236471   6.288   0.369   8.376
 4971TIP3    H136472   6.294   0.285   8.332
 4971TIP3    H236473   6.223   0.356   8.445
 4972TIP3   OH236474   4.863   5.237   1.832
 4972TIP3    H136475   4.928   5.274   1.771
 4972TIP3    H236476   4.902   5.250   1.918
 4973TIP3   OH236477   6.443   0.181   1.424
 4973TIP3    H136478   6.524   0.173   1.475
 4973TIP3    H236479   6.376   0.203   1.489
 4974TIP3   OH236480   5.138   1.640   7.023
 4974TIP3    H136481   5.080   1.571   7.056
 4974TIP3    H236482   5.103   1.721   7.060
 4975TIP3   OH236483   1.463   4.975   1.452
 4975TIP3    H136484   1.397   4.959   1.519
 4975TIP3    H236485   1.499   4.889   1.432
 4976TIP3   OH236486   0.690   6.726   1.521
 4976TIP3    H136487   0.661   6.700   1.433
 4976TIP3    H236488   0.781   6.754   1.509
 4977TIP3   OH236489   1.873   0.260   1.337
 4977TIP3    H136490   1.962   0.282   1.309
 4977TIP3    H236491   1.882   0.173   1.377
 4978TIP3   OH236492   1.655   2.678   1.609
 4978TIP3    H136493   1.739   2.685   1.653
 4978TIP3    H236494   1.592   2.662   1.679
 4979TIP3   OH236495   4.800   5.556   8.569
 4979TIP3    H136496   4.827   5.633   8.520
 4979TIP3    H236497   4.763   5.591   0.037
 4980TIP3   OH236498   2.291   6.503   0.107
 4980TIP3    H136499   2.202   6.536   0.111
 4980TIP3    H236500   2.308   6.490   0.014
 4981TIP3   OH236501   3.330   3.958   1.332
 4981TIP3    H136502   3.413   3.951   1.284
 4981TIP3    H236503   3.306   3.868   1.351
 4982TIP3   OH236504   4.151   2.850   7.553
 4982TIP3    H136505   4.088   2.790   7.513
 4982TIP3    H236506   4.108   2.935   7.551
 4983TIP3   OH236507   5.024   1.068   7.905
 4983TIP3    H136508   5.110   1.044   7.871
 4983TIP3    H236509   4.962   1.020   7.849
 4984TIP3   OH236510   4.202   2.436   0.728
 4984TIP3    H136511   4.270   2.382   0.686
 4984TIP3    H236512   4.119   2.396   0.700
 4985TIP3   OH236513   4.397   5.377   1.637
 4985TIP3    H136514   4.409   5.425   1.719
 4985TIP3    H236515   4.478   5.328   1.625
 4986TIP3   OH236516   4.828   4.715   0.186
 4986TIP3    H136517   4.781   4.798   0.195
 4986TIP3    H236518   4.870   4.702   0.271
 4987TIP3   OH236519   5.953   0.751   0.943
 4987TIP3    H136520   5.889   0.698   0.896
 4987TIP3    H236521   5.901   0.809   0.998
 4988TIP3   OH236522   6.085   0.617   8.197
 4988TIP3    H136523   6.136   0.593   8.274
 4988TIP3    H236524   6.083   0.712   8.198
 4989TIP3   OH236525   5.612   0.566   7.753
 4989TIP3    H136526   5.587   0.536   7.666
 4989TIP3    H236527   5.707   0.580   7.748
 4990TIP3   OH236528   3.707   5.279   1.804
 4990TIP3    H136529   3.750   5.250   1.724
 4990TIP3    H236530   3.693   5.372   1.792
 4991TIP3   OH236531   6.322   4.860   0.224
 4991TIP3    H136532   6.412   4.826   0.213
 4991TIP3    H236533   6.333   4.955   0.227
 4992TIP3   OH236534   0.804   0.029   2.283
 4992TIP3    H136535   0.854   0.112   2.285
 4992TIP3    H236536   0.714   0.056   2.269
 4993TIP3   OH236537   1.189   6.166   1.814
 4993TIP3    H136538   1.162   6.255   1.793
 4993TIP3    H236539   1.284   6.169   1.817
 4994TIP3   OH236540   3.493   5.279   6.652
 4994TIP3    H136541   3.561   5.215   6.676
 4994TIP3    H236542   3.516   5.308   6.564
 4995TIP3   OH236543   6.030   0.386   7.866
 4995TIP3    H136544   6.018   0.470   7.823
 4995TIP3    H236545   6.008   0.321   7.799
 4996TIP3   OH236546   5.831   4.412   7.835
 4996TIP3    H136547   5.813   4.329   7.792
 4996TIP3    H236548   5.798   4.400   7.924
 4997TIP3   OH236549   3.309   6.644   7.883
 4997TIP3    H136550   3.379   6.609   7.828
 4997TIP3    H236551   3.355   6.699   7.947
 4998TIP3   OH236552   3.191   5.120   8.198
 4998TIP3    H136553   3.155   5.157   8.278
 4998TIP3    H236554   3.278   5.160   8.191
 4999TIP3   OH236555   6.173   0.053   7.243
 4999TIP3    H136556   6.149   6.850   7.268
 4999TIP3    H236557   6.264   0.062   7.271
 5000TIP3   OH236558   0.567   6.616   0.426
 5000TIP3    H136559   0.588   6.555   0.496
 5000TIP3    H236560   0.509   6.681   0.467
 5001TIP3   OH236561   4.458   5.545   6.292
 5001TIP3    H136562   4.495   5.578   6.374
 5001TIP3    H236563   4.376   5.503   6.318
 5002TIP3   OH236564   4.327   6.560   7.055
 5002TIP3    H136565   4.259   6.595   6.997
 5002TIP3    H236566   4.374   6.497   7.001
 5003TIP3   OH236567   4.711   3.265   8.301
 5003TIP3    H136568   4.725   3.264   8.396
 5003TIP3    H236569   4.774   3.201   8.267
 5004TIP3   OH236570   4.850   1.824   0.543
 5004TIP3    H136571   4.775   1.862   0.495
 5004TIP3    H236572   4.921   1.822   0.479
 5005TIP3   OH236573   4.052   2.247   2.528
 5005TIP3    H136574   3.981   2.308   2.547
 5005TIP3    H236575   4.040   2.223   2.436
 5006TIP3   OH236576   5.195   1.968   6.409
 5006TIP3    H136577   5.221   2.023   6.335
 5006TIP3    H236578   5.246   2.002   6.483
 5007TIP3   OH236579   2.055   3.370   7.466
 5007TIP3    H136580   2.045   3.434   7.395
 5007TIP3    H236581   2.080   3.289   7.422
 5008TIP3   OH236582   1.276   6.120   2.192
 5008TIP3    H136583   1.357   6.113   2.141
 5008TIP3    H236584   1.232   6.197   2.157
 5009TIP3   OH236585   6.259   0.869   1.293
 5009TIP3    H136586   6.259   0.965   1.286
 5009TIP3    H236587   6.185   0.841   1.239
 5010TIP3   OH236588   4.784   3.524   7.650
 5010TIP3    H136589   4.773   3.580   7.573
 5010TIP3    H236590   4.744   3.572   7.722
 5011TIP3   OH236591   5.381   0.832   1.352
 5011TIP3    H136592   5.420   0.889   1.286
 5011TIP3    H236593   5.402   0.875   1.435
 5012TIP3   OH236594   3.509   6.657   1.752
 5012TIP3    H136595   3.587   6.687   1.799
 5012TIP3    H236596   3.442   6.649   1.820
 5013TIP3   OH236597   3.176   1.339   1.866
 5013TIP3    H136598   3.271   1.339   1.853
 5013TIP3    H236599   3.163   1.295   1.950
 5014TIP3   OH236600   3.170   4.305   7.272
 5014TIP3    H136601   3.102   4.264   7.218
 5014TIP3    H236602   3.121   4.355   7.337
 5015TIP3   OH236603   4.027   4.732   8.222
 5015TIP3    H136604   4.090   4.660   8.226
 5015TIP3    H236605   3.984   4.731   8.307
 5016TIP3   OH236606   5.544   3.169   1.286
 5016TIP3    H136607   5.581   3.087   1.318
 5016TIP3    H236608   5.483   3.143   1.217
 5017TIP3   OH236609   2.066   0.740   6.912
 5017TIP3    H136610   2.006   0.757   6.985
 5017TIP3    H236611   2.153   0.747   6.950
 5018TIP3   OH236612   6.200   4.337   0.814
 5018TIP3    H136613   6.185   4.312   0.723
 5018TIP3    H236614   6.130   4.293   0.862
 5019TIP3   OH236615   1.121   0.689   7.028
 5019TIP3    H136616   1.068   0.712   6.952
 5019TIP3    H236617   1.079   0.735   7.101
 5020TIP3   OH236618   6.010   1.518   8.305
 5020TIP3    H136619   5.948   1.558   8.367
 5020TIP3    H236620   5.980   1.427   8.297
 5021TIP3   OH236621   6.267   1.486   1.939
 5021TIP3    H136622   6.261   1.458   2.030
 5021TIP3    H236623   6.361   1.488   1.921
 5022TIP3   OH236624   6.615   4.211   8.594
 5022TIP3    H136625   6.683   4.269   0.014
 5022TIP3    H236626   6.657   4.166   8.521
 5023TIP3   OH236627   5.199   2.294   0.581
 5023TIP3    H136628   5.168   2.372   0.628
 5023TIP3    H236629   5.121   2.258   0.539
 5024TIP3   OH236630   6.113   5.431   0.620
 5024TIP3    H136631   6.120   5.508   0.676
 5024TIP3    H236632   6.188   5.438   0.560
 5025TIP3   OH236633   4.863   4.247   8.036
 5025TIP3    H136634   4.840   4.305   8.109
 5025TIP3    H236635   4.929   4.189   8.072
 5026TIP3   OH236636   1.004   0.811   7.551
 5026TIP3    H136637   1.010   0.849   7.463
 5026TIP3    H236638   1.074   0.746   7.554
 5027TIP3   OH236639   5.195   5.546   0.267
 5027TIP3    H136640   5.262   5.482   0.245
 5027TIP3    H236641   5.243   5.626   0.286
 5028TIP3   OH236642   4.132   4.155   1.738
 5028TIP3    H136643   4.170   4.242   1.756
 5028TIP3    H236644   4.135   4.110   1.822
 5029TIP3   OH236645   2.686   6.742   6.698
 5029TIP3    H136646   2.688   6.737   6.794
 5029TIP3    H236647   2.771   6.709   6.670
 5030TIP3   OH236648   4.076   0.948   2.276
 5030TIP3    H136649   4.074   0.853   2.273
 5030TIP3    H236650   4.058   0.975   2.185
 5031TIP3   OH236651   4.307   6.294   7.253
 5031TIP3    H136652   4.214   6.293   7.232
 5031TIP3    H236653   4.348   6.248   7.180
 5032TIP3   OH236654   0.929   2.466   0.305
 5032TIP3    H136655   0.925   2.424   0.218
 5032TIP3    H236656   0.849   2.517   0.310
 5033TIP3   OH236657   3.050   1.743   2.045
 5033TIP3    H136658   3.086   1.822   2.002
 5033TIP3    H236659   3.056   1.762   2.138
 5034TIP3   OH236660   3.621   6.098   2.299
 5034TIP3    H136661   3.650   6.189   2.303
 5034TIP3    H236662   3.701   6.046   2.303
 5035TIP3   OH236663   2.201   3.140   7.335
 5035TIP3    H136664   2.288   3.140   7.374
 5035TIP3    H236665   2.216   3.120   7.243
 5036TIP3   OH236666   0.226   4.823   1.105
 5036TIP3    H136667   0.265   4.899   1.062
 5036TIP3    H236668   0.300   4.766   1.125
 5037TIP3   OH236669   5.123   2.694   8.264
 5037TIP3    H136670   5.048   2.647   8.302
 5037TIP3    H236671   5.185   2.624   8.241
 5038TIP3   OH236672   0.534   0.953   1.409
 5038TIP3    H136673   0.610   0.923   1.359
 5038TIP3    H236674   0.487   0.873   1.434
 5039TIP3   OH236675   6.721   1.432   0.337
 5039TIP3    H136676   6.769   1.349   0.335
 5039TIP3    H236677   6.732   1.468   0.249
 5040TIP3   OH236678   5.842   4.791   0.307
 5040TIP3    H136679   5.787   4.869   0.308
 5040TIP3    H236680   5.849   4.764   0.398
 5041TIP3   OH236681   5.854   6.035   8.303
 5041TIP3    H136682   5.762   6.058   8.288
 5041TIP3    H236683   5.883   5.994   8.222
 5042TIP3   OH236684   4.285   6.883   7.276
 5042TIP3    H136685   4.357   6.880   7.339
 5042TIP3    H236686   4.311   0.062   7.212
 5043TIP3   OH236687   1.947   1.654   0.417
 5043TIP3    H136688   1.888   1.586   0.451
 5043TIP3    H236689   1.970   1.623   0.330
 5044TIP3   OH236690   4.194   1.501   1.583
 5044TIP3    H136691   4.269   1.560   1.595
 5044TIP3    H236692   4.179   1.500   1.489
 5045TIP3   OH236693   0.298   0.176   7.440
 5045TIP3    H136694   0.224   0.228   7.472
 5045TIP3    H236695   0.370   0.238   7.433
 5046TIP3   OH236696   0.105   4.630   6.475
 5046TIP3    H136697   0.125   4.709   6.424
 5046TIP3    H236698   0.190   4.594   6.498
 5047TIP3   OH236699   6.687   2.935   1.850
 5047TIP3    H136700   6.713   2.994   1.921
 5047TIP3    H236701   6.729   2.971   1.772
 5048TIP3   OH236702   5.956   1.849   7.167
 5048TIP3    H136703   6.045   1.876   7.146
 5048TIP3    H236704   5.903   1.883   7.095
 5049TIP3   OH236705   5.693   3.446   0.288
 5049TIP3    H136706   5.636   3.489   0.352
 5049TIP3    H236707   5.779   3.444   0.329
 5050TIP3   OH236708   2.337   6.710   8.411
 5050TIP3    H136709   2.414   6.747   8.368
 5050TIP3    H236710   2.344   6.616   8.393
 5051TIP3   OH236711   6.868   4.075   7.297
 5051TIP3    H136712   6.852   4.013   7.226
 5051TIP3    H236713   0.066   4.115   7.276
 5052TIP3   OH236714   6.130   1.024   7.575
 5052TIP3    H136715   6.074   1.056   7.646
 5052TIP3    H236716   6.146   1.102   7.521
 5053TIP3   OH236717   6.447   6.164   1.978
 5053TIP3    H136718   6.454   6.259   1.976
 5053TIP3    H236719   6.387   6.146   2.051
 5054TIP3   OH236720   1.658   0.619   8.401
 5054TIP3    H136721   1.574   0.638   8.360
 5054TIP3    H236722   1.641   0.627   8.495
 5055TIP3   OH236723   0.619   1.968   7.161
 5055TIP3    H136724   0.580   1.951   7.075
 5055TIP3    H236725   0.544   1.968   7.221
 5056TIP3   OH236726   1.207   4.604   0.780
 5056TIP3    H136727   1.274   4.581   0.845
 5056TIP3    H236728   1.233   4.691   0.749
 5057TIP3   OH236729   3.396   2.759   1.789
 5057TIP3    H136730   3.388   2.665   1.804
 5057TIP3    H236731   3.400   2.798   1.876
 5058TIP3   OH236732   6.571   6.219   8.145
 5058TIP3    H136733   6.541   6.257   8.227
 5058TIP3    H236734   6.502   6.238   8.082
 5059TIP3   OH236735   3.855   6.692   1.181
 5059TIP3    H136736   3.809   6.690   1.265
 5059TIP3    H236737   3.864   6.600   1.157
 5060TIP3   OH236738   1.871   4.705   0.804
 5060TIP3    H136739   1.955   4.725   0.844
 5060TIP3    H236740   1.827   4.649   0.869
 5061TIP3   OH236741   0.681   2.393   0.531
 5061TIP3    H136742   0.606   2.447   0.557
 5061TIP3    H236743   0.757   2.440   0.562
 5062TIP3   OH236744   4.148   2.544   2.283
 5062TIP3    H136745   4.230   2.516   2.324
 5062TIP3    H236746   4.174   2.615   2.223
 5063TIP3   OH236747   3.061   3.941   8.133
 5063TIP3    H136748   3.118   3.990   8.074
 5063TIP3    H236749   2.972   3.971   8.112
 5064TIP3   OH236750   4.299   4.927   6.831
 5064TIP3    H136751   4.261   4.847   6.868
 5064TIP3    H236752   4.391   4.924   6.856
 5065TIP3   OH236753   5.509   1.782   1.882
 5065TIP3    H136754   5.531   1.779   1.975
 5065TIP3    H236755   5.510   1.691   1.854
 5066TIP3   OH236756   6.226   6.517   7.788
 5066TIP3    H136757   6.148   6.480   7.747
 5066TIP3    H236758   6.203   6.526   7.880
 5067TIP3   OH236759   2.879   6.356   8.444
 5067TIP3    H136760   2.852   6.383   8.532
 5067TIP3    H236761   2.924   6.433   8.408
 5068TIP3   OH236762   4.300   3.755   1.848
 5068TIP3    H136763   4.292   3.684   1.784
 5068TIP3    H236764   4.321   3.710   1.930
 5069TIP3   OH236765   0.217   2.084   1.525
 5069TIP3    H136766   0.211   2.111   1.617
 5069TIP3    H236767   0.166   2.003   1.520
 5070TIP3   OH236768   0.820   6.735   7.744
 5070TIP3    H136769   0.745   6.692   7.702
 5070TIP3    H236770   0.791   6.825   7.759
 5071TIP3   OH236771   0.454   5.255   2.169
 5071TIP3    H136772   0.365   5.228   2.147
 5071TIP3    H236773   0.445   5.310   2.247
 5072TIP3   OH236774   4.687   3.236   0.628
 5072TIP3    H136775   4.683   3.142   0.616
 5072TIP3    H236776   4.777   3.259   0.604
 5073TIP3   OH236777   4.979   2.287   1.748
 5073TIP3    H136778   5.050   2.341   1.713
 5073TIP3    H236779   4.902   2.312   1.697
 5074TIP3   OH236780   6.650   0.002   1.307
 5074TIP3    H136781   6.633   6.854   1.394
 5074TIP3    H236782   6.576   0.060   1.290
 5075TIP3   OH236783   2.542   6.487   7.515
 5075TIP3    H136784   2.457   6.507   7.554
 5075TIP3    H236785   2.529   6.404   7.469
 5076TIP3   OH236786   6.426   4.536   6.624
 5076TIP3    H136787   6.416   4.592   6.546
 5076TIP3    H236788   6.382   4.584   6.694
 5077TIP3   OH236789   1.049   2.187   0.591
 5077TIP3    H136790   1.094   2.266   0.622
 5077TIP3    H236791   1.032   2.136   0.670
 5078TIP3   OH236792   1.573   0.453   1.915
 5078TIP3    H136793   1.565   0.358   1.921
 5078TIP3    H236794   1.619   0.479   1.994
 5079TIP3   OH236795   3.330   6.535   2.322
 5079TIP3    H136796   3.388   6.474   2.277
 5079TIP3    H236797   3.329   6.506   2.413
 5080TIP3   OH236798   2.176   0.256   0.296
 5080TIP3    H136799   2.175   0.161   0.308
 5080TIP3    H236800   2.238   0.271   0.224
 5081TIP3   OH236801   3.762   3.612   6.892
 5081TIP3    H136802   3.752   3.518   6.903
 5081TIP3    H236803   3.857   3.626   6.896
 5082TIP3   OH236804   1.782   2.048   1.189
 5082TIP3    H136805   1.842   2.117   1.219
 5082TIP3    H236806   1.702   2.062   1.239
 5083TIP3   OH236807   5.704   2.002   2.057
 5083TIP3    H136808   5.706   2.078   2.116
 5083TIP3    H236809   5.642   1.942   2.098
 5084TIP3   OH236810   6.466   4.611   7.533
 5084TIP3    H136811   6.536   4.655   7.581
 5084TIP3    H236812   6.501   4.524   7.515
 5085TIP3   OH236813   3.316   3.152   1.174
 5085TIP3    H136814   3.260   3.075   1.176
 5085TIP3    H236815   3.405   3.117   1.168
 5086TIP3   OH236816   6.109   2.432   7.560
 5086TIP3    H136817   6.163   2.508   7.582
 5086TIP3    H236818   6.060   2.459   7.483
 5087TIP3   OH236819   4.075   0.131   2.028
 5087TIP3    H136820   4.064   0.224   2.047
 5087TIP3    H236821   4.168   0.115   2.040
 5088TIP3   OH236822   5.671   2.172   2.251
 5088TIP3    H136823   5.713   2.257   2.262
 5088TIP3    H236824   5.581   2.185   2.282
 5089TIP3   OH236825   3.504   2.397   8.386
 5089TIP3    H136826   3.501   2.470   8.324
 5089TIP3    H236827   3.590   2.358   8.373
 5090TIP3   OH236828   6.412   0.571   8.220
 5090TIP3    H136829   6.346   0.508   8.249
 5090TIP3    H236830   6.407   0.642   8.285
 5091TIP3   OH236831   6.682   6.022   7.376
 5091TIP3    H136832   6.756   6.025   7.314
 5091TIP3    H236833   6.659   5.930   7.382
 5092TIP3   OH236834   0.349   1.571   7.191
 5092TIP3    H136835   0.306   1.639   7.242
 5092TIP3    H236836   0.354   1.606   7.102
 5093TIP3   OH236837   3.977   0.584   7.974
 5093TIP3    H136838   3.900   0.619   8.018
 5093TIP3    H236839   3.953   0.585   7.881
 5094TIP3   OH236840   6.396   1.771   1.557
 5094TIP3    H136841   6.486   1.787   1.527
 5094TIP3    H236842   6.364   1.701   1.500
 5095TIP3   OH236843   2.419   3.926   1.447
 5095TIP3    H136844   2.387   3.846   1.488
 5095TIP3    H236845   2.514   3.920   1.453
 5096TIP3   OH236846   2.236   0.113   1.755
 5096TIP3    H136847   2.170   0.177   1.783
 5096TIP3    H236848   2.270   0.148   1.673
 5097TIP3   OH236849   0.319   4.783   2.507
 5097TIP3    H136850   0.397   4.732   2.525
 5097TIP3    H236851   0.281   4.742   2.429
 5098TIP3   OH236852   3.975   3.638   0.724
 5098TIP3    H136853   4.043   3.621   0.790
 5098TIP3    H236854   3.904   3.679   0.774
 5099TIP3   OH236855   2.037   0.872   7.503
 5099TIP3    H136856   2.011   0.907   7.588
 5099TIP3    H236857   2.045   0.777   7.517
 5100TIP3   OH236858   5.799   1.139   1.995
 5100TIP3    H136859   5.888   1.106   2.009
 5100TIP3    H236860   5.804   1.232   2.014
 5101TIP3   OH236861   4.159   0.493   7.043
 5101TIP3    H136862   4.138   0.481   6.950
 5101TIP3    H236863   4.212   0.573   7.045
 5102TIP3   OH236864   5.032   6.319   2.021
 5102TIP3    H136865   5.107   6.266   1.993
 5102TIP3    H236866   5.070   6.387   2.077
 5103TIP3   OH236867   4.819   1.668   7.073
 5103TIP3    H136868   4.864   1.746   7.042
 5103TIP3    H236869   4.790   1.623   6.994
 5104TIP3   OH236870   4.078   6.479   8.495
 5104TIP3    H136871   4.167   6.500   8.466
 5104TIP3    H236872   4.066   6.388   8.469
 5105TIP3   OH236873   3.988   5.873   1.523
 5105TIP3    H136874   3.914   5.921   1.485
 5105TIP3    H236875   3.979   5.784   1.487
 5106TIP3   OH236876   0.499   1.230   0.040
 5106TIP3    H136877   0.551   1.207   0.117
 5106TIP3    H236878   0.541   1.185   8.582
 5107TIP3   OH236879   5.467   5.256   6.146
 5107TIP3    H136880   5.504   5.337   6.110
 5107TIP3    H236881   5.397   5.285   6.204
 5108TIP3   OH236882   6.092   1.561   0.814
 5108TIP3    H136883   6.051   1.484   0.853
 5108TIP3    H236884   6.073   1.632   0.875
 5109TIP3   OH236885   4.220   1.181   8.133
 5109TIP3    H136886   4.185   1.101   8.094
 5109TIP3    H236887   4.252   1.155   8.218
 5110TIP3   OH236888   1.656   5.340   7.994
 5110TIP3    H136889   1.690   5.428   7.977
 5110TIP3    H236890   1.729   5.294   8.035
 5111TIP3   OH236891   5.233   3.034   7.412
 5111TIP3    H136892   5.318   3.064   7.445
 5111TIP3    H236893   5.227   3.073   7.324
 5112TIP3   OH236894   1.958   3.061   7.358
 5112TIP3    H136895   2.052   3.075   7.357
 5112TIP3    H236896   1.923   3.129   7.301
 5113TIP3   OH236897   3.492   0.510   8.601
 5113TIP3    H136898   3.413   0.559   8.577
 5113TIP3    H236899   3.561   0.576   8.606
 5114TIP3   OH236900   1.784   0.658   7.656
 5114TIP3    H136901   1.727   0.590   7.692
 5114TIP3    H236902   1.871   0.618   7.656
 5115TIP3   OH236903   6.520   4.530   8.594
 5115TIP3    H136904   6.461   4.500   8.525
 5115TIP3    H236905   6.607   4.505   8.563
 5116TIP3   OH236906   1.662   4.348   6.937
 5116TIP3    H136907   1.751   4.378   6.923
 5116TIP3    H236908   1.619   4.358   6.851
 5117TIP3   OH236909   5.403   2.283   1.666
 5117TIP3    H136910   5.373   2.209   1.613
 5117TIP3    H236911   5.342   2.354   1.646
 5118TIP3   OH236912   4.275   6.717   2.475
 5118TIP3    H136913   4.243   6.757   2.395
 5118TIP3    H236914   4.232   6.631   2.478
 5119TIP3   OH236915   3.358   1.644   7.832
 5119TIP3    H136916   3.392   1.637   7.922
 5119TIP3    H236917   3.283   1.702   7.840
 5120TIP3   OH236918   6.656   0.478   8.118
 5120TIP3    H136919   6.612   0.411   8.066
 5120TIP3    H236920   6.591   0.547   8.130
 5121TIP3   OH236921   1.966   6.018   0.549
 5121TIP3    H136922   2.027   6.011   0.475
 5121TIP3    H236923   2.016   6.064   0.617
 5122TIP3   OH236924   4.144   6.152   6.771
 5122TIP3    H136925   4.093   6.083   6.728
 5122TIP3    H236926   4.119   6.232   6.726
 5123TIP3   OH236927   6.799   3.668   7.006
 5123TIP3    H136928   6.711   3.633   6.991
 5123TIP3    H236929   6.853   3.591   7.021
 5124TIP3   OH236930   1.484   0.614   7.723
 5124TIP3    H136931   1.484   0.574   7.810
 5124TIP3    H236932   1.492   0.708   7.740
 5125TIP3   OH236933   2.452   3.124   8.147
 5125TIP3    H136934   2.494   3.174   8.216
 5125TIP3    H236935   2.391   3.185   8.106
 5126TIP3   OH236936   6.225   3.890   1.987
 5126TIP3    H136937   6.153   3.905   2.048
 5126TIP3    H236938   6.300   3.935   2.026
 5127TIP3   OH236939   6.490   1.743   1.050
 5127TIP3    H136940   6.423   1.738   0.982
 5127TIP3    H236941   6.562   1.689   1.018
 5128TIP3   OH236942   2.744   0.753   8.164
 5128TIP3    H136943   2.731   0.784   8.254
 5128TIP3    H236944   2.723   0.660   8.168
 5129TIP3   OH236945   1.032   1.913   1.566
 5129TIP3    H136946   0.957   1.881   1.615
 5129TIP3    H236947   1.055   1.996   1.608
 5130TIP3   OH236948   5.655   4.234   6.851
 5130TIP3    H136949   5.581   4.293   6.857
 5130TIP3    H236950   5.616   4.147   6.841
 5131TIP3   OH236951   1.414   0.189   7.122
 5131TIP3    H136952   1.506   0.162   7.124
 5131TIP3    H236953   1.383   0.174   7.211
 5132TIP3   OH236954   1.975   0.572   8.547
 5132TIP3    H136955   1.937   0.498   8.501
 5132TIP3    H236956   1.956   0.555   0.025
 5133TIP3   OH236957   6.576   1.445   8.532
 5133TIP3    H136958   6.528   1.521   8.564
 5133TIP3    H236959   6.658   1.481   8.497
 5134TIP3   OH236960   6.683   5.890   2.000
 5134TIP3    H136961   6.623   5.816   1.998
 5134TIP3    H236962   6.684   5.923   1.911
 5135TIP3   OH236963   6.150   4.349   1.169
 5135TIP3    H136964   6.056   4.367   1.161
 5135TIP3    H236965   6.154   4.256   1.193
 5136TIP3   OH236966   2.135   6.028   8.273
 5136TIP3    H136967   2.048   6.000   8.244
 5136TIP3    H236968   2.191   5.953   8.255
 5137TIP3   OH236969   5.582   3.573   0.951
 5137TIP3    H136970   5.598   3.651   0.897
 5137TIP3    H236971   5.613   3.500   0.898
 5138TIP3   OH236972   3.734   5.576   7.332
 5138TIP3    H136973   3.680   5.586   7.410
 5138TIP3    H236974   3.676   5.598   7.259
 5139TIP3   OH236975   3.269   1.660   7.457
 5139TIP3    H136976   3.330   1.597   7.418
 5139TIP3    H236977   3.227   1.613   7.528
 5140TIP3   OH236978   6.045   5.694   8.357
 5140TIP3    H136979   6.030   5.788   8.366
 5140TIP3    H236980   6.140   5.685   8.350
 5141TIP3   OH236981   6.370   6.811   1.751
 5141TIP3    H136982   6.347   6.722   1.778
 5141TIP3    H236983   6.459   6.823   1.785
 5142TIP3   OH236984   1.546   3.699   2.052
 5142TIP3    H136985   1.639   3.686   2.033
 5142TIP3    H236986   1.521   3.622   2.103
 5143TIP3   OH236987   2.734   0.610   6.299
 5143TIP3    H136988   2.738   0.514   6.304
 5143TIP3    H236989   2.646   0.629   6.267
 5144TIP3   OH236990   1.699   2.502   8.478
 5144TIP3    H136991   1.700   2.532   8.569
 5144TIP3    H236992   1.724   2.580   8.427
 5145TIP3   OH236993   4.288   2.251   8.028
 5145TIP3    H136994   4.305   2.264   8.121
 5145TIP3    H236995   4.197   2.278   8.016
 5146TIP3   OH236996   0.285   2.817   7.274
 5146TIP3    H136997   0.365   2.773   7.246
 5146TIP3    H236998   0.258   2.869   7.198
 5147TIP3   OH236999   5.404   0.041   0.909
 5147TIP3    H137000   5.471   0.015   0.972
 5147TIP3    H237001   5.327   6.876   0.932
 5148TIP3   OH237002   6.870   3.384   7.029
 5148TIP3    H137003   0.045   3.372   7.101
 5148TIP3    H237004   6.845   3.295   7.004
 5149TIP3   OH237005   2.476   6.684   8.022
 5149TIP3    H137006   2.553   6.683   7.965
 5149TIP3    H237007   2.455   6.591   8.036
 5150TIP3   OH237008   3.266   5.994   1.171
 5150TIP3    H137009   3.204   6.021   1.239
 5150TIP3    H237010   3.349   6.032   1.199
 5151TIP3   OH237011   1.875   5.942   7.385
 5151TIP3    H137012   1.811   5.873   7.399
 5151TIP3    H237013   1.898   5.973   7.473
 5152TIP3   OH237014   2.784   1.528   1.526
 5152TIP3    H137015   2.859   1.509   1.581
 5152TIP3    H237016   2.794   1.620   1.501
 5153TIP3   OH237017   3.340   3.160   7.387
 5153TIP3    H137018   3.276   3.177   7.317
 5153TIP3    H237019   3.380   3.076   7.362
 5154TIP3   OH237020   1.967   1.927   1.704
 5154TIP3    H137021   1.873   1.942   1.715
 5154TIP3    H237022   1.989   1.976   1.625
 5155TIP3   OH237023   2.207   4.275   8.285
 5155TIP3    H137024   2.115   4.259   8.268
 5155TIP3    H237025   2.208   4.352   8.342
 5156TIP3   OH237026   4.399   4.095   7.211
 5156TIP3    H137027   4.355   4.012   7.233
 5156TIP3    H237028   4.357   4.124   7.131
 5157TIP3   OH237029   1.768   2.393   7.279
 5157TIP3    H137030   1.779   2.376   7.185
 5157TIP3    H237031   1.808   2.317   7.322
 5158TIP3   OH237032   0.177   2.589   7.924
 5158TIP3    H137033   0.193   2.499   7.952
 5158TIP3    H237034   0.257   2.636   7.945
 5159TIP3   OH237035   4.412   1.190   0.948
 5159TIP3    H137036   4.485   1.207   1.007
 5159TIP3    H237037   4.362   1.120   0.991
 5160TIP3   OH237038   1.045   3.757   7.277
 5160TIP3    H137039   1.102   3.719   7.344
 5160TIP3    H237040   1.079   3.722   7.194
 5161TIP3   OH237041   3.434   0.436   8.131
 5161TIP3    H137042   3.413   0.428   8.224
 5161TIP3    H237043   3.353   0.414   8.085
 5162TIP3   OH237044   6.012   6.267   0.159
 5162TIP3    H137045   5.940   6.302   0.107
 5162TIP3    H237046   6.061   6.344   0.187
 5163TIP3   OH237047   0.148   1.423   6.961
 5163TIP3    H137048   0.221   1.465   6.915
 5163TIP3    H237049   0.104   1.494   7.007
 5164TIP3   OH237050   5.344   2.393   0.355
 5164TIP3    H137051   5.436   2.393   0.384
 5164TIP3    H237052   5.299   2.339   0.420
 5165TIP3   OH237053   2.031   2.832   0.405
 5165TIP3    H137054   2.115   2.874   0.424
 5165TIP3    H237055   2.023   2.765   0.472
 5166TIP3   OH237056   2.985   4.281   0.733
 5166TIP3    H137057   3.049   4.258   0.666
 5166TIP3    H237058   2.965   4.198   0.777
 5167TIP3   OH237059   3.352   4.276   8.341
 5167TIP3    H137060   3.283   4.252   8.279
 5167TIP3    H237061   3.309   4.277   8.426
 5168TIP3   OH237062   6.668   3.389   8.091
 5168TIP3    H137063   6.668   3.460   8.027
 5168TIP3    H237064   6.599   3.413   8.154
 5169TIP3   OH237065   5.267   0.542   1.521
 5169TIP3    H137066   5.327   0.467   1.520
 5169TIP3    H237067   5.302   0.601   1.454
 5170TIP3   OH237068   0.698   2.138   6.780
 5170TIP3    H137069   0.782   2.119   6.738
 5170TIP3    H237070   0.662   2.052   6.801
 5171TIP3   OH237071   4.927   2.038   7.784
 5171TIP3    H137072   4.912   2.132   7.782
 5171TIP3    H237073   4.974   2.019   7.703
 5172TIP3   OH237074   4.670   2.131   7.550
 5172TIP3    H137075   4.584   2.116   7.590
 5172TIP3    H237076   4.697   2.217   7.582
 5173TIP3   OH237077   6.180   1.081   7.069
 5173TIP3    H137078   6.171   0.992   7.034
 5173TIP3    H237079   6.252   1.120   7.019
 5174TIP3   OH237080   2.444   6.852   2.296
 5174TIP3    H137081   2.523   6.843   2.350
 5174TIP3    H237082   2.455   6.787   2.227
 5175TIP3   OH237083   5.964   5.456   2.655
 5175TIP3    H137084   5.982   5.374   2.702
 5175TIP3    H237085   5.874   5.478   2.680
 5176TIP3   OH237086   6.142   2.265   7.244
 5176TIP3    H137087   6.124   2.206   7.170
 5176TIP3    H237088   6.101   2.348   7.219
 5177TIP3   OH237089   3.799   2.481   0.913
 5177TIP3    H137090   3.733   2.445   0.973
 5177TIP3    H237091   3.749   2.501   0.834
 5178TIP3   OH237092   2.692   2.696   8.509
 5178TIP3    H137093   2.707   2.646   8.589
 5178TIP3    H237094   2.756   2.660   8.447
 5179TIP3   OH237095   6.344   6.129   7.137
 5179TIP3    H137096   6.359   6.076   7.216
 5179TIP3    H237097   6.310   6.212   7.170
 5180TIP3   OH237098   3.962   4.421   8.219
 5180TIP3    H137099   3.919   4.337   8.206
 5180TIP3    H237100   4.054   4.406   8.198
 5181TIP3   OH237101   1.793   6.570   6.270
 5181TIP3    H137102   1.844   6.650   6.276
 5181TIP3    H237103   1.750   6.562   6.355
 5182TIP3   OH237104   6.400   0.020   7.823
 5182TIP3    H137105   6.343   6.843   7.780
 5182TIP3    H237106   6.340   0.078   7.870
 5183TIP3   OH237107   3.465   1.704   8.602
 5183TIP3    H137108   3.378   1.743   8.593
 5183TIP3    H237109   3.522   1.777   0.012
 5184TIP3   OH237110   5.942   0.533   0.301
 5184TIP3    H137111   5.994   0.469   0.253
 5184TIP3    H237112   5.906   0.483   0.375
 5185TIP3   OH237113   6.751   1.273   8.066
 5185TIP3    H137114   6.786   1.307   7.984
 5185TIP3    H237115   6.794   1.326   8.134
 5186TIP3   OH237116   3.731   3.843   8.404
 5186TIP3    H137117   3.656   3.879   8.452
 5186TIP3    H237118   3.709   3.750   8.391
 5187TIP3   OH237119   1.732   2.397   2.079
 5187TIP3    H137120   1.765   2.449   2.152
 5187TIP3    H237121   1.653   2.355   2.114
 5188TIP3   OH237122   4.632   0.776   8.419
 5188TIP3    H137123   4.615   0.789   8.326
 5188TIP3    H237124   4.576   0.839   8.464
 5189TIP3   OH237125   0.128   0.003   8.142
 5189TIP3    H137126   0.158   6.802   8.119
 5189TIP3    H237127   0.109   6.885   8.236
 5190TIP3   OH237128   1.298   4.382   1.749
 5190TIP3    H137129   1.271   4.318   1.815
 5190TIP3    H237130   1.308   4.330   1.669
 5191TIP3   OH237131   0.805   0.145   0.811
 5191TIP3    H137132   0.738   0.087   0.775
 5191TIP3    H237133   0.794   0.227   0.762
 5192TIP3   OH237134   1.352   4.469   6.555
 5192TIP3    H137135   1.341   4.448   6.648
 5192TIP3    H237136   1.310   4.396   6.509
 5193TIP3   OH237137   4.150   2.044   0.530
 5193TIP3    H137138   4.075   2.088   0.490
 5193TIP3    H237139   4.142   2.064   0.623
 5194TIP3   OH237140   3.151   3.642   6.385
 5194TIP3    H137141   3.204   3.567   6.413
 5194TIP3    H237142   3.178   3.713   6.442
 5195TIP3   OH237143   4.268   5.750   7.241
 5195TIP3    H137144   4.345   5.775   7.189
 5195TIP3    H237145   4.215   5.830   7.243
 5196TIP3   OH237146   6.588   2.894   8.056
 5196TIP3    H137147   6.528   2.954   8.100
 5196TIP3    H237148   6.669   2.899   8.107
 5197TIP3   OH237149   1.939   2.309   0.726
 5197TIP3    H137150   1.937   2.389   0.674
 5197TIP3    H237151   2.005   2.254   0.683
 5198TIP3   OH237152   1.730   3.017   1.102
 5198TIP3    H137153   1.654   3.015   1.159
 5198TIP3    H237154   1.793   3.071   1.149
 5199TIP3   OH237155   4.248   0.513   6.719
 5199TIP3    H137156   4.269   0.580   6.784
 5199TIP3    H237157   4.307   0.440   6.739
 5200TIP3   OH237158   3.234   0.312   0.452
 5200TIP3    H137159   3.192   0.228   0.471
 5200TIP3    H237160   3.162   0.369   0.425
 5201TIP3   OH237161   5.305   0.314   0.229
 5201TIP3    H137162   5.381   0.292   0.283
 5201TIP3    H237163   5.286   0.405   0.251
 5202TIP3   OH237164   6.439   3.673   7.159
 5202TIP3    H137165   6.449   3.609   7.088
 5202TIP3    H237166   6.497   3.642   7.228
 5203TIP3   OH237167   6.263   0.259   7.931
 5203TIP3    H137168   6.194   0.322   7.909
 5203TIP3    H237169   6.216   0.182   7.962
 5204TIP3   OH237170   2.625   2.072   8.587
 5204TIP3    H137171   2.593   1.991   8.547
 5204TIP3    H237172   2.666   2.120   8.515
 5205TIP3   OH237173   5.518   3.368   1.843
 5205TIP3    H137174   5.590   3.406   1.792
 5205TIP3    H237175   5.516   3.419   1.924
 5206TIP3   OH237176   3.549   1.247   0.281
 5206TIP3    H137177   3.530   1.334   0.247
 5206TIP3    H237178   3.643   1.248   0.300
 5207TIP3   OH237179   2.186   6.085   6.785
 5207TIP3    H137180   2.096   6.099   6.814
 5207TIP3    H237181   2.179   6.074   6.690
 5208TIP3   OH237182   2.226   2.093   8.093
 5208TIP3    H137183   2.136   2.125   8.097
 5208TIP3    H237184   2.272   2.158   8.040
 5209TIP3   OH237185   5.003   6.226   8.260
 5209TIP3    H137186   4.935   6.283   8.295
 5209TIP3    H237187   5.075   6.232   8.324
 5210TIP3   OH237188   6.445   6.549   8.076
 5210TIP3    H137189   6.490   6.594   8.004
 5210TIP3    H237190   6.436   6.459   8.045
 5211TIP3   OH237191   1.404   1.093   1.351
 5211TIP3    H137192   1.433   1.021   1.294
 5211TIP3    H237193   1.320   1.120   1.315
 5212TIP3   OH237194   4.010   6.539   1.476
 5212TIP3    H137195   4.092   6.516   1.432
 5212TIP3    H237196   3.957   6.460   1.471
 5213TIP3   OH237197   6.114   1.018   1.007
 5213TIP3    H137198   6.065   0.945   0.969
 5213TIP3    H237199   6.192   1.026   0.951
 5214TIP3   OH237200   5.708   6.530   0.159
 5214TIP3    H137201   5.723   6.541   0.253
 5214TIP3    H237202   5.614   6.514   0.152
 5215TIP3   OH237203   0.649   0.182   1.049
 5215TIP3    H137204   0.707   0.171   0.974
 5215TIP3    H237205   0.692   0.133   1.119
 5216TIP3   OH237206   4.195   1.057   7.551
 5216TIP3    H137207   4.274   1.091   7.593
 5216TIP3    H237208   4.193   0.965   7.576
 5217TIP3   OH237209   1.691   0.425   7.781
 5217TIP3    H137210   1.649   0.363   7.841
 5217TIP3    H237211   1.724   0.370   7.710
 5218TIP3   OH237212   2.663   0.061   7.636
 5218TIP3    H137213   2.749   0.022   7.652
 5218TIP3    H237214   2.604   6.873   7.625
 5219TIP3   OH237215   6.221   4.273   7.383
 5219TIP3    H137216   6.305   4.228   7.395
 5219TIP3    H237217   6.158   4.220   7.432
 5220TIP3   OH237218   3.761   1.654   0.316
 5220TIP3    H137219   3.711   1.574   0.300
 5220TIP3    H237220   3.704   1.725   0.286
 5221TIP3   OH237221   2.076   1.893   7.301
 5221TIP3    H137222   2.056   1.846   7.382
 5221TIP3    H237223   2.170   1.881   7.288
 5222TIP3   OH237224   5.853   3.625   1.425
 5222TIP3    H137225   5.893   3.578   1.352
 5222TIP3    H237226   5.791   3.685   1.383
 5223TIP3   OH237227   2.152   5.679   1.421
 5223TIP3    H137228   2.167   5.679   1.327
 5223TIP3    H237229   2.216   5.617   1.456
 5224TIP3   OH237230   2.026   0.055   7.040
 5224TIP3    H137231   1.954   0.114   7.017
 5224TIP3    H237232   2.047   0.009   6.958
 5225TIP3   OH237233   2.369   2.689   1.919
 5225TIP3    H137234   2.394   2.597   1.928
 5225TIP3    H237235   2.330   2.712   2.004
 5226TIP3   OH237236   1.687   6.247   7.931
 5226TIP3    H137237   1.684   6.326   7.986
 5226TIP3    H237238   1.759   6.263   7.870
 5227TIP3   OH237239   4.130   4.287   7.856
 5227TIP3    H137240   4.084   4.262   7.937
 5227TIP3    H237241   4.158   4.204   7.818
 5228TIP3   OH237242   6.419   3.586   0.647
 5228TIP3    H137243   6.406   3.518   0.582
 5228TIP3    H237244   6.484   3.550   0.707
 5229TIP3   OH237245   3.880   1.650   2.499
 5229TIP3    H137246   3.797   1.697   2.484
 5229TIP3    H237247   3.944   1.719   2.515
 5230TIP3   OH237248   2.031   6.314   6.591
 5230TIP3    H137249   2.013   6.405   6.615
 5230TIP3    H237250   2.023   6.312   6.496
 5231TIP3   OH237251   2.157   1.559   7.424
 5231TIP3    H137252   2.196   1.507   7.494
 5231TIP3    H237253   2.078   1.510   7.399
 5232TIP3   OH237254   5.224   2.193   7.767
 5232TIP3    H137255   5.159   2.125   7.789
 5232TIP3    H237256   5.199   2.267   7.822
 5233TIP3   OH237257   4.958   1.166   6.627
 5233TIP3    H137258   5.032   1.122   6.669
 5233TIP3    H237259   4.882   1.112   6.650
 5234TIP3   OH237260   0.148   4.875   0.197
 5234TIP3    H137261   0.197   4.834   0.268
 5234TIP3    H237262   0.211   4.934   0.155
 5235TIP3   OH237263   1.208   2.520   0.087
 5235TIP3    H137264   1.124   2.564   0.074
 5235TIP3    H237265   1.223   2.522   0.181
 5236TIP3   OH237266   6.571   1.021   6.829
 5236TIP3    H137267   6.657   1.059   6.812
 5236TIP3    H237268   6.508   1.084   6.793
 5237TIP3   OH237269   1.646   3.970   0.217
 5237TIP3    H137270   1.712   3.909   0.249
 5237TIP3    H237271   1.563   3.925   0.229
 5238TIP3   OH237272   5.834   0.655   8.408
 5238TIP3    H137273   5.743   0.679   8.391
 5238TIP3    H237274   5.885   0.729   8.376
 5239TIP3   OH237275   1.030   2.333   6.889
 5239TIP3    H137276   1.053   2.283   6.967
 5239TIP3    H237277   0.942   2.366   6.906
 5240TIP3   OH237278   6.606   1.327   6.261
 5240TIP3    H137279   6.650   1.253   6.219
 5240TIP3    H237280   6.662   1.402   6.243
 5241TIP3   OH237281   1.812   2.447   1.829
 5241TIP3    H137282   1.793   2.453   1.923
 5241TIP3    H237283   1.850   2.532   1.807
 5242TIP3   OH237284   0.511   6.665   2.084
 5242TIP3    H137285   0.512   6.685   1.991
 5242TIP3    H237286   0.449   6.726   2.122
 5243TIP3   OH237287   3.180   5.579   6.950
 5243TIP3    H137288   3.133   5.525   6.886
 5243TIP3    H237289   3.268   5.542   6.952
 5244TIP3   OH237290   1.672   4.793   6.498
 5244TIP3    H137291   1.651   4.864   6.559
 5244TIP3    H237292   1.737   4.831   6.439
 5245TIP3   OH237293   3.666   5.473   0.063
 5245TIP3    H137294   3.586   5.522   0.082
 5245TIP3    H237295   3.642   5.418   8.602
 5246TIP3   OH237296   3.503   6.385   7.237
 5246TIP3    H137297   3.425   6.437   7.257
 5246TIP3    H237298   3.468   6.301   7.207
 5247TIP3   OH237299   5.700   4.822   0.899
 5247TIP3    H137300   5.705   4.807   0.805
 5247TIP3    H237301   5.678   4.914   0.908
 5248TIP3   OH237302   3.551   3.003   7.925
 5248TIP3    H137303   3.564   3.049   8.008
 5248TIP3    H237304   3.483   2.939   7.943
 5249TIP3   OH237305   3.094   3.070   6.857
 5249TIP3    H137306   3.099   3.140   6.791
 5249TIP3    H237307   3.181   3.030   6.856
 5250TIP3   OH237308   2.625   3.886   0.770
 5250TIP3    H137309   2.671   3.807   0.798
 5250TIP3    H237310   2.621   3.879   0.675
 5251TIP3   OH237311   2.213   6.102   1.977
 5251TIP3    H137312   2.183   6.190   2.000
 5251TIP3    H237313   2.285   6.084   2.037
 5252TIP3   OH237314   1.188   4.802   1.140
 5252TIP3    H137315   1.266   4.856   1.131
 5252TIP3    H237316   1.209   4.720   1.097
 5253TIP3   OH237317   4.386   0.393   1.656
 5253TIP3    H137318   4.412   0.463   1.596
 5253TIP3    H237319   4.469   0.353   1.683
 5254TIP3   OH237320   2.235   1.126   7.464
 5254TIP3    H137321   2.179   1.051   7.485
 5254TIP3    H237322   2.298   1.130   7.536
 5255TIP3   OH237323   1.346   0.202   8.087
 5255TIP3    H137324   1.294   0.128   8.058
 5255TIP3    H237325   1.381   0.175   8.172
 5256TIP3   OH237326   6.258   2.171   6.715
 5256TIP3    H137327   6.215   2.225   6.648
 5256TIP3    H237328   6.341   2.215   6.732
 5257TIP3   OH237329   1.800   5.590   7.929
 5257TIP3    H137330   1.888   5.593   7.966
 5257TIP3    H237331   1.769   5.680   7.933
 5258TIP3   OH237332   4.338   5.499   7.463
 5258TIP3    H137333   4.268   5.561   7.484
 5258TIP3    H237334   4.320   5.423   7.518
 5259TIP3   OH237335   1.497   3.572   7.720
 5259TIP3    H137336   1.455   3.518   7.787
 5259TIP3    H237337   1.544   3.510   7.665
 5260TIP3   OH237338   4.357   4.853   1.872
 5260TIP3    H137339   4.308   4.899   1.941
 5260TIP3    H237340   4.294   4.792   1.834
 5261TIP3   OH237341   4.146   5.234   6.439
 5261TIP3    H137342   4.143   5.317   6.390
 5261TIP3    H237343   4.130   5.260   6.530
 5262TIP3   OH237344   0.419   6.633   8.440
 5262TIP3    H137345   0.480   6.693   8.397
 5262TIP3    H237346   0.432   6.649   8.534
 5263TIP3   OH237347   6.072   4.213   1.788
 5263TIP3    H137348   6.028   4.292   1.756
 5263TIP3    H237349   6.003   4.161   1.829
 5264TIP3   OH237350   5.841   4.071   0.675
 5264TIP3    H137351   5.785   4.075   0.598
 5264TIP3    H237352   5.783   4.044   0.746
 5265TIP3   OH237353   5.259   2.546   2.605
 5265TIP3    H137354   5.202   2.470   2.620
 5265TIP3    H237355   5.302   2.527   2.522
 5266TIP3   OH237356   6.216   0.740   2.134
 5266TIP3    H137357   6.219   0.834   2.120
 5266TIP3    H237358   6.303   0.709   2.109
 5267TIP3   OH237359   5.625   0.504   1.173
 5267TIP3    H137360   5.630   0.596   1.146
 5267TIP3    H237361   5.698   0.494   1.235
 5268TIP3   OH237362   5.107   1.773   2.483
 5268TIP3    H137363   5.179   1.711   2.491
 5268TIP3    H237364   5.031   1.726   2.517
 5269TIP3   OH237365   3.395   4.989   0.194
 5269TIP3    H137366   3.457   5.046   0.240
 5269TIP3    H237367   3.320   5.046   0.175
 5270TIP3   OH237368   6.119   0.123   0.755
 5270TIP3    H137369   6.112   0.218   0.746
 5270TIP3    H237370   6.209   0.103   0.727
 5271TIP3   OH237371   6.572   4.107   6.173
 5271TIP3    H137372   6.608   4.178   6.226
 5271TIP3    H237373   6.646   4.050   6.154
 5272TIP3   OH237374   6.299   3.706   7.791
 5272TIP3    H137375   6.299   3.770   7.862
 5272TIP3    H237376   6.386   3.715   7.752
 5273TIP3   OH237377   2.970   6.824   8.609
 5273TIP3    H137378   2.878   6.815   0.019
 5273TIP3    H237379   2.968   6.867   8.523
 5274TIP3   OH237380   5.699   4.851   8.393
 5274TIP3    H137381   5.756   4.916   8.351
 5274TIP3    H237382   5.722   4.855   8.486
 5275TIP3   OH237383   1.054   1.179   8.104
 5275TIP3    H137384   1.117   1.141   8.166
 5275TIP3    H237385   1.049   1.271   8.129
 5276TIP3   OH237386   1.310   0.412   2.661
 5276TIP3    H137387   1.365   0.398   2.584
 5276TIP3    H237388   1.306   0.326   2.704
 5277TIP3   OH237389   4.828   5.389   1.025
 5277TIP3    H137390   4.893   5.385   0.955
 5277TIP3    H237391   4.825   5.300   1.060
 5278TIP3   OH237392   0.695   6.489   8.384
 5278TIP3    H137393   0.657   6.576   8.371
 5278TIP3    H237394   0.772   6.488   8.327
 5279TIP3   OH237395   1.230   4.889   8.350
 5279TIP3    H137396   1.243   4.794   8.348
 5279TIP3    H237397   1.299   4.921   8.408
 5280TIP3   OH237398   5.564   1.380   1.861
 5280TIP3    H137399   5.557   1.291   1.895
 5280TIP3    H237400   5.476   1.402   1.832
 5281TIP3   OH237401   6.667   5.702   1.681
 5281TIP3    H137402   6.671   5.794   1.707
 5281TIP3    H237403   6.609   5.661   1.746
 5282TIP3   OH237404   3.098   1.878   7.115
 5282TIP3    H137405   3.139   1.835   7.041
 5282TIP3    H237406   3.168   1.889   7.179
 5283TIP3   OH237407   4.943   5.270   2.120
 5283TIP3    H137408   4.896   5.352   2.105
 5283TIP3    H237409   4.876   5.209   2.151
 5284TIP3   OH237410   6.054   2.156   6.998
 5284TIP3    H137411   6.075   2.089   6.933
 5284TIP3    H237412   5.974   2.198   6.964
 5285TIP3   OH237413   2.620   6.017   0.321
 5285TIP3    H137414   2.698   6.046   0.368
 5285TIP3    H237415   2.614   5.923   0.339
 5286TIP3   OH237416   6.362   2.062   1.980
 5286TIP3    H137417   6.419   1.985   1.971
 5286TIP3    H237418   6.295   2.051   1.913
 5287TIP3   OH237419   3.190   6.637   8.612
 5287TIP3    H137420   3.129   6.701   8.575
 5287TIP3    H237421   3.189   6.564   8.550
 5288TIP3   OH237422   0.137   1.904   7.071
 5288TIP3    H137423   0.147   1.842   7.143
 5288TIP3    H237424   0.062   1.958   7.096
 5289TIP3   OH237425   4.071   3.141   7.505
 5289TIP3    H137426   4.052   3.233   7.522
 5289TIP3    H237427   4.017   3.119   7.428
 5290TIP3   OH237428   3.391   2.180   1.072
 5290TIP3    H137429   3.350   2.187   0.986
 5290TIP3    H237430   3.413   2.088   1.081
 5291TIP3   OH237431   2.523   4.306   0.597
 5291TIP3    H137432   2.439   4.271   0.568
 5291TIP3    H237433   2.507   4.338   0.685
 5292TIP3   OH237434   2.226   4.719   6.398
 5292TIP3    H137435   2.204   4.772   6.474
 5292TIP3    H237436   2.198   4.631   6.422
 5293TIP3   OH237437   3.823   1.229   1.881
 5293TIP3    H137438   3.872   1.225   1.799
 5293TIP3    H237439   3.742   1.276   1.858
 5294TIP3   OH237440   2.668   2.912   2.133
 5294TIP3    H137441   2.758   2.879   2.132
 5294TIP3    H237442   2.635   2.887   2.219
 5295TIP3   OH237443   4.599   0.031   7.284
 5295TIP3    H137444   4.598   0.112   7.334
 5295TIP3    H237445   4.681   0.033   7.235
 5296TIP3   OH237446   2.756   5.603   7.576
 5296TIP3    H137447   2.787   5.515   7.597
 5296TIP3    H237448   2.670   5.588   7.537
 5297TIP3   OH237449   3.165   5.103   0.166
 5297TIP3    H137450   3.082   5.064   0.140
 5297TIP3    H237451   3.181   5.171   0.101
 5298TIP3   OH237452   5.871   4.675   8.136
 5298TIP3    H137453   5.821   4.733   8.194
 5298TIP3    H237454   5.949   4.652   8.187
 5299TIP3   OH237455   0.787   4.204   7.476
 5299TIP3    H137456   0.812   4.286   7.518
 5299TIP3    H237457   0.773   4.227   7.384
 5300TIP3   OH237458   5.708   0.168   6.159
 5300TIP3    H137459   5.710   0.127   6.073
 5300TIP3    H237460   5.707   0.095   6.221
 5301TIP3   OH237461   0.868   4.661   8.413
 5301TIP3    H137462   0.875   4.697   8.325
 5301TIP3    H237463   0.836   4.571   8.400
 5302TIP3   OH237464   3.735   3.340   8.179
 5302TIP3    H137465   3.701   3.263   8.135
 5302TIP3    H237466   3.764   3.309   8.264
 5303TIP3   OH237467   3.304   6.826   0.575
 5303TIP3    H137468   3.388   6.822   0.621
 5303TIP3    H237469   3.284   6.735   0.552
 5304TIP3   OH237470   5.100   3.751   0.223
 5304TIP3    H137471   5.183   3.751   0.270
 5304TIP3    H237472   5.043   3.695   0.276
 5305TIP3   OH237473   4.041   3.073   1.066
 5305TIP3    H137474   4.078   2.985   1.077
 5305TIP3    H237475   4.106   3.131   1.107
 5306TIP3   OH237476   5.137   2.566   0.574
 5306TIP3    H137477   5.064   2.582   0.514
 5306TIP3    H237478   5.201   2.634   0.553
 5307TIP3   OH237479   5.506   4.130   0.244
 5307TIP3    H137480   5.568   4.068   0.206
 5307TIP3    H237481   5.486   4.191   0.172
 5308TIP3   OH237482   3.098   0.697   8.347
 5308TIP3    H137483   3.148   0.775   8.322
 5308TIP3    H237484   3.009   0.715   8.315
 5309TIP3   OH237485   1.346   5.261   1.471
 5309TIP3    H137486   1.350   5.352   1.501
 5309TIP3    H237487   1.430   5.224   1.498
 5310TIP3   OH237488   2.356   4.030   7.285
 5310TIP3    H137489   2.357   4.086   7.363
 5310TIP3    H237490   2.368   4.090   7.212
 5311TIP3   OH237491   5.525   4.712   1.494
 5311TIP3    H137492   5.458   4.653   1.460
 5311TIP3    H237493   5.550   4.767   1.419
 5312TIP3   OH237494   4.432   6.104   2.214
 5312TIP3    H137495   4.382   6.032   2.175
 5312TIP3    H237496   4.511   6.062   2.249
 5313TIP3   OH237497   3.073   0.766   7.898
 5313TIP3    H137498   3.018   0.838   7.929
 5313TIP3    H237499   3.065   0.769   7.803
 5314TIP3   OH237500   4.522   3.886   0.810
 5314TIP3    H137501   4.617   3.879   0.805
 5314TIP3    H237502   4.497   3.928   0.728
 5315TIP3   OH237503   3.412   4.990   7.923
 5315TIP3    H137504   3.500   4.959   7.904
 5315TIP3    H237505   3.424   5.065   7.981
 5316TIP3   OH237506   6.160   5.285   8.452
 5316TIP3    H137507   6.200   5.240   8.378
 5316TIP3    H237508   6.234   5.326   8.497
 5317TIP3   OH237509   2.987   4.956   8.070
 5317TIP3    H137510   3.066   4.996   8.107
 5317TIP3    H237511   2.934   4.933   8.147
 5318TIP3   OH237512   5.409   4.390   2.019
 5318TIP3    H137513   5.495   4.406   1.982
 5318TIP3    H237514   5.399   4.295   2.017
 5319TIP3   OH237515   0.138   3.292   2.565
 5319TIP3    H137516   0.220   3.283   2.612
 5319TIP3    H237517   0.146   3.375   2.518
 5320TIP3   OH237518   4.804   5.637   7.240
 5320TIP3    H137519   4.864   5.574   7.279
 5320TIP3    H237520   4.804   5.617   7.147
 5321TIP3   OH237521   5.513   3.471   8.228
 5321TIP3    H137522   5.438   3.419   8.259
 5321TIP3    H237523   5.476   3.556   8.206
 5322TIP3   OH237524   2.239   4.529   0.311
 5322TIP3    H137525   2.182   4.587   0.362
 5322TIP3    H237526   2.324   4.536   0.354
 5323TIP3   OH237527   2.469   4.859   8.495
 5323TIP3    H137528   2.412   4.853   8.419
 5323TIP3    H237529   2.485   4.768   8.521
 5324TIP3   OH237530   0.165   1.188   6.225
 5324TIP3    H137531   0.144   1.099   6.197
 5324TIP3    H237532   0.223   1.221   6.156
 5325TIP3   OH237533   6.069   3.273   1.082
 5325TIP3    H137534   5.998   3.217   1.050
 5325TIP3    H237535   6.111   3.306   1.003
 5326TIP3   OH237536   1.346   1.582   1.770
 5326TIP3    H137537   1.281   1.513   1.782
 5326TIP3    H237538   1.407   1.570   1.842
 5327TIP3   OH237539   2.539   5.922   6.453
 5327TIP3    H137540   2.445   5.914   6.441
 5327TIP3    H237541   2.557   6.016   6.446
 5328TIP3   OH237542   3.252   0.045   6.091
 5328TIP3    H137543   3.180   0.107   6.099
 5328TIP3    H237544   3.326   0.089   6.132
 5329TIP3   OH237545   3.697   6.538   0.796
 5329TIP3    H137546   3.755   6.498   0.860
 5329TIP3    H237547   3.644   6.465   0.764
 5330TIP3   OH237548   2.243   6.012   6.472
 5330TIP3    H137549   2.300   6.059   6.411
 5330TIP3    H237550   2.155   6.021   6.436
 5331TIP3   OH237551   0.273   2.519   8.421
 5331TIP3    H137552   0.362   2.497   8.446
 5331TIP3    H237553   0.230   2.435   8.405
 5332TIP3   OH237554   0.343   6.468   0.685
 5332TIP3    H137555   0.322   6.455   0.592
 5332TIP3    H237556   0.258   6.474   0.728
 5333TIP3   OH237557   1.069   5.735   7.447
 5333TIP3    H137558   1.025   5.748   7.532
 5333TIP3    H237559   1.046   5.646   7.422
 5334TIP3   OH237560   1.694   5.996   1.645
 5334TIP3    H137561   1.764   5.947   1.687
 5334TIP3    H237562   1.720   6.088   1.655
 5335TIP3   OH237563   6.264   5.679   7.384
 5335TIP3    H137564   6.231   5.740   7.318
 5335TIP3    H237565   6.240   5.592   7.350
 5336TIP3   OH237566   0.979   2.877   8.116
 5336TIP3    H137567   0.998   2.801   8.060
 5336TIP3    H237568   0.912   2.846   8.177
 5337TIP3   OH237569   1.276   0.183   1.036
 5337TIP3    H137570   1.332   0.258   1.055
 5337TIP3    H237571   1.196   0.222   1.000
 5338TIP3   OH237572   5.494   5.231   7.237
 5338TIP3    H137573   5.430   5.220   7.307
 5338TIP3    H237574   5.568   5.177   7.263
 5339TIP3   OH237575   3.466   1.575   1.823
 5339TIP3    H137576   3.421   1.658   1.837
 5339TIP3    H237577   3.475   1.538   1.911
 5340TIP3   OH237578   6.380   3.020   7.240
 5340TIP3    H137579   6.437   3.091   7.210
 5340TIP3    H237580   6.298   3.035   7.193
 5341TIP3   OH237581   3.215   4.773   0.194
 5341TIP3    H137582   3.156   4.766   0.269
 5341TIP3    H237583   3.258   4.858   0.206
 5342TIP3   OH237584   2.656   6.222   8.075
 5342TIP3    H137585   2.687   6.198   8.163
 5342TIP3    H237586   2.626   6.139   8.037
 5343TIP3   OH237587   4.681   3.638   1.636
 5343TIP3    H137588   4.661   3.546   1.653
 5343TIP3    H237589   4.757   3.657   1.691
 5344TIP3   OH237590   0.499   0.049   8.101
 5344TIP3    H137591   0.558   0.124   8.104
 5344TIP3    H237592   0.412   0.088   8.090
 5345TIP3   OH237593   5.653   0.183   2.659
 5345TIP3    H137594   5.727   0.227   2.617
 5345TIP3    H237595   5.626   0.243   2.729
 5346TIP3   OH237596   5.509   4.848   7.305
 5346TIP3    H137597   5.446   4.868   7.236
 5346TIP3    H237598   5.456   4.812   7.376
 5347TIP3   OH237599   3.940   6.854   6.790
 5347TIP3    H137600   3.876   0.005   6.730
 5347TIP3    H237601   3.893   6.784   6.835
 5348TIP3   OH237602   0.311   2.967   6.773
 5348TIP3    H137603   0.236   2.942   6.720
 5348TIP3    H237604   0.324   3.060   6.755
 5349TIP3   OH237605   0.463   6.206   7.803
 5349TIP3    H137606   0.451   6.217   7.897
 5349TIP3    H237607   0.378   6.227   7.765
 5350TIP3   OH237608   0.083   1.279   1.855
 5350TIP3    H137609   0.056   1.219   1.785
 5350TIP3    H237610   0.178   1.283   1.847
 5351TIP3   OH237611   2.714   6.672   6.958
 5351TIP3    H137612   2.705   6.645   7.050
 5351TIP3    H237613   2.802   6.710   6.952
 5352TIP3   OH237614   3.085   2.309   0.874
 5352TIP3    H137615   3.179   2.328   0.876
 5352TIP3    H237616   3.077   2.223   0.914
 5353TIP3   OH237617   0.745   3.710   7.609
 5353TIP3    H137618   0.807   3.757   7.665
 5353TIP3    H237619   0.698   3.652   7.670
 5354TIP3   OH237620   3.306   1.230   1.154
 5354TIP3    H137621   3.390   1.263   1.186
 5354TIP3    H237622   3.329   1.169   1.084
 5355TIP3   OH237623   4.007   4.076   2.307
 5355TIP3    H137624   4.040   4.140   2.370
 5355TIP3    H237625   4.085   4.029   2.277
 5356TIP3   OH237626   3.819   5.824   7.114
 5356TIP3    H137627   3.725   5.809   7.108
 5356TIP3    H237628   3.857   5.762   7.052
 5357TIP3   OH237629   1.877   4.667   0.528
 5357TIP3    H137630   1.835   4.581   0.517
 5357TIP3    H237631   1.881   4.679   0.623
 5358TIP3   OH237632   6.131   3.893   7.494
 5358TIP3    H137633   6.117   3.838   7.417
 5358TIP3    H237634   6.202   3.952   7.469
 5359TIP3   OH237635   1.117   5.497   1.870
 5359TIP3    H137636   1.095   5.462   1.783
 5359TIP3    H237637   1.085   5.587   1.868
 5360TIP3   OH237638   6.243   6.159   7.575
 5360TIP3    H137639   6.247   6.200   7.488
 5360TIP3    H237640   6.325   6.184   7.617
 5361TIP3   OH237641   2.097   0.397   1.547
 5361TIP3    H137642   2.004   0.413   1.565
 5361TIP3    H237643   2.143   0.461   1.601
 5362TIP3   OH237644   2.103   3.668   1.225
 5362TIP3    H137645   2.079   3.681   1.133
 5362TIP3    H237646   2.196   3.691   1.229
 5363TIP3   OH237647   4.718   2.454   1.348
 5363TIP3    H137648   4.808   2.477   1.327
 5363TIP3    H237649   4.680   2.425   1.265
 5364TIP3   OH237650   1.392   2.554   0.855
 5364TIP3    H137651   1.368   2.546   0.947
 5364TIP3    H237652   1.369   2.644   0.832
 5365TIP3   OH237653   1.366   1.340   8.063
 5365TIP3    H137654   1.349   1.290   8.143
 5365TIP3    H237655   1.294   1.403   8.058
 5366TIP3   OH237656   5.277   1.189   1.675
 5366TIP3    H137657   5.355   1.238   1.647
 5366TIP3    H237658   5.284   1.105   1.630
 5367TIP3   OH237659   4.986   3.750   8.586
 5367TIP3    H137660   5.023   3.738   0.059
 5367TIP3    H237661   4.893   3.728   8.595
 5368TIP3   OH237662   0.097   1.468   0.788
 5368TIP3    H137663   0.013   1.426   0.802
 5368TIP3    H237664   0.124   1.440   0.700
 5369TIP3   OH237665   2.862   1.621   0.335
 5369TIP3    H137666   2.879   1.528   0.351
 5369TIP3    H237667   2.927   1.645   0.269
 5370TIP3   OH237668   3.937   6.379   7.325
 5370TIP3    H137669   3.967   6.415   7.241
 5370TIP3    H237670   3.871   6.441   7.356
 5371TIP3   OH237671   4.218   2.766   1.395
 5371TIP3    H137672   4.170   2.691   1.360
 5371TIP3    H237673   4.178   2.781   1.481
 5372TIP3   OH237674   5.064   6.245   8.598
 5372TIP3    H137675   5.132   6.186   8.566
 5372TIP3    H237676   5.110   6.328   0.000
 5373TIP3   OH237677   3.906   5.170   0.587
 5373TIP3    H137678   3.982   5.204   0.633
 5373TIP3    H237679   3.903   5.220   0.505
 5374TIP3   OH237680   5.131   2.509   1.652
 5374TIP3    H137681   5.053   2.524   1.599
 5374TIP3    H237682   5.108   2.542   1.739
 5375TIP3   OH237683   2.325   6.636   7.367
 5375TIP3    H137684   2.327   6.540   7.366
 5375TIP3    H237685   2.238   6.658   7.400
 5376TIP3   OH237686   4.354   6.698   2.001
 5376TIP3    H137687   4.426   6.754   2.029
 5376TIP3    H237688   4.278   6.731   2.049
 5377TIP3   OH237689   3.904   5.775   0.387
 5377TIP3    H137690   3.879   5.690   0.423
 5377TIP3    H237691   3.890   5.837   0.459
 5378TIP3   OH237692   3.711   2.620   7.359
 5378TIP3    H137693   3.635   2.644   7.411
 5378TIP3    H237694   3.681   2.625   7.268
 5379TIP3   OH237695   6.109   6.108   0.433
 5379TIP3    H137696   6.136   6.024   0.470
 5379TIP3    H237697   6.055   6.084   0.357
 5380TIP3   OH237698   4.691   5.117   0.706
 5380TIP3    H137699   4.765   5.059   0.726
 5380TIP3    H237700   4.695   5.129   0.612
 5381TIP3   OH237701   2.111   3.397   7.751
 5381TIP3    H137702   2.065   3.472   7.789
 5381TIP3    H237703   2.090   3.401   7.657
 5382TIP3   OH237704   0.690   4.752   1.669
 5382TIP3    H137705   0.758   4.729   1.606
 5382TIP3    H237706   0.687   4.847   1.668
 5383TIP3   OH237707   4.592   0.683   0.998
 5383TIP3    H137708   4.685   0.700   0.983
 5383TIP3    H237709   4.566   0.625   0.927
 5384TIP3   OH237710   4.907   1.768   7.383
 5384TIP3    H137711   4.921   1.677   7.408
 5384TIP3    H237712   4.850   1.764   7.306
 5385TIP3   OH237713   0.520   6.195   2.337
 5385TIP3    H137714   0.568   6.278   2.345
 5385TIP3    H237715   0.588   6.128   2.331
 5386TIP3   OH237716   6.575   2.161   0.699
 5386TIP3    H137717   6.544   2.181   0.788
 5386TIP3    H237718   6.625   2.080   0.709
 5387TIP3   OH237719   2.174   2.490   7.613
 5387TIP3    H137720   2.247   2.548   7.595
 5387TIP3    H237721   2.140   2.466   7.527
 5388TIP3   OH237722   4.937   5.732   0.655
 5388TIP3    H137723   4.952   5.654   0.709
 5388TIP3    H237724   4.995   5.798   0.692
 5389TIP3   OH237725   1.532   0.837   0.222
 5389TIP3    H137726   1.619   0.805   0.201
 5389TIP3    H237727   1.496   0.867   0.139
 5390TIP3   OH237728   1.779   0.884   0.856
 5390TIP3    H137729   1.722   0.822   0.902
 5390TIP3    H237730   1.719   0.943   0.811
 5391TIP3   OH237731   0.294   0.838   8.242
 5391TIP3    H137732   0.269   0.910   8.184
 5391TIP3    H237733   0.390   0.840   8.241
 5392TIP3   OH237734   5.760   0.292   0.141
 5392TIP3    H137735   5.749   0.208   0.096
 5392TIP3    H237736   5.798   0.350   0.076
 5393TIP3   OH237737   5.453   4.496   7.116
 5393TIP3    H137738   5.474   4.509   7.209
 5393TIP3    H237739   5.531   4.526   7.070
 5394TIP3   OH237740   0.992   5.751   7.703
 5394TIP3    H137741   0.995   5.837   7.745
 5394TIP3    H237742   0.911   5.711   7.735
 5395TIP3   OH237743   0.730   1.961   6.436
 5395TIP3    H137744   0.665   1.917   6.492
 5395TIP3    H237745   0.781   2.014   6.497
 5396TIP3   OH237746   0.526   1.083   6.236
 5396TIP3    H137747   0.550   1.163   6.190
 5396TIP3    H237748   0.528   1.015   6.169
 5397TIP3   OH237749   3.924   0.315   8.560
 5397TIP3    H137750   3.895   0.230   8.528
 5397TIP3    H237751   3.994   0.341   8.501
 5398TIP3   OH237752   6.677   0.640   0.292
 5398TIP3    H137753   6.728   0.587   0.230
 5398TIP3    H237754   6.738   0.707   0.322
 5399TIP3   OH237755   1.127   5.732   1.113
 5399TIP3    H137756   1.203   5.751   1.058
 5399TIP3    H237757   1.091   5.818   1.135
 5400TIP3   OH237758   0.085   2.792   1.463
 5400TIP3    H137759   0.117   2.881   1.480
 5400TIP3    H237760   0.149   2.735   1.506
 5401TIP3   OH237761   3.599   5.085   0.360
 5401TIP3    H137762   3.628   5.176   0.349
 5401TIP3    H237763   3.573   5.079   0.452
 5402TIP3   OH237764   0.568   0.811   8.227
 5402TIP3    H137765   0.622   0.889   8.243
 5402TIP3    H237766   0.626   0.738   8.244
 5403TIP3   OH237767   6.195   2.486   0.043
 5403TIP3    H137768   6.215   2.393   0.035
 5403TIP3    H237769   6.103   2.489   0.068
 5404TIP3   OH237770   6.497   1.292   0.134
 5404TIP3    H137771   6.557   1.218   0.139
 5404TIP3    H237772   6.513   1.331   0.048
 5405TIP3   OH237773   5.738   2.544   1.597
 5405TIP3    H137774   5.678   2.551   1.670
 5405TIP3    H237775   5.788   2.626   1.598
 5406TIP3   OH237776   2.231   4.163   6.393
 5406TIP3    H137777   2.147   4.119   6.394
 5406TIP3    H237778   2.288   4.109   6.448
 5407TIP3   OH237779   1.486   6.726   8.051
 5407TIP3    H137780   1.496   6.769   8.136
 5407TIP3    H237781   1.400   6.753   8.020
 5408TIP3   OH237782   5.419   6.211   0.954
 5408TIP3    H137783   5.339   6.224   0.904
 5408TIP3    H237784   5.418   6.280   1.020
 5409TIP3   OH237785   4.020   2.728   0.278
 5409TIP3    H137786   3.999   2.683   0.360
 5409TIP3    H237787   4.046   2.659   0.218
 5410TIP3   OH237788   1.112   5.055   0.534
 5410TIP3    H137789   1.044   5.118   0.558
 5410TIP3    H237790   1.132   5.075   0.443
 5411TIP3   OH237791   5.469   4.045   7.736
 5411TIP3    H137792   5.520   4.055   7.656
 5411TIP3    H237793   5.494   4.120   7.790
 5412TIP3   OH237794   1.083   2.953   7.412
 5412TIP3    H137795   1.070   2.858   7.418
 5412TIP3    H237796   1.159   2.971   7.468
 5413TIP3   OH237797   2.738   6.786   8.047
 5413TIP3    H137798   2.805   6.784   8.115
 5413TIP3    H237799   2.788   6.791   7.965
 5414TIP3   OH237800   5.167   4.783   8.154
 5414TIP3    H137801   5.111   4.729   8.210
 5414TIP3    H237802   5.255   4.747   8.166
 5415TIP3   OH237803   6.044   0.933   2.302
 5415TIP3    H137804   6.067   1.023   2.279
 5415TIP3    H237805   6.121   0.899   2.347
 5416TIP3   OH237806   5.525   5.776   6.882
 5416TIP3    H137807   5.591   5.777   6.951
 5416TIP3    H237808   5.560   5.714   6.817
 5417TIP3   OH237809   3.488   3.543   6.911
 5417TIP3    H137810   3.566   3.598   6.907
 5417TIP3    H237811   3.447   3.553   6.825
 5418TIP3   OH237812   5.807   6.293   0.381
 5418TIP3    H137813   5.727   6.250   0.412
 5418TIP3    H237814   5.848   6.228   0.324
 5419TIP3   OH237815   4.560   4.594   7.003
 5419TIP3    H137816   4.553   4.574   6.910
 5419TIP3    H237817   4.649   4.627   7.014
 5420TIP3   OH237818   5.751   1.948   2.417
 5420TIP3    H137819   5.680   1.885   2.427
 5420TIP3    H237820   5.707   2.030   2.393
 5421TIP3   OH237821   4.881   0.332   7.604
 5421TIP3    H137822   4.897   0.304   7.694
 5421TIP3    H237823   4.957   0.385   7.582
 5422TIP3   OH237824   0.562   5.080   6.355
 5422TIP3    H137825   0.631   5.101   6.417
 5422TIP3    H237826   0.507   5.159   6.353
 5423TIP3   OH237827   1.061   0.945   0.755
 5423TIP3    H137828   1.083   0.902   0.672
 5423TIP3    H237829   0.971   0.918   0.772
 5424TIP3   OH237830   5.185   2.621   6.965
 5424TIP3    H137831   5.198   2.554   6.898
 5424TIP3    H237832   5.265   2.619   7.018
 5425TIP3   OH237833   4.777   2.846   1.353
 5425TIP3    H137834   4.717   2.828   1.281
 5425TIP3    H237835   4.734   2.808   1.430
 5426TIP3   OH237836   2.571   1.882   8.120
 5426TIP3    H137837   2.665   1.880   8.139
 5426TIP3    H237838   2.547   1.974   8.132
 5427TIP3   OH237839   3.471   3.435   0.858
 5427TIP3    H137840   3.547   3.441   0.916
 5427TIP3    H237841   3.479   3.511   0.801
 5428TIP3   OH237842   3.238   4.703   7.029
 5428TIP3    H137843   3.205   4.788   7.001
 5428TIP3    H237844   3.328   4.700   6.997
 5429TIP3   OH237845   1.274   0.741   0.419
 5429TIP3    H137846   1.200   0.790   0.454
 5429TIP3    H237847   1.271   0.756   0.325
 5430TIP3   OH237848   6.587   4.701   0.417
 5430TIP3    H137849   6.670   4.662   0.447
 5430TIP3    H237850   6.589   4.690   0.322
 5431TIP3   OH237851   6.667   5.400   8.020
 5431TIP3    H137852   6.692   5.380   8.111
 5431TIP3    H237853   6.583   5.356   8.009
 5432TIP3   OH237854   4.110   0.267   6.759
 5432TIP3    H137855   4.017   0.249   6.747
 5432TIP3    H237856   4.153   0.211   6.693
 5433TIP3   OH237857   0.349   6.423   2.240
 5433TIP3    H137858   0.373   6.341   2.198
 5433TIP3    H237859   0.381   6.491   2.181
 5434TIP3   OH237860   0.111   6.559   7.647
 5434TIP3    H137861   0.095   6.613   7.724
 5434TIP3    H237862   0.171   6.611   7.594
 5435TIP3   OH237863   3.258   5.556   0.326
 5435TIP3    H137864   3.172   5.540   0.288
 5435TIP3    H237865   3.251   5.522   0.415
 5436TIP3   OH237866   0.371   2.308   0.262
 5436TIP3    H137867   0.441   2.259   0.305
 5436TIP3    H237868   0.393   2.307   0.169
 5437TIP3   OH237869   3.624   6.333   0.305
 5437TIP3    H137870   3.696   6.320   0.243
 5437TIP3    H237871   3.629   6.425   0.328
 5438TIP3   OH237872   5.160   3.326   1.054
 5438TIP3    H137873   5.107   3.404   1.038
 5438TIP3    H237874   5.213   3.349   1.130
 5439TIP3   OH237875   2.109   6.050   7.961
 5439TIP3    H137876   2.033   6.075   8.014
 5439TIP3    H237877   2.176   6.114   7.982
 5440TIP3   OH237878   0.461   0.956   0.945
 5440TIP3    H137879   0.430   0.876   0.988
 5440TIP3    H237880   0.513   0.924   0.871
 5441TIP3   OH237881   0.643   0.284   8.170
 5441TIP3    H137882   0.727   0.326   8.154
 5441TIP3    H237883   0.619   0.311   8.259
 5442TIP3   OH237884   1.884   6.548   7.649
 5442TIP3    H137885   1.861   6.578   7.737
 5442TIP3    H237886   1.824   6.594   7.591
 5443TIP3   OH237887   1.066   3.201   2.137
 5443TIP3    H137888   1.132   3.227   2.202
 5443TIP3    H237889   1.059   3.276   2.079
 5444TIP3   OH237890   0.817   2.275   1.412
 5444TIP3    H137891   0.866   2.268   1.494
 5444TIP3    H237892   0.736   2.321   1.435
 5445TIP3   OH237893   2.792   3.816   6.817
 5445TIP3    H137894   2.868   3.871   6.836
 5445TIP3    H237895   2.828   3.739   6.773
 5446TIP3   OH237896   4.030   4.789   7.955
 5446TIP3    H137897   4.019   4.770   8.048
 5446TIP3    H237898   4.024   4.703   7.912
 5447TIP3   OH237899   6.693   0.368   7.416
 5447TIP3    H137900   6.783   0.398   7.420
 5447TIP3    H237901   6.641   0.446   7.399
 5448TIP3   OH237902   5.727   6.538   8.401
 5448TIP3    H137903   5.751   6.601   8.469
 5448TIP3    H237904   5.765   6.573   8.321
 5449TIP3   OH237905   4.122   2.520   7.219
 5449TIP3    H137906   4.204   2.541   7.175
 5449TIP3    H237907   4.090   2.442   7.176
 5450TIP3   OH237908   1.472   0.503   6.791
 5450TIP3    H137909   1.518   0.541   6.716
 5450TIP3    H237910   1.490   0.409   6.785
 5451TIP3   OH237911   4.091   6.719   1.662
 5451TIP3    H137912   4.039   6.661   1.606
 5451TIP3    H237913   4.164   6.665   1.692
 5452TIP3   OH237914   4.760   2.639   0.743
 5452TIP3    H137915   4.674   2.666   0.712
 5452TIP3    H237916   4.820   2.706   0.709
 5453TIP3   OH237917   6.321   0.821   7.490
 5453TIP3    H137918   6.353   0.860   7.409
 5453TIP3    H237919   6.239   0.866   7.508
 5454TIP3   OH237920   6.587   4.134   7.333
 5454TIP3    H137921   6.565   4.148   7.241
 5454TIP3    H237922   6.679   4.105   7.331
 5455TIP3   OH237923   6.376   5.243   0.575
 5455TIP3    H137924   6.448   5.276   0.629
 5455TIP3    H237925   6.374   5.149   0.594
 5456TIP3   OH237926   6.568   1.813   7.347
 5456TIP3    H137927   6.606   1.809   7.259
 5456TIP3    H237928   6.625   1.872   7.395
 5457TIP3   OH237929   6.205   2.377   0.363
 5457TIP3    H137930   6.240   2.338   0.443
 5457TIP3    H237931   6.260   2.342   0.293
 5458TIP3   OH237932   5.763   2.678   2.490
 5458TIP3    H137933   5.685   2.731   2.509
 5458TIP3    H237934   5.836   2.740   2.498
 5459TIP3   OH237935   4.463   1.421   7.572
 5459TIP3    H137936   4.369   1.402   7.569
 5459TIP3    H237937   4.477   1.458   7.659
 5460TIP3   OH237938   6.356   4.092   6.909
 5460TIP3    H137939   6.388   4.011   6.948
 5460TIP3    H237940   6.391   4.091   6.820
 5461TIP3   OH237941   1.789   6.455   6.029
 5461TIP3    H137942   1.806   6.483   6.119
 5461TIP3    H237943   1.715   6.509   6.000
 5462TIP3   OH237944   5.955   3.188   1.326
 5462TIP3    H137945   5.877   3.134   1.315
 5462TIP3    H237946   5.971   3.225   1.239
 5463TIP3   OH237947   1.226   4.244   0.897
 5463TIP3    H137948   1.214   4.313   0.961
 5463TIP3    H237949   1.317   4.217   0.906
 5464TIP3   OH237950   3.179   2.783   0.460
 5464TIP3    H137951   3.158   2.755   0.549
 5464TIP3    H237952   3.098   2.769   0.411
 5465TIP3   OH237953   1.524   1.811   1.505
 5465TIP3    H137954   1.439   1.854   1.513
 5465TIP3    H237955   1.587   1.883   1.506
 5466TIP3   OH237956   1.484   4.139   6.770
 5466TIP3    H137957   1.517   4.155   6.681
 5466TIP3    H237958   1.402   4.188   6.774
 5467TIP3   OH237959   4.364   0.128   7.534
 5467TIP3    H137960   4.373   0.145   7.627
 5467TIP3    H237961   4.434   0.178   7.493
 5468TIP3   OH237962   5.593   3.220   6.779
 5468TIP3    H137963   5.610   3.157   6.849
 5468TIP3    H237964   5.509   3.193   6.742
 5469TIP3   OH237965   3.078   5.393   6.750
 5469TIP3    H137966   3.095   5.409   6.657
 5469TIP3    H237967   3.043   5.304   6.753
 5470TIP3   OH237968   3.766   0.919   2.422
 5470TIP3    H137969   3.696   0.855   2.431
 5470TIP3    H237970   3.828   0.879   2.361
 5471TIP3   OH237971   3.382   5.568   1.776
 5471TIP3    H137972   3.371   5.492   1.719
 5471TIP3    H237973   3.347   5.541   1.861
 5472TIP3   OH237974   3.493   6.648   7.480
 5472TIP3    H137975   3.453   6.733   7.458
 5472TIP3    H237976   3.447   6.585   7.425
 5473TIP3   OH237977   1.578   6.220   1.273
 5473TIP3    H137978   1.616   6.138   1.303
 5473TIP3    H237979   1.606   6.285   1.338
 5474TIP3   OH237980   4.908   5.308   0.658
 5474TIP3    H137981   4.924   5.390   0.706
 5474TIP3    H237982   4.918   5.332   0.566
 5475TIP3   OH237983   0.212   1.801   7.313
 5475TIP3    H137984   0.254   1.874   7.357
 5475TIP3    H237985   0.131   1.786   7.362
 5476TIP3   OH237986   0.934   2.938   7.108
 5476TIP3    H137987   0.905   2.859   7.062
 5476TIP3    H237988   0.867   3.003   7.088
 5477TIP3   OH237989   5.883   6.272   6.575
 5477TIP3    H137990   5.810   6.281   6.514
 5477TIP3    H237991   5.870   6.186   6.615
 5478TIP3   OH237992   0.167   6.047   7.832
 5478TIP3    H137993   0.163   6.115   7.765
 5478TIP3    H237994   0.112   5.976   7.798
 5479TIP3   OH237995   3.305   6.404   6.458
 5479TIP3    H137996   3.293   6.325   6.406
 5479TIP3    H237997   3.357   6.375   6.533
 5480TIP3   OH237998   5.326   4.588   0.406
 5480TIP3    H137999   5.303   4.504   0.364
 5480TIP3    H238000   5.421   4.587   0.412
 5481TIP3   OH238001   3.214   3.190   0.535
 5481TIP3    H138002   3.141   3.191   0.597
 5481TIP3    H238003   3.278   3.251   0.571
 5482TIP3   OH238004   4.811   0.920   6.905
 5482TIP3    H138005   4.790   0.913   6.812
 5482TIP3    H238006   4.903   0.897   6.911
 5483TIP3   OH238007   0.083   0.231   1.328
 5483TIP3    H138008   0.116   0.197   1.411
 5483TIP3    H238009   0.070   0.153   1.274
 5484TIP3   OH238010   1.845   0.059   8.086
 5484TIP3    H138011   1.844   0.150   8.118
 5484TIP3    H238012   1.819   0.066   7.994
 5485TIP3   OH238013   4.653   6.559   7.560
 5485TIP3    H138014   4.566   6.599   7.553
 5485TIP3    H238015   4.661   6.535   7.652
 5486TIP3   OH238016   3.234   6.882   6.542
 5486TIP3    H138017   3.179   0.071   6.562
 5486TIP3    H238018   3.203   6.852   6.457
 5487TIP3   OH238019   5.526   5.678   1.783
 5487TIP3    H138020   5.452   5.637   1.827
 5487TIP3    H238021   5.491   5.757   1.743
 5488TIP3   OH238022   1.847   0.405   8.355
 5488TIP3    H138023   1.796   0.369   8.281
 5488TIP3    H238024   1.818   0.496   8.361
 5489TIP3   OH238025   5.794   1.297   2.299
 5489TIP3    H138026   5.879   1.340   2.305
 5489TIP3    H238027   5.739   1.359   2.250
 5490TIP3   OH238028   3.043   6.269   6.611
 5490TIP3    H138029   3.062   6.341   6.552
 5490TIP3    H238030   2.998   6.204   6.556
 5491TIP3   OH238031   4.317   0.191   7.802
 5491TIP3    H138032   4.248   0.147   7.850
 5491TIP3    H238033   4.386   0.125   7.791
 5492TIP3   OH238034   2.971   1.132   2.011
 5492TIP3    H138035   2.991   1.165   2.098
 5492TIP3    H238036   2.884   1.092   2.019
 5493TIP3   OH238037   0.236   5.003   0.725
 5493TIP3    H138038   0.276   4.920   0.750
 5493TIP3    H238039   0.299   5.043   0.665
 5494TIP3   OH238040   0.540   2.553   8.474
 5494TIP3    H138041   0.571   2.592   8.392
 5494TIP3    H238042   0.615   2.506   8.508
 5495TIP3   OH238043   4.749   4.284   0.930
 5495TIP3    H138044   4.754   4.245   1.017
 5495TIP3    H238045   4.762   4.211   0.869
 5496TIP3   OH238046   3.900   0.070   8.453
 5496TIP3    H138047   3.901   0.007   8.526
 5496TIP3    H238048   3.951   0.028   8.385
 5497TIP3   OH238049   6.540   1.230   0.416
 5497TIP3    H138050   6.597   1.292   0.461
 5497TIP3    H238051   6.513   1.276   0.336
 5498TIP3   OH238052   0.082   0.007   1.901
 5498TIP3    H138053   0.106   0.096   1.873
 5498TIP3    H238054   0.161   6.860   1.942
 5499TIP3   OH238055   5.529   5.781   7.946
 5499TIP3    H138056   5.575   5.710   7.901
 5499TIP3    H238057   5.529   5.755   8.038
 5500TIP3   OH238058   4.541   6.256   0.999
 5500TIP3    H138059   4.625   6.301   0.993
 5500TIP3    H238060   4.487   6.297   0.931
 5501TIP3   OH238061   6.869   0.836   0.365
 5501TIP3    H138062   0.060   0.876   0.404
 5501TIP3    H238063   0.013   0.797   0.283
 5502TIP3   OH238064   5.045   2.939   7.567
 5502TIP3    H138065   5.052   3.009   7.631
 5502TIP3    H238066   5.091   2.972   7.489
 5503TIP3   OH238067   3.648   0.991   2.672
 5503TIP3    H138068   3.640   0.902   2.636
 5503TIP3    H238069   3.630   0.981   2.765
 5504TIP3   OH238070   4.525   3.969   2.260
 5504TIP3    H138071   4.469   3.994   2.334
 5504TIP3    H238072   4.537   3.875   2.269
 5505TIP3   OH238073   2.935   4.685   7.112
 5505TIP3    H138074   2.898   4.597   7.120
 5505TIP3    H238075   3.030   4.671   7.113
 5506TIP3   OH238076   1.851   3.957   7.466
 5506TIP3    H138077   1.937   3.949   7.424
 5506TIP3    H238078   1.834   3.870   7.501
 5507TIP3   OH238079   0.201   4.235   0.424
 5507TIP3    H138080   0.166   4.166   0.480
 5507TIP3    H238081   0.264   4.281   0.479
 5508TIP3   OH238082   1.895   1.704   7.199
 5508TIP3    H138083   1.975   1.734   7.241
 5508TIP3    H238084   1.925   1.646   7.129
 5509TIP3   OH238085   1.470   1.086   7.439
 5509TIP3    H138086   1.395   1.048   7.392
 5509TIP3    H238087   1.433   1.163   7.483
 5510TIP3   OH238088   4.927   1.422   8.015
 5510TIP3    H138089   4.954   1.334   8.040
 5510TIP3    H238090   4.978   1.441   7.936
 5511TIP3   OH238091   4.863   6.648   7.031
 5511TIP3    H138092   4.848   6.738   7.060
 5511TIP3    H238093   4.826   6.593   7.101
 5512TIP3   OH238094   3.024   5.740   1.574
 5512TIP3    H138095   2.998   5.819   1.621
 5512TIP3    H238096   3.031   5.672   1.642
 5513TIP3   OH238097   2.484   4.718   7.022
 5513TIP3    H138098   2.442   4.739   6.939
 5513TIP3    H238099   2.528   4.799   7.048
 5514TIP3   OH238100   1.576   0.206   7.928
 5514TIP3    H138101   1.488   0.222   7.964
 5514TIP3    H238102   1.588   0.112   7.936
 5515TIP3   OH238103   1.768   1.906   0.240
 5515TIP3    H138104   1.688   1.957   0.237
 5515TIP3    H238105   1.838   1.969   0.226
 5516TIP3   OH238106   4.752   6.482   8.037
 5516TIP3    H138107   4.782   6.485   7.947
 5516TIP3    H238108   4.740   6.388   8.055
 5517TIP3   OH238109   6.323   0.006   0.061
 5517TIP3    H138110   6.344   6.801   0.078
 5517TIP3    H238111   6.237   0.018   0.101
 5518TIP3   OH238112   1.436   2.532   1.399
 5518TIP3    H138113   1.420   2.438   1.397
 5518TIP3    H238114   1.389   2.563   1.476
 5519TIP3   OH238115   0.896   3.724   8.453
 5519TIP3    H138116   0.886   3.694   8.543
 5519TIP3    H238117   0.985   3.759   8.449
 5520TIP3   OH238118   3.327   2.233   1.611
 5520TIP3    H138119   3.314   2.327   1.624
 5520TIP3    H238120   3.350   2.224   1.519
 5521TIP3   OH238121   2.563   5.111   0.752
 5521TIP3    H138122   2.624   5.176   0.786
 5521TIP3    H238123   2.603   5.027   0.774
 5522TIP3   OH238124   4.681   4.406   2.262
 5522TIP3    H138125   4.676   4.341   2.333
 5522TIP3    H238126   4.602   4.460   2.274
 5523TIP3   OH238127   6.038   4.842   2.600
 5523TIP3    H138128   5.964   4.894   2.632
 5523TIP3    H238129   6.006   4.752   2.599
 5524TIP3   OH238130   5.756   3.447   6.615
 5524TIP3    H138131   5.728   3.487   6.533
 5524TIP3    H238132   5.739   3.354   6.603
 5525TIP3   OH238133   6.677   6.124   7.771
 5525TIP3    H138134   6.709   6.099   7.857
 5525TIP3    H238135   6.734   6.078   7.709
 5526TIP3   OH238136   2.132   1.192   7.211
 5526TIP3    H138137   2.128   1.286   7.195
 5526TIP3    H238138   2.188   1.182   7.288
 5527TIP3   OH238139   0.142   6.111   0.989
 5527TIP3    H138140   0.083   6.169   0.942
 5527TIP3    H238141   0.087   6.069   1.055
 5528TIP3   OH238142   1.528   4.579   0.784
 5528TIP3    H138143   1.462   4.568   0.852
 5528TIP3    H238144   1.611   4.560   0.828
 5529TIP3   OH238145   0.643   1.850   1.438
 5529TIP3    H138146   0.712   1.855   1.373
 5529TIP3    H238147   0.658   1.925   1.496
 5530TIP3   OH238148   2.949   0.871   0.226
 5530TIP3    H138149   3.038   0.838   0.217
 5530TIP3    H238150   2.952   0.960   0.191
 5531TIP3   OH238151   5.057   0.927   1.106
 5531TIP3    H138152   5.054   1.020   1.128
 5531TIP3    H238153   5.001   0.885   1.171
 5532TIP3   OH238154   2.472   6.671   0.704
 5532TIP3    H138155   2.439   6.662   0.615
 5532TIP3    H238156   2.483   6.765   0.717
 5533TIP3   OH238157   3.181   2.504   6.906
 5533TIP3    H138158   3.200   2.459   6.824
 5533TIP3    H238159   3.173   2.434   6.971
 5534TIP3   OH238160   1.775   6.069   1.004
 5534TIP3    H138161   1.869   6.077   1.015
 5534TIP3    H238162   1.753   5.987   1.048
 5535TIP3   OH238163   5.752   0.441   6.252
 5535TIP3    H138164   5.715   0.372   6.197
 5535TIP3    H238165   5.768   0.398   6.336
 5536TIP3   OH238166   4.727   3.119   7.281
 5536TIP3    H138167   4.774   3.172   7.345
 5536TIP3    H238168   4.741   3.164   7.198
 5537TIP3   OH238169   3.662   6.285   7.731
 5537TIP3    H138170   3.594   6.352   7.725
 5537TIP3    H238171   3.615   6.202   7.723
 5538TIP3   OH238172   0.711   4.376   0.084
 5538TIP3    H138173   0.724   4.293   0.129
 5538TIP3    H238174   0.617   4.392   0.088
 5539TIP3   OH238175   4.367   4.058   0.046
 5539TIP3    H138176   4.351   3.987   0.108
 5539TIP3    H238177   4.438   4.024   8.604
 5540TIP3   OH238178   5.299   5.156   6.578
 5540TIP3    H138179   5.341   5.074   6.552
 5540TIP3    H238180   5.307   5.213   6.501
 5541TIP3   OH238181   6.378   5.125   2.274
 5541TIP3    H138182   6.370   5.220   2.282
 5541TIP3    H238183   6.362   5.092   2.362
 5542TIP3   OH238184   0.382   2.150   8.350
 5542TIP3    H138185   0.443   2.162   8.422
 5542TIP3    H238186   0.296   2.169   8.387
 5543TIP3   OH238187   3.203   3.482   2.069
 5543TIP3    H138188   3.155   3.433   2.135
 5543TIP3    H238189   3.295   3.477   2.097
 5544TIP3   OH238190   6.878   2.921   1.191
 5544TIP3    H138191   0.021   2.854   1.252
 5544TIP3    H238192   0.027   2.895   1.107
 5545TIP3   OH238193   0.308   0.647   1.862
 5545TIP3    H138194   0.371   0.684   1.799
 5545TIP3    H238195   0.363   0.614   1.933
 5546TIP3   OH238196   4.851   1.175   2.364
 5546TIP3    H138197   4.855   1.267   2.336
 5546TIP3    H238198   4.942   1.153   2.384
 5547TIP3   OH238199   0.989   3.491   0.710
 5547TIP3    H138200   1.001   3.539   0.792
 5547TIP3    H238201   1.039   3.542   0.645
 5548TIP3   OH238202   4.953   2.429   0.762
 5548TIP3    H138203   5.012   2.480   0.705
 5548TIP3    H238204   4.888   2.492   0.791
 5549TIP3   OH238205   3.073   4.744   7.650
 5549TIP3    H138206   3.122   4.665   7.673
 5549TIP3    H238207   3.131   4.816   7.674
 5550TIP3   OH238208   4.213   3.029   1.892
 5550TIP3    H138209   4.297   3.004   1.932
 5550TIP3    H238210   4.147   2.996   1.953
 5551TIP3   OH238211   6.584   6.082   7.013
 5551TIP3    H138212   6.633   6.083   7.095
 5551TIP3    H238213   6.497   6.114   7.036
 5552TIP3   OH238214   0.296   5.468   8.218
 5552TIP3    H138215   0.383   5.465   8.179
 5552TIP3    H238216   0.307   5.525   8.294
 5553TIP3   OH238217   4.153   1.289   2.085
 5553TIP3    H138218   4.161   1.308   1.992
 5553TIP3    H238219   4.142   1.375   2.126
 5554TIP3   OH238220   1.904   4.990   0.666
 5554TIP3    H138221   1.926   4.898   0.656
 5554TIP3    H238222   1.860   5.013   0.584
 5555TIP3   OH238223   1.819   6.402   6.934
 5555TIP3    H138224   1.809   6.449   7.017
 5555TIP3    H238225   1.884   6.452   6.886
 5556TIP3   OH238226   0.630   3.084   1.423
 5556TIP3    H138227   0.721   3.088   1.394
 5556TIP3    H238228   0.579   3.105   1.345
 5557TIP3   OH238229   6.724   6.330   2.722
 5557TIP3    H138230   6.658   6.346   2.655
 5557TIP3    H238231   6.805   6.362   2.683
 5558TIP3   OH238232   2.164   5.119   2.201
 5558TIP3    H138233   2.173   5.025   2.185
 5558TIP3    H238234   2.094   5.126   2.265
 5559TIP3   OH238235   5.513   5.307   1.648
 5559TIP3    H138236   5.587   5.301   1.587
 5559TIP3    H238237   5.532   5.241   1.715
 5560TIP3   OH238238   2.252   4.281   0.491
 5560TIP3    H138239   2.175   4.242   0.533
 5560TIP3    H238240   2.217   4.335   0.420
 5561TIP3   OH238241   5.146   5.159   7.164
 5561TIP3    H138242   5.139   5.234   7.104
 5561TIP3    H238243   5.143   5.198   7.251
 5562TIP3   OH238244   6.869   6.309   2.066
 5562TIP3    H138245   0.008   6.401   2.058
 5562TIP3    H238246   0.018   6.281   2.150
 5563TIP3   OH238247   6.345   1.200   6.857
 5563TIP3    H138248   6.314   1.281   6.816
 5563TIP3    H238249   6.330   1.132   6.791
 5564TIP3   OH238250   3.245   5.351   1.258
 5564TIP3    H138251   3.324   5.405   1.253
 5564TIP3    H238252   3.203   5.377   1.339
 5565TIP3   OH238253   5.325   5.385   2.340
 5565TIP3    H138254   5.328   5.468   2.292
 5565TIP3    H238255   5.417   5.359   2.349
 5566TIP3   OH238256   4.564   2.510   8.460
 5566TIP3    H138257   4.636   2.463   8.418
 5566TIP3    H238258   4.579   2.602   8.437
 5567TIP3   OH238259   6.174   6.467   0.244
 5567TIP3    H138260   6.248   6.411   0.262
 5567TIP3    H238261   6.212   6.547   0.207
 5568TIP3   OH238262   2.624   5.635   1.046
 5568TIP3    H138263   2.602   5.630   1.138
 5568TIP3    H238264   2.563   5.576   1.003
 5569TIP3   OH238265   0.312   0.708   0.336
 5569TIP3    H138266   0.332   0.763   0.261
 5569TIP3    H238267   0.323   0.765   0.412
 5570TIP3   OH238268   2.109   3.387   1.013
 5570TIP3    H138269   2.063   3.342   0.942
 5570TIP3    H238270   2.199   3.394   0.984
 5571TIP3   OH238271   0.244   0.438   1.007
 5571TIP3    H138272   0.155   0.419   0.979
 5571TIP3    H238273   0.295   0.361   0.983
 5572TIP3   OH238274   3.501   2.504   7.818
 5572TIP3    H138275   3.410   2.477   7.821
 5572TIP3    H238276   3.518   2.519   7.724
 5573TIP3   OH238277   3.538   6.356   2.559
 5573TIP3    H138278   3.545   6.365   2.464
 5573TIP3    H238279   3.609   6.297   2.583
 5574TIP3   OH238280   1.520   5.805   8.421
 5574TIP3    H138281   1.517   5.768   8.509
 5574TIP3    H238282   1.428   5.804   8.392
 5575TIP3   OH238283   4.857   2.624   8.065
 5575TIP3    H138284   4.913   2.637   7.988
 5575TIP3    H238285   4.893   2.546   8.108
 5576TIP3   OH238286   0.876   1.633   7.316
 5576TIP3    H138287   0.781   1.631   7.327
 5576TIP3    H238288   0.906   1.552   7.356
 5577TIP3   OH238289   2.912   0.135   1.490
 5577TIP3    H138290   2.936   0.070   1.424
 5577TIP3    H238291   2.862   0.201   1.441
 5578TIP3   OH238292   5.281   6.548   0.465
 5578TIP3    H138293   5.247   6.519   0.381
 5578TIP3    H238294   5.357   6.602   0.444
 5579TIP3   OH238295   6.646   3.723   6.601
 5579TIP3    H138296   6.559   3.728   6.639
 5579TIP3    H238297   6.645   3.642   6.549
 5580TIP3   OH238298   3.250   2.069   1.320
 5580TIP3    H138299   3.257   2.112   1.235
 5580TIP3    H238300   3.187   2.121   1.369
 5581TIP3   OH238301   2.021   6.325   0.200
 5581TIP3    H138302   1.984   6.300   0.115
 5581TIP3    H238303   1.967   6.280   0.264
 5582TIP3   OH238304   2.720   0.175   6.909
 5582TIP3    H138305   2.632   0.157   6.875
 5582TIP3    H238306   2.775   0.108   6.868
 5583TIP3   OH238307   2.900   1.207   8.160
 5583TIP3    H138308   2.847   1.136   8.124
 5583TIP3    H238309   2.873   1.213   8.252
 5584TIP3   OH238310   3.772   3.947   0.970
 5584TIP3    H138311   3.814   4.033   0.980
 5584TIP3    H238312   3.772   3.932   0.875
 5585TIP3   OH238313   5.834   1.672   0.267
 5585TIP3    H138314   5.767   1.606   0.282
 5585TIP3    H238315   5.863   1.698   0.354
 5586TIP3   OH238316   6.457   0.910   6.256
 5586TIP3    H138317   6.367   0.922   6.289
 5586TIP3    H238318   6.512   0.954   6.321
 5587TIP3   OH238319   1.952   1.665   7.768
 5587TIP3    H138320   1.889   1.736   7.775
 5587TIP3    H238321   1.902   1.591   7.734
 5588TIP3   OH238322   5.936   4.564   1.391
 5588TIP3    H138323   6.013   4.551   1.447
 5588TIP3    H238324   5.950   4.505   1.317
 5589TIP3   OH238325   2.224   0.226   6.813
 5589TIP3    H138326   2.316   0.224   6.786
 5589TIP3    H238327   2.207   0.318   6.834
 5590TIP3   OH238328   6.356   5.038   7.389
 5590TIP3    H138329   6.425   4.985   7.349
 5590TIP3    H238330   6.336   4.994   7.471
 5591TIP3   OH238331   6.628   5.709   0.681
 5591TIP3    H138332   6.626   5.804   0.671
 5591TIP3    H238333   6.693   5.693   0.749
 5592TIP3   OH238334   5.026   1.493   0.563
 5592TIP3    H138335   5.000   1.420   0.507
 5592TIP3    H238336   4.972   1.566   0.535
 5593TIP3   OH238337   4.793   2.538   6.835
 5593TIP3    H138338   4.791   2.481   6.912
 5593TIP3    H238339   4.851   2.493   6.773
 5594TIP3   OH238340   0.310   5.443   0.801
 5594TIP3    H138341   0.306   5.348   0.814
 5594TIP3    H238342   0.325   5.478   0.890
 5595TIP3   OH238343   5.864   2.895   2.034
 5595TIP3    H138344   5.827   2.833   2.098
 5595TIP3    H238345   5.791   2.952   2.012
 5596TIP3   OH238346   0.997   4.712   1.666
 5596TIP3    H138347   1.090   4.691   1.670
 5596TIP3    H238348   0.976   4.746   1.753
 5597TIP3   OH238349   6.887   0.930   8.516
 5597TIP3    H138350   0.040   1.002   8.467
 5597TIP3    H238351   6.844   0.973   8.590
 5598TIP3   OH238352   2.587   1.274   1.262
 5598TIP3    H138353   2.506   1.304   1.304
 5598TIP3    H238354   2.656   1.294   1.325
 5599TIP3   OH238355   1.954   3.494   7.200
 5599TIP3    H138356   2.039   3.533   7.177
 5599TIP3    H238357   1.904   3.566   7.237
 5600TIP3   OH238358   2.153   1.773   8.503
 5600TIP3    H138359   2.204   1.821   8.438
 5600TIP3    H238360   2.083   1.731   8.453
 5601TIP3   OH238361   3.698   2.747   7.903
 5601TIP3    H138362   3.647   2.821   7.871
 5601TIP3    H238363   3.713   2.693   7.824
 5602TIP3   OH238364   4.068   2.231   0.200
 5602TIP3    H138365   4.041   2.309   0.249
 5602TIP3    H238366   4.046   2.158   0.257
 5603TIP3   OH238367   4.465   2.527   2.336
 5603TIP3    H138368   4.455   2.622   2.338
 5603TIP3    H238369   4.554   2.513   2.305
 5604TIP3   OH238370   1.693   3.459   6.289
 5604TIP3    H138371   1.646   3.465   6.205
 5604TIP3    H238372   1.625   3.439   6.353
 5605TIP3   OH238373   4.134   3.954   1.936
 5605TIP3    H138374   4.183   3.876   1.907
 5605TIP3    H238375   4.175   3.978   2.019
 5606TIP3   OH238376   0.142   5.965   2.445
 5606TIP3    H138377   0.134   6.059   2.455
 5606TIP3    H238378   0.229   5.951   2.407
 5607TIP3   OH238379   5.066   6.458   1.205
 5607TIP3    H138380   5.091   6.535   1.258
 5607TIP3    H238381   5.067   6.490   1.115
 5608TIP3   OH238382   3.213   0.890   6.937
 5608TIP3    H138383   3.123   0.900   6.971
 5608TIP3    H238384   3.249   0.978   6.939
 5609TIP3   OH238385   2.418   1.798   7.139
 5609TIP3    H138386   2.478   1.869   7.164
 5609TIP3    H238387   2.455   1.764   7.058
 5610TIP3   OH238388   0.226   1.278   0.003
 5610TIP3    H138389   0.206   1.352   0.061
 5610TIP3    H238390   0.316   1.254   0.026
 5611TIP3   OH238391   4.528   0.489   0.802
 5611TIP3    H138392   4.501   0.422   0.739
 5611TIP3    H238393   4.621   0.502   0.783
 5612TIP3   OH238394   6.542   4.695   1.478
 5612TIP3    H138395   6.577   4.762   1.419
 5612TIP3    H238396   6.452   4.722   1.493
 5613TIP3   OH238397   3.120   1.746   0.221
 5613TIP3    H138398   3.209   1.779   0.235
 5613TIP3    H238399   3.071   1.822   0.191
 5614TIP3   OH238400   3.571   2.416   1.030
 5614TIP3    H138401   3.575   2.469   1.110
 5614TIP3    H238402   3.508   2.346   1.051
 5615TIP3   OH238403   4.550   3.834   7.204
 5615TIP3    H138404   4.589   3.922   7.208
 5615TIP3    H238405   4.529   3.813   7.295
 5616TIP3   OH238406   5.942   0.159   6.926
 5616TIP3    H138407   5.948   0.107   6.845
 5616TIP3    H238408   5.858   0.133   6.964
 5617TIP3   OH238409   0.045   5.180   0.639
 5617TIP3    H138410   0.082   5.107   0.688
 5617TIP3    H238411   0.111   5.201   0.573
 5618TIP3   OH238412   3.941   2.975   0.828
 5618TIP3    H138413   3.995   3.007   0.900
 5618TIP3    H238414   3.951   3.041   0.759
 5619TIP3   OH238415   0.930   2.443   7.303
 5619TIP3    H138416   0.845   2.485   7.290
 5619TIP3    H238417   0.910   2.350   7.309
 5620TIP3   OH238418   6.006   6.463   7.374
 5620TIP3    H138419   5.927   6.504   7.338
 5620TIP3    H238420   5.994   6.369   7.358
 5621TIP3   OH238421   5.976   2.206   7.493
 5621TIP3    H138422   6.043   2.269   7.467
 5621TIP3    H238423   6.020   2.121   7.489
 5622TIP3   OH238424   6.266   4.918   2.452
 5622TIP3    H138425   6.200   4.907   2.522
 5622TIP3    H238426   6.263   4.836   2.403
 5623TIP3   OH238427   0.342   0.075   8.479
 5623TIP3    H138428   0.253   0.107   8.489
 5623TIP3    H238429   0.340   0.025   8.398
 5624TIP3   OH238430   5.928   1.679   1.700
 5624TIP3    H138431   5.897   1.764   1.670
 5624TIP3    H238432   6.023   1.689   1.708
 5625TIP3   OH238433   4.424   4.574   0.650
 5625TIP3    H138434   4.501   4.617   0.687
 5625TIP3    H238435   4.374   4.644   0.609
 5626TIP3   OH238436   5.888   2.092   8.295
 5626TIP3    H138437   5.931   2.011   8.325
 5626TIP3    H238438   5.955   2.138   8.245
 5627TIP3   OH238439   6.819   2.725   7.903
 5627TIP3    H138440   0.009   2.672   7.925
 5627TIP3    H238441   6.819   2.795   7.969
 5628TIP3   OH238442   1.915   3.556   8.013
 5628TIP3    H138443   1.827   3.590   7.991
 5628TIP3    H238444   1.935   3.595   8.098
 5629TIP3   OH238445   4.648   5.140   7.997
 5629TIP3    H138446   4.653   5.183   7.912
 5629TIP3    H238447   4.660   5.212   8.060
 5630TIP3   OH238448   3.051   0.218   7.514
 5630TIP3    H138449   3.022   0.238   7.425
 5630TIP3    H238450   3.127   0.276   7.528
 5631TIP3   OH238451   5.477   3.070   0.225
 5631TIP3    H138452   5.501   3.155   0.188
 5631TIP3    H238453   5.558   3.019   0.221
 5632TIP3   OH238454   0.459   0.711   1.568
 5632TIP3    H138455   0.495   0.763   1.639
 5632TIP3    H238456   0.514   0.633   1.565
 5633TIP3   OH238457   0.425   1.010   0.305
 5633TIP3    H138458   0.517   1.030   0.326
 5633TIP3    H238459   0.381   1.095   0.309
 5634TIP3   OH238460   1.247   0.143   8.552
 5634TIP3    H138461   1.328   0.103   8.522
 5634TIP3    H238462   1.255   0.235   8.529
 5635TIP3   OH238463   3.735   0.755   1.472
 5635TIP3    H138464   3.772   0.822   1.530
 5635TIP3    H238465   3.643   0.779   1.463
 5636TIP3   OH238466   1.087   5.419   1.539
 5636TIP3    H138467   1.054   5.459   1.458
 5636TIP3    H238468   1.144   5.348   1.509
 5637TIP3   OH238469   3.365   0.224   0.076
 5637TIP3    H138470   3.370   0.318   0.091
 5637TIP3    H238471   3.271   0.204   0.075
 5638TIP3   OH238472   1.467   3.730   6.868
 5638TIP3    H138473   1.477   3.643   6.905
 5638TIP3    H238474   1.507   3.724   6.781
 5639TIP3   OH238475   5.635   1.054   0.760
 5639TIP3    H138476   5.634   1.140   0.802
 5639TIP3    H238477   5.725   1.044   0.728
 5640TIP3   OH238478   3.927   0.862   0.410
 5640TIP3    H138479   3.912   0.800   0.481
 5640TIP3    H238480   3.887   0.944   0.440
 5641TIP3   OH238481   1.176   3.980   1.358
 5641TIP3    H138482   1.093   4.027   1.345
 5641TIP3    H238483   1.239   4.049   1.380
 5642TIP3   OH238484   1.205   0.646   7.638
 5642TIP3    H138485   1.258   0.711   7.591
 5642TIP3    H238486   1.249   0.563   7.620
 5643TIP3   OH238487   0.342   6.204   2.543
 5643TIP3    H138488   0.249   6.221   2.527
 5643TIP3    H238489   0.382   6.203   2.457
 5644TIP3   OH238490   4.612   5.173   7.451
 5644TIP3    H138491   4.525   5.212   7.457
 5644TIP3    H238492   4.596   5.080   7.439
 5645TIP3   OH238493   6.087   2.817   0.143
 5645TIP3    H138494   6.122   2.783   0.226
 5645TIP3    H238495   5.995   2.792   0.144
 5646TIP3   OH238496   2.984   1.994   0.165
 5646TIP3    H138497   3.063   1.991   0.112
 5646TIP3    H238498   2.969   2.087   0.181
 5647TIP3   OH238499   6.572   0.912   7.569
 5647TIP3    H138500   6.504   0.849   7.595
 5647TIP3    H238501   6.634   0.911   7.642
 5648TIP3   OH238502   3.020   0.302   7.244
 5648TIP3    H138503   3.086   0.250   7.198
 5648TIP3    H238504   2.954   0.320   7.178
 5649TIP3   OH238505   3.890   2.676   1.448
 5649TIP3    H138506   3.961   2.626   1.408
 5649TIP3    H238507   3.921   2.693   1.537
 5650TIP3   OH238508   0.893   3.343   7.902
 5650TIP3    H138509   0.923   3.322   7.814
 5650TIP3    H238510   0.844   3.424   7.892
 5651TIP3   OH238511   1.390   4.609   0.560
 5651TIP3    H138512   1.346   4.687   0.593
 5651TIP3    H238513   1.430   4.570   0.638
 5652TIP3   OH238514   0.715   5.692   0.537
 5652TIP3    H138515   0.748   5.651   0.617
 5652TIP3    H238516   0.721   5.786   0.555
 5653TIP3   OH238517   2.328   0.669   7.670
 5653TIP3    H138518   2.411   0.711   7.648
 5653TIP3    H238519   2.353   0.585   7.710
 5654TIP3   OH238520   1.970   3.698   1.475
 5654TIP3    H138521   1.965   3.792   1.492
 5654TIP3    H238522   2.011   3.692   1.388
 5655TIP3   OH238523   5.929   3.445   0.435
 5655TIP3    H138524   5.973   3.429   0.518
 5655TIP3    H238525   5.943   3.365   0.384
 5656TIP3   OH238526   6.626   3.476   7.263
 5656TIP3    H138527   6.627   3.410   7.194
 5656TIP3    H238528   6.708   3.462   7.310
 5657TIP3   OH238529   0.147   2.353   1.632
 5657TIP3    H138530   0.061   2.394   1.628
 5657TIP3    H238531   0.139   2.286   1.700
 5658TIP3   OH238532   5.285   3.998   8.565
 5658TIP3    H138533   5.304   4.073   8.509
 5658TIP3    H238534   5.229   3.941   8.512
 5659TIP3   OH238535   3.247   3.810   7.001
 5659TIP3    H138536   3.235   3.856   7.084
 5659TIP3    H238537   3.230   3.718   7.021
 5660TIP3   OH238538   5.623   5.942   1.267
 5660TIP3    H138539   5.553   5.994   1.307
 5660TIP3    H238540   5.683   5.924   1.339
 5661TIP3   OH238541   1.798   5.583   7.655
 5661TIP3    H138542   1.847   5.506   7.626
 5661TIP3    H238543   1.829   5.600   7.744
 5662TIP3   OH238544   6.079   5.271   7.463
 5662TIP3    H138545   6.021   5.197   7.445
 5662TIP3    H238546   6.125   5.247   7.544
 5663TIP3   OH238547   6.737   2.020   0.055
 5663TIP3    H138548   6.730   2.097   8.613
 5663TIP3    H238549   6.818   2.033   0.105
 5664TIP3   OH238550   2.591   1.907   1.563
 5664TIP3    H138551   2.617   1.972   1.629
 5664TIP3    H238552   2.541   1.842   1.612
 5665TIP3   OH238553   5.250   5.414   0.725
 5665TIP3    H138554   5.255   5.426   0.820
 5665TIP3    H238555   5.335   5.444   0.693
 5666TIP3   OH238556   5.621   4.950   0.338
 5666TIP3    H138557   5.645   4.987   0.423
 5666TIP3    H238558   5.526   4.958   0.335
 5667TIP3   OH238559   0.024   5.674   0.486
 5667TIP3    H138560   0.042   5.751   0.432
 5667TIP3    H238561   0.003   5.709   0.573
 5668TIP3   OH238562   3.457   5.937   0.169
 5668TIP3    H138563   3.432   5.897   0.086
 5668TIP3    H238564   3.396   6.010   0.180
 5669TIP3   OH238565   5.741   5.182   1.810
 5669TIP3    H138566   5.726   5.231   1.890
 5669TIP3    H238567   5.835   5.187   1.795
 5670TIP3   OH238568   3.312   0.049   1.835
 5670TIP3    H138569   3.372   0.101   1.782
 5670TIP3    H238570   3.225   0.074   1.803
 5671TIP3   OH238571   5.064   6.593   1.878
 5671TIP3    H138572   5.084   6.502   1.900
 5671TIP3    H238573   4.984   6.614   1.926
 5672TIP3   OH238574   3.748   4.859   6.699
 5672TIP3    H138575   3.655   4.846   6.721
 5672TIP3    H238576   3.776   4.775   6.664
 5673TIP3   OH238577   3.552   1.971   7.970
 5673TIP3    H138578   3.522   1.920   7.895
 5673TIP3    H238579   3.622   2.027   7.935
 5674TIP3   OH238580   6.245   3.644   8.150
 5674TIP3    H138581   6.178   3.691   8.101
 5674TIP3    H238582   6.197   3.572   8.192
 5675TIP3   OH238583   4.165   1.324   1.810
 5675TIP3    H138584   4.204   1.372   1.738
 5675TIP3    H238585   4.117   1.253   1.769
 5676TIP3   OH238586   6.276   3.115   7.485
 5676TIP3    H138587   6.203   3.055   7.498
 5676TIP3    H238588   6.321   3.082   7.407
 5677TIP3   OH238589   5.487   1.919   7.546
 5677TIP3    H138590   5.497   1.978   7.621
 5677TIP3    H238591   5.552   1.950   7.483
 5678TIP3   OH238592   5.068   6.247   1.629
 5678TIP3    H138593   5.016   6.178   1.670
 5678TIP3    H238594   5.154   6.242   1.672
 5679TIP3   OH238595   6.173   3.228   8.448
 5679TIP3    H138596   6.264   3.249   8.469
 5679TIP3    H238597   6.123   3.258   8.524
 5680TIP3   OH238598   1.215   2.013   7.711
 5680TIP3    H138599   1.184   2.101   7.732
 5680TIP3    H238600   1.135   1.961   7.702
 5681TIP3   OH238601   2.405   1.716   0.919
 5681TIP3    H138602   2.311   1.734   0.917
 5681TIP3    H238603   2.443   1.773   0.852
 5682TIP3   OH238604   5.695   3.016   1.716
 5682TIP3    H138605   5.650   3.064   1.786
 5682TIP3    H238606   5.741   3.085   1.667
 5683TIP3   OH238607   5.277   0.807   0.975
 5683TIP3    H138608   5.298   0.847   0.891
 5683TIP3    H238609   5.199   0.854   1.004
 5684TIP3   OH238610   1.821   0.149   7.812
 5684TIP3    H138611   1.794   0.192   7.731
 5684TIP3    H238612   1.742   0.147   7.866
 5685TIP3   OH238613   4.355   6.021   0.836
 5685TIP3    H138614   4.284   5.969   0.798
 5685TIP3    H238615   4.326   6.039   0.926
 5686TIP3   OH238616   3.094   0.099   0.496
 5686TIP3    H138617   3.171   0.048   0.523
 5686TIP3    H238618   3.022   0.035   0.497
 5687TIP3   OH238619   0.563   5.721   0.899
 5687TIP3    H138620   0.573   5.807   0.859
 5687TIP3    H238621   0.539   5.739   0.989
 5688TIP3   OH238622   1.413   3.494   7.064
 5688TIP3    H138623   1.495   3.444   7.064
 5688TIP3    H238624   1.370   3.468   6.982
 5689TIP3   OH238625   0.143   1.913   8.181
 5689TIP3    H138626   0.055   1.946   8.197
 5689TIP3    H238627   0.182   1.905   8.268
 5690TIP3   OH238628   0.396   2.018   8.103
 5690TIP3    H138629   0.304   1.995   8.088
 5690TIP3    H238630   0.396   2.067   8.186
 5691TIP3   OH238631   1.954   4.481   7.839
 5691TIP3    H138632   1.885   4.436   7.888
 5691TIP3    H238633   1.914   4.500   7.754
 5692TIP3   OH238634   3.579   5.612   7.572
 5692TIP3    H138635   3.494   5.569   7.586
 5692TIP3    H238636   3.635   5.578   7.643
 5693TIP3   OH238637   0.587   3.636   2.526
 5693TIP3    H138638   0.556   3.644   2.616
 5693TIP3    H238639   0.508   3.621   2.474
 5694TIP3   OH238640   6.648   6.610   2.241
 5694TIP3    H138641   6.668   6.600   2.334
 5694TIP3    H238642   6.608   6.697   2.234
 5695TIP3   OH238643   5.941   1.415   6.616
 5695TIP3    H138644   5.965   1.323   6.622
 5695TIP3    H238645   5.845   1.416   6.618
 5696TIP3   OH238646   5.794   4.978   2.640
 5696TIP3    H138647   5.744   5.031   2.579
 5696TIP3    H238648   5.730   4.950   2.705
 5697TIP3   OH238649   6.339   2.921   0.840
 5697TIP3    H138650   6.360   2.828   0.826
 5697TIP3    H238651   6.395   2.946   0.914
 5698TIP3   OH238652   3.681   6.393   1.789
 5698TIP3    H138653   3.594   6.354   1.787
 5698TIP3    H238654   3.679   6.453   1.863
 5699TIP3   OH238655   2.709   1.586   1.154
 5699TIP3    H138656   2.634   1.638   1.183
 5699TIP3    H238657   2.672   1.527   1.088
 5700TIP3   OH238658   4.317   5.309   8.325
 5700TIP3    H138659   4.271   5.248   8.382
 5700TIP3    H238660   4.327   5.388   8.378
 5701TIP3   OH238661   0.946   0.234   8.218
 5701TIP3    H138662   0.918   0.145   8.240
 5701TIP3    H238663   0.973   0.229   8.127
 5702TIP3   OH238664   0.504   4.195   7.273
 5702TIP3    H138665   0.487   4.222   7.363
 5702TIP3    H238666   0.586   4.238   7.250
 5703TIP3   OH238667   0.601   4.881   0.678
 5703TIP3    H138668   0.565   4.966   0.657
 5703TIP3    H238669   0.527   4.831   0.714
 5704TIP3   OH238670   0.592   3.191   6.119
 5704TIP3    H138671   0.669   3.206   6.063
 5704TIP3    H238672   0.601   3.255   6.189
 5705TIP3   OH238673   5.995   3.936   6.807
 5705TIP3    H138674   6.046   3.855   6.805
 5705TIP3    H238675   5.908   3.909   6.837
 5706TIP3   OH238676   5.217   1.062   6.368
 5706TIP3    H138677   5.303   1.020   6.362
 5706TIP3    H238678   5.234   1.141   6.421
 5707TIP3   OH238679   6.310   0.061   6.703
 5707TIP3    H138680   6.344   6.886   6.639
 5707TIP3    H238681   6.268   0.006   6.770
 5708TIP3   OH238682   0.224   2.720   6.941
 5708TIP3    H138683   0.227   2.808   6.977
 5708TIP3    H238684   0.164   2.725   6.867
 5709TIP3   OH238685   1.172   2.038   8.321
 5709TIP3    H138686   1.251   2.009   8.365
 5709TIP3    H238687   1.167   1.985   8.242
 5710TIP3   OH238688   4.076   0.713   6.259
 5710TIP3    H138689   4.083   0.684   6.350
 5710TIP3    H238690   4.110   0.802   6.259
 5711TIP3   OH238691   4.578   0.739   0.591
 5711TIP3    H138692   4.487   0.758   0.613
 5711TIP3    H238693   4.618   0.714   0.675
 5712TIP3   OH238694   1.716   5.880   0.477
 5712TIP3    H138695   1.788   5.928   0.519
 5712TIP3    H238696   1.649   5.874   0.544
 5713TIP3   OH238697   1.116   5.052   2.697
 5713TIP3    H138698   1.193   5.014   2.737
 5713TIP3    H238699   1.148   5.130   2.652
 5714TIP3   OH238700   0.835   0.460   8.059
 5714TIP3    H138701   0.870   0.419   7.981
 5714TIP3    H238702   0.910   0.504   8.099
 5715TIP3   OH238703   1.741   4.424   0.529
 5715TIP3    H138704   1.779   4.337   0.521
 5715TIP3    H238705   1.648   4.408   0.546
 5716TIP3   OH238706   6.861   3.201   8.111
 5716TIP3    H138707   0.016   3.209   8.197
 5716TIP3    H238708   6.791   3.266   8.112
 5717TIP3   OH238709   0.038   4.915   1.900
 5717TIP3    H138710   0.043   4.948   1.989
 5717TIP3    H238711   6.859   4.845   1.904
 5718TIP3   OH238712   0.197   3.201   0.617
 5718TIP3    H138713   0.227   3.123   0.663
 5718TIP3    H238714   0.255   3.271   0.646
 5719TIP3   OH238715   3.795   2.617   0.496
 5719TIP3    H138716   3.848   2.652   0.568
 5719TIP3    H238717   3.706   2.619   0.529
 5720TIP3   OH238718   3.139   0.672   6.802
 5720TIP3    H138719   3.133   0.723   6.722
 5720TIP3    H238720   3.175   0.732   6.867
 5721TIP3   OH238721   5.740   1.138   7.725
 5721TIP3    H138722   5.743   1.105   7.635
 5721TIP3    H238723   5.832   1.155   7.747
 5722TIP3   OH238724   4.618   5.725   0.865
 5722TIP3    H138725   4.561   5.785   0.913
 5722TIP3    H238726   4.706   5.746   0.895
 5723TIP3   OH238727   2.751   0.565   7.503
 5723TIP3    H138728   2.845   0.563   7.484
 5723TIP3    H238729   2.716   0.486   7.460
 5724TIP3   OH238730   2.284   6.537   1.844
 5724TIP3    H138731   2.309   6.628   1.861
 5724TIP3    H238732   2.290   6.528   1.749
 5725TIP3   OH238733   6.614   2.016   1.764
 5725TIP3    H138734   6.679   2.041   1.830
 5725TIP3    H238735   6.592   1.925   1.785
 5726TIP3   OH238736   2.852   3.757   0.314
 5726TIP3    H138737   2.861   3.828   0.251
 5726TIP3    H238738   2.940   3.721   0.323
 5727TIP3   OH238739   4.249   1.781   0.713
 5727TIP3    H138740   4.253   1.802   0.620
 5727TIP3    H238741   4.195   1.850   0.751
 5728TIP3   OH238742   0.619   5.996   7.099
 5728TIP3    H138743   0.601   5.952   7.182
 5728TIP3    H238744   0.671   5.934   7.049
 5729TIP3   OH238745   3.971   1.479   2.291
 5729TIP3    H138746   3.930   1.535   2.357
 5729TIP3    H238747   4.007   1.541   2.227
 5730TIP3   OH238748   3.316   4.995   8.469
 5730TIP3    H138749   3.304   4.901   8.484
 5730TIP3    H238750   3.227   5.028   8.452
 5731TIP3   OH238751   0.994   1.415   0.760
 5731TIP3    H138752   0.940   1.369   0.824
 5731TIP3    H238753   1.035   1.346   0.708
 5732TIP3   OH238754   3.025   5.527   1.768
 5732TIP3    H138755   3.059   5.552   1.854
 5732TIP3    H238756   2.932   5.507   1.783
 5733TIP3   OH238757   5.869   5.170   6.769
 5733TIP3    H138758   5.825   5.188   6.852
 5733TIP3    H238759   5.962   5.173   6.789
 5734TIP3   OH238760   3.762   0.394   1.025
 5734TIP3    H138761   3.777   0.486   1.004
 5734TIP3    H238762   3.797   0.347   0.949
 5735TIP3   OH238763   3.022   0.574   7.394
 5735TIP3    H138764   2.998   0.497   7.341
 5735TIP3    H238765   3.118   0.573   7.395
 5736TIP3   OH238766   6.396   1.826   0.541
 5736TIP3    H138767   6.366   1.777   0.464
 5736TIP3    H238768   6.317   1.871   0.572
 5737TIP3   OH238769   6.098   3.443   8.214
 5737TIP3    H138770   6.083   3.389   8.136
 5737TIP3    H238771   6.103   3.381   8.286
 5738TIP3   OH238772   0.901   0.706   1.823
 5738TIP3    H138773   0.816   0.719   1.865
 5738TIP3    H238774   0.948   0.787   1.840
 5739TIP3   OH238775   3.278   6.123   0.414
 5739TIP3    H138776   3.368   6.156   0.421
 5739TIP3    H238777   3.274   6.050   0.475
 5740TIP3   OH238778   2.158   4.250   7.790
 5740TIP3    H138779   2.128   4.159   7.795
 5740TIP3    H238780   2.153   4.271   7.697
 5741TIP3   OH238781   3.087   4.367   8.266
 5741TIP3    H138782   3.078   4.340   8.358
 5741TIP3    H238783   3.138   4.448   8.270
 5742TIP3   OH238784   0.072   6.872   7.620
 5742TIP3    H138785   0.058   6.828   7.704
 5742TIP3    H238786   0.160   6.844   7.593
 5743TIP3   OH238787   3.994   5.021   0.930
 5743TIP3    H138788   3.923   5.078   0.959
 5743TIP3    H238789   3.994   5.029   0.835
 5744TIP3   OH238790   3.899   1.293   8.081
 5744TIP3    H138791   3.947   1.239   8.018
 5744TIP3    H238792   3.831   1.235   8.114
 5745TIP3   OH238793   4.734   4.307   7.323
 5745TIP3    H138794   4.817   4.268   7.349
 5745TIP3    H238795   4.703   4.253   7.250
 5746TIP3   OH238796   5.914   4.150   6.633
 5746TIP3    H138797   5.954   4.069   6.665
 5746TIP3    H238798   5.845   4.121   6.574
 5747TIP3   OH238799   0.917   1.749   1.322
 5747TIP3    H138800   0.996   1.696   1.319
 5747TIP3    H238801   0.942   1.827   1.372
 5748TIP3   OH238802   5.399   0.990   7.017
 5748TIP3    H138803   5.481   0.974   6.970
 5748TIP3    H238804   5.362   0.902   7.031
 5749TIP3   OH238805   3.682   6.660   1.477
 5749TIP3    H138806   3.639   6.623   1.400
 5749TIP3    H238807   3.663   6.598   1.548
 5750TIP3   OH238808   6.140   5.720   1.880
 5750TIP3    H138809   6.206   5.790   1.886
 5750TIP3    H238810   6.126   5.693   1.970
 5751TIP3   OH238811   1.951   5.796   2.651
 5751TIP3    H138812   1.990   5.763   2.570
 5751TIP3    H238813   1.945   5.890   2.637
 5752TIP3   OH238814   0.909   2.076   8.360
 5752TIP3    H138815   0.908   2.051   8.453
 5752TIP3    H238816   1.001   2.083   8.338
 5753TIP3   OH238817   3.269   3.683   1.330
 5753TIP3    H138818   3.200   3.684   1.263
 5753TIP3    H238819   3.288   3.590   1.342
 5754TIP3   OH238820   1.275   0.903   8.069
 5754TIP3    H138821   1.237   0.832   8.018
 5754TIP3    H238822   1.270   0.980   8.012
 5755TIP3   OH238823   1.459   5.241   8.153
 5755TIP3    H138824   1.513   5.182   8.206
 5755TIP3    H238825   1.512   5.260   8.076
 5756TIP3   OH238826   0.015   3.687   8.450
 5756TIP3    H138827   6.866   3.752   8.511
 5756TIP3    H238828   6.865   3.604   8.479
 5757TIP3   OH238829   4.840   4.785   7.351
 5757TIP3    H138830   4.806   4.701   7.320
 5757TIP3    H238831   4.852   4.772   7.445
 5758TIP3   OH238832   5.176   0.507   7.738
 5758TIP3    H138833   5.123   0.587   7.737
 5758TIP3    H238834   5.180   0.482   7.830
 5759TIP3   OH238835   3.498   2.106   1.783
 5759TIP3    H138836   3.436   2.147   1.723
 5759TIP3    H238837   3.560   2.176   1.805
 5760TIP3   OH238838   6.850   5.734   6.343
 5760TIP3    H138839   0.044   5.706   6.299
 5760TIP3    H238840   6.810   5.652   6.373
 5761TIP3   OH238841   4.579   4.794   2.077
 5761TIP3    H138842   4.635   4.852   2.026
 5761TIP3    H238843   4.490   4.816   2.050
 5762TIP3   OH238844   3.103   0.640   1.673
 5762TIP3    H138845   3.099   0.734   1.652
 5762TIP3    H238846   3.039   0.628   1.742
 5763TIP3   OH238847   5.556   6.379   2.590
 5763TIP3    H138848   5.603   6.399   2.509
 5763TIP3    H238849   5.547   6.464   2.633
 5764TIP3   OH238850   6.730   0.368   7.792
 5764TIP3    H138851   6.819   0.402   7.801
 5764TIP3    H238852   6.713   0.324   7.876
 5765TIP3   OH238853   5.428   4.664   8.173
 5765TIP3    H138854   5.515   4.685   8.140
 5765TIP3    H238855   5.443   4.632   8.262
 5766TIP3   OH238856   2.642   4.175   7.495
 5766TIP3    H138857   2.699   4.227   7.439
 5766TIP3    H238858   2.682   4.089   7.497
 5767TIP3   OH238859   3.539   3.675   1.358
 5767TIP3    H138860   3.580   3.692   1.273
 5767TIP3    H238861   3.447   3.698   1.346
 5768TIP3   OH238862   0.871   5.273   0.072
 5768TIP3    H138863   0.852   5.367   0.075
 5768TIP3    H238864   0.853   5.242   0.161
 5769TIP3   OH238865   5.674   0.888   6.855
 5769TIP3    H138866   5.595   0.873   6.803
 5769TIP3    H238867   5.743   0.902   6.790
 5770TIP3   OH238868   3.349   0.872   1.681
 5770TIP3    H138869   3.390   0.876   1.595
 5770TIP3    H238870   3.255   0.883   1.663
 5771TIP3   OH238871   5.027   2.595   1.887
 5771TIP3    H138872   4.986   2.546   1.958
 5771TIP3    H238873   4.956   2.645   1.847
 5772TIP3   OH238874   4.588   0.706   6.903
 5772TIP3    H138875   4.646   0.772   6.939
 5772TIP3    H238876   4.645   0.645   6.857
 5773TIP3   OH238877   1.873   1.968   7.929
 5773TIP3    H138878   1.924   2.003   7.855
 5773TIP3    H238879   1.786   1.952   7.892
 5774TIP3   OH238880   6.626   3.951   7.655
 5774TIP3    H138881   6.707   3.989   7.620
 5774TIP3    H238882   6.651   3.863   7.683
 5775TIP3   OH238883   1.971   0.438   0.317
 5775TIP3    H138884   1.896   0.387   0.288
 5775TIP3    H238885   2.040   0.373   0.332
 5776TIP3   OH238886   1.341   0.359   2.158
 5776TIP3    H138887   1.295   0.276   2.172
 5776TIP3    H238888   1.388   0.346   2.076
 5777TIP3   OH238889   3.168   6.123   0.704
 5777TIP3    H138890   3.239   6.155   0.760
 5777TIP3    H238891   3.197   6.036   0.676
 5778TIP3   OH238892   6.471   2.054   8.448
 5778TIP3    H138893   6.523   2.124   8.486
 5778TIP3    H238894   6.511   2.038   8.362
 5779TIP3   OH238895   2.934   3.888   2.050
 5779TIP3    H138896   2.873   3.835   2.102
 5779TIP3    H238897   2.988   3.823   2.005
 5780TIP3   OH238898   2.310   4.459   1.084
 5780TIP3    H138899   2.214   4.466   1.087
 5780TIP3    H238900   2.338   4.502   1.165
 5781TIP3   OH238901   6.756   2.215   1.912
 5781TIP3    H138902   6.735   2.197   2.004
 5781TIP3    H238903   6.749   2.310   1.904
 5782TIP3   OH238904   4.642   2.439   0.511
 5782TIP3    H138905   4.642   2.533   0.527
 5782TIP3    H238906   4.643   2.400   0.598
 5783TIP3   OH238907   4.306   1.697   1.824
 5783TIP3    H138908   4.344   1.609   1.828
 5783TIP3    H238909   4.377   1.755   1.850
 5784TIP3   OH238910   2.861   1.439   8.400
 5784TIP3    H138911   2.876   1.372   8.466
 5784TIP3    H238912   2.895   1.520   8.439
 5785TIP3   OH238913   5.241   3.563   0.726
 5785TIP3    H138914   5.317   3.598   0.772
 5785TIP3    H238915   5.272   3.549   0.637
 5786TIP3   OH238916   1.539   6.323   1.787
 5786TIP3    H138917   1.631   6.297   1.796
 5786TIP3    H238918   1.542   6.395   1.724
 5787TIP3   OH238919   1.415   1.329   6.850
 5787TIP3    H138920   1.465   1.410   6.862
 5787TIP3    H238921   1.482   1.261   6.842
 5788TIP3   OH238922   5.157   3.218   0.667
 5788TIP3    H138923   5.212   3.140   0.660
 5788TIP3    H238924   5.206   3.277   0.723
 5789TIP3   OH238925   4.864   3.583   8.000
 5789TIP3    H138926   4.785   3.615   7.956
 5789TIP3    H238927   4.925   3.563   7.929
 5790TIP3   OH238928   3.933   1.067   0.186
 5790TIP3    H138929   3.881   1.134   0.143
 5790TIP3    H238930   3.895   1.061   0.274
 5791TIP3   OH238931   4.721   5.415   8.109
 5791TIP3    H138932   4.740   5.509   8.108
 5791TIP3    H238933   4.794   5.376   8.156
 5792TIP3   OH238934   6.218   2.816   8.501
 5792TIP3    H138935   6.178   2.794   8.585
 5792TIP3    H238936   6.198   2.741   8.445
 5793TIP3   OH238937   4.613   0.948   0.258
 5793TIP3    H138938   4.684   1.008   0.236
 5793TIP3    H238939   4.547   0.962   0.190
 5794TIP3   OH238940   5.636   5.331   0.913
 5794TIP3    H138941   5.602   5.327   1.002
 5794TIP3    H238942   5.654   5.424   0.898
 5795TIP3   OH238943   6.341   4.187   0.001
 5795TIP3    H138944   6.334   4.098   8.582
 5795TIP3    H238945   6.436   4.202   0.008
 5796TIP3   OH238946   2.746   5.460   1.833
 5796TIP3    H138947   2.742   5.418   1.919
 5796TIP3    H238948   2.669   5.517   1.832
 5797TIP3   OH238949   3.398   0.103   0.310
 5797TIP3    H138950   3.397   0.148   0.226
 5797TIP3    H238951   3.320   0.048   0.309
 5798TIP3   OH238952   0.832   5.748   8.456
 5798TIP3    H138953   0.861   5.698   8.380
 5798TIP3    H238954   0.871   5.835   8.444
 5799TIP3   OH238955   2.153   2.427   8.100
 5799TIP3    H138956   2.184   2.369   8.030
 5799TIP3    H238957   2.060   2.437   8.082
 5800TIP3   OH238958   0.684   3.128   1.938
 5800TIP3    H138959   0.674   3.127   1.843
 5800TIP3    H238960   0.725   3.212   1.957
 5801TIP3   OH238961   1.385   3.804   0.233
 5801TIP3    H138962   1.335   3.878   0.201
 5801TIP3    H238963   1.322   3.753   0.284
 5802TIP3   OH238964   1.479   2.563   0.435
 5802TIP3    H138965   1.393   2.583   0.397
 5802TIP3    H238966   1.480   2.467   0.443
 5803TIP3   OH238967   4.153   6.664   7.785
 5803TIP3    H138968   4.081   6.642   7.725
 5803TIP3    H238969   4.112   6.717   7.852
 5804TIP3   OH238970   4.832   0.199   1.817
 5804TIP3    H138971   4.801   0.246   1.740
 5804TIP3    H238972   4.835   0.264   1.886
 5805TIP3   OH238973   4.749   4.032   0.093
 5805TIP3    H138974   4.740   4.116   0.139
 5805TIP3    H238975   4.741   3.967   0.162
 5806TIP3   OH238976   1.999   0.066   1.081
 5806TIP3    H138977   2.001   0.089   0.988
 5806TIP3    H238978   2.057   0.131   1.122
 5807TIP3   OH238979   0.639   4.114   7.991
 5807TIP3    H138980   0.658   4.033   7.942
 5807TIP3    H238981   0.693   4.181   7.948
 5808TIP3   OH238982   5.987   4.984   8.271
 5808TIP3    H138983   6.030   5.028   8.198
 5808TIP3    H238984   5.908   5.036   8.286
 5809TIP3   OH238985   6.363   5.365   2.424
 5809TIP3    H138986   6.415   5.435   2.462
 5809TIP3    H238987   6.274   5.399   2.423
 5810TIP3   OH238988   2.809   4.835   7.346
 5810TIP3    H138989   2.774   4.755   7.383
 5810TIP3    H238990   2.863   4.806   7.272
 5811TIP3   OH238991   1.745   0.286   7.554
 5811TIP3    H138992   1.688   0.342   7.502
 5811TIP3    H238993   1.764   0.211   7.498
 5812TIP3   OH238994   4.864   6.704   6.314
 5812TIP3    H138995   4.944   6.689   6.262
 5812TIP3    H238996   4.799   6.647   6.274
 5813TIP3   OH238997   0.946   6.857   7.192
 5813TIP3    H138998   0.982   6.859   7.281
 5813TIP3    H238999   1.014   6.814   7.140
 5814TIP3   OH239000   0.909   1.922   8.597
 5814TIP3    H139001   0.920   1.834   8.560
 5814TIP3    H239002   0.975   1.927   0.052
 5815TIP3   OH239003   4.452   0.222   6.978
 5815TIP3    H139004   4.413   0.187   6.898
 5815TIP3    H239005   4.378   0.231   7.038
 5816TIP3   OH239006   0.274   3.903   2.324
 5816TIP3    H139007   0.243   3.953   2.399
 5816TIP3    H239008   0.213   3.926   2.254
 5817TIP3   OH239009   0.926   5.543   7.989
 5817TIP3    H139010   0.881   5.557   7.906
 5817TIP3    H239011   0.958   5.453   7.985
 5818TIP3   OH239012   2.088   5.143   0.801
 5818TIP3    H139013   2.072   5.073   0.738
 5818TIP3    H239014   2.018   5.205   0.786
 5819TIP3   OH239015   0.260   3.101   1.902
 5819TIP3    H139016   0.264   3.071   1.992
 5819TIP3    H239017   0.275   3.023   1.849
 5820TIP3   OH239018   0.733   5.818   7.481
 5820TIP3    H139019   0.727   5.756   7.554
 5820TIP3    H239020   0.671   5.785   7.416
 5821TIP3   OH239021   6.859   6.289   6.713
 5821TIP3    H139022   6.886   6.231   6.641
 5821TIP3    H239023   6.810   6.359   6.670
 5822TIP3   OH239024   5.373   0.497   7.221
 5822TIP3    H139025   5.345   0.439   7.292
 5822TIP3    H239026   5.444   0.450   7.178
 5823TIP3   OH239027   6.771   3.882   1.714
 5823TIP3    H139028   6.699   3.828   1.746
 5823TIP3    H239029   6.797   3.935   1.790
 5824TIP3   OH239030   4.432   5.895   8.494
 5824TIP3    H139031   4.378   5.969   8.465
 5824TIP3    H239032   4.425   5.831   8.423
 5825TIP3   OH239033   5.343   5.911   0.527
 5825TIP3    H139034   5.283   5.891   0.599
 5825TIP3    H239035   5.424   5.938   0.571
 5826TIP3   OH239036   2.778   1.669   0.705
 5826TIP3    H139037   2.779   1.709   0.792
 5826TIP3    H239038   2.797   1.741   0.645
 5827TIP3   OH239039   6.590   3.382   6.672
 5827TIP3    H139040   6.583   3.312   6.737
 5827TIP3    H239041   6.642   3.345   6.601
 5828TIP3   OH239042   3.440   6.699   8.307
 5828TIP3    H139043   3.453   6.771   8.369
 5828TIP3    H239044   3.436   6.621   8.362
 5829TIP3   OH239045   2.304   0.492   8.243
 5829TIP3    H139046   2.259   0.413   8.272
 5829TIP3    H239047   2.234   0.554   8.224
 5830TIP3   OH239048   3.363   3.652   1.032
 5830TIP3    H139049   3.290   3.700   1.071
 5830TIP3    H239050   3.321   3.578   0.988
 5831TIP3   OH239051   5.775   0.857   1.131
 5831TIP3    H139052   5.682   0.867   1.110
 5831TIP3    H239053   5.788   0.909   1.210
 5832TIP3   OH239054   6.598   2.144   1.373
 5832TIP3    H139055   6.564   2.062   1.337
 5832TIP3    H239056   6.522   2.183   1.417
 5833TIP3   OH239057   4.993   6.591   0.942
 5833TIP3    H139058   5.021   6.646   0.870
 5833TIP3    H239059   4.962   6.652   1.009
 5834TIP3   OH239060   1.118   2.753   0.865
 5834TIP3    H139061   1.034   2.708   0.874
 5834TIP3    H239062   1.126   2.771   0.771
 5835TIP3   OH239063   1.351   1.766   0.202
 5835TIP3    H139064   1.284   1.811   0.151
 5835TIP3    H239065   1.418   1.833   0.217
 5836TIP3   OH239066   3.460   3.247   7.795
 5836TIP3    H139067   3.378   3.244   7.843
 5836TIP3    H239068   3.514   3.178   7.835
 5837TIP3   OH239069   5.164   2.002   8.248
 5837TIP3    H139070   5.224   2.019   8.321
 5837TIP3    H239071   5.212   1.942   8.191
 5838TIP3   OH239072   3.006   5.130   6.722
 5838TIP3    H139073   2.965   5.086   6.797
 5838TIP3    H239074   2.957   5.099   6.646
 5839TIP3   OH239075   6.040   6.803   8.392
 5839TIP3    H139076   5.997   6.783   8.475
 5839TIP3    H239077   5.969   6.836   8.335
 5840TIP3   OH239078   6.649   4.173   1.158
 5840TIP3    H139079   6.673   4.251   1.108
 5840TIP3    H239080   6.620   4.110   1.092
 5841TIP3   OH239081   2.032   4.730   7.571
 5841TIP3    H139082   1.960   4.745   7.511
 5841TIP3    H239083   1.994   4.745   7.658
 5842TIP3   OH239084   5.281   1.267   8.412
 5842TIP3    H139085   5.344   1.275   8.484
 5842TIP3    H239086   5.299   1.341   8.355
 5843TIP3   OH239087   4.945   1.640   1.784
 5843TIP3    H139088   4.908   1.552   1.790
 5843TIP3    H239089   4.884   1.694   1.834
 5844TIP3   OH239090   0.874   3.496   7.490
 5844TIP3    H139091   0.925   3.530   7.416
 5844TIP3    H239092   0.805   3.561   7.503
 5845TIP3   OH239093   5.275   2.472   8.165
 5845TIP3    H139094   5.353   2.435   8.124
 5845TIP3    H239095   5.224   2.396   8.192
 5846TIP3   OH239096   1.781   5.378   0.683
 5846TIP3    H139097   1.687   5.358   0.690
 5846TIP3    H239098   1.785   5.474   0.686
 5847TIP3   OH239099   0.324   2.767   7.537
 5847TIP3    H139100   0.325   2.854   7.577
 5847TIP3    H239101   0.312   2.783   7.444
 5848TIP3   OH239102   6.181   2.689   1.141
 5848TIP3    H139103   6.125   2.700   1.218
 5848TIP3    H239104   6.231   2.770   1.135
 5849TIP3   OH239105   2.767   2.171   8.352
 5849TIP3    H139106   2.793   2.246   8.298
 5849TIP3    H239107   2.737   2.105   8.289
 5850TIP3   OH239108   1.659   0.523   0.876
 5850TIP3    H139109   1.734   0.478   0.914
 5850TIP3    H239110   1.649   0.602   0.928
 5851TIP3   OH239111   1.612   5.816   6.595
 5851TIP3    H139112   1.700   5.833   6.562
 5851TIP3    H239113   1.560   5.891   6.564
 5852TIP3   OH239114   4.033   4.606   1.501
 5852TIP3    H139115   3.983   4.566   1.430
 5852TIP3    H239116   4.069   4.686   1.464
 5853TIP3   OH239117   0.950   2.904   0.339
 5853TIP3    H139118   1.040   2.877   0.321
 5853TIP3    H239119   0.959   2.991   0.378
 5854TIP3   OH239120   3.360   2.245   0.134
 5854TIP3    H139121   3.324   2.164   0.098
 5854TIP3    H239122   3.284   2.302   0.144
 5855TIP3   OH239123   0.744   5.309   8.024
 5855TIP3    H139124   0.782   5.298   8.112
 5855TIP3    H239125   0.809   5.270   7.965
 5856TIP3   OH239126   2.759   6.666   8.375
 5856TIP3    H139127   2.775   6.672   8.469
 5856TIP3    H239128   2.846   6.675   8.335
 5857TIP3   OH239129   6.083   6.024   1.332
 5857TIP3    H139130   5.998   6.067   1.324
 5857TIP3    H239131   6.082   5.984   1.419
 5858TIP3   OH239132   1.150   1.814   0.450
 5858TIP3    H139133   1.204   1.738   0.428
 5858TIP3    H239134   1.129   1.803   0.542
 5859TIP3   OH239135   0.718   0.115   0.472
 5859TIP3    H139136   0.783   0.051   0.500
 5859TIP3    H239137   0.691   0.086   0.385
 5860TIP3   OH239138   6.654   6.639   0.206
 5860TIP3    H139139   6.705   6.613   0.283
 5860TIP3    H239140   6.711   6.703   0.161
 5861TIP3   OH239141   3.099   5.705   0.816
 5861TIP3    H139142   3.166   5.637   0.802
 5861TIP3    H239143   3.064   5.686   0.903
 5862TIP3   OH239144   5.249   5.492   1.000
 5862TIP3    H139145   5.219   5.564   1.056
 5862TIP3    H239146   5.337   5.472   1.032
 5863TIP3   OH239147   5.338   5.390   6.369
 5863TIP3    H139148   5.365   5.442   6.445
 5863TIP3    H239149   5.318   5.454   6.302
 5864TIP3   OH239150   0.304   0.782   0.710
 5864TIP3    H139151   0.380   0.728   0.732
 5864TIP3    H239152   0.280   0.823   0.793
 5865TIP3   OH239153   3.921   4.477   1.974
 5865TIP3    H139154   3.913   4.461   1.880
 5865TIP3    H239155   3.913   4.572   1.983
 5866TIP3   OH239156   4.013   1.483   7.500
 5866TIP3    H139157   4.074   1.464   7.571
 5866TIP3    H239158   4.038   1.421   7.431
 5867TIP3   OH239159   4.763   1.334   0.067
 5867TIP3    H139160   4.838   1.282   0.038
 5867TIP3    H239161   4.700   1.270   0.099
 5868TIP3   OH239162   0.771   6.311   6.640
 5868TIP3    H139163   0.771   6.216   6.646
 5868TIP3    H239164   0.695   6.339   6.690
 5869TIP3   OH239165   3.784   0.049   1.489
 5869TIP3    H139166   3.727   0.115   1.449
 5869TIP3    H239167   3.731   6.857   1.491
 5870TIP3   OH239168   3.836   0.840   7.689
 5870TIP3    H139169   3.830   0.810   7.598
 5870TIP3    H239170   3.870   0.764   7.736
 5871TIP3   OH239171   4.051   6.717   8.332
 5871TIP3    H139172   4.134   6.742   8.293
 5871TIP3    H239173   4.075   6.671   8.413
 5872TIP3   OH239174   6.125   2.092   1.528
 5872TIP3    H139175   6.047   2.037   1.523
 5872TIP3    H239176   6.152   2.087   1.620
 5873TIP3   OH239177   2.905   2.341   7.546
 5873TIP3    H139178   2.973   2.392   7.503
 5873TIP3    H239179   2.848   2.312   7.475
 5874TIP3   OH239180   3.303   5.540   8.432
 5874TIP3    H139181   3.392   5.510   8.412
 5874TIP3    H239182   3.317   5.618   8.486
 5875TIP3   OH239183   0.202   0.943   0.497
 5875TIP3    H139184   0.271   1.008   0.481
 5875TIP3    H239185   0.225   0.904   0.581
 5876TIP3   OH239186   0.733   2.766   0.118
 5876TIP3    H139187   0.699   2.704   0.182
 5876TIP3    H239188   0.681   2.846   0.131
 5877TIP3   OH239189   5.928   3.208   0.335
 5877TIP3    H139190   5.847   3.165   0.364
 5877TIP3    H239191   5.981   3.136   0.299
 5878TIP3   OH239192   0.758   6.214   7.997
 5878TIP3    H139193   0.779   6.137   7.944
 5878TIP3    H239194   0.841   6.258   8.010
 5879TIP3   OH239195   5.754   0.986   1.790
 5879TIP3    H139196   5.826   0.922   1.789
 5879TIP3    H239197   5.766   1.034   1.872
 5880TIP3   OH239198   6.217   0.141   6.984
 5880TIP3    H139199   6.129   0.178   6.979
 5880TIP3    H239200   6.220   0.098   7.070
 5881TIP3   OH239201   1.390   4.622   0.218
 5881TIP3    H139202   1.444   4.653   0.290
 5881TIP3    H239203   1.317   4.577   0.260
 5882TIP3   OH239204   6.474   0.285   6.907
 5882TIP3    H139205   6.397   0.285   6.965
 5882TIP3    H239206   6.443   0.243   6.827
 5883TIP3   OH239207   6.396   1.958   6.595
 5883TIP3    H139208   6.432   1.992   6.513
 5883TIP3    H239209   6.344   2.030   6.630
 5884TIP3   OH239210   5.934   3.704   1.966
 5884TIP3    H139211   5.863   3.663   2.015
 5884TIP3    H239212   5.964   3.775   2.022
 5885TIP3   OH239213   4.380   0.078   6.744
 5885TIP3    H139214   4.358   0.056   6.653
 5885TIP3    H239215   4.419   6.885   6.779
 5886TIP3   OH239216   1.288   5.131   2.304
 5886TIP3    H139217   1.335   5.050   2.326
 5886TIP3    H239218   1.270   5.172   2.388
 5887TIP3   OH239219   1.243   2.708   8.029
 5887TIP3    H139220   1.306   2.640   8.053
 5887TIP3    H239221   1.158   2.664   8.036
 5888TIP3   OH239222   3.881   5.072   6.826
 5888TIP3    H139223   3.789   5.073   6.851
 5888TIP3    H239224   3.905   4.980   6.822
 5889TIP3   OH239225   4.919   5.853   0.097
 5889TIP3    H139226   4.985   5.868   0.029
 5889TIP3    H239227   4.969   5.838   0.177
 5890TIP3   OH239228   0.828   5.890   0.259
 5890TIP3    H139229   0.823   5.805   0.303
 5890TIP3    H239230   0.741   5.902   0.221
 5891TIP3   OH239231   5.024   2.012   1.258
 5891TIP3    H139232   5.092   2.004   1.192
 5891TIP3    H239233   4.942   2.012   1.209
 5892TIP3   OH239234   3.110   4.679   1.106
 5892TIP3    H139235   3.144   4.765   1.080
 5892TIP3    H239236   3.099   4.632   1.023
 5893TIP3   OH239237   1.558   3.270   8.380
 5893TIP3    H139238   1.558   3.298   8.288
 5893TIP3    H239239   1.638   3.308   8.416
 5894TIP3   OH239240   2.550   1.505   7.846
 5894TIP3    H139241   2.578   1.440   7.911
 5894TIP3    H239242   2.625   1.564   7.837
 5895TIP3   OH239243   5.059   1.448   6.393
 5895TIP3    H139244   5.110   1.395   6.332
 5895TIP3    H239245   5.125   1.497   6.443
 5896TIP3   OH239246   3.144   2.985   0.969
 5896TIP3    H139247   3.128   2.894   0.995
 5896TIP3    H239248   3.232   2.985   0.931
 5897TIP3   OH239249   5.379   5.258   0.420
 5897TIP3    H139250   5.462   5.305   0.413
 5897TIP3    H239251   5.328   5.289   0.346
 5898TIP3   OH239252   4.233   6.087   8.410
 5898TIP3    H139253   4.165   6.144   8.446
 5898TIP3    H239254   4.241   6.114   8.319
 5899TIP3   OH239255   1.813   3.884   7.884
 5899TIP3    H139256   1.755   3.817   7.920
 5899TIP3    H239257   1.757   3.935   7.825
 5900TIP3   OH239258   4.177   1.733   7.095
 5900TIP3    H139259   4.187   1.743   7.000
 5900TIP3    H239260   4.254   1.683   7.123
 5901TIP3   OH239261   2.763   5.961   1.324
 5901TIP3    H139262   2.845   5.915   1.305
 5901TIP3    H239263   2.729   5.987   1.238
 5902TIP3   OH239264   6.463   1.896   6.877
 5902TIP3    H139265   6.426   1.917   6.791
 5902TIP3    H239266   6.469   1.981   6.922
 5903TIP3   OH239267   1.386   4.241   7.085
 5903TIP3    H139268   1.388   4.153   7.048
 5903TIP3    H239269   1.409   4.298   7.011
 5904TIP3   OH239270   1.580   3.651   0.340
 5904TIP3    H139271   1.607   3.572   0.294
 5904TIP3    H239272   1.525   3.698   0.276
 5905TIP3   OH239273   2.016   2.129   0.950
 5905TIP3    H139274   1.988   2.181   0.874
 5905TIP3    H239275   1.934   2.096   0.987
 5906TIP3   OH239276   4.494   5.908   0.393
 5906TIP3    H139277   4.568   5.861   0.429
 5906TIP3    H239278   4.515   5.917   0.300
 5907TIP3   OH239279   2.604   0.443   7.092
 5907TIP3    H139280   2.694   0.420   7.070
 5907TIP3    H239281   2.600   0.538   7.081
 5908TIP3   OH239282   2.279   6.431   8.468
 5908TIP3    H139283   2.361   6.382   8.462
 5908TIP3    H239284   2.230   6.404   8.391
 5909TIP3   OH239285   3.437   0.272   0.661
 5909TIP3    H139286   3.388   0.235   0.588
 5909TIP3    H239287   3.398   0.230   0.739
 5910TIP3   OH239288   6.770   2.415   8.287
 5910TIP3    H139289   6.811   2.359   8.222
 5910TIP3    H239290   6.680   2.425   8.257
 5911TIP3   OH239291   4.809   0.320   6.754
 5911TIP3    H139292   4.801   0.412   6.726
 5911TIP3    H239293   4.863   0.279   6.686
 5912TIP3   OH239294   1.724   0.143   2.256
 5912TIP3    H139295   1.726   0.060   2.303
 5912TIP3    H239296   1.761   0.206   2.318
 5913TIP3   OH239297   3.661   6.564   7.085
 5913TIP3    H139298   3.584   6.612   7.115
 5913TIP3    H239299   3.659   6.483   7.135
 5914TIP3   OH239300   1.578   2.520   7.429
 5914TIP3    H139301   1.645   2.471   7.382
 5914TIP3    H239302   1.627   2.579   7.486
 5915TIP3   OH239303   2.385   1.737   7.915
 5915TIP3    H139304   2.429   1.655   7.895
 5915TIP3    H239305   2.439   1.779   7.982
 5916TIP3   OH239306   3.695   3.392   1.034
 5916TIP3    H139307   3.786   3.405   1.059
 5916TIP3    H239308   3.667   3.316   1.085
 5917TIP3   OH239309   5.066   6.132   7.703
 5917TIP3    H139310   5.077   6.038   7.686
 5917TIP3    H239311   5.101   6.174   7.624
 5918TIP3   OH239312   5.515   6.747   8.577
 5918TIP3    H139313   5.433   6.796   8.586
 5918TIP3    H239314   5.497   6.662   0.004
 5919TIP3   OH239315   3.669   2.313   1.829
 5919TIP3    H139316   3.704   2.385   1.880
 5919TIP3    H239317   3.691   2.334   1.738
 5920TIP3   OH239318   2.144   5.748   6.922
 5920TIP3    H139319   2.140   5.742   7.018
 5920TIP3    H239320   2.237   5.754   6.902
 5921TIP3   OH239321   6.687   3.480   1.250
 5921TIP3    H139322   6.781   3.473   1.234
 5921TIP3    H239323   6.659   3.390   1.268
 5922TIP3   OH239324   6.205   5.854   1.146
 5922TIP3    H139325   6.140   5.787   1.125
 5922TIP3    H239326   6.154   5.926   1.183
 5923TIP3   OH239327   2.176   4.656   7.957
 5923TIP3    H139328   2.191   4.712   7.881
 5923TIP3    H239329   2.137   4.714   8.022
 5924TIP3   OH239330   1.810   0.202   0.313
 5924TIP3    H139331   1.819   0.108   0.298
 5924TIP3    H239332   1.737   0.210   0.375
 5925TIP3   OH239333   4.508   6.640   1.026
 5925TIP3    H139334   4.543   6.578   0.962
 5925TIP3    H239335   4.583   6.662   1.082
 5926TIP3   OH239336   5.137   2.896   2.548
 5926TIP3    H139337   5.095   2.863   2.628
 5926TIP3    H239338   5.231   2.892   2.567
 5927TIP3   OH239339   6.512   2.124   7.891
 5927TIP3    H139340   6.525   2.218   7.874
 5927TIP3    H239341   6.477   2.090   7.808
 5928TIP3   OH239342   6.451   5.915   8.125
 5928TIP3    H139343   6.484   5.833   8.163
 5928TIP3    H239344   6.447   5.897   8.031
 5929TIP3   OH239345   2.950   4.703   0.326
 5929TIP3    H139346   2.882   4.752   0.372
 5929TIP3    H239347   3.000   4.660   0.396
 5930TIP3   OH239348   2.397   4.321   0.213
 5930TIP3    H139349   2.377   4.284   0.298
 5930TIP3    H239350   2.396   4.416   0.227
 5931TIP3   OH239351   4.218   1.335   0.154
 5931TIP3    H139352   4.216   1.366   0.245
 5931TIP3    H239353   4.274   1.398   0.109
 5932TIP3   OH239354   6.502   1.438   8.026
 5932TIP3    H139355   6.586   1.396   8.043
 5932TIP3    H239356   6.438   1.380   8.067
 5933TIP3   OH239357   0.009   1.227   1.228
 5933TIP3    H139358   6.801   1.235   1.232
 5933TIP3    H239359   0.024   1.141   1.188
 5934TIP3   OH239360   6.547   0.137   0.773
 5934TIP3    H139361   6.636   0.108   0.792
 5934TIP3    H239362   6.533   0.113   0.682
 5935TIP3   OH239363   6.847   2.818   8.590
 5935TIP3    H139364   6.843   2.782   8.502
 5935TIP3    H239365   6.862   2.742   0.032
 5936TIP3   OH239366   5.531   6.058   0.154
 5936TIP3    H139367   5.560   5.969   0.176
 5936TIP3    H239368   5.526   6.102   0.239
 5937TIP3   OH239369   1.656   6.808   7.844
 5937TIP3    H139370   1.593   6.750   7.887
 5937TIP3    H239371   1.738   6.760   7.846
 5938TIP3   OH239372   5.818   2.289   7.280
 5938TIP3    H139373   5.890   2.267   7.339
 5938TIP3    H239374   5.771   2.360   7.324
 5939TIP3   OH239375   2.328   3.235   0.896
 5939TIP3    H139376   2.387   3.307   0.876
 5939TIP3    H239377   2.301   3.201   0.810
 5940TIP3   OH239378   5.227   6.732   1.710
 5940TIP3    H139379   5.172   6.694   1.779
 5940TIP3    H239380   5.166   6.782   1.655
 5941TIP3   OH239381   2.024   0.715   2.611
 5941TIP3    H139382   2.053   0.636   2.657
 5941TIP3    H239383   1.932   0.698   2.591
 5942TIP3   OH239384   4.125   6.302   7.833
 5942TIP3    H139385   4.077   6.323   7.754
 5942TIP3    H239386   4.195   6.368   7.837
 5943TIP3   OH239387   6.455   2.887   7.535
 5943TIP3    H139388   6.502   2.808   7.563
 5943TIP3    H239389   6.523   2.954   7.528
 5944TIP3   OH239390   5.999   0.249   7.284
 5944TIP3    H139391   5.922   0.192   7.285
 5944TIP3    H239392   6.071   0.191   7.259
 5945TIP3   OH239393   1.677   3.061   7.608
 5945TIP3    H139394   1.601   3.067   7.665
 5945TIP3    H239395   1.700   3.152   7.588
 5946TIP3   OH239396   5.683   1.964   8.533
 5946TIP3    H139397   5.723   1.877   8.537
 5946TIP3    H239398   5.641   1.968   8.448
 5947TIP3   OH239399   1.904   6.130   8.108
 5947TIP3    H139400   1.854   6.195   8.156
 5947TIP3    H239401   1.850   6.109   8.031
 5948TIP3   OH239402   4.342   3.357   1.437
 5948TIP3    H139403   4.329   3.417   1.363
 5948TIP3    H239404   4.270   3.377   1.497
 5949TIP3   OH239405   2.469   6.191   7.728
 5949TIP3    H139406   2.459   6.122   7.793
 5949TIP3    H239407   2.492   6.144   7.647
 5950TIP3   OH239408   6.141   6.704   7.407
 5950TIP3    H139409   6.233   6.684   7.386
 5950TIP3    H239410   6.092   6.627   7.378
 5951TIP3   OH239411   0.578   6.385   0.802
 5951TIP3    H139412   0.552   6.352   0.888
 5951TIP3    H239413   0.496   6.416   0.762
 5952TIP3   OH239414   4.223   2.487   6.940
 5952TIP3    H139415   4.215   2.405   6.988
 5952TIP3    H239416   4.190   2.467   6.852
 5953TIP3   OH239417   0.896   2.192   7.617
 5953TIP3    H139418   0.949   2.206   7.695
 5953TIP3    H239419   0.807   2.180   7.650
 5954TIP3   OH239420   4.618   1.280   7.391
 5954TIP3    H139421   4.564   1.325   7.455
 5954TIP3    H239422   4.582   1.307   7.306
 5955TIP3   OH239423   6.434   4.550   2.145
 5955TIP3    H139424   6.394   4.476   2.101
 5955TIP3    H239425   6.361   4.605   2.173
 5956TIP3   OH239426   5.937   4.693   0.902
 5956TIP3    H139427   5.864   4.747   0.932
 5956TIP3    H239428   6.014   4.736   0.937
 5957TIP3   OH239429   5.575   6.791   6.061
 5957TIP3    H139430   5.624   6.712   6.040
 5957TIP3    H239431   5.599   6.811   6.152
 5958TIP3   OH239432   3.716   0.257   7.439
 5958TIP3    H139433   3.646   0.227   7.381
 5958TIP3    H239434   3.778   0.302   7.381
 5959TIP3   OH239435   2.486   6.003   8.389
 5959TIP3    H139436   2.481   6.095   8.362
 5959TIP3    H239437   2.512   5.957   8.309
 5960TIP3   OH239438   3.882   0.694   0.614
 5960TIP3    H139439   3.797   0.653   0.629
 5960TIP3    H239440   3.944   0.637   0.660
 5961TIP3   OH239441   0.181   6.295   7.986
 5961TIP3    H139442   0.262   6.299   8.037
 5961TIP3    H239443   0.178   6.206   7.952
 5962TIP3   OH239444   6.271   6.479   1.689
 5962TIP3    H139445   6.223   6.489   1.607
 5962TIP3    H239446   6.355   6.442   1.664
 5963TIP3   OH239447   3.605   1.430   6.931
 5963TIP3    H139448   3.604   1.356   6.993
 5963TIP3    H239449   3.606   1.389   6.845
 5964TIP3   OH239450   5.075   3.501   6.449
 5964TIP3    H139451   5.007   3.443   6.484
 5964TIP3    H239452   5.038   3.589   6.456
 5965TIP3   OH239453   2.378   3.643   1.320
 5965TIP3    H139454   2.420   3.559   1.339
 5965TIP3    H239455   2.350   3.675   1.405
 5966TIP3   OH239456   4.328   4.816   0.530
 5966TIP3    H139457   4.288   4.817   0.617
 5966TIP3    H239458   4.255   4.827   0.469
 5967TIP3   OH239459   5.525   4.730   0.083
 5967TIP3    H139460   5.562   4.644   0.101
 5967TIP3    H239461   5.601   4.789   0.085
 5968TIP3   OH239462   3.044   2.731   6.580
 5968TIP3    H139463   3.034   2.816   6.538
 5968TIP3    H239464   3.051   2.669   6.507
 5969TIP3   OH239465   0.060   0.473   7.398
 5969TIP3    H139466   0.132   0.476   7.461
 5969TIP3    H239467   0.002   0.545   7.424
 5970TIP3   OH239468   4.028   5.492   8.401
 5970TIP3    H139469   4.114   5.510   8.441
 5970TIP3    H239470   3.985   5.433   8.463
 5971TIP3   OH239471   6.058   1.464   0.237
 5971TIP3    H139472   6.040   1.410   0.159
 5971TIP3    H239473   5.986   1.527   0.240
 5972TIP3   OH239474   0.953   4.033   8.111
 5972TIP3    H139475   1.002   3.952   8.125
 5972TIP3    H239476   0.901   4.043   8.191
 5973TIP3   OH239477   2.406   1.309   7.178
 5973TIP3    H139478   2.340   1.299   7.109
 5973TIP3    H239479   2.440   1.221   7.191
 5974TIP3   OH239480   1.253   3.564   7.590
 5974TIP3    H139481   1.238   3.494   7.526
 5974TIP3    H239482   1.339   3.599   7.568
 5975TIP3   OH239483   6.205   4.970   0.564
 5975TIP3    H139484   6.215   4.987   0.658
 5975TIP3    H239485   6.150   4.892   0.560
 5976TIP3   OH239486   3.802   3.691   1.815
 5976TIP3    H139487   3.840   3.762   1.866
 5976TIP3    H239488   3.709   3.713   1.809
 5977TIP3   OH239489   0.941   4.635   7.180
 5977TIP3    H139490   0.967   4.691   7.107
 5977TIP3    H239491   0.862   4.590   7.148
 5978TIP3   OH239492   0.477   3.356   6.901
 5978TIP3    H139493   0.465   3.298   6.826
 5978TIP3    H239494   0.461   3.300   6.978
 5979TIP3   OH239495   2.499   4.375   0.862
 5979TIP3    H139496   2.581   4.378   0.912
 5979TIP3    H239497   2.435   4.421   0.916
 5980TIP3   OH239498   5.471   2.086   7.753
 5980TIP3    H139499   5.379   2.104   7.735
 5980TIP3    H239500   5.508   2.171   7.778
 5981TIP3   OH239501   0.506   3.566   0.334
 5981TIP3    H139502   0.533   3.619   0.259
 5981TIP3    H239503   0.414   3.544   0.316
 5982TIP3   OH239504   3.377   0.892   7.709
 5982TIP3    H139505   3.378   0.814   7.654
 5982TIP3    H239506   3.285   0.902   7.734
 5983TIP3   OH239507   0.393   6.573   1.525
 5983TIP3    H139508   0.443   6.535   1.598
 5983TIP3    H239509   0.307   6.530   1.531
 5984TIP3   OH239510   1.928   1.398   7.391
 5984TIP3    H139511   1.948   1.360   7.306
 5984TIP3    H239512   1.833   1.414   7.389
 5985TIP3   OH239513   3.060   2.457   0.039
 5985TIP3    H139514   3.019   2.526   8.600
 5985TIP3    H239515   3.146   2.444   8.613
 5986TIP3   OH239516   6.641   5.298   0.050
 5986TIP3    H139517   6.610   5.329   0.135
 5986TIP3    H239518   6.715   5.241   0.071
 5987TIP3   OH239519   1.762   1.766   7.547
 5987TIP3    H139520   1.857   1.769   7.537
 5987TIP3    H239521   1.732   1.704   7.481
 5988TIP3   OH239522   5.594   6.190   1.473
 5988TIP3    H139523   5.627   6.120   1.529
 5988TIP3    H239524   5.600   6.269   1.527
 5989TIP3   OH239525   3.207   6.862   8.147
 5989TIP3    H139526   3.243   6.859   8.236
 5989TIP3    H239527   3.283   6.866   8.090
 5990TIP3   OH239528   4.561   0.809   2.036
 5990TIP3    H139529   4.466   0.813   2.043
 5990TIP3    H239530   4.578   0.770   1.950
 5991TIP3   OH239531   1.949   6.584   6.561
 5991TIP3    H139532   1.974   6.578   6.469
 5991TIP3    H239533   1.853   6.586   6.559
 5992TIP3   OH239534   3.539   5.070   0.631
 5992TIP3    H139535   3.459   5.107   0.667
 5992TIP3    H239536   3.530   4.976   0.641
 5993TIP3   OH239537   4.432   5.737   0.661
 5993TIP3    H139538   4.383   5.691   0.729
 5993TIP3    H239539   4.516   5.756   0.702
 5994TIP3   OH239540   1.794   3.936   8.373
 5994TIP3    H139541   1.727   4.004   8.379
 5994TIP3    H239542   1.830   3.930   8.461
 5995TIP3   OH239543   2.461   0.852   7.952
 5995TIP3    H139544   2.497   0.926   7.904
 5995TIP3    H239545   2.503   0.856   8.038
 5996TIP3   OH239546   4.756   5.182   0.012
 5996TIP3    H139547   4.727   5.258   0.061
 5996TIP3    H239548   4.716   5.191   8.540
 5997TIP3   OH239549   3.979   5.496   1.164
 5997TIP3    H139550   4.018   5.580   1.187
 5997TIP3    H239551   3.885   5.512   1.165
 5998TIP3   OH239552   3.479   0.046   6.429
 5998TIP3    H139553   3.466   0.114   6.363
 5998TIP3    H239554   3.395   0.039   6.474
 5999TIP3   OH239555   6.157   1.758   1.000
 5999TIP3    H139556   6.214   1.785   1.072
 5999TIP3    H239557   6.200   1.791   0.922
 6000TIP3   OH239558   4.367   2.060   0.322
 6000TIP3    H139559   4.346   2.019   0.238
 6000TIP3    H239560   4.444   2.114   0.304
 6001TIP3   OH239561   4.398   1.727   7.964
 6001TIP3    H139562   4.478   1.759   8.005
 6001TIP3    H239563   4.347   1.806   7.947
 6002TIP3   OH239564   6.507   1.462   7.461
 6002TIP3    H139565   6.483   1.369   7.466
 6002TIP3    H239566   6.426   1.507   7.440
 6003TIP3   OH239567   2.213   3.991   0.276
 6003TIP3    H139568   2.295   4.035   0.255
 6003TIP3    H239569   2.194   4.018   0.366
 6004TIP3   OH239570   1.221   6.670   1.389
 6004TIP3    H139571   1.265   6.696   1.308
 6004TIP3    H239572   1.272   6.596   1.422
 6005TIP3   OH239573   6.774   2.003   1.536
 6005TIP3    H139574   6.747   2.087   1.499
 6005TIP3    H239575   6.760   2.012   1.631
 6006TIP3   OH239576   2.877   6.392   6.852
 6006TIP3    H139577   2.845   6.314   6.806
 6006TIP3    H239578   2.851   6.465   6.797
 6007TIP3   OH239579   2.105   3.424   1.325
 6007TIP3    H139580   2.114   3.508   1.279
 6007TIP3    H239581   2.118   3.358   1.257
 6008TIP3   OH239582   5.793   5.634   8.243
 6008TIP3    H139583   5.810   5.659   8.152
 6008TIP3    H239584   5.876   5.649   8.287
 6009TIP3   OH239585   6.437   0.145   7.212
 6009TIP3    H139586   6.506   0.158   7.147
 6009TIP3    H239587   6.391   0.229   7.215
 6010TIP3   OH239588   6.186   5.753   8.117
 6010TIP3    H139589   6.133   5.774   8.040
 6010TIP3    H239590   6.276   5.758   8.087
 6011TIP3   OH239591   2.923   3.373   8.211
 6011TIP3    H139592   2.875   3.422   8.277
 6011TIP3    H239593   3.004   3.422   8.198
 6012TIP3   OH239594   2.891   3.352   7.803
 6012TIP3    H139595   2.803   3.325   7.831
 6012TIP3    H239596   2.912   3.294   7.731
 6013TIP3   OH239597   1.322   5.997   7.763
 6013TIP3    H139598   1.266   5.946   7.705
 6013TIP3    H239599   1.268   6.071   7.789
 6014TIP3   OH239600   0.455   4.057   0.282
 6014TIP3    H139601   0.405   3.993   0.231
 6014TIP3    H239602   0.390   4.100   0.337
 6015TIP3   OH239603   0.491   4.885   0.290
 6015TIP3    H139604   0.581   4.860   0.312
 6015TIP3    H239605   0.500   4.972   0.250
 6016TIP3   OH239606   5.299   4.899   1.926
 6016TIP3    H139607   5.376   4.910   1.870
 6016TIP3    H239608   5.244   4.974   1.906
 6017TIP3   OH239609   3.469   1.517   7.312
 6017TIP3    H139610   3.540   1.550   7.368
 6017TIP3    H239611   3.476   1.422   7.318
 6018TIP3   OH239612   4.914   0.128   0.629
 6018TIP3    H139613   4.908   0.039   0.663
 6018TIP3    H239614   4.902   0.184   0.705
 6019TIP3   OH239615   5.727   1.898   1.768
 6019TIP3    H139616   5.651   1.847   1.796
 6019TIP3    H239617   5.747   1.955   1.842
 6020TIP3   OH239618   5.463   0.343   2.361
 6020TIP3    H139619   5.532   0.393   2.406
 6020TIP3    H239620   5.382   0.389   2.383
 6021TIP3   OH239621   3.148   1.233   7.093
 6021TIP3    H139622   3.143   1.326   7.068
 6021TIP3    H239623   3.235   1.205   7.062
 6022TIP3   OH239624   1.838   6.194   0.372
 6022TIP3    H139625   1.860   6.267   0.430
 6022TIP3    H239626   1.863   6.116   0.422
 6023TIP3   OH239627   5.985   4.115   7.513
 6023TIP3    H139628   5.906   4.091   7.562
 6023TIP3    H239629   6.024   4.032   7.489
 6024TIP3   OH239630   2.855   4.520   1.198
 6024TIP3    H139631   2.790   4.589   1.209
 6024TIP3    H239632   2.937   4.566   1.180
 6025TIP3   OH239633   0.511   1.768   0.041
 6025TIP3    H139634   0.516   1.804   8.566
 6025TIP3    H239635   0.565   1.689   0.038
 6026TIP3   OH239636   3.494   3.694   0.426
 6026TIP3    H139637   3.483   3.603   0.398
 6026TIP3    H239638   3.505   3.689   0.521
 6027TIP3   OH239639   0.878   1.113   1.181
 6027TIP3    H139640   0.809   1.168   1.217
 6027TIP3    H239641   0.869   1.029   1.226
 6028TIP3   OH239642   1.966   5.873   0.146
 6028TIP3    H139643   1.931   5.949   0.099
 6028TIP3    H239644   2.026   5.910   0.210
 6029TIP3   OH239645   6.555   1.653   7.897
 6029TIP3    H139646   6.562   1.612   7.811
 6029TIP3    H239647   6.553   1.579   7.958
 6030TIP3   OH239648   4.011   3.791   8.036
 6030TIP3    H139649   3.921   3.758   8.037
 6030TIP3    H239650   4.016   3.844   7.956
 6031TIP3   OH239651   0.273   2.639   6.310
 6031TIP3    H139652   0.240   2.710   6.256
 6031TIP3    H239653   0.309   2.682   6.387
 6032TIP3   OH239654   3.003   1.483   0.529
 6032TIP3    H139655   3.071   1.513   0.589
 6032TIP3    H239656   2.931   1.544   0.542
 6033TIP3   OH239657   0.858   3.671   1.336
 6033TIP3    H139658   0.838   3.721   1.257
 6033TIP3    H239659   0.775   3.630   1.360
 6034TIP3   OH239660   6.067   1.014   0.284
 6034TIP3    H139661   6.131   0.980   0.221
 6034TIP3    H239662   6.110   1.091   0.321
 6035TIP3   OH239663   1.486   3.329   8.101
 6035TIP3    H139664   1.413   3.285   8.057
 6035TIP3    H239665   1.444   3.386   8.166
 6036TIP3   OH239666   4.765   3.271   8.582
 6036TIP3    H139667   4.828   3.254   0.037
 6036TIP3    H239668   4.685   3.298   0.014
 6037TIP3   OH239669   6.799   6.353   8.036
 6037TIP3    H139670   0.004   6.341   8.058
 6037TIP3    H239671   6.759   6.267   8.047
 6038TIP3   OH239672   0.382   2.083   7.734
 6038TIP3    H139673   0.312   2.045   7.680
 6038TIP3    H239674   0.349   2.170   7.758
 6039TIP3   OH239675   3.240   2.700   7.651
 6039TIP3    H139676   3.194   2.766   7.598
 6039TIP3    H239677   3.266   2.633   7.588
 6040TIP3   OH239678   4.568   3.925   8.493
 6040TIP3    H139679   4.613   3.942   8.410
 6040TIP3    H239680   4.619   3.971   8.559
 6041TIP3   OH239681   2.910   5.672   7.775
 6041TIP3    H139682   2.885   5.625   7.854
 6041TIP3    H239683   2.849   5.642   7.708
 6042TIP3   OH239684   2.881   6.559   1.871
 6042TIP3    H139685   2.919   6.472   1.861
 6042TIP3    H239686   2.957   6.617   1.880
 6043TIP3   OH239687   4.903   4.548   0.837
 6043TIP3    H139688   4.839   4.592   0.894
 6043TIP3    H239689   4.887   4.455   0.850
 6044TIP3   OH239690   6.109   6.324   6.938
 6044TIP3    H139691   6.110   6.287   6.850
 6044TIP3    H239692   6.118   6.247   6.995
 6045TIP3   OH239693   3.502   0.944   1.417
 6045TIP3    H139694   3.443   0.958   1.344
 6045TIP3    H239695   3.573   1.006   1.404
 6046TIP3   OH239696   4.376   0.382   2.054
 6046TIP3    H139697   4.379   0.474   2.028
 6046TIP3    H239698   4.370   0.334   1.971
 6047TIP3   OH239699   6.735   1.536   6.887
 6047TIP3    H139700   6.824   1.514   6.860
 6047TIP3    H239701   6.724   1.494   6.973
 6048TIP3   OH239702   6.108   3.338   1.975
 6048TIP3    H139703   6.035   3.330   2.035
 6048TIP3    H239704   6.079   3.290   1.896
 6049TIP3   OH239705   1.599   1.460   0.385
 6049TIP3    H139706   1.536   1.479   0.315
 6049TIP3    H239707   1.672   1.418   0.340
 6050TIP3   OH239708   1.587   0.287   1.362
 6050TIP3    H139709   1.571   0.377   1.334
 6050TIP3    H239710   1.681   0.274   1.347
 6051TIP3   OH239711   0.605   2.058   1.633
 6051TIP3    H139712   0.641   2.144   1.657
 6051TIP3    H239713   0.635   1.999   1.702
 6052TIP3   OH239714   3.258   5.179   7.480
 6052TIP3    H139715   3.331   5.120   7.500
 6052TIP3    H239716   3.199   5.128   7.426
 6053TIP3   OH239717   1.697   0.850   6.781
 6053TIP3    H139718   1.702   0.943   6.758
 6053TIP3    H239719   1.763   0.808   6.727
 6054TIP3   OH239720   0.141   0.418   0.071
 6054TIP3    H139721   0.115   0.501   0.110
 6054TIP3    H239722   0.222   0.394   0.117
 6055TIP3   OH239723   2.854   5.228   7.998
 6055TIP3    H139724   2.932   5.283   8.007
 6055TIP3    H239725   2.887   5.139   8.010
 6056TIP3   OH239726   6.009   0.867   6.983
 6056TIP3    H139727   5.953   0.936   7.017
 6056TIP3    H239728   6.005   0.878   6.888
 6057TIP3   OH239729   4.491   1.554   8.334
 6057TIP3    H139730   4.536   1.567   8.417
 6057TIP3    H239731   4.430   1.627   8.327
 6058TIP3   OH239732   2.701   4.784   0.444
 6058TIP3    H139733   2.719   4.853   0.508
 6058TIP3    H239734   2.652   4.718   0.493
 6059TIP3   OH239735   5.715   3.847   7.111
 6059TIP3    H139736   5.740   3.818   7.024
 6059TIP3    H239737   5.745   3.937   7.116
 6060TIP3   OH239738   2.976   2.958   8.204
 6060TIP3    H139739   2.963   3.013   8.127
 6060TIP3    H239740   2.905   2.894   8.201
 6061TIP3   OH239741   6.312   1.027   0.800
 6061TIP3    H139742   6.279   0.997   0.715
 6061TIP3    H239743   6.378   1.093   0.778
 6062TIP3   OH239744   2.945   3.773   7.806
 6062TIP3    H139745   3.027   3.725   7.790
 6062TIP3    H239746   2.894   3.715   7.863
 6063TIP3   OH239747   5.964   4.215   0.877
 6063TIP3    H139748   5.885   4.209   0.929
 6063TIP3    H239749   5.950   4.153   0.805
 6064TIP3   OH239750   3.929   4.559   0.659
 6064TIP3    H139751   3.870   4.601   0.723
 6064TIP3    H239752   4.008   4.541   0.709
 6065TIP3   OH239753   0.943   5.016   7.800
 6065TIP3    H139754   0.868   4.997   7.744
 6065TIP3    H239755   1.018   4.983   7.752
 6066TIP3   OH239756   3.520   3.917   7.320
 6066TIP3    H139757   3.509   3.935   7.227
 6066TIP3    H239758   3.488   3.995   7.364
 6067TIP3   OH239759   5.094   5.437   7.120
 6067TIP3    H139760   5.058   5.417   7.033
 6067TIP3    H239761   5.171   5.490   7.102
 6068TIP3   OH239762   2.585   5.119   1.383
 6068TIP3    H139763   2.589   5.214   1.372
 6068TIP3    H239764   2.506   5.092   1.336
 6069TIP3   OH239765   6.213   5.413   7.287
 6069TIP3    H139766   6.298   5.370   7.281
 6069TIP3    H239767   6.169   5.371   7.360
 6070TIP3   OH239768   5.466   2.268   7.463
 6070TIP3    H139769   5.561   2.273   7.471
 6070TIP3    H239770   5.434   2.270   7.553
 6071TIP3   OH239771   1.104   1.511   1.079
 6071TIP3    H139772   1.012   1.504   1.102
 6071TIP3    H239773   1.150   1.510   1.163
 6072TIP3   OH239774   4.061   4.285   7.280
 6072TIP3    H139775   4.010   4.205   7.290
 6072TIP3    H239776   4.110   4.294   7.362
 6073TIP3   OH239777   4.181   5.501   7.785
 6073TIP3    H139778   4.174   5.475   7.693
 6073TIP3    H239779   4.226   5.427   7.827
 6074TIP3   OH239780   6.167   1.401   6.776
 6074TIP3    H139781   6.212   1.483   6.755
 6074TIP3    H239782   6.076   1.415   6.749
 6075TIP3   OH239783   2.530   6.117   1.966
 6075TIP3    H139784   2.523   6.029   2.003
 6075TIP3    H239785   2.480   6.112   1.884
 6076TIP3   OH239786   4.526   6.619   7.944
 6076TIP3    H139787   4.603   6.599   7.997
 6076TIP3    H239788   4.513   6.541   7.891
 6077TIP3   OH239789   1.202   1.614   7.430
 6077TIP3    H139790   1.294   1.640   7.442
 6077TIP3    H239791   1.203   1.556   7.355
 6078TIP3   OH239792   0.942   4.141   1.330
 6078TIP3    H139793   0.890   4.079   1.380
 6078TIP3    H239794   0.885   4.216   1.318
 6079TIP3   OH239795   2.149   1.713   7.083
 6079TIP3    H139796   2.241   1.739   7.088
 6079TIP3    H239797   2.120   1.746   6.997
 6080TIP3   OH239798   0.082   3.217   8.374
 6080TIP3    H139799   0.135   3.152   8.421
 6080TIP3    H239800   0.053   3.278   8.441
 6081TIP3   OH239801   3.561   0.782   1.195
 6081TIP3    H139802   3.491   0.722   1.167
 6081TIP3    H239803   3.549   0.788   1.290
 6082TIP3   OH239804   6.549   3.678   2.115
 6082TIP3    H139805   6.536   3.726   2.197
 6082TIP3    H239806   6.556   3.586   2.142
 6083TIP3   OH239807   6.265   5.882   0.813
 6083TIP3    H139808   6.227   5.937   0.881
 6083TIP3    H239809   6.313   5.943   0.757
 6084TIP3   OH239810   6.268   4.054   7.789
 6084TIP3    H139811   6.186   4.005   7.782
 6084TIP3    H239812   6.294   4.070   7.698
 6085TIP3   OH239813   5.368   3.468   1.561
 6085TIP3    H139814   5.443   3.410   1.546
 6085TIP3    H239815   5.400   3.533   1.623
 6086TIP3   OH239816   1.566   5.245   0.506
 6086TIP3    H139817   1.659   5.230   0.488
 6086TIP3    H239818   1.536   5.300   0.434
 6087TIP3   OH239819   4.139   4.610   7.528
 6087TIP3    H139820   4.202   4.597   7.458
 6087TIP3    H239821   4.084   4.682   7.497
 6088TIP3   OH239822   1.001   1.842   0.726
 6088TIP3    H139823   1.023   1.763   0.775
 6088TIP3    H239824   0.905   1.840   0.720
 6089TIP3   OH239825   3.488   1.435   0.906
 6089TIP3    H139826   3.530   1.517   0.932
 6089TIP3    H239827   3.510   1.373   0.975
 6090TIP3   OH239828   3.536   0.815   8.191
 6090TIP3    H139829   3.561   0.724   8.201
 6090TIP3    H239830   3.452   0.812   8.146
 6091TIP3   OH239831   6.444   5.285   7.329
 6091TIP3    H139832   6.491   5.323   7.403
 6091TIP3    H239833   6.397   5.210   7.367
 6092TIP3   OH239834   6.414   0.716   0.242
 6092TIP3    H139835   6.413   0.804   0.278
 6092TIP3    H239836   6.506   0.689   0.249
 6093TIP3   OH239837   3.158   0.478   0.892
 6093TIP3    H139838   3.224   0.411   0.908
 6093TIP3    H239839   3.075   0.430   0.888
 6094TIP3   OH239840   6.255   2.896   7.867
 6094TIP3    H139841   6.198   2.914   7.942
 6094TIP3    H239842   6.201   2.914   7.791
 6095TIP3   OH239843   5.886   0.386   7.515
 6095TIP3    H139844   5.892   0.291   7.523
 6095TIP3    H239845   5.970   0.411   7.475
 6096TIP3   OH239846   2.103   2.738   0.024
 6096TIP3    H139847   2.149   2.807   0.070
 6096TIP3    H239848   2.168   2.702   8.577
 6097TIP3   OH239849   0.785   0.572   6.354
 6097TIP3    H139850   0.823   0.490   6.321
 6097TIP3    H239851   0.702   0.546   6.394
 6098TIP3   OH239852   6.581   3.237   1.327
 6098TIP3    H139853   6.495   3.200   1.344
 6098TIP3    H239854   6.615   3.260   1.413
 6099TIP3   OH239855   2.364   5.496   8.294
 6099TIP3    H139856   2.425   5.483   8.367
 6099TIP3    H239857   2.359   5.411   8.252
 6100TIP3   OH239858   6.752   0.667   7.459
 6100TIP3    H139859   6.701   0.672   7.540
 6100TIP3    H239860   6.688   0.679   7.389
 6101TIP3   OH239861   4.834   2.792   7.454
 6101TIP3    H139862   4.918   2.787   7.500
 6101TIP3    H239863   4.802   2.880   7.474
 6102TIP3   OH239864   0.001   5.634   0.116
 6102TIP3    H139865   0.064   5.573   0.077
 6102TIP3    H239866   6.811   5.628   0.059
 6103TIP3   OH239867   1.424   3.310   1.413
 6103TIP3    H139868   1.402   3.263   1.494
 6103TIP3    H239869   1.408   3.402   1.434
 6104TIP3   OH239870   5.339   0.124   8.613
 6104TIP3    H139871   5.260   0.070   0.000
 6104TIP3    H239872   5.321   0.195   0.060
 6105TIP3   OH239873   0.115   1.840   1.456
 6105TIP3    H139874   0.020   1.851   1.455
 6105TIP3    H239875   0.129   1.761   1.508
 6106TIP3   OH239876   0.835   3.268   0.768
 6106TIP3    H139877   0.912   3.315   0.737
 6106TIP3    H239878   0.776   3.266   0.692
 6107TIP3   OH239879   6.611   0.408   0.724
 6107TIP3    H139880   6.586   0.322   0.756
 6107TIP3    H239881   6.529   0.456   0.718
 6108TIP3   OH239882   5.361   5.353   0.152
 6108TIP3    H139883   5.451   5.346   0.119
 6108TIP3    H239884   5.310   5.379   0.076
 6109TIP3   OH239885   3.953   2.198   1.588
 6109TIP3    H139886   4.013   2.249   1.533
 6109TIP3    H239887   3.982   2.217   1.677
 6110TIP3   OH239888   4.689   4.163   7.801
 6110TIP3    H139889   4.693   4.219   7.879
 6110TIP3    H239890   4.633   4.211   7.740
 6111TIP3   OH239891   0.130   3.921   0.520
 6111TIP3    H139892   0.171   3.902   0.436
 6111TIP3    H239893   0.138   3.840   0.570
 6112TIP3   OH239894   2.548   0.191   0.937
 6112TIP3    H139895   2.587   0.223   1.018
 6112TIP3    H239896   2.476   0.252   0.919
 6113TIP3   OH239897   3.465   4.725   7.645
 6113TIP3    H139898   3.402   4.661   7.612
 6113TIP3    H239899   3.539   4.673   7.676
 6114TIP3   OH239900   2.647   5.046   8.357
 6114TIP3    H139901   2.602   4.971   8.397
 6114TIP3    H239902   2.724   5.009   8.314
 6115TIP3   OH239903   3.014   2.167   1.428
 6115TIP3    H139904   2.963   2.181   1.508
 6115TIP3    H239905   2.959   2.111   1.373
 6116TIP3   OH239906   1.438   6.280   8.157
 6116TIP3    H139907   1.386   6.229   8.094
 6116TIP3    H239908   1.386   6.278   8.238
 6117TIP3   OH239909   6.622   5.109   7.892
 6117TIP3    H139910   6.706   5.099   7.937
 6117TIP3    H239911   6.646   5.144   7.806
 6118TIP3   OH239912   1.099   3.048   7.910
 6118TIP3    H139913   1.147   3.123   7.945
 6118TIP3    H239914   1.099   2.983   7.980
 6119TIP3   OH239915   2.167   0.430   7.149
 6119TIP3    H139916   2.160   0.334   7.148
 6119TIP3    H239917   2.156   0.455   7.058
 6120TIP3   OH239918   5.139   2.278   8.285
 6120TIP3    H139919   5.156   2.304   8.375
 6120TIP3    H239920   5.136   2.182   8.287
 6121TIP3   OH239921   5.122   0.244   0.472
 6121TIP3    H139922   5.048   0.197   0.510
 6121TIP3    H239923   5.085   0.327   0.442
 6122TIP3   OH239924   1.995   1.469   8.016
 6122TIP3    H139925   1.915   1.431   8.053
 6122TIP3    H239926   1.975   1.562   8.005
 6123TIP3   OH239927   3.747   6.119   2.025
 6123TIP3    H139928   3.770   6.200   2.071
 6123TIP3    H239929   3.826   6.066   2.031
 6124TIP3   OH239930   3.542   4.152   6.266
 6124TIP3    H139931   3.583   4.102   6.196
 6124TIP3    H239932   3.453   4.169   6.236
 6125TIP3   OH239933   2.025   3.694   0.509
 6125TIP3    H139934   1.941   3.648   0.502
 6125TIP3    H239935   2.088   3.626   0.529
 6126TIP3   OH239936   1.604   2.016   8.377
 6126TIP3    H139937   1.679   1.970   8.341
 6126TIP3    H239938   1.641   2.081   8.437
 6127TIP3   OH239939   3.569   4.721   2.411
 6127TIP3    H139940   3.521   4.742   2.331
 6127TIP3    H239941   3.501   4.702   2.475
 6128TIP3   OH239942   5.721   2.233   1.718
 6128TIP3    H139943   5.745   2.233   1.626
 6128TIP3    H239944   5.657   2.304   1.726
 6129TIP3   OH239945   4.663   3.525   6.519
 6129TIP3    H139946   4.602   3.452   6.506
 6129TIP3    H239947   4.659   3.544   6.612
 6130TIP3   OH239948   1.687   1.276   7.718
 6130TIP3    H139949   1.609   1.254   7.769
 6130TIP3    H239950   1.698   1.203   7.658
 6131TIP3   OH239951   3.863   3.577   7.687
 6131TIP3    H139952   3.834   3.523   7.761
 6131TIP3    H239953   3.924   3.521   7.639
 6132TIP3   OH239954   3.221   5.793   7.582
 6132TIP3    H139955   3.268   5.722   7.625
 6132TIP3    H239956   3.139   5.753   7.553
 6133TIP3   OH239957   4.485   4.951   8.092
 6133TIP3    H139958   4.393   4.979   8.088
 6133TIP3    H239959   4.535   5.027   8.063
 6134TIP3   OH239960   4.141   5.520   0.607
 6134TIP3    H139961   4.160   5.590   0.545
 6134TIP3    H239962   4.224   5.506   0.654
 6135TIP3   OH239963   2.156   2.815   1.083
 6135TIP3    H139964   2.225   2.753   1.105
 6135TIP3    H239965   2.091   2.763   1.035
 6136TIP3   OH239966   2.386   2.381   7.100
 6136TIP3    H139967   2.297   2.360   7.128
 6136TIP3    H239968   2.441   2.357   7.174
 6137TIP3   OH239969   3.966   6.652   0.620
 6137TIP3    H139970   3.908   6.718   0.659
 6137TIP3    H239971   3.931   6.569   0.651
 6138TIP3   OH239972   3.199   3.345   0.986
 6138TIP3    H139973   3.193   3.277   1.053
 6138TIP3    H239974   3.288   3.380   0.994
 6139TIP3   OH239975   6.459   1.927   7.621
 6139TIP3    H139976   6.455   1.831   7.612
 6139TIP3    H239977   6.525   1.954   7.556
 6140TIP3   OH239978   1.859   4.050   1.386
 6140TIP3    H139979   1.918   4.021   1.456
 6140TIP3    H239980   1.900   4.020   1.305
 6141TIP3   OH239981   0.560   2.014   6.215
 6141TIP3    H139982   0.620   2.001   6.288
 6141TIP3    H239983   0.540   1.925   6.185
 6142TIP3   OH239984   2.692   5.373   1.442
 6142TIP3    H139985   2.752   5.447   1.459
 6142TIP3    H239986   2.693   5.322   1.523
 6143TIP3   OH239987   0.211   0.756   1.377
 6143TIP3    H139988   0.241   0.746   1.467
 6143TIP3    H239989   0.192   0.667   1.348
 6144TIP3   OH239990   3.111   4.997   7.313
 6144TIP3    H139991   3.077   4.987   7.224
 6144TIP3    H239992   3.129   4.908   7.342
 6145TIP3   OH239993   5.219   4.301   0.816
 6145TIP3    H139994   5.310   4.321   0.791
 6145TIP3    H239995   5.166   4.363   0.766
 6146TIP3   OH239996   4.560   6.819   8.306
 6146TIP3    H139997   4.587   0.013   8.262
 6146TIP3    H239998   4.596   6.827   8.395
 6147TIP3   OH239999   5.368   5.622   7.434
 6147TIP3    H140000   5.317   5.549   7.469
 6147TIP3    H240001   5.425   5.581   7.368
 6148TIP3   OH240002   1.471   0.360   2.433
 6148TIP3    H140003   1.555   0.374   2.391
 6148TIP3    H240004   1.410   0.343   2.361
 6149TIP3   OH240005   2.656   1.411   8.235
 6149TIP3    H140006   2.734   1.404   8.290
 6149TIP3    H240007   2.621   1.498   8.254
 6150TIP3   OH240008   0.030   2.828   0.325
 6150TIP3    H140009   6.866   2.759   0.282
 6150TIP3    H240010   6.852   2.892   0.354
 6151TIP3   OH240011   6.017   4.691   0.545
 6151TIP3    H140012   6.074   4.656   0.476
 6151TIP3    H240013   5.996   4.615   0.599
 6152TIP3   OH240014   0.141   0.033   1.155
 6152TIP3    H140015   0.193   6.844   1.130
 6152TIP3    H240016   0.094   0.057   1.075
 6153TIP3   OH240017   1.487   2.940   0.592
 6153TIP3    H140018   1.476   3.036   0.592
 6153TIP3    H240019   1.522   2.920   0.505
 6154TIP3   OH240020   3.458   3.467   2.155
 6154TIP3    H140021   3.516   3.542   2.160
 6154TIP3    H240022   3.447   3.438   2.246
 6155TIP3   OH240023   0.990   4.261   6.538
 6155TIP3    H140024   1.079   4.251   6.504
 6155TIP3    H240025   0.934   4.254   6.461
 6156TIP3   OH240026   3.768   2.963   6.839
 6156TIP3    H140027   3.700   2.916   6.888
 6156TIP3    H240028   3.779   2.913   6.758
 6157TIP3   OH240029   0.738   4.137   0.281
 6157TIP3    H140030   0.726   4.199   0.353
 6157TIP3    H240031   0.652   4.096   0.270
 6158TIP3   OH240032   3.603   0.236   1.390
 6158TIP3    H140033   3.639   0.308   1.441
 6158TIP3    H240034   3.548   0.279   1.324
 6159TIP3   OH240035   6.570   4.607   1.093
 6159TIP3    H140036   6.551   4.690   1.049
 6159TIP3    H240037   6.483   4.568   1.109
 6160TIP3   OH240038   5.355   2.685   8.475
 6160TIP3    H140039   5.319   2.704   8.562
 6160TIP3    H240040   5.283   2.643   8.428
 6161TIP3   OH240041   5.453   6.739   0.369
 6161TIP3    H140042   5.406   6.811   0.411
 6161TIP3    H240043   5.528   6.780   0.327
 6162TIP3   OH240044   0.629   5.675   0.262
 6162TIP3    H140045   0.688   5.638   0.327
 6162TIP3    H240046   0.562   5.720   0.313
 6163TIP3   OH240047   3.940   5.245   7.608
 6163TIP3    H140048   3.981   5.330   7.593
 6163TIP3    H240049   3.857   5.249   7.561
 6164TIP3   OH240050   3.239   1.790   1.311
 6164TIP3    H140051   3.252   1.882   1.286
 6164TIP3    H240052   3.244   1.790   1.406
 6165TIP3   OH240053   5.380   6.707   8.081
 6165TIP3    H140054   5.403   6.787   8.035
 6165TIP3    H240055   5.399   6.637   8.018
 6166TIP3   OH240056   4.189   5.428   6.770
 6166TIP3    H140057   4.103   5.469   6.775
 6166TIP3    H240058   4.171   5.338   6.743
 6167TIP3   OH240059   1.112   5.179   1.315
 6167TIP3    H140060   1.199   5.190   1.352
 6167TIP3    H240061   1.112   5.090   1.280
 6168TIP3   OH240062   4.994   4.672   1.365
 6168TIP3    H140063   5.032   4.760   1.363
 6168TIP3    H240064   4.964   4.661   1.455
 6169TIP3   OH240065   2.736   6.667   0.029
 6169TIP3    H140066   2.649   6.700   0.050
 6169TIP3    H240067   2.761   6.615   0.106
 6170TIP3   OH240068   4.300   0.719   6.870
 6170TIP3    H140069   4.395   0.721   6.872
 6170TIP3    H240070   4.274   0.806   6.839
 6171TIP3   OH240071   5.865   1.126   7.985
 6171TIP3    H140072   5.911   1.210   7.982
 6171TIP3    H240073   5.815   1.124   7.904
 6172TIP3   OH240074   2.398   3.170   6.830
 6172TIP3    H140075   2.487   3.154   6.861
 6172TIP3    H240076   2.358   3.084   6.824
 6173TIP3   OH240077   2.677   5.244   1.087
 6173TIP3    H140078   2.605   5.278   1.141
 6173TIP3    H240079   2.712   5.171   1.138
 6174TIP3   OH240080   5.528   0.528   7.506
 6174TIP3    H140081   5.479   0.468   7.449
 6174TIP3    H240082   5.574   0.587   7.445
 6175TIP3   OH240083   2.314   2.255   0.236
 6175TIP3    H140084   2.295   2.308   0.313
 6175TIP3    H240085   2.357   2.314   0.174
 6176TIP3   OH240086   6.600   2.148   7.225
 6176TIP3    H140087   6.597   2.243   7.214
 6176TIP3    H240088   6.513   2.119   7.201
 6177TIP3   OH240089   1.472   5.553   1.879
 6177TIP3    H140090   1.440   5.577   1.791
 6177TIP3    H240091   1.544   5.492   1.863
 6178TIP3   OH240092   0.624   3.968   8.500
 6178TIP3    H140093   0.645   4.045   8.446
 6178TIP3    H240094   0.668   3.895   8.455
 6179TIP3   OH240095   3.406   5.482   6.832
 6179TIP3    H140096   3.411   5.544   6.759
 6179TIP3    H240097   3.441   5.400   6.796
 6180TIP3   OH240098   4.506   5.088   2.235
 6180TIP3    H140099   4.489   5.012   2.180
 6180TIP3    H240100   4.536   5.051   2.318
 6181TIP3   OH240101   4.690   4.571   1.352
 6181TIP3    H140102   4.655   4.505   1.412
 6181TIP3    H240103   4.666   4.540   1.265
 6182TIP3   OH240104   2.976   2.588   0.905
 6182TIP3    H140105   2.973   2.611   0.998
 6182TIP3    H240106   3.009   2.498   0.905
 6183TIP3   OH240107   1.115   0.280   0.162
 6183TIP3    H140108   1.022   0.273   0.139
 6183TIP3    H240109   1.157   0.215   0.106
 6184TIP3   OH240110   3.148   5.552   8.205
 6184TIP3    H140111   3.184   5.486   8.146
 6184TIP3    H240112   3.195   5.538   8.288
 6185TIP3   OH240113   6.843   1.243   6.648
 6185TIP3    H140114   6.879   1.329   6.626
 6185TIP3    H240115   6.851   1.192   6.568
 6186TIP3   OH240116   2.083   3.675   0.952
 6186TIP3    H140117   1.992   3.687   0.925
 6186TIP3    H240118   2.091   3.582   0.971
 6187TIP3   OH240119   6.780   0.834   7.755
 6187TIP3    H140120   6.842   0.877   7.697
 6187TIP3    H240121   6.817   0.845   7.842
 6188TIP3   OH240122   1.749   2.112   7.221
 6188TIP3    H140123   1.797   2.115   7.304
 6188TIP3    H240124   1.807   2.157   7.159
 6189TIP3   OH240125   3.998   4.228   0.511
 6189TIP3    H140126   3.914   4.264   0.483
 6189TIP3    H240127   3.983   4.133   0.513
 6190TIP3   OH240128   3.999   2.281   1.848
 6190TIP3    H140129   3.952   2.283   1.932
 6190TIP3    H240130   4.089   2.257   1.871
 6191TIP3   OH240131   0.777   1.718   8.033
 6191TIP3    H140132   0.857   1.690   7.990
 6191TIP3    H240133   0.746   1.791   7.980
 6192TIP3   OH240134   0.510   4.650   0.985
 6192TIP3    H140135   0.486   4.564   1.019
 6192TIP3    H240136   0.574   4.684   1.048
 6193TIP3   OH240137   2.520   1.153   1.023
 6193TIP3    H140138   2.425   1.159   1.012
 6193TIP3    H240139   2.537   1.187   1.110
 6194TIP3   OH240140   1.579   2.176   1.023
 6194TIP3    H140141   1.661   2.150   1.065
 6194TIP3    H240142   1.602   2.188   0.931
 6195TIP3   OH240143   2.277   2.992   8.320
 6195TIP3    H140144   2.238   3.053   8.383
 6195TIP3    H240145   2.325   3.048   8.259
 6196TIP3   OH240146   6.310   5.704   1.354
 6196TIP3    H140147   6.324   5.764   1.281
 6196TIP3    H240148   6.239   5.647   1.326
 6197TIP3   OH240149   6.001   6.698   1.864
 6197TIP3    H140150   5.954   6.720   1.784
 6197TIP3    H240151   6.058   6.774   1.880
 6198TIP3   OH240152   6.141   5.694   0.291
 6198TIP3    H140153   6.219   5.747   0.305
 6198TIP3    H240154   6.123   5.701   0.197
 6199TIP3   OH240155   6.039   2.605   8.445
 6199TIP3    H140156   6.073   2.544   8.511
 6199TIP3    H240157   5.945   2.609   8.462
 6200TIP3   OH240158   4.501   2.402   7.925
 6200TIP3    H140159   4.435   2.336   7.945
 6200TIP3    H240160   4.450   2.477   7.893
 6201TIP3   OH240161   5.410   1.626   1.569
 6201TIP3    H140162   5.418   1.570   1.493
 6201TIP3    H240163   5.497   1.626   1.609
 6202TIP3   OH240164   1.261   6.688   8.481
 6202TIP3    H140165   1.205   6.744   8.428
 6202TIP3    H240166   1.348   6.697   8.442
 6203TIP3   OH240167   2.072   1.524   0.195
 6203TIP3    H140168   2.056   1.525   0.101
 6203TIP3    H240169   2.167   1.522   0.204
 6204TIP3   OH240170   3.618   4.657   8.279
 6204TIP3    H140171   3.616   4.628   8.371
 6204TIP3    H240172   3.614   4.752   8.283
 6205TIP3   OH240173   0.371   0.939   8.497
 6205TIP3    H140174   0.407   1.020   8.461
 6205TIP3    H240175   0.341   0.889   8.421
 6206TIP3   OH240176   5.363   2.974   0.771
 6206TIP3    H140177   5.417   2.902   0.739
 6206TIP3    H240178   5.273   2.942   0.765
 6207TIP3   OH240179   4.477   1.355   0.373
 6207TIP3    H140180   4.572   1.350   0.368
 6207TIP3    H240181   4.454   1.298   0.446
 6208TIP3   OH240182   5.676   5.039   2.410
 6208TIP3    H140183   5.714   5.106   2.353
 6208TIP3    H240184   5.625   4.984   2.350
 6209TIP3   OH240185   1.466   1.799   7.443
 6209TIP3    H140186   1.458   1.881   7.491
 6209TIP3    H240187   1.543   1.811   7.387
 6210TIP3   OH240188   2.841   6.716   6.242
 6210TIP3    H140189   2.761   6.766   6.256
 6210TIP3    H240190   2.818   6.651   6.176
 6211TIP3   OH240191   2.160   5.425   1.123
 6211TIP3    H140192   2.194   5.396   1.208
 6211TIP3    H240193   2.121   5.347   1.085
 6212TIP3   OH240194   5.312   5.646   2.238
 6212TIP3    H140195   5.375   5.709   2.273
 6212TIP3    H240196   5.227   5.678   2.268
 6213TIP3   OH240197   3.897   5.324   8.588
 6213TIP3    H140198   3.815   5.359   0.011
 6213TIP3    H240199   3.906   5.238   0.015
 6214TIP3   OH240200   3.496   3.845   6.321
 6214TIP3    H140201   3.524   3.886   6.239
 6214TIP3    H240202   3.404   3.870   6.331
 6215TIP3   OH240203   5.548   5.751   8.251
 6215TIP3    H140204   5.577   5.834   8.289
 6215TIP3    H240205   5.624   5.693   8.260
 6216TIP3   OH240206   6.662   5.381   0.526
 6216TIP3    H140207   6.699   5.301   0.564
 6216TIP3    H240208   6.584   5.398   0.578
 6217TIP3   OH240209   0.905   6.180   0.274
 6217TIP3    H140210   0.859   6.253   0.315
 6217TIP3    H240211   0.850   6.103   0.291
 6218TIP3   OH240212   1.786   0.358   8.088
 6218TIP3    H140213   1.693   0.368   8.105
 6218TIP3    H240214   1.811   0.438   8.041
 6219TIP3   OH240215   6.485   6.114   6.701
 6219TIP3    H140216   6.496   6.066   6.783
 6219TIP3    H240217   6.402   6.083   6.666
 6220TIP3   OH240218   0.705   5.328   0.311
 6220TIP3    H140219   0.769   5.292   0.372
 6220TIP3    H240220   0.635   5.362   0.368
 6221TIP3   OH240221   5.623   0.270   7.069
 6221TIP3    H140222   5.653   0.314   6.989
 6221TIP3    H240223   5.647   0.329   7.140
 6222TIP3   OH240224   3.599   2.937   7.242
 6222TIP3    H140225   3.579   2.959   7.333
 6222TIP3    H240226   3.579   3.016   7.193
 6223TIP3   OH240227   4.810   2.487   1.619
 6223TIP3    H140228   4.759   2.489   1.700
 6223TIP3    H240229   4.745   2.490   1.549
 6224TIP3   OH240230   4.221   6.141   8.119
 6224TIP3    H140231   4.177   6.225   8.128
 6224TIP3    H240232   4.152   6.080   8.095
 6225TIP3   OH240233   2.536   4.838   7.978
 6225TIP3    H140234   2.511   4.830   7.886
 6225TIP3    H240235   2.625   4.801   7.982
 6226TIP3   OH240236   1.252   3.617   0.555
 6226TIP3    H140237   1.292   3.666   0.626
 6226TIP3    H240238   1.214   3.684   0.497
 6227TIP3   OH240239   1.153   5.965   2.007
 6227TIP3    H140240   1.190   5.983   2.093
 6227TIP3    H240241   1.170   6.044   1.955
 6228TIP3   OH240242   4.725   0.362   7.948
 6228TIP3    H140243   4.720   0.429   8.016
 6228TIP3    H240244   4.698   0.406   7.868
 6229TIP3   OH240245   2.894   2.023   1.210
 6229TIP3    H140246   2.899   1.928   1.198
 6229TIP3    H240247   2.807   2.039   1.246
 6230TIP3   OH240248   1.293   1.604   0.551
 6230TIP3    H140249   1.368   1.545   0.562
 6230TIP3    H240250   1.263   1.622   0.640
 6231TIP3   OH240251   2.108   1.746   8.061
 6231TIP3    H140252   2.066   1.806   8.000
 6231TIP3    H240253   2.190   1.720   8.018
 6232TIP3   OH240254   4.935   1.995   8.604
 6232TIP3    H140255   5.003   1.941   8.565
 6232TIP3    H240256   4.979   2.043   0.060
 6233TIP3   OH240257   2.065   2.570   6.206
 6233TIP3    H140258   2.028   2.536   6.288
 6233TIP3    H240259   2.071   2.664   6.220
 6234TIP3   OH240260   0.940   0.508   0.739
 6234TIP3    H140261   0.871   0.488   0.676
 6234TIP3    H240262   0.894   0.530   0.819
 6235TIP3   OH240263   2.346   5.689   0.212
 6235TIP3    H140264   2.357   5.601   0.175
 6235TIP3    H240265   2.389   5.746   0.148
 6236TIP3   OH240266   2.219   1.340   7.628
 6236TIP3    H140267   2.167   1.277   7.579
 6236TIP3    H240268   2.310   1.314   7.612
 6237TIP3   OH240269   3.767   0.390   6.967
 6237TIP3    H140270   3.682   0.354   6.993
 6237TIP3    H240271   3.764   0.482   6.994
 6238TIP3   OH240272   2.946   4.070   0.906
 6238TIP3    H140273   2.938   4.128   0.981
 6238TIP3    H240274   2.872   4.009   0.914
 6239TIP3   OH240275   3.784   4.159   6.797
 6239TIP3    H140276   3.831   4.231   6.753
 6239TIP3    H240277   3.843   4.130   6.866
 6240TIP3   OH240278   5.214   1.639   8.292
 6240TIP3    H140279   5.216   1.684   8.208
 6240TIP3    H240280   5.286   1.576   8.287
 6241TIP3   OH240281   1.576   5.183   2.660
 6241TIP3    H140282   1.537   5.271   2.654
 6241TIP3    H240283   1.670   5.199   2.657
 6242TIP3   OH240284   3.360   2.336   1.375
 6242TIP3    H140285   3.338   2.429   1.388
 6242TIP3    H240286   3.355   2.324   1.280
 6243TIP3   OH240287   4.252   1.203   7.309
 6243TIP3    H140288   4.172   1.256   7.300
 6243TIP3    H240289   4.227   1.132   7.369
 6244TIP3   OH240290   3.769   1.470   1.314
 6244TIP3    H140291   3.862   1.448   1.319
 6244TIP3    H240292   3.761   1.551   1.364
 6245TIP3   OH240293   5.151   2.432   7.883
 6245TIP3    H140294   5.105   2.414   7.965
 6245TIP3    H240295   5.163   2.527   7.883
 6246TIP3   OH240296   5.812   5.384   1.163
 6246TIP3    H140297   5.812   5.461   1.105
 6246TIP3    H240298   5.832   5.311   1.105
 6247TIP3   OH240299   2.448   2.236   0.887
 6247TIP3    H140300   2.429   2.306   0.949
 6247TIP3    H240301   2.426   2.273   0.802
 6248TIP3   OH240302   6.620   1.025   7.124
 6248TIP3    H140303   6.567   1.089   7.173
 6248TIP3    H240304   6.624   1.062   7.035
 6249TIP3   OH240305   3.963   6.573   8.107
 6249TIP3    H140306   3.990   6.606   8.192
 6249TIP3    H240307   4.042   6.534   8.070
 6250TIP3   OH240308   2.544   2.029   6.866
 6250TIP3    H140309   2.517   2.014   6.956
 6250TIP3    H240310   2.630   2.071   6.872
 6251TIP3   OH240311   0.978   5.980   1.190
 6251TIP3    H140312   0.891   5.947   1.165
 6251TIP3    H240313   0.961   6.037   1.265
 6252TIP3   OH240314   1.415   5.511   1.607
 6252TIP3    H140315   1.475   5.459   1.554
 6252TIP3    H240316   1.443   5.602   1.594
 6253TIP3   OH240317   0.439   3.052   8.257
 6253TIP3    H140318   0.426   2.961   8.281
 6253TIP3    H240319   0.529   3.072   8.285
 6254TIP3   OH240320   0.885   4.389   7.679
 6254TIP3    H140321   0.938   4.337   7.739
 6254TIP3    H240322   0.834   4.447   7.736
 6255TIP3   OH240323   0.449   1.246   7.233
 6255TIP3    H140324   0.387   1.312   7.200
 6255TIP3    H240325   0.408   1.162   7.213
 6256TIP3   OH240326   2.855   5.587   8.414
 6256TIP3    H140327   2.875   5.638   8.336
 6256TIP3    H240328   2.893   5.638   8.486
 6257TIP3   OH240329   1.924   1.224   0.616
 6257TIP3    H140330   1.948   1.210   0.707
 6257TIP3    H240331   1.990   1.174   0.566
 6258TIP3   OH240332   5.791   3.788   1.175
 6258TIP3    H140333   5.705   3.746   1.178
 6258TIP3    H240334   5.773   3.880   1.198
 6259TIP3   OH240335   3.005   5.914   8.062
 6259TIP3    H140336   3.068   5.979   8.032
 6259TIP3    H240337   2.951   5.894   7.985
 6260TIP3   OH240338   3.054   1.765   2.350
 6260TIP3    H140339   3.114   1.697   2.380
 6260TIP3    H240340   3.106   1.846   2.351
 6261TIP3   OH240341   2.036   6.601   8.429
 6261TIP3    H140342   2.130   6.586   8.416
 6261TIP3    H240343   2.024   6.694   8.411
 6262TIP3   OH240344   1.441   1.489   8.468
 6262TIP3    H140345   1.381   1.450   8.531
 6262TIP3    H240346   1.484   1.414   8.426
 6263TIP3   OH240347   4.387   5.759   8.259
 6263TIP3    H140348   4.432   5.793   8.182
 6263TIP3    H240349   4.294   5.775   8.241
 6264TIP3   OH240350   1.601   4.958   1.733
 6264TIP3    H140351   1.597   4.863   1.726
 6264TIP3    H240352   1.510   4.987   1.724
 6265TIP3   OH240353   0.074   6.420   2.298
 6265TIP3    H140354   0.170   6.420   2.294
 6265TIP3    H240355   0.051   6.511   2.317
 6266TIP3   OH240356   5.862   4.125   7.773
 6266TIP3    H140357   5.804   4.062   7.815
 6266TIP3    H240358   5.928   4.145   7.839
 6267TIP3   OH240359   5.117   2.869   0.726
 6267TIP3    H140360   5.048   2.885   0.662
 6267TIP3    H240361   5.132   2.774   0.722
 6268TIP3   OH240362   3.573   5.186   7.237
 6268TIP3    H140363   3.506   5.200   7.171
 6268TIP3    H240364   3.551   5.102   7.277
 6269TIP3   OH240365   5.880   2.159   8.602
 6269TIP3    H140366   5.928   2.204   8.532
 6269TIP3    H240367   5.834   2.088   8.558
 6270TIP3   OH240368   1.902   6.500   1.790
 6270TIP3    H140369   1.927   6.562   1.722
 6270TIP3    H240370   1.904   6.551   1.871
 6271TIP3   OH240371   2.725   2.756   7.046
 6271TIP3    H140372   2.792   2.811   7.006
 6271TIP3    H240373   2.653   2.757   6.983
 6272TIP3   OH240374   0.243   6.017   6.077
 6272TIP3    H140375   0.230   6.084   6.144
 6272TIP3    H240376   0.203   5.939   6.114
 6273TIP3   OH240377   2.865   5.479   7.165
 6273TIP3    H140378   2.898   5.412   7.224
 6273TIP3    H240379   2.879   5.442   7.077
 6274TIP3   OH240380   5.348   0.244   8.364
 6274TIP3    H140381   5.370   0.216   8.453
 6274TIP3    H240382   5.280   0.183   8.336
 6275TIP3   OH240383   5.274   2.777   0.459
 6275TIP3    H140384   5.365   2.748   0.448
 6275TIP3    H240385   5.280   2.856   0.512
 6276TIP3   OH240386   5.114   3.620   7.547
 6276TIP3    H140387   5.091   3.712   7.559
 6276TIP3    H240388   5.081   3.598   7.460
 6277TIP3   OH240389   0.610   0.218   1.339
 6277TIP3    H140390   0.563   0.281   1.393
 6277TIP3    H240391   0.547   0.148   1.322
 6278TIP3   OH240392   3.349   6.127   2.346
 6278TIP3    H140393   3.436   6.129   2.385
 6278TIP3    H240394   3.362   6.096   2.257
 6279TIP3   OH240395   2.628   1.045   7.892
 6279TIP3    H140396   2.702   1.034   7.832
 6279TIP3    H240397   2.630   1.137   7.918
 6280TIP3   OH240398   1.245   4.636   1.664
 6280TIP3    H140399   1.248   4.549   1.702
 6280TIP3    H240400   1.275   4.625   1.574
 6281TIP3   OH240401   4.527   1.200   2.351
 6281TIP3    H140402   4.534   1.288   2.388
 6281TIP3    H240403   4.597   1.196   2.286
 6282TIP3   OH240404   0.590   2.639   0.608
 6282TIP3    H140405   0.516   2.700   0.600
 6282TIP3    H240406   0.573   2.591   0.689
 6283TIP3   OH240407   1.820   6.243   1.776
 6283TIP3    H140408   1.824   6.335   1.801
 6283TIP3    H240409   1.907   6.209   1.799
 6284TIP3   OH240410   4.716   0.625   0.008
 6284TIP3    H140411   4.792   0.658   0.056
 6284TIP3    H240412   4.712   0.678   8.543
 6285TIP3   OH240413   0.279   2.929   0.282
 6285TIP3    H140414   0.194   2.890   0.303
 6285TIP3    H240415   0.314   2.875   0.212
 6286TIP3   OH240416   3.269   4.554   0.619
 6286TIP3    H140417   3.288   4.476   0.567
 6286TIP3    H240418   3.332   4.619   0.588
 6287TIP3   OH240419   4.694   3.097   1.050
 6287TIP3    H140420   4.786   3.098   1.024
 6287TIP3    H240421   4.674   3.005   1.066
 6288TIP3   OH240422   5.037   1.027   0.497
 6288TIP3    H140423   5.067   1.007   0.585
 6288TIP3    H240424   4.948   0.990   0.493
 6289TIP3   OH240425   0.005   2.569   2.106
 6289TIP3    H140426   6.852   2.578   2.193
 6289TIP3    H240427   0.044   2.481   2.107
 6290TIP3   OH240428   0.651   2.161   7.772
 6290TIP3    H140429   0.574   2.104   7.765
 6290TIP3    H240430   0.640   2.224   7.701
 6291TIP3   OH240431   5.580   2.809   7.490
 6291TIP3    H140432   5.529   2.732   7.465
 6291TIP3    H240433   5.605   2.792   7.581
 6292TIP3   OH240434   5.526   4.929   7.662
 6292TIP3    H140435   5.569   4.900   7.742
 6292TIP3    H240436   5.548   5.022   7.655
 6293TIP3   OH240437   5.944   5.788   2.344
 6293TIP3    H140438   5.906   5.870   2.374
 6293TIP3    H240439   5.993   5.755   2.420
 6294TIP3   OH240440   2.056   5.601   8.048
 6294TIP3    H140441   2.116   5.673   8.067
 6294TIP3    H240442   1.996   5.600   8.123
 6295TIP3   OH240443   4.574   1.203   2.059
 6295TIP3    H140444   4.487   1.167   2.075
 6295TIP3    H240445   4.564   1.297   2.075
 6296TIP3   OH240446   2.242   5.358   1.379
 6296TIP3    H140447   2.303   5.366   1.452
 6296TIP3    H240448   2.191   5.278   1.398
 6297TIP3   OH240449   1.424   1.404   0.684
 6297TIP3    H140450   1.354   1.348   0.720
 6297TIP3    H240451   1.488   1.343   0.650
 6298TIP3   OH240452   6.746   3.976   6.465
 6298TIP3    H140453   6.720   3.943   6.379
 6298TIP3    H240454   6.695   3.926   6.528
 6299TIP3   OH240455   3.989   1.027   1.972
 6299TIP3    H140456   4.014   1.035   1.880
 6299TIP3    H240457   3.930   1.101   1.988
 6300TIP3   OH240458   1.522   5.779   1.639
 6300TIP3    H140459   1.572   5.859   1.654
 6300TIP3    H240460   1.437   5.795   1.679
 6301TIP3   OH240461   1.595   4.157   8.423
 6301TIP3    H140462   1.501   4.153   8.441
 6301TIP3    H240463   1.635   4.177   8.507
 6302TIP3   OH240464   0.541   5.919   1.625
 6302TIP3    H140465   0.506   5.925   1.714
 6302TIP3    H240466   0.477   5.866   1.578
 6303TIP3   OH240467   3.469   1.517   1.547
 6303TIP3    H140468   3.469   1.545   1.639
 6303TIP3    H240469   3.376   1.519   1.521
 6304TIP3   OH240470   2.796   4.973   0.600
 6304TIP3    H140471   2.757   5.056   0.627
 6304TIP3    H240472   2.888   4.995   0.584
 6305TIP3   OH240473   5.219   5.752   0.037
 6305TIP3    H140474   5.288   5.746   0.104
 6305TIP3    H240475   5.158   5.681   0.059
 6306TIP3   OH240476   0.036   1.193   8.417
 6306TIP3    H140477   0.108   1.213   8.476
 6306TIP3    H240478   0.032   1.269   8.358
 6307TIP3   OH240479   3.485   0.014   1.599
 6307TIP3    H140480   3.485   6.812   1.634
 6307TIP3    H240481   3.552   0.013   1.531
 6308TIP3   OH240482   0.699   4.558   7.090
 6308TIP3    H140483   0.668   4.646   7.072
 6308TIP3    H240484   0.722   4.523   7.004
 6309TIP3   OH240485   6.869   0.389   0.892
 6309TIP3    H140486   6.776   0.409   0.905
 6309TIP3    H240487   6.882   0.397   0.798
 6310TIP3   OH240488   0.343   1.273   1.861
 6310TIP3    H140489   0.415   1.300   1.805
 6310TIP3    H240490   0.366   1.307   1.948
 6311TIP3   OH240491   4.116   1.805   0.373
 6311TIP3    H140492   4.027   1.783   0.398
 6311TIP3    H240493   4.132   1.891   0.414
 6312TIP3   OH240494   2.890   0.111   6.411
 6312TIP3    H140495   2.901   0.130   6.504
 6312TIP3    H240496   2.889   0.016   6.405
 6313TIP3   OH240497   2.050   2.628   7.832
 6313TIP3    H140498   2.116   2.629   7.762
 6313TIP3    H240499   1.984   2.566   7.801
 6314TIP3   OH240500   4.866   6.228   1.089
 6314TIP3    H140501   4.843   6.253   1.000
 6314TIP3    H240502   4.866   6.310   1.138
 6315TIP3   OH240503   2.762   1.681   7.820
 6315TIP3    H140504   2.813   1.721   7.750
 6315TIP3    H240505   2.817   1.687   7.898
 6316TIP3   OH240506   6.235   6.068   7.874
 6316TIP3    H140507   6.233   6.093   7.782
 6316TIP3    H240508   6.297   5.995   7.878
 6317TIP3   OH240509   2.952   3.675   7.462
 6317TIP3    H140510   2.872   3.678   7.514
 6317TIP3    H240511   2.979   3.583   7.466
 6318TIP3   OH240512   0.048   1.767   0.715
 6318TIP3    H140513   0.095   1.802   0.640
 6318TIP3    H240514   0.065   1.672   0.712
 6319TIP3   OH240515   3.466   4.019   8.033
 6319TIP3    H140516   3.535   4.079   8.008
 6319TIP3    H240517   3.385   4.063   8.009
 6320TIP3   OH240518   0.291   4.889   7.699
 6320TIP3    H140519   0.348   4.915   7.771
 6320TIP3    H240520   0.341   4.824   7.650
 6321TIP3   OH240521   5.895   5.291   6.296
 6321TIP3    H140522   5.902   5.210   6.246
 6321TIP3    H240523   5.802   5.299   6.317
 6322TIP3   OH240524   0.732   1.498   0.373
 6322TIP3    H140525   0.737   1.501   0.278
 6322TIP3    H240526   0.821   1.520   0.403
 6323TIP3   OH240527   3.735   5.623   1.278
 6323TIP3    H140528   3.755   5.708   1.316
 6323TIP3    H240529   3.754   5.560   1.347
 6324TIP3   OH240530   4.512   0.547   1.424
 6324TIP3    H140531   4.528   0.641   1.420
 6324TIP3    H240532   4.580   0.509   1.368
 6325TIP3   OH240533   0.416   2.015   6.669
 6325TIP3    H140534   0.432   1.941   6.611
 6325TIP3    H240535   0.472   1.998   6.745
 6326TIP3   OH240536   4.742   3.053   1.598
 6326TIP3    H140537   4.675   3.026   1.661
 6326TIP3    H240538   4.726   3.001   1.520
 6327TIP3   OH240539   2.838   0.651   1.748
 6327TIP3    H140540   2.851   0.644   1.654
 6327TIP3    H240541   2.810   0.741   1.762
 6328TIP3   OH240542   5.034   5.937   2.286
 6328TIP3    H140543   5.098   5.948   2.216
 6328TIP3    H240544   5.026   5.842   2.296
 6329TIP3   OH240545   6.263   5.500   1.715
 6329TIP3    H140546   6.304   5.586   1.702
 6329TIP3    H240547   6.202   5.513   1.787
 6330TIP3   OH240548   5.574   2.862   0.622
 6330TIP3    H140549   5.592   2.799   0.553
 6330TIP3    H240550   5.587   2.948   0.581
 6331TIP3   OH240551   6.119   5.892   1.596
 6331TIP3    H140552   6.209   5.860   1.604
 6331TIP3    H240553   6.067   5.831   1.649
 6332TIP3   OH240554   6.169   4.036   1.008
 6332TIP3    H140555   6.106   4.107   0.993
 6332TIP3    H240556   6.164   4.020   1.102
 6333TIP3   OH240557   3.942   5.938   1.993
 6333TIP3    H140558   3.975   5.936   1.903
 6333TIP3    H240559   3.908   5.849   2.008
 6334TIP3   OH240560   4.584   3.732   2.019
 6334TIP3    H140561   4.631   3.664   1.971
 6334TIP3    H240562   4.652   3.779   2.067
 6335TIP3   OH240563   2.490   1.097   1.742
 6335TIP3    H140564   2.508   1.008   1.710
 6335TIP3    H240565   2.428   1.085   1.814
 6336TIP3   OH240566   3.286   6.505   7.369
 6336TIP3    H140567   3.242   6.440   7.425
 6336TIP3    H240568   3.225   6.578   7.365
 6337TIP3   OH240569   3.645   3.918   6.116
 6337TIP3    H140570   3.579   3.901   6.049
 6337TIP3    H240571   3.712   3.851   6.102
 6338TIP3   OH240572   4.178   6.780   2.230
 6338TIP3    H140573   4.224   6.864   2.232
 6338TIP3    H240574   4.087   6.803   2.212
 6339TIP3   OH240575   6.810   6.088   1.194
 6339TIP3    H140576   6.731   6.084   1.140
 6339TIP3    H240577   6.788   6.039   1.273
 6340TIP3   OH240578   3.687   3.258   0.750
 6340TIP3    H140579   3.755   3.296   0.694
 6340TIP3    H240580   3.709   3.288   0.838
 6341TIP3   OH240581   5.595   4.598   1.815
 6341TIP3    H140582   5.629   4.532   1.876
 6341TIP3    H240583   5.673   4.634   1.774
 6342TIP3   OH240584   5.864   6.746   0.804
 6342TIP3    H140585   5.946   6.713   0.767
 6342TIP3    H240586   5.802   6.738   0.732
 6343TIP3   OH240587   6.511   0.764   1.735
 6343TIP3    H140588   6.518   0.781   1.641
 6343TIP3    H240589   6.587   0.807   1.773
 6344TIP3   OH240590   0.179   4.851   8.468
 6344TIP3    H140591   0.208   4.943   8.465
 6344TIP3    H240592   0.088   4.856   8.499
 6345TIP3   OH240593   0.839   2.791   6.854
 6345TIP3    H140594   0.825   2.696   6.859
 6345TIP3    H240595   0.893   2.803   6.776
 6346TIP3   OH240596   3.742   4.481   1.097
 6346TIP3    H140597   3.743   4.576   1.110
 6346TIP3    H240598   3.656   4.463   1.058
 6347TIP3   OH240599   5.407   0.192   7.498
 6347TIP3    H140600   5.448   0.194   7.585
 6347TIP3    H240601   5.481   0.197   7.437
 6348TIP3   OH240602   2.276   5.308   0.422
 6348TIP3    H140603   2.276   5.376   0.355
 6348TIP3    H240604   2.190   5.267   0.416
 6349TIP3   OH240605   3.149   6.054   7.631
 6349TIP3    H140606   3.087   6.045   7.704
 6349TIP3    H240607   3.160   5.964   7.598
 6350TIP3   OH240608   3.639   2.874   0.110
 6350TIP3    H140609   3.550   2.841   0.105
 6350TIP3    H240610   3.691   2.810   0.061
 6351TIP3   OH240611   1.400   5.354   7.563
 6351TIP3    H140612   1.449   5.281   7.601
 6351TIP3    H240613   1.310   5.323   7.559
 6352TIP3   OH240614   6.447   4.294   0.951
 6352TIP3    H140615   6.404   4.265   1.031
 6352TIP3    H240616   6.376   4.301   0.887
 6353TIP3   OH240617   4.797   6.237   0.032
 6353TIP3    H140618   4.774   6.315   0.083
 6353TIP3    H240619   4.890   6.247   0.013
 6354TIP3   OH240620   4.735   3.838   0.297
 6354TIP3    H140621   4.777   3.893   0.363
 6354TIP3    H240622   4.699   3.764   0.348
 6355TIP3   OH240623   6.533   5.809   7.035
 6355TIP3    H140624   6.529   5.762   6.951
 6355TIP3    H240625   6.555   5.899   7.011
 6356TIP3   OH240626   6.833   4.293   1.420
 6356TIP3    H140627   0.001   4.233   1.369
 6356TIP3    H240628   6.847   4.378   1.379
 6357TIP3   OH240629   1.891   1.053   7.319
 6357TIP3    H140630   1.930   0.966   7.331
 6357TIP3    H240631   1.954   1.101   7.266
 6358TIP3   OH240632   2.278   2.465   0.967
 6358TIP3    H140633   2.303   2.558   0.964
 6358TIP3    H240634   2.289   2.434   0.877
 6359TIP3   OH240635   6.312   3.871   1.187
 6359TIP3    H140636   6.251   3.859   1.260
 6359TIP3    H240637   6.356   3.787   1.179
 6360TIP3   OH240638   2.174   3.990   0.608
 6360TIP3    H140639   2.083   4.001   0.582
 6360TIP3    H240640   2.171   3.989   0.704
 6361TIP3   OH240641   6.531   1.692   6.313
 6361TIP3    H140642   6.544   1.782   6.284
 6361TIP3    H240643   6.608   1.673   6.366
 6362TIP3   OH240644   3.197   4.934   7.788
 6362TIP3    H140645   3.135   5.006   7.800
 6362TIP3    H240646   3.270   4.955   7.847
 6363TIP3   OH240647   3.638   6.057   8.300
 6363TIP3    H140648   3.635   6.042   8.205
 6363TIP3    H240649   3.619   5.972   8.338
 6364TIP3   OH240650   3.040   1.424   1.293
 6364TIP3    H140651   3.032   1.328   1.288
 6364TIP3    H240652   2.953   1.457   1.274
 6365TIP3   OH240653   2.987   3.030   2.338
 6365TIP3    H140654   2.898   3.064   2.331
 6365TIP3    H240655   3.043   3.107   2.331
 6366TIP3   OH240656   0.952   4.259   7.912
 6366TIP3    H140657   1.004   4.187   7.948
 6366TIP3    H240658   0.901   4.292   7.986
 6367TIP3   OH240659   0.519   3.810   7.471
 6367TIP3    H140660   0.463   3.857   7.410
 6367TIP3    H240661   0.571   3.752   7.417
 6368TIP3   OH240662   1.358   2.064   7.051
 6368TIP3    H140663   1.355   1.990   7.112
 6368TIP3    H240664   1.375   2.025   6.966
 6369TIP3   OH240665   3.458   4.994   7.616
 6369TIP3    H140666   3.450   4.902   7.642
 6369TIP3    H240667   3.453   5.042   7.699
 6370TIP3   OH240668   5.968   4.492   0.706
 6370TIP3    H140669   5.932   4.555   0.768
 6370TIP3    H240670   5.981   4.412   0.757
 6371TIP3   OH240671   4.667   4.099   7.148
 6371TIP3    H140672   4.692   4.090   7.056
 6371TIP3    H240673   4.575   4.125   7.146
 6372TIP3   OH240674   4.526   6.699   5.767
 6372TIP3    H140675   4.459   6.634   5.747
 6372TIP3    H240676   4.579   6.659   5.836
 6373TIP3   OH240677   4.853   4.281   1.966
 6373TIP3    H140678   4.944   4.286   1.994
 6373TIP3    H240679   4.818   4.203   2.009
 6374TIP3   OH240680   4.827   0.871   1.284
 6374TIP3    H140681   4.763   0.910   1.225
 6374TIP3    H240682   4.840   0.936   1.352
 6375TIP3   OH240683   0.060   5.420   7.695
 6375TIP3    H140684   0.095   5.442   7.781
 6375TIP3    H240685   0.098   5.335   7.674
 6376TIP3   OH240686   2.060   0.539   0.861
 6376TIP3    H140687   2.011   0.497   0.932
 6376TIP3    H240688   2.010   0.517   0.782
 6377TIP3   OH240689   1.063   0.158   1.242
 6377TIP3    H140690   1.051   0.245   1.203
 6377TIP3    H240691   1.158   0.148   1.247
 6378TIP3   OH240692   6.873   0.280   8.199
 6378TIP3    H140693   6.860   0.193   8.159
 6378TIP3    H240694   6.842   0.341   8.132
 6379TIP3   OH240695   4.082   2.535   1.282
 6379TIP3    H140696   4.006   2.477   1.276
 6379TIP3    H240697   4.144   2.501   1.218
 6380TIP3   OH240698   6.514   1.921   1.275
 6380TIP3    H140699   6.421   1.934   1.255
 6380TIP3    H240700   6.548   1.871   1.201
 6381TIP3   OH240701   5.979   6.719   7.922
 6381TIP3    H140702   6.042   6.648   7.919
 6381TIP3    H240703   5.906   6.685   7.973
 6382TIP3   OH240704   1.949   2.542   0.567
 6382TIP3    H140705   2.002   2.576   0.639
 6382TIP3    H240706   1.870   2.597   0.566
 6383TIP3   OH240707   1.677   3.416   1.223
 6383TIP3    H140708   1.745   3.357   1.190
 6383TIP3    H240709   1.609   3.357   1.257
 6384TIP3   OH240710   3.999   1.910   1.054
 6384TIP3    H140711   4.066   1.861   1.101
 6384TIP3    H240712   4.042   1.937   0.972
 6385TIP3   OH240713   6.105   0.900   8.232
 6385TIP3    H140714   6.196   0.929   8.240
 6385TIP3    H240715   6.056   0.959   8.290
 6386TIP3   OH240716   1.998   6.042   6.363
 6386TIP3    H140717   1.959   6.128   6.373
 6386TIP3    H240718   2.026   6.039   6.271
 6387TIP3   OH240719   1.630   4.516   1.540
 6387TIP3    H140720   1.709   4.475   1.574
 6387TIP3    H240721   1.629   4.494   1.447
 6388TIP3   OH240722   4.409   3.586   0.521
 6388TIP3    H140723   4.498   3.613   0.544
 6388TIP3    H240724   4.415   3.491   0.507
 6389TIP3   OH240725   0.436   0.173   0.440
 6389TIP3    H140726   0.530   0.155   0.439
 6389TIP3    H240727   0.428   0.253   0.493
 6390TIP3   OH240728   0.972   4.462   1.534
 6390TIP3    H140729   0.912   4.468   1.460
 6390TIP3    H240730   0.993   4.554   1.555
 6391TIP3   OH240731   6.081   6.371   0.494
 6391TIP3    H140732   6.089   6.279   0.471
 6391TIP3    H240733   6.114   6.418   0.417
 6392TIP3   OH240734   6.239   0.688   0.912
 6392TIP3    H140735   6.270   0.729   0.831
 6392TIP3    H240736   6.145   0.703   0.912
 6393TIP3   OH240737   0.057   1.443   0.504
 6393TIP3    H140738   6.854   1.456   0.533
 6393TIP3    H240739   0.058   1.356   0.466
 6394TIP3   OH240740   1.251   4.743   8.604
 6394TIP3    H140741   1.216   4.654   8.597
 6394TIP3    H240742   1.283   4.750   0.080
 6395TIP3   OH240743   3.254   1.127   8.012
 6395TIP3    H140744   3.346   1.125   8.039
 6395TIP3    H240745   3.211   1.182   8.078
 6396TIP3   OH240746   5.596   0.284   0.361
 6396TIP3    H140747   5.602   0.357   0.423
 6396TIP3    H240748   5.657   0.306   0.291
 6397TIP3   OH240749   3.400   6.199   8.213
 6397TIP3    H140750   3.422   6.128   8.273
 6397TIP3    H240751   3.483   6.220   8.170
 6398TIP3   OH240752   3.872   2.041   8.523
 6398TIP3    H140753   3.968   2.037   8.533
 6398TIP3    H240754   3.851   1.971   8.462
 6399TIP3   OH240755   6.237   3.807   0.874
 6399TIP3    H140756   6.230   3.892   0.918
 6399TIP3    H240757   6.273   3.827   0.788
 6400TIP3   OH240758   0.790   4.173   0.760
 6400TIP3    H140759   0.713   4.205   0.806
 6400TIP3    H240760   0.861   4.178   0.824
 6401TIP3   OH240761   5.210   4.655   0.012
 6401TIP3    H140762   5.305   4.660   0.021
 6401TIP3    H240763   5.188   4.721   8.560
 6402TIP3   OH240764   6.473   3.743   8.299
 6402TIP3    H140765   6.404   3.710   8.241
 6402TIP3    H240766   6.540   3.777   8.240
 6403TIP3   OH240767   2.001   3.251   0.817
 6403TIP3    H140768   1.976   3.272   0.727
 6403TIP3    H240769   2.017   3.157   0.816
 6404TIP3   OH240770   3.970   6.858   0.426
 6404TIP3    H140771   4.009   6.816   0.350
 6404TIP3    H240772   3.960   6.787   0.490
 6405TIP3   OH240773   3.304   0.834   8.054
 6405TIP3    H140774   3.248   0.798   7.985
 6405TIP3    H240775   3.243   0.876   8.115
 6406TIP3   OH240776   1.503   1.886   0.556
 6406TIP3    H140777   1.561   1.945   0.508
 6406TIP3    H240778   1.429   1.873   0.498
 6407TIP3   OH240779   0.070   0.166   8.556
 6407TIP3    H140780   6.884   0.190   8.499
 6407TIP3    H240781   0.099   0.249   8.595
 6408TIP3   OH240782   3.972   2.684   7.434
 6408TIP3    H140783   3.883   2.678   7.400
 6408TIP3    H240784   4.027   2.652   7.363
 6409TIP3   OH240785   2.376   5.791   8.536
 6409TIP3    H140786   2.291   5.759   8.506
 6409TIP3    H240787   2.378   5.883   8.512
 6410TIP3   OH240788   0.463   0.276   1.567
 6410TIP3    H140789   0.444   0.239   1.653
 6410TIP3    H240790   0.523   0.349   1.585
 6411TIP3   OH240791   3.141   1.816   7.826
 6411TIP3    H140792   3.065   1.833   7.882
 6411TIP3    H240793   3.199   1.891   7.841
 6412TIP3   OH240794   5.607   2.205   7.117
 6412TIP3    H140795   5.668   2.199   7.192
 6412TIP3    H240796   5.530   2.155   7.145
 6413TIP3   OH240797   0.053   5.337   1.929
 6413TIP3    H140798   6.860   5.299   1.966
 6413TIP3    H240799   0.023   5.388   1.854
 6414TIP3   OH240800   0.332   5.340   1.395
 6414TIP3    H140801   0.262   5.403   1.411
 6414TIP3    H240802   0.399   5.363   1.459
 6415TIP3   OH240803   1.651   3.672   7.964
 6415TIP3    H140804   1.590   3.640   7.897
 6415TIP3    H240805   1.595   3.716   8.028
 6416TIP3   OH240806   2.106   2.709   0.725
 6416TIP3    H140807   2.089   2.799   0.753
 6416TIP3    H240808   2.184   2.684   0.774
 6417TIP3   OH240809   5.271   2.738   1.916
 6417TIP3    H140810   5.313   2.655   1.939
 6417TIP3    H240811   5.182   2.714   1.892
 6418TIP3   OH240812   6.636   6.462   1.011
 6418TIP3    H140813   6.688   6.416   1.077
 6418TIP3    H240814   6.582   6.523   1.061
 6419TIP3   OH240815   2.080   6.335   0.785
 6419TIP3    H140816   2.064   6.341   0.879
 6419TIP3    H240817   2.125   6.251   0.774
 6420TIP3   OH240818   5.799   4.115   7.094
 6420TIP3    H140819   5.774   4.161   7.014
 6420TIP3    H240820   5.869   4.168   7.131
 6421TIP3   OH240821   4.756   5.797   7.653
 6421TIP3    H140822   4.698   5.764   7.722
 6421TIP3    H240823   4.723   5.757   7.573
 6422TIP3   OH240824   5.000   5.546   0.852
 6422TIP3    H140825   5.086   5.513   0.877
 6422TIP3    H240826   4.986   5.621   0.910
 6423TIP3   OH240827   2.092   6.858   6.772
 6423TIP3    H140828   2.117   6.831   6.684
 6423TIP3    H240829   2.146   0.047   6.791
 6424TIP3   OH240830   5.606   1.972   7.994
 6424TIP3    H140831   5.562   2.029   7.931
 6424TIP3    H240832   5.694   2.009   8.002
 6425TIP3   OH240833   5.060   3.576   1.534
 6425TIP3    H140834   5.115   3.609   1.462
 6425TIP3    H240835   5.005   3.509   1.494
 6426TIP3   OH240836   6.050   5.466   0.990
 6426TIP3    H140837   6.073   5.543   0.937
 6426TIP3    H240838   6.066   5.392   0.931
 6427TIP3   OH240839   1.982   3.874   7.075
 6427TIP3    H140840   2.019   3.909   7.156
 6427TIP3    H240841   2.051   3.887   7.009
 6428TIP3   OH240842   3.066   1.615   0.807
 6428TIP3    H140843   2.993   1.644   0.861
 6428TIP3    H240844   3.124   1.569   0.868
 6429TIP3   OH240845   0.067   6.241   2.484
 6429TIP3    H140846   0.085   6.317   2.539
 6429TIP3    H240847   0.033   6.278   2.402
 6430TIP3   OH240848   1.293   5.933   0.841
 6430TIP3    H140849   1.328   6.002   0.897
 6430TIP3    H240850   1.201   5.956   0.830
 6431TIP3   OH240851   6.332   4.741   6.470
 6431TIP3    H140852   6.250   4.759   6.515
 6431TIP3    H240853   6.345   4.815   6.411
 6432TIP3   OH240854   2.493   1.089   0.550
 6432TIP3    H140855   2.485   0.995   0.540
 6432TIP3    H240856   2.560   1.100   0.618
 6433TIP3   OH240857   5.924   0.362   0.525
 6433TIP3    H140858   6.010   0.372   0.565
 6433TIP3    H240859   5.876   0.304   0.585
 6434TIP3   OH240860   3.412   5.599   0.607
 6434TIP3    H140861   3.480   5.565   0.666
 6434TIP3    H240862   3.353   5.526   0.593
 6435TIP3   OH240863   2.282   3.374   0.045
 6435TIP3    H140864   2.301   3.426   0.123
 6435TIP3    H240865   2.336   3.413   8.590
 6436TIP3   OH240866   4.107   3.092   2.407
 6436TIP3    H140867   4.078   3.164   2.351
 6436TIP3    H240868   4.182   3.054   2.360
 6437TIP3   OH240869   3.962   6.834   7.982
 6437TIP3    H140870   3.913   6.845   7.901
 6437TIP3    H240871   3.908   6.778   8.036
 6438TIP3   OH240872   2.554   6.385   8.384
 6438TIP3    H140873   2.626   6.440   8.352
 6438TIP3    H240874   2.597   6.317   8.435
 6439TIP3   OH240875   4.221   6.547   8.089
 6439TIP3    H140876   4.292   6.497   8.048
 6439TIP3    H240877   4.245   6.639   8.076
 6440TIP3   OH240878   1.360   0.806   7.446
 6440TIP3    H140879   1.356   0.861   7.368
 6440TIP3    H240880   1.444   0.760   7.439
 6441TIP3   OH240881   0.384   2.763   8.269
 6441TIP3    H140882   0.461   2.746   8.214
 6441TIP3    H240883   0.378   2.687   8.326
 6442TIP3   OH240884   6.357   2.386   0.699
 6442TIP3    H140885   6.400   2.327   0.637
 6442TIP3    H240886   6.278   2.339   0.726
 6443TIP3   OH240887   6.631   3.156   0.743
 6443TIP3    H140888   6.712   3.150   0.692
 6443TIP3    H240889   6.609   3.066   0.764
 6444TIP3   OH240890   2.011   0.324   6.289
 6444TIP3    H140891   2.057   0.313   6.373
 6444TIP3    H240892   1.919   0.308   6.311
 6445TIP3   OH240893   5.042   4.939   7.936
 6445TIP3    H140894   5.113   4.902   7.989
 6445TIP3    H240895   5.015   4.867   7.879
 6446TIP3   OH240896   3.539   5.477   0.811
 6446TIP3    H140897   3.573   5.426   0.738
 6446TIP3    H240898   3.594   5.450   0.886
 6447TIP3   OH240899   4.879   5.173   8.199
 6447TIP3    H140900   4.813   5.120   8.243
 6447TIP3    H240901   4.962   5.133   8.224
 6448TIP3   OH240902   0.280   6.606   8.183
 6448TIP3    H140903   0.336   6.602   8.260
 6448TIP3    H240904   0.209   6.545   8.202
 6449TIP3   OH240905   1.643   0.625   7.963
 6449TIP3    H140906   1.663   0.596   7.874
 6449TIP3    H240907   1.599   0.551   8.004
 6450TIP3   OH240908   4.190   2.978   6.803
 6450TIP3    H140909   4.174   2.900   6.856
 6450TIP3    H240910   4.277   3.007   6.830
 6451TIP3   OH240911   3.894   6.065   7.764
 6451TIP3    H140912   3.804   6.094   7.777
 6451TIP3    H240913   3.889   5.970   7.758
 6452TIP3   OH240914   0.451   5.292   1.870
 6452TIP3    H140915   0.380   5.243   1.828
 6452TIP3    H240916   0.434   5.281   1.964
 6453TIP3   OH240917   1.785   0.043   1.745
 6453TIP3    H140918   1.736   0.121   1.722
 6453TIP3    H240919   1.764   0.029   1.838
 6454TIP3   OH240920   3.037   3.605   0.771
 6454TIP3    H140921   3.125   3.641   0.780
 6454TIP3    H240922   2.996   3.658   0.702
 6455TIP3   OH240923   0.932   3.183   0.407
 6455TIP3    H140924   0.855   3.192   0.350
 6455TIP3    H240925   1.000   3.234   0.363
 6456TIP3   OH240926   0.259   1.569   8.494
 6456TIP3    H140927   0.200   1.554   8.568
 6456TIP3    H240928   0.347   1.561   8.530
 6457TIP3   OH240929   4.958   2.509   7.568
 6457TIP3    H140930   4.906   2.494   7.490
 6457TIP3    H240931   4.979   2.603   7.565
 6458TIP3   OH240932   3.798   0.868   2.128
 6458TIP3    H140933   3.827   0.864   2.037
 6458TIP3    H240934   3.824   0.956   2.158
 6459TIP3   OH240935   4.234   4.088   7.696
 6459TIP3    H140936   4.185   4.022   7.646
 6459TIP3    H240937   4.313   4.044   7.725
 6460TIP3   OH240938   2.412   0.346   7.302
 6460TIP3    H140939   2.334   0.294   7.282
 6460TIP3    H240940   2.472   0.328   7.230
 6461TIP3   OH240941   2.126   0.483   6.839
 6461TIP3    H140942   2.082   0.560   6.873
 6461TIP3    H240943   2.056   0.430   6.801
 6462TIP3   OH240944   0.789   3.859   7.365
 6462TIP3    H140945   0.869   3.817   7.332
 6462TIP3    H240946   0.754   3.796   7.428
 6463TIP3   OH240947   3.783   2.289   8.373
 6463TIP3    H140948   3.839   2.236   8.430
 6463TIP3    H240949   3.734   2.224   8.322
 6464TIP3   OH240950   6.549   1.346   7.001
 6464TIP3    H140951   6.622   1.316   6.946
 6464TIP3    H240952   6.473   1.297   6.968
 6465TIP3   OH240953   0.891   3.991   1.771
 6465TIP3    H140954   0.857   4.068   1.725
 6465TIP3    H240955   0.848   3.994   1.856
 6466TIP3   OH240956   1.356   0.420   7.926
 6466TIP3    H140957   1.351   0.333   7.965
 6466TIP3    H240958   1.365   0.404   7.832
 6467TIP3   OH240959   1.837   5.626   8.229
 6467TIP3    H140960   1.750   5.614   8.192
 6467TIP3    H240961   1.824   5.686   8.303
 6468TIP3   OH240962   2.173   1.157   8.335
 6468TIP3    H140963   2.159   1.195   8.422
 6468TIP3    H240964   2.240   1.212   8.295
 6469TIP3   OH240965   0.279   3.639   8.332
 6469TIP3    H140966   0.335   3.715   8.318
 6469TIP3    H240967   0.207   3.673   8.386
 6470TIP3   OH240968   4.847   3.730   6.432
 6470TIP3    H140969   4.794   3.657   6.464
 6470TIP3    H240970   4.786   3.803   6.424
 6471TIP3   OH240971   4.034   0.415   2.018
 6471TIP3    H140972   4.043   0.510   2.018
 6471TIP3    H240973   4.061   0.387   1.931
 6472TIP3   OH240974   1.436   0.353   0.802
 6472TIP3    H140975   1.489   0.274   0.799
 6472TIP3    H240976   1.500   0.424   0.810
 6473TIP3   OH240977   3.229   5.312   2.426
 6473TIP3    H140978   3.265   5.244   2.483
 6473TIP3    H240979   3.229   5.273   2.339
 6474TIP3   OH240980   6.265   1.607   1.372
 6474TIP3    H140981   6.290   1.556   1.294
 6474TIP3    H240982   6.186   1.654   1.345
 6475TIP3   OH240983   1.455   3.037   2.138
 6475TIP3    H140984   1.361   3.036   2.120
 6475TIP3    H240985   1.496   3.008   2.057
 6476TIP3   OH240986   0.453   1.827   1.186
 6476TIP3    H140987   0.358   1.827   1.171
 6476TIP3    H240988   0.465   1.775   1.265
 6477TIP3   OH240989   0.538   4.750   0.013
 6477TIP3    H140990   0.458   4.774   0.060
 6477TIP3    H240991   0.607   4.799   0.057
 6478TIP3   OH240992   5.853   6.694   8.603
 6478TIP3    H140993   5.855   6.784   0.022
 6478TIP3    H240994   5.793   6.648   0.048
 6479TIP3   OH240995   5.684   5.827   7.369
 6479TIP3    H140996   5.681   5.858   7.278
 6479TIP3    H240997   5.765   5.775   7.373
 6480TIP3   OH240998   5.519   3.087   7.488
 6480TIP3    H140999   5.524   3.091   7.583
 6480TIP3    H241000   5.544   2.997   7.467
 6481TIP3   OH241001   4.734   4.031   2.068
 6481TIP3    H141002   4.800   3.964   2.085
 6481TIP3    H241003   4.659   4.005   2.122
 6482TIP3   OH241004   2.167   0.283   0.933
 6482TIP3    H141005   2.202   0.226   0.865
 6482TIP3    H241006   2.218   0.363   0.925
 6483TIP3   OH241007   1.972   0.565   7.958
 6483TIP3    H141008   1.905   0.630   7.978
 6483TIP3    H241009   2.044   0.585   8.018
 6484TIP3   OH241010   1.281   6.687   1.679
 6484TIP3    H141011   1.273   6.782   1.692
 6484TIP3    H241012   1.262   6.674   1.586
 6485TIP3   OH241013   3.002   2.471   1.613
 6485TIP3    H141014   2.962   2.391   1.645
 6485TIP3    H241015   2.955   2.493   1.533
 6486TIP3   OH241016   5.955   1.883   0.140
 6486TIP3    H141017   5.886   1.944   0.165
 6486TIP3    H241018   5.925   1.798   0.172
 6487TIP3   OH241019   6.773   5.019   1.101
 6487TIP3    H141020   6.707   5.080   1.071
 6487TIP3    H241021   6.791   4.963   1.025
 6488TIP3   OH241022   1.246   6.273   0.144
 6488TIP3    H141023   1.232   6.332   0.218
 6488TIP3    H241024   1.331   6.299   0.109
 6489TIP3   OH241025   3.799   2.986   1.185
 6489TIP3    H141026   3.805   2.890   1.186
 6489TIP3    H241027   3.861   3.013   1.118
 6490TIP3   OH241028   3.081   6.475   2.555
 6490TIP3    H141029   3.166   6.489   2.597
 6490TIP3    H241030   3.081   6.381   2.534
 6491TIP3   OH241031   3.105   0.396   6.792
 6491TIP3    H141032   3.028   0.433   6.749
 6491TIP3    H241033   3.132   0.464   6.854
 6492TIP3   OH241034   4.323   2.295   0.131
 6492TIP3    H141035   4.235   2.271   0.162
 6492TIP3    H241036   4.362   2.342   0.205
 6493TIP3   OH241037   6.080   2.712   8.188
 6493TIP3    H141038   6.068   2.687   8.280
 6493TIP3    H241039   6.061   2.632   8.139
 6494TIP3   OH241040   3.533   1.508   0.218
 6494TIP3    H141041   3.480   1.559   0.279
 6494TIP3    H241042   3.518   1.551   0.133
 6495TIP3   OH241043   4.807   4.016   7.481
 6495TIP3    H141044   4.716   4.047   7.476
 6495TIP3    H241045   4.813   3.973   7.566
 6496TIP3   OH241046   3.526   5.586   7.153
 6496TIP3    H141047   3.505   5.600   7.061
 6496TIP3    H241048   3.474   5.509   7.177
 6497TIP3   OH241049   3.786   3.615   8.117
 6497TIP3    H141050   3.759   3.526   8.141
 6497TIP3    H241051   3.719   3.671   8.157
 6498TIP3   OH241052   6.314   1.255   8.117
 6498TIP3    H141053   6.338   1.237   8.208
 6498TIP3    H241054   6.346   1.179   8.068
 6499TIP3   OH241055   2.100   3.972   7.879
 6499TIP3    H141056   2.149   3.967   7.796
 6499TIP3    H241057   2.022   3.919   7.864
 6500TIP3   OH241058   0.675   2.231   7.047
 6500TIP3    H141059   0.682   2.146   7.091
 6500TIP3    H241060   0.692   2.211   6.955
 6501TIP3   OH241061   0.316   6.035   8.384
 6501TIP3    H141062   0.304   6.007   8.293
 6501TIP3    H241063   0.342   6.127   8.377
 6502TIP3   OH241064   6.519   0.997   8.479
 6502TIP3    H141065   6.562   1.007   8.564
 6502TIP3    H241066   6.562   1.060   8.422
 6503TIP3   OH241067   1.430   2.286   1.227
 6503TIP3    H141068   1.359   2.239   1.271
 6503TIP3    H241069   1.465   2.223   1.164
 6504TIP3   OH241070   5.570   1.930   8.285
 6504TIP3    H141071   5.600   1.839   8.278
 6504TIP3    H241072   5.571   1.962   8.194
 6505TIP3   OH241073   2.759   5.333   0.161
 6505TIP3    H141074   2.733   5.295   0.077
 6505TIP3    H241075   2.677   5.341   0.210
 6506TIP3   OH241076   2.569   0.750   0.777
 6506TIP3    H141077   2.542   0.771   0.688
 6506TIP3    H241078   2.660   0.720   0.768
 6507TIP3   OH241079   2.436   0.405   6.875
 6507TIP3    H141080   2.515   0.368   6.913
 6507TIP3    H241081   2.421   0.486   6.924
 6508TIP3   OH241082   2.733   1.359   7.325
 6508TIP3    H141083   2.798   1.405   7.378
 6508TIP3    H241084   2.689   1.429   7.275
 6509TIP3   OH241085   0.257   6.443   1.109
 6509TIP3    H141086   0.298   6.379   1.051
 6509TIP3    H241087   0.272   6.409   1.197
 6510TIP3   OH241088   2.715   6.587   0.582
 6510TIP3    H141089   2.659   6.645   0.633
 6510TIP3    H241090   2.782   6.557   0.644
 6511TIP3   OH241091   5.759   5.537   7.073
 6511TIP3    H141092   5.709   5.489   7.139
 6511TIP3    H241093   5.844   5.494   7.071
 6512TIP3   OH241094   1.597   0.245   1.639
 6512TIP3    H141095   1.516   0.200   1.661
 6512TIP3    H241096   1.581   0.284   1.553
 6513TIP3   OH241097   2.689   1.295   7.989
 6513TIP3    H141098   2.780   1.308   7.965
 6513TIP3    H241099   2.678   1.347   8.069
 6514TIP3   OH241100   0.512   5.481   8.018
 6514TIP3    H141101   0.559   5.417   7.965
 6514TIP3    H241102   0.526   5.565   7.973
 6515TIP3   OH241103   1.524   2.637   6.749
 6515TIP3    H141104   1.552   2.726   6.732
 6515TIP3    H241105   1.465   2.616   6.677
 6516TIP3   OH241106   6.414   2.171   1.587
 6516TIP3    H141107   6.461   2.097   1.627
 6516TIP3    H241108   6.322   2.144   1.589
 6517TIP3   OH241109   1.700   0.534   0.051
 6517TIP3    H141110   1.721   0.442   0.033
 6517TIP3    H241111   1.686   0.537   0.146
 6518TIP3   OH241112   4.530   6.374   2.199
 6518TIP3    H141113   4.618   6.346   2.175
 6518TIP3    H241114   4.488   6.294   2.232
 6519TIP3   OH241115   2.337   0.652   6.867
 6519TIP3    H141116   2.275   0.588   6.833
 6519TIP3    H241117   2.345   0.717   6.797
 6520TIP3   OH241118   0.581   3.313   8.535
 6520TIP3    H141119   0.523   3.250   8.579
 6520TIP3    H241120   0.641   3.258   8.484
 6521TIP3   OH241121   0.111   6.560   2.013
 6521TIP3    H141122   0.187   6.558   1.955
 6521TIP3    H241123   0.140   6.611   2.088
 6522TIP3   OH241124   2.748   3.932   1.530
 6522TIP3    H141125   2.839   3.908   1.510
 6522TIP3    H241126   2.715   3.971   1.450
 6523TIP3   OH241127   2.628   0.159   2.158
 6523TIP3    H141128   2.562   0.115   2.211
 6523TIP3    H241129   2.689   0.089   2.132
 6524TIP3   OH241130   1.747   5.880   8.290
 6524TIP3    H141131   1.657   5.889   8.324
 6524TIP3    H241132   1.740   5.903   8.198
 6525TIP3   OH241133   6.266   2.254   8.414
 6525TIP3    H141134   6.299   2.169   8.386
 6525TIP3    H241135   6.246   2.243   8.507
 6526TIP3   OH241136   2.958   3.139   8.418
 6526TIP3    H141137   2.968   3.225   8.377
 6526TIP3    H241138   2.906   3.088   8.355
 6527TIP3   OH241139   4.714   3.513   1.915
 6527TIP3    H141140   4.796   3.466   1.903
 6527TIP3    H241141   4.652   3.467   1.858
 6528TIP3   OH241142   6.412   6.271   1.023
 6528TIP3    H141143   6.491   6.323   1.006
 6528TIP3    H241144   6.378   6.306   1.106
 6529TIP3   OH241145   4.409   2.764   7.497
 6529TIP3    H141146   4.329   2.816   7.506
 6529TIP3    H241147   4.378   2.674   7.485
 6530TIP3   OH241148   6.636   6.481   1.775
 6530TIP3    H141149   6.707   6.526   1.820
 6530TIP3    H241150   6.674   6.451   1.693
 6531TIP3   OH241151   3.629   2.105   7.576
 6531TIP3    H141152   3.671   2.048   7.511
 6531TIP3    H241153   3.662   2.074   7.660
 6532TIP3   OH241154   6.492   0.980   0.343
 6532TIP3    H141155   6.420   1.013   0.288
 6532TIP3    H241156   6.520   1.056   0.393
 6533TIP3   OH241157   2.353   1.465   8.394
 6533TIP3    H141158   2.290   1.441   8.327
 6533TIP3    H241159   2.437   1.467   8.348
 6534TIP3   OH241160   1.767   4.353   8.319
 6534TIP3    H141161   1.702   4.283   8.323
 6534TIP3    H241162   1.838   4.323   8.375
 6535TIP3   OH241163   5.731   5.508   1.835
 6535TIP3    H141164   5.671   5.581   1.845
 6535TIP3    H241165   5.702   5.444   1.901
 6536TIP3   OH241166   3.473   4.436   1.006
 6536TIP3    H141167   3.461   4.526   0.976
 6536TIP3    H241168   3.441   4.436   1.096
 6537TIP3   OH241169   0.743   1.945   7.394
 6537TIP3    H141170   0.828   1.911   7.365
 6537TIP3    H241171   0.706   1.986   7.316
 6538TIP3   OH241172   3.654   2.076   8.234
 6538TIP3    H141173   3.715   2.004   8.245
 6538TIP3    H241174   3.593   2.047   8.166
 6539TIP3   OH241175   5.037   5.091   6.717
 6539TIP3    H141176   5.013   5.034   6.644
 6539TIP3    H241177   5.128   5.067   6.736
 6540TIP3   OH241178   6.606   0.595   7.732
 6540TIP3    H141179   6.653   0.512   7.744
 6540TIP3    H241180   6.648   0.655   7.794
 6541TIP3   OH241181   5.357   0.103   0.450
 6541TIP3    H141182   5.276   0.153   0.432
 6541TIP3    H241183   5.425   0.170   0.456
 6542TIP3   OH241184   6.278   6.311   1.292
 6542TIP3    H141185   6.312   6.243   1.351
 6542TIP3    H241186   6.251   6.382   1.350
 6543TIP3   OH241187   4.082   5.855   1.764
 6543TIP3    H141188   4.068   5.761   1.757
 6543TIP3    H241189   4.052   5.890   1.680
 6544TIP3   OH241190   3.518   3.574   6.273
 6544TIP3    H141191   3.486   3.664   6.280
 6544TIP3    H241192   3.453   3.521   6.317
 6545TIP3   OH241193   5.162   3.803   6.418
 6545TIP3    H141194   5.135   3.815   6.328
 6545TIP3    H241195   5.242   3.856   6.426
 6546TIP3   OH241196   1.022   1.524   0.442
 6546TIP3    H141197   1.095   1.502   0.500
 6546TIP3    H241198   1.038   1.615   0.418
 6547TIP3   OH241199   3.840   2.414   1.276
 6547TIP3    H141200   3.864   2.324   1.255
 6547TIP3    H241201   3.768   2.406   1.338
 6548TIP3   OH241202   0.311   4.359   0.853
 6548TIP3    H141203   0.276   4.285   0.803
 6548TIP3    H241204   0.262   4.358   0.935
 6549TIP3   OH241205   3.683   3.932   7.059
 6549TIP3    H141206   3.743   3.874   7.012
 6549TIP3    H241207   3.634   3.977   6.991
 6550TIP3   OH241208   4.100   6.466   5.909
 6550TIP3    H141209   4.091   6.551   5.952
 6550TIP3    H241210   4.019   6.419   5.933
 6551TIP3   OH241211   6.085   4.712   8.289
 6551TIP3    H141212   6.119   4.694   8.377
 6551TIP3    H241213   6.068   4.806   8.289
 6552TIP3   OH241214   0.068   6.501   7.011
 6552TIP3    H141215   0.085   6.497   7.106
 6552TIP3    H241216   0.051   6.593   6.994
 6553TIP3   OH241217   4.625   5.454   0.789
 6553TIP3    H141218   4.614   5.547   0.810
 6553TIP3    H241219   4.680   5.420   0.860
 6554TIP3   OH241220   1.341   2.641   7.382
 6554TIP3    H141221   1.382   2.728   7.385
 6554TIP3    H241222   1.414   2.580   7.392
 6555TIP3   OH241223   2.220   1.396   8.169
 6555TIP3    H141224   2.249   1.402   8.078
 6555TIP3    H241225   2.125   1.397   8.164
 6556TIP3   OH241226   5.238   0.723   0.536
 6556TIP3    H141227   5.171   0.715   0.604
 6556TIP3    H241228   5.319   0.738   0.584
 6557TIP3   OH241229   3.885   1.381   2.630
 6557TIP3    H141230   3.879   1.462   2.579
 6557TIP3    H241231   3.807   1.381   2.685
 6558TIP3   OH241232   2.018   4.470   8.154
 6558TIP3    H141233   2.070   4.496   8.230
 6558TIP3    H241234   1.928   4.487   8.180
 6559TIP3   OH241235   2.036   0.571   7.572
 6559TIP3    H141236   2.125   0.576   7.604
 6559TIP3    H241237   2.038   0.502   7.505
 6560TIP3   OH241238   1.545   5.000   0.625
 6560TIP3    H141239   1.605   4.943   0.575
 6560TIP3    H241240   1.561   5.088   0.591
 6561TIP3   OH241241   4.122   6.872   6.564
 6561TIP3    H141242   4.069   6.852   6.641
 6561TIP3    H241243   4.184   6.800   6.557
 6562TIP3   OH241244   1.810   5.842   1.833
 6562TIP3    H141245   1.840   5.922   1.876
 6562TIP3    H241246   1.743   5.806   1.893
 6563TIP3   OH241247   4.745   6.449   6.842
 6563TIP3    H141248   4.779   6.367   6.877
 6563TIP3    H241249   4.781   6.517   6.899
 6564TIP3   OH241250   5.808   0.004   7.289
 6564TIP3    H141251   5.745   0.008   7.218
 6564TIP3    H241252   5.877   6.832   7.257
 6565TIP3   OH241253   0.530   6.200   1.457
 6565TIP3    H141254   0.568   6.195   1.370
 6565TIP3    H241255   0.605   6.204   1.516
 6566TIP3   OH241256   6.385   6.574   7.368
 6566TIP3    H141257   6.467   6.553   7.323
 6566TIP3    H241258   6.409   6.577   7.461
 6567TIP3   OH241259   6.348   5.453   8.590
 6567TIP3    H141260   6.338   5.538   8.545
 6567TIP3    H241261   6.380   5.476   0.063
 6568TIP3   OH241262   2.988   0.278   8.128
 6568TIP3    H141263   3.063   0.224   8.154
 6568TIP3    H241264   3.016   0.368   8.146
 6569TIP3   OH241265   1.590   5.374   1.445
 6569TIP3    H141266   1.684   5.362   1.428
 6569TIP3    H241267   1.557   5.418   1.366
 6570TIP3   OH241268   0.158   1.988   7.538
 6570TIP3    H141269   0.081   2.036   7.569
 6570TIP3    H241270   0.155   1.905   7.585
 6571TIP3   OH241271   2.449   4.045   6.533
 6571TIP3    H141272   2.506   4.120   6.520
 6571TIP3    H241273   2.449   4.030   6.627
 6572TIP3   OH241274   5.036   0.860   6.744
 6572TIP3    H141275   5.125   0.851   6.709
 6572TIP3    H241276   5.025   0.783   6.800
 6573TIP3   OH241277   4.836   5.878   7.348
 6573TIP3    H141278   4.748   5.905   7.373
 6573TIP3    H241279   4.825   5.788   7.317
 6574TIP3   OH241280   2.523   3.976   6.781
 6574TIP3    H141281   2.599   3.921   6.799
 6574TIP3    H241282   2.553   4.065   6.800
 6575TIP3   OH241283   3.062   6.590   7.252
 6575TIP3    H141284   3.038   6.514   7.198
 6575TIP3    H241285   3.079   6.660   7.190
 6576TIP3   OH241286   1.169   6.289   1.070
 6576TIP3    H141287   1.247   6.344   1.065
 6576TIP3    H241288   1.096   6.351   1.070
 6577TIP3   OH241289   0.446   3.014   7.890
 6577TIP3    H141290   0.374   3.004   7.827
 6577TIP3    H241291   0.409   3.068   7.960
 6578TIP3   OH241292   2.253   0.101   7.807
 6578TIP3    H141293   2.241   0.195   7.798
 6578TIP3    H241294   2.339   0.092   7.848
 6579TIP3   OH241295   1.754   0.758   8.179
 6579TIP3    H141296   1.702   0.748   8.099
 6579TIP3    H241297   1.718   0.692   8.239
 6580TIP3   OH241298   4.780   0.361   7.160
 6580TIP3    H141299   4.707   0.315   7.121
 6580TIP3    H241300   4.740   0.429   7.214
 6581TIP3   OH241301   1.588   6.014   8.104
 6581TIP3    H141302   1.583   6.108   8.086
 6581TIP3    H241303   1.508   5.978   8.065
 6582TIP3   OH241304   4.351   3.746   2.160
 6582TIP3    H141305   4.436   3.737   2.117
 6582TIP3    H241306   4.363   3.706   2.246
 6583TIP3   OH241307   1.058   5.115   6.714
 6583TIP3    H141308   1.040   5.031   6.672
 6583TIP3    H241309   1.078   5.174   6.641
 6584TIP3   OH241310   5.403   3.955   6.335
 6584TIP3    H141311   5.366   3.966   6.248
 6584TIP3    H241312   5.436   3.865   6.336
 6585TIP3   OH241313   4.208   3.192   0.253
 6585TIP3    H141314   4.221   3.120   0.314
 6585TIP3    H241315   4.138   3.244   0.292
 6586TIP3   OH241316   0.199   5.163   8.088
 6586TIP3    H141317   0.245   5.129   8.165
 6586TIP3    H241318   0.133   5.097   8.069
 6587TIP3   OH241319   3.444   4.693   8.073
 6587TIP3    H141320   3.495   4.713   8.151
 6587TIP3    H241321   3.505   4.704   8.000
 6588TIP3   OH241322   3.835   2.995   7.408
 6588TIP3    H141323   3.832   3.058   7.336
 6588TIP3    H241324   3.893   2.925   7.375
 6589TIP3   OH241325   5.238   4.191   8.033
 6589TIP3    H141326   5.180   4.239   8.093
 6589TIP3    H241327   5.247   4.104   8.074
 6590TIP3   OH241328   1.969   1.019   8.092
 6590TIP3    H141329   1.955   1.062   8.176
 6590TIP3    H241330   2.054   0.977   8.100
 6591TIP3   OH241331   0.812   0.002   1.283
 6591TIP3    H141332   0.788   0.081   1.332
 6591TIP3    H241333   0.900   0.019   1.252
 6592TIP3   OH241334   6.430   1.199   7.232
 6592TIP3    H141335   6.373   1.228   7.304
 6592TIP3    H241336   6.414   1.262   7.162
 6593TIP3   OH241337   3.445   6.105   7.123
 6593TIP3    H141338   3.350   6.120   7.120
 6593TIP3    H241339   3.466   6.103   7.216
 6594TIP3   OH241340   0.349   4.741   0.775
 6594TIP3    H141341   0.361   4.661   0.724
 6594TIP3    H241342   0.403   4.728   0.853
 6595TIP3   OH241343   3.429   1.811   8.189
 6595TIP3    H141344   3.469   1.876   8.131
 6595TIP3    H241345   3.436   1.849   8.277
 6596TIP3   OH241346   2.966   4.467   6.432
 6596TIP3    H141347   2.894   4.471   6.369
 6596TIP3    H241348   3.045   4.477   6.380
 6597TIP3   OH241349   2.670   0.976   1.333
 6597TIP3    H141350   2.689   1.068   1.318
 6597TIP3    H241351   2.756   0.933   1.330
 6598TIP3   OH241352   6.203   4.565   7.445
 6598TIP3    H141353   6.287   4.581   7.487
 6598TIP3    H241354   6.200   4.470   7.433
 6599TIP3   OH241355   5.252   5.637   8.374
 6599TIP3    H141356   5.251   5.549   8.413
 6599TIP3    H241357   5.242   5.696   8.449
 6600TIP3   OH241358   2.896   1.763   0.975
 6600TIP3    H141359   2.890   1.721   1.061
 6600TIP3    H241360   2.866   1.853   0.990
 6601TIP3   OH241361   3.642   6.601   0.342
 6601TIP3    H141362   3.667   6.650   0.264
 6601TIP3    H241363   3.631   6.667   0.410
 6602TIP3   OH241364   1.003   6.741   1.532
 6602TIP3    H141365   1.071   6.712   1.471
 6602TIP3    H241366   1.033   6.711   1.617
 6603TIP3   OH241367   0.653   5.248   2.420
 6603TIP3    H141368   0.621   5.186   2.354
 6603TIP3    H241369   0.577   5.303   2.440
 6604TIP3   OH241370   3.526   5.579   2.237
 6604TIP3    H141371   3.487   5.656   2.279
 6604TIP3    H241372   3.607   5.611   2.197
 6605TIP3   OH241373   0.616   0.414   0.131
 6605TIP3    H141374   0.688   0.410   0.068
 6605TIP3    H241375   0.653   0.379   0.212
 6606TIP3   OH241376   4.132   3.430   8.019
 6606TIP3    H141377   4.149   3.388   7.935
 6606TIP3    H241378   4.103   3.358   8.076
 6607TIP3   OH241379   0.600   1.346   1.777
 6607TIP3    H141380   0.627   1.435   1.800
 6607TIP3    H241381   0.647   1.290   1.838
 6608TIP3   OH241382   2.504   0.345   7.804
 6608TIP3    H141383   2.483   0.390   7.885
 6608TIP3    H241384   2.499   0.252   7.826
 6609TIP3   OH241385   5.199   1.523   0.773
 6609TIP3    H141386   5.133   1.471   0.727
 6609TIP3    H241387   5.187   1.502   0.865
 6610TIP3   OH241388   5.309   6.643   7.302
 6610TIP3    H141389   5.227   6.628   7.255
 6610TIP3    H241390   5.305   6.736   7.327
 6611TIP3   OH241391   1.216   1.324   1.365
 6611TIP3    H141392   1.137   1.287   1.326
 6611TIP3    H241393   1.199   1.418   1.369
 6612TIP3   OH241394   2.301   1.598   0.595
 6612TIP3    H141395   2.309   1.687   0.561
 6612TIP3    H241396   2.385   1.557   0.575
 6613TIP3   OH241397   4.518   0.329   2.303
 6613TIP3    H141398   4.465   0.357   2.228
 6613TIP3    H241399   4.604   0.312   2.265
 6614TIP3   OH241400   3.274   2.949   7.055
 6614TIP3    H141401   3.207   2.958   7.124
 6614TIP3    H241402   3.299   2.857   7.058
 6615TIP3   OH241403   2.177   5.973   7.477
 6615TIP3    H141404   2.233   5.907   7.437
 6615TIP3    H241405   2.185   5.959   7.571
 6616TIP3   OH241406   3.661   2.665   0.763
 6616TIP3    H141407   3.581   2.671   0.710
 6616TIP3    H241408   3.648   2.729   0.833
 6617TIP3   OH241409   3.543   3.731   0.779
 6617TIP3    H141410   3.573   3.812   0.737
 6617TIP3    H241411   3.621   3.695   0.820
 6618TIP3   OH241412   3.224   1.203   0.340
 6618TIP3    H141413   3.317   1.186   0.322
 6618TIP3    H241414   3.203   1.280   0.287
 6619TIP3   OH241415   0.571   6.825   7.001
 6619TIP3    H141416   0.583   6.798   7.092
 6619TIP3    H241417   0.512   0.013   7.006
 6620TIP3   OH241418   2.294   5.362   0.749
 6620TIP3    H141419   2.251   5.278   0.737
 6620TIP3    H241420   2.257   5.419   0.681
 6621TIP3   OH241421   2.781   4.632   2.016
 6621TIP3    H141422   2.752   4.641   2.106
 6621TIP3    H241423   2.820   4.718   1.995
 6622TIP3   OH241424   4.945   2.610   1.270
 6622TIP3    H141425   4.952   2.624   1.176
 6622TIP3    H241426   4.874   2.668   1.298
 6623TIP3   OH241427   0.749   3.627   0.722
 6623TIP3    H141428   0.824   3.586   0.679
 6623TIP3    H241429   0.783   3.709   0.756
 6624TIP3   OH241430   4.049   3.003   6.410
 6624TIP3    H141431   4.005   2.992   6.326
 6624TIP3    H241432   4.112   3.074   6.396
 6625TIP3   OH241433   4.258   2.018   7.184
 6625TIP3    H141434   4.170   1.983   7.189
 6625TIP3    H241435   4.315   1.941   7.187
 6626TIP3   OH241436   3.319   1.141   8.432
 6626TIP3    H141437   3.384   1.151   8.363
 6626TIP3    H241438   3.250   1.204   8.408
 6627TIP3   OH241439   5.928   2.364   7.767
 6627TIP3    H141440   5.986   2.388   7.695
 6627TIP3    H241441   5.987   2.340   7.839
 6628TIP3   OH241442   3.107   5.468   7.447
 6628TIP3    H141443   3.071   5.383   7.419
 6628TIP3    H241444   3.089   5.471   7.541
 6629TIP3   OH241445   6.034   1.626   7.306
 6629TIP3    H141446   6.030   1.712   7.265
 6629TIP3    H241447   5.944   1.606   7.330
 6630TIP3   OH241448   4.115   1.609   8.466
 6630TIP3    H141449   4.157   1.655   8.393
 6630TIP3    H241450   4.168   1.632   8.543
 6631TIP3   OH241451   0.948   6.595   7.435
 6631TIP3    H141452   0.989   6.576   7.520
 6631TIP3    H241453   0.854   6.599   7.454
 6632TIP3   OH241454   2.925   2.270   0.235
 6632TIP3    H141455   2.929   2.345   0.176
 6632TIP3    H241456   2.838   2.275   0.275
 6633TIP3   OH241457   1.811   6.828   0.249
 6633TIP3    H141458   1.830   6.798   0.160
 6633TIP3    H241459   1.852   6.762   0.305
 6634TIP3   OH241460   1.919   2.897   7.963
 6634TIP3    H141461   1.924   2.983   7.921
 6634TIP3    H241462   1.931   2.835   7.891
 6635TIP3   OH241463   1.982   5.400   1.530
 6635TIP3    H141464   1.918   5.377   1.463
 6635TIP3    H241465   2.038   5.466   1.490
 6636TIP3   OH241466   3.884   1.394   7.796
 6636TIP3    H141467   3.832   1.425   7.722
 6636TIP3    H241468   3.884   1.298   7.786
 6637TIP3   OH241469   5.885   5.673   0.439
 6637TIP3    H141470   5.970   5.718   0.438
 6637TIP3    H241471   5.851   5.689   0.527
 6638TIP3   OH241472   5.981   6.093   7.983
 6638TIP3    H141473   6.046   6.099   7.914
 6638TIP3    H241474   6.030   6.065   8.061
 6639TIP3   OH241475   4.514   2.757   0.783
 6639TIP3    H141476   4.423   2.785   0.772
 6639TIP3    H241477   4.508   2.668   0.818
 6640TIP3   OH241478   1.137   2.302   8.149
 6640TIP3    H141479   1.185   2.228   8.113
 6640TIP3    H241480   1.203   2.370   8.161
 6641TIP3   OH241481   1.000   2.140   7.348
 6641TIP3    H141482   0.996   2.050   7.316
 6641TIP3    H241483   0.967   2.136   7.438
 6642TIP3   OH241484   2.304   6.470   7.647
 6642TIP3    H141485   2.268   6.383   7.630
 6642TIP3    H241486   2.231   6.518   7.686
 6643TIP3   OH241487   1.768   4.759   8.055
 6643TIP3    H141488   1.728   4.673   8.065
 6643TIP3    H241489   1.695   4.818   8.036
 6644TIP3   OH241490   0.608   3.393   6.314
 6644TIP3    H141491   0.682   3.350   6.359
 6644TIP3    H241492   0.629   3.486   6.318
 6645TIP3   OH241493   5.633   0.032   0.238
 6645TIP3    H141494   5.597   0.106   0.287
 6645TIP3    H241495   5.642   0.064   0.149
 6646TIP3   OH241496   6.639   6.191   1.494
 6646TIP3    H141497   6.545   6.183   1.481
 6646TIP3    H241498   6.672   6.101   1.488
 6647TIP3   OH241499   2.512   4.602   0.286
 6647TIP3    H141500   2.560   4.664   0.341
 6647TIP3    H241501   2.580   4.551   0.242
 6648TIP3   OH241502   2.941   4.032   7.719
 6648TIP3    H141503   2.868   4.023   7.659
 6648TIP3    H241504   2.948   3.946   7.761
 6649TIP3   OH241505   3.883   5.811   7.446
 6649TIP3    H141506   3.877   5.751   7.371
 6649TIP3    H241507   3.975   5.835   7.450
 6650TIP3   OH241508   1.501   5.362   6.877
 6650TIP3    H141509   1.554   5.282   6.878
 6650TIP3    H241510   1.562   5.431   6.850
 6651TIP3   OH241511   1.744   3.338   7.596
 6651TIP3    H141512   1.742   3.426   7.633
 6651TIP3    H241513   1.827   3.301   7.625
 6652TIP3   OH241514   6.545   2.587   0.430
 6652TIP3    H141515   6.594   2.506   0.442
 6652TIP3    H241516   6.510   2.580   0.341
 6653TIP3   OH241517   3.562   2.045   2.424
 6653TIP3    H141518   3.645   2.091   2.420
 6653TIP3    H241519   3.498   2.112   2.447
 6654TIP3   OH241520   5.139   3.189   8.511
 6654TIP3    H141521   5.101   3.226   8.591
 6654TIP3    H241522   5.114   3.097   8.514
 6655TIP3   OH241523   4.617   2.095   7.247
 6655TIP3    H141524   4.550   2.163   7.246
 6655TIP3    H241525   4.568   2.013   7.235
 6656TIP3   OH241526   1.790   4.841   2.491
 6656TIP3    H141527   1.883   4.862   2.489
 6656TIP3    H241528   1.781   4.767   2.431
 6657TIP3   OH241529   6.071   6.607   6.621
 6657TIP3    H141530   6.010   6.677   6.597
 6657TIP3    H241531   6.020   6.549   6.677
 6658TIP3   OH241532   3.276   1.369   6.831
 6658TIP3    H141533   3.296   1.280   6.800
 6658TIP3    H241534   3.271   1.421   6.752
 6659TIP3   OH241535   4.893   6.723   0.423
 6659TIP3    H141536   4.851   6.770   0.495
 6659TIP3    H241537   4.841   6.643   0.412
 6660TIP3   OH241538   2.356   5.011   1.266
 6660TIP3    H141539   2.293   5.046   1.204
 6660TIP3    H241540   2.303   4.972   1.335
 6661TIP3   OH241541   2.512   0.259   8.217
 6661TIP3    H141542   2.433   0.312   8.226
 6661TIP3    H241543   2.493   0.199   8.145
 6662TIP3   OH241544   0.705   6.441   0.084
 6662TIP3    H141545   0.736   6.408   8.613
 6662TIP3    H241546   0.610   6.435   0.079
 6663TIP3   OH241547   4.066   2.697   1.954
 6663TIP3    H141548   4.125   2.701   2.029
 6663TIP3    H241549   4.123   2.691   1.878
 6664TIP3   OH241550   4.953   1.660   1.502
 6664TIP3    H141551   4.917   1.572   1.488
 6664TIP3    H241552   4.965   1.665   1.597
 6665TIP3   OH241553   6.555   6.345   2.505
 6665TIP3    H141554   6.468   6.312   2.527
 6665TIP3    H241555   6.585   6.287   2.435
 6666TIP3   OH241556   0.736   5.907   1.102
 6666TIP3    H141557   0.775   5.845   1.041
 6666TIP3    H241558   0.651   5.869   1.123
 6667TIP3   OH241559   1.022   0.753   1.092
 6667TIP3    H141560   1.009   0.663   1.120
 6667TIP3    H241561   0.965   0.804   1.149
 6668TIP3   OH241562   5.014   4.959   0.453
 6668TIP3    H141563   5.062   4.877   0.443
 6668TIP3    H241564   5.057   5.019   0.392
 6669TIP3   OH241565   3.024   0.416   1.872
 6669TIP3    H141566   2.994   0.493   1.920
 6669TIP3    H241567   2.973   0.344   1.908
 6670TIP3   OH241568   3.013   6.497   7.767
 6670TIP3    H141569   2.995   6.540   7.683
 6670TIP3    H241570   2.942   6.433   7.776
 6671TIP3   OH241571   2.746   1.147   8.437
 6671TIP3    H141572   2.677   1.129   8.501
 6671TIP3    H241573   2.786   1.062   8.419
 6672TIP3   OH241574   5.102   3.426   1.755
 6672TIP3    H141575   5.144   3.495   1.807
 6672TIP3    H241576   5.066   3.472   1.679
 6673TIP3   OH241577   0.698   1.586   1.856
 6673TIP3    H141578   0.688   1.602   1.950
 6673TIP3    H241579   0.715   1.672   1.818
 6674TIP3   OH241580   5.472   5.497   8.207
 6674TIP3    H141581   5.390   5.469   8.246
 6674TIP3    H241582   5.473   5.592   8.218
 6675TIP3   OH241583   6.748   4.821   6.886
 6675TIP3    H141584   6.692   4.839   6.811
 6675TIP3    H241585   6.803   4.748   6.857
 6676TIP3   OH241586   1.237   3.029   0.697
 6676TIP3    H141587   1.206   3.118   0.680
 6676TIP3    H241588   1.234   2.986   0.612
 6677TIP3   OH241589   0.975   3.338   6.273
 6677TIP3    H141590   0.942   3.357   6.185
 6677TIP3    H241591   0.900   3.303   6.320
 6678TIP3   OH241592   2.173   6.024   8.533
 6678TIP3    H141593   2.240   6.074   8.580
 6678TIP3    H241594   2.184   6.049   8.442
 6679TIP3   OH241595   3.852   2.631   7.696
 6679TIP3    H141596   3.936   2.585   7.693
 6679TIP3    H241597   3.838   2.663   7.607
 6680TIP3   OH241598   2.906   0.970   7.266
 6680TIP3    H141599   2.930   0.916   7.191
 6680TIP3    H241600   2.946   0.926   7.341
 6681TIP3   OH241601   4.565   2.793   7.284
 6681TIP3    H141602   4.649   2.807   7.328
 6681TIP3    H241603   4.500   2.806   7.353
 6682TIP3   OH241604   1.168   0.390   6.842
 6682TIP3    H141605   1.178   0.308   6.891
 6682TIP3    H241606   1.090   0.376   6.789
 6683TIP3   OH241607   1.895   2.437   7.725
 6683TIP3    H141608   1.975   2.407   7.682
 6683TIP3    H241609   1.836   2.362   7.721
 6684TIP3   OH241610   6.353   1.819   7.947
 6684TIP3    H141611   6.343   1.891   7.884
 6684TIP3    H241612   6.424   1.766   7.912
 6685TIP3   OH241613   1.058   5.871   8.071
 6685TIP3    H141614   1.008   5.889   7.991
 6685TIP3    H241615   0.992   5.845   8.135
 6686TIP3   OH241616   2.420   6.078   0.612
 6686TIP3    H141617   2.508   6.042   0.623
 6686TIP3    H241618   2.424   6.125   0.529
 6687TIP3   OH241619   2.958   2.115   6.399
 6687TIP3    H141620   2.872   2.105   6.357
 6687TIP3    H241621   2.958   2.205   6.431
 6688TIP3   OH241622   2.420   3.137   0.431
 6688TIP3    H141623   2.431   3.154   0.337
 6688TIP3    H241624   2.504   3.099   0.458
 6689TIP3   OH241625   0.659   3.041   0.137
 6689TIP3    H141626   0.568   3.047   0.105
 6689TIP3    H241627   0.659   3.089   0.219
 6690TIP3   OH241628   0.613   4.647   2.460
 6690TIP3    H141629   0.695   4.598   2.469
 6690TIP3    H241630   0.638   4.738   2.470
 6691TIP3   OH241631   0.201   2.114   2.217
 6691TIP3    H141632   0.241   2.172   2.152
 6691TIP3    H241633   0.274   2.059   2.248
 6692TIP3   OH241634   2.190   5.108   7.670
 6692TIP3    H141635   2.122   5.166   7.635
 6692TIP3    H241636   2.271   5.138   7.629
 6693TIP3   OH241637   4.576   0.298   0.304
 6693TIP3    H141638   4.616   0.311   0.218
 6693TIP3    H241639   4.626   0.355   0.363
 6694TIP3   OH241640   3.101   3.936   6.773
 6694TIP3    H141641   3.182   3.959   6.727
 6694TIP3    H241642   3.119   3.852   6.813
 6695TIP3   OH241643   4.353   6.422   0.458
 6695TIP3    H141644   4.448   6.434   0.452
 6695TIP3    H241645   4.322   6.501   0.503
 6696TIP3   OH241646   3.806   1.301   1.108
 6696TIP3    H141647   3.843   1.222   1.069
 6696TIP3    H241648   3.865   1.371   1.080
 6697TIP3   OH241649   6.482   3.685   1.524
 6697TIP3    H141650   6.397   3.670   1.483
 6697TIP3    H241651   6.466   3.757   1.585
 6698TIP3   OH241652   0.869   3.068   1.321
 6698TIP3    H141653   0.919   2.987   1.310
 6698TIP3    H241654   0.882   3.114   1.238
 6699TIP3   OH241655   6.030   2.705   2.378
 6699TIP3    H141656   6.012   2.617   2.344
 6699TIP3    H241657   6.068   2.752   2.304
 6700TIP3   OH241658   1.122   2.763   7.198
 6700TIP3    H141659   1.186   2.795   7.134
 6700TIP3    H241660   1.050   2.826   7.193
 6701TIP3   OH241661   2.015   1.970   7.008
 6701TIP3    H141662   2.022   1.916   7.086
 6701TIP3    H241663   1.921   1.977   6.991
 6702TIP3   OH241664   0.568   1.220   1.276
 6702TIP3    H141665   0.550   1.141   1.327
 6702TIP3    H241666   0.575   1.290   1.341
 6703TIP3   OH241667   6.668   0.610   2.529
 6703TIP3    H141668   6.600   0.667   2.493
 6703TIP3    H241669   6.634   0.582   2.614
 6704TIP3   OH241670   6.327   2.470   1.147
 6704TIP3    H141671   6.333   2.442   1.239
 6704TIP3    H241672   6.292   2.559   1.152
 6705TIP3   OH241673   0.479   3.688   2.040
 6705TIP3    H141674   0.463   3.638   2.119
 6705TIP3    H241675   0.562   3.734   2.057
 6706TIP3   OH241676   1.805   5.330   1.282
 6706TIP3    H141677   1.782   5.238   1.290
 6706TIP3    H241678   1.748   5.363   1.211
 6707TIP3   OH241679   4.538   1.736   0.252
 6707TIP3    H141680   4.477   1.666   0.277
 6707TIP3    H241681   4.617   1.690   0.223
 6708TIP3   OH241682   6.404   5.035   1.444
 6708TIP3    H141683   6.435   4.983   1.369
 6708TIP3    H241684   6.346   5.100   1.405
 6709TIP3   OH241685   5.093   5.854   7.253
 6709TIP3    H141686   5.154   5.850   7.326
 6709TIP3    H241687   5.008   5.871   7.293
 6710TIP3   OH241688   3.413   2.189   0.432
 6710TIP3    H141689   3.324   2.210   0.458
 6710TIP3    H241690   3.411   2.188   0.336
 6711TIP3   OH241691   1.275   3.574   7.982
 6711TIP3    H141692   1.311   3.500   7.934
 6711TIP3    H241693   1.243   3.537   8.064
 6712TIP3   OH241694   0.293   6.048   1.476
 6712TIP3    H141695   0.382   6.081   1.490
 6712TIP3    H241696   0.266   6.088   1.393
 6713TIP3   OH241697   4.174   3.522   1.276
 6713TIP3    H141698   4.217   3.607   1.268
 6713TIP3    H241699   4.103   3.538   1.339
 6714TIP3   OH241700   3.435   6.379   2.086
 6714TIP3    H141701   3.526   6.394   2.115
 6714TIP3    H241702   3.416   6.290   2.115
 6715TIP3   OH241703   1.863   4.850   0.033
 6715TIP3    H141704   1.783   4.806   0.063
 6715TIP3    H241705   1.844   4.943   0.040
 6716TIP3   OH241706   2.161   1.937   0.616
 6716TIP3    H141707   2.176   1.908   0.526
 6716TIP3    H241708   2.077   1.897   0.641
 6717TIP3   OH241709   6.202   6.336   8.535
 6717TIP3    H141710   6.255   6.415   8.545
 6717TIP3    H241711   6.165   6.320   0.007
 6718TIP3   OH241712   0.264   4.146   7.178
 6718TIP3    H141713   0.256   4.219   7.118
 6718TIP3    H241714   0.349   4.158   7.220
 6719TIP3   OH241715   4.015   0.393   7.518
 6719TIP3    H141716   3.994   0.321   7.577
 6719TIP3    H241717   3.996   0.359   7.430
 6720TIP3   OH241718   1.811   5.612   1.288
 6720TIP3    H141719   1.823   5.636   1.380
 6720TIP3    H241720   1.810   5.516   1.289
 6721TIP3   OH241721   0.191   3.789   7.573
 6721TIP3    H141722   0.104   3.806   7.538
 6721TIP3    H241723   0.212   3.700   7.545
 6722TIP3   OH241724   3.310   4.249   6.829
 6722TIP3    H141725   3.382   4.229   6.889
 6722TIP3    H241726   3.269   4.328   6.866
 6723TIP3   OH241727   5.125   6.503   2.204
 6723TIP3    H141728   5.175   6.575   2.167
 6723TIP3    H241729   5.188   6.455   2.258
 6724TIP3   OH241730   5.644   0.230   1.218
 6724TIP3    H141731   5.657   0.324   1.228
 6724TIP3    H241732   5.683   0.209   1.133
 6725TIP3   OH241733   6.541   3.178   6.830
 6725TIP3    H141734   6.465   3.132   6.866
 6725TIP3    H241735   6.591   3.111   6.785
 6726TIP3   OH241736   4.663   1.394   0.730
 6726TIP3    H141737   4.594   1.335   0.698
 6726TIP3    H241738   4.617   1.476   0.749
 6727TIP3   OH241739   5.075   4.175   7.786
 6727TIP3    H141740   5.136   4.230   7.835
 6727TIP3    H241741   5.074   4.092   7.834
 6728TIP3   OH241742   3.236   2.413   7.664
 6728TIP3    H141743   3.168   2.454   7.611
 6728TIP3    H241744   3.221   2.445   7.752
 6729TIP3   OH241745   6.644   5.302   7.092
 6729TIP3    H141746   6.636   5.360   7.017
 6729TIP3    H241747   6.554   5.286   7.120
 6730TIP3   OH241748   0.053   4.353   6.793
 6730TIP3    H141749   6.872   4.287   6.780
 6730TIP3    H241750   0.111   4.315   6.859
 6731TIP3   OH241751   0.413   3.131   0.046
 6731TIP3    H141752   0.343   3.118   8.596
 6731TIP3    H241753   0.370   3.174   0.120
 6732TIP3   OH241754   5.256   5.866   7.463
 6732TIP3    H141755   5.299   5.781   7.469
 6732TIP3    H241756   5.327   5.929   7.450
 6733TIP3   OH241757   6.171   4.675   8.556
 6733TIP3    H141758   6.233   4.748   8.558
 6733TIP3    H241759   6.139   4.669   0.032
 6734TIP3   OH241760   0.049   4.311   8.302
 6734TIP3    H141761   0.104   4.316   8.380
 6734TIP3    H241762   0.102   4.351   8.233
 6735TIP3   OH241763   4.204   5.123   8.491
 6735TIP3    H141764   4.268   5.057   8.519
 6735TIP3    H241765   4.172   5.161   8.573
 6736TIP3   OH241766   5.304   4.620   2.092
 6736TIP3    H141767   5.355   4.665   2.159
 6736TIP3    H241768   5.343   4.533   2.085
 6737TIP3   OH241769   5.612   0.104   1.704
 6737TIP3    H141770   5.610   0.196   1.731
 6737TIP3    H241771   5.704   0.080   1.711
 6738TIP3   OH241772   0.017   2.652   6.751
 6738TIP3    H141773   0.052   2.590   6.687
 6738TIP3    H241774   6.817   2.675   6.717
 6739TIP3   OH241775   2.832   5.794   8.249
 6739TIP3    H141776   2.902   5.836   8.198
 6739TIP3    H241777   2.825   5.847   8.328
 6740TIP3   OH241778   5.549   1.089   7.505
 6740TIP3    H141779   5.470   1.071   7.556
 6740TIP3    H241780   5.612   1.025   7.538
 6741TIP3   OH241781   4.506   4.678   8.151
 6741TIP3    H141782   4.511   4.772   8.167
 6741TIP3    H241783   4.470   4.670   8.062
 6742TIP3   OH241784   2.845   5.078   0.232
 6742TIP3    H141785   2.825   5.164   0.195
 6742TIP3    H241786   2.777   5.065   0.298
 6743TIP3   OH241787   6.668   1.153   8.320
 6743TIP3    H141788   6.750   1.148   8.370
 6743TIP3    H241789   6.696   1.176   8.231
 6744TIP3   OH241790   3.088   6.226   2.442
 6744TIP3    H141791   3.033   6.195   2.370
 6744TIP3    H241792   3.177   6.201   2.417
 6745TIP3   OH241793   0.924   0.745   6.531
 6745TIP3    H141794   0.993   0.797   6.490
 6745TIP3    H241795   0.895   0.685   6.462
 6746TIP3   OH241796   3.508   3.953   8.569
 6746TIP3    H141797   3.425   3.910   8.549
 6746TIP3    H241798   3.511   3.956   0.051
 6747TIP3   OH241799   6.223   2.653   0.348
 6747TIP3    H141800   6.232   2.559   0.333
 6747TIP3    H241801   6.246   2.665   0.440
 6748TIP3   OH241802   3.092   0.563   0.372
 6748TIP3    H141803   3.155   0.621   0.329
 6748TIP3    H241804   3.099   0.584   0.465
 6749TIP3   OH241805   6.778   5.950   1.717
 6749TIP3    H141806   6.779   6.037   1.758
 6749TIP3    H241807   6.871   5.931   1.700
 6750TIP3   OH241808   6.451   4.421   7.256
 6750TIP3    H141809   6.356   4.411   7.245
 6750TIP3    H241810   6.489   4.357   7.196
 6751TIP3   OH241811   4.012   2.929   7.174
 6751TIP3    H141812   4.105   2.920   7.192
 6751TIP3    H241813   4.000   3.022   7.152
 6752TIP3   OH241814   1.953   5.666   0.878
 6752TIP3    H141815   1.909   5.638   0.797
 6752TIP3    H241816   1.882   5.683   0.940
 6753TIP3   OH241817   2.332   2.443   6.493
 6753TIP3    H141818   2.363   2.378   6.430
 6753TIP3    H241819   2.242   2.462   6.465
 6754TIP3   OH241820   4.383   4.858   1.500
 6754TIP3    H141821   4.340   4.851   1.415
 6754TIP3    H241822   4.350   4.783   1.550
 6755TIP3   OH241823   0.518   1.216   8.099
 6755TIP3    H141824   0.481   1.224   8.012
 6755TIP3    H241825   0.605   1.178   8.085
 6756TIP3   OH241826   4.231   2.002   1.418
 6756TIP3    H141827   4.322   1.992   1.446
 6756TIP3    H241828   4.180   1.966   1.491
 6757TIP3   OH241829   4.953   2.689   0.354
 6757TIP3    H141830   5.041   2.693   0.317
 6757TIP3    H241831   4.903   2.634   0.293
 6758TIP3   OH241832   0.065   2.076   7.890
 6758TIP3    H141833   0.110   1.996   7.916
 6758TIP3    H241834   6.873   2.045   7.844
 6759TIP3   OH241835   0.354   6.869   0.124
 6759TIP3    H141836   0.335   0.019   0.038
 6759TIP3    H241837   0.270   6.871   0.170
 6760TIP3   OH241838   5.204   3.135   7.159
 6760TIP3    H141839   5.142   3.168   7.094
 6760TIP3    H241840   5.288   3.132   7.113
 6761TIP3   OH241841   5.945   2.488   0.341
 6761TIP3    H141842   5.941   2.461   0.249
 6761TIP3    H241843   6.031   2.458   0.371
 6762TIP3   OH241844   5.438   1.234   0.314
 6762TIP3    H141845   5.460   1.267   0.227
 6762TIP3    H241846   5.346   1.256   0.325
 6763TIP3   OH241847   6.040   2.582   0.608
 6763TIP3    H141848   6.041   2.678   0.602
 6763TIP3    H241849   6.104   2.562   0.676
 6764TIP3   OH241850   1.387   2.809   7.773
 6764TIP3    H141851   1.445   2.877   7.808
 6764TIP3    H241852   1.332   2.784   7.847
 6765TIP3   OH241853   0.161   3.573   0.110
 6765TIP3    H141854   0.159   3.488   0.066
 6765TIP3    H241855   0.072   3.586   0.143
 6766TIP3   OH241856   2.019   6.558   6.816
 6766TIP3    H141857   2.024   6.625   6.747
 6766TIP3    H241858   2.047   6.604   6.895
 6767TIP3   OH241859   4.132   0.878   6.674
 6767TIP3    H141860   4.095   0.906   6.590
 6767TIP3    H241861   4.226   0.896   6.666
 6768TIP3   OH241862   5.490   0.773   7.268
 6768TIP3    H141863   5.451   0.687   7.280
 6768TIP3    H241864   5.430   0.833   7.313
 6769TIP3   OH241865   2.465   2.304   6.311
 6769TIP3    H141866   2.547   2.291   6.263
 6769TIP3    H241867   2.398   2.315   6.243
 6770TIP3   OH241868   2.257   0.282   2.183
 6770TIP3    H141869   2.278   0.310   2.273
 6770TIP3    H241870   2.195   0.209   2.194
 6771TIP3   OH241871   4.275   6.572   5.754
 6771TIP3    H141872   4.212   6.547   5.822
 6771TIP3    H241873   4.281   6.496   5.697
 6772TIP3   OH241874   2.982   1.226   0.479
 6772TIP3    H141875   2.997   1.315   0.511
 6772TIP3    H241876   3.064   1.201   0.437
 6773TIP3   OH241877   6.012   2.420   1.130
 6773TIP3    H141878   5.942   2.485   1.132
 6773TIP3    H241879   6.015   2.385   1.218
 6774TIP3   OH241880   1.800   6.192   6.649
 6774TIP3    H141881   1.881   6.241   6.646
 6774TIP3    H241882   1.731   6.258   6.642
 6775TIP3   OH241883   5.651   0.703   8.101
 6775TIP3    H141884   5.589   0.688   8.030
 6775TIP3    H241885   5.717   0.635   8.091
 6776TIP3   OH241886   1.685   2.737   7.886
 6776TIP3    H141887   1.677   2.815   7.940
 6776TIP3    H241888   1.744   2.680   7.935
 6777TIP3   OH241889   1.572   0.297   6.633
 6777TIP3    H141890   1.525   0.267   6.555
 6777TIP3    H241891   1.547   0.235   6.701
 6778TIP3   OH241892   2.026   5.412   7.176
 6778TIP3    H141893   1.956   5.477   7.179
 6778TIP3    H241894   2.000   5.352   7.106
 6779TIP3   OH241895   4.876   2.916   0.122
 6779TIP3    H141896   4.882   2.828   0.159
 6779TIP3    H241897   4.887   2.903   0.028
 6780TIP3   OH241898   4.172   1.173   1.097
 6780TIP3    H141899   4.242   1.161   1.161
 6780TIP3    H241900   4.165   1.268   1.086
 6781TIP3   OH241901   5.933   0.770   2.096
 6781TIP3    H141902   5.907   0.808   2.180
 6781TIP3    H241903   6.024   0.744   2.110
 6782TIP3   OH241904   3.469   6.768   8.053
 6782TIP3    H141905   3.449   6.727   8.137
 6782TIP3    H241906   3.552   6.812   8.067
 6783TIP3   OH241907   3.328   6.313   7.793
 6783TIP3    H141908   3.381   6.352   7.724
 6783TIP3    H241909   3.322   6.221   7.769
 6784TIP3   OH241910   3.624   5.849   2.043
 6784TIP3    H141911   3.695   5.784   2.038
 6784TIP3    H241912   3.670   5.932   2.054
 6785TIP3   OH241913   5.634   4.119   8.193
 6785TIP3    H141914   5.667   4.209   8.188
 6785TIP3    H241915   5.712   4.066   8.208
 6786TIP3   OH241916   1.220   4.776   1.936
 6786TIP3    H141917   1.129   4.788   1.908
 6786TIP3    H241918   1.222   4.687   1.972
 6787TIP3   OH241919   4.990   0.175   8.455
 6787TIP3    H141920   4.927   0.223   8.401
 6787TIP3    H241921   4.983   0.217   8.541
 6788TIP3   OH241922   1.972   2.317   8.345
 6788TIP3    H141923   1.981   2.230   8.308
 6788TIP3    H241924   2.010   2.375   8.279
 6789TIP3   OH241925   1.036   5.388   0.825
 6789TIP3    H141926   0.991   5.377   0.909
 6789TIP3    H241927   1.128   5.398   0.848
 6790TIP3   OH241928   2.292   5.421   6.973
 6790TIP3    H141929   2.244   5.357   7.026
 6790TIP3    H241930   2.239   5.432   6.894
 6791TIP3   OH241931   0.284   1.986   6.381
 6791TIP3    H141932   0.363   2.023   6.341
 6791TIP3    H241933   0.316   1.919   6.441
 6792TIP3   OH241934   1.010   2.850   1.210
 6792TIP3    H141935   0.984   2.761   1.185
 6792TIP3    H241936   1.105   2.845   1.222
 6793TIP3   OH241937   2.731   4.409   0.211
 6793TIP3    H141938   2.697   4.343   0.271
 6793TIP3    H241939   2.796   4.457   0.262
 6794TIP3   OH241940   5.560   0.185   7.721
 6794TIP3    H141941   5.583   0.258   7.779
 6794TIP3    H241942   5.626   0.189   7.651
 6795TIP3   OH241943   0.402   2.513   6.930
 6795TIP3    H141944   0.331   2.577   6.924
 6795TIP3    H241945   0.453   2.526   6.850
 6796TIP3   OH241946   0.664   2.075   8.086
 6796TIP3    H141947   0.659   2.103   8.178
 6796TIP3    H241948   0.580   2.032   8.070
 6797TIP3   OH241949   0.545   4.215   0.901
 6797TIP3    H141950   0.527   4.131   0.943
 6797TIP3    H241951   0.459   4.244   0.869
 6798TIP3   OH241952   1.999   1.668   8.293
 6798TIP3    H141953   2.034   1.678   8.204
 6798TIP3    H241954   1.916   1.715   8.291
 6799TIP3   OH241955   4.829   6.527   7.764
 6799TIP3    H141956   4.832   6.609   7.716
 6799TIP3    H241957   4.857   6.460   7.701
 6800TIP3   OH241958   2.034   3.938   1.583
 6800TIP3    H141959   2.081   3.876   1.639
 6800TIP3    H241960   2.003   4.005   1.643
 6801TIP3   OH241961   4.471   2.398   0.328
 6801TIP3    H141962   4.535   2.397   0.399
 6801TIP3    H241963   4.434   2.486   0.331
 6802TIP3   OH241964   5.827   0.976   7.513
 6802TIP3    H141965   5.815   0.935   7.427
 6802TIP3    H241966   5.918   0.958   7.536
 6803TIP3   OH241967   5.194   0.453   2.003
 6803TIP3    H141968   5.286   0.459   2.030
 6803TIP3    H241969   5.145   0.471   2.083
 6804TIP3   OH241970   6.511   4.356   7.672
 6804TIP3    H141971   6.427   4.398   7.690
 6804TIP3    H241972   6.535   4.314   7.755
 6805TIP3   OH241973   1.506   3.851   7.742
 6805TIP3    H141974   1.495   3.892   7.656
 6805TIP3    H241975   1.518   3.758   7.723
 6806TIP3   OH241976   4.959   2.354   8.092
 6806TIP3    H141977   5.020   2.344   8.165
 6806TIP3    H241978   4.942   2.265   8.062
 6807TIP3   OH241979   0.230   5.131   1.826
 6807TIP3    H141980   0.176   5.088   1.760
 6807TIP3    H241981   0.172   5.197   1.865
 6808TIP3   OH241982   0.981   1.307   0.258
 6808TIP3    H141983   0.988   1.377   0.324
 6808TIP3    H241984   1.071   1.288   0.233
 6809TIP3   OH241985   0.845   1.456   1.165
 6809TIP3    H141986   0.846   1.430   1.258
 6809TIP3    H241987   0.822   1.376   1.118
 6810TIP3   OH241988   1.285   0.047   6.750
 6810TIP3    H141989   1.305   6.841   6.734
 6810TIP3    H241990   1.296   0.089   6.665
 6811TIP3   OH241991   0.898   6.425   1.156
 6811TIP3    H141992   0.862   6.509   1.187
 6811TIP3    H241993   0.836   6.360   1.190
 6812TIP3   OH241994   0.848   0.877   8.249
 6812TIP3    H141995   0.915   0.928   8.294
 6812TIP3    H241996   0.888   0.854   8.165
 6813TIP3   OH241997   3.336   5.404   7.278
 6813TIP3    H141998   3.348   5.324   7.329
 6813TIP3    H241999   3.256   5.444   7.312
 6814TIP3   OH242000   1.940   1.105   0.175
 6814TIP3    H142001   1.865   1.080   0.121
 6814TIP3    H242002   1.916   1.078   0.264
 6815TIP3   OH242003   6.304   2.071   0.841
 6815TIP3    H142004   6.238   2.106   0.781
 6815TIP3    H242005   6.285   2.116   0.924
 6816TIP3   OH242006   0.908   0.489   6.964
 6816TIP3    H142007   0.950   0.424   7.021
 6816TIP3    H242008   0.980   0.539   6.927
 6817TIP3   OH242009   2.493   2.954   7.155
 6817TIP3    H142010   2.417   3.004   7.126
 6817TIP3    H242011   2.461   2.864   7.161
 6818TIP3   OH242012   2.679   6.677   2.029
 6818TIP3    H142013   2.733   6.652   1.954
 6818TIP3    H242014   2.734   6.659   2.105
 6819TIP3   OH242015   2.726   5.650   2.089
 6819TIP3    H142016   2.804   5.594   2.094
 6819TIP3    H242017   2.654   5.593   2.114
 6820TIP3   OH242018   5.687   1.472   0.686
 6820TIP3    H142019   5.709   1.479   0.779
 6820TIP3    H242020   5.593   1.491   0.682
 6821TIP3   OH242021   3.980   1.901   0.754
 6821TIP3    H142022   3.941   1.989   0.751
 6821TIP3    H242023   3.948   1.858   0.675
 6822TIP3   OH242024   3.306   6.559   0.709
 6822TIP3    H142025   3.336   6.562   0.618
 6822TIP3    H242026   3.251   6.480   0.713
 6823TIP3   OH242027   0.094   6.770   8.400
 6823TIP3    H142028   0.139   6.706   8.456
 6823TIP3    H242029   0.029   6.810   8.457
 6824TIP3   OH242030   1.639   1.641   0.590
 6824TIP3    H142031   1.576   1.713   0.586
 6824TIP3    H242032   1.604   1.576   0.529
 6825TIP3   OH242033   5.158   1.836   0.416
 6825TIP3    H142034   5.191   1.805   0.331
 6825TIP3    H242035   5.236   1.862   0.464
 6826TIP3   OH242036   0.049   0.914   1.144
 6826TIP3    H142037   0.116   0.912   1.212
 6826TIP3    H242038   6.854   0.922   1.191
 6827TIP3   OH242039   1.983   0.195   6.043
 6827TIP3    H142040   2.004   0.206   6.135
 6827TIP3    H242041   1.892   0.168   6.042
 6828TIP3   OH242042   5.241   2.802   1.266
 6828TIP3    H142043   5.290   2.813   1.347
 6828TIP3    H242044   5.153   2.776   1.295
 6829TIP3   OH242045   5.659   4.729   2.111
 6829TIP3    H142046   5.651   4.641   2.076
 6829TIP3    H242047   5.574   4.747   2.151
 6830TIP3   OH242048   0.716   4.136   8.287
 6830TIP3    H142049   0.722   4.136   8.191
 6830TIP3    H242050   0.732   4.227   8.312
 6831TIP3   OH242051   0.865   5.808   1.650
 6831TIP3    H142052   0.934   5.870   1.625
 6831TIP3    H242053   0.784   5.857   1.640
 6832TIP3   OH242054   4.475   3.971   7.782
 6832TIP3    H142055   4.552   4.026   7.773
 6832TIP3    H242056   4.509   3.883   7.793
 6833TIP3   OH242057   3.298   0.392   1.858
 6833TIP3    H142058   3.204   0.389   1.844
 6833TIP3    H242059   3.308   0.430   1.946
 6834TIP3   OH242060   6.668   2.021   7.459
 6834TIP3    H142061   6.643   2.052   7.372
 6834TIP3    H242062   6.706   2.098   7.502
 6835TIP3   OH242063   1.253   5.483   6.630
 6835TIP3    H142064   1.269   5.390   6.613
 6835TIP3    H242065   1.293   5.527   6.555
 6836TIP3   OH242066   0.250   5.543   6.975
 6836TIP3    H142067   0.315   5.521   6.908
 6836TIP3    H242068   0.239   5.463   7.025
 6837TIP3   OH242069   2.652   3.591   0.862
 6837TIP3    H142070   2.623   3.512   0.815
 6837TIP3    H242071   2.747   3.579   0.871
 6838TIP3   OH242072   0.744   0.514   0.963
 6838TIP3    H142073   0.718   0.437   1.014
 6838TIP3    H242074   0.745   0.585   1.027
 6839TIP3   OH242075   6.698   5.940   1.404
 6839TIP3    H142076   6.625   5.888   1.370
 6839TIP3    H242077   6.762   5.876   1.433
 6840TIP3   OH242078   5.821   5.245   7.014
 6840TIP3    H142079   5.907   5.271   7.047
 6840TIP3    H242080   5.787   5.186   7.081
 6841TIP3   OH242081   2.108   5.301   7.984
 6841TIP3    H142082   2.086   5.384   8.026
 6841TIP3    H242083   2.177   5.322   7.922
 6842TIP3   OH242084   4.437   6.294   1.294
 6842TIP3    H142085   4.394   6.328   1.216
 6842TIP3    H242086   4.463   6.205   1.270
 6843TIP3   OH242087   0.379   6.680   6.860
 6843TIP3    H142088   0.416   6.710   6.943
 6843TIP3    H242089   0.412   6.742   6.795
 6844TIP3   OH242090   5.048   1.097   7.122
 6844TIP3    H142091   5.097   1.060   7.049
 6844TIP3    H242092   5.034   1.024   7.182
 6845TIP3   OH242093   3.911   5.119   7.850
 6845TIP3    H142094   3.924   5.194   7.908
 6845TIP3    H242095   3.925   5.153   7.762
 6846TIP3   OH242096   5.786   4.636   1.607
 6846TIP3    H142097   5.696   4.666   1.595
 6846TIP3    H242098   5.806   4.587   1.527
 6847TIP3   OH242099   6.192   0.389   0.665
 6847TIP3    H142100   6.240   0.421   0.588
 6847TIP3    H242101   6.252   0.404   0.738
 6848TIP3   OH242102   0.476   2.075   1.334
 6848TIP3    H142103   0.430   2.065   1.417
 6848TIP3    H242104   0.536   2.000   1.331
 6849TIP3   OH242105   4.492   0.402   7.309
 6849TIP3    H142106   4.521   0.451   7.231
 6849TIP3    H242107   4.397   0.408   7.306
 6850TIP3   OH242108   5.605   0.851   7.724
 6850TIP3    H142109   5.606   0.755   7.726
 6850TIP3    H242110   5.694   0.875   7.698
 6851TIP3   OH242111   5.490   1.124   1.932
 6851TIP3    H142112   5.566   1.082   1.893
 6851TIP3    H242113   5.436   1.052   1.963
 6852TIP3   OH242114   4.831   1.640   0.924
 6852TIP3    H142115   4.887   1.565   0.903
 6852TIP3    H242116   4.854   1.707   0.859
 6853TIP3   OH242117   1.393   5.763   0.515
 6853TIP3    H142118   1.332   5.817   0.566
 6853TIP3    H242119   1.468   5.751   0.573
 6854TIP3   OH242120   4.752   5.283   7.000
 6854TIP3    H142121   4.657   5.279   7.013
 6854TIP3    H242122   4.762   5.331   6.918
 6855TIP3   OH242123   6.687   2.751   7.633
 6855TIP3    H142124   6.692   2.731   7.726
 6855TIP3    H242125   6.727   2.838   7.625
 6856TIP3   OH242126   2.693   5.390   7.848
 6856TIP3    H142127   2.691   5.349   7.762
 6856TIP3    H242128   2.769   5.351   7.891
 6857TIP3   OH242129   4.999   3.537   7.299
 6857TIP3    H142130   5.054   3.546   7.221
 6857TIP3    H242131   4.910   3.556   7.269
 6858TIP3   OH242132   4.173   1.067   0.029
 6858TIP3    H142133   4.093   1.057   0.081
 6858TIP3    H242134   4.204   1.156   0.049
 6859TIP3   OH242135   5.137   6.289   6.776
 6859TIP3    H142136   5.197   6.223   6.741
 6859TIP3    H242137   5.065   6.292   6.714
 6860TIP3   OH242138   6.797   1.032   0.775
 6860TIP3    H142139   6.718   0.994   0.813
 6860TIP3    H242140   6.869   0.987   0.820
 6861TIP3   OH242141   6.680   6.209   2.307
 6861TIP3    H142142   6.671   6.267   2.231
 6861TIP3    H242143   6.743   6.143   2.279
 6862TIP3   OH242144   2.897   0.812   6.219
 6862TIP3    H142145   2.989   0.792   6.205
 6862TIP3    H242146   2.856   0.726   6.231
 6863TIP3   OH242147   2.033   1.251   1.823
 6863TIP3    H142148   2.111   1.242   1.878
 6863TIP3    H242149   1.962   1.217   1.878
 6864TIP3   OH242150   1.820   6.605   7.928
 6864TIP3    H142151   1.896   6.633   7.978
 6864TIP3    H242152   1.762   6.564   7.992
 6865TIP3   OH242153   4.502   5.481   7.220
 6865TIP3    H142154   4.459   5.505   7.138
 6865TIP3    H242155   4.435   5.494   7.287
 6866TIP3   OH242156   1.477   6.368   0.040
 6866TIP3    H142157   1.510   6.455   0.062
 6866TIP3    H242158   1.552   6.310   0.056
 6867TIP3   OH242159   4.764   1.775   1.356
 6867TIP3    H142160   4.822   1.729   1.417
 6867TIP3    H242161   4.678   1.735   1.370
 6868TIP3   OH242162   4.002   3.826   7.738
 6868TIP3    H142163   3.949   3.747   7.724
 6868TIP3    H242164   3.939   3.892   7.769
 6869TIP3   OH242165   6.352   0.998   8.232
 6869TIP3    H142166   6.385   1.042   8.310
 6869TIP3    H242167   6.430   0.976   8.181
 6870TIP3   OH242168   3.897   3.103   1.933
 6870TIP3    H142169   3.839   3.154   1.990
 6870TIP3    H242170   3.922   3.027   1.985
 6871TIP3   OH242171   3.962   2.951   8.368
 6871TIP3    H142172   3.924   3.038   8.378
 6871TIP3    H242173   4.012   2.937   8.448
 6872TIP3   OH242174   5.392   5.732   0.291
 6872TIP3    H142175   5.487   5.739   0.281
 6872TIP3    H242176   5.372   5.787   0.366
 6873TIP3   OH242177   0.179   5.752   7.674
 6873TIP3    H142178   0.198   5.731   7.766
 6873TIP3    H242179   0.136   5.673   7.640
 6874TIP3   OH242180   3.896   5.595   1.534
 6874TIP3    H142181   3.901   5.601   1.629
 6874TIP3    H242182   3.873   5.504   1.517
 6875TIP3   OH242183   6.547   4.502   0.783
 6875TIP3    H142184   6.533   4.409   0.798
 6875TIP3    H242185   6.473   4.528   0.728
 6876TIP3   OH242186   0.016   3.693   1.460
 6876TIP3    H142187   6.845   3.672   1.534
 6876TIP3    H242188   6.845   3.733   1.395
 6877TIP3   OH242189   5.161   5.177   1.065
 6877TIP3    H142190   5.160   5.270   1.087
 6877TIP3    H242191   5.080   5.163   1.014
 6878TIP3   OH242192   1.709   1.969   6.710
 6878TIP3    H142193   1.777   2.002   6.652
 6878TIP3    H242194   1.635   1.950   6.652
 6879TIP3   OH242195   3.397   2.881   1.536
 6879TIP3    H142196   3.371   2.818   1.604
 6879TIP3    H242197   3.488   2.857   1.515
 6880TIP3   OH242198   0.307   2.968   0.727
 6880TIP3    H142199   0.343   2.911   0.659
 6880TIP3    H242200   0.371   2.966   0.798
 6881TIP3   OH242201   1.926   5.776   2.118
 6881TIP3    H142202   1.867   5.714   2.161
 6881TIP3    H242203   1.908   5.860   2.161
 6882TIP3   OH242204   5.021   6.544   6.642
 6882TIP3    H142205   4.996   6.454   6.662
 6882TIP3    H242206   5.080   6.538   6.568
 6883TIP3   OH242207   0.269   6.639   6.501
 6883TIP3    H142208   0.313   6.701   6.558
 6883TIP3    H242209   0.334   6.617   6.435
 6884TIP3   OH242210   0.977   2.337   0.051
 6884TIP3    H142211   1.064   2.366   0.078
 6884TIP3    H242212   0.992   2.275   8.594
 6885TIP3   OH242213   0.663   2.017   0.077
 6885TIP3    H142214   0.747   2.020   0.032
 6885TIP3    H242215   0.621   1.937   0.044
 6886TIP3   OH242216   1.981   4.854   8.218
 6886TIP3    H142217   1.996   4.926   8.157
 6886TIP3    H242218   1.925   4.792   8.169
 6887TIP3   OH242219   4.215   6.746   6.855
 6887TIP3    H142220   4.125   6.714   6.854
 6887TIP3    H242221   4.207   6.840   6.870
 6888TIP3   OH242222   1.090   3.724   1.440
 6888TIP3    H142223   0.995   3.720   1.440
 6888TIP3    H242224   1.111   3.809   1.403
 6889TIP3   OH242225   2.144   4.530   8.384
 6889TIP3    H142226   2.070   4.588   8.401
 6889TIP3    H242227   2.192   4.530   8.467
 6890TIP3   OH242228   0.370   4.387   8.253
 6890TIP3    H142229   0.445   4.425   8.300
 6890TIP3    H242230   0.308   4.459   8.244
 6891TIP3   OH242231   4.375   5.593   1.173
 6891TIP3    H142232   4.463   5.555   1.166
 6891TIP3    H242233   4.318   5.517   1.185
 6892TIP3   OH242234   0.713   6.227   0.577
 6892TIP3    H142235   0.658   6.273   0.641
 6892TIP3    H242236   0.757   6.298   0.529
 6893TIP3   OH242237   3.614   1.790   2.476
 6893TIP3    H142238   3.597   1.882   2.457
 6893TIP3    H242239   3.603   1.745   2.392
 6894TIP3   OH242240   3.511   6.518   7.723
 6894TIP3    H142241   3.589   6.562   7.756
 6894TIP3    H242242   3.485   6.569   7.646
 6895TIP3   OH242243   1.992   3.402   0.328
 6895TIP3    H142244   1.906   3.382   0.363
 6895TIP3    H242245   2.052   3.383   0.400
 6896TIP3   OH242246   1.486   5.722   0.835
 6896TIP3    H142247   1.425   5.796   0.839
 6896TIP3    H242248   1.566   5.756   0.875
 6897TIP3   OH242249   5.339   0.057   1.523
 6897TIP3    H142250   5.247   0.074   1.542
 6897TIP3    H242251   5.383   0.140   1.545
 6898TIP3   OH242252   0.974   5.968   0.609
 6898TIP3    H142253   1.005   6.014   0.687
 6898TIP3    H242254   0.880   5.960   0.622
 6899TIP3   OH242255   6.030   6.817   1.268
 6899TIP3    H142256   6.053   6.724   1.271
 6899TIP3    H242257   6.063   6.847   1.184
 6900TIP3   OH242258   2.512   1.720   1.302
 6900TIP3    H142259   2.591   1.760   1.339
 6900TIP3    H242260   2.468   1.792   1.257
 6901TIP3   OH242261   5.800   1.448   0.949
 6901TIP3    H142262   5.754   1.491   1.021
 6901TIP3    H242263   5.849   1.377   0.990
 6902TIP3   OH242264   4.392   6.097   0.077
 6902TIP3    H142265   4.416   6.014   0.036
 6902TIP3    H242266   4.444   6.100   0.157
 6903TIP3   OH242267   1.534   2.261   0.745
 6903TIP3    H142268   1.479   2.230   0.673
 6903TIP3    H242269   1.505   2.350   0.761
 6904TIP3   OH242270   0.879   4.601   0.093
 6904TIP3    H142271   0.819   4.526   0.089
 6904TIP3    H242272   0.916   4.606   0.005
 6905TIP3   OH242273   5.785   6.779   1.071
 6905TIP3    H142274   5.692   6.786   1.091
 6905TIP3    H242275   5.789   6.761   0.977
 6906TIP3   OH242276   1.189   1.489   6.759
 6906TIP3    H142277   1.242   1.568   6.748
 6906TIP3    H242278   1.247   1.428   6.805
 6907TIP3   OH242279   6.789   2.137   2.175
 6907TIP3    H142280   6.885   2.144   2.177
 6907TIP3    H242281   6.772   2.045   2.197
 6908TIP3   OH242282   4.997   0.265   7.301
 6908TIP3    H142283   4.925   0.316   7.265
 6908TIP3    H242284   5.045   0.326   7.357
 6909TIP3   OH242285   5.977   3.334   0.689
 6909TIP3    H142286   6.024   3.417   0.698
 6909TIP3    H242287   5.933   3.323   0.773
 6910TIP3   OH242288   4.972   4.868   8.539
 6910TIP3    H142289   4.951   4.811   8.613
 6910TIP3    H242290   4.897   4.860   8.481
 6911TIP3   OH242291   5.647   0.927   0.350
 6911TIP3    H142292   5.687   1.014   0.350
 6911TIP3    H242293   5.707   0.873   0.402
 6912TIP3   OH242294   6.833   1.891   1.124
 6912TIP3    H142295   6.780   1.889   1.044
 6912TIP3    H242296   6.880   1.974   1.120
 6913TIP3   OH242297   5.092   5.429   6.841
 6913TIP3    H142298   5.131   5.515   6.825
 6913TIP3    H242299   5.164   5.367   6.830
 6914TIP3   OH242300   3.272   2.108   0.655
 6914TIP3    H142301   3.227   2.024   0.655
 6914TIP3    H242302   3.341   2.098   0.590
 6915TIP3   OH242303   5.119   0.722   8.539
 6915TIP3    H142304   5.212   0.746   8.534
 6915TIP3    H242305   5.075   0.792   8.491
 6916TIP3   OH242306   5.437   4.212   8.411
 6916TIP3    H142307   5.455   4.131   8.364
 6916TIP3    H242308   5.416   4.276   8.343
 6917TIP3   OH242309   3.328   1.856   1.550
 6917TIP3    H142310   3.412   1.835   1.589
 6917TIP3    H242311   3.338   1.945   1.517
 6918TIP3   OH242312   6.520   2.400   8.464
 6918TIP3    H142313   6.428   2.385   8.443
 6918TIP3    H242314   6.523   2.489   8.499
 6919TIP3   OH242315   1.458   5.023   7.861
 6919TIP3    H142316   1.464   4.997   7.953
 6919TIP3    H242317   1.471   4.942   7.812
 6920TIP3   OH242318   3.294   2.489   2.129
 6920TIP3    H142319   3.199   2.476   2.126
 6920TIP3    H242320   3.330   2.411   2.086
 6921TIP3   OH242321   6.552   3.467   0.375
 6921TIP3    H142322   6.486   3.432   0.315
 6921TIP3    H242323   6.568   3.397   0.437
 6922TIP3   OH242324   6.404   6.322   8.357
 6922TIP3    H142325   6.396   6.417   8.356
 6922TIP3    H242326   6.322   6.290   8.394
 6923TIP3   OH242327   6.218   6.353   7.231
 6923TIP3    H142328   6.266   6.425   7.273
 6923TIP3    H242329   6.136   6.393   7.201
 6924TIP3   OH242330   2.840   6.354   1.261
 6924TIP3    H142331   2.878   6.428   1.309
 6924TIP3    H242332   2.753   6.384   1.235
 6925TIP3   OH242333   2.576   0.208   0.001
 6925TIP3    H142334   2.533   0.223   0.085
 6925TIP3    H242335   2.504   0.185   8.555
 6926TIP3   OH242336   5.607   0.061   8.052
 6926TIP3    H142337   5.571   0.135   8.101
 6926TIP3    H242338   5.578   0.076   7.962
 6927TIP3   OH242339   3.780   5.109   1.199
 6927TIP3    H142340   3.738   5.034   1.157
 6927TIP3    H242341   3.818   5.072   1.279
 6928TIP3   OH242342   1.486   6.858   6.474
 6928TIP3    H142343   1.416   6.812   6.427
 6928TIP3    H242344   1.496   0.054   6.426
 6929TIP3   OH242345   0.446   0.335   0.691
 6929TIP3    H142346   0.425   0.292   0.774
 6929TIP3    H242347   0.392   0.414   0.689
 6930TIP3   OH242348   0.808   6.475   0.885
 6930TIP3    H142349   0.813   6.423   0.966
 6930TIP3    H242350   0.737   6.435   0.836
 6931TIP3   OH242351   2.534   2.428   6.879
 6931TIP3    H142352   2.468   2.407   6.945
 6931TIP3    H242353   2.613   2.446   6.930
 6932TIP3   OH242354   6.136   1.652   7.950
 6932TIP3    H142355   6.060   1.708   7.966
 6932TIP3    H242356   6.210   1.699   7.989
 6933TIP3   OH242357   5.082   2.665   0.051
 6933TIP3    H142358   5.145   2.606   0.092
 6933TIP3    H242359   5.123   2.751   0.055
 6934TIP3   OH242360   1.709   2.559   0.132
 6934TIP3    H142361   1.776   2.498   0.163
 6934TIP3    H242362   1.711   2.631   0.195
 6935TIP3   OH242363   4.655   0.878   7.319
 6935TIP3    H142364   4.667   0.930   7.398
 6935TIP3    H242365   4.686   0.935   7.248
 6936TIP3   OH242366   0.933   4.322   2.266
 6936TIP3    H142367   0.888   4.279   2.338
 6936TIP3    H242368   0.963   4.250   2.210
 6937TIP3   OH242369   1.807   0.105   7.370
 6937TIP3    H142370   1.754   0.037   7.412
 6937TIP3    H242371   1.791   0.093   7.276
 6938TIP3   OH242372   1.730   4.552   1.012
 6938TIP3    H142373   1.676   4.594   1.079
 6938TIP3    H242374   1.698   4.462   1.008
 6939TIP3   OH242375   3.766   6.175   7.355
 6939TIP3    H142376   3.821   6.251   7.336
 6939TIP3    H242377   3.678   6.201   7.328
 6940TIP3   OH242378   2.806   4.818   7.682
 6940TIP3    H142379   2.876   4.774   7.634
 6940TIP3    H242380   2.819   4.791   7.773
 6941TIP3   OH242381   3.430   0.375   1.211
 6941TIP3    H142382   3.337   0.395   1.212
 6941TIP3    H242383   3.467   0.435   1.145
 6942TIP3   OH242384   2.253   0.741   2.467
 6942TIP3    H142385   2.164   0.750   2.499
 6942TIP3    H242386   2.287   0.662   2.509
 6943TIP3   OH242387   0.188   3.395   7.959
 6943TIP3    H142388   0.229   3.314   7.991
 6943TIP3    H242389   0.144   3.432   8.035
 6944TIP3   OH242390   3.577   1.112   2.136
 6944TIP3    H142391   3.584   1.093   2.230
 6944TIP3    H242392   3.664   1.144   2.112
 6945TIP3   OH242393   4.781   4.378   0.612
 6945TIP3    H142394   4.796   4.456   0.667
 6945TIP3    H242395   4.863   4.369   0.563
 6946TIP3   OH242396   4.745   4.281   0.189
 6946TIP3    H142397   4.780   4.360   0.146
 6946TIP3    H242398   4.650   4.292   0.186
 6947TIP3   OH242399   5.170   3.893   7.295
 6947TIP3    H142400   5.229   3.920   7.224
 6947TIP3    H242401   5.193   3.949   7.368
 6948TIP3   OH242402   0.457   0.205   7.002
 6948TIP3    H142403   0.499   0.262   7.066
 6948TIP3    H242404   0.429   0.264   6.932
 6949TIP3   OH242405   3.532   1.525   6.339
 6949TIP3    H142406   3.468   1.497   6.274
 6949TIP3    H242407   3.543   1.450   6.397
 6950TIP3   OH242408   0.046   1.627   7.098
 6950TIP3    H142409   0.024   1.712   7.059
 6950TIP3    H242410   0.003   1.629   7.184
 6951TIP3   OH242411   6.578   0.981   6.540
 6951TIP3    H142412   6.500   1.037   6.544
 6951TIP3    H242413   6.563   0.916   6.609
 6952TIP3   OH242414   1.669   3.318   6.867
 6952TIP3    H142415   1.718   3.293   6.789
 6952TIP3    H242416   1.630   3.236   6.898
 6953TIP3   OH242417   5.402   6.877   7.836
 6953TIP3    H142418   5.378   6.794   7.793
 6953TIP3    H242419   5.451   0.038   7.770
 6954TIP3   OH242420   6.841   3.551   0.304
 6954TIP3    H142421   6.771   3.616   0.299
 6954TIP3    H242422   6.800   3.470   0.273
 6955TIP3   OH242423   6.311   5.416   7.627
 6955TIP3    H142424   6.402   5.393   7.607
 6955TIP3    H242425   6.271   5.334   7.656
 6956TIP3   OH242426   5.373   1.284   7.155
 6956TIP3    H142427   5.294   1.260   7.106
 6956TIP3    H242428   5.437   1.217   7.131
 6957TIP3   OH242429   2.776   1.812   0.136
 6957TIP3    H142430   2.822   1.895   0.149
 6957TIP3    H242431   2.735   1.795   0.221
 6958TIP3   OH242432   6.878   3.151   1.308
 6958TIP3    H142433   6.862   3.070   1.259
 6958TIP3    H242434   0.028   3.211   1.243
 6959TIP3   OH242435   5.426   4.476   1.652
 6959TIP3    H142436   5.496   4.506   1.710
 6959TIP3    H242437   5.366   4.551   1.646
 6960TIP3   OH242438   2.811   1.834   0.489
 6960TIP3    H142439   2.727   1.872   0.462
 6960TIP3    H242440   2.813   1.747   0.448
 6961TIP3   OH242441   4.472   5.583   0.256
 6961TIP3    H142442   4.458   5.490   0.239
 6961TIP3    H242443   4.544   5.586   0.319
 6962TIP3   OH242444   0.815   0.595   7.240
 6962TIP3    H142445   0.832   0.685   7.211
 6962TIP3    H242446   0.861   0.541   7.175
 6963TIP3   OH242447   0.216   5.841   0.778
 6963TIP3    H142448   0.209   5.791   0.859
 6963TIP3    H242449   0.289   5.801   0.731
 6964TIP3   OH242450   0.461   5.541   8.448
 6964TIP3    H142451   0.539   5.500   8.410
 6964TIP3    H242452   0.495   5.599   8.516
 6965TIP3   OH242453   1.729   1.082   7.517
 6965TIP3    H142454   1.642   1.082   7.477
 6965TIP3    H242455   1.790   1.088   7.443
 6966TIP3   OH242456   2.500   6.044   6.755
 6966TIP3    H142457   2.414   6.037   6.715
 6966TIP3    H242458   2.522   5.954   6.780
 6967TIP3   OH242459   0.949   0.841   7.180
 6967TIP3    H142460   0.906   0.891   7.250
 6967TIP3    H242461   0.938   0.895   7.102
 6968TIP3   OH242462   0.522   5.166   7.774
 6968TIP3    H142463   0.578   5.101   7.731
 6968TIP3    H242464   0.547   5.162   7.866
 6969TIP3   OH242465   2.301   4.678   1.689
 6969TIP3    H142466   2.248   4.599   1.677
 6969TIP3    H242467   2.322   4.679   1.782
 6970TIP3   OH242468   1.067   0.556   8.173
 6970TIP3    H142469   1.132   0.590   8.112
 6970TIP3    H242470   1.080   0.608   8.252
 6971TIP3   OH242471   2.734   5.071   7.233
 6971TIP3    H142472   2.741   5.010   7.306
 6971TIP3    H242473   2.693   5.021   7.163
 6972TIP3   OH242474   5.321   4.734   0.853
 6972TIP3    H142475   5.350   4.766   0.767
 6972TIP3    H242476   5.247   4.791   0.875
 6973TIP3   OH242477   5.551   1.214   6.949
 6973TIP3    H142478   5.517   1.293   6.908
 6973TIP3    H242479   5.645   1.215   6.930
 6974TIP3   OH242480   6.287   4.448   8.428
 6974TIP3    H142481   6.236   4.512   8.478
 6974TIP3    H242482   6.274   4.365   8.475
 6975TIP3   OH242483   4.639   2.803   1.107
 6975TIP3    H142484   4.547   2.818   1.085
 6975TIP3    H242485   4.663   2.726   1.056
 6976TIP3   OH242486   0.393   2.050   7.360
 6976TIP3    H142487   0.426   2.115   7.421
 6976TIP3    H242488   0.329   2.097   7.306
 6977TIP3   OH242489   5.619   1.381   1.314
 6977TIP3    H142490   5.698   1.425   1.285
 6977TIP3    H242491   5.554   1.402   1.248
 6978TIP3   OH242492   4.983   6.861   6.787
 6978TIP3    H142493   4.914   6.810   6.744
 6978TIP3    H242494   4.977   0.061   6.747
 6979TIP3   OH242495   2.999   6.803   7.872
 6979TIP3    H142496   2.966   6.833   7.788
 6979TIP3    H242497   3.062   6.870   7.899
 6980TIP3   OH242498   3.857   4.971   1.433
 6980TIP3    H142499   3.893   5.042   1.486
 6980TIP3    H242500   3.783   4.939   1.484
 6981TIP3   OH242501   5.069   5.394   1.291
 6981TIP3    H142502   5.088   5.482   1.260
 6981TIP3    H242503   5.143   5.371   1.346
 6982TIP3   OH242504   0.008   3.610   6.264
 6982TIP3    H142505   0.085   3.662   6.288
 6982TIP3    H242506   0.045   3.528   6.232
 6983TIP3   OH242507   2.337   2.635   0.286
 6983TIP3    H142508   2.401   2.703   0.264
 6983TIP3    H242509   2.347   2.569   0.217
 6984TIP3   OH242510   6.865   6.018   2.172
 6984TIP3    H142511   6.809   5.975   2.108
 6984TIP3    H242512   0.036   6.074   2.119
 6985TIP3   OH242513   3.368   3.639   1.653
 6985TIP3    H142514   3.313   3.683   1.588
 6985TIP3    H242515   3.417   3.574   1.603
 6986TIP3   OH242516   0.140   1.188   7.366
 6986TIP3    H142517   0.055   1.148   7.382
 6986TIP3    H242518   0.124   1.282   7.367
 6987TIP3   OH242519   5.344   5.277   6.837
 6987TIP3    H142520   5.348   5.245   6.747
 6987TIP3    H242521   5.426   5.325   6.849
 6988TIP3   OH242522   5.243   1.414   7.834
 6988TIP3    H142523   5.208   1.356   7.766
 6988TIP3    H242524   5.338   1.407   7.823
 6989TIP3   OH242525   6.275   1.414   0.672
 6989TIP3    H142526   6.349   1.470   0.650
 6989TIP3    H242527   6.220   1.467   0.729
 6990TIP3   OH242528   4.738   4.103   6.877
 6990TIP3    H142529   4.804   4.146   6.823
 6990TIP3    H242530   4.715   4.024   6.829
 6991TIP3   OH242531   2.061   5.664   7.469
 6991TIP3    H142532   2.079   5.696   7.558
 6991TIP3    H242533   1.982   5.710   7.442
 6992TIP3   OH242534   3.028   2.716   7.927
 6992TIP3    H142535   3.048   2.806   7.950
 6992TIP3    H242536   2.984   2.721   7.842
 6993TIP3   OH242537   1.507   4.549   7.484
 6993TIP3    H142538   1.572   4.598   7.536
 6993TIP3    H242539   1.504   4.463   7.525
 6994TIP3   OH242540   2.514   6.456   7.815
 6994TIP3    H142541   2.508   6.361   7.801
 6994TIP3    H242542   2.440   6.492   7.766
 6995TIP3   OH242543   5.225   6.100   7.185
 6995TIP3    H142544   5.159   6.030   7.186
 6995TIP3    H242545   5.304   6.057   7.153
 6996TIP3   OH242546   0.040   5.481   6.723
 6996TIP3    H142547   0.095   5.411   6.757
 6996TIP3    H242548   0.102   5.546   6.691
 6997TIP3   OH242549   6.661   0.479   2.059
 6997TIP3    H142550   6.577   0.435   2.057
 6997TIP3    H242551   6.689   0.473   2.150
 6998TIP3   OH242552   0.680   3.139   7.661
 6998TIP3    H142553   0.621   3.212   7.640
 6998TIP3    H242554   0.693   3.146   7.755
 6999TIP3   OH242555   5.039   5.831   7.669
 6999TIP3    H142556   5.081   5.820   7.584
 6999TIP3    H242557   4.947   5.812   7.653
 7000TIP3   OH242558   0.115   4.098   1.239
 7000TIP3    H142559   0.085   4.016   1.199
 7000TIP3    H242560   0.181   4.072   1.302
 7001TIP3   OH242561   6.766   2.427   7.921
 7001TIP3    H142562   6.671   2.438   7.928
 7001TIP3    H242563   6.801   2.516   7.924
 7002TIP3   OH242564   5.385   2.089   7.248
 7002TIP3    H142565   5.410   2.146   7.321
 7002TIP3    H242566   5.294   2.113   7.229
 7003TIP3   OH242567   6.442   6.406   0.267
 7003TIP3    H142568   6.522   6.425   0.316
 7003TIP3    H242569   6.465   6.332   0.211
 7004TIP3   OH242570   3.616   3.066   8.195
 7004TIP3    H142571   3.581   3.133   8.253
 7004TIP3    H242572   3.624   2.988   8.249
 7005TIP3   OH242573   4.896   4.926   0.718
 7005TIP3    H142574   4.909   4.952   0.626
 7005TIP3    H242575   4.983   4.904   0.750
 7006TIP3   OH242576   2.336   5.823   0.466
 7006TIP3    H142577   2.244   5.805   0.488
 7006TIP3    H242578   2.364   5.887   0.531
 7007TIP3   OH242579   3.883   4.057   7.253
 7007TIP3    H142580   3.894   3.982   7.311
 7007TIP3    H242581   3.796   4.046   7.215
 7008TIP3   OH242582   1.048   0.106   0.463
 7008TIP3    H142583   1.046   0.066   0.550
 7008TIP3    H242584   0.988   0.053   0.411
 7009TIP3   OH242585   4.192   6.045   7.129
 7009TIP3    H142586   4.191   5.976   7.063
 7009TIP3    H242587   4.100   6.053   7.156
 7010TIP3   OH242588   5.302   3.531   0.443
 7010TIP3    H142589   5.216   3.490   0.439
 7010TIP3    H242590   5.340   3.516   0.357
 7011TIP3   OH242591   4.465   6.181   7.063
 7011TIP3    H142592   4.403   6.109   7.053
 7011TIP3    H242593   4.449   6.238   6.988
 7012TIP3   OH242594   2.681   3.700   7.053
 7012TIP3    H142595   2.758   3.656   7.088
 7012TIP3    H242596   2.714   3.750   6.978
 7013TIP3   OH242597   2.115   2.399   1.201
 7013TIP3    H142598   2.082   2.373   1.115
 7013TIP3    H242599   2.174   2.472   1.183
 7014TIP3   OH242600   2.861   5.061   7.577
 7014TIP3    H142601   2.881   5.029   7.489
 7014TIP3    H242602   2.831   4.983   7.624
 7015TIP3   OH242603   4.547   1.134   0.716
 7015TIP3    H142604   4.486   1.067   0.685
 7015TIP3    H242605   4.508   1.167   0.797
 7016TIP3   OH242606   0.830   2.020   1.286
 7016TIP3    H142607   0.898   2.019   1.220
 7016TIP3    H242608   0.827   2.110   1.317
 7017TIP3   OH242609   2.025   5.763   0.646
 7017TIP3    H142610   2.038   5.856   0.632
 7017TIP3    H242611   2.044   5.749   0.739
 7018TIP3   OH242612   2.968   3.622   1.554
 7018TIP3    H142613   2.944   3.603   1.645
 7018TIP3    H242614   2.994   3.714   1.555
 7019TIP3   OH242615   4.933   4.107   7.225
 7019TIP3    H142616   4.986   4.122   7.146
 7019TIP3    H242617   4.849   4.148   7.204
 7020TIP3   OH242618   0.799   5.316   1.646
 7020TIP3    H142619   0.846   5.258   1.585
 7020TIP3    H242620   0.812   5.403   1.610
 7021TIP3   OH242621   1.234   1.959   0.821
 7021TIP3    H142622   1.210   1.903   0.895
 7021TIP3    H242623   1.170   1.938   0.753
 7022TIP3   OH242624   3.699   3.163   7.668
 7022TIP3    H142625   3.610   3.180   7.639
 7022TIP3    H242626   3.750   3.158   7.587
 7023TIP3   OH242627   6.529   0.073   8.339
 7023TIP3    H142628   6.434   0.066   8.334
 7023TIP3    H242629   6.561   0.009   8.275
 7024TIP3   OH242630   1.615   6.026   6.137
 7024TIP3    H142631   1.671   6.044   6.062
 7024TIP3    H242632   1.656   6.073   6.210
 7025TIP3   OH242633   2.842   0.846   2.125
 7025TIP3    H142634   2.876   0.876   2.210
 7025TIP3    H242635   2.802   0.924   2.086
 7026TIP3   OH242636   4.104   3.570   0.474
 7026TIP3    H142637   4.080   3.607   0.559
 7026TIP3    H242638   4.196   3.594   0.463
 7027TIP3   OH242639   1.764   1.472   0.757
 7027TIP3    H142640   1.710   1.530   0.704
 7027TIP3    H242641   1.826   1.433   0.695
 7028TIP3   OH242642   0.981   3.790   1.974
 7028TIP3    H142643   0.955   3.809   2.065
 7028TIP3    H242644   1.040   3.862   1.951
 7029TIP3   OH242645   5.645   0.245   7.417
 7029TIP3    H142646   5.679   0.324   7.374
 7029TIP3    H242647   5.716   0.182   7.410
 7030TIP3   OH242648   1.338   5.670   6.423
 7030TIP3    H142649   1.347   5.753   6.470
 7030TIP3    H242650   1.349   5.693   6.331
 7031TIP3   OH242651   3.201   1.227   1.595
 7031TIP3    H142652   3.279   1.211   1.648
 7031TIP3    H242653   3.131   1.241   1.659
 7032TIP3   OH242654   0.950   5.146   0.306
 7032TIP3    H142655   0.952   5.074   0.243
 7032TIP3    H242656   0.936   5.104   0.390
 7033TIP3   OH242657   1.320   5.048   7.301
 7033TIP3    H142658   1.274   5.008   7.227
 7033TIP3    H242659   1.363   5.124   7.263
 7034TIP3   OH242660   2.317   2.879   0.465
 7034TIP3    H142661   2.365   2.814   0.516
 7034TIP3    H242662   2.380   2.949   0.449
 7035TIP3   OH242663   0.236   4.623   8.291
 7035TIP3    H142664   0.231   4.706   8.339
 7035TIP3    H242665   0.255   4.649   8.200
 7036TIP3   OH242666   4.742   1.339   0.466
 7036TIP3    H142667   4.760   1.350   0.560
 7036TIP3    H242668   4.803   1.272   0.437
 7037TIP3   OH242669   3.432   4.349   0.523
 7037TIP3    H142670   3.451   4.309   0.607
 7037TIP3    H242671   3.483   4.300   0.460
 7038TIP3   OH242672   1.101   5.128   1.790
 7038TIP3    H142673   1.049   5.148   1.713
 7038TIP3    H242674   1.040   5.085   1.850
 7039TIP3   OH242675   4.362   0.845   7.341
 7039TIP3    H142676   4.368   0.809   7.430
 7039TIP3    H242677   4.453   0.845   7.310
 7040TIP3   OH242678   4.427   3.363   7.552
 7040TIP3    H142679   4.506   3.374   7.606
 7040TIP3    H242680   4.368   3.433   7.581
 7041TIP3   OH242681   5.023   5.504   8.285
 7041TIP3    H142682   5.090   5.564   8.314
 7041TIP3    H242683   4.956   5.506   8.354
 7042TIP3   OH242684   3.077   0.935   1.635
 7042TIP3    H142685   3.093   1.030   1.640
 7042TIP3    H242686   2.983   0.926   1.647
 7043TIP3   OH242687   5.165   0.855   1.687
 7043TIP3    H142688   5.259   0.857   1.673
 7043TIP3    H242689   5.147   0.767   1.722
 7044TIP3   OH242690   1.165   4.474   8.538
 7044TIP3    H142691   1.108   4.413   8.492
 7044TIP3    H242692   1.230   4.419   8.582
 7045TIP3   OH242693   1.335   6.567   7.623
 7045TIP3    H142694   1.313   6.657   7.647
 7045TIP3    H242695   1.297   6.556   7.536
 7046TIP3   OH242696   3.925   4.326   7.611
 7046TIP3    H142697   3.846   4.311   7.558
 7046TIP3    H242698   3.895   4.322   7.701
 7047TIP3   OH242699   0.293   5.221   0.408
 7047TIP3    H142700   0.346   5.190   0.335
 7047TIP3    H242701   0.213   5.254   0.367
 7048TIP3   OH242702   2.812   1.997   0.866
 7048TIP3    H142703   2.735   1.971   0.815
 7048TIP3    H242704   2.871   2.038   0.802
 7049TIP3   OH242705   6.633   1.779   7.063
 7049TIP3    H142706   6.555   1.785   7.008
 7049TIP3    H242707   6.634   1.687   7.092
 7050TIP3   OH242708   2.882   2.752   7.679
 7050TIP3    H142709   2.812   2.713   7.730
 7050TIP3    H242710   2.838   2.812   7.619
 7051TIP3   OH242711   0.364   4.176   1.338
 7051TIP3    H142712   0.372   4.270   1.320
 7051TIP3    H242713   0.331   4.172   1.428
 7052TIP3   OH242714   0.407   6.000   0.050
 7052TIP3    H142715   0.344   6.050   0.101
 7052TIP3    H242716   0.373   6.004   8.574
 7053TIP3   OH242717   2.905   0.367   0.905
 7053TIP3    H142718   2.839   0.418   0.857
 7053TIP3    H242719   2.863   0.349   0.990
 7054TIP3   OH242720   3.545   4.912   1.335
 7054TIP3    H142721   3.489   4.944   1.264
 7054TIP3    H242722   3.497   4.935   1.415
 7055TIP3   OH242723   2.247   4.548   0.729
 7055TIP3    H142724   2.219   4.623   0.677
 7055TIP3    H242725   2.250   4.475   0.668
 7056TIP3   OH242726   4.588   5.203   0.958
 7056TIP3    H142727   4.625   5.174   0.875
 7056TIP3    H242728   4.546   5.125   0.994
 7057TIP3   OH242729   1.630   3.905   7.087
 7057TIP3    H142730   1.556   3.955   7.053
 7057TIP3    H242731   1.591   3.823   7.117
 7058TIP3   OH242732   4.323   3.059   7.825
 7058TIP3    H142733   4.396   3.121   7.821
 7058TIP3    H242734   4.322   3.017   7.739
 7059TIP3   OH242735   0.428   6.012   0.563
 7059TIP3    H142736   0.373   6.087   0.541
 7059TIP3    H242737   0.413   5.949   0.492
 7060TIP3   OH242738   4.428   0.906   6.675
 7060TIP3    H142739   4.495   0.842   6.653
 7060TIP3    H242740   4.437   0.975   6.609
 7061TIP3   OH242741   3.220   6.257   7.463
 7061TIP3    H142742   3.179   6.191   7.519
 7061TIP3    H242743   3.313   6.236   7.465
 7062TIP3   OH242744   3.455   6.503   6.745
 7062TIP3    H142745   3.370   6.493   6.787
 7062TIP3    H242746   3.497   6.575   6.791
 7063TIP3   OH242747   4.629   0.873   1.623
 7063TIP3    H142748   4.576   0.895   1.700
 7063TIP3    H242749   4.703   0.823   1.658
 7064TIP3   OH242750   0.948   2.492   0.703
 7064TIP3    H142751   1.016   2.425   0.707
 7064TIP3    H242752   0.990   2.567   0.661
 7065TIP3   OH242753   4.188   5.689   7.587
 7065TIP3    H142754   4.185   5.773   7.540
 7065TIP3    H242755   4.242   5.707   7.664
 7066TIP3   OH242756   3.032   5.836   0.454
 7066TIP3    H142757   2.979   5.778   0.509
 7066TIP3    H242758   3.120   5.831   0.492
 7067TIP3   OH242759   2.663   0.140   1.746
 7067TIP3    H142760   2.732   0.089   1.703
 7067TIP3    H242761   2.590   0.139   1.685
 7068TIP3   OH242762   2.123   5.154   1.095
 7068TIP3    H142763   2.097   5.150   1.003
 7068TIP3    H242764   2.046   5.125   1.143
 7069TIP3   OH242765   0.913   3.287   1.106
 7069TIP3    H142766   0.978   3.348   1.140
 7069TIP3    H242767   0.860   3.339   1.046
 7070TIP3   OH242768   5.874   0.131   7.563
 7070TIP3    H142769   5.890   0.045   7.526
 7070TIP3    H242770   5.917   0.130   7.648
 7071TIP3   OH242771   1.422   2.922   8.038
 7071TIP3    H142772   1.370   2.843   8.051
 7071TIP3    H242773   1.446   2.950   8.126
 7072LIG      O42774   3.961   4.715   7.327
 7072LIG     C142775   3.834   4.747   7.393
 7072LIG     C242776   3.749   4.624   7.409
 7072LIG     C342777   3.875   4.813   7.527
 7072LIG     H142778   3.781   4.822   7.330
 7072LIG     H242779   3.654   4.647   7.463
 7072LIG     H342780   3.809   4.547   7.462
 7072LIG     H442781   3.715   4.585   7.310
 7072LIG     H542782   3.925   4.906   7.493
 7072LIG     H642783   3.940   4.742   7.582
 7072LIG     H742784   3.779   4.845   7.574
 7072LIG     H842785   3.964   4.769   7.247
   6.88700   6.88700   8.61384
