Title t= 6300.00000 step= 3150000
42785
    1SAPS     N    1   4.480   3.245   6.806
    1SAPS   HN1    2   4.427   3.334   6.819
    1SAPS   HN2    3   4.440   3.166   6.860
    1SAPS   HN3    4   4.576   3.258   6.845
    1SAPS   C12    5   4.484   3.200   6.663
    1SAPS  H12A    6   4.532   3.280   6.608
    1SAPS   C13    7   4.558   3.066   6.645
    1SAPS  O13A    8   4.621   3.024   6.747
    1SAPS  O13B    9   4.586   3.027   6.531
    1SAPS   C11   10   4.343   3.198   6.593
    1SAPS  H11A   11   4.272   3.189   6.677
    1SAPS  H11B   12   4.335   3.118   6.515
    1SAPS     P   13   4.187   3.374   6.485
    1SAPS   O13   14   4.133   3.271   6.390
    1SAPS   O14   15   4.109   3.406   6.605
    1SAPS   O12   16   4.329   3.318   6.531
    1SAPS   O11   17   4.235   3.496   6.407
    1SAPS    C1   18   4.350   3.486   6.316
    1SAPS    HA   19   4.433   3.535   6.371
    1SAPS    HB   20   4.386   3.385   6.286
    1SAPS    C2   21   4.330   3.554   6.175
    1SAPS    HS   22   4.426   3.548   6.118
    1SAPS   O21   23   4.292   3.695   6.194
    1SAPS   C21   24   4.400   3.778   6.217
    1SAPS   O22   25   4.516   3.738   6.210
    1SAPS   C22   26   4.354   3.926   6.214
    1SAPS   H2R   27   4.253   3.915   6.170
    1SAPS   H2S   28   4.339   3.956   6.320
    1SAPS    C3   29   4.218   3.480   6.101
    1SAPS    HX   30   4.128   3.504   6.162
    1SAPS    HY   31   4.241   3.372   6.112
    1SAPS   O31   32   4.211   3.527   5.967
    1SAPS   C31   33   4.124   3.615   5.937
    1SAPS   O32   34   4.035   3.668   6.009
    1SAPS   C32   35   4.145   3.645   5.794
    1SAPS   H2X   36   4.108   3.556   5.738
    1SAPS   H2Y   37   4.252   3.647   5.767
    1SAPS   C23   38   4.455   4.029   6.156
    1SAPS   H3R   39   4.563   4.005   6.169
    1SAPS   H3S   40   4.453   4.124   6.213
    1SAPS   C24   41   4.431   4.061   6.001
    1SAPS   H4R   42   4.330   4.107   5.993
    1SAPS   H4S   43   4.439   3.962   5.951
    1SAPS   C25   44   4.527   4.165   5.947
    1SAPS   H5R   45   4.512   4.262   5.998
    1SAPS   C26   46   4.608   4.167   5.839
    1SAPS   H6R   47   4.675   4.251   5.819
    1SAPS   C27   48   4.608   4.053   5.736
    1SAPS   H7R   49   4.535   4.090   5.661
    1SAPS   H7S   50   4.556   3.964   5.776
    1SAPS   C28   51   4.747   4.032   5.675
    1SAPS   H8R   52   4.834   4.091   5.706
    1SAPS   C29   53   4.757   3.984   5.553
    1SAPS   H9R   54   4.855   3.990   5.504
    1SAPS  C210   55   4.647   3.922   5.462
    1SAPS  H10R   56   4.550   3.929   5.515
    1SAPS  H10S   57   4.664   3.813   5.455
    1SAPS  C211   58   4.625   3.977   5.323
    1SAPS  H11R   59   4.594   3.902   5.247
    1SAPS  C212   60   4.637   4.106   5.284
    1SAPS  H12R   61   4.637   4.127   5.176
    1SAPS  C213   62   4.670   4.232   5.359
    1SAPS  H13R   63   4.778   4.242   5.382
    1SAPS  H13S   64   4.612   4.233   5.454
    1SAPS  C214   65   4.628   4.355   5.278
    1SAPS  H14R   66   4.543   4.415   5.312
    1SAPS  C215   67   4.693   4.418   5.182
    1SAPS  H15R   68   4.654   4.507   5.131
    1SAPS  C216   69   4.827   4.378   5.120
    1SAPS  H16R   70   4.836   4.268   5.120
    1SAPS  H16S   71   4.918   4.418   5.170
    1SAPS  C217   72   4.833   4.430   4.973
    1SAPS  H17R   73   4.802   4.536   4.964
    1SAPS  H17S   74   4.769   4.367   4.908
    1SAPS  C218   75   4.973   4.426   4.912
    1SAPS  H18R   76   5.017   4.324   4.919
    1SAPS  H18S   77   5.032   4.499   4.971
    1SAPS  C219   78   4.971   4.473   4.764
    1SAPS  H19R   79   4.932   4.577   4.760
    1SAPS  H19S   80   4.908   4.406   4.703
    1SAPS  C220   81   5.107   4.458   4.698
    1SAPS  H20R   82   5.109   4.506   4.598
    1SAPS  H20S   83   5.132   4.354   4.668
    1SAPS  H20T   84   5.187   4.505   4.759
    1SAPS   C33   85   4.056   3.762   5.745
    1SAPS   H3X   86   4.083   3.853   5.804
    1SAPS   H3Y   87   3.945   3.752   5.748
    1SAPS   C34   88   4.089   3.792   5.598
    1SAPS   H4X   89   4.193   3.774   5.564
    1SAPS   H4Y   90   4.074   3.902   5.596
    1SAPS   C35   91   3.985   3.736   5.505
    1SAPS   H5X   92   3.890   3.792   5.517
    1SAPS   H5Y   93   3.957   3.637   5.545
    1SAPS   C36   94   4.008   3.734   5.348
    1SAPS   H6X   95   3.907   3.708   5.309
    1SAPS   H6Y   96   4.079   3.652   5.323
    1SAPS   C37   97   4.058   3.867   5.290
    1SAPS   H7X   98   4.161   3.891   5.323
    1SAPS   H7Y   99   4.001   3.950   5.336
    1SAPS   C38  100   4.061   3.867   5.139
    1SAPS   H8X  101   3.957   3.876   5.102
    1SAPS   H8Y  102   4.108   3.773   5.104
    1SAPS   C39  103   4.131   3.995   5.087
    1SAPS   H9X  104   4.225   3.994   5.145
    1SAPS   H9Y  105   4.075   4.086   5.118
    1SAPS  C310  106   4.138   4.005   4.932
    1SAPS  H10X  107   4.051   4.050   4.878
    1SAPS  H10Y  108   4.150   3.899   4.900
    1SAPS  C311  109   4.265   4.078   4.884
    1SAPS  H11X  110   4.353   4.035   4.936
    1SAPS  H11Y  111   4.255   4.182   4.921
    1SAPS  C312  112   4.295   4.078   4.735
    1SAPS  H12X  113   4.208   4.125   4.687
    1SAPS  H12Y  114   4.282   3.975   4.695
    1SAPS  C313  115   4.432   4.130   4.705
    1SAPS  H13X  116   4.453   4.112   4.598
    1SAPS  H13Y  117   4.505   4.071   4.765
    1SAPS  C314  118   4.432   4.286   4.727
    1SAPS  H14X  119   4.405   4.307   4.833
    1SAPS  H14Y  120   4.343   4.319   4.669
    1SAPS  C315  121   4.544   4.365   4.667
    1SAPS  H15X  122   4.556   4.351   4.558
    1SAPS  H15Y  123   4.636   4.317   4.707
    1SAPS  C316  124   4.534   4.518   4.698
    1SAPS  H16X  125   4.531   4.548   4.805
    1SAPS  H16Y  126   4.437   4.551   4.655
    1SAPS  C317  127   4.640   4.604   4.618
    1SAPS  H17X  128   4.654   4.572   4.513
    1SAPS  H17Y  129   4.736   4.598   4.673
    1SAPS  C318  130   4.616   4.758   4.624
    1SAPS  H18X  131   4.704   4.798   4.570
    1SAPS  H18Y  132   4.623   4.792   4.730
    1SAPS  H18Z  133   4.526   4.795   4.570
    2SAPS     N  134   4.323   6.124   7.136
    2SAPS   HN1  135   4.368   6.174   7.215
    2SAPS   HN2  136   4.229   6.097   7.172
    2SAPS   HN3  137   4.373   6.042   7.096
    2SAPS   C12  138   4.319   6.216   7.017
    2SAPS  H12A  139   4.277   6.157   6.937
    2SAPS   C13  140   4.209   6.329   7.035
    2SAPS  O13A  141   4.150   6.328   7.147
    2SAPS  O13B  142   4.189   6.417   6.951
    2SAPS   C11  143   4.456   6.272   6.985
    2SAPS  H11A  144   4.492   6.335   7.070
    2SAPS  H11B  145   4.449   6.341   6.898
    2SAPS     P  146   4.652   6.144   6.859
    2SAPS   O13  147   4.748   6.253   6.882
    2SAPS   O14  148   4.709   6.008   6.868
    2SAPS   O12  149   4.546   6.163   6.972
    2SAPS   O11  150   4.581   6.172   6.725
    2SAPS    C1  151   4.461   6.105   6.683
    2SAPS    HA  152   4.419   6.051   6.770
    2SAPS    HB  153   4.386   6.175   6.639
    2SAPS    C2  154   4.488   6.007   6.572
    2SAPS    HS  155   4.546   5.917   6.603
    2SAPS   O21  156   4.547   6.073   6.460
    2SAPS   C21  157   4.675   6.073   6.443
    2SAPS   O22  158   4.757   6.038   6.525
    2SAPS   C22  159   4.713   6.139   6.307
    2SAPS   H2R  160   4.696   6.247   6.328
    2SAPS   H2S  161   4.822   6.120   6.294
    2SAPS    C3  162   4.355   5.943   6.528
    2SAPS    HX  163   4.298   5.904   6.615
    2SAPS    HY  164   4.376   5.855   6.463
    2SAPS   O31  165   4.267   6.037   6.462
    2SAPS   C31  166   4.162   5.974   6.403
    2SAPS   O32  167   4.134   5.856   6.424
    2SAPS   C32  168   4.094   6.074   6.306
    2SAPS   H2X  169   4.051   6.155   6.369
    2SAPS   H2Y  170   4.015   6.014   6.257
    2SAPS   C23  171   4.636   6.086   6.185
    2SAPS   H3R  172   4.670   6.131   6.089
    2SAPS   H3S  173   4.537   6.136   6.192
    2SAPS   C24  174   4.619   5.934   6.170
    2SAPS   H4R  175   4.567   5.926   6.072
    2SAPS   H4S  176   4.542   5.895   6.239
    2SAPS   C25  177   4.743   5.848   6.197
    2SAPS   H5R  178   4.828   5.857   6.129
    2SAPS   C26  179   4.759   5.759   6.298
    2SAPS   H6R  180   4.850   5.697   6.299
    2SAPS   C27  181   4.667   5.729   6.410
    2SAPS   H7R  182   4.586   5.805   6.415
    2SAPS   H7S  183   4.727   5.750   6.501
    2SAPS   C28  184   4.615   5.587   6.401
    2SAPS   H8R  185   4.673   5.514   6.460
    2SAPS   C29  186   4.499   5.547   6.351
    2SAPS   H9R  187   4.474   5.441   6.365
    2SAPS  C210  188   4.384   5.636   6.290
    2SAPS  H10R  189   4.433   5.723   6.241
    2SAPS  H10S  190   4.318   5.666   6.375
    2SAPS  C211  191   4.305   5.561   6.189
    2SAPS  H11R  192   4.249   5.480   6.238
    2SAPS  C212  193   4.296   5.573   6.058
    2SAPS  H12R  194   4.246   5.492   6.004
    2SAPS  C213  195   4.374   5.665   5.974
    2SAPS  H13R  196   4.456   5.600   5.936
    2SAPS  H13S  197   4.428   5.749   6.022
    2SAPS  C214  198   4.297   5.714   5.855
    2SAPS  H14R  199   4.191   5.725   5.881
    2SAPS  C215  200   4.339   5.729   5.727
    2SAPS  H15R  201   4.264   5.751   5.650
    2SAPS  C216  202   4.477   5.707   5.670
    2SAPS  H16R  203   4.471   5.652   5.574
    2SAPS  H16S  204   4.533   5.638   5.737
    2SAPS  C217  205   4.557   5.836   5.661
    2SAPS  H17R  206   4.582   5.868   5.764
    2SAPS  H17S  207   4.488   5.916   5.625
    2SAPS  C218  208   4.691   5.817   5.591
    2SAPS  H18R  209   4.671   5.756   5.499
    2SAPS  H18S  210   4.759   5.757   5.654
    2SAPS  C219  211   4.757   5.956   5.558
    2SAPS  H19R  212   4.793   6.002   5.653
    2SAPS  H19S  213   4.682   6.020   5.507
    2SAPS  C220  214   4.865   5.938   5.457
    2SAPS  H20R  215   4.822   5.888   5.368
    2SAPS  H20S  216   4.945   5.866   5.485
    2SAPS  H20T  217   4.922   6.033   5.445
    2SAPS   C33  218   4.183   6.123   6.190
    2SAPS   H3X  219   4.278   6.066   6.191
    2SAPS   H3Y  220   4.203   6.230   6.212
    2SAPS   C34  221   4.108   6.118   6.055
    2SAPS   H4X  222   4.068   6.220   6.033
    2SAPS   H4Y  223   4.024   6.045   6.046
    2SAPS   C35  224   4.202   6.097   5.937
    2SAPS   H5X  225   4.242   5.994   5.943
    2SAPS   H5Y  226   4.292   6.160   5.954
    2SAPS   C36  227   4.153   6.127   5.794
    2SAPS   H6X  228   4.118   6.231   5.773
    2SAPS   H6Y  229   4.065   6.064   5.769
    2SAPS   C37  230   4.262   6.119   5.688
    2SAPS   H7X  231   4.296   6.016   5.712
    2SAPS   H7Y  232   4.341   6.194   5.708
    2SAPS   C38  233   4.224   6.139   5.543
    2SAPS   H8X  234   4.178   6.238   5.521
    2SAPS   H8Y  235   4.143   6.070   5.509
    2SAPS   C39  236   4.338   6.107   5.442
    2SAPS   H9X  237   4.373   6.002   5.441
    2SAPS   H9Y  238   4.428   6.168   5.467
    2SAPS  C310  239   4.300   6.148   5.301
    2SAPS  H10X  240   4.264   6.253   5.296
    2SAPS  H10Y  241   4.217   6.080   5.271
    2SAPS  C311  242   4.416   6.135   5.195
    2SAPS  H11X  243   4.462   6.036   5.209
    2SAPS  H11Y  244   4.485   6.215   5.230
    2SAPS  C312  245   4.378   6.148   5.046
    2SAPS  H12X  246   4.307   6.233   5.037
    2SAPS  H12Y  247   4.319   6.062   5.006
    2SAPS  C313  248   4.493   6.188   4.951
    2SAPS  H13X  249   4.567   6.108   4.975
    2SAPS  H13Y  250   4.519   6.288   4.992
    2SAPS  C314  251   4.454   6.195   4.798
    2SAPS  H14X  252   4.397   6.104   4.771
    2SAPS  H14Y  253   4.547   6.198   4.737
    2SAPS  C315  254   4.374   6.315   4.748
    2SAPS  H15X  255   4.421   6.413   4.771
    2SAPS  H15Y  256   4.275   6.312   4.799
    2SAPS  C316  257   4.352   6.294   4.603
    2SAPS  H16X  258   4.316   6.190   4.592
    2SAPS  H16Y  259   4.442   6.306   4.539
    2SAPS  C317  260   4.235   6.384   4.543
    2SAPS  H17X  261   4.268   6.489   4.534
    2SAPS  H17Y  262   4.139   6.380   4.599
    2SAPS  C318  263   4.198   6.336   4.407
    2SAPS  H18X  264   4.151   6.236   4.402
    2SAPS  H18Y  265   4.291   6.330   4.346
    2SAPS  H18Z  266   4.128   6.404   4.354
    3SAPS     N  267   4.569   3.696   6.672
    3SAPS   HN1  268   4.612   3.638   6.597
    3SAPS   HN2  269   4.641   3.758   6.714
    3SAPS   HN3  270   4.512   3.649   6.745
    3SAPS   C12  271   4.465   3.785   6.611
    3SAPS  H12A  272   4.390   3.731   6.555
    3SAPS   C13  273   4.381   3.863   6.710
    3SAPS  O13A  274   4.421   3.856   6.830
    3SAPS  O13B  275   4.275   3.924   6.685
    3SAPS   C11  276   4.540   3.887   6.527
    3SAPS  H11A  277   4.461   3.938   6.467
    3SAPS  H11B  278   4.613   3.848   6.453
    3SAPS     P  279   4.736   4.012   6.670
    3SAPS   O13  280   4.722   4.126   6.758
    3SAPS   O14  281   4.772   3.882   6.739
    3SAPS   O12  282   4.598   3.999   6.594
    3SAPS   O11  283   4.845   4.036   6.562
    3SAPS    C1  284   4.938   4.146   6.585
    3SAPS    HA  285   4.967   4.168   6.690
    3SAPS    HB  286   5.031   4.117   6.534
    3SAPS    C2  287   4.895   4.286   6.520
    3SAPS    HS  288   4.811   4.322   6.583
    3SAPS   O21  289   4.855   4.264   6.380
    3SAPS   C21  290   4.773   4.359   6.336
    3SAPS   O22  291   4.716   4.443   6.405
    3SAPS   C22  292   4.759   4.339   6.193
    3SAPS   H2R  293   4.801   4.242   6.161
    3SAPS   H2S  294   4.651   4.333   6.170
    3SAPS    C3  295   5.013   4.387   6.534
    3SAPS    HX  296   5.095   4.326   6.492
    3SAPS    HY  297   5.043   4.408   6.639
    3SAPS   O31  298   4.997   4.504   6.446
    3SAPS   C31  299   5.000   4.619   6.510
    3SAPS   O32  300   5.026   4.626   6.628
    3SAPS   C32  301   4.968   4.741   6.419
    3SAPS   H2X  302   4.997   4.699   6.321
    3SAPS   H2Y  303   5.028   4.830   6.449
    3SAPS   C23  304   4.814   4.446   6.097
    3SAPS   H3R  305   4.791   4.542   6.149
    3SAPS   H3S  306   4.756   4.439   6.003
    3SAPS   C24  307   4.964   4.432   6.074
    3SAPS   H4R  308   4.989   4.331   6.036
    3SAPS   H4S  309   5.020   4.443   6.170
    3SAPS   C25  310   5.015   4.535   5.982
    3SAPS   H5R  311   5.061   4.623   6.030
    3SAPS   C26  312   4.988   4.547   5.850
    3SAPS   H6R  313   5.008   4.638   5.791
    3SAPS   C27  314   4.910   4.444   5.768
    3SAPS   H7R  315   4.802   4.455   5.789
    3SAPS   H7S  316   4.930   4.338   5.796
    3SAPS   C28  317   4.940   4.462   5.622
    3SAPS   H8R  318   4.876   4.539   5.576
    3SAPS   C29  319   5.005   4.375   5.540
    3SAPS   H9R  320   5.010   4.389   5.431
    3SAPS  C210  321   5.066   4.242   5.573
    3SAPS  H10R  322   4.994   4.164   5.540
    3SAPS  H10S  323   5.084   4.229   5.682
    3SAPS  C211  324   5.204   4.234   5.508
    3SAPS  H11R  325   5.289   4.252   5.575
    3SAPS  C212  326   5.233   4.215   5.381
    3SAPS  H12R  327   5.335   4.235   5.342
    3SAPS  C213  328   5.127   4.186   5.271
    3SAPS  H13R  329   5.058   4.273   5.271
    3SAPS  H13S  330   5.068   4.096   5.299
    3SAPS  C214  331   5.188   4.185   5.129
    3SAPS  H14R  332   5.268   4.259   5.113
    3SAPS  C215  333   5.180   4.084   5.038
    3SAPS  H15R  334   5.211   4.111   4.935
    3SAPS  C216  335   5.128   3.945   5.052
    3SAPS  H16R  336   5.049   3.923   4.977
    3SAPS  H16S  337   5.082   3.925   5.151
    3SAPS  C217  338   5.234   3.831   5.035
    3SAPS  H17R  339   5.179   3.736   5.049
    3SAPS  H17S  340   5.319   3.840   5.107
    3SAPS  C218  341   5.284   3.803   4.892
    3SAPS  H18R  342   5.359   3.721   4.891
    3SAPS  H18S  343   5.324   3.903   4.863
    3SAPS  C219  344   5.172   3.761   4.802
    3SAPS  H19R  345   5.133   3.664   4.838
    3SAPS  H19S  346   5.083   3.828   4.812
    3SAPS  C220  347   5.215   3.755   4.656
    3SAPS  H20R  348   5.231   3.859   4.620
    3SAPS  H20S  349   5.141   3.714   4.584
    3SAPS  H20T  350   5.301   3.685   4.644
    3SAPS   C33  351   4.820   4.793   6.414
    3SAPS   H3X  352   4.816   4.889   6.469
    3SAPS   H3Y  353   4.745   4.724   6.457
    3SAPS   C34  354   4.774   4.820   6.274
    3SAPS   H4X  355   4.679   4.875   6.290
    3SAPS   H4Y  356   4.738   4.733   6.214
    3SAPS   C35  357   4.863   4.918   6.193
    3SAPS   H5X  358   4.886   5.002   6.262
    3SAPS   H5Y  359   4.961   4.877   6.161
    3SAPS   C36  360   4.805   4.963   6.066
    3SAPS   H6X  361   4.838   5.066   6.038
    3SAPS   H6Y  362   4.695   4.969   6.071
    3SAPS   C37  363   4.835   4.872   5.937
    3SAPS   H7X  364   4.805   4.775   5.983
    3SAPS   H7Y  365   4.945   4.867   5.925
    3SAPS   C38  366   4.764   4.912   5.812
    3SAPS   H8X  367   4.811   5.007   5.779
    3SAPS   H8Y  368   4.657   4.939   5.824
    3SAPS   C39  369   4.773   4.814   5.697
    3SAPS   H9X  370   4.681   4.753   5.684
    3SAPS   H9Y  371   4.863   4.751   5.711
    3SAPS  C310  372   4.798   4.885   5.568
    3SAPS  H10X  373   4.897   4.935   5.561
    3SAPS  H10Y  374   4.732   4.973   5.554
    3SAPS  C311  375   4.784   4.782   5.452
    3SAPS  H11X  376   4.676   4.756   5.441
    3SAPS  H11Y  377   4.850   4.694   5.466
    3SAPS  C312  378   4.825   4.840   5.319
    3SAPS  H12X  379   4.933   4.862   5.327
    3SAPS  H12Y  380   4.776   4.939   5.312
    3SAPS  C313  381   4.803   4.752   5.193
    3SAPS  H13X  382   4.697   4.722   5.176
    3SAPS  H13Y  383   4.861   4.659   5.207
    3SAPS  C314  384   4.846   4.821   5.058
    3SAPS  H14X  385   4.803   4.923   5.067
    3SAPS  H14Y  386   4.815   4.754   4.975
    3SAPS  C315  387   4.996   4.837   5.045
    3SAPS  H15X  388   5.055   4.744   5.040
    3SAPS  H15Y  389   5.032   4.899   5.130
    3SAPS  C316  390   5.044   4.932   4.927
    3SAPS  H16X  391   5.145   4.964   4.961
    3SAPS  H16Y  392   4.980   5.022   4.925
    3SAPS  C317  393   5.055   4.855   4.797
    3SAPS  H17X  394   4.958   4.816   4.759
    3SAPS  H17Y  395   5.123   4.770   4.816
    3SAPS  C318  396   5.098   4.948   4.682
    3SAPS  H18X  397   5.186   5.010   4.708
    3SAPS  H18Y  398   5.010   5.015   4.673
    3SAPS  H18Z  399   5.114   4.887   4.590
    4SAPS     N  400   1.793   2.272   6.737
    4SAPS   HN1  401   1.796   2.189   6.674
    4SAPS   HN2  402   1.785   2.362   6.685
    4SAPS   HN3  403   1.890   2.276   6.775
    4SAPS   C12  404   1.706   2.268   6.857
    4SAPS  H12A  405   1.708   2.172   6.907
    4SAPS   C13  406   1.735   2.373   6.971
    4SAPS  O13A  407   1.834   2.451   6.947
    4SAPS  O13B  408   1.649   2.389   7.060
    4SAPS   C11  409   1.556   2.288   6.796
    4SAPS  H11A  410   1.556   2.390   6.751
    4SAPS  H11B  411   1.479   2.296   6.875
    4SAPS     P  412   1.420   2.217   6.580
    4SAPS   O13  413   1.400   2.081   6.524
    4SAPS   O14  414   1.302   2.287   6.637
    4SAPS   O12  415   1.522   2.189   6.697
    4SAPS   O11  416   1.512   2.304   6.484
    4SAPS    C1  417   1.615   2.239   6.403
    4SAPS    HA  418   1.708   2.291   6.434
    4SAPS    HB  419   1.631   2.133   6.432
    4SAPS    C2  420   1.601   2.262   6.252
    4SAPS    HS  421   1.663   2.189   6.195
    4SAPS   O21  422   1.635   2.396   6.207
    4SAPS   C21  423   1.759   2.416   6.165
    4SAPS   O22  424   1.846   2.331   6.155
    4SAPS   C22  425   1.780   2.563   6.127
    4SAPS   H2R  426   1.683   2.599   6.087
    4SAPS   H2S  427   1.802   2.624   6.217
    4SAPS    C3  428   1.458   2.240   6.213
    4SAPS    HX  429   1.398   2.319   6.262
    4SAPS    HY  430   1.432   2.150   6.274
    4SAPS   O31  431   1.438   2.218   6.074
    4SAPS   C31  432   1.387   2.324   6.007
    4SAPS   O32  433   1.353   2.425   6.061
    4SAPS   C32  434   1.395   2.286   5.860
    4SAPS   H2X  435   1.307   2.226   5.831
    4SAPS   H2Y  436   1.480   2.219   5.836
    4SAPS   C23  437   1.903   2.575   6.027
    4SAPS   H3R  438   1.886   2.525   5.929
    4SAPS   H3S  439   1.993   2.535   6.078
    4SAPS   C24  440   1.935   2.722   5.987
    4SAPS   H4R  441   1.972   2.765   6.082
    4SAPS   H4S  442   1.849   2.779   5.945
    4SAPS   C25  443   2.046   2.725   5.883
    4SAPS   H5R  444   2.142   2.698   5.929
    4SAPS   C26  445   2.028   2.715   5.746
    4SAPS   H6R  446   2.115   2.725   5.679
    4SAPS   C27  447   1.898   2.743   5.682
    4SAPS   H7R  448   1.872   2.851   5.677
    4SAPS   H7S  449   1.815   2.686   5.729
    4SAPS   C28  450   1.902   2.696   5.539
    4SAPS   H8R  451   1.892   2.587   5.530
    4SAPS   C29  452   1.883   2.772   5.430
    4SAPS   H9R  453   1.892   2.715   5.336
    4SAPS  C210  454   1.879   2.927   5.424
    4SAPS  H10R  455   1.911   2.964   5.324
    4SAPS  H10S  456   1.950   2.962   5.503
    4SAPS  C211  457   1.743   2.978   5.448
    4SAPS  H11R  458   1.700   2.947   5.544
    4SAPS  C212  459   1.671   3.064   5.375
    4SAPS  H12R  460   1.572   3.093   5.414
    4SAPS  C213  461   1.706   3.110   5.231
    4SAPS  H13R  462   1.808   3.154   5.238
    4SAPS  H13S  463   1.640   3.196   5.209
    4SAPS  C214  464   1.711   3.008   5.121
    4SAPS  H14R  465   1.696   2.905   5.158
    4SAPS  C215  466   1.750   3.023   4.996
    4SAPS  H15R  467   1.741   2.931   4.936
    4SAPS  C216  468   1.779   3.161   4.939
    4SAPS  H16R  469   1.887   3.176   4.920
    4SAPS  H16S  470   1.758   3.237   5.018
    4SAPS  C217  471   1.714   3.208   4.808
    4SAPS  H17R  472   1.766   3.304   4.784
    4SAPS  H17S  473   1.606   3.222   4.826
    4SAPS  C218  474   1.748   3.121   4.694
    4SAPS  H18R  475   1.681   3.032   4.700
    4SAPS  H18S  476   1.853   3.087   4.712
    4SAPS  C219  477   1.727   3.174   4.548
    4SAPS  H19R  478   1.786   3.268   4.544
    4SAPS  H19S  479   1.622   3.199   4.522
    4SAPS  C220  480   1.777   3.084   4.433
    4SAPS  H20R  481   1.732   2.984   4.452
    4SAPS  H20S  482   1.888   3.073   4.428
    4SAPS  H20T  483   1.756   3.118   4.329
    4SAPS   C33  484   1.411   2.412   5.767
    4SAPS   H3X  485   1.361   2.501   5.813
    4SAPS   H3Y  486   1.363   2.393   5.669
    4SAPS   C34  487   1.552   2.458   5.752
    4SAPS   H4X  488   1.584   2.463   5.858
    4SAPS   H4Y  489   1.567   2.556   5.703
    4SAPS   C35  490   1.654   2.355   5.694
    4SAPS   H5X  491   1.670   2.265   5.757
    4SAPS   H5Y  492   1.756   2.399   5.705
    4SAPS   C36  493   1.621   2.303   5.554
    4SAPS   H6X  494   1.524   2.256   5.528
    4SAPS   H6Y  495   1.697   2.224   5.534
    4SAPS   C37  496   1.659   2.406   5.443
    4SAPS   H7X  497   1.769   2.418   5.453
    4SAPS   H7Y  498   1.597   2.496   5.463
    4SAPS   C38  499   1.629   2.366   5.296
    4SAPS   H8X  500   1.523   2.392   5.274
    4SAPS   H8Y  501   1.652   2.258   5.281
    4SAPS   C39  502   1.715   2.446   5.198
    4SAPS   H9X  503   1.819   2.408   5.190
    4SAPS   H9Y  504   1.711   2.554   5.224
    4SAPS  C310  505   1.665   2.436   5.051
    4SAPS  H10X  506   1.557   2.458   5.065
    4SAPS  H10Y  507   1.663   2.331   5.016
    4SAPS  C311  508   1.729   2.544   4.962
    4SAPS  H11X  509   1.838   2.532   4.980
    4SAPS  H11Y  510   1.704   2.647   4.996
    4SAPS  C312  511   1.694   2.531   4.817
    4SAPS  H12X  512   1.710   2.632   4.772
    4SAPS  H12Y  513   1.584   2.523   4.810
    4SAPS  C313  514   1.767   2.417   4.741
    4SAPS  H13X  515   1.715   2.319   4.750
    4SAPS  H13Y  516   1.868   2.412   4.787
    4SAPS  C314  517   1.779   2.448   4.589
    4SAPS  H14X  518   1.851   2.531   4.571
    4SAPS  H14Y  519   1.680   2.469   4.545
    4SAPS  C315  520   1.846   2.329   4.525
    4SAPS  H15X  521   1.780   2.241   4.530
    4SAPS  H15Y  522   1.942   2.290   4.566
    4SAPS  C316  523   1.884   2.356   4.380
    4SAPS  H16X  524   1.928   2.263   4.340
    4SAPS  H16Y  525   1.976   2.419   4.379
    4SAPS  C317  526   1.780   2.409   4.284
    4SAPS  H17X  527   1.827   2.443   4.189
    4SAPS  H17Y  528   1.722   2.494   4.326
    4SAPS  C318  529   1.682   2.300   4.230
    4SAPS  H18X  530   1.746   2.238   4.164
    4SAPS  H18Y  531   1.588   2.337   4.184
    4SAPS  H18Z  532   1.651   2.239   4.318
    5SAPS     N  533   5.468   4.965   7.228
    5SAPS   HN1  534   5.411   4.977   7.314
    5SAPS   HN2  535   5.569   4.982   7.249
    5SAPS   HN3  536   5.444   5.039   7.159
    5SAPS   C12  537   5.445   4.840   7.151
    5SAPS  H12A  538   5.438   4.759   7.222
    5SAPS   C13  539   5.310   4.841   7.078
    5SAPS  O13A  540   5.239   4.942   7.082
    5SAPS  O13B  541   5.285   4.741   7.011
    5SAPS   C11  542   5.553   4.798   7.044
    5SAPS  H11A  543   5.554   4.879   6.969
    5SAPS  H11B  544   5.505   4.716   6.986
    5SAPS     P  545   5.735   4.661   7.176
    5SAPS   O13  546   5.887   4.647   7.171
    5SAPS   O14  547   5.674   4.653   7.305
    5SAPS   O12  548   5.682   4.789   7.101
    5SAPS   O11  549   5.667   4.553   7.077
    5SAPS    C1  550   5.727   4.438   7.023
    5SAPS    HA  551   5.837   4.451   7.039
    5SAPS    HB  552   5.675   4.349   7.064
    5SAPS    C2  553   5.723   4.419   6.865
    5SAPS    HS  554   5.793   4.496   6.826
    5SAPS   O21  555   5.593   4.444   6.820
    5SAPS   C21  556   5.566   4.551   6.755
    5SAPS   O22  557   5.655   4.635   6.720
    5SAPS   C22  558   5.412   4.566   6.743
    5SAPS   H2R  559   5.376   4.492   6.669
    5SAPS   H2S  560   5.384   4.539   6.847
    5SAPS    C3  561   5.764   4.283   6.807
    5SAPS    HX  562   5.742   4.209   6.888
    5SAPS    HY  563   5.875   4.276   6.804
    5SAPS   O31  564   5.703   4.265   6.674
    5SAPS   C31  565   5.621   4.165   6.668
    5SAPS   O32  566   5.587   4.094   6.760
    5SAPS   C32  567   5.565   4.138   6.523
    5SAPS   H2X  568   5.456   4.124   6.536
    5SAPS   H2Y  569   5.610   4.042   6.490
    5SAPS   C23  570   5.375   4.706   6.701
    5SAPS   H3R  571   5.443   4.788   6.732
    5SAPS   H3S  572   5.277   4.734   6.744
    5SAPS   C24  573   5.348   4.718   6.556
    5SAPS   H4R  574   5.302   4.819   6.547
    5SAPS   H4S  575   5.269   4.647   6.524
    5SAPS   C25  576   5.467   4.715   6.466
    5SAPS   H5R  577   5.563   4.728   6.519
    5SAPS   C26  578   5.458   4.667   6.343
    5SAPS   H6R  579   5.550   4.636   6.291
    5SAPS   C27  580   5.333   4.633   6.270
    5SAPS   H7R  581   5.291   4.723   6.221
    5SAPS   H7S  582   5.246   4.595   6.327
    5SAPS   C28  583   5.356   4.532   6.162
    5SAPS   H8R  584   5.316   4.430   6.168
    5SAPS   C29  585   5.420   4.562   6.044
    5SAPS   H9R  586   5.400   4.486   5.967
    5SAPS  C210  587   5.477   4.695   5.995
    5SAPS  H10R  588   5.587   4.684   6.012
    5SAPS  H10S  589   5.464   4.776   6.070
    5SAPS  C211  590   5.450   4.728   5.852
    5SAPS  H11R  591   5.357   4.684   5.814
    5SAPS  C212  592   5.518   4.819   5.772
    5SAPS  H12R  593   5.485   4.828   5.668
    5SAPS  C213  594   5.645   4.897   5.808
    5SAPS  H13R  595   5.617   4.977   5.880
    5SAPS  H13S  596   5.664   4.958   5.716
    5SAPS  C214  597   5.768   4.835   5.863
    5SAPS  H14R  598   5.823   4.759   5.805
    5SAPS  C215  599   5.829   4.868   5.976
    5SAPS  H15R  600   5.912   4.807   6.015
    5SAPS  C216  601   5.791   4.963   6.083
    5SAPS  H16R  602   5.680   4.970   6.084
    5SAPS  H16S  603   5.834   5.064   6.067
    5SAPS  C217  604   5.823   4.906   6.225
    5SAPS  H17R  605   5.931   4.883   6.235
    5SAPS  H17S  606   5.761   4.816   6.246
    5SAPS  C218  607   5.798   5.018   6.331
    5SAPS  H18R  608   5.693   5.041   6.356
    5SAPS  H18S  609   5.846   5.105   6.281
    5SAPS  C219  610   5.878   4.994   6.460
    5SAPS  H19R  611   5.861   5.076   6.533
    5SAPS  H19S  612   5.984   4.985   6.427
    5SAPS  C220  613   5.849   4.864   6.536
    5SAPS  H20R  614   5.867   4.772   6.477
    5SAPS  H20S  615   5.739   4.861   6.554
    5SAPS  H20T  616   5.909   4.855   6.629
    5SAPS   C33  617   5.595   4.246   6.424
    5SAPS   H3X  618   5.701   4.279   6.435
    5SAPS   H3Y  619   5.529   4.329   6.455
    5SAPS   C34  620   5.576   4.208   6.276
    5SAPS   H4X  621   5.653   4.135   6.242
    5SAPS   H4Y  622   5.605   4.303   6.225
    5SAPS   C35  623   5.441   4.181   6.221
    5SAPS   H5X  624   5.376   4.260   6.266
    5SAPS   H5Y  625   5.414   4.079   6.257
    5SAPS   C36  626   5.430   4.184   6.068
    5SAPS   H6X  627   5.479   4.280   6.040
    5SAPS   H6Y  628   5.325   4.176   6.035
    5SAPS   C37  629   5.513   4.068   6.001
    5SAPS   H7X  630   5.538   3.990   6.075
    5SAPS   H7Y  631   5.606   4.114   5.961
    5SAPS   C38  632   5.437   4.013   5.878
    5SAPS   H8X  633   5.505   3.949   5.819
    5SAPS   H8Y  634   5.409   4.091   5.804
    5SAPS   C39  635   5.313   3.928   5.914
    5SAPS   H9X  636   5.227   3.992   5.945
    5SAPS   H9Y  637   5.333   3.862   6.001
    5SAPS  C310  638   5.253   3.842   5.804
    5SAPS  H10X  639   5.315   3.756   5.771
    5SAPS  H10Y  640   5.238   3.912   5.720
    5SAPS  C311  641   5.115   3.776   5.840
    5SAPS  H11X  642   5.043   3.858   5.860
    5SAPS  H11Y  643   5.127   3.727   5.939
    5SAPS  C312  644   5.067   3.677   5.731
    5SAPS  H12X  645   4.966   3.637   5.753
    5SAPS  H12Y  646   5.142   3.594   5.735
    5SAPS  C313  647   5.062   3.730   5.590
    5SAPS  H13X  648   5.163   3.772   5.573
    5SAPS  H13Y  649   4.991   3.814   5.600
    5SAPS  C314  650   5.010   3.621   5.489
    5SAPS  H14X  651   4.910   3.581   5.516
    5SAPS  H14Y  652   5.084   3.539   5.475
    5SAPS  C315  653   4.982   3.668   5.340
    5SAPS  H15X  654   5.074   3.723   5.311
    5SAPS  H15Y  655   4.902   3.744   5.347
    5SAPS  C316  656   4.945   3.548   5.249
    5SAPS  H16X  657   4.854   3.505   5.296
    5SAPS  H16Y  658   5.027   3.473   5.250
    5SAPS  C317  659   4.913   3.591   5.103
    5SAPS  H17X  660   5.010   3.628   5.064
    5SAPS  H17Y  661   4.832   3.666   5.087
    5SAPS  C318  662   4.872   3.474   5.011
    5SAPS  H18X  663   4.958   3.404   5.000
    5SAPS  H18Y  664   4.850   3.510   4.908
    5SAPS  H18Z  665   4.788   3.412   5.050
    6SAPS     N  666   2.587   4.287   6.977
    6SAPS   HN1  667   2.522   4.369   6.985
    6SAPS   HN2  668   2.553   4.251   6.886
    6SAPS   HN3  669   2.578   4.227   7.061
    6SAPS   C12  670   2.712   4.350   6.942
    6SAPS  H12A  671   2.700   4.401   6.847
    6SAPS   C13  672   2.773   4.438   7.051
    6SAPS  O13A  673   2.726   4.451   7.166
    6SAPS  O13B  674   2.868   4.509   7.015
    6SAPS   C11  675   2.811   4.234   6.908
    6SAPS  H11A  676   2.825   4.173   7.000
    6SAPS  H11B  677   2.907   4.290   6.899
    6SAPS     P  678   2.885   4.052   6.751
    6SAPS   O13  679   2.931   3.981   6.874
    6SAPS   O14  680   2.838   3.966   6.639
    6SAPS   O12  681   2.775   4.160   6.790
    6SAPS   O11  682   3.009   4.137   6.707
    6SAPS    C1  683   2.994   4.268   6.650
    6SAPS    HA  684   2.886   4.285   6.628
    6SAPS    HB  685   3.017   4.354   6.717
    6SAPS    C2  686   3.074   4.277   6.517
    6SAPS    HS  687   3.179   4.253   6.543
    6SAPS   O21  688   3.072   4.416   6.475
    6SAPS   C21  689   3.169   4.457   6.398
    6SAPS   O22  690   3.273   4.395   6.374
    6SAPS   C22  691   3.125   4.583   6.326
    6SAPS   H2R  692   3.077   4.654   6.397
    6SAPS   H2S  693   3.221   4.632   6.299
    6SAPS    C3  694   3.012   4.177   6.410
    6SAPS    HX  695   2.905   4.205   6.400
    6SAPS    HY  696   3.020   4.074   6.452
    6SAPS   O31  697   3.082   4.192   6.286
    6SAPS   C31  698   3.017   4.142   6.188
    6SAPS   O32  699   2.914   4.072   6.184
    6SAPS   C32  700   3.091   4.183   6.060
    6SAPS   H2X  701   3.202   4.184   6.073
    6SAPS   H2Y  702   3.049   4.283   6.039
    6SAPS   C23  703   3.055   4.582   6.184
    6SAPS   H3R  704   3.120   4.525   6.114
    6SAPS   H3S  705   3.043   4.686   6.147
    6SAPS   C24  706   2.913   4.532   6.174
    6SAPS   H4R  707   2.890   4.426   6.198
    6SAPS   H4S  708   2.879   4.541   6.069
    6SAPS   C25  709   2.820   4.607   6.272
    6SAPS   H5R  710   2.831   4.589   6.380
    6SAPS   C26  711   2.709   4.686   6.248
    6SAPS   H6R  712   2.660   4.739   6.331
    6SAPS   C27  713   2.660   4.730   6.113
    6SAPS   H7R  714   2.588   4.654   6.075
    6SAPS   H7S  715   2.748   4.721   6.046
    6SAPS   C28  716   2.610   4.871   6.117
    6SAPS   H8R  717   2.618   4.928   6.211
    6SAPS   C29  718   2.578   4.946   6.010
    6SAPS   H9R  719   2.552   5.053   6.018
    6SAPS  C210  720   2.593   4.897   5.868
    6SAPS  H10R  721   2.521   4.961   5.812
    6SAPS  H10S  722   2.554   4.793   5.863
    6SAPS  C211  723   2.725   4.920   5.803
    6SAPS  H11R  724   2.797   4.943   5.882
    6SAPS  C212  725   2.776   4.886   5.683
    6SAPS  H12R  726   2.882   4.902   5.663
    6SAPS  C213  727   2.698   4.839   5.569
    6SAPS  H13R  728   2.613   4.781   5.610
    6SAPS  H13S  729   2.756   4.758   5.520
    6SAPS  C214  730   2.645   4.956   5.483
    6SAPS  H14R  731   2.563   5.012   5.531
    6SAPS  C215  732   2.694   4.982   5.362
    6SAPS  H15R  733   2.655   5.063   5.300
    6SAPS  C216  734   2.828   4.932   5.319
    6SAPS  H16R  735   2.834   4.821   5.313
    6SAPS  H16S  736   2.902   4.956   5.398
    6SAPS  C217  737   2.880   4.968   5.181
    6SAPS  H17R  738   2.977   4.916   5.166
    6SAPS  H17S  739   2.902   5.077   5.172
    6SAPS  C218  740   2.777   4.951   5.064
    6SAPS  H18R  741   2.685   5.013   5.063
    6SAPS  H18S  742   2.744   4.845   5.060
    6SAPS  C219  743   2.839   4.992   4.927
    6SAPS  H19R  744   2.926   4.932   4.895
    6SAPS  H19S  745   2.866   5.098   4.944
    6SAPS  C220  746   2.737   4.992   4.819
    6SAPS  H20R  747   2.779   5.000   4.717
    6SAPS  H20S  748   2.669   5.078   4.838
    6SAPS  H20T  749   2.669   4.905   4.809
    6SAPS   C33  750   3.058   4.087   5.949
    6SAPS   H3X  751   2.952   4.056   5.950
    6SAPS   H3Y  752   3.113   3.990   5.961
    6SAPS   C34  753   3.078   4.147   5.810
    6SAPS   H4X  754   3.173   4.204   5.822
    6SAPS   H4Y  755   2.991   4.213   5.791
    6SAPS   C35  756   3.107   4.042   5.705
    6SAPS   H5X  757   3.027   3.966   5.688
    6SAPS   H5Y  758   3.199   3.991   5.742
    6SAPS   C36  759   3.131   4.113   5.566
    6SAPS   H6X  760   3.210   4.191   5.573
    6SAPS   H6Y  761   3.038   4.171   5.549
    6SAPS   C37  762   3.150   4.031   5.443
    6SAPS   H7X  763   3.063   3.965   5.428
    6SAPS   H7Y  764   3.239   3.964   5.447
    6SAPS   C38  765   3.169   4.125   5.315
    6SAPS   H8X  766   3.270   4.172   5.309
    6SAPS   H8Y  767   3.094   4.206   5.321
    6SAPS   C39  768   3.149   4.038   5.190
    6SAPS   H9X  769   3.048   3.992   5.189
    6SAPS   H9Y  770   3.234   3.967   5.183
    6SAPS  C310  771   3.151   4.141   5.070
    6SAPS  H10X  772   3.241   4.204   5.087
    6SAPS  H10Y  773   3.057   4.200   5.075
    6SAPS  C311  774   3.150   4.072   4.930
    6SAPS  H11X  775   3.062   4.005   4.929
    6SAPS  H11Y  776   3.233   4.000   4.916
    6SAPS  C312  777   3.136   4.177   4.814
    6SAPS  H12X  778   3.227   4.239   4.827
    6SAPS  H12Y  779   3.048   4.244   4.815
    6SAPS  C313  780   3.138   4.122   4.674
    6SAPS  H13X  781   3.218   4.047   4.655
    6SAPS  H13Y  782   3.169   4.209   4.613
    6SAPS  C314  783   3.005   4.062   4.633
    6SAPS  H14X  784   2.921   4.132   4.655
    6SAPS  H14Y  785   2.982   3.978   4.701
    6SAPS  C315  786   2.995   4.025   4.485
    6SAPS  H15X  787   3.059   3.938   4.458
    6SAPS  H15Y  788   3.024   4.109   4.418
    6SAPS  C316  789   2.859   3.979   4.442
    6SAPS  H16X  790   2.797   4.067   4.415
    6SAPS  H16Y  791   2.791   3.938   4.520
    6SAPS  C317  792   2.868   3.894   4.311
    6SAPS  H17X  793   2.762   3.873   4.286
    6SAPS  H17Y  794   2.905   3.791   4.330
    6SAPS  C318  795   2.928   3.965   4.189
    6SAPS  H18X  796   2.882   4.066   4.181
    6SAPS  H18Y  797   2.904   3.903   4.101
    6SAPS  H18Z  798   3.037   3.979   4.205
    7SAPS     N  799   3.097   0.748   6.616
    7SAPS   HN1  800   3.165   0.706   6.550
    7SAPS   HN2  801   3.058   0.829   6.563
    7SAPS   HN3  802   3.148   0.784   6.699
    7SAPS   C12  803   2.995   0.657   6.662
    7SAPS  H12A  804   3.036   0.584   6.729
    7SAPS   C13  805   2.869   0.722   6.731
    7SAPS  O13A  806   2.867   0.843   6.758
    7SAPS  O13B  807   2.791   0.636   6.785
    7SAPS   C11  808   2.935   0.574   6.545
    7SAPS  H11A  809   2.872   0.638   6.480
    7SAPS  H11B  810   2.868   0.497   6.588
    7SAPS     P  811   3.096   0.373   6.496
    7SAPS   O13  812   3.197   0.330   6.394
    7SAPS   O14  813   3.136   0.364   6.636
    7SAPS   O12  814   3.039   0.516   6.468
    7SAPS   O11  815   2.967   0.284   6.486
    7SAPS    C1  816   2.893   0.298   6.362
    7SAPS    HA  817   2.790   0.266   6.389
    7SAPS    HB  818   2.886   0.402   6.323
    7SAPS    C2  819   2.951   0.201   6.252
    7SAPS    HS  820   2.979   0.120   6.322
    7SAPS   O21  821   3.058   0.258   6.178
    7SAPS   C21  822   3.134   0.167   6.125
    7SAPS   O22  823   3.118   0.048   6.122
    7SAPS   C22  824   3.235   0.235   6.020
    7SAPS   H2R  825   3.238   0.346   6.018
    7SAPS   H2S  826   3.337   0.207   6.054
    7SAPS    C3  827   2.836   0.150   6.160
    7SAPS    HX  828   2.767   0.085   6.218
    7SAPS    HY  829   2.875   0.081   6.082
    7SAPS   O31  830   2.767   0.260   6.098
    7SAPS   C31  831   2.684   0.217   6.003
    7SAPS   O32  832   2.651   0.101   5.989
    7SAPS   C32  833   2.604   0.339   5.946
    7SAPS   H2X  834   2.661   0.431   5.971
    7SAPS   H2Y  835   2.506   0.339   5.999
    7SAPS   C23  836   3.205   0.176   5.882
    7SAPS   H3R  837   3.190   0.066   5.887
    7SAPS   H3S  838   3.297   0.198   5.823
    7SAPS   C24  839   3.081   0.238   5.808
    7SAPS   H4R  840   2.989   0.221   5.867
    7SAPS   H4S  841   3.089   0.187   5.710
    7SAPS   C25  842   3.075   0.388   5.793
    7SAPS   H5R  843   3.015   0.443   5.867
    7SAPS   C26  844   3.117   0.454   5.677
    7SAPS   H6R  845   3.089   0.560   5.679
    7SAPS   C27  846   3.167   0.398   5.554
    7SAPS   H7R  847   3.152   0.472   5.473
    7SAPS   H7S  848   3.104   0.311   5.526
    7SAPS   C28  849   3.313   0.363   5.563
    7SAPS   H8R  850   3.348   0.362   5.667
    7SAPS   C29  851   3.398   0.352   5.455
    7SAPS   H9R  852   3.499   0.311   5.472
    7SAPS  C210  853   3.355   0.368   5.313
    7SAPS  H10R  854   3.450   0.388   5.260
    7SAPS  H10S  855   3.295   0.461   5.311
    7SAPS  C211  856   3.275   0.253   5.257
    7SAPS  H11R  857   3.205   0.198   5.323
    7SAPS  C212  858   3.292   0.200   5.137
    7SAPS  H12R  859   3.243   0.110   5.097
    7SAPS  C213  860   3.382   0.264   5.036
    7SAPS  H13R  861   3.422   0.193   4.960
    7SAPS  H13S  862   3.479   0.284   5.084
    7SAPS  C214  863   3.328   0.381   4.954
    7SAPS  H14R  864   3.254   0.445   5.004
    7SAPS  C215  865   3.360   0.418   4.834
    7SAPS  H15R  866   3.306   0.504   4.791
    7SAPS  C216  867   3.449   0.350   4.734
    7SAPS  H16R  868   3.454   0.240   4.751
    7SAPS  H16S  869   3.552   0.388   4.746
    7SAPS  C217  870   3.396   0.359   4.584
    7SAPS  H17R  871   3.295   0.313   4.574
    7SAPS  H17S  872   3.471   0.307   4.520
    7SAPS  C218  873   3.380   0.498   4.527
    7SAPS  H18R  874   3.481   0.542   4.520
    7SAPS  H18S  875   3.336   0.566   4.603
    7SAPS  C219  876   3.315   0.497   4.390
    7SAPS  H19R  877   3.338   0.408   4.328
    7SAPS  H19S  878   3.349   0.589   4.338
    7SAPS  C220  879   3.165   0.510   4.401
    7SAPS  H20R  880   3.144   0.602   4.460
    7SAPS  H20S  881   3.122   0.424   4.455
    7SAPS  H20T  882   3.109   0.519   4.305
    7SAPS   C33  883   2.570   0.327   5.794
    7SAPS   H3X  884   2.482   0.390   5.771
    7SAPS   H3Y  885   2.528   0.226   5.775
    7SAPS   C34  886   2.688   0.349   5.693
    7SAPS   H4X  887   2.764   0.269   5.707
    7SAPS   H4Y  888   2.726   0.449   5.722
    7SAPS   C35  889   2.638   0.359   5.555
    7SAPS   H5X  890   2.577   0.448   5.529
    7SAPS   H5Y  891   2.581   0.269   5.526
    7SAPS   C36  892   2.754   0.372   5.453
    7SAPS   H6X  893   2.827   0.290   5.472
    7SAPS   H6Y  894   2.806   0.468   5.476
    7SAPS   C37  895   2.714   0.356   5.312
    7SAPS   H7X  896   2.628   0.423   5.289
    7SAPS   H7Y  897   2.674   0.253   5.300
    7SAPS   C38  898   2.825   0.392   5.213
    7SAPS   H8X  899   2.908   0.319   5.221
    7SAPS   H8Y  900   2.863   0.496   5.219
    7SAPS   C39  901   2.772   0.384   5.067
    7SAPS   H9X  902   2.715   0.477   5.046
    7SAPS   H9Y  903   2.716   0.288   5.066
    7SAPS  C310  904   2.876   0.354   4.955
    7SAPS  H10X  905   2.925   0.258   4.980
    7SAPS  H10Y  906   2.952   0.434   4.947
    7SAPS  C311  907   2.800   0.342   4.823
    7SAPS  H11X  908   2.763   0.439   4.782
    7SAPS  H11Y  909   2.715   0.274   4.841
    7SAPS  C312  910   2.889   0.281   4.720
    7SAPS  H12X  911   2.924   0.181   4.754
    7SAPS  H12Y  912   2.978   0.346   4.707
    7SAPS  C313  913   2.827   0.258   4.579
    7SAPS  H13X  914   2.819   0.361   4.538
    7SAPS  H13Y  915   2.723   0.223   4.598
    7SAPS  C314  916   2.906   0.176   4.483
    7SAPS  H14X  917   2.899   0.070   4.516
    7SAPS  H14Y  918   3.012   0.207   4.490
    7SAPS  C315  919   2.869   0.178   4.333
    7SAPS  H15X  920   2.774   0.122   4.323
    7SAPS  H15Y  921   2.949   0.126   4.276
    7SAPS  C316  922   2.864   0.320   4.275
    7SAPS  H16X  923   2.946   0.386   4.310
    7SAPS  H16Y  924   2.775   0.370   4.317
    7SAPS  C317  925   2.865   0.311   4.116
    7SAPS  H17X  926   2.863   0.411   4.069
    7SAPS  H17Y  927   2.771   0.256   4.092
    7SAPS  C318  928   2.983   0.234   4.049
    7SAPS  H18X  929   3.086   0.264   4.079
    7SAPS  H18Y  930   2.973   0.247   3.939
    7SAPS  H18Z  931   2.975   0.123   4.062
    8SAPS     N  932   1.772   1.294   6.587
    8SAPS   HN1  933   1.678   1.321   6.620
    8SAPS   HN2  934   1.792   1.334   6.493
    8SAPS   HN3  935   1.761   1.191   6.591
    8SAPS   C12  936   1.863   1.349   6.687
    8SAPS  H12A  937   1.846   1.455   6.695
    8SAPS   C13  938   1.837   1.298   6.830
    8SAPS  O13A  939   1.750   1.212   6.848
    8SAPS  O13B  940   1.920   1.336   6.919
    8SAPS   C11  941   2.011   1.314   6.639
    8SAPS  H11A  942   2.020   1.204   6.626
    8SAPS  H11B  943   2.079   1.349   6.720
    8SAPS     P  944   2.101   1.525   6.514
    8SAPS   O13  945   2.089   1.576   6.376
    8SAPS   O14  946   2.030   1.604   6.622
    8SAPS   O12  947   2.042   1.379   6.514
    8SAPS   O11  948   2.255   1.510   6.554
    8SAPS    C1  949   2.331   1.397   6.504
    8SAPS    HA  950   2.416   1.374   6.573
    8SAPS    HB  951   2.271   1.304   6.518
    8SAPS    C2  952   2.383   1.414   6.358
    8SAPS    HS  953   2.310   1.416   6.274
    8SAPS   O21  954   2.474   1.305   6.328
    8SAPS   C21  955   2.421   1.199   6.283
    8SAPS   O22  956   2.307   1.174   6.237
    8SAPS   C22  957   2.544   1.100   6.273
    8SAPS   H2R  958   2.596   1.103   6.372
    8SAPS   H2S  959   2.505   1.001   6.242
    8SAPS    C3  960   2.461   1.550   6.354
    8SAPS    HX  961   2.491   1.556   6.461
    8SAPS    HY  962   2.392   1.635   6.336
    8SAPS   O31  963   2.577   1.544   6.265
    8SAPS   C31  964   2.552   1.568   6.135
    8SAPS   O32  965   2.443   1.596   6.085
    8SAPS   C32  966   2.681   1.557   6.050
    8SAPS   H2X  967   2.727   1.456   6.042
    8SAPS   H2Y  968   2.754   1.615   6.109
    8SAPS   C23  969   2.641   1.157   6.173
    8SAPS   H3R  970   2.731   1.096   6.194
    8SAPS   H3S  971   2.680   1.261   6.179
    8SAPS   C24  972   2.607   1.137   6.022
    8SAPS   H4R  973   2.588   1.028   6.022
    8SAPS   H4S  974   2.706   1.150   5.971
    8SAPS   C25  975   2.496   1.227   5.969
    8SAPS   H5R  976   2.458   1.297   6.045
    8SAPS   C26  977   2.488   1.242   5.831
    8SAPS   H6R  978   2.404   1.301   5.790
    8SAPS   C27  979   2.556   1.166   5.721
    8SAPS   H7R  980   2.504   1.082   5.671
    8SAPS   H7S  981   2.647   1.123   5.769
    8SAPS   C28  982   2.609   1.262   5.617
    8SAPS   H8R  983   2.679   1.337   5.656
    8SAPS   C29  984   2.611   1.249   5.482
    8SAPS   H9R  985   2.663   1.325   5.422
    8SAPS  C210  986   2.539   1.148   5.396
    8SAPS  H10R  987   2.469   1.201   5.328
    8SAPS  H10S  988   2.464   1.081   5.445
    8SAPS  C211  989   2.645   1.069   5.328
    8SAPS  H11R  990   2.662   0.970   5.374
    8SAPS  C212  991   2.722   1.101   5.224
    8SAPS  H12R  992   2.790   1.026   5.180
    8SAPS  C213  993   2.717   1.231   5.151
    8SAPS  H13R  994   2.813   1.225   5.096
    8SAPS  H13S  995   2.722   1.318   5.221
    8SAPS  C214  996   2.597   1.249   5.062
    8SAPS  H14R  997   2.507   1.220   5.119
    8SAPS  C215  998   2.600   1.300   4.936
    8SAPS  H15R  999   2.508   1.303   4.875
    8SAPS  C216 1000   2.725   1.340   4.859
    8SAPS  H16R 1001   2.818   1.347   4.919
    8SAPS  H16S 1002   2.711   1.442   4.818
    8SAPS  C217 1003   2.752   1.244   4.735
    8SAPS  H17R 1004   2.734   1.138   4.763
    8SAPS  H17S 1005   2.859   1.251   4.706
    8SAPS  C218 1006   2.669   1.282   4.612
    8SAPS  H18R 1007   2.695   1.389   4.595
    8SAPS  H18S 1008   2.562   1.270   4.639
    8SAPS  C219 1009   2.708   1.188   4.495
    8SAPS  H19R 1010   2.690   1.081   4.520
    8SAPS  H19S 1011   2.815   1.196   4.469
    8SAPS  C220 1012   2.626   1.225   4.365
    8SAPS  H20R 1013   2.520   1.199   4.386
    8SAPS  H20S 1014   2.669   1.178   4.274
    8SAPS  H20T 1015   2.624   1.330   4.331
    8SAPS   C33 1016   2.661   1.601   5.895
    8SAPS   H3X 1017   2.593   1.524   5.853
    8SAPS   H3Y 1018   2.761   1.597   5.846
    8SAPS   C34 1019   2.611   1.744   5.879
    8SAPS   H4X 1020   2.683   1.808   5.935
    8SAPS   H4Y 1021   2.509   1.757   5.920
    8SAPS   C35 1022   2.631   1.803   5.733
    8SAPS   H5X 1023   2.733   1.783   5.695
    8SAPS   H5Y 1024   2.635   1.914   5.731
    8SAPS   C36 1025   2.537   1.743   5.626
    8SAPS   H6X 1026   2.435   1.727   5.667
    8SAPS   H6Y 1027   2.575   1.640   5.609
    8SAPS   C37 1028   2.515   1.819   5.497
    8SAPS   H7X 1029   2.612   1.829   5.444
    8SAPS   H7Y 1030   2.473   1.919   5.525
    8SAPS   C38 1031   2.409   1.740   5.412
    8SAPS   H8X 1032   2.374   1.811   5.334
    8SAPS   H8Y 1033   2.313   1.716   5.461
    8SAPS   C39 1034   2.463   1.608   5.355
    8SAPS   H9X 1035   2.455   1.530   5.433
    8SAPS   H9Y 1036   2.568   1.621   5.321
    8SAPS  C310 1037   2.382   1.554   5.233
    8SAPS  H10X 1038   2.278   1.528   5.263
    8SAPS  H10Y 1039   2.418   1.455   5.197
    8SAPS  C311 1040   2.392   1.639   5.106
    8SAPS  H11X 1041   2.499   1.648   5.077
    8SAPS  H11Y 1042   2.354   1.742   5.118
    8SAPS  C312 1043   2.323   1.576   4.990
    8SAPS  H12X 1044   2.214   1.560   5.005
    8SAPS  H12Y 1045   2.365   1.474   4.983
    8SAPS  C313 1046   2.342   1.665   4.861
    8SAPS  H13X 1047   2.445   1.704   4.868
    8SAPS  H13Y 1048   2.270   1.749   4.846
    8SAPS  C314 1049   2.328   1.579   4.736
    8SAPS  H14X 1050   2.354   1.476   4.766
    8SAPS  H14Y 1051   2.396   1.610   4.654
    8SAPS  C315 1052   2.187   1.563   4.682
    8SAPS  H15X 1053   2.167   1.661   4.633
    8SAPS  H15Y 1054   2.117   1.540   4.765
    8SAPS  C316 1055   2.194   1.450   4.575
    8SAPS  H16X 1056   2.158   1.357   4.622
    8SAPS  H16Y 1057   2.292   1.445   4.523
    8SAPS  C317 1058   2.084   1.477   4.475
    8SAPS  H17X 1059   2.075   1.392   4.404
    8SAPS  H17Y 1060   2.109   1.568   4.417
    8SAPS  C318 1061   1.950   1.512   4.534
    8SAPS  H18X 1062   1.862   1.524   4.466
    8SAPS  H18Y 1063   1.968   1.619   4.558
    8SAPS  H18Z 1064   1.921   1.458   4.627
    9SAPS     N 1065   0.714   4.691   7.071
    9SAPS   HN1 1066   0.743   4.733   6.980
    9SAPS   HN2 1067   0.692   4.590   7.060
    9SAPS   HN3 1068   0.623   4.737   7.088
    9SAPS   C12 1069   0.818   4.716   7.179
    9SAPS  H12A 1070   0.797   4.811   7.227
    9SAPS   C13 1071   0.829   4.614   7.288
    9SAPS  O13A 1072   0.745   4.525   7.300
    9SAPS  O13B 1073   0.923   4.621   7.371
    9SAPS   C11 1074   0.962   4.733   7.119
    9SAPS  H11A 1075   0.996   4.629   7.099
    9SAPS  H11B 1076   1.028   4.763   7.204
    9SAPS     P 1077   0.959   4.787   6.858
    9SAPS   O13 1078   0.820   4.748   6.822
    9SAPS   O14 1079   1.007   4.890   6.765
    9SAPS   O12 1080   0.968   4.833   7.009
    9SAPS   O11 1081   1.042   4.650   6.846
    9SAPS    C1 1082   1.183   4.652   6.819
    9SAPS    HA 1083   1.234   4.750   6.835
    9SAPS    HB 1084   1.224   4.589   6.900
    9SAPS    C2 1085   1.216   4.575   6.684
    9SAPS    HS 1086   1.325   4.585   6.663
    9SAPS   O21 1087   1.144   4.641   6.583
    9SAPS   C21 1088   1.188   4.760   6.544
    9SAPS   O22 1089   1.290   4.816   6.585
    9SAPS   C22 1090   1.091   4.826   6.445
    9SAPS   H2R 1091   0.997   4.770   6.463
    9SAPS   H2S 1092   1.084   4.931   6.482
    9SAPS    C3 1093   1.177   4.427   6.701
    9SAPS    HX 1094   1.069   4.416   6.726
    9SAPS    HY 1095   1.241   4.396   6.787
    9SAPS   O31 1096   1.197   4.339   6.587
    9SAPS   C31 1097   1.323   4.313   6.560
    9SAPS   O32 1098   1.420   4.343   6.628
    9SAPS   C32 1099   1.338   4.221   6.448
    9SAPS   H2X 1100   1.249   4.218   6.381
    9SAPS   H2Y 1101   1.367   4.118   6.476
    9SAPS   C23 1102   1.143   4.815   6.299
    9SAPS   H3R 1103   1.054   4.841   6.239
    9SAPS   H3S 1104   1.172   4.709   6.279
    9SAPS   C24 1105   1.259   4.911   6.254
    9SAPS   H4R 1106   1.282   4.872   6.153
    9SAPS   H4S 1107   1.343   4.884   6.321
    9SAPS   C25 1108   1.226   5.059   6.258
    9SAPS   H5R 1109   1.169   5.090   6.347
    9SAPS   C26 1110   1.272   5.151   6.159
    9SAPS   H6R 1111   1.240   5.255   6.178
    9SAPS   C27 1112   1.364   5.125   6.042
    9SAPS   H7R 1113   1.386   5.016   6.044
    9SAPS   H7S 1114   1.453   5.191   6.052
    9SAPS   C28 1115   1.295   5.155   5.913
    9SAPS   H8R 1116   1.185   5.162   5.909
    9SAPS   C29 1117   1.366   5.172   5.800
    9SAPS   H9R 1118   1.318   5.201   5.705
    9SAPS  C210 1119   1.517   5.154   5.793
    9SAPS  H10R 1120   1.544   5.089   5.707
    9SAPS  H10S 1121   1.554   5.091   5.876
    9SAPS  C211 1122   1.586   5.288   5.778
    9SAPS  H11R 1123   1.573   5.359   5.861
    9SAPS  C212 1124   1.641   5.337   5.664
    9SAPS  H12R 1125   1.674   5.442   5.660
    9SAPS  C213 1126   1.668   5.262   5.539
    9SAPS  H13R 1127   1.706   5.160   5.562
    9SAPS  H13S 1128   1.750   5.322   5.494
    9SAPS  C214 1129   1.545   5.262   5.454
    9SAPS  H14R 1130   1.444   5.261   5.498
    9SAPS  C215 1131   1.551   5.270   5.320
    9SAPS  H15R 1132   1.453   5.270   5.271
    9SAPS  C216 1133   1.672   5.257   5.228
    9SAPS  H16R 1134   1.653   5.174   5.156
    9SAPS  H16S 1135   1.767   5.235   5.281
    9SAPS  C217 1136   1.686   5.369   5.127
    9SAPS  H17R 1137   1.771   5.344   5.060
    9SAPS  H17S 1138   1.694   5.468   5.178
    9SAPS  C218 1139   1.572   5.394   5.024
    9SAPS  H18R 1140   1.485   5.440   5.076
    9SAPS  H18S 1141   1.552   5.294   4.981
    9SAPS  C219 1142   1.625   5.475   4.909
    9SAPS  H19R 1143   1.703   5.413   4.860
    9SAPS  H19S 1144   1.668   5.568   4.953
    9SAPS  C220 1145   1.517   5.523   4.814
    9SAPS  H20R 1146   1.553   5.585   4.728
    9SAPS  H20S 1147   1.458   5.597   4.872
    9SAPS  H20T 1148   1.450   5.439   4.787
    9SAPS   C33 1149   1.444   4.279   6.351
    9SAPS   H3X 1150   1.458   4.214   6.262
    9SAPS   H3Y 1151   1.544   4.279   6.399
    9SAPS   C34 1152   1.407   4.424   6.309
    9SAPS   H4X 1153   1.414   4.497   6.393
    9SAPS   H4Y 1154   1.302   4.419   6.272
    9SAPS   C35 1155   1.492   4.479   6.182
    9SAPS   H5X 1156   1.434   4.565   6.144
    9SAPS   H5Y 1157   1.491   4.413   6.093
    9SAPS   C36 1158   1.640   4.517   6.211
    9SAPS   H6X 1159   1.694   4.422   6.235
    9SAPS   H6Y 1160   1.646   4.594   6.291
    9SAPS   C37 1161   1.715   4.568   6.084
    9SAPS   H7X 1162   1.714   4.486   6.009
    9SAPS   H7Y 1163   1.822   4.580   6.108
    9SAPS   C38 1164   1.679   4.709   6.026
    9SAPS   H8X 1165   1.680   4.777   6.113
    9SAPS   H8Y 1166   1.575   4.710   5.989
    9SAPS   C39 1167   1.774   4.754   5.915
    9SAPS   H9X 1168   1.882   4.739   5.937
    9SAPS   H9Y 1169   1.757   4.863   5.900
    9SAPS  C310 1170   1.743   4.674   5.793
    9SAPS  H10X 1171   1.634   4.679   5.774
    9SAPS  H10Y 1172   1.776   4.569   5.803
    9SAPS  C311 1173   1.825   4.728   5.674
    9SAPS  H11X 1174   1.929   4.688   5.672
    9SAPS  H11Y 1175   1.838   4.838   5.675
    9SAPS  C312 1176   1.763   4.703   5.535
    9SAPS  H12X 1177   1.688   4.777   5.499
    9SAPS  H12Y 1178   1.711   4.607   5.553
    9SAPS  C313 1179   1.858   4.669   5.419
    9SAPS  H13X 1180   1.924   4.585   5.449
    9SAPS  H13Y 1181   1.935   4.749   5.414
    9SAPS  C314 1182   1.786   4.677   5.289
    9SAPS  H14X 1183   1.731   4.772   5.304
    9SAPS  H14Y 1184   1.715   4.591   5.282
    9SAPS  C315 1185   1.872   4.672   5.162
    9SAPS  H15X 1186   1.905   4.566   5.161
    9SAPS  H15Y 1187   1.960   4.736   5.183
    9SAPS  C316 1188   1.800   4.726   5.035
    9SAPS  H16X 1189   1.783   4.834   5.050
    9SAPS  H16Y 1190   1.701   4.677   5.030
    9SAPS  C317 1191   1.883   4.691   4.916
    9SAPS  H17X 1192   1.915   4.584   4.920
    9SAPS  H17Y 1193   1.975   4.752   4.917
    9SAPS  C318 1194   1.806   4.709   4.777
    9SAPS  H18X 1195   1.870   4.673   4.692
    9SAPS  H18Y 1196   1.782   4.817   4.769
    9SAPS  H18Z 1197   1.713   4.649   4.771
   10SAPS     N 1198   2.178   3.940   7.209
   10SAPS   HN1 1199   2.197   3.915   7.308
   10SAPS   HN2 1200   2.077   3.963   7.200
   10SAPS   HN3 1201   2.203   3.857   7.153
   10SAPS   C12 1202   2.275   4.044   7.161
   10SAPS  H12A 1203   2.260   4.133   7.221
   10SAPS   C13 1204   2.420   4.009   7.182
   10SAPS  O13A 1205   2.451   3.895   7.223
   10SAPS  O13B 1206   2.510   4.090   7.141
   10SAPS   C11 1207   2.260   4.079   7.018
   10SAPS  H11A 1208   2.307   3.995   6.964
   10SAPS  H11B 1209   2.307   4.175   6.988
   10SAPS     P 1210   2.071   4.070   6.835
   10SAPS   O13 1211   2.093   3.931   6.805
   10SAPS   O14 1212   1.935   4.124   6.813
   10SAPS   O12 1213   2.122   4.097   6.986
   10SAPS   O11 1214   2.168   4.145   6.735
   10SAPS    C1 1215   2.186   4.287   6.747
   10SAPS    HA 1216   2.089   4.332   6.780
   10SAPS    HB 1217   2.264   4.319   6.820
   10SAPS    C2 1218   2.211   4.352   6.605
   10SAPS    HS 1219   2.118   4.334   6.547
   10SAPS   O21 1220   2.315   4.281   6.536
   10SAPS   C21 1221   2.428   4.255   6.603
   10SAPS   O22 1222   2.458   4.307   6.709
   10SAPS   C22 1223   2.506   4.160   6.512
   10SAPS   H2R 1224   2.557   4.081   6.571
   10SAPS   H2S 1225   2.429   4.106   6.452
   10SAPS    C3 1226   2.240   4.501   6.611
   10SAPS    HX 1227   2.322   4.503   6.686
   10SAPS    HY 1228   2.152   4.546   6.662
   10SAPS   O31 1229   2.295   4.560   6.498
   10SAPS   C31 1230   2.212   4.573   6.397
   10SAPS   O32 1231   2.090   4.551   6.404
   10SAPS   C32 1232   2.290   4.608   6.272
   10SAPS   H2X 1233   2.365   4.528   6.253
   10SAPS   H2Y 1234   2.329   4.711   6.288
   10SAPS   C23 1235   2.606   4.248   6.433
   10SAPS   H3R 1236   2.694   4.190   6.396
   10SAPS   H3S 1237   2.651   4.320   6.505
   10SAPS   C24 1238   2.536   4.321   6.321
   10SAPS   H4R 1239   2.601   4.399   6.277
   10SAPS   H4S 1240   2.456   4.378   6.373
   10SAPS   C25 1241   2.473   4.232   6.217
   10SAPS   H5R 1242   2.413   4.149   6.256
   10SAPS   C26 1243   2.501   4.243   6.081
   10SAPS   H6R 1244   2.446   4.185   6.005
   10SAPS   C27 1245   2.598   4.336   6.013
   10SAPS   H7R 1246   2.671   4.369   6.090
   10SAPS   H7S 1247   2.549   4.422   5.964
   10SAPS   C28 1248   2.689   4.250   5.931
   10SAPS   H8R 1249   2.774   4.202   5.982
   10SAPS   C29 1250   2.681   4.240   5.796
   10SAPS   H9R 1251   2.751   4.179   5.735
   10SAPS  C210 1252   2.574   4.318   5.721
   10SAPS  H10R 1253   2.491   4.346   5.790
   10SAPS  H10S 1254   2.529   4.254   5.642
   10SAPS  C211 1255   2.635   4.439   5.656
   10SAPS  H11R 1256   2.662   4.528   5.716
   10SAPS  C212 1257   2.650   4.462   5.523
   10SAPS  H12R 1258   2.678   4.560   5.481
   10SAPS  C213 1259   2.628   4.358   5.409
   10SAPS  H13R 1260   2.610   4.412   5.314
   10SAPS  H13S 1261   2.532   4.306   5.428
   10SAPS  C214 1262   2.741   4.261   5.392
   10SAPS  H14R 1263   2.778   4.218   5.486
   10SAPS  C215 1264   2.785   4.208   5.276
   10SAPS  H15R 1265   2.871   4.140   5.273
   10SAPS  C216 1266   2.741   4.243   5.134
   10SAPS  H16R 1267   2.806   4.182   5.068
   10SAPS  H16S 1268   2.758   4.352   5.117
   10SAPS  C217 1269   2.594   4.208   5.117
   10SAPS  H17R 1270   2.543   4.268   5.195
   10SAPS  H17S 1271   2.581   4.099   5.134
   10SAPS  C218 1272   2.545   4.239   4.977
   10SAPS  H18R 1273   2.569   4.340   4.939
   10SAPS  H18S 1274   2.434   4.240   4.985
   10SAPS  C219 1275   2.590   4.135   4.875
   10SAPS  H19R 1276   2.542   4.037   4.897
   10SAPS  H19S 1277   2.701   4.129   4.875
   10SAPS  C220 1278   2.553   4.183   4.727
   10SAPS  H20R 1279   2.443   4.199   4.713
   10SAPS  H20S 1280   2.583   4.100   4.659
   10SAPS  H20T 1281   2.622   4.267   4.703
   10SAPS   C33 1282   2.199   4.626   6.145
   10SAPS   H3X 1283   2.113   4.690   6.174
   10SAPS   H3Y 1284   2.158   4.528   6.114
   10SAPS   C34 1285   2.279   4.680   6.016
   10SAPS   H4X 1286   2.375   4.624   6.016
   10SAPS   H4Y 1287   2.319   4.782   6.031
   10SAPS   C35 1288   2.207   4.652   5.879
   10SAPS   H5X 1289   2.131   4.732   5.876
   10SAPS   H5Y 1290   2.163   4.550   5.887
   10SAPS   C36 1291   2.299   4.656   5.756
   10SAPS   H6X 1292   2.360   4.563   5.760
   10SAPS   H6Y 1293   2.368   4.741   5.777
   10SAPS   C37 1294   2.226   4.663   5.620
   10SAPS   H7X 1295   2.150   4.743   5.617
   10SAPS   H7Y 1296   2.171   4.567   5.614
   10SAPS   C38 1297   2.327   4.671   5.506
   10SAPS   H8X 1298   2.398   4.586   5.503
   10SAPS   H8Y 1299   2.385   4.765   5.513
   10SAPS   C39 1300   2.251   4.672   5.375
   10SAPS   H9X 1301   2.209   4.774   5.369
   10SAPS   H9Y 1302   2.168   4.599   5.380
   10SAPS  C310 1303   2.345   4.640   5.258
   10SAPS  H10X 1304   2.374   4.533   5.270
   10SAPS  H10Y 1305   2.438   4.700   5.249
   10SAPS  C311 1306   2.278   4.653   5.125
   10SAPS  H11X 1307   2.270   4.757   5.088
   10SAPS  H11Y 1308   2.172   4.618   5.129
   10SAPS  C312 1309   2.337   4.574   5.010
   10SAPS  H12X 1310   2.346   4.465   5.027
   10SAPS  H12Y 1311   2.442   4.610   4.999
   10SAPS  C313 1312   2.272   4.615   4.871
   10SAPS  H13X 1313   2.263   4.726   4.863
   10SAPS  H13Y 1314   2.167   4.579   4.872
   10SAPS  C314 1315   2.347   4.551   4.754
   10SAPS  H14X 1316   2.336   4.441   4.767
   10SAPS  H14Y 1317   2.455   4.573   4.771
   10SAPS  C315 1318   2.294   4.592   4.612
   10SAPS  H15X 1319   2.183   4.601   4.609
   10SAPS  H15Y 1320   2.317   4.517   4.534
   10SAPS  C316 1321   2.356   4.724   4.565
   10SAPS  H16X 1322   2.466   4.713   4.550
   10SAPS  H16Y 1323   2.347   4.802   4.643
   10SAPS  C317 1324   2.290   4.780   4.442
   10SAPS  H17X 1325   2.281   4.694   4.372
   10SAPS  H17Y 1326   2.353   4.861   4.399
   10SAPS  C318 1327   2.151   4.836   4.463
   10SAPS  H18X 1328   2.115   4.864   4.361
   10SAPS  H18Y 1329   2.160   4.929   4.522
   10SAPS  H18Z 1330   2.077   4.771   4.514
   11SAPS     N 1331   3.986   3.210   1.900
   11SAPS   HN1 1332   3.894   3.190   1.944
   11SAPS   HN2 1333   4.054   3.259   1.962
   11SAPS   HN3 1334   3.972   3.274   1.819
   11SAPS   C12 1335   4.047   3.082   1.848
   11SAPS  H12A 1336   3.992   3.050   1.761
   11SAPS   C13 1337   4.203   3.101   1.837
   11SAPS  O13A 1338   4.265   3.204   1.859
   11SAPS  O13B 1339   4.272   3.007   1.780
   11SAPS   C11 1340   4.037   2.973   1.960
   11SAPS  H11A 1341   4.099   2.991   2.051
   11SAPS  H11B 1342   4.088   2.884   1.919
   11SAPS     P 1343   3.845   2.809   2.010
   11SAPS   O13 1344   3.699   2.815   2.050
   11SAPS   O14 1345   3.879   2.750   1.881
   11SAPS   O12 1346   3.911   2.947   2.026
   11SAPS   O11 1347   3.923   2.732   2.130
   11SAPS    C1 1348   3.871   2.718   2.255
   11SAPS    HA 1349   3.765   2.684   2.251
   11SAPS    HB 1350   3.932   2.653   2.322
   11SAPS    C2 1351   3.864   2.857   2.326
   11SAPS    HS 1352   3.784   2.925   2.290
   11SAPS   O21 1353   3.998   2.922   2.322
   11SAPS   C21 1354   3.991   3.056   2.332
   11SAPS   O22 1355   3.889   3.120   2.332
   11SAPS   C22 1356   4.126   3.123   2.336
   11SAPS   H2R 1357   4.206   3.047   2.353
   11SAPS   H2S 1358   4.142   3.187   2.247
   11SAPS    C3 1359   3.818   2.836   2.472
   11SAPS    HX 1360   3.770   2.931   2.504
   11SAPS    HY 1361   3.909   2.822   2.534
   11SAPS   O31 1362   3.744   2.717   2.492
   11SAPS   C31 1363   3.630   2.721   2.553
   11SAPS   O32 1364   3.580   2.827   2.588
   11SAPS   C32 1365   3.583   2.583   2.590
   11SAPS   H2X 1366   3.587   2.525   2.495
   11SAPS   H2Y 1367   3.478   2.579   2.624
   11SAPS   C23 1368   4.123   3.227   2.456
   11SAPS   H3R 1369   4.048   3.307   2.468
   11SAPS   H3S 1370   4.218   3.283   2.440
   11SAPS   C24 1371   4.140   3.157   2.595
   11SAPS   H4R 1372   4.241   3.181   2.635
   11SAPS   H4S 1373   4.139   3.048   2.572
   11SAPS   C25 1374   4.025   3.185   2.695
   11SAPS   H5R 1375   3.924   3.183   2.654
   11SAPS   C26 1376   4.043   3.225   2.824
   11SAPS   H6R 1377   3.950   3.246   2.878
   11SAPS   C27 1378   4.173   3.232   2.899
   11SAPS   H7R 1379   4.241   3.149   2.869
   11SAPS   H7S 1380   4.154   3.224   3.008
   11SAPS   C28 1381   4.245   3.359   2.886
   11SAPS   H8R 1382   4.250   3.386   2.779
   11SAPS   C29 1383   4.291   3.439   2.985
   11SAPS   H9R 1384   4.332   3.539   2.963
   11SAPS  C210 1385   4.280   3.410   3.136
   11SAPS  H10R 1386   4.173   3.388   3.158
   11SAPS  H10S 1387   4.311   3.502   3.189
   11SAPS  C211 1388   4.381   3.316   3.198
   11SAPS  H11R 1389   4.481   3.306   3.153
   11SAPS  C212 1390   4.355   3.234   3.300
   11SAPS  H12R 1391   4.440   3.173   3.336
   11SAPS  C213 1392   4.219   3.225   3.368
   11SAPS  H13R 1393   4.205   3.129   3.421
   11SAPS  H13S 1394   4.128   3.225   3.304
   11SAPS  C214 1395   4.219   3.337   3.475
   11SAPS  H14R 1396   4.221   3.442   3.445
   11SAPS  C215 1397   4.238   3.324   3.607
   11SAPS  H15R 1398   4.231   3.418   3.664
   11SAPS  C216 1399   4.246   3.195   3.688
   11SAPS  H16R 1400   4.351   3.163   3.702
   11SAPS  H16S 1401   4.201   3.110   3.632
   11SAPS  C217 1402   4.163   3.206   3.816
   11SAPS  H17R 1403   4.134   3.099   3.828
   11SAPS  H17S 1404   4.065   3.256   3.801
   11SAPS  C218 1405   4.235   3.280   3.929
   11SAPS  H18R 1406   4.228   3.390   3.920
   11SAPS  H18S 1407   4.342   3.251   3.916
   11SAPS  C219 1408   4.180   3.248   4.064
   11SAPS  H19R 1409   4.238   3.301   4.143
   11SAPS  H19S 1410   4.191   3.138   4.074
   11SAPS  C220 1411   4.029   3.288   4.066
   11SAPS  H20R 1412   3.963   3.207   4.028
   11SAPS  H20S 1413   4.020   3.388   4.018
   11SAPS  H20T 1414   4.005   3.299   4.174
   11SAPS   C33 1415   3.678   2.508   2.690
   11SAPS   H3X 1416   3.778   2.508   2.641
   11SAPS   H3Y 1417   3.635   2.407   2.701
   11SAPS   C34 1418   3.686   2.552   2.837
   11SAPS   H4X 1419   3.719   2.659   2.835
   11SAPS   H4Y 1420   3.768   2.496   2.887
   11SAPS   C35 1421   3.570   2.509   2.924
   11SAPS   H5X 1422   3.473   2.511   2.870
   11SAPS   H5Y 1423   3.561   2.584   3.006
   11SAPS   C36 1424   3.583   2.360   2.971
   11SAPS   H6X 1425   3.685   2.320   2.988
   11SAPS   H6Y 1426   3.526   2.300   2.897
   11SAPS   C37 1427   3.508   2.338   3.107
   11SAPS   H7X 1428   3.401   2.354   3.084
   11SAPS   H7Y 1429   3.539   2.421   3.173
   11SAPS   C38 1430   3.531   2.198   3.165
   11SAPS   H8X 1431   3.640   2.182   3.181
   11SAPS   H8Y 1432   3.509   2.112   3.099
   11SAPS   C39 1433   3.456   2.173   3.291
   11SAPS   H9X 1434   3.462   2.064   3.313
   11SAPS   H9Y 1435   3.347   2.191   3.280
   11SAPS  C310 1436   3.522   2.260   3.406
   11SAPS  H10X 1437   3.484   2.364   3.402
   11SAPS  H10Y 1438   3.630   2.267   3.380
   11SAPS  C311 1439   3.502   2.204   3.547
   11SAPS  H11X 1440   3.516   2.094   3.549
   11SAPS  H11Y 1441   3.394   2.216   3.570
   11SAPS  C312 1442   3.596   2.253   3.660
   11SAPS  H12X 1443   3.573   2.359   3.682
   11SAPS  H12Y 1444   3.699   2.232   3.624
   11SAPS  C313 1445   3.568   2.174   3.796
   11SAPS  H13X 1446   3.623   2.077   3.793
   11SAPS  H13Y 1447   3.460   2.168   3.821
   11SAPS  C314 1448   3.620   2.250   3.911
   11SAPS  H14X 1449   3.574   2.348   3.889
   11SAPS  H14Y 1450   3.730   2.267   3.914
   11SAPS  C315 1451   3.568   2.206   4.050
   11SAPS  H15X 1452   3.600   2.103   4.076
   11SAPS  H15Y 1453   3.457   2.206   4.049
   11SAPS  C316 1454   3.607   2.310   4.159
   11SAPS  H16X 1455   3.585   2.407   4.110
   11SAPS  H16Y 1456   3.716   2.304   4.182
   11SAPS  C317 1457   3.522   2.299   4.293
   11SAPS  H17X 1458   3.413   2.309   4.273
   11SAPS  H17Y 1459   3.549   2.381   4.364
   11SAPS  C318 1460   3.556   2.175   4.376
   11SAPS  H18X 1461   3.516   2.091   4.315
   11SAPS  H18Y 1462   3.503   2.165   4.473
   11SAPS  H18Z 1463   3.663   2.149   4.392
   12SAPS     N 1464   2.660   2.315   1.838
   12SAPS   HN1 1465   2.639   2.357   1.746
   12SAPS   HN2 1466   2.578   2.267   1.880
   12SAPS   HN3 1467   2.688   2.387   1.908
   12SAPS   C12 1468   2.770   2.223   1.822
   12SAPS  H12A 1469   2.747   2.165   1.734
   12SAPS   C13 1470   2.912   2.280   1.781
   12SAPS  O13A 1471   2.932   2.404   1.805
   12SAPS  O13B 1472   3.000   2.196   1.746
   12SAPS   C11 1473   2.787   2.127   1.950
   12SAPS  H11A 1474   2.810   2.206   2.025
   12SAPS  H11B 1475   2.869   2.058   1.920
   12SAPS     P 1476   2.674   1.911   2.030
   12SAPS   O13 1477   2.541   1.844   2.033
   12SAPS   O14 1478   2.766   1.831   1.951
   12SAPS   O12 1479   2.667   2.060   1.979
   12SAPS   O11 1480   2.719   1.935   2.182
   12SAPS    C1 1481   2.658   2.035   2.256
   12SAPS    HA 1482   2.719   2.128   2.252
   12SAPS    HB 1483   2.554   2.054   2.219
   12SAPS    C2 1484   2.641   1.987   2.407
   12SAPS    HS 1485   2.602   2.075   2.463
   12SAPS   O21 1486   2.767   1.958   2.466
   12SAPS   C21 1487   2.844   2.062   2.499
   12SAPS   O22 1488   2.818   2.182   2.483
   12SAPS   C22 1489   2.975   2.016   2.560
   12SAPS   H2R 1490   3.015   1.956   2.475
   12SAPS   H2S 1491   3.039   2.105   2.571
   12SAPS    C3 1492   2.543   1.868   2.408
   12SAPS    HX 1493   2.596   1.778   2.370
   12SAPS    HY 1494   2.458   1.910   2.350
   12SAPS   O31 1495   2.478   1.863   2.543
   12SAPS   C31 1496   2.528   1.785   2.634
   12SAPS   O32 1497   2.620   1.705   2.622
   12SAPS   C32 1498   2.451   1.809   2.764
   12SAPS   H2X 1499   2.344   1.789   2.742
   12SAPS   H2Y 1500   2.444   1.920   2.772
   12SAPS   C23 1501   2.958   1.947   2.700
   12SAPS   H3R 1502   3.031   1.864   2.713
   12SAPS   H3S 1503   2.854   1.908   2.706
   12SAPS   C24 1504   2.977   2.047   2.816
   12SAPS   H4R 1505   2.914   2.009   2.900
   12SAPS   H4S 1506   2.924   2.142   2.795
   12SAPS   C25 1507   3.117   2.080   2.858
   12SAPS   H5R 1508   3.183   2.083   2.770
   12SAPS   C26 1509   3.162   2.096   2.979
   12SAPS   H6R 1510   3.265   2.134   2.978
   12SAPS   C27 1511   3.083   2.097   3.105
   12SAPS   H7R 1512   2.974   2.106   3.086
   12SAPS   H7S 1513   3.115   2.184   3.166
   12SAPS   C28 1514   3.111   1.964   3.178
   12SAPS   H8R 1515   3.134   1.877   3.115
   12SAPS   C29 1516   3.135   1.942   3.307
   12SAPS   H9R 1517   3.159   1.840   3.342
   12SAPS  C210 1518   3.113   2.044   3.414
   12SAPS  H10R 1519   3.097   2.144   3.370
   12SAPS  H10S 1520   3.208   2.049   3.471
   12SAPS  C211 1521   3.000   1.996   3.503
   12SAPS  H11R 1522   2.908   1.976   3.446
   12SAPS  C212 1523   3.000   1.981   3.639
   12SAPS  H12R 1524   2.911   1.942   3.691
   12SAPS  C213 1525   3.128   2.008   3.727
   12SAPS  H13R 1526   3.108   2.092   3.796
   12SAPS  H13S 1527   3.213   2.042   3.664
   12SAPS  C214 1528   3.157   1.880   3.807
   12SAPS  H14R 1529   3.120   1.789   3.758
   12SAPS  C215 1530   3.212   1.873   3.931
   12SAPS  H15R 1531   3.234   1.775   3.978
   12SAPS  C216 1532   3.263   1.996   4.011
   12SAPS  H16R 1533   3.243   2.088   3.952
   12SAPS  H16S 1534   3.371   1.980   4.033
   12SAPS  C217 1535   3.196   2.034   4.138
   12SAPS  H17R 1536   3.090   2.057   4.114
   12SAPS  H17S 1537   3.231   2.136   4.161
   12SAPS  C218 1538   3.211   1.934   4.260
   12SAPS  H18R 1539   3.319   1.908   4.261
   12SAPS  H18S 1540   3.152   1.842   4.241
   12SAPS  C219 1541   3.163   1.985   4.398
   12SAPS  H19R 1542   3.053   1.999   4.395
   12SAPS  H19S 1543   3.211   2.085   4.407
   12SAPS  C220 1544   3.197   1.881   4.509
   12SAPS  H20R 1545   3.303   1.847   4.505
   12SAPS  H20S 1546   3.130   1.796   4.487
   12SAPS  H20T 1547   3.170   1.927   4.607
   12SAPS   C33 1548   2.508   1.745   2.887
   12SAPS   H3X 1549   2.539   1.643   2.856
   12SAPS   H3Y 1550   2.424   1.724   2.957
   12SAPS   C34 1551   2.618   1.829   2.956
   12SAPS   H4X 1552   2.579   1.933   2.955
   12SAPS   H4Y 1553   2.705   1.820   2.888
   12SAPS   C35 1554   2.667   1.787   3.095
   12SAPS   H5X 1555   2.739   1.864   3.131
   12SAPS   H5Y 1556   2.710   1.685   3.082
   12SAPS   C36 1557   2.558   1.774   3.206
   12SAPS   H6X 1558   2.481   1.698   3.177
   12SAPS   H6Y 1559   2.510   1.873   3.223
   12SAPS   C37 1560   2.630   1.724   3.330
   12SAPS   H7X 1561   2.708   1.796   3.361
   12SAPS   H7Y 1562   2.677   1.624   3.315
   12SAPS   C38 1563   2.534   1.696   3.448
   12SAPS   H8X 1564   2.567   1.623   3.524
   12SAPS   H8Y 1565   2.443   1.652   3.402
   12SAPS   C39 1566   2.486   1.826   3.522
   12SAPS   H9X 1567   2.431   1.899   3.458
   12SAPS   H9Y 1568   2.578   1.878   3.554
   12SAPS  C310 1569   2.391   1.798   3.632
   12SAPS  H10X 1570   2.309   1.728   3.607
   12SAPS  H10Y 1571   2.338   1.891   3.663
   12SAPS  C311 1572   2.472   1.746   3.757
   12SAPS  H11X 1573   2.558   1.816   3.763
   12SAPS  H11Y 1574   2.516   1.646   3.733
   12SAPS  C312 1575   2.396   1.725   3.891
   12SAPS  H12X 1576   2.299   1.674   3.872
   12SAPS  H12Y 1577   2.362   1.821   3.935
   12SAPS  C313 1578   2.470   1.636   3.993
   12SAPS  H13X 1579   2.579   1.660   3.984
   12SAPS  H13Y 1580   2.453   1.528   3.977
   12SAPS  C314 1581   2.427   1.678   4.130
   12SAPS  H14X 1582   2.325   1.642   4.153
   12SAPS  H14Y 1583   2.424   1.789   4.141
   12SAPS  C315 1584   2.523   1.621   4.232
   12SAPS  H15X 1585   2.630   1.651   4.236
   12SAPS  H15Y 1586   2.529   1.511   4.221
   12SAPS  C316 1587   2.476   1.638   4.381
   12SAPS  H16X 1588   2.552   1.583   4.441
   12SAPS  H16Y 1589   2.379   1.583   4.387
   12SAPS  C317 1590   2.477   1.776   4.438
   12SAPS  H17X 1591   2.555   1.842   4.395
   12SAPS  H17Y 1592   2.507   1.767   4.545
   12SAPS  C318 1593   2.337   1.836   4.444
   12SAPS  H18X 1594   2.298   1.851   4.341
   12SAPS  H18Y 1595   2.321   1.932   4.498
   12SAPS  H18Z 1596   2.260   1.764   4.480
   13SAPS     N 1597   4.860   1.745   2.016
   13SAPS   HN1 1598   4.962   1.741   2.033
   13SAPS   HN2 1599   4.828   1.844   2.012
   13SAPS   HN3 1600   4.814   1.697   2.097
   13SAPS   C12 1601   4.843   1.662   1.894
   13SAPS  H12A 1602   4.746   1.678   1.851
   13SAPS   C13 1603   4.940   1.693   1.786
   13SAPS  O13A 1604   5.026   1.780   1.800
   13SAPS  O13B 1605   4.912   1.655   1.667
   13SAPS   C11 1606   4.878   1.515   1.942
   13SAPS  H11A 1607   4.986   1.510   1.967
   13SAPS  H11B 1608   4.853   1.442   1.861
   13SAPS     P 1609   4.822   1.346   2.131
   13SAPS   O13 1610   4.820   1.236   2.026
   13SAPS   O14 1611   4.941   1.352   2.216
   13SAPS   O12 1612   4.810   1.490   2.066
   13SAPS   O11 1613   4.704   1.325   2.230
   13SAPS    C1 1614   4.710   1.354   2.368
   13SAPS    HA 1615   4.774   1.444   2.380
   13SAPS    HB 1616   4.606   1.373   2.402
   13SAPS    C2 1617   4.756   1.233   2.454
   13SAPS    HS 1618   4.839   1.183   2.399
   13SAPS   O21 1619   4.645   1.148   2.470
   13SAPS   C21 1620   4.676   1.021   2.504
   13SAPS   O22 1621   4.785   0.966   2.499
   13SAPS   C22 1622   4.553   0.937   2.545
   13SAPS   H2R 1623   4.463   1.000   2.531
   13SAPS   H2S 1624   4.559   0.847   2.480
   13SAPS    C3 1625   4.817   1.283   2.588
   13SAPS    HX 1626   4.733   1.345   2.627
   13SAPS    HY 1627   4.903   1.351   2.569
   13SAPS   O31 1628   4.853   1.185   2.684
   13SAPS   C31 1629   4.974   1.128   2.672
   13SAPS   O32 1630   5.047   1.134   2.573
   13SAPS   C32 1631   5.014   1.045   2.800
   13SAPS   H2X 1632   5.019   0.939   2.766
   13SAPS   H2Y 1633   4.936   1.051   2.879
   13SAPS   C23 1634   4.547   0.877   2.678
   13SAPS   H3R 1635   4.652   0.850   2.704
   13SAPS   H3S 1636   4.495   0.779   2.673
   13SAPS   C24 1637   4.490   0.970   2.783
   13SAPS   H4R 1638   4.478   0.910   2.876
   13SAPS   H4S 1639   4.388   1.000   2.751
   13SAPS   C25 1640   4.579   1.089   2.801
   13SAPS   H5R 1641   4.579   1.165   2.722
   13SAPS   C26 1642   4.655   1.106   2.910
   13SAPS   H6R 1643   4.708   1.202   2.925
   13SAPS   C27 1644   4.643   1.021   3.031
   13SAPS   H7R 1645   4.538   1.026   3.068
   13SAPS   H7S 1646   4.703   1.068   3.111
   13SAPS   C28 1647   4.695   0.878   3.017
   13SAPS   H8R 1648   4.639   0.814   2.947
   13SAPS   C29 1649   4.795   0.824   3.088
   13SAPS   H9R 1650   4.823   0.722   3.057
   13SAPS  C210 1651   4.885   0.880   3.198
   13SAPS  H10R 1652   4.903   0.988   3.180
   13SAPS  H10S 1653   4.983   0.827   3.189
   13SAPS  C211 1654   4.836   0.869   3.333
   13SAPS  H11R 1655   4.729   0.842   3.332
   13SAPS  C212 1656   4.908   0.880   3.447
   13SAPS  H12R 1657   4.864   0.848   3.542
   13SAPS  C213 1658   5.059   0.902   3.447
   13SAPS  H13R 1659   5.091   0.960   3.358
   13SAPS  H13S 1660   5.104   0.801   3.436
   13SAPS  C214 1661   5.097   0.983   3.565
   13SAPS  H14R 1662   5.065   1.088   3.568
   13SAPS  C215 1663   5.161   0.932   3.671
   13SAPS  H15R 1664   5.193   1.002   3.748
   13SAPS  C216 1665   5.187   0.786   3.695
   13SAPS  H16R 1666   5.293   0.763   3.672
   13SAPS  H16S 1667   5.125   0.720   3.630
   13SAPS  C217 1668   5.158   0.747   3.840
   13SAPS  H17R 1669   5.049   0.761   3.856
   13SAPS  H17S 1670   5.213   0.818   3.906
   13SAPS  C218 1671   5.207   0.609   3.882
   13SAPS  H18R 1672   5.313   0.598   3.850
   13SAPS  H18S 1673   5.147   0.540   3.820
   13SAPS  C219 1674   5.189   0.560   4.023
   13SAPS  H19R 1675   5.230   0.630   4.099
   13SAPS  H19S 1676   5.268   0.481   4.018
   13SAPS  C220 1677   5.053   0.503   4.061
   13SAPS  H20R 1678   5.009   0.440   3.981
   13SAPS  H20S 1679   4.986   0.592   4.073
   13SAPS  H20T 1680   5.062   0.455   4.161
   13SAPS   C33 1681   5.152   1.080   2.854
   13SAPS   H3X 1682   5.156   1.179   2.903
   13SAPS   H3Y 1683   5.228   1.069   2.773
   13SAPS   C34 1684   5.196   0.977   2.963
   13SAPS   H4X 1685   5.237   0.884   2.919
   13SAPS   H4Y 1686   5.099   0.961   3.015
   13SAPS   C35 1687   5.297   1.023   3.069
   13SAPS   H5X 1688   5.258   1.117   3.112
   13SAPS   H5Y 1689   5.389   1.051   3.014
   13SAPS   C36 1690   5.342   0.928   3.176
   13SAPS   H6X 1691   5.426   0.871   3.129
   13SAPS   H6Y 1692   5.262   0.864   3.219
   13SAPS   C37 1693   5.399   0.995   3.300
   13SAPS   H7X 1694   5.319   1.053   3.350
   13SAPS   H7Y 1695   5.468   1.075   3.266
   13SAPS   C38 1696   5.485   0.893   3.384
   13SAPS   H8X 1697   5.575   0.860   3.326
   13SAPS   H8Y 1698   5.426   0.803   3.410
   13SAPS   C39 1699   5.530   0.947   3.517
   13SAPS   H9X 1700   5.440   1.002   3.549
   13SAPS   H9Y 1701   5.602   1.029   3.496
   13SAPS  C310 1702   5.596   0.839   3.610
   13SAPS  H10X 1703   5.692   0.800   3.570
   13SAPS  H10Y 1704   5.538   0.744   3.612
   13SAPS  C311 1705   5.605   0.898   3.752
   13SAPS  H11X 1706   5.504   0.912   3.797
   13SAPS  H11Y 1707   5.650   1.000   3.748
   13SAPS  C312 1708   5.697   0.806   3.824
   13SAPS  H12X 1709   5.800   0.835   3.792
   13SAPS  H12Y 1710   5.683   0.698   3.801
   13SAPS  C313 1711   5.691   0.826   3.975
   13SAPS  H13X 1712   5.642   0.738   4.021
   13SAPS  H13Y 1713   5.634   0.919   3.997
   13SAPS  C314 1714   5.837   0.833   4.042
   13SAPS  H14X 1715   5.900   0.915   4.002
   13SAPS  H14Y 1716   5.885   0.736   4.016
   13SAPS  C315 1717   5.817   0.843   4.194
   13SAPS  H15X 1718   5.757   0.763   4.242
   13SAPS  H15Y 1719   5.756   0.934   4.213
   13SAPS  C316 1720   5.947   0.871   4.276
   13SAPS  H16X 1721   5.915   0.905   4.376
   13SAPS  H16Y 1722   6.007   0.949   4.224
   13SAPS  C317 1723   6.025   0.743   4.298
   13SAPS  H17X 1724   6.047   0.698   4.199
   13SAPS  H17Y 1725   5.950   0.678   4.348
   13SAPS  C318 1726   6.145   0.770   4.388
   13SAPS  H18X 1727   6.137   0.861   4.450
   13SAPS  H18Y 1728   6.229   0.768   4.315
   13SAPS  H18Z 1729   6.170   0.681   4.450
   14SAPS     N 1730   5.955   3.231   2.132
   14SAPS   HN1 1731   5.909   3.312   2.086
   14SAPS   HN2 1732   5.997   3.169   2.059
   14SAPS   HN3 1733   5.877   3.184   2.182
   14SAPS   C12 1734   6.063   3.285   2.225
   14SAPS  H12A 1735   6.098   3.200   2.283
   14SAPS   C13 1736   6.200   3.312   2.154
   14SAPS  O13A 1737   6.217   3.294   2.028
   14SAPS  O13B 1738   6.299   3.353   2.221
   14SAPS   C11 1739   6.011   3.404   2.314
   14SAPS  H11A 1740   6.019   3.497   2.254
   14SAPS  H11B 1741   6.071   3.401   2.408
   14SAPS     P 1742   5.779   3.485   2.421
   14SAPS   O13 1743   5.823   3.622   2.384
   14SAPS   O14 1744   5.640   3.443   2.376
   14SAPS   O12 1745   5.875   3.377   2.360
   14SAPS   O11 1746   5.789   3.478   2.574
   14SAPS    C1 1747   5.812   3.363   2.642
   14SAPS    HA 1748   5.726   3.294   2.625
   14SAPS    HB 1749   5.909   3.319   2.612
   14SAPS    C2 1750   5.808   3.380   2.796
   14SAPS    HS 1751   5.825   3.286   2.853
   14SAPS   O21 1752   5.685   3.446   2.838
   14SAPS   C21 1753   5.582   3.367   2.837
   14SAPS   O22 1754   5.572   3.253   2.797
   14SAPS   C22 1755   5.458   3.444   2.889
   14SAPS   H2R 1756   5.492   3.542   2.931
   14SAPS   H2S 1757   5.407   3.461   2.792
   14SAPS    C3 1758   5.923   3.476   2.844
   14SAPS    HX 1759   5.890   3.579   2.821
   14SAPS    HY 1760   6.014   3.442   2.789
   14SAPS   O31 1761   5.942   3.455   2.986
   14SAPS   C31 1762   6.065   3.473   3.029
   14SAPS   O32 1763   6.159   3.520   2.968
   14SAPS   C32 1764   6.069   3.447   3.181
   14SAPS   H2X 1765   6.060   3.338   3.201
   14SAPS   H2Y 1766   5.986   3.504   3.227
   14SAPS   C23 1767   5.367   3.351   2.981
   14SAPS   H3R 1768   5.425   3.325   3.073
   14SAPS   H3S 1769   5.354   3.256   2.924
   14SAPS   C24 1770   5.219   3.406   2.985
   14SAPS   H4R 1771   5.161   3.312   2.997
   14SAPS   H4S 1772   5.187   3.437   2.883
   14SAPS   C25 1773   5.182   3.518   3.080
   14SAPS   H5R 1774   5.172   3.614   3.026
   14SAPS   C26 1775   5.156   3.502   3.213
   14SAPS   H6R 1776   5.140   3.594   3.272
   14SAPS   C27 1777   5.151   3.373   3.298
   14SAPS   H7R 1778   5.144   3.281   3.236
   14SAPS   H7S 1779   5.058   3.367   3.359
   14SAPS   C28 1780   5.275   3.363   3.381
   14SAPS   H8R 1781   5.362   3.401   3.326
   14SAPS   C29 1782   5.293   3.288   3.487
   14SAPS   H9R 1783   5.394   3.299   3.530
   14SAPS  C210 1784   5.186   3.241   3.581
   14SAPS  H10R 1785   5.089   3.296   3.580
   14SAPS  H10S 1786   5.223   3.277   3.679
   14SAPS  C211 1787   5.161   3.098   3.583
   14SAPS  H11R 1788   5.140   3.075   3.477
   14SAPS  C212 1789   5.185   3.007   3.673
   14SAPS  H12R 1790   5.153   2.905   3.649
   14SAPS  C213 1791   5.241   3.036   3.811
   14SAPS  H13R 1792   5.197   2.974   3.892
   14SAPS  H13S 1793   5.211   3.136   3.848
   14SAPS  C214 1794   5.391   3.033   3.823
   14SAPS  H14R 1795   5.445   3.102   3.756
   14SAPS  C215 1796   5.464   2.955   3.901
   14SAPS  H15R 1797   5.572   2.975   3.905
   14SAPS  C216 1798   5.418   2.853   4.008
   14SAPS  H16R 1799   5.339   2.898   4.072
   14SAPS  H16S 1800   5.497   2.818   4.078
   14SAPS  C217 1801   5.347   2.727   3.947
   14SAPS  H17R 1802   5.265   2.767   3.884
   14SAPS  H17S 1803   5.284   2.670   4.019
   14SAPS  C218 1804   5.433   2.626   3.866
   14SAPS  H18R 1805   5.500   2.580   3.941
   14SAPS  H18S 1806   5.473   2.686   3.781
   14SAPS  C219 1807   5.355   2.515   3.799
   14SAPS  H19R 1808   5.298   2.460   3.877
   14SAPS  H19S 1809   5.427   2.441   3.758
   14SAPS  C220 1810   5.270   2.557   3.686
   14SAPS  H20R 1811   5.168   2.585   3.721
   14SAPS  H20S 1812   5.249   2.475   3.615
   14SAPS  H20T 1813   5.318   2.638   3.626
   14SAPS   C33 1814   6.200   3.500   3.241
   14SAPS   H3X 1815   6.215   3.610   3.230
   14SAPS   H3Y 1816   6.276   3.448   3.179
   14SAPS   C34 1817   6.226   3.454   3.390
   14SAPS   H4X 1818   6.216   3.344   3.380
   14SAPS   H4Y 1819   6.148   3.494   3.459
   14SAPS   C35 1820   6.372   3.464   3.442
   14SAPS   H5X 1821   6.390   3.570   3.468
   14SAPS   H5Y 1822   6.440   3.438   3.358
   14SAPS   C36 1823   6.423   3.367   3.557
   14SAPS   H6X 1824   6.530   3.388   3.579
   14SAPS   H6Y 1825   6.426   3.259   3.532
   14SAPS   C37 1826   6.339   3.392   3.687
   14SAPS   H7X 1827   6.240   3.347   3.662
   14SAPS   H7Y 1828   6.315   3.499   3.703
   14SAPS   C38 1829   6.396   3.321   3.812
   14SAPS   H8X 1830   6.506   3.331   3.827
   14SAPS   H8Y 1831   6.376   3.212   3.804
   14SAPS   C39 1832   6.321   3.363   3.937
   14SAPS   H9X 1833   6.327   3.474   3.943
   14SAPS   H9Y 1834   6.381   3.317   4.019
   14SAPS  C310 1835   6.175   3.310   3.955
   14SAPS  H10X 1836   6.182   3.199   3.956
   14SAPS  H10Y 1837   6.113   3.331   3.865
   14SAPS  C311 1838   6.110   3.354   4.090
   14SAPS  H11X 1839   6.145   3.460   4.096
   14SAPS  H11Y 1840   6.162   3.305   4.175
   14SAPS  C312 1841   5.957   3.332   4.119
   14SAPS  H12X 1842   5.924   3.373   4.217
   14SAPS  H12Y 1843   5.938   3.223   4.114
   14SAPS  C313 1844   5.872   3.385   4.003
   14SAPS  H13X 1845   5.893   3.342   3.903
   14SAPS  H13Y 1846   5.890   3.495   4.001
   14SAPS  C314 1847   5.716   3.365   4.016
   14SAPS  H14X 1848   5.694   3.257   4.007
   14SAPS  H14Y 1849   5.676   3.415   3.925
   14SAPS  C315 1850   5.655   3.435   4.137
   14SAPS  H15X 1851   5.681   3.543   4.134
   14SAPS  H15Y 1852   5.698   3.392   4.230
   14SAPS  C316 1853   5.501   3.425   4.137
   14SAPS  H16X 1854   5.476   3.324   4.099
   14SAPS  H16Y 1855   5.461   3.497   4.062
   14SAPS  C317 1856   5.429   3.461   4.276
   14SAPS  H17X 1857   5.453   3.564   4.310
   14SAPS  H17Y 1858   5.473   3.397   4.354
   14SAPS  C318 1859   5.282   3.441   4.280
   14SAPS  H18X 1860   5.229   3.519   4.222
   14SAPS  H18Y 1861   5.238   3.456   4.381
   14SAPS  H18Z 1862   5.254   3.341   4.242
   15SAPS     N 1863   4.520   3.638   1.775
   15SAPS   HN1 1864   4.445   3.588   1.723
   15SAPS   HN2 1865   4.609   3.610   1.729
   15SAPS   HN3 1866   4.508   3.617   1.876
   15SAPS   C12 1867   4.486   3.781   1.758
   15SAPS  H12A 1868   4.567   3.840   1.798
   15SAPS   C13 1869   4.473   3.820   1.613
   15SAPS  O13A 1870   4.488   3.748   1.517
   15SAPS  O13B 1871   4.433   3.947   1.595
   15SAPS   C11 1872   4.352   3.818   1.832
   15SAPS  H11A 1873   4.271   3.766   1.777
   15SAPS  H11B 1874   4.344   3.929   1.823
   15SAPS     P 1875   4.217   3.771   2.045
   15SAPS   O13 1876   4.160   3.910   2.049
   15SAPS   O14 1877   4.131   3.665   1.984
   15SAPS   O12 1878   4.354   3.776   1.969
   15SAPS   O11 1879   4.258   3.726   2.188
   15SAPS    C1 1880   4.376   3.781   2.255
   15SAPS    HA 1881   4.466   3.733   2.212
   15SAPS    HB 1882   4.392   3.888   2.233
   15SAPS    C2 1883   4.378   3.772   2.409
   15SAPS    HS 1884   4.474   3.820   2.440
   15SAPS   O21 1885   4.360   3.635   2.462
   15SAPS   C21 1886   4.463   3.564   2.455
   15SAPS   O22 1887   4.578   3.594   2.420
   15SAPS   C22 1888   4.434   3.422   2.514
   15SAPS   H2R 1889   4.348   3.426   2.583
   15SAPS   H2S 1890   4.401   3.367   2.423
   15SAPS    C3 1891   4.265   3.862   2.459
   15SAPS    HX 1892   4.182   3.842   2.387
   15SAPS    HY 1893   4.299   3.967   2.452
   15SAPS   O31 1894   4.233   3.834   2.595
   15SAPS   C31 1895   4.133   3.747   2.612
   15SAPS   O32 1896   4.059   3.705   2.524
   15SAPS   C32 1897   4.129   3.705   2.764
   15SAPS   H2X 1898   4.214   3.633   2.774
   15SAPS   H2Y 1899   4.032   3.653   2.780
   15SAPS   C23 1900   4.547   3.346   2.588
   15SAPS   H3R 1901   4.578   3.405   2.677
   15SAPS   H3S 1902   4.631   3.327   2.518
   15SAPS   C24 1903   4.511   3.200   2.646
   15SAPS   H4R 1904   4.439   3.149   2.577
   15SAPS   H4S 1905   4.467   3.221   2.746
   15SAPS   C25 1906   4.620   3.097   2.662
   15SAPS   H5R 1907   4.644   3.036   2.574
   15SAPS   C26 1908   4.682   3.077   2.778
   15SAPS   H6R 1909   4.750   2.991   2.790
   15SAPS   C27 1910   4.672   3.155   2.905
   15SAPS   H7R 1911   4.644   3.259   2.880
   15SAPS   H7S 1912   4.771   3.166   2.954
   15SAPS   C28 1913   4.575   3.096   3.003
   15SAPS   H8R 1914   4.469   3.098   2.976
   15SAPS   C29 1915   4.608   3.056   3.123
   15SAPS   H9R 1916   4.531   3.010   3.188
   15SAPS  C210 1917   4.742   3.056   3.199
   15SAPS  H10R 1918   4.804   3.014   3.118
   15SAPS  H10S 1919   4.737   2.981   3.281
   15SAPS  C211 1920   4.789   3.194   3.241
   15SAPS  H11R 1921   4.828   3.258   3.160
   15SAPS  C212 1922   4.783   3.235   3.370
   15SAPS  H12R 1923   4.824   3.332   3.403
   15SAPS  C213 1924   4.719   3.160   3.489
   15SAPS  H13R 1925   4.804   3.118   3.545
   15SAPS  H13S 1926   4.656   3.076   3.450
   15SAPS  C214 1927   4.633   3.256   3.564
   15SAPS  H14R 1928   4.574   3.328   3.505
   15SAPS  C215 1929   4.621   3.264   3.702
   15SAPS  H15R 1930   4.533   3.324   3.729
   15SAPS  C216 1931   4.696   3.169   3.795
   15SAPS  H16R 1932   4.741   3.083   3.742
   15SAPS  H16S 1933   4.612   3.129   3.856
   15SAPS  C217 1934   4.799   3.228   3.889
   15SAPS  H17R 1935   4.750   3.312   3.941
   15SAPS  H17S 1936   4.874   3.271   3.819
   15SAPS  C218 1937   4.867   3.125   3.980
   15SAPS  H18R 1938   4.926   3.063   3.909
   15SAPS  H18S 1939   4.782   3.072   4.027
   15SAPS  C219 1940   4.963   3.177   4.086
   15SAPS  H19R 1941   5.038   3.241   4.033
   15SAPS  H19S 1942   5.011   3.084   4.123
   15SAPS  C220 1943   4.907   3.273   4.192
   15SAPS  H20R 1944   4.881   3.374   4.154
   15SAPS  H20S 1945   4.967   3.284   4.285
   15SAPS  H20T 1946   4.806   3.236   4.219
   15SAPS   C33 1947   4.136   3.827   2.856
   15SAPS   H3X 1948   4.064   3.899   2.811
   15SAPS   H3Y 1949   4.237   3.872   2.857
   15SAPS   C34 1950   4.092   3.790   2.998
   15SAPS   H4X 1951   4.153   3.706   3.038
   15SAPS   H4Y 1952   3.989   3.750   2.984
   15SAPS   C35 1953   4.103   3.902   3.107
   15SAPS   H5X 1954   4.026   3.982   3.100
   15SAPS   H5Y 1955   4.201   3.947   3.077
   15SAPS   C36 1956   4.112   3.858   3.250
   15SAPS   H6X 1957   4.021   3.799   3.275
   15SAPS   H6Y 1958   4.104   3.954   3.304
   15SAPS   C37 1959   4.246   3.807   3.304
   15SAPS   H7X 1960   4.332   3.876   3.296
   15SAPS   H7Y 1961   4.270   3.713   3.251
   15SAPS   C38 1962   4.222   3.767   3.450
   15SAPS   H8X 1963   4.135   3.698   3.444
   15SAPS   H8Y 1964   4.184   3.850   3.513
   15SAPS   C39 1965   4.348   3.702   3.516
   15SAPS   H9X 1966   4.442   3.757   3.491
   15SAPS   H9Y 1967   4.359   3.604   3.466
   15SAPS  C310 1968   4.338   3.692   3.673
   15SAPS  H10X 1969   4.262   3.616   3.704
   15SAPS  H10Y 1970   4.317   3.794   3.710
   15SAPS  C311 1971   4.482   3.660   3.734
   15SAPS  H11X 1972   4.551   3.738   3.694
   15SAPS  H11Y 1973   4.516   3.573   3.674
   15SAPS  C312 1974   4.492   3.636   3.882
   15SAPS  H12X 1975   4.416   3.566   3.922
   15SAPS  H12Y 1976   4.485   3.739   3.924
   15SAPS  C313 1977   4.634   3.591   3.928
   15SAPS  H13X 1978   4.706   3.676   3.921
   15SAPS  H13Y 1979   4.663   3.508   3.861
   15SAPS  C314 1980   4.654   3.535   4.070
   15SAPS  H14X 1981   4.758   3.497   4.073
   15SAPS  H14Y 1982   4.585   3.448   4.073
   15SAPS  C315 1983   4.595   3.634   4.179
   15SAPS  H15X 1984   4.486   3.616   4.187
   15SAPS  H15Y 1985   4.607   3.734   4.131
   15SAPS  C316 1986   4.663   3.644   4.317
   15SAPS  H16X 1987   4.619   3.730   4.372
   15SAPS  H16Y 1988   4.773   3.639   4.308
   15SAPS  C317 1989   4.611   3.530   4.411
   15SAPS  H17X 1990   4.609   3.427   4.369
   15SAPS  H17Y 1991   4.500   3.533   4.417
   15SAPS  C318 1992   4.672   3.527   4.550
   15SAPS  H18X 1993   4.644   3.440   4.612
   15SAPS  H18Y 1994   4.635   3.613   4.609
   15SAPS  H18Z 1995   4.783   3.532   4.550
   16SAPS     N 1996   6.569   4.106   1.999
   16SAPS   HN1 1997   6.580   4.200   1.956
   16SAPS   HN2 1998   6.520   4.125   2.089
   16SAPS   HN3 1999   6.660   4.059   2.018
   16SAPS   C12 2000   6.482   4.025   1.910
   16SAPS  H12A 2001   6.388   4.074   1.891
   16SAPS   C13 2002   6.541   3.986   1.773
   16SAPS  O13A 2003   6.663   3.957   1.765
   16SAPS  O13B 2004   6.456   3.953   1.686
   16SAPS   C11 2005   6.451   3.892   1.982
   16SAPS  H11A 2006   6.544   3.832   1.985
   16SAPS  H11B 2007   6.376   3.827   1.933
   16SAPS     P 2008   6.256   3.914   2.153
   16SAPS   O13 2009   6.177   4.030   2.100
   16SAPS   O14 2010   6.203   3.776   2.121
   16SAPS   O12 2011   6.411   3.918   2.116
   16SAPS   O11 2012   6.273   3.924   2.309
   16SAPS    C1 2013   6.304   4.048   2.374
   16SAPS    HA 2014   6.412   4.045   2.398
   16SAPS    HB 2015   6.314   4.134   2.305
   16SAPS    C2 2016   6.224   4.076   2.503
   16SAPS    HS 2017   6.269   4.167   2.549
   16SAPS   O21 2018   6.208   3.959   2.583
   16SAPS   C21 2019   6.195   3.993   2.711
   16SAPS   O22 2020   6.220   4.100   2.755
   16SAPS   C22 2021   6.143   3.873   2.790
   16SAPS   H2R 2022   6.033   3.857   2.782
   16SAPS   H2S 2023   6.182   3.779   2.746
   16SAPS    C3 2024   6.079   4.112   2.465
   16SAPS    HX 2025   6.029   4.021   2.426
   16SAPS    HY 2026   6.074   4.192   2.389
   16SAPS   O31 2027   6.004   4.153   2.582
   16SAPS   C31 2028   5.924   4.252   2.582
   16SAPS   O32 2029   5.892   4.328   2.490
   16SAPS   C32 2030   5.832   4.245   2.710
   16SAPS   H2X 2031   5.780   4.148   2.695
   16SAPS   H2Y 2032   5.761   4.329   2.696
   16SAPS   C23 2033   6.200   3.876   2.933
   16SAPS   H3R 2034   6.307   3.904   2.928
   16SAPS   H3S 2035   6.201   3.776   2.983
   16SAPS   C24 2036   6.127   3.971   3.035
   16SAPS   H4R 2037   6.138   4.075   2.996
   16SAPS   H4S 2038   6.183   3.968   3.131
   16SAPS   C25 2039   5.990   3.919   3.052
   16SAPS   H5R 2040   5.925   3.941   2.966
   16SAPS   C26 2041   5.935   3.863   3.156
   16SAPS   H6R 2042   5.830   3.831   3.143
   16SAPS   C27 2043   6.005   3.832   3.288
   16SAPS   H7R 2044   6.103   3.783   3.268
   16SAPS   H7S 2045   5.954   3.759   3.355
   16SAPS   C28 2046   6.036   3.953   3.372
   16SAPS   H8R 2047   5.997   4.045   3.326
   16SAPS   C29 2048   6.113   3.943   3.479
   16SAPS   H9R 2049   6.132   4.032   3.541
   16SAPS  C210 2050   6.184   3.816   3.521
   16SAPS  H10R 2051   6.151   3.728   3.461
   16SAPS  H10S 2052   6.161   3.794   3.627
   16SAPS  C211 2053   6.330   3.857   3.501
   16SAPS  H11R 2054   6.369   3.842   3.399
   16SAPS  C212 2055   6.416   3.891   3.599
   16SAPS  H12R 2056   6.504   3.948   3.566
   16SAPS  C213 2057   6.381   3.901   3.751
   16SAPS  H13R 2058   6.475   3.926   3.806
   16SAPS  H13S 2059   6.350   3.798   3.779
   16SAPS  C214 2060   6.273   3.991   3.793
   16SAPS  H14R 2061   6.225   4.039   3.706
   16SAPS  C215 2062   6.230   4.006   3.918
   16SAPS  H15R 2063   6.153   4.083   3.935
   16SAPS  C216 2064   6.289   3.951   4.050
   16SAPS  H16R 2065   6.391   3.917   4.022
   16SAPS  H16S 2066   6.236   3.861   4.086
   16SAPS  C217 2067   6.288   4.054   4.164
   16SAPS  H17R 2068   6.182   4.064   4.198
   16SAPS  H17S 2069   6.317   4.156   4.132
   16SAPS  C218 2070   6.371   4.010   4.282
   16SAPS  H18R 2071   6.372   4.099   4.348
   16SAPS  H18S 2072   6.472   3.995   4.237
   16SAPS  C219 2073   6.332   3.891   4.368
   16SAPS  H19R 2074   6.312   3.803   4.303
   16SAPS  H19S 2075   6.238   3.921   4.419
   16SAPS  C220 2076   6.445   3.861   4.471
   16SAPS  H20R 2077   6.437   3.937   4.551
   16SAPS  H20S 2078   6.543   3.859   4.419
   16SAPS  H20T 2079   6.442   3.757   4.511
   16SAPS   C33 2080   5.903   4.259   2.850
   16SAPS   H3X 2081   5.961   4.354   2.850
   16SAPS   H3Y 2082   5.970   4.173   2.870
   16SAPS   C34 2083   5.811   4.284   2.976
   16SAPS   H4X 2084   5.749   4.192   2.985
   16SAPS   H4Y 2085   5.753   4.376   2.957
   16SAPS   C35 2086   5.888   4.280   3.110
   16SAPS   H5X 2087   5.984   4.335   3.101
   16SAPS   H5Y 2088   5.908   4.177   3.145
   16SAPS   C36 2089   5.815   4.343   3.224
   16SAPS   H6X 2090   5.715   4.298   3.238
   16SAPS   H6Y 2091   5.800   4.452   3.216
   16SAPS   C37 2092   5.898   4.315   3.348
   16SAPS   H7X 2093   5.988   4.380   3.347
   16SAPS   H7Y 2094   5.927   4.209   3.363
   16SAPS   C38 2095   5.809   4.353   3.473
   16SAPS   H8X 2096   5.720   4.287   3.471
   16SAPS   H8Y 2097   5.778   4.460   3.464
   16SAPS   C39 2098   5.872   4.336   3.613
   16SAPS   H9X 2099   5.951   4.414   3.622
   16SAPS   H9Y 2100   5.914   4.233   3.622
   16SAPS  C310 2101   5.760   4.356   3.717
   16SAPS  H10X 2102   5.692   4.273   3.689
   16SAPS  H10Y 2103   5.699   4.448   3.704
   16SAPS  C311 2104   5.808   4.339   3.859
   16SAPS  H11X 2105   5.899   4.398   3.885
   16SAPS  H11Y 2106   5.848   4.237   3.874
   16SAPS  C312 2107   5.696   4.369   3.962
   16SAPS  H12X 2108   5.611   4.308   3.927
   16SAPS  H12Y 2109   5.657   4.473   3.960
   16SAPS  C313 2110   5.723   4.326   4.109
   16SAPS  H13X 2111   5.805   4.381   4.159
   16SAPS  H13Y 2112   5.756   4.220   4.113
   16SAPS  C314 2113   5.601   4.335   4.199
   16SAPS  H14X 2114   5.518   4.272   4.160
   16SAPS  H14Y 2115   5.566   4.440   4.208
   16SAPS  C315 2116   5.636   4.289   4.343
   16SAPS  H15X 2117   5.617   4.376   4.409
   16SAPS  H15Y 2118   5.744   4.270   4.357
   16SAPS  C316 2119   5.568   4.160   4.396
   16SAPS  H16X 2120   5.611   4.079   4.333
   16SAPS  H16Y 2121   5.459   4.173   4.379
   16SAPS  C317 2122   5.584   4.139   4.543
   16SAPS  H17X 2123   5.520   4.200   4.610
   16SAPS  H17Y 2124   5.685   4.173   4.575
   16SAPS  C318 2125   5.551   4.002   4.592
   16SAPS  H18X 2126   5.446   3.969   4.577
   16SAPS  H18Y 2127   5.576   3.997   4.700
   16SAPS  H18Z 2128   5.607   3.918   4.544
   17SAPS     N 2129   1.625   1.410   2.051
   17SAPS   HN1 2130   1.682   1.355   2.118
   17SAPS   HN2 2131   1.523   1.402   2.064
   17SAPS   HN3 2132   1.646   1.370   1.957
   17SAPS   C12 2133   1.678   1.549   2.052
   17SAPS  H12A 2134   1.717   1.556   2.152
   17SAPS   C13 2135   1.799   1.569   1.953
   17SAPS  O13A 2136   1.822   1.479   1.870
   17SAPS  O13B 2137   1.864   1.676   1.965
   17SAPS   C11 2138   1.560   1.653   2.023
   17SAPS  H11A 2139   1.525   1.638   1.919
   17SAPS  H11B 2140   1.612   1.749   2.040
   17SAPS     P 2141   1.308   1.629   2.105
   17SAPS   O13 2142   1.271   1.652   1.964
   17SAPS   O14 2143   1.252   1.504   2.169
   17SAPS   O12 2144   1.459   1.641   2.123
   17SAPS   O11 2145   1.249   1.763   2.176
   17SAPS    C1 2146   1.330   1.875   2.202
   17SAPS    HA 2147   1.427   1.872   2.150
   17SAPS    HB 2148   1.279   1.964   2.160
   17SAPS    C2 2149   1.345   1.903   2.353
   17SAPS    HS 2150   1.391   2.003   2.367
   17SAPS   O21 2151   1.427   1.801   2.406
   17SAPS   C21 2152   1.559   1.817   2.390
   17SAPS   O22 2153   1.616   1.906   2.333
   17SAPS   C22 2154   1.619   1.680   2.429
   17SAPS   H2R 2155   1.590   1.655   2.533
   17SAPS   H2S 2156   1.567   1.601   2.372
   17SAPS    C3 2157   1.213   1.895   2.420
   17SAPS    HX 2158   1.176   1.790   2.411
   17SAPS    HY 2159   1.143   1.963   2.368
   17SAPS   O31 2160   1.218   1.950   2.554
   17SAPS   C31 2161   1.126   1.898   2.639
   17SAPS   O32 2162   1.047   1.814   2.617
   17SAPS   C32 2163   1.144   1.952   2.780
   17SAPS   H2X 2164   1.063   2.028   2.792
   17SAPS   H2Y 2165   1.241   2.007   2.786
   17SAPS   C23 2166   1.769   1.664   2.407
   17SAPS   H3R 2167   1.809   1.698   2.309
   17SAPS   H3S 2168   1.792   1.555   2.414
   17SAPS   C24 2169   1.839   1.724   2.527
   17SAPS   H4R 2170   1.787   1.692   2.620
   17SAPS   H4S 2171   1.819   1.830   2.501
   17SAPS   C25 2172   1.987   1.699   2.531
   17SAPS   H5R 2173   2.039   1.719   2.436
   17SAPS   C26 2174   2.058   1.641   2.627
   17SAPS   H6R 2175   2.165   1.630   2.603
   17SAPS   C27 2176   2.012   1.585   2.760
   17SAPS   H7R 2177   1.909   1.546   2.756
   17SAPS   H7S 2178   2.007   1.674   2.827
   17SAPS   C28 2179   2.106   1.480   2.818
   17SAPS   H8R 2180   2.143   1.401   2.752
   17SAPS   C29 2181   2.145   1.477   2.942
   17SAPS   H9R 2182   2.204   1.390   2.975
   17SAPS  C210 2183   2.095   1.568   3.054
   17SAPS  H10R 2184   1.989   1.547   3.083
   17SAPS  H10S 2185   2.094   1.672   3.015
   17SAPS  C211 2186   2.180   1.550   3.174
   17SAPS  H11R 2187   2.278   1.600   3.166
   17SAPS  C212 2188   2.155   1.473   3.280
   17SAPS  H12R 2189   2.225   1.463   3.364
   17SAPS  C213 2190   2.027   1.391   3.297
   17SAPS  H13R 2191   1.990   1.370   3.195
   17SAPS  H13S 2192   1.952   1.459   3.343
   17SAPS  C214 2193   2.034   1.263   3.375
   17SAPS  H14R 2194   2.085   1.265   3.472
   17SAPS  C215 2195   2.020   1.142   3.324
   17SAPS  H15R 2196   2.041   1.054   3.387
   17SAPS  C216 2197   1.978   1.113   3.181
   17SAPS  H16R 2198   1.922   1.196   3.133
   17SAPS  H16S 2199   1.911   1.024   3.179
   17SAPS  C217 2200   2.109   1.069   3.100
   17SAPS  H17R 2201   2.143   0.973   3.145
   17SAPS  H17S 2202   2.194   1.137   3.118
   17SAPS  C218 2203   2.081   1.053   2.944
   17SAPS  H18R 2204   2.046   1.155   2.920
   17SAPS  H18S 2205   1.993   0.989   2.919
   17SAPS  C219 2206   2.206   1.031   2.853
   17SAPS  H19R 2207   2.245   0.927   2.855
   17SAPS  H19S 2208   2.286   1.103   2.880
   17SAPS  C220 2209   2.180   1.052   2.703
   17SAPS  H20R 2210   2.098   0.984   2.672
   17SAPS  H20S 2211   2.278   1.051   2.650
   17SAPS  H20T 2212   2.132   1.151   2.689
   17SAPS   C33 2213   1.139   1.847   2.892
   17SAPS   H3X 2214   1.222   1.774   2.889
   17SAPS   H3Y 2215   1.045   1.791   2.875
   17SAPS   C34 2216   1.129   1.899   3.033
   17SAPS   H4X 2217   1.085   1.814   3.088
   17SAPS   H4Y 2218   1.056   1.982   3.029
   17SAPS   C35 2219   1.264   1.950   3.080
   17SAPS   H5X 2220   1.289   2.040   3.019
   17SAPS   H5Y 2221   1.342   1.878   3.048
   17SAPS   C36 2222   1.255   1.974   3.234
   17SAPS   H6X 2223   1.216   1.876   3.268
   17SAPS   H6Y 2224   1.177   2.052   3.249
   17SAPS   C37 2225   1.382   1.998   3.305
   17SAPS   H7X 2226   1.425   2.100   3.300
   17SAPS   H7Y 2227   1.470   1.942   3.267
   17SAPS   C38 2228   1.365   1.970   3.459
   17SAPS   H8X 2229   1.335   1.864   3.472
   17SAPS   H8Y 2230   1.279   2.035   3.487
   17SAPS   C39 2231   1.504   1.989   3.535
   17SAPS   H9X 2232   1.529   2.097   3.529
   17SAPS   H9Y 2233   1.581   1.926   3.488
   17SAPS  C310 2234   1.501   1.955   3.681
   17SAPS  H10X 2235   1.585   1.998   3.739
   17SAPS  H10Y 2236   1.523   1.847   3.689
   17SAPS  C311 2237   1.368   1.974   3.758
   17SAPS  H11X 2238   1.274   1.963   3.700
   17SAPS  H11Y 2239   1.364   2.080   3.792
   17SAPS  C312 2240   1.355   1.886   3.886
   17SAPS  H12X 2241   1.435   1.911   3.959
   17SAPS  H12Y 2242   1.383   1.781   3.861
   17SAPS  C313 2243   1.206   1.876   3.933
   17SAPS  H13X 2244   1.196   1.801   4.014
   17SAPS  H13Y 2245   1.142   1.833   3.853
   17SAPS  C314 2246   1.164   2.015   3.974
   17SAPS  H14X 2247   1.180   2.101   3.905
   17SAPS  H14Y 2248   1.226   2.046   4.060
   17SAPS  C315 2249   1.012   2.017   3.999
   17SAPS  H15X 2250   0.982   1.939   4.073
   17SAPS  H15Y 2251   0.966   2.006   3.899
   17SAPS  C316 2252   0.959   2.146   4.053
   17SAPS  H16X 2253   0.993   2.219   3.977
   17SAPS  H16Y 2254   1.007   2.175   4.149
   17SAPS  C317 2255   0.805   2.130   4.080
   17SAPS  H17X 2256   0.798   2.042   4.147
   17SAPS  H17Y 2257   0.766   2.105   3.979
   17SAPS  C318 2258   0.731   2.249   4.144
   17SAPS  H18X 2259   0.730   2.327   4.065
   17SAPS  H18Y 2260   0.800   2.287   4.222
   17SAPS  H18Z 2261   0.626   2.229   4.176
   18SAPS     N 2262   5.122   2.748   2.114
   18SAPS   HN1 2263   5.155   2.658   2.156
   18SAPS   HN2 2264   5.190   2.767   2.038
   18SAPS   HN3 2265   5.146   2.821   2.184
   18SAPS   C12 2266   4.980   2.761   2.062
   18SAPS  H12A 2267   4.917   2.784   2.147
   18SAPS   C13 2268   4.959   2.871   1.959
   18SAPS  O13A 2269   5.049   2.951   1.934
   18SAPS  O13B 2270   4.841   2.893   1.924
   18SAPS   C11 2271   4.952   2.620   1.995
   18SAPS  H11A 2272   5.041   2.591   1.937
   18SAPS  H11B 2273   4.867   2.627   1.924
   18SAPS     P 2274   4.793   2.504   2.170
   18SAPS   O13 2275   4.678   2.544   2.080
   18SAPS   O14 2276   4.790   2.367   2.222
   18SAPS   O12 2277   4.939   2.519   2.098
   18SAPS   O11 2278   4.804   2.604   2.289
   18SAPS    C1 2279   4.891   2.571   2.401
   18SAPS    HA 2280   4.968   2.493   2.385
   18SAPS    HB 2281   4.949   2.662   2.428
   18SAPS    C2 2282   4.817   2.542   2.536
   18SAPS    HS 2283   4.888   2.526   2.619
   18SAPS   O21 2284   4.723   2.448   2.514
   18SAPS   C21 2285   4.764   2.329   2.509
   18SAPS   O22 2286   4.879   2.292   2.514
   18SAPS   C22 2287   4.638   2.241   2.482
   18SAPS   H2R 2288   4.562   2.302   2.430
   18SAPS   H2S 2289   4.663   2.162   2.408
   18SAPS    C3 2290   4.762   2.686   2.579
   18SAPS    HX 2291   4.703   2.728   2.495
   18SAPS    HY 2292   4.844   2.760   2.592
   18SAPS   O31 2293   4.671   2.681   2.694
   18SAPS   C31 2294   4.730   2.657   2.809
   18SAPS   O32 2295   4.852   2.647   2.818
   18SAPS   C32 2296   4.628   2.632   2.922
   18SAPS   H2X 2297   4.588   2.529   2.910
   18SAPS   H2Y 2298   4.541   2.699   2.909
   18SAPS   C23 2299   4.573   2.171   2.607
   18SAPS   H3R 2300   4.646   2.118   2.672
   18SAPS   H3S 2301   4.499   2.097   2.568
   18SAPS   C24 2302   4.488   2.262   2.696
   18SAPS   H4R 2303   4.398   2.290   2.636
   18SAPS   H4S 2304   4.540   2.355   2.729
   18SAPS   C25 2305   4.440   2.181   2.813
   18SAPS   H5R 2306   4.363   2.110   2.780
   18SAPS   C26 2307   4.469   2.193   2.944
   18SAPS   H6R 2308   4.423   2.131   3.023
   18SAPS   C27 2309   4.569   2.287   3.005
   18SAPS   H7R 2310   4.503   2.374   3.027
   18SAPS   H7S 2311   4.638   2.331   2.930
   18SAPS   C28 2312   4.635   2.231   3.126
   18SAPS   H8R 2313   4.741   2.202   3.118
   18SAPS   C29 2314   4.588   2.225   3.252
   18SAPS   H9R 2315   4.641   2.182   3.337
   18SAPS  C210 2316   4.440   2.258   3.302
   18SAPS  H10R 2317   4.377   2.294   3.218
   18SAPS  H10S 2318   4.435   2.358   3.352
   18SAPS  C211 2319   4.369   2.158   3.391
   18SAPS  H11R 2320   4.320   2.072   3.343
   18SAPS  C212 2321   4.366   2.165   3.529
   18SAPS  H12R 2322   4.311   2.087   3.583
   18SAPS  C213 2323   4.443   2.269   3.603
   18SAPS  H13R 2324   4.513   2.317   3.531
   18SAPS  H13S 2325   4.506   2.214   3.676
   18SAPS  C214 2326   4.351   2.372   3.660
   18SAPS  H14R 2327   4.313   2.427   3.572
   18SAPS  C215 2328   4.321   2.389   3.790
   18SAPS  H15R 2329   4.264   2.479   3.818
   18SAPS  C216 2330   4.379   2.307   3.904
   18SAPS  H16R 2331   4.445   2.224   3.872
   18SAPS  H16S 2332   4.300   2.266   3.971
   18SAPS  C217 2333   4.457   2.400   3.997
   18SAPS  H17R 2334   4.395   2.485   4.033
   18SAPS  H17S 2335   4.538   2.440   3.931
   18SAPS  C218 2336   4.525   2.325   4.115
   18SAPS  H18R 2337   4.590   2.247   4.069
   18SAPS  H18S 2338   4.437   2.280   4.165
   18SAPS  C219 2339   4.596   2.414   4.221
   18SAPS  H19R 2340   4.519   2.475   4.273
   18SAPS  H19S 2341   4.664   2.482   4.166
   18SAPS  C220 2342   4.696   2.337   4.319
   18SAPS  H20R 2343   4.772   2.273   4.271
   18SAPS  H20S 2344   4.634   2.270   4.382
   18SAPS  H20T 2345   4.745   2.420   4.373
   18SAPS   C33 2346   4.694   2.652   3.058
   18SAPS   H3X 2347   4.758   2.743   3.062
   18SAPS   H3Y 2348   4.763   2.568   3.082
   18SAPS   C34 2349   4.593   2.660   3.176
   18SAPS   H4X 2350   4.527   2.572   3.165
   18SAPS   H4Y 2351   4.533   2.753   3.169
   18SAPS   C35 2352   4.660   2.647   3.315
   18SAPS   H5X 2353   4.751   2.711   3.306
   18SAPS   H5Y 2354   4.706   2.546   3.323
   18SAPS   C36 2355   4.573   2.691   3.431
   18SAPS   H6X 2356   4.500   2.610   3.449
   18SAPS   H6Y 2357   4.513   2.784   3.417
   18SAPS   C37 2358   4.656   2.714   3.560
   18SAPS   H7X 2359   4.752   2.758   3.525
   18SAPS   H7Y 2360   4.681   2.616   3.605
   18SAPS   C38 2361   4.586   2.805   3.666
   18SAPS   H8X 2362   4.559   2.894   3.606
   18SAPS   H8Y 2363   4.660   2.837   3.742
   18SAPS   C39 2364   4.461   2.743   3.735
   18SAPS   H9X 2365   4.497   2.665   3.805
   18SAPS   H9Y 2366   4.404   2.700   3.650
   18SAPS  C310 2367   4.372   2.832   3.821
   18SAPS  H10X 2368   4.280   2.777   3.851
   18SAPS  H10Y 2369   4.340   2.906   3.745
   18SAPS  C311 2370   4.424   2.906   3.944
   18SAPS  H11X 2371   4.379   3.007   3.949
   18SAPS  H11Y 2372   4.534   2.918   3.932
   18SAPS  C312 2373   4.402   2.828   4.070
   18SAPS  H12X 2374   4.444   2.725   4.066
   18SAPS  H12Y 2375   4.293   2.823   4.089
   18SAPS  C313 2376   4.476   2.899   4.193
   18SAPS  H13X 2377   4.584   2.920   4.174
   18SAPS  H13Y 2378   4.477   2.834   4.283
   18SAPS  C314 2379   4.404   3.039   4.236
   18SAPS  H14X 2380   4.298   3.014   4.258
   18SAPS  H14Y 2381   4.398   3.121   4.161
   18SAPS  C315 2382   4.461   3.124   4.356
   18SAPS  H15X 2383   4.548   3.173   4.307
   18SAPS  H15Y 2384   4.485   3.060   4.444
   18SAPS  C316 2385   4.356   3.219   4.405
   18SAPS  H16X 2386   4.252   3.181   4.416
   18SAPS  H16Y 2387   4.377   3.307   4.341
   18SAPS  C317 2388   4.386   3.281   4.550
   18SAPS  H17X 2389   4.489   3.324   4.549
   18SAPS  H17Y 2390   4.389   3.202   4.628
   18SAPS  C318 2391   4.275   3.385   4.582
   18SAPS  H18X 2392   4.302   3.419   4.685
   18SAPS  H18Y 2393   4.169   3.351   4.571
   18SAPS  H18Z 2394   4.288   3.474   4.517
   19SAPS     N 2395   5.015   5.021   1.808
   19SAPS   HN1 2396   5.025   4.917   1.809
   19SAPS   HN2 2397   4.947   5.050   1.735
   19SAPS   HN3 2398   5.107   5.052   1.771
   19SAPS   C12 2399   5.004   5.078   1.949
   19SAPS  H12A 2400   5.084   5.035   2.007
   19SAPS   C13 2401   5.016   5.233   1.957
   19SAPS  O13A 2402   5.048   5.295   1.852
   19SAPS  O13B 2403   5.008   5.298   2.063
   19SAPS   C11 2404   4.867   5.036   1.999
   19SAPS  H11A 2405   4.789   5.073   1.928
   19SAPS  H11B 2406   4.855   5.088   2.097
   19SAPS     P 2407   4.885   4.813   2.136
   19SAPS   O13 2408   4.908   4.675   2.084
   19SAPS   O14 2409   4.990   4.875   2.206
   19SAPS   O12 2410   4.854   4.896   2.007
   19SAPS   O11 2411   4.744   4.825   2.216
   19SAPS    C1 2412   4.658   4.713   2.240
   19SAPS    HA 2413   4.557   4.744   2.204
   19SAPS    HB 2414   4.681   4.623   2.180
   19SAPS    C2 2415   4.673   4.654   2.383
   19SAPS    HS 2416   4.614   4.560   2.389
   19SAPS   O21 2417   4.634   4.752   2.484
   19SAPS   C21 2418   4.510   4.796   2.477
   19SAPS   O22 2419   4.426   4.756   2.403
   19SAPS   C22 2420   4.491   4.913   2.579
   19SAPS   H2R 2421   4.531   4.878   2.677
   19SAPS   H2S 2422   4.553   4.997   2.543
   19SAPS    C3 2423   4.817   4.625   2.429
   19SAPS    HX 2424   4.875   4.720   2.433
   19SAPS    HY 2425   4.867   4.558   2.355
   19SAPS   O31 2426   4.810   4.572   2.559
   19SAPS   C31 2427   4.911   4.531   2.618
   19SAPS   O32 2428   5.023   4.519   2.564
   19SAPS   C32 2429   4.878   4.483   2.758
   19SAPS   H2X 2430   4.826   4.385   2.746
   19SAPS   H2Y 2431   4.806   4.561   2.791
   19SAPS   C23 2432   4.351   4.955   2.612
   19SAPS   H3R 2433   4.299   4.985   2.518
   19SAPS   H3S 2434   4.371   5.047   2.671
   19SAPS   C24 2435   4.261   4.844   2.693
   19SAPS   H4R 2436   4.297   4.868   2.796
   19SAPS   H4S 2437   4.288   4.742   2.660
   19SAPS   C25 2438   4.105   4.849   2.691
   19SAPS   H5R 2439   4.057   4.828   2.594
   19SAPS   C26 2440   4.023   4.888   2.793
   19SAPS   H6R 2441   3.916   4.864   2.779
   19SAPS   C27 2442   4.062   4.914   2.935
   19SAPS   H7R 2443   4.144   4.845   2.964
   19SAPS   H7S 2444   3.972   4.895   2.998
   19SAPS   C28 2445   4.091   5.057   2.955
   19SAPS   H8R 2446   4.106   5.117   2.863
   19SAPS   C29 2447   4.098   5.119   3.075
   19SAPS   H9R 2448   4.110   5.228   3.071
   19SAPS  C210 2449   4.074   5.056   3.207
   19SAPS  H10R 2450   4.145   5.100   3.280
   19SAPS  H10S 2451   4.085   4.946   3.204
   19SAPS  C211 2452   3.928   5.077   3.247
   19SAPS  H11R 2453   3.852   5.038   3.177
   19SAPS  C212 2454   3.878   5.121   3.361
   19SAPS  H12R 2455   3.769   5.135   3.362
   19SAPS  C213 2456   3.958   5.152   3.485
   19SAPS  H13R 2457   3.910   5.237   3.539
   19SAPS  H13S 2458   4.059   5.191   3.462
   19SAPS  C214 2459   3.963   5.021   3.559
   19SAPS  H14R 2460   4.025   4.941   3.517
   19SAPS  C215 2461   3.915   4.983   3.672
   19SAPS  H15R 2462   3.943   4.882   3.705
   19SAPS  C216 2463   3.840   5.070   3.774
   19SAPS  H16R 2464   3.784   5.157   3.732
   19SAPS  H16S 2465   3.915   5.105   3.848
   19SAPS  C217 2466   3.725   4.993   3.844
   19SAPS  H17R 2467   3.761   4.891   3.870
   19SAPS  H17S 2468   3.644   4.978   3.770
   19SAPS  C218 2469   3.670   5.057   3.971
   19SAPS  H18R 2470   3.643   5.160   3.938
   19SAPS  H18S 2471   3.753   5.065   4.044
   19SAPS  C219 2472   3.549   4.993   4.043
   19SAPS  H19R 2473   3.535   5.035   4.145
   19SAPS  H19S 2474   3.575   4.886   4.051
   19SAPS  C220 2475   3.420   5.004   3.963
   19SAPS  H20R 2476   3.388   5.110   3.950
   19SAPS  H20S 2477   3.337   4.962   4.024
   19SAPS  H20T 2478   3.420   4.951   3.866
   19SAPS   C33 2479   5.006   4.462   2.837
   19SAPS   H3X 2480   5.057   4.561   2.838
   19SAPS   H3Y 2481   5.063   4.386   2.779
   19SAPS   C34 2482   4.985   4.415   2.981
   19SAPS   H4X 2483   5.081   4.394   3.035
   19SAPS   H4Y 2484   4.915   4.329   2.991
   19SAPS   C35 2485   4.914   4.525   3.063
   19SAPS   H5X 2486   4.813   4.552   3.023
   19SAPS   H5Y 2487   4.980   4.614   3.058
   19SAPS   C36 2488   4.884   4.485   3.213
   19SAPS   H6X 2489   4.821   4.394   3.202
   19SAPS   H6Y 2490   4.815   4.557   3.263
   19SAPS   C37 2491   5.000   4.445   3.301
   19SAPS   H7X 2492   5.054   4.358   3.258
   19SAPS   H7Y 2493   4.958   4.407   3.396
   19SAPS   C38 2494   5.105   4.562   3.319
   19SAPS   H8X 2495   5.126   4.615   3.223
   19SAPS   H8Y 2496   5.191   4.503   3.358
   19SAPS   C39 2497   5.056   4.675   3.408
   19SAPS   H9X 2498   4.984   4.725   3.340
   19SAPS   H9Y 2499   5.139   4.748   3.423
   19SAPS  C310 2500   4.980   4.633   3.535
   19SAPS  H10X 2501   4.892   4.571   3.507
   19SAPS  H10Y 2502   4.960   4.731   3.584
   19SAPS  C311 2503   5.071   4.561   3.635
   19SAPS  H11X 2504   5.165   4.620   3.644
   19SAPS  H11Y 2505   5.106   4.462   3.598
   19SAPS  C312 2506   5.003   4.534   3.770
   19SAPS  H12X 2507   5.039   4.434   3.801
   19SAPS  H12Y 2508   4.895   4.532   3.743
   19SAPS  C313 2509   5.015   4.645   3.874
   19SAPS  H13X 2510   4.966   4.741   3.847
   19SAPS  H13Y 2511   5.122   4.668   3.894
   19SAPS  C314 2512   4.945   4.606   4.003
   19SAPS  H14X 2513   4.962   4.692   4.071
   19SAPS  H14Y 2514   4.991   4.514   4.044
   19SAPS  C315 2515   4.792   4.586   3.991
   19SAPS  H15X 2516   4.780   4.481   3.957
   19SAPS  H15Y 2517   4.746   4.663   3.926
   19SAPS  C316 2518   4.713   4.578   4.126
   19SAPS  H16X 2519   4.757   4.651   4.197
   19SAPS  H16Y 2520   4.727   4.472   4.157
   19SAPS  C317 2521   4.563   4.609   4.115
   19SAPS  H17X 2522   4.519   4.535   4.044
   19SAPS  H17Y 2523   4.556   4.706   4.061
   19SAPS  C318 2524   4.484   4.599   4.253
   19SAPS  H18X 2525   4.506   4.680   4.326
   19SAPS  H18Y 2526   4.500   4.500   4.301
   19SAPS  H18Z 2527   4.376   4.600   4.227
   20SAPS     N 2528   5.295   5.706   2.003
   20SAPS   HN1 2529   5.279   5.808   1.989
   20SAPS   HN2 2530   5.372   5.679   1.940
   20SAPS   HN3 2531   5.201   5.662   1.994
   20SAPS   C12 2532   5.355   5.685   2.144
   20SAPS  H12A 2533   5.314   5.592   2.180
   20SAPS   C13 2534   5.505   5.653   2.141
   20SAPS  O13A 2535   5.568   5.647   2.032
   20SAPS  O13B 2536   5.569   5.641   2.251
   20SAPS   C11 2537   5.325   5.811   2.229
   20SAPS  H11A 2538   5.396   5.891   2.198
   20SAPS  H11B 2539   5.352   5.797   2.336
   20SAPS     P 2540   5.081   5.921   2.280
   20SAPS   O13 2541   5.020   6.041   2.214
   20SAPS   O14 2542   4.991   5.805   2.315
   20SAPS   O12 2543   5.200   5.867   2.196
   20SAPS   O11 2544   5.147   5.970   2.411
   20SAPS    C1 2545   5.155   5.909   2.540
   20SAPS    HA 2546   5.075   5.833   2.554
   20SAPS    HB 2547   5.255   5.862   2.554
   20SAPS    C2 2548   5.119   6.011   2.652
   20SAPS    HS 2549   5.177   6.104   2.632
   20SAPS   O21 2550   5.145   5.951   2.783
   20SAPS   C21 2551   5.166   6.037   2.874
   20SAPS   O22 2552   5.143   6.155   2.869
   20SAPS   C22 2553   5.194   5.963   3.006
   20SAPS   H2R 2554   5.095   5.918   3.029
   20SAPS   H2S 2555   5.266   5.882   2.979
   20SAPS    C3 2556   4.967   6.053   2.645
   20SAPS    HX 2557   4.958   6.095   2.542
   20SAPS    HY 2558   4.936   6.122   2.726
   20SAPS   O31 2559   4.875   5.937   2.638
   20SAPS   C31 2560   4.825   5.901   2.756
   20SAPS   O32 2561   4.812   5.983   2.849
   20SAPS   C32 2562   4.774   5.761   2.750
   20SAPS   H2X 2563   4.840   5.687   2.699
   20SAPS   H2Y 2564   4.677   5.753   2.696
   20SAPS   C23 2565   5.249   6.052   3.128
   20SAPS   H3R 2566   5.181   6.139   3.136
   20SAPS   H3S 2567   5.345   6.084   3.082
   20SAPS   C24 2568   5.259   5.970   3.258
   20SAPS   H4R 2569   5.312   6.033   3.333
   20SAPS   H4S 2570   5.325   5.884   3.232
   20SAPS   C25 2571   5.118   5.928   3.300
   20SAPS   H5R 2572   5.056   5.877   3.225
   20SAPS   C26 2573   5.073   5.913   3.424
   20SAPS   H6R 2574   4.976   5.864   3.445
   20SAPS   C27 2575   5.153   5.950   3.541
   20SAPS   H7R 2576   5.263   5.957   3.527
   20SAPS   H7S 2577   5.139   5.877   3.624
   20SAPS   C28 2578   5.089   6.089   3.592
   20SAPS   H8R 2579   5.052   6.162   3.518
   20SAPS   C29 2580   5.079   6.124   3.720
   20SAPS   H9R 2581   5.025   6.216   3.748
   20SAPS  C210 2582   5.121   6.037   3.831
   20SAPS  H10R 2583   5.169   6.100   3.908
   20SAPS  H10S 2584   5.202   5.967   3.800
   20SAPS  C211 2585   5.019   5.950   3.900
   20SAPS  H11R 2586   4.946   5.901   3.833
   20SAPS  C212 2587   5.004   5.925   4.028
   20SAPS  H12R 2588   4.914   5.865   4.047
   20SAPS  C213 2589   5.093   5.965   4.148
   20SAPS  H13R 2590   5.039   6.045   4.203
   20SAPS  H13S 2591   5.175   6.031   4.112
   20SAPS  C214 2592   5.149   5.854   4.228
   20SAPS  H14R 2593   5.184   5.772   4.163
   20SAPS  C215 2594   5.133   5.849   4.356
   20SAPS  H15R 2595   5.166   5.760   4.413
   20SAPS  C216 2596   5.066   5.951   4.450
   20SAPS  H16R 2597   5.001   6.017   4.389
   20SAPS  H16S 2598   5.132   6.011   4.517
   20SAPS  C217 2599   4.965   5.895   4.547
   20SAPS  H17R 2600   5.003   5.820   4.620
   20SAPS  H17S 2601   4.891   5.834   4.490
   20SAPS  C218 2602   4.882   5.998   4.634
   20SAPS  H18R 2603   4.962   6.060   4.680
   20SAPS  H18S 2604   4.836   5.933   4.712
   20SAPS  C219 2605   4.782   6.097   4.562
   20SAPS  H19R 2606   4.840   6.138   4.476
   20SAPS  H19S 2607   4.746   6.178   4.629
   20SAPS  C220 2608   4.646   6.028   4.527
   20SAPS  H20R 2609   4.579   6.009   4.614
   20SAPS  H20S 2610   4.660   5.930   4.478
   20SAPS  H20T 2611   4.606   6.094   4.447
   20SAPS   C33 2612   4.744   5.700   2.892
   20SAPS   H3X 2613   4.796   5.756   2.972
   20SAPS   H3Y 2614   4.759   5.590   2.899
   20SAPS   C34 2615   4.598   5.727   2.938
   20SAPS   H4X 2616   4.558   5.813   2.881
   20SAPS   H4Y 2617   4.602   5.753   3.046
   20SAPS   C35 2618   4.505   5.612   2.902
   20SAPS   H5X 2619   4.533   5.520   2.956
   20SAPS   H5Y 2620   4.521   5.584   2.795
   20SAPS   C36 2621   4.356   5.632   2.930
   20SAPS   H6X 2622   4.308   5.583   2.843
   20SAPS   H6Y 2623   4.347   5.743   2.921
   20SAPS   C37 2624   4.312   5.579   3.062
   20SAPS   H7X 2625   4.332   5.470   3.072
   20SAPS   H7Y 2626   4.205   5.607   3.066
   20SAPS   C38 2627   4.386   5.655   3.178
   20SAPS   H8X 2628   4.401   5.761   3.150
   20SAPS   H8Y 2629   4.487   5.608   3.186
   20SAPS   C39 2630   4.296   5.651   3.305
   20SAPS   H9X 2631   4.217   5.727   3.289
   20SAPS   H9Y 2632   4.351   5.704   3.386
   20SAPS  C310 2633   4.263   5.514   3.351
   20SAPS  H10X 2634   4.352   5.447   3.351
   20SAPS  H10Y 2635   4.192   5.466   3.281
   20SAPS  C311 2636   4.202   5.505   3.496
   20SAPS  H11X 2637   4.182   5.399   3.523
   20SAPS  H11Y 2638   4.111   5.567   3.513
   20SAPS  C312 2639   4.303   5.554   3.597
   20SAPS  H12X 2640   4.314   5.662   3.577
   20SAPS  H12Y 2641   4.409   5.522   3.585
   20SAPS  C313 2642   4.257   5.521   3.736
   20SAPS  H13X 2643   4.347   5.524   3.802
   20SAPS  H13Y 2644   4.226   5.415   3.744
   20SAPS  C314 2645   4.149   5.600   3.797
   20SAPS  H14X 2646   4.054   5.616   3.741
   20SAPS  H14Y 2647   4.173   5.705   3.823
   20SAPS  C315 2648   4.089   5.542   3.927
   20SAPS  H15X 2649   4.038   5.629   3.976
   20SAPS  H15Y 2650   4.174   5.516   3.994
   20SAPS  C316 2651   3.992   5.431   3.912
   20SAPS  H16X 2652   4.052   5.338   3.906
   20SAPS  H16Y 2653   3.932   5.442   3.819
   20SAPS  C317 2654   3.908   5.396   4.032
   20SAPS  H17X 2655   3.832   5.320   4.005
   20SAPS  H17Y 2656   3.845   5.484   4.058
   20SAPS  C318 2657   3.996   5.355   4.156
   20SAPS  H18X 2658   4.074   5.433   4.169
   20SAPS  H18Y 2659   4.048   5.259   4.132
   20SAPS  H18Z 2660   3.925   5.333   4.238
   21CHL1    C3 2661   1.753   3.859   6.173
   21CHL1    H3 2662   1.853   3.897   6.144
   21CHL1    O3 2663   1.756   3.812   6.306
   21CHL1   H3' 2664   1.680   3.753   6.312
   21CHL1    C4 2665   1.636   3.957   6.161
   21CHL1   H4A 2666   1.539   3.913   6.193
   21CHL1   H4B 2667   1.655   4.040   6.233
   21CHL1    C5 2668   1.624   4.014   6.024
   21CHL1    C6 2669   1.620   4.146   6.007
   21CHL1    H6 2670   1.629   4.204   6.100
   21CHL1    C7 2671   1.597   4.213   5.879
   21CHL1   H7A 2672   1.512   4.284   5.887
   21CHL1   H7B 2673   1.691   4.265   5.850
   21CHL1    C8 2674   1.575   4.118   5.758
   21CHL1    H8 2675   1.470   4.084   5.766
   21CHL1   C14 2676   1.601   4.180   5.623
   21CHL1   H14 2677   1.711   4.194   5.623
   21CHL1   C15 2678   1.561   4.324   5.592
   21CHL1  H15A 2679   1.461   4.348   5.633
   21CHL1  H15B 2680   1.639   4.393   5.630
   21CHL1   C16 2681   1.589   4.333   5.438
   21CHL1  H16A 2682   1.492   4.364   5.393
   21CHL1  H16B 2683   1.672   4.407   5.424
   21CHL1   C17 2684   1.621   4.193   5.385
   21CHL1   H17 2685   1.731   4.182   5.390
   21CHL1   C13 2686   1.572   4.094   5.497
   21CHL1   C18 2687   1.416   4.070   5.475
   21CHL1  H18A 2688   1.398   3.994   5.396
   21CHL1  H18B 2689   1.379   4.028   5.571
   21CHL1  H18C 2690   1.356   4.160   5.448
   21CHL1   C12 2691   1.659   3.975   5.512
   21CHL1  H12A 2692   1.646   3.902   5.429
   21CHL1  H12B 2693   1.766   4.002   5.519
   21CHL1   C11 2694   1.631   3.903   5.642
   21CHL1  H11A 2695   1.532   3.853   5.636
   21CHL1  H11B 2696   1.691   3.812   5.664
   21CHL1    C9 2697   1.644   3.987   5.768
   21CHL1    H9 2698   1.750   4.020   5.775
   21CHL1   C10 2699   1.613   3.914   5.905
   21CHL1   C19 2700   1.478   3.835   5.907
   21CHL1  H19A 2701   1.469   3.742   5.847
   21CHL1  H19B 2702   1.455   3.795   6.008
   21CHL1  H19C 2703   1.394   3.906   5.891
   21CHL1    C1 2704   1.723   3.806   5.924
   21CHL1   H1A 2705   1.722   3.716   5.859
   21CHL1   H1B 2706   1.821   3.854   5.906
   21CHL1    C2 2707   1.717   3.751   6.069
   21CHL1   H2A 2708   1.800   3.677   6.074
   21CHL1   H2B 2709   1.613   3.722   6.096
   21CHL1   C20 2710   1.582   4.161   5.243
   21CHL1   H20 2711   1.471   4.162   5.233
   21CHL1   C21 2712   1.635   4.025   5.198
   21CHL1  H21A 2713   1.629   4.017   5.087
   21CHL1  H21B 2714   1.576   3.945   5.248
   21CHL1  H21C 2715   1.741   4.002   5.219
   21CHL1   C22 2716   1.633   4.272   5.141
   21CHL1  H22A 2717   1.582   4.363   5.177
   21CHL1  H22B 2718   1.743   4.291   5.138
   21CHL1   C23 2719   1.597   4.243   4.995
   21CHL1  H23A 2720   1.678   4.185   4.945
   21CHL1  H23B 2721   1.502   4.185   4.995
   21CHL1   C24 2722   1.589   4.387   4.938
   21CHL1  H24A 2723   1.497   4.438   4.972
   21CHL1  H24B 2724   1.679   4.451   4.950
   21CHL1   C25 2725   1.569   4.382   4.785
   21CHL1   H25 2726   1.555   4.489   4.760
   21CHL1   C26 2727   1.684   4.332   4.691
   21CHL1  H26A 2728   1.707   4.226   4.716
   21CHL1  H26B 2729   1.644   4.327   4.588
   21CHL1  H26C 2730   1.774   4.395   4.709
   21CHL1   C27 2731   1.431   4.313   4.754
   21CHL1  H27A 2732   1.443   4.206   4.779
   21CHL1  H27B 2733   1.355   4.366   4.814
   21CHL1  H27C 2734   1.414   4.320   4.644
   22CHL1    C3 2735   2.181   1.762   5.917
   22CHL1    H3 2736   2.261   1.827   5.875
   22CHL1    O3 2737   2.212   1.739   6.053
   22CHL1   H3' 2738   2.301   1.703   6.049
   22CHL1    C4 2739   2.042   1.814   5.906
   22CHL1   H4A 2740   1.965   1.748   5.951
   22CHL1   H4B 2741   2.036   1.907   5.967
   22CHL1    C5 2742   2.011   1.847   5.758
   22CHL1    C6 2743   1.982   1.974   5.718
   22CHL1    H6 2744   1.988   2.046   5.801
   22CHL1    C7 2745   1.937   2.015   5.580
   22CHL1   H7A 2746   1.855   2.089   5.568
   22CHL1   H7B 2747   2.020   2.077   5.539
   22CHL1    C8 2748   1.923   1.890   5.489
   22CHL1    H8 2749   1.821   1.850   5.507
   22CHL1   C14 2750   1.929   1.924   5.335
   22CHL1   H14 2751   2.036   1.956   5.330
   22CHL1   C15 2752   1.844   2.040   5.287
   22CHL1  H15A 2753   1.741   2.019   5.320
   22CHL1  H15B 2754   1.875   2.144   5.312
   22CHL1   C16 2755   1.852   2.018   5.131
   22CHL1  H16A 2756   1.748   2.005   5.094
   22CHL1  H16B 2757   1.902   2.105   5.082
   22CHL1   C17 2758   1.912   1.879   5.101
   22CHL1   H17 2759   2.019   1.899   5.078
   22CHL1   C13 2760   1.908   1.804   5.238
   22CHL1   C18 2761   1.762   1.753   5.259
   22CHL1  H18A 2762   1.695   1.832   5.219
   22CHL1  H18B 2763   1.748   1.653   5.212
   22CHL1  H18C 2764   1.737   1.750   5.367
   22CHL1   C12 2765   2.014   1.699   5.265
   22CHL1  H12A 2766   1.994   1.599   5.221
   22CHL1  H12B 2767   2.113   1.734   5.229
   22CHL1   C11 2768   2.017   1.667   5.415
   22CHL1  H11A 2769   1.933   1.596   5.435
   22CHL1  H11B 2770   2.110   1.606   5.427
   22CHL1    C9 2771   2.025   1.778   5.520
   22CHL1    H9 2772   2.128   1.817   5.505
   22CHL1   C10 2773   2.020   1.730   5.665
   22CHL1   C19 2774   1.902   1.631   5.691
   22CHL1  H19A 2775   1.917   1.528   5.651
   22CHL1  H19B 2776   1.878   1.624   5.799
   22CHL1  H19C 2777   1.803   1.654   5.644
   22CHL1    C1 2778   2.144   1.643   5.694
   22CHL1   H1A 2779   2.131   1.539   5.657
   22CHL1   H1B 2780   2.231   1.688   5.641
   22CHL1    C2 2781   2.175   1.624   5.841
   22CHL1   H2A 2782   2.272   1.571   5.857
   22CHL1   H2B 2783   2.106   1.549   5.886
   22CHL1   C20 2784   1.855   1.815   4.973
   22CHL1   H20 2785   1.747   1.791   4.988
   22CHL1   C21 2786   1.926   1.682   4.952
   22CHL1  H21A 2787   1.895   1.639   4.855
   22CHL1  H21B 2788   1.896   1.614   5.035
   22CHL1  H21C 2789   2.036   1.694   4.951
   22CHL1   C22 2790   1.871   1.907   4.844
   22CHL1  H22A 2791   1.818   1.998   4.880
   22CHL1  H22B 2792   1.978   1.931   4.826
   22CHL1   C23 2793   1.802   1.857   4.722
   22CHL1  H23A 2794   1.826   1.749   4.715
   22CHL1  H23B 2795   1.694   1.863   4.745
   22CHL1   C24 2796   1.841   1.919   4.585
   22CHL1  H24A 2797   1.812   2.026   4.575
   22CHL1  H24B 2798   1.949   1.908   4.565
   22CHL1   C25 2799   1.765   1.854   4.466
   22CHL1   H25 2800   1.776   1.744   4.460
   22CHL1   C26 2801   1.619   1.899   4.452
   22CHL1  H26A 2802   1.554   1.843   4.523
   22CHL1  H26B 2803   1.612   2.010   4.459
   22CHL1  H26C 2804   1.571   1.880   4.354
   22CHL1   C27 2805   1.830   1.908   4.336
   22CHL1  H27A 2806   1.780   2.002   4.305
   22CHL1  H27B 2807   1.940   1.918   4.349
   22CHL1  H27C 2808   1.811   1.835   4.255
   23CHL1    C3 2809   0.914   3.577   6.101
   23CHL1    H3 2810   0.925   3.680   6.142
   23CHL1    O3 2811   0.872   3.485   6.207
   23CHL1   H3' 2812   0.954   3.466   6.254
   23CHL1    C4 2813   0.798   3.592   5.994
   23CHL1   H4A 2814   0.766   3.495   5.952
   23CHL1   H4B 2815   0.705   3.640   6.032
   23CHL1    C5 2816   0.851   3.669   5.877
   23CHL1    C6 2817   0.782   3.769   5.826
   23CHL1    H6 2818   0.691   3.808   5.873
   23CHL1    C7 2819   0.811   3.831   5.693
   23CHL1   H7A 2820   0.716   3.827   5.636
   23CHL1   H7B 2821   0.848   3.935   5.707
   23CHL1    C8 2822   0.912   3.755   5.607
   23CHL1    H8 2823   0.860   3.663   5.572
   23CHL1   C14 2824   0.965   3.839   5.480
   23CHL1   H14 2825   1.020   3.924   5.527
   23CHL1   C15 2826   0.852   3.907   5.399
   23CHL1  H15A 2827   0.760   3.844   5.395
   23CHL1  H15B 2828   0.826   4.005   5.446
   23CHL1   C16 2829   0.924   3.934   5.265
   23CHL1  H16A 2830   0.868   3.873   5.190
   23CHL1  H16B 2831   0.917   4.040   5.231
   23CHL1   C17 2832   1.071   3.882   5.275
   23CHL1   H17 2833   1.123   3.967   5.324
   23CHL1   C13 2834   1.058   3.769   5.382
   23CHL1   C18 2835   0.984   3.650   5.325
   23CHL1  H18A 2836   0.886   3.686   5.289
   23CHL1  H18B 2837   1.030   3.595   5.240
   23CHL1  H18C 2838   0.957   3.579   5.406
   23CHL1   C12 2839   1.182   3.729   5.469
   23CHL1  H12A 2840   1.253   3.670   5.407
   23CHL1  H12B 2841   1.230   3.819   5.511
   23CHL1   C11 2842   1.132   3.637   5.588
   23CHL1  H11A 2843   1.102   3.537   5.550
   23CHL1  H11B 2844   1.225   3.620   5.645
   23CHL1    C9 2845   1.032   3.700   5.682
   23CHL1    H9 2846   1.083   3.787   5.730
   23CHL1   C10 2847   0.978   3.611   5.803
   23CHL1   C19 2848   0.955   3.462   5.750
   23CHL1  H19A 2849   0.913   3.460   5.647
   23CHL1  H19B 2850   1.050   3.409   5.728
   23CHL1  H19C 2851   0.900   3.396   5.820
   23CHL1    C1 2852   1.083   3.605   5.908
   23CHL1   H1A 2853   1.182   3.574   5.866
   23CHL1   H1B 2854   1.114   3.703   5.950
   23CHL1    C2 2855   1.044   3.527   6.033
   23CHL1   H2A 2856   1.128   3.535   6.106
   23CHL1   H2B 2857   1.021   3.424   6.000
   23CHL1   C20 2858   1.139   3.854   5.143
   23CHL1   H20 2859   1.107   3.753   5.108
   23CHL1   C21 2860   1.289   3.837   5.158
   23CHL1  H21A 2861   1.329   3.929   5.208
   23CHL1  H21B 2862   1.341   3.829   5.060
   23CHL1  H21C 2863   1.311   3.751   5.224
   23CHL1   C22 2864   1.104   3.960   5.040
   23CHL1  H22A 2865   0.995   3.980   5.041
   23CHL1  H22B 2866   1.154   4.056   5.065
   23CHL1   C23 2867   1.139   3.918   4.892
   23CHL1  H23A 2868   1.249   3.913   4.879
   23CHL1  H23B 2869   1.099   3.817   4.869
   23CHL1   C24 2870   1.085   4.017   4.798
   23CHL1  H24A 2871   0.974   4.007   4.797
   23CHL1  H24B 2872   1.109   4.116   4.842
   23CHL1   C25 2873   1.152   4.028   4.661
   23CHL1   H25 2874   1.258   4.059   4.670
   23CHL1   C26 2875   1.153   3.893   4.579
   23CHL1  H26A 2876   1.179   3.920   4.474
   23CHL1  H26B 2877   1.218   3.822   4.635
   23CHL1  H26C 2878   1.049   3.856   4.582
   23CHL1   C27 2879   1.075   4.133   4.581
   23CHL1  H27A 2880   0.964   4.127   4.588
   23CHL1  H27B 2881   1.111   4.229   4.624
   23CHL1  H27C 2882   1.088   4.129   4.471
   24CHL1    C3 2883   3.284   4.646   5.887
   24CHL1    H3 2884   3.203   4.721   5.884
   24CHL1    O3 2885   3.343   4.616   6.014
   24CHL1   H3' 2886   3.418   4.558   5.997
   24CHL1    C4 2887   3.221   4.516   5.825
   24CHL1   H4A 2888   3.303   4.441   5.833
   24CHL1   H4B 2889   3.130   4.492   5.883
   24CHL1    C5 2890   3.183   4.540   5.683
   24CHL1    C6 2891   3.057   4.517   5.642
   24CHL1    H6 2892   2.978   4.481   5.709
   24CHL1    C7 2893   3.014   4.538   5.502
   24CHL1   H7A 2894   2.942   4.462   5.465
   24CHL1   H7B 2895   2.957   4.633   5.505
   24CHL1    C8 2896   3.126   4.548   5.404
   24CHL1    H8 2897   3.170   4.446   5.404
   24CHL1   C14 2898   3.079   4.596   5.269
   24CHL1   H14 2899   3.051   4.703   5.280
   24CHL1   C15 2900   2.953   4.537   5.194
   24CHL1  H15A 2901   2.969   4.428   5.199
   24CHL1  H15B 2902   2.862   4.586   5.237
   24CHL1   C16 2903   2.968   4.592   5.053
   24CHL1  H16A 2904   2.973   4.507   4.982
   24CHL1  H16B 2905   2.892   4.665   5.017
   24CHL1   C17 2906   3.106   4.666   5.041
   24CHL1   H17 2907   3.082   4.774   5.049
   24CHL1   C13 2908   3.189   4.618   5.159
   24CHL1   C18 2909   3.248   4.481   5.131
   24CHL1  H18A 2910   3.332   4.488   5.057
   24CHL1  H18B 2911   3.287   4.431   5.222
   24CHL1  H18C 2912   3.170   4.417   5.086
   24CHL1   C12 2913   3.295   4.712   5.209
   24CHL1  H12A 2914   3.383   4.744   5.149
   24CHL1  H12B 2915   3.241   4.808   5.229
   24CHL1   C11 2916   3.354   4.654   5.340
   24CHL1  H11A 2917   3.410   4.560   5.320
   24CHL1  H11B 2918   3.435   4.720   5.379
   24CHL1    C9 2919   3.244   4.641   5.449
   24CHL1    H9 2920   3.206   4.745   5.454
   24CHL1   C10 2921   3.288   4.597   5.590
   24CHL1   C19 2922   3.397   4.486   5.573
   24CHL1  H19A 2923   3.438   4.462   5.673
   24CHL1  H19B 2924   3.362   4.398   5.514
   24CHL1  H19C 2925   3.479   4.533   5.515
   24CHL1    C1 2926   3.352   4.723   5.662
   24CHL1   H1A 2927   3.443   4.746   5.602
   24CHL1   H1B 2928   3.276   4.804   5.659
   24CHL1    C2 2929   3.396   4.707   5.804
   24CHL1   H2A 2930   3.419   4.808   5.845
   24CHL1   H2B 2931   3.496   4.659   5.803
   24CHL1   C20 2932   3.163   4.648   4.900
   24CHL1   H20 2933   3.189   4.541   4.887
   24CHL1   C21 2934   3.289   4.730   4.892
   24CHL1  H21A 2935   3.326   4.742   4.788
   24CHL1  H21B 2936   3.372   4.681   4.948
   24CHL1  H21C 2937   3.264   4.828   4.939
   24CHL1   C22 2938   3.068   4.690   4.789
   24CHL1  H22A 2939   2.963   4.654   4.802
   24CHL1  H22B 2940   3.063   4.800   4.782
   24CHL1   C23 2941   3.098   4.625   4.657
   24CHL1  H23A 2942   3.200   4.656   4.625
   24CHL1  H23B 2943   3.107   4.516   4.674
   24CHL1   C24 2944   3.002   4.643   4.539
   24CHL1  H24A 2945   3.011   4.554   4.472
   24CHL1  H24B 2946   2.897   4.626   4.571
   24CHL1   C25 2947   3.023   4.769   4.461
   24CHL1   H25 2948   3.059   4.850   4.529
   24CHL1   C26 2949   3.127   4.757   4.345
   24CHL1  H26A 2950   3.122   4.841   4.272
   24CHL1  H26B 2951   3.230   4.730   4.376
   24CHL1  H26C 2952   3.092   4.667   4.292
   24CHL1   C27 2953   2.888   4.830   4.406
   24CHL1  H27A 2954   2.817   4.762   4.354
   24CHL1  H27B 2955   2.829   4.873   4.490
   24CHL1  H27C 2956   2.921   4.916   4.345
   25CHL1    C3 2957   6.246   5.926   5.937
   25CHL1    H3 2958   6.297   6.020   5.910
   25CHL1    O3 2959   6.244   5.923   6.078
   25CHL1   H3' 2960   6.213   5.838   6.109
   25CHL1    C4 2961   6.107   5.906   5.873
   25CHL1   H4A 2962   6.061   5.809   5.901
   25CHL1   H4B 2963   6.040   5.980   5.923
   25CHL1    C5 2964   6.120   5.920   5.724
   25CHL1    C6 2965   6.059   6.013   5.652
   25CHL1    H6 2966   5.997   6.092   5.697
   25CHL1    C7 2967   6.068   6.015   5.503
   25CHL1   H7A 2968   5.971   6.048   5.462
   25CHL1   H7B 2969   6.136   6.088   5.453
   25CHL1    C8 2970   6.110   5.876   5.438
   25CHL1    H8 2971   6.028   5.802   5.447
   25CHL1   C14 2972   6.143   5.899   5.294
   25CHL1   H14 2973   6.224   5.975   5.291
   25CHL1   C15 2974   6.035   5.954   5.193
   25CHL1  H15A 2975   5.946   5.892   5.216
   25CHL1  H15B 2976   6.018   6.062   5.214
   25CHL1   C16 2977   6.091   5.925   5.050
   25CHL1  H16A 2978   6.009   5.875   4.995
   25CHL1  H16B 2979   6.127   6.012   4.991
   25CHL1   C17 2980   6.218   5.830   5.068
   25CHL1   H17 2981   6.309   5.893   5.081
   25CHL1   C13 2982   6.206   5.783   5.214
   25CHL1   C18 2983   6.102   5.671   5.222
   25CHL1  H18A 2984   6.012   5.691   5.160
   25CHL1  H18B 2985   6.149   5.585   5.169
   25CHL1  H18C 2986   6.062   5.647   5.323
   25CHL1   C12 2987   6.339   5.745   5.283
   25CHL1  H12A 2988   6.384   5.651   5.243
   25CHL1  H12B 2989   6.414   5.826   5.272
   25CHL1   C11 2990   6.308   5.717   5.437
   25CHL1  H11A 2991   6.251   5.622   5.444
   25CHL1  H11B 2992   6.402   5.691   5.490
   25CHL1    C9 2993   6.232   5.832   5.506
   25CHL1    H9 2994   6.306   5.914   5.497
   25CHL1   C10 2995   6.213   5.813   5.659
   25CHL1   C19 2996   6.150   5.669   5.676
   25CHL1  H19A 2997   6.054   5.667   5.621
   25CHL1  H19B 2998   6.210   5.585   5.634
   25CHL1  H19C 2999   6.132   5.650   5.784
   25CHL1    C1 3000   6.350   5.808   5.727
   25CHL1   H1A 3001   6.419   5.727   5.696
   25CHL1   H1B 3002   6.399   5.905   5.704
   25CHL1    C2 3003   6.341   5.807   5.885
   25CHL1   H2A 3004   6.440   5.830   5.930
   25CHL1   H2B 3005   6.302   5.714   5.931
   25CHL1   C20 3006   6.241   5.727   4.955
   25CHL1   H20 3007   6.167   5.645   4.966
   25CHL1   C21 3008   6.380   5.658   4.956
   25CHL1  H21A 3009   6.375   5.588   4.870
   25CHL1  H21B 3010   6.394   5.604   5.052
   25CHL1  H21C 3011   6.449   5.744   4.939
   25CHL1   C22 3012   6.216   5.786   4.812
   25CHL1  H22A 3013   6.235   5.700   4.744
   25CHL1  H22B 3014   6.107   5.799   4.795
   25CHL1   C23 3015   6.310   5.909   4.775
   25CHL1  H23A 3016   6.297   5.975   4.863
   25CHL1  H23B 3017   6.420   5.891   4.764
   25CHL1   C24 3018   6.265   5.984   4.647
   25CHL1  H24A 3019   6.296   5.922   4.560
   25CHL1  H24B 3020   6.155   5.995   4.640
   25CHL1   C25 3021   6.340   6.122   4.638
   25CHL1   H25 3022   6.331   6.158   4.533
   25CHL1   C26 3023   6.276   6.214   4.741
   25CHL1  H26A 3024   6.176   6.246   4.707
   25CHL1  H26B 3025   6.261   6.167   4.841
   25CHL1  H26C 3026   6.338   6.306   4.745
   25CHL1   C27 3027   6.485   6.096   4.653
   25CHL1  H27A 3028   6.517   6.009   4.591
   25CHL1  H27B 3029   6.545   6.187   4.633
   25CHL1  H27C 3030   6.510   6.060   4.755
   26CHL1    C3 3031   4.138   2.965   6.028
   26CHL1    H3 3032   4.249   2.966   6.023
   26CHL1    O3 3033   4.107   2.953   6.164
   26CHL1   H3' 3034   4.012   2.948   6.178
   26CHL1    C4 3035   4.069   3.096   5.977
   26CHL1   H4A 3036   3.962   3.089   6.007
   26CHL1   H4B 3037   4.117   3.184   6.025
   26CHL1    C5 3038   4.079   3.103   5.829
   26CHL1    C6 3039   4.123   3.214   5.768
   26CHL1    H6 3040   4.157   3.301   5.826
   26CHL1    C7 3041   4.124   3.230   5.615
   26CHL1   H7A 3042   4.094   3.330   5.578
   26CHL1   H7B 3043   4.230   3.217   5.583
   26CHL1    C8 3044   4.026   3.123   5.551
   26CHL1    H8 3045   3.923   3.157   5.572
   26CHL1   C14 3046   4.055   3.117   5.400
   26CHL1   H14 3047   4.162   3.086   5.395
   26CHL1   C15 3048   4.054   3.251   5.325
   26CHL1  H15A 3049   3.957   3.299   5.349
   26CHL1  H15B 3050   4.142   3.318   5.333
   26CHL1   C16 3051   4.050   3.205   5.175
   26CHL1  H16A 3052   3.987   3.270   5.111
   26CHL1  H16B 3053   4.154   3.220   5.137
   26CHL1   C17 3054   4.010   3.057   5.173
   26CHL1   H17 3055   4.104   3.000   5.164
   26CHL1   C13 3056   3.967   3.018   5.320
   26CHL1   C18 3057   3.820   3.044   5.346
   26CHL1  H18A 3058   3.784   3.030   5.450
   26CHL1  H18B 3059   3.789   3.146   5.314
   26CHL1  H18C 3060   3.757   2.969   5.294
   26CHL1   C12 3061   4.013   2.877   5.362
   26CHL1  H12A 3062   3.956   2.802   5.302
   26CHL1  H12B 3063   4.121   2.871   5.338
   26CHL1   C11 3064   3.992   2.860   5.515
   26CHL1  H11A 3065   3.884   2.856   5.540
   26CHL1  H11B 3066   4.025   2.759   5.547
   26CHL1    C9 3067   4.051   2.981   5.604
   26CHL1    H9 3068   4.161   2.975   5.591
   26CHL1   C10 3069   4.027   2.975   5.757
   26CHL1   C19 3070   3.870   2.968   5.776
   26CHL1  H19A 3071   3.812   3.035   5.709
   26CHL1  H19B 3072   3.823   2.871   5.749
   26CHL1  H19C 3073   3.846   3.001   5.879
   26CHL1    C1 3074   4.087   2.849   5.811
   26CHL1   H1A 3075   4.041   2.758   5.767
   26CHL1   H1B 3076   4.194   2.838   5.783
   26CHL1    C2 3077   4.074   2.841   5.963
   26CHL1   H2A 3078   4.123   2.754   6.011
   26CHL1   H2B 3079   3.968   2.837   5.997
   26CHL1   C20 3080   3.922   3.022   5.061
   26CHL1   H20 3081   3.825   3.075   5.071
   26CHL1   C21 3082   3.893   2.869   5.046
   26CHL1  H21A 3083   3.980   2.811   5.011
   26CHL1  H21B 3084   3.811   2.847   4.974
   26CHL1  H21C 3085   3.865   2.827   5.145
   26CHL1   C22 3086   3.975   3.080   4.925
   26CHL1  H22A 3087   3.954   3.189   4.916
   26CHL1  H22B 3088   4.085   3.067   4.921
   26CHL1   C23 3089   3.912   3.014   4.800
   26CHL1  H23A 3090   3.948   2.909   4.796
   26CHL1  H23B 3091   3.803   3.009   4.819
   26CHL1   C24 3092   3.944   3.089   4.668
   26CHL1  H24A 3093   3.903   3.192   4.676
   26CHL1  H24B 3094   4.055   3.099   4.669
   26CHL1   C25 3095   3.885   3.021   4.543
   26CHL1   H25 3096   3.919   2.917   4.527
   26CHL1   C26 3097   3.732   3.029   4.554
   26CHL1  H26A 3098   3.703   3.128   4.594
   26CHL1  H26B 3099   3.675   3.018   4.460
   26CHL1  H26C 3100   3.685   2.949   4.615
   26CHL1   C27 3101   3.930   3.104   4.416
   26CHL1  H27A 3102   3.919   3.213   4.436
   26CHL1  H27B 3103   4.038   3.092   4.397
   26CHL1  H27C 3104   3.867   3.068   4.331
   27CHL1    C3 3105   0.262   2.498   5.990
   27CHL1    H3 3106   0.242   2.606   5.974
   27CHL1    O3 3107   0.198   2.470   6.118
   27CHL1   H3' 3108   0.221   2.540   6.180
   27CHL1    C4 3109   0.202   2.413   5.875
   27CHL1   H4A 3110   0.226   2.306   5.893
   27CHL1   H4B 3111   0.092   2.428   5.876
   27CHL1    C5 3112   0.264   2.450   5.744
   27CHL1    C6 3113   0.195   2.479   5.637
   27CHL1    H6 3114   0.086   2.485   5.644
   27CHL1    C7 3115   0.247   2.517   5.498
   27CHL1   H7A 3116   0.192   2.461   5.420
   27CHL1   H7B 3117   0.245   2.628   5.498
   27CHL1    C8 3118   0.398   2.483   5.481
   27CHL1    H8 3119   0.402   2.376   5.451
   27CHL1   C14 3120   0.452   2.572   5.370
   27CHL1   H14 3121   0.444   2.674   5.414
   27CHL1   C15 3122   0.381   2.581   5.244
   27CHL1  H15A 3123   0.380   2.474   5.212
   27CHL1  H15B 3124   0.277   2.619   5.241
   27CHL1   C16 3125   0.481   2.638   5.141
   27CHL1  H16A 3126   0.479   2.577   5.049
   27CHL1  H16B 3127   0.465   2.744   5.110
   27CHL1   C17 3128   0.616   2.639   5.214
   27CHL1   H17 3129   0.620   2.743   5.254
   27CHL1   C13 3130   0.602   2.548   5.341
   27CHL1   C18 3131   0.629   2.402   5.295
   27CHL1  H18A 3132   0.579   2.327   5.360
   27CHL1  H18B 3133   0.583   2.394   5.194
   27CHL1  H18C 3134   0.738   2.380   5.285
   27CHL1   C12 3135   0.688   2.572   5.463
   27CHL1  H12A 3136   0.792   2.547   5.436
   27CHL1  H12B 3137   0.681   2.679   5.492
   27CHL1   C11 3138   0.638   2.497   5.585
   27CHL1  H11A 3139   0.667   2.390   5.573
   27CHL1  H11B 3140   0.685   2.547   5.672
   27CHL1    C9 3141   0.477   2.517   5.611
   27CHL1    H9 3142   0.458   2.624   5.631
   27CHL1   C10 3143   0.417   2.449   5.740
   27CHL1   C19 3144   0.457   2.304   5.720
   27CHL1  H19A 3145   0.412   2.236   5.796
   27CHL1  H19B 3146   0.424   2.265   5.621
   27CHL1  H19C 3147   0.566   2.283   5.726
   27CHL1    C1 3148   0.484   2.514   5.861
   27CHL1   H1A 3149   0.588   2.477   5.869
   27CHL1   H1B 3150   0.473   2.625   5.859
   27CHL1    C2 3151   0.411   2.471   5.995
   27CHL1   H2A 3152   0.462   2.531   6.074
   27CHL1   H2B 3153   0.427   2.365   6.021
   27CHL1   C20 3154   0.741   2.617   5.120
   27CHL1   H20 3155   0.733   2.509   5.093
   27CHL1   C21 3156   0.880   2.639   5.193
   27CHL1  H21A 3157   0.891   2.557   5.267
   27CHL1  H21B 3158   0.900   2.737   5.242
   27CHL1  H21C 3159   0.958   2.638   5.114
   27CHL1   C22 3160   0.737   2.684   4.979
   27CHL1  H22A 3161   0.820   2.638   4.922
   27CHL1  H22B 3162   0.636   2.664   4.936
   27CHL1   C23 3163   0.763   2.831   4.983
   27CHL1  H23A 3164   0.672   2.874   5.032
   27CHL1  H23B 3165   0.853   2.859   5.042
   27CHL1   C24 3166   0.783   2.872   4.837
   27CHL1  H24A 3167   0.846   2.802   4.778
   27CHL1  H24B 3168   0.689   2.877   4.777
   27CHL1   C25 3169   0.876   3.001   4.828
   27CHL1   H25 3170   0.835   3.080   4.894
   27CHL1   C26 3171   1.024   2.978   4.858
   27CHL1  H26A 3172   1.073   3.057   4.919
   27CHL1  H26B 3173   1.038   2.879   4.906
   27CHL1  H26C 3174   1.075   2.971   4.760
   27CHL1   C27 3175   0.857   3.065   4.685
   27CHL1  H27A 3176   0.884   2.992   4.606
   27CHL1  H27B 3177   0.929   3.149   4.677
   27CHL1  H27C 3178   0.749   3.091   4.681
   28CHL1    C3 3179   5.309   1.981   6.041
   28CHL1    H3 3180   5.326   2.089   6.023
   28CHL1    O3 3181   5.346   1.952   6.176
   28CHL1   H3' 3182   5.320   1.861   6.192
   28CHL1    C4 3183   5.168   1.946   6.013
   28CHL1   H4A 3184   5.149   1.843   6.052
   28CHL1   H4B 3185   5.099   2.006   6.076
   28CHL1    C5 3186   5.123   1.964   5.870
   28CHL1    C6 3187   5.021   2.045   5.837
   28CHL1    H6 3188   4.954   2.093   5.910
   28CHL1    C7 3189   4.985   2.067   5.693
   28CHL1   H7A 3190   4.876   2.066   5.674
   28CHL1   H7B 3191   5.032   2.160   5.654
   28CHL1    C8 3192   5.041   1.955   5.595
   28CHL1    H8 3193   4.987   1.861   5.619
   28CHL1   C14 3194   5.017   1.995   5.451
   28CHL1   H14 3195   5.075   2.088   5.431
   28CHL1   C15 3196   4.873   2.030   5.414
   28CHL1  H15A 3197   4.809   1.966   5.477
   28CHL1  H15B 3198   4.855   2.138   5.431
   28CHL1   C16 3199   4.870   2.006   5.266
   28CHL1  H16A 3200   4.796   1.931   5.230
   28CHL1  H16B 3201   4.834   2.094   5.208
   28CHL1   C17 3202   5.011   1.958   5.217
   28CHL1   H17 3203   5.073   2.048   5.198
   28CHL1   C13 3204   5.062   1.890   5.348
   28CHL1   C18 3205   4.992   1.752   5.363
   28CHL1  H18A 3206   5.012   1.686   5.275
   28CHL1  H18B 3207   5.016   1.692   5.453
   28CHL1  H18C 3208   4.881   1.757   5.364
   28CHL1   C12 3209   5.216   1.882   5.366
   28CHL1  H12A 3210   5.252   1.805   5.293
   28CHL1  H12B 3211   5.256   1.981   5.334
   28CHL1   C11 3212   5.260   1.850   5.511
   28CHL1  H11A 3213   5.233   1.743   5.527
   28CHL1  H11B 3214   5.371   1.857   5.519
   28CHL1    C9 3215   5.194   1.937   5.620
   28CHL1    H9 3216   5.243   2.036   5.619
   28CHL1   C10 3217   5.213   1.889   5.769
   28CHL1   C19 3218   5.176   1.740   5.784
   28CHL1  H19A 3219   5.073   1.722   5.747
   28CHL1  H19B 3220   5.245   1.672   5.729
   28CHL1  H19C 3221   5.192   1.701   5.886
   28CHL1    C1 3222   5.357   1.903   5.804
   28CHL1   H1A 3223   5.406   1.819   5.750
   28CHL1   H1B 3224   5.392   2.001   5.765
   28CHL1    C2 3225   5.391   1.898   5.952
   28CHL1   H2A 3226   5.498   1.920   5.973
   28CHL1   H2B 3227   5.390   1.790   5.978
   28CHL1   C20 3228   5.000   1.877   5.085
   28CHL1   H20 3229   4.947   1.783   5.110
   28CHL1   C21 3230   5.144   1.844   5.043
   28CHL1  H21A 3231   5.198   1.941   5.032
   28CHL1  H21B 3232   5.152   1.795   4.944
   28CHL1  H21C 3233   5.196   1.771   5.108
   28CHL1   C22 3234   4.908   1.950   4.976
   28CHL1  H22A 3235   4.804   1.939   5.012
   28CHL1  H22B 3236   4.941   2.055   4.965
   28CHL1   C23 3237   4.900   1.880   4.842
   28CHL1  H23A 3238   5.000   1.867   4.796
   28CHL1  H23B 3239   4.853   1.781   4.862
   28CHL1   C24 3240   4.811   1.958   4.752
   28CHL1  H24A 3241   4.706   1.936   4.780
   28CHL1  H24B 3242   4.815   2.069   4.762
   28CHL1   C25 3243   4.828   1.910   4.601
   28CHL1   H25 3244   4.931   1.935   4.568
   28CHL1   C26 3245   4.823   1.753   4.570
   28CHL1  H26A 3246   4.762   1.697   4.644
   28CHL1  H26B 3247   4.772   1.733   4.473
   28CHL1  H26C 3248   4.925   1.710   4.561
   28CHL1   C27 3249   4.725   1.991   4.519
   28CHL1  H27A 3250   4.746   2.100   4.514
   28CHL1  H27B 3251   4.718   1.957   4.413
   28CHL1  H27C 3252   4.621   1.967   4.551
   29CHL1    C3 3253   2.549   3.775   6.163
   29CHL1    H3 3254   2.597   3.685   6.207
   29CHL1    O3 3255   2.508   3.845   6.274
   29CHL1   H3' 3256   2.590   3.883   6.307
   29CHL1    C4 3257   2.624   3.870   6.081
   29CHL1   H4A 3258   2.581   3.972   6.074
   29CHL1   H4B 3259   2.718   3.892   6.136
   29CHL1    C5 3260   2.642   3.831   5.936
   29CHL1    C6 3261   2.763   3.833   5.885
   29CHL1    H6 3262   2.847   3.867   5.949
   29CHL1    C7 3263   2.788   3.819   5.735
   29CHL1   H7A 3264   2.841   3.905   5.688
   29CHL1   H7B 3265   2.851   3.730   5.717
   29CHL1    C8 3266   2.652   3.826   5.656
   29CHL1    H8 3267   2.622   3.933   5.662
   29CHL1   C14 3268   2.675   3.780   5.512
   29CHL1   H14 3269   2.702   3.672   5.518
   29CHL1   C15 3270   2.783   3.853   5.431
   29CHL1  H15A 3271   2.764   3.962   5.447
   29CHL1  H15B 3272   2.889   3.834   5.457
   29CHL1   C16 3273   2.755   3.815   5.288
   29CHL1  H16A 3274   2.734   3.906   5.228
   29CHL1  H16B 3275   2.840   3.753   5.252
   29CHL1   C17 3276   2.615   3.733   5.285
   29CHL1   H17 3277   2.639   3.625   5.289
   29CHL1   C13 3278   2.550   3.766   5.422
   29CHL1   C18 3279   2.485   3.905   5.402
   29CHL1  H18A 3280   2.490   3.950   5.504
   29CHL1  H18B 3281   2.541   3.968   5.330
   29CHL1  H18C 3282   2.378   3.882   5.383
   29CHL1   C12 3283   2.449   3.664   5.488
   29CHL1  H12A 3284   2.357   3.652   5.426
   29CHL1  H12B 3285   2.488   3.560   5.479
   29CHL1   C11 3286   2.425   3.706   5.634
   29CHL1  H11A 3287   2.347   3.785   5.618
   29CHL1  H11B 3288   2.370   3.621   5.680
   29CHL1    C9 3289   2.551   3.736   5.721
   29CHL1    H9 3290   2.592   3.633   5.725
   29CHL1   C10 3291   2.514   3.795   5.863
   29CHL1   C19 3292   2.428   3.921   5.847
   29CHL1  H19A 3293   2.335   3.911   5.786
   29CHL1  H19B 3294   2.392   3.964   5.943
   29CHL1  H19C 3295   2.493   4.000   5.805
   29CHL1    C1 3296   2.439   3.688   5.943
   29CHL1   H1A 3297   2.341   3.689   5.890
   29CHL1   H1B 3298   2.490   3.590   5.932
   29CHL1    C2 3299   2.424   3.719   6.094
   29CHL1   H2A 3300   2.372   3.631   6.137
   29CHL1   H2B 3301   2.349   3.801   6.094
   29CHL1   C20 3302   2.537   3.767   5.151
   29CHL1   H20 3303   2.517   3.876   5.155
   29CHL1   C21 3304   2.392   3.694   5.143
   29CHL1  H21A 3305   2.339   3.734   5.232
   29CHL1  H21B 3306   2.414   3.585   5.138
   29CHL1  H21C 3307   2.332   3.732   5.058
   29CHL1   C22 3308   2.619   3.730   5.027
   29CHL1  H22A 3309   2.712   3.791   5.031
   29CHL1  H22B 3310   2.648   3.622   5.027
   29CHL1   C23 3311   2.545   3.751   4.894
   29CHL1  H23A 3312   2.456   3.687   4.880
   29CHL1  H23B 3313   2.482   3.841   4.908
   29CHL1   C24 3314   2.634   3.764   4.770
   29CHL1  H24A 3315   2.563   3.801   4.694
   29CHL1  H24B 3316   2.698   3.853   4.789
   29CHL1   C25 3317   2.723   3.642   4.750
   29CHL1   H25 3318   2.783   3.634   4.843
   29CHL1   C26 3319   2.635   3.514   4.741
   29CHL1  H26A 3320   2.694   3.425   4.708
   29CHL1  H26B 3321   2.597   3.497   4.843
   29CHL1  H26C 3322   2.550   3.524   4.670
   29CHL1   C27 3323   2.815   3.643   4.622
   29CHL1  H27A 3324   2.900   3.715   4.632
   29CHL1  H27B 3325   2.860   3.542   4.618
   29CHL1  H27C 3326   2.771   3.662   4.523
   30CHL1    C3 3327   3.152   3.552   6.075
   30CHL1    H3 3328   3.052   3.504   6.065
   30CHL1    O3 3329   3.181   3.557   6.219
   30CHL1   H3' 3330   3.267   3.599   6.219
   30CHL1    C4 3331   3.262   3.475   6.009
   30CHL1   H4A 3332   3.362   3.519   6.027
   30CHL1   H4B 3333   3.263   3.373   6.053
   30CHL1    C5 3334   3.235   3.462   5.858
   30CHL1    C6 3335   3.220   3.339   5.803
   30CHL1    H6 3336   3.224   3.245   5.861
   30CHL1    C7 3337   3.206   3.312   5.657
   30CHL1   H7A 3338   3.290   3.243   5.633
   30CHL1   H7B 3339   3.110   3.265   5.628
   30CHL1    C8 3340   3.214   3.449   5.575
   30CHL1    H8 3341   3.323   3.471   5.563
   30CHL1   C14 3342   3.166   3.420   5.433
   30CHL1   H14 3343   3.062   3.388   5.456
   30CHL1   C15 3344   3.226   3.304   5.353
   30CHL1  H15A 3345   3.336   3.293   5.368
   30CHL1  H15B 3346   3.182   3.216   5.405
   30CHL1   C16 3347   3.190   3.331   5.203
   30CHL1  H16A 3348   3.271   3.308   5.131
   30CHL1  H16B 3349   3.109   3.256   5.188
   30CHL1   C17 3350   3.120   3.472   5.208
   30CHL1   H17 3351   3.015   3.449   5.233
   30CHL1   C13 3352   3.171   3.541   5.341
   30CHL1   C18 3353   3.318   3.587   5.322
   30CHL1  H18A 3354   3.326   3.668   5.247
   30CHL1  H18B 3355   3.373   3.627   5.410
   30CHL1  H18C 3356   3.367   3.501   5.271
   30CHL1   C12 3357   3.079   3.646   5.404
   30CHL1  H12A 3358   3.090   3.734   5.337
   30CHL1  H12B 3359   2.970   3.625   5.408
   30CHL1   C11 3360   3.132   3.690   5.547
   30CHL1  H11A 3361   3.217   3.761   5.538
   30CHL1  H11B 3362   3.052   3.756   5.589
   30CHL1    C9 3363   3.150   3.564   5.637
   30CHL1    H9 3364   3.044   3.532   5.653
   30CHL1   C10 3365   3.210   3.593   5.783
   30CHL1   C19 3366   3.352   3.650   5.764
   30CHL1  H19A 3367   3.425   3.572   5.732
   30CHL1  H19B 3368   3.348   3.728   5.685
   30CHL1  H19C 3369   3.391   3.681   5.863
   30CHL1    C1 3370   3.118   3.677   5.871
   30CHL1   H1A 3371   3.107   3.781   5.831
   30CHL1   H1B 3372   3.013   3.642   5.867
   30CHL1    C2 3373   3.147   3.689   6.021
   30CHL1   H2A 3374   3.066   3.752   6.064
   30CHL1   H2B 3375   3.242   3.743   6.034
   30CHL1   C20 3376   3.132   3.558   5.084
   30CHL1   H20 3377   3.177   3.657   5.107
   30CHL1   C21 3378   2.996   3.586   5.031
   30CHL1  H21A 3379   2.918   3.614   5.104
   30CHL1  H21B 3380   2.960   3.498   4.973
   30CHL1  H21C 3381   2.996   3.671   4.960
   30CHL1   C22 3382   3.227   3.515   4.972
   30CHL1  H22A 3383   3.333   3.497   5.001
   30CHL1  H22B 3384   3.190   3.416   4.938
   30CHL1   C23 3385   3.223   3.617   4.855
   30CHL1  H23A 3386   3.125   3.630   4.803
   30CHL1  H23B 3387   3.251   3.713   4.905
   30CHL1   C24 3388   3.333   3.587   4.746
   30CHL1  H24A 3389   3.428   3.566   4.800
   30CHL1  H24B 3390   3.317   3.492   4.689
   30CHL1   C25 3391   3.372   3.701   4.647
   30CHL1   H25 3392   3.406   3.793   4.699
   30CHL1   C26 3393   3.476   3.661   4.548
   30CHL1  H26A 3394   3.566   3.615   4.596
   30CHL1  H26B 3395   3.442   3.583   4.476
   30CHL1  H26C 3396   3.506   3.747   4.485
   30CHL1   C27 3397   3.262   3.748   4.559
   30CHL1  H27A 3398   3.181   3.797   4.617
   30CHL1  H27B 3399   3.303   3.824   4.490
   30CHL1  H27C 3400   3.216   3.656   4.515
   31CHL1    C3 3401   1.988   4.136   5.975
   31CHL1    H3 3402   1.880   4.111   5.966
   31CHL1    O3 3403   2.018   4.149   6.111
   31CHL1   H3' 3404   2.093   4.089   6.115
   31CHL1    C4 3405   2.077   4.030   5.905
   31CHL1   H4A 3406   2.178   4.047   5.948
   31CHL1   H4B 3407   2.048   3.929   5.943
   31CHL1    C5 3408   2.076   4.033   5.754
   31CHL1    C6 3409   2.055   3.919   5.683
   31CHL1    H6 3410   2.040   3.819   5.726
   31CHL1    C7 3411   2.054   3.913   5.532
   31CHL1   H7A 3412   2.111   3.824   5.497
   31CHL1   H7B 3413   1.951   3.899   5.494
   31CHL1    C8 3414   2.107   4.040   5.462
   31CHL1    H8 3415   2.216   4.017   5.466
   31CHL1   C14 3416   2.051   4.045   5.321
   31CHL1   H14 3417   1.943   4.063   5.336
   31CHL1   C15 3418   2.062   3.913   5.243
   31CHL1  H15A 3419   2.158   3.869   5.279
   31CHL1  H15B 3420   1.968   3.857   5.261
   31CHL1   C16 3421   2.086   3.956   5.105
   31CHL1  H16A 3422   2.186   3.923   5.072
   31CHL1  H16B 3423   2.002   3.908   5.049
   31CHL1   C17 3424   2.063   4.107   5.097
   31CHL1   H17 3425   1.953   4.114   5.084
   31CHL1   C13 3426   2.108   4.153   5.239
   31CHL1   C18 3427   2.264   4.156   5.226
   31CHL1  H18A 3428   2.304   4.245   5.174
   31CHL1  H18B 3429   2.309   4.164   5.327
   31CHL1  H18C 3430   2.304   4.065   5.177
   31CHL1   C12 3431   2.067   4.284   5.305
   31CHL1  H12A 3432   2.118   4.369   5.255
   31CHL1  H12B 3433   1.957   4.287   5.296
   31CHL1   C11 3434   2.110   4.291   5.458
   31CHL1  H11A 3435   2.219   4.313   5.465
   31CHL1  H11B 3436   2.059   4.386   5.487
   31CHL1    C9 3437   2.058   4.171   5.538
   31CHL1    H9 3438   1.948   4.178   5.531
   31CHL1   C10 3439   2.091   4.173   5.688
   31CHL1   C19 3440   2.242   4.218   5.705
   31CHL1  H19A 3441   2.257   4.327   5.690
   31CHL1  H19B 3442   2.269   4.198   5.811
   31CHL1  H19C 3443   2.316   4.167   5.638
   31CHL1    C1 3444   2.001   4.275   5.756
   31CHL1   H1A 3445   2.019   4.380   5.727
   31CHL1   H1B 3446   1.895   4.250   5.735
   31CHL1    C2 3447   2.013   4.276   5.911
   31CHL1   H2A 3448   1.932   4.340   5.952
   31CHL1   H2B 3449   2.107   4.321   5.948
   31CHL1   C20 3450   2.121   4.165   4.964
   31CHL1   H20 3451   2.230   4.146   4.953
   31CHL1   C21 3452   2.111   4.318   4.963
   31CHL1  H21A 3453   2.005   4.350   4.974
   31CHL1  H21B 3454   2.173   4.361   4.882
   31CHL1  H21C 3455   2.162   4.355   5.054
   31CHL1   C22 3456   2.040   4.100   4.846
   31CHL1  H22A 3457   2.067   3.992   4.841
   31CHL1  H22B 3458   1.935   4.119   4.873
   31CHL1   C23 3459   2.069   4.169   4.711
   31CHL1  H23A 3460   2.039   4.275   4.722
   31CHL1  H23B 3461   2.177   4.154   4.690
   31CHL1   C24 3462   1.978   4.103   4.600
   31CHL1  H24A 3463   2.008   3.997   4.612
   31CHL1  H24B 3464   1.873   4.120   4.633
   31CHL1   C25 3465   2.011   4.123   4.454
   31CHL1   H25 3466   2.119   4.102   4.441
   31CHL1   C26 3467   1.941   4.027   4.352
   31CHL1  H26A 3468   2.011   4.000   4.271
   31CHL1  H26B 3469   1.928   3.933   4.410
   31CHL1  H26C 3470   1.850   4.066   4.302
   31CHL1   C27 3471   1.989   4.272   4.418
   31CHL1  H27A 3472   2.048   4.341   4.483
   31CHL1  H27B 3473   2.020   4.289   4.313
   31CHL1  H27C 3474   1.883   4.300   4.438
   32CHL1    C3 3475   2.382   2.257   6.162
   32CHL1    H3 3476   2.490   2.240   6.140
   32CHL1    O3 3477   2.364   2.259   6.300
   32CHL1   H3' 3478   2.299   2.327   6.318
   32CHL1    C4 3479   2.333   2.395   6.114
   32CHL1   H4A 3480   2.227   2.402   6.148
   32CHL1   H4B 3481   2.386   2.473   6.172
   32CHL1    C5 3482   2.340   2.415   5.966
   32CHL1    C6 3483   2.397   2.524   5.913
   32CHL1    H6 3484   2.446   2.599   5.976
   32CHL1    C7 3485   2.406   2.551   5.766
   32CHL1   H7A 3486   2.395   2.659   5.742
   32CHL1   H7B 3487   2.512   2.533   5.736
   32CHL1    C8 3488   2.317   2.457   5.686
   32CHL1    H8 3489   2.208   2.477   5.698
   32CHL1   C14 3490   2.348   2.462   5.541
   32CHL1   H14 3491   2.457   2.438   5.539
   32CHL1   C15 3492   2.357   2.598   5.471
   32CHL1  H15A 3493   2.265   2.659   5.486
   32CHL1  H15B 3494   2.453   2.641   5.506
   32CHL1   C16 3495   2.359   2.563   5.322
   32CHL1  H16A 3496   2.288   2.624   5.263
   32CHL1  H16B 3497   2.463   2.585   5.289
   32CHL1   C17 3498   2.331   2.414   5.304
   32CHL1   H17 3499   2.431   2.365   5.301
   32CHL1   C13 3500   2.277   2.365   5.440
   32CHL1   C18 3501   2.123   2.392   5.434
   32CHL1  H18A 3502   2.103   2.479   5.369
   32CHL1  H18B 3503   2.084   2.297   5.390
   32CHL1  H18C 3504   2.072   2.406   5.532
   32CHL1   C12 3505   2.314   2.225   5.489
   32CHL1  H12A 3506   2.259   2.151   5.427
   32CHL1  H12B 3507   2.423   2.209   5.502
   32CHL1   C11 3508   2.263   2.205   5.639
   32CHL1  H11A 3509   2.155   2.218   5.620
   32CHL1  H11B 3510   2.283   2.100   5.668
   32CHL1    C9 3511   2.330   2.307   5.733
   32CHL1    H9 3512   2.440   2.291   5.733
   32CHL1   C10 3513   2.281   2.300   5.882
   32CHL1   C19 3514   2.123   2.329   5.886
   32CHL1  H19A 3515   2.078   2.418   5.838
   32CHL1  H19B 3516   2.078   2.236   5.845
   32CHL1  H19C 3517   2.097   2.340   5.993
   32CHL1    C1 3518   2.305   2.161   5.942
   32CHL1   H1A 3519   2.234   2.090   5.894
   32CHL1   H1B 3520   2.409   2.134   5.913
   32CHL1    C2 3521   2.303   2.151   6.095
   32CHL1   H2A 3522   2.339   2.047   6.115
   32CHL1   H2B 3523   2.202   2.154   6.140
   32CHL1   C20 3524   2.264   2.380   5.167
   32CHL1   H20 3525   2.171   2.440   5.155
   32CHL1   C21 3526   2.225   2.231   5.168
   32CHL1  H21A 3527   2.316   2.192   5.218
   32CHL1  H21B 3528   2.205   2.187   5.067
   32CHL1  H21C 3529   2.135   2.203   5.227
   32CHL1   C22 3530   2.356   2.414   5.050
   32CHL1  H22A 3531   2.379   2.523   5.043
   32CHL1  H22B 3532   2.443   2.345   5.048
   32CHL1   C23 3533   2.291   2.386   4.911
   32CHL1  H23A 3534   2.287   2.277   4.887
   32CHL1  H23B 3535   2.185   2.419   4.909
   32CHL1   C24 3536   2.368   2.446   4.789
   32CHL1  H24A 3537   2.360   2.556   4.801
   32CHL1  H24B 3538   2.477   2.435   4.801
   32CHL1   C25 3539   2.303   2.404   4.661
   32CHL1   H25 3540   2.202   2.447   4.678
   32CHL1   C26 3541   2.375   2.467   4.537
   32CHL1  H26A 3542   2.358   2.576   4.542
   32CHL1  H26B 3543   2.484   2.455   4.519
   32CHL1  H26C 3544   2.318   2.446   4.444
   32CHL1   C27 3545   2.288   2.251   4.640
   32CHL1  H27A 3546   2.391   2.210   4.642
   32CHL1  H27B 3547   2.221   2.204   4.716
   32CHL1  H27C 3548   2.249   2.234   4.538
   33CHL1    C3 3549   0.605   1.492   5.671
   33CHL1    H3 3550   0.598   1.584   5.609
   33CHL1    O3 3551   0.634   1.539   5.802
   33CHL1   H3' 3552   0.684   1.472   5.850
   33CHL1    C4 3553   0.474   1.414   5.668
   33CHL1   H4A 3554   0.505   1.322   5.722
   33CHL1   H4B 3555   0.405   1.476   5.729
   33CHL1    C5 3556   0.439   1.375   5.530
   33CHL1    C6 3557   0.323   1.411   5.473
   33CHL1    H6 3558   0.252   1.480   5.522
   33CHL1    C7 3559   0.275   1.371   5.334
   33CHL1   H7A 3560   0.176   1.324   5.351
   33CHL1   H7B 3561   0.269   1.464   5.274
   33CHL1    C8 3562   0.375   1.283   5.260
   33CHL1    H8 3563   0.354   1.177   5.286
   33CHL1   C14 3564   0.375   1.298   5.108
   33CHL1   H14 3565   0.412   1.400   5.083
   33CHL1   C15 3566   0.234   1.288   5.045
   33CHL1  H15A 3567   0.174   1.207   5.090
   33CHL1  H15B 3568   0.171   1.376   5.071
   33CHL1   C16 3569   0.264   1.255   4.909
   33CHL1  H16A 3570   0.207   1.166   4.873
   33CHL1  H16B 3571   0.223   1.335   4.845
   33CHL1   C17 3572   0.418   1.232   4.900
   33CHL1   H17 3573   0.455   1.334   4.879
   33CHL1   C13 3574   0.457   1.187   5.031
   33CHL1   C18 3575   0.405   1.039   5.045
   33CHL1  H18A 3576   0.471   0.976   4.981
   33CHL1  H18B 3577   0.414   1.003   5.149
   33CHL1  H18C 3578   0.301   1.019   5.010
   33CHL1   C12 3579   0.602   1.202   5.075
   33CHL1  H12A 3580   0.674   1.133   5.025
   33CHL1  H12B 3581   0.640   1.299   5.035
   33CHL1   C11 3582   0.605   1.193   5.228
   33CHL1  H11A 3583   0.565   1.095   5.262
   33CHL1  H11B 3584   0.709   1.198   5.266
   33CHL1    C9 3585   0.523   1.303   5.300
   33CHL1    H9 3586   0.545   1.406   5.264
   33CHL1   C10 3587   0.550   1.301   5.453
   33CHL1   C19 3588   0.542   1.162   5.509
   33CHL1  H19A 3589   0.548   1.149   5.620
   33CHL1  H19B 3590   0.441   1.124   5.484
   33CHL1  H19C 3591   0.615   1.084   5.480
   33CHL1    C1 3592   0.695   1.361   5.473
   33CHL1   H1A 3593   0.770   1.281   5.456
   33CHL1   H1B 3594   0.715   1.442   5.399
   33CHL1    C2 3595   0.722   1.405   5.614
   33CHL1   H2A 3596   0.816   1.464   5.621
   33CHL1   H2B 3597   0.739   1.324   5.687
   33CHL1   C20 3598   0.436   1.144   4.781
   33CHL1   H20 3599   0.385   1.046   4.794
   33CHL1   C21 3600   0.590   1.123   4.765
   33CHL1  H21A 3601   0.631   1.054   4.842
   33CHL1  H21B 3602   0.635   1.224   4.768
   33CHL1  H21C 3603   0.608   1.087   4.661
   33CHL1   C22 3604   0.378   1.206   4.656
   33CHL1  H22A 3605   0.267   1.213   4.653
   33CHL1  H22B 3606   0.424   1.304   4.630
   33CHL1   C23 3607   0.391   1.119   4.529
   33CHL1  H23A 3608   0.498   1.121   4.500
   33CHL1  H23B 3609   0.379   1.016   4.568
   33CHL1   C24 3610   0.301   1.162   4.409
   33CHL1  H24A 3611   0.191   1.166   4.423
   33CHL1  H24B 3612   0.332   1.260   4.367
   33CHL1   C25 3613   0.319   1.064   4.286
   33CHL1   H25 3614   0.423   1.063   4.247
   33CHL1   C26 3615   0.287   0.914   4.326
   33CHL1  H26A 3616   0.294   0.857   4.231
   33CHL1  H26B 3617   0.352   0.864   4.402
   33CHL1  H26C 3618   0.186   0.918   4.372
   33CHL1   C27 3619   0.227   1.101   4.163
   33CHL1  H27A 3620   0.270   1.055   4.071
   33CHL1  H27B 3621   0.120   1.072   4.179
   33CHL1  H27C 3622   0.231   1.207   4.131
   34CHL1    C3 3623   2.865   2.787   5.996
   34CHL1    H3 3624   2.969   2.748   5.997
   34CHL1    O3 3625   2.810   2.821   6.124
   34CHL1   H3' 3626   2.881   2.858   6.176
   34CHL1    C4 3627   2.872   2.915   5.903
   34CHL1   H4A 3628   2.775   2.966   5.920
   34CHL1   H4B 3629   2.953   2.974   5.951
   34CHL1    C5 3630   2.894   2.889   5.754
   34CHL1    C6 3631   2.991   2.966   5.694
   34CHL1    H6 3632   3.050   3.038   5.754
   34CHL1    C7 3633   3.027   2.946   5.544
   34CHL1   H7A 3634   3.039   3.043   5.492
   34CHL1   H7B 3635   3.121   2.889   5.527
   34CHL1    C8 3636   2.916   2.864   5.469
   34CHL1    H8 3637   2.826   2.931   5.466
   34CHL1   C14 3638   2.956   2.832   5.332
   34CHL1   H14 3639   3.047   2.771   5.348
   34CHL1   C15 3640   2.986   2.945   5.234
   34CHL1  H15A 3641   2.895   3.008   5.239
   34CHL1  H15B 3642   3.080   2.995   5.268
   34CHL1   C16 3643   2.990   2.869   5.103
   34CHL1  H16A 3644   2.942   2.931   5.025
   34CHL1  H16B 3645   3.093   2.839   5.073
   34CHL1   C17 3646   2.912   2.733   5.120
   34CHL1   H17 3647   2.996   2.661   5.135
   34CHL1   C13 3648   2.850   2.745   5.258
   34CHL1   C18 3649   2.713   2.816   5.249
   34CHL1  H18A 3650   2.728   2.915   5.201
   34CHL1  H18B 3651   2.635   2.748   5.209
   34CHL1  H18C 3652   2.686   2.844   5.353
   34CHL1   C12 3653   2.849   2.606   5.333
   34CHL1  H12A 3654   2.790   2.528   5.282
   34CHL1  H12B 3655   2.950   2.560   5.326
   34CHL1   C11 3656   2.803   2.627   5.477
   34CHL1  H11A 3657   2.694   2.649   5.476
   34CHL1  H11B 3658   2.811   2.531   5.532
   34CHL1    C9 3659   2.876   2.739   5.551
   34CHL1    H9 3660   2.973   2.688   5.566
   34CHL1   C10 3661   2.816   2.779   5.684
   34CHL1   C19 3662   2.662   2.838   5.667
   34CHL1  H19A 3663   2.598   2.761   5.621
   34CHL1  H19B 3664   2.612   2.862   5.763
   34CHL1  H19C 3665   2.656   2.923   5.595
   34CHL1    C1 3666   2.816   2.655   5.775
   34CHL1   H1A 3667   2.726   2.599   5.741
   34CHL1   H1B 3668   2.911   2.598   5.774
   34CHL1    C2 3669   2.773   2.685   5.927
   34CHL1   H2A 3670   2.760   2.592   5.988
   34CHL1   H2B 3671   2.670   2.726   5.921
   34CHL1   C20 3672   2.844   2.668   4.995
   34CHL1   H20 3673   2.768   2.742   4.963
   34CHL1   C21 3674   2.783   2.529   5.018
   34CHL1  H21A 3675   2.853   2.473   5.083
   34CHL1  H21B 3676   2.785   2.477   4.920
   34CHL1  H21C 3677   2.679   2.525   5.056
   34CHL1   C22 3678   2.928   2.662   4.865
   34CHL1  H22A 3679   2.993   2.751   4.856
   34CHL1  H22B 3680   3.001   2.579   4.856
   34CHL1   C23 3681   2.839   2.670   4.740
   34CHL1  H23A 3682   2.786   2.573   4.733
   34CHL1  H23B 3683   2.769   2.756   4.732
   34CHL1   C24 3684   2.909   2.679   4.604
   34CHL1  H24A 3685   2.984   2.761   4.608
   34CHL1  H24B 3686   2.959   2.583   4.582
   34CHL1   C25 3687   2.814   2.726   4.484
   34CHL1   H25 3688   2.780   2.829   4.506
   34CHL1   C26 3689   2.894   2.741   4.353
   34CHL1  H26A 3690   2.971   2.818   4.377
   34CHL1  H26B 3691   2.944   2.651   4.311
   34CHL1  H26C 3692   2.831   2.779   4.270
   34CHL1   C27 3693   2.695   2.633   4.459
   34CHL1  H27A 3694   2.719   2.526   4.475
   34CHL1  H27B 3695   2.624   2.651   4.543
   34CHL1  H27C 3696   2.648   2.642   4.359
   35CHL1    C3 3697   4.361   5.153   6.256
   35CHL1    H3 3698   4.352   5.261   6.281
   35CHL1    O3 3699   4.391   5.079   6.375
   35CHL1   H3' 3700   4.357   4.990   6.364
   35CHL1    C4 3701   4.217   5.107   6.213
   35CHL1   H4A 3702   4.214   4.997   6.200
   35CHL1   H4B 3703   4.142   5.120   6.295
   35CHL1    C5 3704   4.179   5.174   6.080
   35CHL1    C6 3705   4.071   5.245   6.062
   35CHL1    H6 3706   4.004   5.269   6.145
   35CHL1    C7 3707   4.027   5.309   5.929
   35CHL1   H7A 3708   3.918   5.298   5.912
   35CHL1   H7B 3709   4.054   5.416   5.942
   35CHL1    C8 3710   4.102   5.241   5.810
   35CHL1    H8 3711   4.049   5.143   5.798
   35CHL1   C14 3712   4.067   5.316   5.678
   35CHL1   H14 3713   4.107   5.418   5.698
   35CHL1   C15 3714   3.922   5.323   5.641
   35CHL1  H15A 3715   3.872   5.227   5.666
   35CHL1  H15B 3716   3.871   5.413   5.681
   35CHL1   C16 3717   3.927   5.340   5.482
   35CHL1  H16A 3718   3.872   5.260   5.428
   35CHL1  H16B 3719   3.887   5.441   5.458
   35CHL1   C17 3720   4.078   5.338   5.440
   35CHL1   H17 3721   4.133   5.434   5.450
   35CHL1   C13 3722   4.143   5.262   5.554
   35CHL1   C18 3723   4.105   5.117   5.534
   35CHL1  H18A 3724   4.164   5.074   5.450
   35CHL1  H18B 3725   4.127   5.055   5.624
   35CHL1  H18C 3726   3.997   5.096   5.519
   35CHL1   C12 3727   4.299   5.280   5.587
   35CHL1  H12A 3728   4.374   5.256   5.508
   35CHL1  H12B 3729   4.312   5.387   5.612
   35CHL1   C11 3730   4.332   5.196   5.715
   35CHL1  H11A 3731   4.324   5.089   5.684
   35CHL1  H11B 3732   4.439   5.218   5.736
   35CHL1    C9 3733   4.247   5.233   5.836
   35CHL1    H9 3734   4.271   5.339   5.861
   35CHL1   C10 3735   4.279   5.157   5.965
   35CHL1   C19 3736   4.285   5.004   5.924
   35CHL1  H19A 3737   4.388   4.985   5.885
   35CHL1  H19B 3738   4.261   4.941   6.012
   35CHL1  H19C 3739   4.213   4.979   5.843
   35CHL1    C1 3740   4.415   5.209   6.015
   35CHL1   H1A 3741   4.494   5.192   5.939
   35CHL1   H1B 3742   4.426   5.315   6.045
   35CHL1    C2 3743   4.457   5.133   6.141
   35CHL1   H2A 3744   4.558   5.172   6.168
   35CHL1   H2B 3745   4.466   5.029   6.101
   35CHL1   C20 3746   4.103   5.291   5.298
   35CHL1   H20 3747   4.062   5.189   5.282
   35CHL1   C21 3748   4.254   5.277   5.266
   35CHL1  H21A 3749   4.303   5.375   5.282
   35CHL1  H21B 3750   4.275   5.248   5.161
   35CHL1  H21C 3751   4.296   5.193   5.325
   35CHL1   C22 3752   4.026   5.380   5.205
   35CHL1  H22A 3753   3.916   5.365   5.214
   35CHL1  H22B 3754   4.042   5.484   5.240
   35CHL1   C23 3755   4.059   5.369   5.060
   35CHL1  H23A 3756   4.166   5.388   5.037
   35CHL1  H23B 3757   4.039   5.263   5.034
   35CHL1   C24 3758   3.975   5.455   4.961
   35CHL1  H24A 3759   3.871   5.445   5.000
   35CHL1  H24B 3760   4.009   5.559   4.943
   35CHL1   C25 3761   3.962   5.393   4.818
   35CHL1   H25 3762   3.942   5.284   4.825
   35CHL1   C26 3763   3.844   5.458   4.739
   35CHL1  H26A 3764   3.848   5.421   4.635
   35CHL1  H26B 3765   3.748   5.431   4.789
   35CHL1  H26C 3766   3.843   5.569   4.737
   35CHL1   C27 3767   4.098   5.410   4.743
   35CHL1  H27A 3768   4.180   5.365   4.803
   35CHL1  H27B 3769   4.096   5.356   4.647
   35CHL1  H27C 3770   4.110   5.520   4.729
   36CHL1    C3 3771   0.108   4.019   6.245
   36CHL1    H3 3772   0.209   4.046   6.283
   36CHL1    O3 3773   0.024   4.031   6.360
   36CHL1   H3' 3774   0.033   3.942   6.394
   36CHL1    C4 3775   0.055   4.114   6.141
   36CHL1   H4A 3776   6.751   4.090   6.111
   36CHL1   H4B 3777   0.056   4.219   6.177
   36CHL1    C5 3778   0.112   4.107   6.000
   36CHL1    C6 3779   0.152   4.218   5.936
   36CHL1    H6 3780   0.137   4.312   5.990
   36CHL1    C7 3781   0.199   4.224   5.793
   36CHL1   H7A 3782   0.145   4.300   5.733
   36CHL1   H7B 3783   0.309   4.240   5.786
   36CHL1    C8 3784   0.167   4.083   5.718
   36CHL1    H8 3785   0.057   4.082   5.703
   36CHL1   C14 3786   0.242   4.078   5.586
   36CHL1   H14 3787   0.349   4.065   5.611
   36CHL1   C15 3788   0.229   4.194   5.488
   36CHL1  H15A 3789   0.125   4.221   5.460
   36CHL1  H15B 3790   0.275   4.291   5.516
   36CHL1   C16 3791   0.282   4.132   5.361
   36CHL1  H16A 3792   0.221   4.157   5.272
   36CHL1  H16B 3793   0.384   4.169   5.336
   36CHL1   C17 3794   0.299   3.974   5.380
   36CHL1   H17 3795   0.403   3.958   5.416
   36CHL1   C13 3796   0.211   3.949   5.510
   36CHL1   C18 3797   0.057   3.945   5.471
   36CHL1  H18A 3798   0.037   4.029   5.401
   36CHL1  H18B 3799   0.032   3.854   5.415
   36CHL1  H18C 3800   6.795   3.941   5.563
   36CHL1   C12 3801   0.249   3.831   5.595
   36CHL1  H12A 3802   0.224   3.738   5.541
   36CHL1  H12B 3803   0.355   3.852   5.621
   36CHL1   C11 3804   0.173   3.829   5.727
   36CHL1  H11A 3805   0.066   3.805   5.710
   36CHL1  H11B 3806   0.200   3.744   5.793
   36CHL1    C9 3807   0.195   3.960   5.804
   36CHL1    H9 3808   0.302   3.961   5.830
   36CHL1   C10 3809   0.111   3.959   5.943
   36CHL1   C19 3810   6.766   3.909   5.917
   36CHL1  H19A 3811   6.772   3.803   5.886
   36CHL1  H19B 3812   6.704   3.912   6.009
   36CHL1  H19C 3813   6.713   3.964   5.836
   36CHL1    C1 3814   0.185   3.868   6.044
   36CHL1   H1A 3815   0.190   3.763   6.007
   36CHL1   H1B 3816   0.293   3.894   6.048
   36CHL1    C2 3817   0.123   3.880   6.188
   36CHL1   H2A 3818   0.175   3.815   6.262
   36CHL1   H2B 3819   0.022   3.833   6.186
   36CHL1   C20 3820   0.276   3.898   5.249
   36CHL1   H20 3821   0.172   3.923   5.221
   36CHL1   C21 3822   0.298   3.752   5.266
   36CHL1  H21A 3823   0.213   3.707   5.322
   36CHL1  H21B 3824   0.397   3.735   5.314
   36CHL1  H21C 3825   0.293   3.701   5.167
   36CHL1   C22 3826   0.371   3.945   5.130
   36CHL1  H22A 3827   0.358   3.879   5.042
   36CHL1  H22B 3828   0.325   4.041   5.097
   36CHL1   C23 3829   0.518   3.965   5.162
   36CHL1  H23A 3830   0.532   4.020   5.258
   36CHL1  H23B 3831   0.556   3.863   5.185
   36CHL1   C24 3832   0.606   4.020   5.050
   36CHL1  H24A 3833   0.704   4.026   5.102
   36CHL1  H24B 3834   0.623   3.944   4.971
   36CHL1   C25 3835   0.562   4.154   5.000
   36CHL1   H25 3836   0.455   4.151   4.969
   36CHL1   C26 3837   0.601   4.261   5.103
   36CHL1  H26A 3838   0.536   4.252   5.192
   36CHL1  H26B 3839   0.702   4.243   5.146
   36CHL1  H26C 3840   0.575   4.355   5.049
   36CHL1   C27 3841   0.632   4.189   4.863
   36CHL1  H27A 3842   0.606   4.290   4.823
   36CHL1  H27B 3843   0.742   4.189   4.877
   36CHL1  H27C 3844   0.610   4.109   4.789
   37CHL1    C3 3845   1.120   0.301   6.246
   37CHL1    H3 3846   1.068   0.398   6.263
   37CHL1    O3 3847   1.171   0.262   6.374
   37CHL1   H3' 3848   1.200   0.172   6.356
   37CHL1    C4 3849   1.023   0.197   6.190
   37CHL1   H4A 3850   1.059   0.092   6.189
   37CHL1   H4B 3851   0.931   0.192   6.252
   37CHL1    C5 3852   0.987   0.232   6.046
   37CHL1    C6 3853   0.861   0.243   6.008
   37CHL1    H6 3854   0.779   0.226   6.079
   37CHL1    C7 3855   0.821   0.266   5.863
   37CHL1   H7A 3856   0.737   0.198   5.837
   37CHL1   H7B 3857   0.788   0.371   5.850
   37CHL1    C8 3858   0.938   0.236   5.766
   37CHL1    H8 3859   0.965   0.129   5.765
   37CHL1   C14 3860   0.901   0.283   5.623
   37CHL1   H14 3861   0.876   0.391   5.633
   37CHL1   C15 3862   0.769   0.232   5.568
   37CHL1  H15A 3863   0.757   0.122   5.584
   37CHL1  H15B 3864   0.681   0.287   5.609
   37CHL1   C16 3865   0.795   0.255   5.417
   37CHL1  H16A 3866   0.796   0.152   5.375
   37CHL1  H16B 3867   0.719   0.313   5.360
   37CHL1   C17 3868   0.938   0.314   5.393
   37CHL1   H17 3869   0.937   0.424   5.411
   37CHL1   C13 3870   1.007   0.263   5.519
   37CHL1   C18 3871   1.038   0.111   5.506
   37CHL1  H18A 3872   0.943   0.055   5.487
   37CHL1  H18B 3873   1.120   0.100   5.432
   37CHL1  H18C 3874   1.083   0.073   5.600
   37CHL1   C12 3875   1.132   0.341   5.570
   37CHL1  H12A 3876   1.213   0.337   5.495
   37CHL1  H12B 3877   1.104   0.449   5.576
   37CHL1   C11 3878   1.184   0.297   5.711
   37CHL1  H11A 3879   1.234   0.200   5.689
   37CHL1  H11B 3880   1.261   0.369   5.746
   37CHL1    C9 3881   1.067   0.301   5.817
   37CHL1    H9 3882   1.050   0.410   5.830
   37CHL1   C10 3883   1.107   0.244   5.956
   37CHL1   C19 3884   1.178   0.104   5.932
   37CHL1  H19A 3885   1.269   0.114   5.869
   37CHL1  H19B 3886   1.218   0.067   6.029
   37CHL1  H19C 3887   1.113   0.026   5.887
   37CHL1    C1 3888   1.220   0.334   6.016
   37CHL1   H1A 3889   1.304   0.324   5.944
   37CHL1   H1B 3890   1.186   0.440   6.010
   37CHL1    C2 3891   1.255   0.314   6.162
   37CHL1   H2A 3892   1.320   0.391   6.210
   37CHL1   H2B 3893   1.302   0.214   6.157
   37CHL1   C20 3894   0.998   0.292   5.251
   37CHL1   H20 3895   1.106   0.310   5.270
   37CHL1   C21 3896   0.946   0.396   5.155
   37CHL1  H21A 3897   0.838   0.377   5.138
   37CHL1  H21B 3898   1.004   0.407   5.061
   37CHL1  H21C 3899   0.945   0.497   5.201
   37CHL1   C22 3900   0.983   0.155   5.184
   37CHL1  H22A 3901   1.034   0.086   5.255
   37CHL1  H22B 3902   0.878   0.120   5.179
   37CHL1   C23 3903   1.057   0.139   5.048
   37CHL1  H23A 3904   0.999   0.205   4.979
   37CHL1  H23B 3905   1.166   0.157   5.035
   37CHL1   C24 3906   1.041   6.800   4.984
   37CHL1  H24A 3907   1.084   6.717   5.045
   37CHL1  H24B 3908   0.932   6.779   4.987
   37CHL1   C25 3909   1.073   6.787   4.837
   37CHL1   H25 3910   1.021   0.072   4.790
   37CHL1   C26 3911   1.221   0.000   4.816
   37CHL1  H26A 3912   1.250   6.760   4.717
   37CHL1  H26B 3913   1.260   0.104   4.815
   37CHL1  H26C 3914   1.266   6.746   4.901
   37CHL1   C27 3915   1.024   6.648   4.783
   37CHL1  H27A 3916   0.915   6.634   4.765
   37CHL1  H27B 3917   1.079   6.628   4.688
   37CHL1  H27C 3918   1.049   6.573   4.861
   38CHL1    C3 3919   1.522   0.666   6.224
   38CHL1    H3 3920   1.544   0.562   6.192
   38CHL1    O3 3921   1.483   0.669   6.355
   38CHL1   H3' 3922   1.517   0.755   6.383
   38CHL1    C4 3923   1.660   0.740   6.196
   38CHL1   H4A 3924   1.644   0.842   6.236
   38CHL1   H4B 3925   1.742   0.692   6.255
   38CHL1    C5 3926   1.694   0.747   6.048
   38CHL1    C6 3927   1.810   0.697   6.002
   38CHL1    H6 3928   1.877   0.647   6.074
   38CHL1    C7 3929   1.857   0.713   5.865
   38CHL1   H7A 3930   1.959   0.758   5.866
   38CHL1   H7B 3931   1.879   0.619   5.811
   38CHL1    C8 3932   1.765   0.809   5.783
   38CHL1    H8 3933   1.774   0.913   5.822
   38CHL1   C14 3934   1.800   0.797   5.635
   38CHL1   H14 3935   1.784   0.690   5.609
   38CHL1   C15 3936   1.942   0.829   5.587
   38CHL1  H15A 3937   1.977   0.923   5.634
   38CHL1  H15B 3938   2.018   0.752   5.613
   38CHL1   C16 3939   1.929   0.847   5.430
   38CHL1  H16A 3940   1.973   0.939   5.386
   38CHL1  H16B 3941   1.986   0.775   5.368
   38CHL1   C17 3942   1.781   0.850   5.400
   38CHL1   H17 3943   1.744   0.745   5.393
   38CHL1   C13 3944   1.708   0.872   5.539
   38CHL1   C18 3945   1.705   1.021   5.570
   38CHL1  H18A 3946   1.796   1.071   5.531
   38CHL1  H18B 3947   1.624   1.071   5.514
   38CHL1  H18C 3948   1.693   1.049   5.677
   38CHL1   C12 3949   1.567   0.802   5.554
   38CHL1  H12A 3950   1.485   0.844   5.492
   38CHL1  H12B 3951   1.577   0.691   5.553
   38CHL1   C11 3952   1.525   0.824   5.705
   38CHL1  H11A 3953   1.534   0.934   5.714
   38CHL1  H11B 3954   1.419   0.799   5.724
   38CHL1    C9 3955   1.623   0.765   5.805
   38CHL1    H9 3956   1.632   0.656   5.782
   38CHL1   C10 3957   1.581   0.788   5.955
   38CHL1   C19 3958   1.563   0.944   5.977
   38CHL1  H19A 3959   1.462   0.962   5.935
   38CHL1  H19B 3960   1.562   0.978   6.083
   38CHL1  H19C 3961   1.633   1.010   5.920
   38CHL1    C1 3962   1.445   0.718   5.991
   38CHL1   H1A 3963   1.355   0.769   5.949
   38CHL1   H1B 3964   1.443   0.609   5.970
   38CHL1    C2 3965   1.412   0.724   6.136
   38CHL1   H2A 3966   1.315   0.678   6.164
   38CHL1   H2B 3967   1.406   0.828   6.174
   38CHL1   C20 3968   1.744   0.929   5.272
   38CHL1   H20 3969   1.783   1.032   5.288
   38CHL1   C21 3970   1.591   0.955   5.248
   38CHL1  H21A 3971   1.524   0.867   5.244
   38CHL1  H21B 3972   1.582   1.015   5.155
   38CHL1  H21C 3973   1.552   1.024   5.327
   38CHL1   C22 3974   1.820   0.876   5.144
   38CHL1  H22A 3975   1.815   0.964   5.076
   38CHL1  H22B 3976   1.926   0.852   5.170
   38CHL1   C23 3977   1.760   0.762   5.066
   38CHL1  H23A 3978   1.730   0.666   5.113
   38CHL1  H23B 3979   1.671   0.811   5.022
   38CHL1   C24 3980   1.875   0.727   4.963
   38CHL1  H24A 3981   1.921   0.816   4.916
   38CHL1  H24B 3982   1.957   0.684   5.025
   38CHL1   C25 3983   1.831   0.627   4.847
   38CHL1   H25 3984   1.927   0.603   4.797
   38CHL1   C26 3985   1.758   0.500   4.894
   38CHL1  H26A 3986   1.660   0.538   4.930
   38CHL1  H26B 3987   1.745   0.423   4.815
   38CHL1  H26C 3988   1.816   0.453   4.976
   38CHL1   C27 3989   1.741   0.701   4.745
   38CHL1  H27A 3990   1.797   0.771   4.679
   38CHL1  H27B 3991   1.706   0.621   4.677
   38CHL1  H27C 3992   1.652   0.758   4.780
   39CHL1    C3 3993   3.584   1.487   6.246
   39CHL1    H3 3994   3.668   1.415   6.239
   39CHL1    O3 3995   3.547   1.506   6.380
   39CHL1   H3' 3996   3.490   1.584   6.381
   39CHL1    C4 3997   3.628   1.618   6.180
   39CHL1   H4A 3998   3.552   1.696   6.205
   39CHL1   H4B 3999   3.711   1.663   6.238
   39CHL1    C5 4000   3.662   1.604   6.035
   39CHL1    C6 4001   3.782   1.629   5.979
   39CHL1    H6 4002   3.866   1.659   6.044
   39CHL1    C7 4003   3.803   1.613   5.830
   39CHL1   H7A 4004   3.870   1.694   5.794
   39CHL1   H7B 4005   3.846   1.513   5.809
   39CHL1    C8 4006   3.675   1.620   5.745
   39CHL1    H8 4007   3.631   1.722   5.746
   39CHL1   C14 4008   3.695   1.574   5.598
   39CHL1   H14 4009   3.741   1.473   5.593
   39CHL1   C15 4010   3.798   1.653   5.515
   39CHL1  H15A 4011   3.795   1.762   5.536
   39CHL1  H15B 4012   3.898   1.612   5.541
   39CHL1   C16 4013   3.753   1.616   5.374
   39CHL1  H16A 4014   3.737   1.702   5.306
   39CHL1  H16B 4015   3.820   1.547   5.317
   39CHL1   C17 4016   3.628   1.525   5.384
   39CHL1   H17 4017   3.669   1.423   5.402
   39CHL1   C13 4018   3.572   1.565   5.513
   39CHL1   C18 4019   3.512   1.711   5.500
   39CHL1  H18A 4020   3.427   1.717   5.428
   39CHL1  H18B 4021   3.479   1.732   5.604
   39CHL1  H18C 4022   3.584   1.790   5.467
   39CHL1   C12 4023   3.469   1.471   5.575
   39CHL1  H12A 4024   3.376   1.456   5.515
   39CHL1  H12B 4025   3.518   1.372   5.582
   39CHL1   C11 4026   3.438   1.513   5.717
   39CHL1  H11A 4027   3.374   1.603   5.719
   39CHL1  H11B 4028   3.367   1.436   5.756
   39CHL1    C9 4029   3.566   1.525   5.801
   39CHL1    H9 4030   3.622   1.429   5.792
   39CHL1   C10 4031   3.543   1.556   5.955
   39CHL1   C19 4032   3.448   1.676   5.957
   39CHL1  H19A 4033   3.421   1.706   6.060
   39CHL1  H19B 4034   3.489   1.762   5.900
   39CHL1  H19C 4035   3.346   1.653   5.919
   39CHL1    C1 4036   3.479   1.427   6.022
   39CHL1   H1A 4037   3.378   1.413   5.977
   39CHL1   H1B 4038   3.538   1.339   5.988
   39CHL1    C2 4039   3.459   1.435   6.175
   39CHL1   H2A 4040   3.432   1.335   6.215
   39CHL1   H2B 4041   3.376   1.502   6.206
   39CHL1   C20 4042   3.531   1.514   5.269
   39CHL1   H20 4043   3.433   1.473   5.302
   39CHL1   C21 4044   3.598   1.406   5.179
   39CHL1  H21A 4045   3.700   1.434   5.146
   39CHL1  H21B 4046   3.537   1.387   5.088
   39CHL1  H21C 4047   3.604   1.311   5.236
   39CHL1   C22 4048   3.519   1.639   5.169
   39CHL1  H22A 4049   3.511   1.733   5.228
   39CHL1  H22B 4050   3.611   1.640   5.107
   39CHL1   C23 4051   3.381   1.623   5.101
   39CHL1  H23A 4052   3.384   1.529   5.041
   39CHL1  H23B 4053   3.300   1.609   5.176
   39CHL1   C24 4054   3.338   1.742   5.022
   39CHL1  H24A 4055   3.233   1.730   4.988
   39CHL1  H24B 4056   3.346   1.829   5.092
   39CHL1   C25 4057   3.426   1.771   4.894
   39CHL1   H25 4058   3.530   1.787   4.931
   39CHL1   C26 4059   3.418   1.660   4.792
   39CHL1  H26A 4060   3.422   1.562   4.844
   39CHL1  H26B 4061   3.319   1.664   4.743
   39CHL1  H26C 4062   3.502   1.669   4.719
   39CHL1   C27 4063   3.367   1.903   4.839
   39CHL1  H27A 4064   3.262   1.886   4.805
   39CHL1  H27B 4065   3.361   1.980   4.919
   39CHL1  H27C 4066   3.417   1.946   4.750
   40CHL1    C3 4067   3.578   3.965   5.863
   40CHL1    H3 4068   3.469   3.962   5.845
   40CHL1    O3 4069   3.593   3.926   5.997
   40CHL1   H3' 4070   3.683   3.952   6.018
   40CHL1    C4 4071   3.641   3.862   5.765
   40CHL1   H4A 4072   3.744   3.835   5.796
   40CHL1   H4B 4073   3.586   3.769   5.789
   40CHL1    C5 4074   3.625   3.916   5.622
   40CHL1    C6 4075   3.565   3.850   5.526
   40CHL1    H6 4076   3.531   3.746   5.540
   40CHL1    C7 4077   3.535   3.910   5.391
   40CHL1   H7A 4078   3.544   3.833   5.311
   40CHL1   H7B 4079   3.430   3.945   5.380
   40CHL1    C8 4080   3.637   4.021   5.350
   40CHL1    H8 4081   3.732   3.971   5.321
   40CHL1   C14 4082   3.583   4.082   5.221
   40CHL1   H14 4083   3.484   4.131   5.233
   40CHL1   C15 4084   3.569   3.999   5.095
   40CHL1  H15A 4085   3.667   3.948   5.081
   40CHL1  H15B 4086   3.486   3.925   5.103
   40CHL1   C16 4087   3.547   4.095   4.981
   40CHL1  H16A 4088   3.619   4.059   4.904
   40CHL1  H16B 4089   3.439   4.098   4.955
   40CHL1   C17 4090   3.591   4.231   5.035
   40CHL1   H17 4091   3.499   4.277   5.077
   40CHL1   C13 4092   3.662   4.201   5.165
   40CHL1   C18 4093   3.809   4.163   5.133
   40CHL1  H18A 4094   3.859   4.252   5.090
   40CHL1  H18B 4095   3.858   4.114   5.221
   40CHL1  H18C 4096   3.821   4.088   5.052
   40CHL1   C12 4097   3.664   4.307   5.276
   40CHL1  H12A 4098   3.730   4.392   5.249
   40CHL1  H12B 4099   3.562   4.353   5.274
   40CHL1   C11 4100   3.708   4.257   5.414
   40CHL1  H11A 4101   3.817   4.235   5.414
   40CHL1  H11B 4102   3.703   4.344   5.483
   40CHL1    C9 4103   3.630   4.132   5.461
   40CHL1    H9 4104   3.523   4.162   5.460
   40CHL1   C10 4105   3.668   4.070   5.600
   40CHL1   C19 4106   3.828   4.066   5.624
   40CHL1  H19A 4107   3.863   3.997   5.703
   40CHL1  H19B 4108   3.869   4.044   5.524
   40CHL1  H19C 4109   3.877   4.166   5.636
   40CHL1    C1 4110   3.608   4.161   5.712
   40CHL1   H1A 4111   3.649   4.263   5.695
   40CHL1   H1B 4112   3.501   4.169   5.682
   40CHL1    C2 4113   3.623   4.108   5.857
   40CHL1   H2A 4114   3.554   4.175   5.913
   40CHL1   H2B 4115   3.727   4.123   5.893
   40CHL1   C20 4116   3.652   4.321   4.921
   40CHL1   H20 4117   3.749   4.283   4.884
   40CHL1   C21 4118   3.672   4.463   4.978
   40CHL1  H21A 4119   3.739   4.518   4.909
   40CHL1  H21B 4120   3.733   4.445   5.070
   40CHL1  H21C 4121   3.579   4.509   5.017
   40CHL1   C22 4122   3.549   4.343   4.801
   40CHL1  H22A 4123   3.497   4.247   4.779
   40CHL1  H22B 4124   3.458   4.394   4.839
   40CHL1   C23 4125   3.613   4.411   4.682
   40CHL1  H23A 4126   3.651   4.512   4.711
   40CHL1  H23B 4127   3.690   4.349   4.633
   40CHL1   C24 4128   3.506   4.429   4.570
   40CHL1  H24A 4129   3.466   4.330   4.540
   40CHL1  H24B 4130   3.423   4.487   4.616
   40CHL1   C25 4131   3.566   4.512   4.443
   40CHL1   H25 4132   3.660   4.467   4.406
   40CHL1   C26 4133   3.479   4.490   4.322
   40CHL1  H26A 4134   3.382   4.539   4.346
   40CHL1  H26B 4135   3.523   4.538   4.232
   40CHL1  H26C 4136   3.456   4.383   4.309
   40CHL1   C27 4137   3.593   4.664   4.472
   40CHL1  H27A 4138   3.667   4.680   4.553
   40CHL1  H27B 4139   3.644   4.702   4.381
   40CHL1  H27C 4140   3.500   4.723   4.483
   41CHL1    C3 4141   0.711   4.734   6.274
   41CHL1    H3 4142   0.816   4.698   6.282
   41CHL1    O3 4143   0.644   4.687   6.391
   41CHL1   H3' 4144   0.560   4.734   6.392
   41CHL1    C4 4145   0.718   4.887   6.279
   41CHL1   H4A 4146   0.613   4.920   6.291
   41CHL1   H4B 4147   0.770   4.918   6.372
   41CHL1    C5 4148   0.774   4.954   6.157
   41CHL1    C6 4149   0.864   5.056   6.165
   41CHL1    H6 4150   0.901   5.084   6.265
   41CHL1    C7 4151   0.924   5.139   6.051
   41CHL1   H7A 4152   0.910   5.247   6.072
   41CHL1   H7B 4153   1.027   5.100   6.043
   41CHL1    C8 4154   0.846   5.106   5.915
   41CHL1    H8 4155   0.756   5.170   5.913
   41CHL1   C14 4156   0.928   5.150   5.802
   41CHL1   H14 4157   1.022   5.091   5.809
   41CHL1   C15 4158   0.974   5.305   5.797
   41CHL1  H15A 4159   0.891   5.376   5.817
   41CHL1  H15B 4160   1.050   5.331   5.874
   41CHL1   C16 4161   1.021   5.327   5.653
   41CHL1  H16A 4162   0.962   5.414   5.616
   41CHL1  H16B 4163   1.129   5.353   5.653
   41CHL1   C17 4164   0.998   5.193   5.588
   41CHL1   H17 4165   1.088   5.132   5.610
   41CHL1   C13 4166   0.885   5.125   5.661
   41CHL1   C18 4167   0.753   5.201   5.639
   41CHL1  H18A 4168   0.671   5.163   5.702
   41CHL1  H18B 4169   0.766   5.311   5.647
   41CHL1  H18C 4170   0.713   5.187   5.536
   41CHL1   C12 4171   0.874   4.974   5.647
   41CHL1  H12A 4172   0.835   4.946   5.547
   41CHL1  H12B 4173   0.972   4.923   5.656
   41CHL1   C11 4174   0.776   4.919   5.755
   41CHL1  H11A 4175   0.682   4.974   5.739
   41CHL1  H11B 4176   0.744   4.813   5.741
   41CHL1    C9 4177   0.816   4.955   5.901
   41CHL1    H9 4178   0.914   4.905   5.912
   41CHL1   C10 4179   0.719   4.905   6.019
   41CHL1   C19 4180   0.571   4.965   6.009
   41CHL1  H19A 4181   0.590   5.073   6.027
   41CHL1  H19B 4182   0.534   4.954   5.905
   41CHL1  H19C 4183   0.510   4.911   6.085
   41CHL1    C1 4184   0.715   4.744   6.015
   41CHL1   H1A 4185   0.656   4.708   5.928
   41CHL1   H1B 4186   0.822   4.715   6.005
   41CHL1    C2 4187   0.646   4.683   6.138
   41CHL1   H2A 4188   0.657   4.573   6.144
   41CHL1   H2B 4189   0.538   4.710   6.135
   41CHL1   C20 4190   0.978   5.194   5.433
   41CHL1   H20 4191   0.868   5.189   5.419
   41CHL1   C21 4192   1.038   5.066   5.368
   41CHL1  H21A 4193   1.024   5.074   5.258
   41CHL1  H21B 4194   1.007   4.970   5.415
   41CHL1  H21C 4195   1.147   5.073   5.382
   41CHL1   C22 4196   1.023   5.326   5.370
   41CHL1  H22A 4197   0.946   5.404   5.390
   41CHL1  H22B 4198   1.119   5.368   5.406
   41CHL1   C23 4199   1.026   5.325   5.213
   41CHL1  H23A 4200   1.102   5.258   5.167
   41CHL1  H23B 4201   0.927   5.288   5.179
   41CHL1   C24 4202   1.039   5.473   5.160
   41CHL1  H24A 4203   0.967   5.548   5.199
   41CHL1  H24B 4204   1.145   5.493   5.188
   41CHL1   C25 4205   1.031   5.484   5.005
   41CHL1   H25 4206   1.045   5.591   4.979
   41CHL1   C26 4207   1.151   5.406   4.941
   41CHL1  H26A 4208   1.131   5.301   4.970
   41CHL1  H26B 4209   1.160   5.423   4.832
   41CHL1  H26C 4210   1.249   5.437   4.983
   41CHL1   C27 4211   0.900   5.433   4.943
   41CHL1  H27A 4212   0.816   5.493   4.984
   41CHL1  H27B 4213   0.910   5.445   4.833
   41CHL1  H27C 4214   0.876   5.327   4.966
   42CHL1    C3 4215   5.564   3.638   6.134
   42CHL1    H3 4216   5.463   3.681   6.120
   42CHL1    O3 4217   5.615   3.666   6.267
   42CHL1   H3' 4218   5.697   3.616   6.265
   42CHL1    C4 4219   5.560   3.488   6.108
   42CHL1   H4A 4220   5.666   3.454   6.115
   42CHL1   H4B 4221   5.497   3.435   6.182
   42CHL1    C5 4222   5.518   3.453   5.966
   42CHL1    C6 4223   5.421   3.368   5.939
   42CHL1    H6 4224   5.380   3.311   6.023
   42CHL1    C7 4225   5.374   3.331   5.801
   42CHL1   H7A 4226   5.363   3.220   5.803
   42CHL1   H7B 4227   5.276   3.383   5.794
   42CHL1    C8 4228   5.466   3.385   5.689
   42CHL1    H8 4229   5.546   3.308   5.679
   42CHL1   C14 4230   5.385   3.399   5.564
   42CHL1   H14 4231   5.313   3.483   5.572
   42CHL1   C15 4232   5.302   3.278   5.520
   42CHL1  H15A 4233   5.368   3.188   5.521
   42CHL1  H15B 4234   5.214   3.256   5.585
   42CHL1   C16 4235   5.278   3.317   5.371
   42CHL1  H16A 4236   5.291   3.225   5.309
   42CHL1  H16B 4237   5.171   3.349   5.372
   42CHL1   C17 4238   5.374   3.431   5.327
   42CHL1   H17 4239   5.315   3.525   5.339
   42CHL1   C13 4240   5.474   3.442   5.440
   42CHL1   C18 4241   5.587   3.338   5.410
   42CHL1  H18A 4242   5.651   3.323   5.500
   42CHL1  H18B 4243   5.541   3.239   5.391
   42CHL1  H18C 4244   5.640   3.360   5.315
   42CHL1   C12 4245   5.529   3.578   5.469
   42CHL1  H12A 4246   5.599   3.619   5.393
   42CHL1  H12B 4247   5.452   3.658   5.474
   42CHL1   C11 4248   5.598   3.580   5.604
   42CHL1  H11A 4249   5.690   3.520   5.586
   42CHL1  H11B 4250   5.625   3.687   5.617
   42CHL1    C9 4251   5.516   3.526   5.722
   42CHL1    H9 4252   5.424   3.588   5.723
   42CHL1   C10 4253   5.587   3.532   5.861
   42CHL1   C19 4254   5.729   3.465   5.833
   42CHL1  H19A 4255   5.730   3.372   5.772
   42CHL1  H19B 4256   5.788   3.521   5.757
   42CHL1  H19C 4257   5.794   3.458   5.922
   42CHL1    C1 4258   5.608   3.685   5.891
   42CHL1   H1A 4259   5.676   3.734   5.819
   42CHL1   H1B 4260   5.508   3.734   5.887
   42CHL1    C2 4261   5.664   3.701   6.037
   42CHL1   H2A 4262   5.693   3.804   6.064
   42CHL1   H2B 4263   5.763   3.649   6.043
   42CHL1   C20 4264   5.420   3.411   5.177
   42CHL1   H20 4265   5.484   3.322   5.164
   42CHL1   C21 4266   5.499   3.539   5.136
   42CHL1  H21A 4267   5.583   3.573   5.202
   42CHL1  H21B 4268   5.426   3.622   5.128
   42CHL1  H21C 4269   5.544   3.523   5.036
   42CHL1   C22 4270   5.314   3.370   5.069
   42CHL1  H22A 4271   5.246   3.295   5.115
   42CHL1  H22B 4272   5.245   3.455   5.047
   42CHL1   C23 4273   5.368   3.314   4.931
   42CHL1  H23A 4274   5.462   3.363   4.898
   42CHL1  H23B 4275   5.389   3.208   4.956
   42CHL1   C24 4276   5.256   3.326   4.820
   42CHL1  H24A 4277   5.159   3.314   4.873
   42CHL1  H24B 4278   5.254   3.431   4.783
   42CHL1   C25 4279   5.271   3.223   4.709
   42CHL1   H25 4280   5.305   3.129   4.757
   42CHL1   C26 4281   5.138   3.196   4.637
   42CHL1  H26A 4282   5.147   3.121   4.555
   42CHL1  H26B 4283   5.065   3.165   4.715
   42CHL1  H26C 4284   5.095   3.294   4.606
   42CHL1   C27 4285   5.374   3.271   4.605
   42CHL1  H27A 4286   5.341   3.373   4.578
   42CHL1  H27B 4287   5.475   3.286   4.649
   42CHL1  H27C 4288   5.375   3.199   4.520
   43CHL1    C3 4289   6.236   1.678   5.896
   43CHL1    H3 4290   6.150   1.748   5.896
   43CHL1    O3 4291   6.254   1.648   6.032
   43CHL1   H3' 4292   6.327   1.705   6.058
   43CHL1    C4 4293   6.181   1.548   5.818
   43CHL1   H4A 4294   6.248   1.460   5.822
   43CHL1   H4B 4295   6.094   1.514   5.878
   43CHL1    C5 4296   6.156   1.571   5.665
   43CHL1    C6 4297   6.032   1.563   5.605
   43CHL1    H6 4298   5.955   1.529   5.676
   43CHL1    C7 4299   5.998   1.597   5.466
   43CHL1   H7A 4300   5.946   1.509   5.422
   43CHL1   H7B 4301   5.923   1.679   5.457
   43CHL1    C8 4302   6.121   1.614   5.378
   43CHL1    H8 4303   6.164   1.514   5.355
   43CHL1   C14 4304   6.080   1.693   5.256
   43CHL1   H14 4305   6.053   1.796   5.285
   43CHL1   C15 4306   5.966   1.638   5.170
   43CHL1  H15A 4307   5.989   1.530   5.162
   43CHL1  H15B 4308   5.865   1.652   5.212
   43CHL1   C16 4309   5.987   1.714   5.037
   43CHL1  H16A 4310   5.965   1.654   4.946
   43CHL1  H16B 4311   5.920   1.802   5.028
   43CHL1   C17 4312   6.130   1.784   5.039
   43CHL1   H17 4313   6.109   1.885   5.079
   43CHL1   C13 4314   6.202   1.715   5.158
   43CHL1   C18 4315   6.259   1.579   5.110
   43CHL1  H18A 4316   6.354   1.590   5.052
   43CHL1  H18B 4317   6.283   1.522   5.202
   43CHL1  H18C 4318   6.188   1.515   5.053
   43CHL1   C12 4319   6.299   1.798   5.237
   43CHL1  H12A 4320   6.391   1.830   5.184
   43CHL1  H12B 4321   6.258   1.898   5.262
   43CHL1   C11 4322   6.351   1.733   5.369
   43CHL1  H11A 4323   6.418   1.648   5.341
   43CHL1  H11B 4324   6.415   1.810   5.418
   43CHL1    C9 4325   6.230   1.699   5.456
   43CHL1    H9 4326   6.179   1.793   5.488
   43CHL1   C10 4327   6.278   1.629   5.587
   43CHL1   C19 4328   6.381   1.520   5.566
   43CHL1  H19A 4329   6.401   1.462   5.659
   43CHL1  H19B 4330   6.345   1.453   5.485
   43CHL1  H19C 4331   6.483   1.559   5.546
   43CHL1    C1 4332   6.357   1.739   5.673
   43CHL1   H1A 4333   6.462   1.755   5.641
   43CHL1   H1B 4334   6.308   1.836   5.650
   43CHL1    C2 4335   6.367   1.723   5.825
   43CHL1   H2A 4336   6.414   1.812   5.872
   43CHL1   H2B 4337   6.440   1.641   5.840
   43CHL1   C20 4338   6.195   1.807   4.899
   43CHL1   H20 4339   6.303   1.827   4.917
   43CHL1   C21 4340   6.137   1.931   4.835
   43CHL1  H21A 4341   6.030   1.955   4.854
   43CHL1  H21B 4342   6.141   1.914   4.725
   43CHL1  H21C 4343   6.186   2.023   4.873
   43CHL1   C22 4344   6.190   1.683   4.806
   43CHL1  H22A 4345   6.181   1.589   4.865
   43CHL1  H22B 4346   6.099   1.687   4.741
   43CHL1   C23 4347   6.313   1.665   4.730
   43CHL1  H23A 4348   6.341   1.752   4.668
   43CHL1  H23B 4349   6.395   1.637   4.800
   43CHL1   C24 4350   6.292   1.558   4.620
   43CHL1  H24A 4351   6.250   1.463   4.659
   43CHL1  H24B 4352   6.235   1.607   4.538
   43CHL1   C25 4353   6.427   1.520   4.547
   43CHL1   H25 4354   6.400   1.458   4.459
   43CHL1   C26 4355   6.497   1.640   4.488
   43CHL1  H26A 4356   6.434   1.709   4.428
   43CHL1  H26B 4357   6.547   1.703   4.566
   43CHL1  H26C 4358   6.568   1.602   4.412
   43CHL1   C27 4359   6.521   1.439   4.637
   43CHL1  H27A 4360   6.523   1.484   4.738
   43CHL1  H27B 4361   6.477   1.338   4.649
   43CHL1  H27C 4362   6.627   1.442   4.606
   44CHL1    C3 4363   0.071   3.019   5.915
   44CHL1    H3 4364   6.771   3.055   5.885
   44CHL1    O3 4365   0.065   2.983   6.050
   44CHL1   H3' 4366   0.155   2.996   6.081
   44CHL1    C4 4367   0.105   2.891   5.833
   44CHL1   H4A 4368   0.200   2.847   5.871
   44CHL1   H4B 4369   0.021   2.818   5.847
   44CHL1    C5 4370   0.109   2.928   5.683
   44CHL1    C6 4371   0.050   2.861   5.582
   44CHL1    H6 4372   6.784   2.775   5.601
   44CHL1    C7 4373   0.063   2.889   5.437
   44CHL1   H7A 4374   0.061   2.796   5.376
   44CHL1   H7B 4375   6.776   2.951   5.406
   44CHL1    C8 4376   0.190   2.973   5.408
   44CHL1    H8 4377   0.275   2.902   5.411
   44CHL1   C14 4378   0.167   3.027   5.262
   44CHL1   H14 4379   0.083   3.099   5.269
   44CHL1   C15 4380   0.133   2.923   5.151
   44CHL1  H15A 4381   0.199   2.833   5.155
   44CHL1  H15B 4382   0.025   2.906   5.170
   44CHL1   C16 4383   0.165   3.001   5.026
   44CHL1  H16A 4384   0.235   2.933   4.974
   44CHL1  H16B 4385   0.076   3.010   4.960
   44CHL1   C17 4386   0.225   3.144   5.062
   44CHL1   H17 4387   0.135   3.209   5.073
   44CHL1   C13 4388   0.277   3.120   5.207
   44CHL1   C18 4389   0.411   3.043   5.213
   44CHL1  H18A 4390   0.458   3.039   5.314
   44CHL1  H18B 4391   0.394   2.944   5.167
   44CHL1  H18C 4392   0.482   3.096   5.145
   44CHL1   C12 4393   0.278   3.238   5.300
   44CHL1  H12A 4394   0.373   3.286   5.267
   44CHL1  H12B 4395   0.187   3.299   5.285
   44CHL1   C11 4396   0.293   3.201   5.447
   44CHL1  H11A 4397   0.395   3.159   5.459
   44CHL1  H11B 4398   0.272   3.290   5.511
   44CHL1    C9 4399   0.199   3.089   5.501
   44CHL1    H9 4400   0.095   3.128   5.493
   44CHL1   C10 4401   0.212   3.040   5.649
   44CHL1   C19 4402   0.354   2.979   5.665
   44CHL1  H19A 4403   0.373   2.899   5.592
   44CHL1  H19B 4404   0.425   3.059   5.636
   44CHL1  H19C 4405   0.371   2.941   5.768
   44CHL1    C1 4406   0.183   3.159   5.737
   44CHL1   H1A 4407   0.252   3.245   5.723
   44CHL1   H1B 4408   0.085   3.205   5.711
   44CHL1    C2 4409   0.180   3.122   5.887
   44CHL1   H2A 4410   0.142   3.202   5.954
   44CHL1   H2B 4411   0.274   3.084   5.932
   44CHL1   C20 4412   0.311   3.216   4.953
   44CHL1   H20 4413   0.406   3.159   4.945
   44CHL1   C21 4414   0.356   3.351   4.990
   44CHL1  H21A 4415   0.412   3.386   4.900
   44CHL1  H21B 4416   0.425   3.345   5.077
   44CHL1  H21C 4417   0.280   3.431   5.004
   44CHL1   C22 4418   0.254   3.212   4.809
   44CHL1  H22A 4419   0.343   3.237   4.748
   44CHL1  H22B 4420   0.232   3.103   4.801
   44CHL1   C23 4421   0.137   3.307   4.783
   44CHL1  H23A 4422   0.077   3.314   4.876
   44CHL1  H23B 4423   0.175   3.411   4.773
   44CHL1   C24 4424   0.052   3.265   4.660
   44CHL1  H24A 4425   0.105   3.313   4.575
   44CHL1  H24B 4426   0.037   3.156   4.641
   44CHL1   C25 4427   6.712   3.319   4.657
   44CHL1   H25 4428   6.664   3.308   4.756
   44CHL1   C26 4429   6.711   3.469   4.624
   44CHL1  H26A 4430   6.789   3.533   4.671
   44CHL1  H26B 4431   6.726   3.473   4.514
   44CHL1  H26C 4432   6.607   3.505   4.639
   44CHL1   C27 4433   6.632   3.238   4.552
   44CHL1  H27A 4434   6.617   3.138   4.597
   44CHL1  H27B 4435   6.531   3.275   4.523
   44CHL1  H27C 4436   6.693   3.218   4.461
   45CHL1    C3 4437   6.479   4.444   6.196
   45CHL1    H3 4438   6.427   4.542   6.194
   45CHL1    O3 4439   6.506   4.406   6.328
   45CHL1   H3' 4440   6.585   4.454   6.356
   45CHL1    C4 4441   6.401   4.336   6.129
   45CHL1   H4A 4442   6.461   4.244   6.148
   45CHL1   H4B 4443   6.301   4.322   6.175
   45CHL1    C5 4444   6.393   4.353   5.977
   45CHL1    C6 4445   6.274   4.356   5.916
   45CHL1    H6 4446   6.182   4.353   5.976
   45CHL1    C7 4447   6.263   4.352   5.765
   45CHL1   H7A 4448   6.182   4.285   5.730
   45CHL1   H7B 4449   6.223   4.452   5.738
   45CHL1    C8 4450   6.393   4.321   5.691
   45CHL1    H8 4451   6.409   4.212   5.698
   45CHL1   C14 4452   6.371   4.348   5.543
   45CHL1   H14 4453   6.349   4.457   5.545
   45CHL1   C15 4454   6.260   4.267   5.465
   45CHL1  H15A 4455   6.263   4.160   5.494
   45CHL1  H15B 4456   6.160   4.310   5.488
   45CHL1   C16 4457   6.305   4.267   5.316
   45CHL1  H16A 4458   6.322   4.161   5.290
   45CHL1  H16B 4459   6.228   4.314   5.250
   45CHL1   C17 4460   6.438   4.347   5.325
   45CHL1   H17 4461   6.408   4.453   5.311
   45CHL1   C13 4462   6.498   4.329   5.468
   45CHL1   C18 4463   6.560   4.190   5.479
   45CHL1  H18A 4464   6.500   4.109   5.431
   45CHL1  H18B 4465   6.660   4.198   5.431
   45CHL1  H18C 4466   6.589   4.157   5.581
   45CHL1   C12 4467   6.594   4.440   5.514
   45CHL1  H12A 4468   6.690   4.428   5.458
   45CHL1  H12B 4469   6.541   4.535   5.492
   45CHL1   C11 4470   6.636   4.419   5.662
   45CHL1  H11A 4471   6.700   4.328   5.663
   45CHL1  H11B 4472   6.685   4.514   5.692
   45CHL1    C9 4473   6.505   4.405   5.752
   45CHL1    H9 4474   6.468   4.510   5.750
   45CHL1   C10 4475   6.526   4.357   5.904
   45CHL1   C19 4476   6.601   4.224   5.911
   45CHL1  H19A 4477   6.633   4.206   6.015
   45CHL1  H19B 4478   6.523   4.148   5.890
   45CHL1  H19C 4479   6.688   4.226   5.841
   45CHL1    C1 4480   6.605   4.466   5.976
   45CHL1   H1A 4481   6.708   4.468   5.936
   45CHL1   H1B 4482   6.563   4.563   5.939
   45CHL1    C2 4483   6.618   4.464   6.129
   45CHL1   H2A 4484   6.658   4.560   6.167
   45CHL1   H2B 4485   6.684   4.378   6.154
   45CHL1   C20 4486   6.538   4.331   5.202
   45CHL1   H20 4487   6.642   4.353   5.235
   45CHL1   C21 4488   6.508   4.451   5.104
   45CHL1  H21A 4489   6.577   4.451   5.017
   45CHL1  H21B 4490   6.526   4.548   5.154
   45CHL1  H21C 4491   6.402   4.428   5.078
   45CHL1   C22 4492   6.552   4.190   5.135
   45CHL1  H22A 4493   6.571   4.104   5.203
   45CHL1  H22B 4494   6.453   4.168   5.089
   45CHL1   C23 4495   6.664   4.190   5.027
   45CHL1  H23A 4496   6.641   4.262   4.946
   45CHL1  H23B 4497   6.763   4.209   5.074
   45CHL1   C24 4498   6.667   4.050   4.958
   45CHL1  H24A 4499   6.675   3.957   5.020
   45CHL1  H24B 4500   6.576   4.026   4.899
   45CHL1   C25 4501   6.774   4.044   4.844
   45CHL1   H25 4502   6.755   4.133   4.780
   45CHL1   C26 4503   0.119   4.057   4.902
   45CHL1  H26A 4504   0.195   4.043   4.823
   45CHL1  H26B 4505   0.132   4.158   4.946
   45CHL1  H26C 4506   0.122   3.979   4.981
   45CHL1   C27 4507   6.770   3.912   4.750
   45CHL1  H27A 4508   6.776   3.816   4.805
   45CHL1  H27B 4509   6.672   3.912   4.698
   45CHL1  H27C 4510   0.052   3.906   4.676
   46CHL1    C3 4511   2.158   5.974   6.409
   46CHL1    H3 4512   2.222   5.884   6.404
   46CHL1    O3 4513   2.131   5.994   6.544
   46CHL1   H3' 4514   2.070   6.069   6.542
   46CHL1    C4 4515   2.220   6.095   6.345
   46CHL1   H4A 4516   2.143   6.171   6.368
   46CHL1   H4B 4517   2.312   6.117   6.403
   46CHL1    C5 4518   2.249   6.096   6.197
   46CHL1    C6 4519   2.368   6.116   6.141
   46CHL1    H6 4520   2.454   6.113   6.210
   46CHL1    C7 4521   2.405   6.111   5.997
   46CHL1   H7A 4522   2.471   6.198   5.974
   46CHL1   H7B 4523   2.446   6.015   5.961
   46CHL1    C8 4524   2.274   6.129   5.911
   46CHL1    H8 4525   2.233   6.232   5.917
   46CHL1   C14 4526   2.291   6.097   5.763
   46CHL1   H14 4527   2.318   5.990   5.771
   46CHL1   C15 4528   2.408   6.174   5.696
   46CHL1  H15A 4529   2.403   6.282   5.721
   46CHL1  H15B 4530   2.511   6.139   5.717
   46CHL1   C16 4531   2.375   6.160   5.549
   46CHL1  H16A 4532   2.375   6.259   5.500
   46CHL1  H16B 4533   2.448   6.104   5.487
   46CHL1   C17 4534   2.240   6.078   5.543
   46CHL1   H17 4535   2.260   5.969   5.534
   46CHL1   C13 4536   2.168   6.108   5.673
   46CHL1   C18 4537   2.111   6.254   5.671
   46CHL1  H18A 4538   2.192   6.319   5.632
   46CHL1  H18B 4539   2.022   6.266   5.605
   46CHL1  H18C 4540   2.076   6.283   5.772
   46CHL1   C12 4541   2.072   6.004   5.730
   46CHL1  H12A 4542   1.980   5.996   5.669
   46CHL1  H12B 4543   2.116   5.902   5.721
   46CHL1   C11 4544   2.033   6.033   5.879
   46CHL1  H11A 4545   1.971   6.125   5.874
   46CHL1  H11B 4546   1.966   5.955   5.920
   46CHL1    C9 4547   2.156   6.040   5.972
   46CHL1    H9 4548   2.204   5.939   5.968
   46CHL1   C10 4549   2.125   6.066   6.120
   46CHL1   C19 4550   2.025   6.191   6.130
   46CHL1  H19A 4551   1.995   6.203   6.237
   46CHL1  H19B 4552   2.075   6.280   6.087
   46CHL1  H19C 4553   1.934   6.172   6.070
   46CHL1    C1 4554   2.062   5.936   6.188
   46CHL1   H1A 4555   1.962   5.917   6.143
   46CHL1   H1B 4556   2.129   5.851   6.163
   46CHL1    C2 4557   2.034   5.942   6.335
   46CHL1   H2A 4558   1.984   5.851   6.374
   46CHL1   H2B 4559   1.959   6.023   6.348
   46CHL1   C20 4560   2.154   6.107   5.418
   46CHL1   H20 4561   2.121   6.212   5.406
   46CHL1   C21 4562   2.019   6.026   5.407
   46CHL1  H21A 4563   1.942   6.044   5.485
   46CHL1  H21B 4564   2.040   5.917   5.401
   46CHL1  H21C 4565   1.965   6.048   5.312
   46CHL1   C22 4566   2.232   6.075   5.289
   46CHL1  H22A 4567   2.333   6.121   5.284
   46CHL1  H22B 4568   2.238   5.964   5.282
   46CHL1   C23 4569   2.169   6.133   5.163
   46CHL1  H23A 4570   2.076   6.088   5.122
   46CHL1  H23B 4571   2.143   6.241   5.176
   46CHL1   C24 4572   2.267   6.123   5.050
   46CHL1  H24A 4573   2.375   6.143   5.065
   46CHL1  H24B 4574   2.260   6.017   5.020
   46CHL1   C25 4575   2.214   6.218   4.941
   46CHL1   H25 4576   2.106   6.201   4.923
   46CHL1   C26 4577   2.222   6.372   4.973
   46CHL1  H26A 4578   2.325   6.402   5.000
   46CHL1  H26B 4579   2.192   6.440   4.891
   46CHL1  H26C 4580   2.154   6.407   5.054
   46CHL1   C27 4581   2.290   6.202   4.809
   46CHL1  H27A 4582   2.240   6.267   4.734
   46CHL1  H27B 4583   2.398   6.226   4.817
   46CHL1  H27C 4584   2.278   6.101   4.764
   47CHL1    C3 4585   3.750   4.645   6.172
   47CHL1    H3 4586   3.646   4.606   6.164
   47CHL1    O3 4587   3.781   4.616   6.306
   47CHL1   H3' 4588   3.847   4.546   6.302
   47CHL1    C4 4589   3.840   4.565   6.070
   47CHL1   H4A 4590   3.946   4.583   6.095
   47CHL1   H4B 4591   3.822   4.458   6.092
   47CHL1    C5 4592   3.815   4.608   5.925
   47CHL1    C6 4593   3.787   4.515   5.832
   47CHL1    H6 4594   3.802   4.406   5.844
   47CHL1    C7 4595   3.783   4.539   5.686
   47CHL1   H7A 4596   3.860   4.475   5.638
   47CHL1   H7B 4597   3.680   4.516   5.651
   47CHL1    C8 4598   3.823   4.688   5.641
   47CHL1    H8 4599   3.933   4.678   5.629
   47CHL1   C14 4600   3.758   4.720   5.510
   47CHL1   H14 4601   3.649   4.739   5.519
   47CHL1   C15 4602   3.761   4.608   5.410
   47CHL1  H15A 4603   3.853   4.549   5.392
   47CHL1  H15B 4604   3.676   4.539   5.431
   47CHL1   C16 4605   3.745   4.690   5.276
   47CHL1  H16A 4606   3.822   4.655   5.204
   47CHL1  H16B 4607   3.644   4.676   5.232
   47CHL1   C17 4608   3.751   4.844   5.300
   47CHL1   H17 4609   3.646   4.874   5.320
   47CHL1   C13 4610   3.809   4.848   5.445
   47CHL1   C18 4611   3.956   4.844   5.417
   47CHL1  H18A 4612   3.966   4.764   5.341
   47CHL1  H18B 4613   4.016   4.928   5.374
   47CHL1  H18C 4614   4.020   4.803   5.498
   47CHL1   C12 4615   3.766   4.962   5.551
   47CHL1  H12A 4616   3.803   5.057   5.506
   47CHL1  H12B 4617   3.656   4.954   5.548
   47CHL1   C11 4618   3.820   4.937   5.690
   47CHL1  H11A 4619   3.930   4.945   5.676
   47CHL1  H11B 4620   3.789   5.015   5.763
   47CHL1    C9 4621   3.789   4.793   5.745
   47CHL1    H9 4622   3.678   4.792   5.746
   47CHL1   C10 4623   3.831   4.759   5.896
   47CHL1   C19 4624   3.974   4.814   5.916
   47CHL1  H19A 4625   4.010   4.792   6.019
   47CHL1  H19B 4626   4.046   4.770   5.844
   47CHL1  H19C 4627   3.980   4.924   5.903
   47CHL1    C1 4628   3.740   4.831   5.997
   47CHL1   H1A 4629   3.746   4.941   5.978
   47CHL1   H1B 4630   3.632   4.812   5.977
   47CHL1    C2 4631   3.765   4.790   6.147
   47CHL1   H2A 4632   3.683   4.837   6.205
   47CHL1   H2B 4633   3.868   4.817   6.182
   47CHL1   C20 4634   3.799   4.929   5.184
   47CHL1   H20 4635   3.906   4.913   5.159
   47CHL1   C21 4636   3.773   5.074   5.225
   47CHL1  H21A 4637   3.763   5.144   5.139
   47CHL1  H21B 4638   3.857   5.103   5.292
   47CHL1  H21C 4639   3.675   5.102   5.269
   47CHL1   C22 4640   3.718   4.890   5.059
   47CHL1  H22A 4641   3.747   4.785   5.038
   47CHL1  H22B 4642   3.610   4.915   5.068
   47CHL1   C23 4643   3.763   4.971   4.940
   47CHL1  H23A 4644   3.728   5.074   4.961
   47CHL1  H23B 4645   3.874   4.971   4.933
   47CHL1   C24 4646   3.691   4.922   4.816
   47CHL1  H24A 4647   3.713   4.817   4.787
   47CHL1  H24B 4648   3.583   4.921   4.842
   47CHL1   C25 4649   3.705   5.010   4.693
   47CHL1   H25 4650   3.653   4.957   4.610
   47CHL1   C26 4651   3.623   5.144   4.707
   47CHL1  H26A 4652   3.619   5.209   4.617
   47CHL1  H26B 4653   3.518   5.132   4.739
   47CHL1  H26C 4654   3.674   5.212   4.780
   47CHL1   C27 4655   3.840   5.041   4.645
   47CHL1  H27A 4656   3.848   5.087   4.544
   47CHL1  H27B 4657   3.896   5.108   4.714
   47CHL1  H27C 4658   3.899   4.947   4.651
   48CHL1    C3 4659   1.102   5.729   6.199
   48CHL1    H3 4660   1.085   5.837   6.179
   48CHL1    O3 4661   1.048   5.685   6.318
   48CHL1   H3' 4662   1.086   5.754   6.374
   48CHL1    C4 4663   1.029   5.650   6.081
   48CHL1   H4A 4664   1.025   5.543   6.109
   48CHL1   H4B 4665   0.926   5.691   6.083
   48CHL1    C5 4666   1.086   5.663   5.941
   48CHL1    C6 4667   1.005   5.714   5.835
   48CHL1    H6 4668   0.896   5.716   5.849
   48CHL1    C7 4669   1.057   5.740   5.691
   48CHL1   H7A 4670   0.983   5.691   5.625
   48CHL1   H7B 4671   1.044   5.850   5.679
   48CHL1    C8 4672   1.201   5.691   5.678
   48CHL1    H8 4673   1.206   5.582   5.660
   48CHL1   C14 4674   1.251   5.765   5.553
   48CHL1   H14 4675   1.258   5.869   5.592
   48CHL1   C15 4676   1.174   5.769   5.422
   48CHL1  H15A 4677   1.112   5.677   5.411
   48CHL1  H15B 4678   1.091   5.842   5.435
   48CHL1   C16 4679   1.265   5.808   5.311
   48CHL1  H16A 4680   1.287   5.729   5.236
   48CHL1  H16B 4681   1.234   5.910   5.279
   48CHL1   C17 4682   1.411   5.812   5.380
   48CHL1   H17 4683   1.414   5.917   5.418
   48CHL1   C13 4684   1.395   5.724   5.511
   48CHL1   C18 4685   1.395   5.572   5.471
   48CHL1  H18A 4686   1.494   5.543   5.427
   48CHL1  H18B 4687   1.378   5.508   5.560
   48CHL1  H18C 4688   1.320   5.566   5.389
   48CHL1   C12 4689   1.484   5.756   5.630
   48CHL1  H12A 4690   1.587   5.720   5.611
   48CHL1  H12B 4691   1.490   5.866   5.641
   48CHL1   C11 4692   1.439   5.682   5.761
   48CHL1  H11A 4693   1.454   5.572   5.757
   48CHL1  H11B 4694   1.507   5.724   5.838
   48CHL1    C9 4695   1.289   5.709   5.797
   48CHL1    H9 4696   1.289   5.819   5.807
   48CHL1   C10 4697   1.241   5.646   5.932
   48CHL1   C19 4698   1.266   5.497   5.938
   48CHL1  H19A 4699   1.232   5.440   5.850
   48CHL1  H19B 4700   1.372   5.466   5.950
   48CHL1  H19C 4701   1.219   5.456   6.030
   48CHL1    C1 4702   1.309   5.718   6.055
   48CHL1   H1A 4703   1.415   5.684   6.054
   48CHL1   H1B 4704   1.290   5.826   6.039
   48CHL1    C2 4705   1.251   5.681   6.193
   48CHL1   H2A 4706   1.294   5.744   6.273
   48CHL1   H2B 4707   1.262   5.574   6.221
   48CHL1   C20 4708   1.526   5.790   5.281
   48CHL1   H20 4709   1.526   5.688   5.237
   48CHL1   C21 4710   1.658   5.814   5.354
   48CHL1  H21A 4711   1.642   5.902   5.421
   48CHL1  H21B 4712   1.678   5.724   5.417
   48CHL1  H21C 4713   1.738   5.824   5.278
   48CHL1   C22 4714   1.512   5.888   5.161
   48CHL1  H22A 4715   1.421   5.849   5.111
   48CHL1  H22B 4716   1.495   5.994   5.189
   48CHL1   C23 4717   1.627   5.895   5.063
   48CHL1  H23A 4718   1.713   5.957   5.099
   48CHL1  H23B 4719   1.671   5.793   5.058
   48CHL1   C24 4720   1.579   5.938   4.923
   48CHL1  H24A 4721   1.486   5.884   4.897
   48CHL1  H24B 4722   1.536   6.040   4.928
   48CHL1   C25 4723   1.683   5.943   4.800
   48CHL1   H25 4724   1.681   5.840   4.760
   48CHL1   C26 4725   1.631   6.026   4.682
   48CHL1  H26A 4726   1.702   6.021   4.597
   48CHL1  H26B 4727   1.542   5.978   4.636
   48CHL1  H26C 4728   1.607   6.133   4.702
   48CHL1   C27 4729   1.832   5.973   4.833
   48CHL1  H27A 4730   1.860   5.898   4.909
   48CHL1  H27B 4731   1.906   5.967   4.750
   48CHL1  H27C 4732   1.828   6.067   4.893
   49CHL1    C3 4733   4.413   4.343   2.707
   49CHL1    H3 4734   4.305   4.366   2.717
   49CHL1    O3 4735   4.457   4.346   2.568
   49CHL1   H3' 4736   4.544   4.306   2.567
   49CHL1    C4 4737   4.518   4.428   2.779
   49CHL1   H4A 4738   4.622   4.396   2.754
   49CHL1   H4B 4739   4.506   4.532   2.743
   49CHL1    C5 4740   4.508   4.421   2.932
   49CHL1    C6 4741   4.502   4.538   3.008
   49CHL1    H6 4742   4.495   4.638   2.963
   49CHL1    C7 4743   4.477   4.537   3.156
   49CHL1   H7A 4744   4.544   4.618   3.190
   49CHL1   H7B 4745   4.375   4.576   3.179
   49CHL1    C8 4746   4.510   4.403   3.222
   49CHL1    H8 4747   4.620   4.390   3.228
   49CHL1   C14 4748   4.441   4.393   3.366
   49CHL1   H14 4749   4.331   4.391   3.349
   49CHL1   C15 4750   4.471   4.501   3.464
   49CHL1  H15A 4751   4.578   4.534   3.461
   49CHL1  H15B 4752   4.419   4.596   3.437
   49CHL1   C16 4753   4.431   4.452   3.598
   49CHL1  H16A 4754   4.521   4.460   3.663
   49CHL1  H16B 4755   4.339   4.503   3.634
   49CHL1   C17 4756   4.402   4.298   3.571
   49CHL1   H17 4757   4.292   4.296   3.554
   49CHL1   C13 4758   4.469   4.263   3.439
   49CHL1   C18 4759   4.621   4.250   3.452
   49CHL1  H18A 4760   4.687   4.245   3.363
   49CHL1  H18B 4761   4.675   4.330   3.507
   49CHL1  H18C 4762   4.639   4.154   3.506
   49CHL1   C12 4763   4.404   4.153   3.358
   49CHL1  H12A 4764   4.434   4.054   3.398
   49CHL1  H12B 4765   4.295   4.176   3.356
   49CHL1   C11 4766   4.459   4.145   3.208
   49CHL1  H11A 4767   4.568   4.125   3.198
   49CHL1  H11B 4768   4.404   4.060   3.162
   49CHL1    C9 4769   4.449   4.286   3.131
   49CHL1    H9 4770   4.339   4.297   3.116
   49CHL1   C10 4771   4.500   4.279   2.988
   49CHL1   C19 4772   4.646   4.222   2.983
   49CHL1  H19A 4773   4.649   4.112   2.999
   49CHL1  H19B 4774   4.675   4.226   2.876
   49CHL1  H19C 4775   4.720   4.271   3.049
   49CHL1    C1 4776   4.400   4.185   2.909
   49CHL1   H1A 4777   4.405   4.082   2.951
   49CHL1   H1B 4778   4.297   4.219   2.932
   49CHL1    C2 4779   4.420   4.197   2.758
   49CHL1   H2A 4780   4.329   4.153   2.712
   49CHL1   H2B 4781   4.509   4.141   2.722
   49CHL1   C20 4782   4.434   4.222   3.697
   49CHL1   H20 4783   4.540   4.241   3.721
   49CHL1   C21 4784   4.424   4.067   3.673
   49CHL1  H21A 4785   4.446   4.013   3.768
   49CHL1  H21B 4786   4.483   4.028   3.587
   49CHL1  H21C 4787   4.317   4.056   3.644
   49CHL1   C22 4788   4.346   4.271   3.813
   49CHL1  H22A 4789   4.360   4.380   3.832
   49CHL1  H22B 4790   4.244   4.257   3.770
   49CHL1   C23 4791   4.352   4.190   3.947
   49CHL1  H23A 4792   4.321   4.084   3.937
   49CHL1  H23B 4793   4.461   4.186   3.969
   49CHL1   C24 4794   4.271   4.264   4.061
   49CHL1  H24A 4795   4.328   4.359   4.075
   49CHL1  H24B 4796   4.169   4.278   4.020
   49CHL1   C25 4797   4.261   4.175   4.190
   49CHL1   H25 4798   4.215   4.078   4.164
   49CHL1   C26 4799   4.398   4.145   4.266
   49CHL1  H26A 4800   4.376   4.107   4.368
   49CHL1  H26B 4801   4.451   4.070   4.204
   49CHL1  H26C 4802   4.460   4.237   4.269
   49CHL1   C27 4803   4.158   4.242   4.285
   49CHL1  H27A 4804   4.061   4.259   4.233
   49CHL1  H27B 4805   4.139   4.191   4.382
   49CHL1  H27C 4806   4.202   4.335   4.327
   50CHL1    C3 4807   3.959   1.495   2.594
   50CHL1    H3 4808   3.858   1.539   2.605
   50CHL1    O3 4809   3.999   1.521   2.460
   50CHL1   H3' 4810   4.057   1.448   2.438
   50CHL1    C4 4811   4.056   1.564   2.696
   50CHL1   H4A 4812   4.158   1.524   2.684
   50CHL1   H4B 4813   4.068   1.671   2.668
   50CHL1    C5 4814   4.010   1.550   2.840
   50CHL1    C6 4815   4.008   1.652   2.917
   50CHL1    H6 4816   4.028   1.752   2.877
   50CHL1    C7 4817   3.973   1.643   3.063
   50CHL1   H7A 4818   4.038   1.709   3.124
   50CHL1   H7B 4819   3.869   1.677   3.083
   50CHL1    C8 4820   3.983   1.501   3.119
   50CHL1    H8 4821   4.090   1.469   3.122
   50CHL1   C14 4822   3.928   1.487   3.262
   50CHL1   H14 4823   3.818   1.501   3.255
   50CHL1   C15 4824   3.973   1.591   3.373
   50CHL1  H15A 4825   4.083   1.601   3.380
   50CHL1  H15B 4826   3.942   1.693   3.341
   50CHL1   C16 4827   3.914   1.527   3.497
   50CHL1  H16A 4828   3.992   1.532   3.576
   50CHL1  H16B 4829   3.822   1.563   3.548
   50CHL1   C17 4830   3.875   1.374   3.466
   50CHL1   H17 4831   3.766   1.370   3.445
   50CHL1   C13 4832   3.944   1.347   3.328
   50CHL1   C18 4833   4.087   1.310   3.368
   50CHL1  H18A 4834   4.089   1.211   3.418
   50CHL1  H18B 4835   4.150   1.303   3.278
   50CHL1  H18C 4836   4.135   1.390   3.430
   50CHL1   C12 4837   3.875   1.244   3.239
   50CHL1  H12A 4838   3.913   1.144   3.271
   50CHL1  H12B 4839   3.765   1.256   3.248
   50CHL1   C11 4840   3.929   1.257   3.095
   50CHL1  H11A 4841   4.033   1.222   3.113
   50CHL1  H11B 4842   3.882   1.185   3.025
   50CHL1    C9 4843   3.916   1.395   3.023
   50CHL1    H9 4844   3.807   1.420   3.021
   50CHL1   C10 4845   3.980   1.410   2.883
   50CHL1   C19 4846   4.115   1.336   2.887
   50CHL1  H19A 4847   4.100   1.226   2.885
   50CHL1  H19B 4848   4.179   1.363   2.801
   50CHL1  H19C 4849   4.173   1.352   2.981
   50CHL1    C1 4850   3.895   1.332   2.773
   50CHL1   H1A 4851   3.895   1.226   2.807
   50CHL1   H1B 4852   3.792   1.371   2.788
   50CHL1    C2 4853   3.941   1.346   2.628
   50CHL1   H2A 4854   3.860   1.309   2.561
   50CHL1   H2B 4855   4.039   1.293   2.624
   50CHL1   C20 4856   3.890   1.280   3.587
   50CHL1   H20 4857   3.994   1.255   3.617
   50CHL1   C21 4858   3.814   1.141   3.557
   50CHL1  H21A 4859   3.722   1.155   3.498
   50CHL1  H21B 4860   3.800   1.077   3.647
   50CHL1  H21C 4861   3.885   1.086   3.491
   50CHL1   C22 4862   3.818   1.345   3.707
   50CHL1  H22A 4863   3.859   1.445   3.734
   50CHL1  H22B 4864   3.709   1.361   3.695
   50CHL1   C23 4865   3.843   1.266   3.846
   50CHL1  H23A 4866   3.795   1.167   3.834
   50CHL1  H23B 4867   3.953   1.249   3.847
   50CHL1   C24 4868   3.802   1.341   3.972
   50CHL1  H24A 4869   3.833   1.447   3.964
   50CHL1  H24B 4870   3.693   1.336   3.993
   50CHL1   C25 4871   3.868   1.291   4.110
   50CHL1   H25 4872   3.969   1.259   4.079
   50CHL1   C26 4873   3.877   1.410   4.212
   50CHL1  H26A 4874   3.893   1.511   4.167
   50CHL1  H26B 4875   3.784   1.427   4.270
   50CHL1  H26C 4876   3.958   1.389   4.285
   50CHL1   C27 4877   3.789   1.173   4.172
   50CHL1  H27A 4878   3.813   1.152   4.278
   50CHL1  H27B 4879   3.680   1.197   4.177
   50CHL1  H27C 4880   3.800   1.080   4.113
   51CHL1    C3 4881   4.219   2.752   2.597
   51CHL1    H3 4882   4.148   2.837   2.601
   51CHL1    O3 4883   4.270   2.743   2.466
   51CHL1   H3' 4884   4.355   2.698   2.473
   51CHL1    C4 4885   4.328   2.770   2.709
   51CHL1   H4A 4886   4.396   2.684   2.693
   51CHL1   H4B 4887   4.388   2.862   2.701
   51CHL1    C5 4888   4.264   2.774   2.849
   51CHL1    C6 4889   4.277   2.878   2.939
   51CHL1    H6 4890   4.344   2.962   2.915
   51CHL1    C7 4891   4.221   2.874   3.074
   51CHL1   H7A 4892   4.285   2.918   3.153
   51CHL1   H7B 4893   4.121   2.924   3.070
   51CHL1    C8 4894   4.186   2.733   3.129
   51CHL1    H8 4895   4.281   2.677   3.147
   51CHL1   C14 4896   4.108   2.736   3.262
   51CHL1   H14 4897   4.018   2.793   3.230
   51CHL1   C15 4898   4.162   2.809   3.383
   51CHL1  H15A 4899   4.272   2.801   3.389
   51CHL1  H15B 4900   4.137   2.917   3.368
   51CHL1   C16 4901   4.088   2.743   3.499
   51CHL1  H16A 4902   4.143   2.711   3.590
   51CHL1  H16B 4903   4.009   2.818   3.524
   51CHL1   C17 4904   4.012   2.618   3.444
   51CHL1   H17 4905   3.910   2.656   3.421
   51CHL1   C13 4906   4.072   2.589   3.306
   51CHL1   C18 4907   4.208   2.515   3.341
   51CHL1  H18A 4908   4.289   2.508   3.265
   51CHL1  H18B 4909   4.263   2.578   3.414
   51CHL1  H18C 4910   4.183   2.413   3.377
   51CHL1   C12 4911   3.984   2.519   3.205
   51CHL1  H12A 4912   3.942   2.418   3.221
   51CHL1  H12B 4913   3.895   2.585   3.195
   51CHL1   C11 4914   4.061   2.503   3.072
   51CHL1  H11A 4915   4.152   2.444   3.095
   51CHL1  H11B 4916   4.010   2.445   2.992
   51CHL1    C9 4917   4.115   2.648   3.016
   51CHL1    H9 4918   4.025   2.711   3.000
   51CHL1   C10 4919   4.185   2.644   2.880
   51CHL1   C19 4920   4.286   2.523   2.878
   51CHL1  H19A 4921   4.370   2.537   2.949
   51CHL1  H19B 4922   4.233   2.430   2.908
   51CHL1  H19C 4923   4.335   2.512   2.779
   51CHL1    C1 4924   4.088   2.615   2.759
   51CHL1   H1A 4925   4.050   2.512   2.774
   51CHL1   H1B 4926   4.006   2.691   2.762
   51CHL1    C2 4927   4.142   2.621   2.615
   51CHL1   H2A 4928   4.064   2.611   2.537
   51CHL1   H2B 4929   4.217   2.545   2.585
   51CHL1   C20 4930   3.991   2.515   3.554
   51CHL1   H20 4931   4.089   2.484   3.595
   51CHL1   C21 4932   3.917   2.388   3.501
   51CHL1  H21A 4933   3.873   2.330   3.586
   51CHL1  H21B 4934   3.988   2.328   3.441
   51CHL1  H21C 4935   3.831   2.414   3.435
   51CHL1   C22 4936   3.919   2.583   3.675
   51CHL1  H22A 4937   3.952   2.686   3.700
   51CHL1  H22B 4938   3.809   2.581   3.658
   51CHL1   C23 4939   3.945   2.521   3.814
   51CHL1  H23A 4940   3.917   2.415   3.796
   51CHL1  H23B 4941   4.055   2.522   3.830
   51CHL1   C24 4942   3.846   2.551   3.923
   51CHL1  H24A 4943   3.745   2.568   3.878
   51CHL1  H24B 4944   3.847   2.457   3.982
   51CHL1   C25 4945   3.894   2.669   4.020
   51CHL1   H25 4946   3.907   2.763   3.962
   51CHL1   C26 4947   3.780   2.700   4.119
   51CHL1  H26A 4948   3.808   2.799   4.160
   51CHL1  H26B 4949   3.675   2.709   4.082
   51CHL1  H26C 4950   3.777   2.629   4.205
   51CHL1   C27 4951   4.035   2.642   4.089
   51CHL1  H27A 4952   4.113   2.641   4.010
   51CHL1  H27B 4953   4.057   2.720   4.164
   51CHL1  H27C 4954   4.030   2.548   4.148
   52CHL1    C3 4955   3.370   3.949   2.520
   52CHL1    H3 4956   3.260   3.942   2.535
   52CHL1    O3 4957   3.394   3.945   2.381
   52CHL1   H3' 4958   3.388   3.853   2.353
   52CHL1    C4 4959   3.410   4.085   2.579
   52CHL1   H4A 4960   3.511   4.112   2.541
   52CHL1   H4B 4961   3.341   4.160   2.536
   52CHL1    C5 4962   3.414   4.084   2.729
   52CHL1    C6 4963   3.347   4.172   2.801
   52CHL1    H6 4964   3.288   4.251   2.752
   52CHL1    C7 4965   3.358   4.181   2.952
   52CHL1   H7A 4966   3.374   4.280   3.000
   52CHL1   H7B 4967   3.264   4.150   3.001
   52CHL1    C8 4968   3.478   4.100   3.004
   52CHL1    H8 4969   3.565   4.161   2.972
   52CHL1   C14 4970   3.473   4.098   3.155
   52CHL1   H14 4971   3.378   4.046   3.179
   52CHL1   C15 4972   3.468   4.235   3.223
   52CHL1  H15A 4973   3.542   4.308   3.184
   52CHL1  H15B 4974   3.363   4.269   3.219
   52CHL1   C16 4975   3.517   4.196   3.367
   52CHL1  H16A 4976   3.606   4.260   3.385
   52CHL1  H16B 4977   3.443   4.220   3.447
   52CHL1   C17 4978   3.557   4.051   3.370
   52CHL1   H17 4979   3.468   3.986   3.388
   52CHL1   C13 4980   3.586   4.018   3.220
   52CHL1   C18 4981   3.722   4.084   3.172
   52CHL1  H18A 4982   3.806   4.030   3.222
   52CHL1  H18B 4983   3.732   4.088   3.062
   52CHL1  H18C 4984   3.724   4.180   3.228
   52CHL1   C12 4985   3.556   3.876   3.173
   52CHL1  H12A 4986   3.624   3.800   3.217
   52CHL1  H12B 4987   3.455   3.844   3.208
   52CHL1   C11 4988   3.568   3.854   3.015
   52CHL1  H11A 4989   3.675   3.860   2.986
   52CHL1  H11B 4990   3.527   3.753   2.992
   52CHL1    C9 4991   3.481   3.961   2.943
   52CHL1    H9 4992   3.380   3.926   2.973
   52CHL1   C10 4993   3.499   3.978   2.792
   52CHL1   C19 4994   3.650   3.999   2.759
   52CHL1  H19A 4995   3.682   4.084   2.823
   52CHL1  H19B 4996   3.715   3.911   2.778
   52CHL1  H19C 4997   3.663   4.043   2.658
   52CHL1    C1 4998   3.445   3.846   2.730
   52CHL1   H1A 4999   3.508   3.759   2.757
   52CHL1   H1B 5000   3.340   3.826   2.760
   52CHL1    C2 5001   3.448   3.831   2.582
   52CHL1   H2A 5002   3.408   3.738   2.537
   52CHL1   H2B 5003   3.550   3.837   2.538
   52CHL1   C20 5004   3.668   4.024   3.485
   52CHL1   H20 5005   3.752   4.090   3.455
   52CHL1   C21 5006   3.704   3.880   3.488
   52CHL1  H21A 5007   3.735   3.846   3.387
   52CHL1  H21B 5008   3.611   3.824   3.511
   52CHL1  H21C 5009   3.778   3.850   3.565
   52CHL1   C22 5010   3.609   4.069   3.619
   52CHL1  H22A 5011   3.542   4.157   3.621
   52CHL1  H22B 5012   3.543   3.997   3.671
   52CHL1   C23 5013   3.732   4.106   3.708
   52CHL1  H23A 5014   3.814   4.032   3.704
   52CHL1  H23B 5015   3.772   4.203   3.673
   52CHL1   C24 5016   3.698   4.120   3.859
   52CHL1  H24A 5017   3.612   4.190   3.873
   52CHL1  H24B 5018   3.662   4.029   3.911
   52CHL1   C25 5019   3.815   4.163   3.943
   52CHL1   H25 5020   3.856   4.250   3.888
   52CHL1   C26 5021   3.767   4.214   4.085
   52CHL1  H26A 5022   3.683   4.288   4.086
   52CHL1  H26B 5023   3.720   4.126   4.133
   52CHL1  H26C 5024   3.854   4.244   4.147
   52CHL1   C27 5025   3.915   4.050   3.961
   52CHL1  H27A 5026   4.022   4.079   3.970
   52CHL1  H27B 5027   3.885   3.988   4.048
   52CHL1  H27C 5028   3.906   3.978   3.877
   53CHL1    C3 5029   3.638   3.084   2.964
   53CHL1    H3 5030   3.663   3.187   2.998
   53CHL1    O3 5031   3.644   3.069   2.822
   53CHL1   H3' 5032   3.702   2.994   2.810
   53CHL1    C4 5033   3.753   2.994   3.024
   53CHL1   H4A 5034   3.720   2.894   2.987
   53CHL1   H4B 5035   3.842   3.030   2.969
   53CHL1    C5 5036   3.757   3.016   3.174
   53CHL1    C6 5037   3.863   3.062   3.243
   53CHL1    H6 5038   3.961   3.082   3.198
   53CHL1    C7 5039   3.855   3.084   3.389
   53CHL1   H7A 5040   3.945   3.046   3.442
   53CHL1   H7B 5041   3.826   3.189   3.411
   53CHL1    C8 5042   3.741   3.007   3.463
   53CHL1    H8 5043   3.762   2.897   3.466
   53CHL1   C14 5044   3.738   3.051   3.608
   53CHL1   H14 5045   3.711   3.159   3.606
   53CHL1   C15 5046   3.873   3.050   3.684
   53CHL1  H15A 5047   3.935   2.958   3.673
   53CHL1  H15B 5048   3.938   3.133   3.649
   53CHL1   C16 5049   3.817   3.068   3.824
   53CHL1  H16A 5050   3.860   2.988   3.889
   53CHL1  H16B 5051   3.839   3.172   3.858
   53CHL1   C17 5052   3.658   3.058   3.821
   53CHL1   H17 5053   3.626   3.164   3.817
   53CHL1   C13 5054   3.620   2.988   3.691
   53CHL1   C18 5055   3.637   2.838   3.711
   53CHL1  H18A 5056   3.569   2.795   3.787
   53CHL1  H18B 5057   3.626   2.791   3.611
   53CHL1  H18C 5058   3.741   2.832   3.751
   53CHL1   C12 5059   3.489   3.034   3.617
   53CHL1  H12A 5060   3.399   2.994   3.668
   53CHL1  H12B 5061   3.479   3.144   3.627
   53CHL1   C11 5062   3.479   2.987   3.473
   53CHL1  H11A 5063   3.464   2.877   3.467
   53CHL1  H11B 5064   3.385   3.040   3.445
   53CHL1    C9 5065   3.607   3.040   3.393
   53CHL1    H9 5066   3.601   3.151   3.404
   53CHL1   C10 5067   3.613   2.998   3.244
   53CHL1   C19 5068   3.594   2.845   3.246
   53CHL1  H19A 5069   3.493   2.812   3.278
   53CHL1  H19B 5070   3.604   2.801   3.145
   53CHL1  H19C 5071   3.671   2.790   3.306
   53CHL1    C1 5072   3.505   3.075   3.169
   53CHL1   H1A 5073   3.410   3.050   3.221
   53CHL1   H1B 5074   3.532   3.183   3.178
   53CHL1    C2 5075   3.501   3.050   3.022
   53CHL1   H2A 5076   3.424   3.119   2.981
   53CHL1   H2B 5077   3.469   2.944   3.012
   53CHL1   C20 5078   3.599   3.001   3.948
   53CHL1   H20 5079   3.631   2.896   3.968
   53CHL1   C21 5080   3.447   3.004   3.942
   53CHL1  H21A 5081   3.415   2.928   3.867
   53CHL1  H21B 5082   3.411   3.104   3.913
   53CHL1  H21C 5083   3.399   2.964   4.034
   53CHL1   C22 5084   3.645   3.074   4.079
   53CHL1  H22A 5085   3.612   3.038   4.179
   53CHL1  H22B 5086   3.754   3.057   4.083
   53CHL1   C23 5087   3.630   3.229   4.079
   53CHL1  H23A 5088   3.696   3.269   3.999
   53CHL1  H23B 5089   3.523   3.253   4.060
   53CHL1   C24 5090   3.675   3.295   4.209
   53CHL1  H24A 5091   3.631   3.253   4.302
   53CHL1  H24B 5092   3.783   3.271   4.218
   53CHL1   C25 5093   3.680   3.448   4.217
   53CHL1   H25 5094   3.739   3.488   4.132
   53CHL1   C26 5095   3.540   3.504   4.221
   53CHL1  H26A 5096   3.481   3.480   4.130
   53CHL1  H26B 5097   3.484   3.464   4.308
   53CHL1  H26C 5098   3.534   3.614   4.232
   53CHL1   C27 5099   3.748   3.499   4.352
   53CHL1  H27A 5100   3.695   3.447   4.435
   53CHL1  H27B 5101   3.857   3.485   4.336
   53CHL1  H27C 5102   3.724   3.607   4.359
   54CHL1    C3 5103   2.948   3.255   2.870
   54CHL1    H3 5104   3.033   3.321   2.897
   54CHL1    O3 5105   2.947   3.262   2.728
   54CHL1   H3' 5106   2.917   3.173   2.706
   54CHL1    C4 5107   2.968   3.115   2.919
   54CHL1   H4A 5108   2.890   3.046   2.880
   54CHL1   H4B 5109   3.064   3.086   2.871
   54CHL1    C5 5110   2.985   3.105   3.066
   54CHL1    C6 5111   3.100   3.061   3.121
   54CHL1    H6 5112   3.178   3.036   3.047
   54CHL1    C7 5113   3.121   3.047   3.270
   54CHL1   H7A 5114   3.158   2.943   3.283
   54CHL1   H7B 5115   3.197   3.123   3.297
   54CHL1    C8 5116   2.983   3.063   3.345
   54CHL1    H8 5117   2.922   2.971   3.328
   54CHL1   C14 5118   3.007   3.068   3.490
   54CHL1   H14 5119   3.075   3.155   3.503
   54CHL1   C15 5120   3.093   2.960   3.562
   54CHL1  H15A 5121   3.063   2.864   3.515
   54CHL1  H15B 5122   3.201   2.970   3.536
   54CHL1   C16 5123   3.053   2.968   3.708
   54CHL1  H16A 5124   3.017   2.875   3.756
   54CHL1  H16B 5125   3.141   3.004   3.766
   54CHL1   C17 5126   2.944   3.078   3.721
   54CHL1   H17 5127   3.001   3.171   3.743
   54CHL1   C13 5128   2.884   3.083   3.582
   54CHL1   C18 5129   2.789   2.966   3.556
   54CHL1  H18A 5130   2.836   2.869   3.582
   54CHL1  H18B 5131   2.694   2.978   3.613
   54CHL1  H18C 5132   2.760   2.965   3.449
   54CHL1   C12 5133   2.823   3.225   3.547
   54CHL1  H12A 5134   2.724   3.231   3.598
   54CHL1  H12B 5135   2.880   3.316   3.577
   54CHL1   C11 5136   2.789   3.230   3.391
   54CHL1  H11A 5137   2.699   3.165   3.381
   54CHL1  H11B 5138   2.751   3.328   3.355
   54CHL1    C9 5139   2.909   3.189   3.301
   54CHL1    H9 5140   2.989   3.266   3.309
   54CHL1   C10 5141   2.872   3.174   3.151
   54CHL1   C19 5142   2.743   3.073   3.144
   54CHL1  H19A 5143   2.759   2.969   3.180
   54CHL1  H19B 5144   2.649   3.118   3.185
   54CHL1  H19C 5145   2.703   3.055   3.042
   54CHL1    C1 5146   2.841   3.315   3.088
   54CHL1   H1A 5147   2.749   3.349   3.139
   54CHL1   H1B 5148   2.929   3.379   3.109
   54CHL1    C2 5149   2.822   3.323   2.935
   54CHL1   H2A 5150   2.806   3.425   2.893
   54CHL1   H2B 5151   2.740   3.256   2.902
   54CHL1   C20 5152   2.846   3.064   3.843
   54CHL1   H20 5153   2.788   2.971   3.826
   54CHL1   C21 5154   2.744   3.179   3.861
   54CHL1  H21A 5155   2.799   3.275   3.870
   54CHL1  H21B 5156   2.682   3.152   3.949
   54CHL1  H21C 5157   2.671   3.200   3.780
   54CHL1   C22 5158   2.918   3.052   3.982
   54CHL1  H22A 5159   2.850   3.026   4.066
   54CHL1  H22B 5160   2.992   2.969   3.976
   54CHL1   C23 5161   2.996   3.175   4.041
   54CHL1  H23A 5162   3.075   3.205   3.969
   54CHL1  H23B 5163   2.939   3.270   4.041
   54CHL1   C24 5164   3.066   3.146   4.175
   54CHL1  H24A 5165   2.982   3.116   4.242
   54CHL1  H24B 5166   3.136   3.061   4.161
   54CHL1   C25 5167   3.140   3.268   4.235
   54CHL1   H25 5168   3.199   3.323   4.158
   54CHL1   C26 5169   3.051   3.376   4.296
   54CHL1  H26A 5170   2.990   3.423   4.216
   54CHL1  H26B 5171   2.977   3.321   4.357
   54CHL1  H26C 5172   3.100   3.455   4.357
   54CHL1   C27 5173   3.241   3.221   4.346
   54CHL1  H27A 5174   3.282   3.314   4.392
   54CHL1  H27B 5175   3.199   3.164   4.431
   54CHL1  H27C 5176   3.328   3.175   4.294
   55CHL1    C3 5177   3.933   5.951   2.743
   55CHL1    H3 5178   3.827   5.944   2.713
   55CHL1    O3 5179   4.001   5.937   2.616
   55CHL1   H3' 5180   4.083   5.893   2.638
   55CHL1    C4 5181   3.983   6.075   2.801
   55CHL1   H4A 5182   4.093   6.090   2.801
   55CHL1   H4B 5183   3.943   6.167   2.752
   55CHL1    C5 5184   3.942   6.090   2.949
   55CHL1    C6 5185   3.878   6.195   2.991
   55CHL1    H6 5186   3.870   6.285   2.928
   55CHL1    C7 5187   3.827   6.217   3.136
   55CHL1   H7A 5188   3.851   6.318   3.178
   55CHL1   H7B 5189   3.718   6.204   3.152
   55CHL1    C8 5190   3.893   6.113   3.229
   55CHL1    H8 5191   3.998   6.146   3.237
   55CHL1   C14 5192   3.820   6.111   3.369
   55CHL1   H14 5193   3.716   6.081   3.346
   55CHL1   C15 5194   3.802   6.242   3.447
   55CHL1  H15A 5195   3.884   6.317   3.443
   55CHL1  H15B 5196   3.720   6.303   3.405
   55CHL1   C16 5197   3.766   6.204   3.589
   55CHL1  H16A 5198   3.843   6.244   3.658
   55CHL1  H16B 5199   3.667   6.238   3.628
   55CHL1   C17 5200   3.780   6.050   3.594
   55CHL1   H17 5201   3.677   6.010   3.583
   55CHL1   C13 5202   3.868   6.016   3.471
   55CHL1   C18 5203   4.019   6.056   3.501
   55CHL1  H18A 5204   4.062   5.975   3.564
   55CHL1  H18B 5205   4.086   6.067   3.413
   55CHL1  H18C 5206   4.031   6.159   3.542
   55CHL1   C12 5207   3.859   5.877   3.412
   55CHL1  H12A 5208   3.921   5.808   3.472
   55CHL1  H12B 5209   3.758   5.837   3.388
   55CHL1   C11 5210   3.930   5.864   3.276
   55CHL1  H11A 5211   4.041   5.870   3.285
   55CHL1  H11B 5212   3.897   5.766   3.233
   55CHL1    C9 5213   3.889   5.974   3.170
   55CHL1    H9 5214   3.784   5.942   3.153
   55CHL1   C10 5215   3.965   5.966   3.037
   55CHL1   C19 5216   4.115   5.959   3.052
   55CHL1  H19A 5217   4.160   5.966   2.951
   55CHL1  H19B 5218   4.158   6.038   3.117
   55CHL1  H19C 5219   4.145   5.860   3.093
   55CHL1    C1 5220   3.916   5.837   2.971
   55CHL1   H1A 5221   3.944   5.748   3.031
   55CHL1   H1B 5222   3.806   5.831   2.960
   55CHL1    C2 5223   3.975   5.826   2.830
   55CHL1   H2A 5224   3.935   5.737   2.776
   55CHL1   H2B 5225   4.086   5.821   2.839
   55CHL1   C20 5226   3.825   5.992   3.729
   55CHL1   H20 5227   3.935   6.008   3.736
   55CHL1   C21 5228   3.812   5.841   3.731
   55CHL1  H21A 5229   3.791   5.799   3.831
   55CHL1  H21B 5230   3.906   5.795   3.693
   55CHL1  H21C 5231   3.731   5.818   3.659
   55CHL1   C22 5232   3.753   6.047   3.850
   55CHL1  H22A 5233   3.731   6.156   3.837
   55CHL1  H22B 5234   3.652   6.008   3.875
   55CHL1   C23 5235   3.833   6.032   3.976
   55CHL1  H23A 5236   3.864   5.925   3.982
   55CHL1  H23B 5237   3.928   6.084   3.955
   55CHL1   C24 5238   3.779   6.104   4.102
   55CHL1  H24A 5239   3.741   6.204   4.072
   55CHL1  H24B 5240   3.684   6.055   4.133
   55CHL1   C25 5241   3.867   6.094   4.224
   55CHL1   H25 5242   3.975   6.098   4.199
   55CHL1   C26 5243   3.846   6.194   4.334
   55CHL1  H26A 5244   3.903   6.172   4.427
   55CHL1  H26B 5245   3.862   6.298   4.298
   55CHL1  H26C 5246   3.739   6.197   4.366
   55CHL1   C27 5247   3.864   5.951   4.286
   55CHL1  H27A 5248   3.765   5.929   4.331
   55CHL1  H27B 5249   3.869   5.868   4.213
   55CHL1  H27C 5250   3.940   5.943   4.367
   56CHL1    C3 5251   6.000   1.804   2.751
   56CHL1    H3 5252   5.952   1.898   2.787
   56CHL1    O3 5253   6.023   1.819   2.609
   56CHL1   H3' 5254   6.052   1.734   2.574
   56CHL1    C4 5255   6.133   1.803   2.823
   56CHL1   H4A 5256   6.189   1.715   2.784
   56CHL1   H4B 5257   6.190   1.891   2.788
   56CHL1    C5 5258   6.119   1.798   2.971
   56CHL1    C6 5259   6.163   1.895   3.054
   56CHL1    H6 5260   6.222   1.978   3.012
   56CHL1    C7 5261   6.144   1.903   3.196
   56CHL1   H7A 5262   6.234   1.954   3.237
   56CHL1   H7B 5263   6.065   1.979   3.215
   56CHL1    C8 5264   6.093   1.774   3.266
   56CHL1    H8 5265   6.179   1.705   3.268
   56CHL1   C14 5266   6.050   1.803   3.411
   56CHL1   H14 5267   5.957   1.862   3.396
   56CHL1   C15 5268   6.157   1.881   3.495
   56CHL1  H15A 5269   6.257   1.833   3.488
   56CHL1  H15B 5270   6.161   1.991   3.486
   56CHL1   C16 5271   6.101   1.865   3.638
   56CHL1  H16A 5272   6.169   1.816   3.712
   56CHL1  H16B 5273   6.063   1.958   3.684
   56CHL1   C17 5274   5.985   1.751   3.629
   56CHL1   H17 5275   5.893   1.808   3.603
   56CHL1   C13 5276   6.008   1.680   3.495
   56CHL1   C18 5277   6.124   1.580   3.513
   56CHL1  H18A 5278   6.210   1.605   3.580
   56CHL1  H18B 5279   6.091   1.483   3.557
   56CHL1  H18C 5280   6.165   1.557   3.412
   56CHL1   C12 5281   5.892   1.617   3.412
   56CHL1  H12A 5282   5.858   1.522   3.460
   56CHL1  H12B 5283   5.803   1.682   3.422
   56CHL1   C11 5284   5.922   1.590   3.261
   56CHL1  H11A 5285   5.980   1.495   3.254
   56CHL1  H11B 5286   5.828   1.562   3.210
   56CHL1    C9 5287   5.984   1.712   3.181
   56CHL1    H9 5288   5.914   1.798   3.187
   56CHL1   C10 5289   6.018   1.694   3.031
   56CHL1   C19 5290   6.089   1.556   3.022
   56CHL1  H19A 5291   6.134   1.552   2.921
   56CHL1  H19B 5292   6.169   1.546   3.099
   56CHL1  H19C 5293   6.023   1.468   3.035
   56CHL1    C1 5294   5.890   1.707   2.937
   56CHL1   H1A 5295   5.820   1.633   2.981
   56CHL1   H1B 5296   5.843   1.805   2.962
   56CHL1    C2 5297   5.909   1.695   2.790
   56CHL1   H2A 5298   5.816   1.704   2.730
   56CHL1   H2B 5299   5.951   1.596   2.764
   56CHL1   C20 5300   5.955   1.673   3.759
   56CHL1   H20 5301   6.046   1.612   3.777
   56CHL1   C21 5302   5.835   1.585   3.740
   56CHL1  H21A 5303   5.854   1.513   3.657
   56CHL1  H21B 5304   5.745   1.646   3.717
   56CHL1  H21C 5305   5.817   1.527   3.833
   56CHL1   C22 5306   5.922   1.756   3.880
   56CHL1  H22A 5307   5.955   1.861   3.861
   56CHL1  H22B 5308   5.813   1.762   3.900
   56CHL1   C23 5309   5.991   1.697   4.004
   56CHL1  H23A 5310   5.923   1.722   4.088
   56CHL1  H23B 5311   5.975   1.588   3.994
   56CHL1   C24 5312   6.133   1.746   4.017
   56CHL1  H24A 5313   6.184   1.731   3.919
   56CHL1  H24B 5314   6.140   1.853   4.048
   56CHL1   C25 5315   6.213   1.657   4.116
   56CHL1   H25 5316   6.300   1.724   4.134
   56CHL1   C26 5317   6.141   1.634   4.241
   56CHL1  H26A 5318   6.042   1.586   4.233
   56CHL1  H26B 5319   6.199   1.581   4.320
   56CHL1  H26C 5320   6.123   1.733   4.288
   56CHL1   C27 5321   6.262   1.519   4.064
   56CHL1  H27A 5322   6.339   1.496   4.141
   56CHL1  H27B 5323   6.175   1.450   4.062
   56CHL1  H27C 5324   6.315   1.536   3.968
   57CHL1    C3 5325   4.673   0.097   2.952
   57CHL1    H3 5326   4.696   0.205   2.969
   57CHL1    O3 5327   4.694   0.084   2.809
   57CHL1   H3' 5328   4.639   0.147   2.763
   57CHL1    C4 5329   4.796   0.023   3.025
   57CHL1   H4A 5330   4.791   6.721   2.982
   57CHL1   H4B 5331   4.893   0.068   2.996
   57CHL1    C5 5332   4.779   0.034   3.175
   57CHL1    C6 5333   4.876   0.090   3.252
   57CHL1    H6 5334   4.975   0.120   3.214
   57CHL1    C7 5335   4.869   0.097   3.399
   57CHL1   H7A 5336   4.973   0.080   3.432
   57CHL1   H7B 5337   4.840   0.203   3.420
   57CHL1    C8 5338   4.760   0.017   3.466
   57CHL1    H8 5339   4.791   6.711   3.468
   57CHL1   C14 5340   4.732   0.057   3.612
   57CHL1   H14 5341   4.692   0.159   3.599
   57CHL1   C15 5342   4.851   0.086   3.705
   57CHL1  H15A 5343   4.930   0.010   3.694
   57CHL1  H15B 5344   4.885   0.189   3.680
   57CHL1   C16 5345   4.786   0.073   3.841
   57CHL1  H16A 5346   4.827   6.796   3.910
   57CHL1  H16B 5347   4.806   0.169   3.893
   57CHL1   C17 5348   4.636   0.049   3.827
   57CHL1   H17 5349   4.589   0.150   3.822
   57CHL1   C13 5350   4.621   6.788   3.688
   57CHL1   C18 5351   4.656   6.640   3.697
   57CHL1  H18A 5352   4.575   6.578   3.740
   57CHL1  H18B 5353   4.679   6.592   3.600
   57CHL1  H18C 5354   4.737   6.619   3.771
   57CHL1   C12 5355   4.494   0.018   3.599
   57CHL1  H12A 5356   4.410   6.765   3.649
   57CHL1  H12B 5357   4.483   0.128   3.605
   57CHL1   C11 5358   4.507   6.769   3.454
   57CHL1  H11A 5359   4.517   6.658   3.456
   57CHL1  H11B 5360   4.414   6.786   3.396
   57CHL1    C9 5361   4.632   0.031   3.379
   57CHL1    H9 5362   4.611   0.140   3.390
   57CHL1   C10 5363   4.645   6.792   3.229
   57CHL1   C19 5364   4.647   6.637   3.206
   57CHL1  H19A 5365   4.684   6.594   3.111
   57CHL1  H19B 5366   4.708   6.589   3.285
   57CHL1  H19C 5367   4.541   6.616   3.230
   57CHL1    C1 5368   4.527   0.060   3.146
   57CHL1   H1A 5369   4.432   0.013   3.179
   57CHL1   H1B 5370   4.512   0.159   3.195
   57CHL1    C2 5371   4.536   0.052   2.995
   57CHL1   H2A 5372   4.454   0.113   2.952
   57CHL1   H2B 5373   4.520   6.746   2.967
   57CHL1   C20 5374   4.568   6.775   3.944
   57CHL1   H20 5375   4.593   6.667   3.933
   57CHL1   C21 5376   4.412   6.784   3.942
   57CHL1  H21A 5377   4.382   6.745   4.042
   57CHL1  H21B 5378   4.354   6.730   3.864
   57CHL1  H21C 5379   4.381   0.090   3.938
   57CHL1   C22 5380   4.627   0.010   4.087
   57CHL1  H22A 5381   4.563   6.750   4.154
   57CHL1  H22B 5382   4.730   6.772   4.101
   57CHL1   C23 5383   4.626   0.160   4.114
   57CHL1  H23A 5384   4.688   0.218   4.043
   57CHL1  H23B 5385   4.522   0.182   4.084
   57CHL1   C24 5386   4.641   0.205   4.261
   57CHL1  H24A 5387   4.623   0.314   4.273
   57CHL1  H24B 5388   4.556   0.150   4.308
   57CHL1   C25 5389   4.769   0.160   4.330
   57CHL1   H25 5390   4.768   0.049   4.336
   57CHL1   C26 5391   4.892   0.198   4.253
   57CHL1  H26A 5392   4.884   0.158   4.150
   57CHL1  H26B 5393   4.871   0.305   4.229
   57CHL1  H26C 5394   4.991   0.185   4.300
   57CHL1   C27 5395   4.776   0.222   4.469
   57CHL1  H27A 5396   4.682   0.201   4.524
   57CHL1  H27B 5397   4.862   0.174   4.521
   57CHL1  H27C 5398   4.794   0.331   4.464
   58CHL1    C3 5399   4.475   0.549   2.890
   58CHL1    H3 5400   4.542   0.638   2.892
   58CHL1    O3 5401   4.437   0.503   2.761
   58CHL1   H3' 5402   4.354   0.546   2.742
   58CHL1    C4 5403   4.543   0.435   2.967
   58CHL1   H4A 5404   4.469   0.352   2.972
   58CHL1   H4B 5405   4.628   0.400   2.905
   58CHL1    C5 5406   4.584   0.471   3.112
   58CHL1    C6 5407   4.708   0.463   3.161
   58CHL1    H6 5408   4.793   0.442   3.094
   58CHL1    C7 5409   4.744   0.494   3.305
   58CHL1   H7A 5410   4.819   0.424   3.348
   58CHL1   H7B 5411   4.788   0.595   3.310
   58CHL1    C8 5412   4.629   0.504   3.407
   58CHL1    H8 5413   4.612   0.397   3.431
   58CHL1   C14 5414   4.666   0.576   3.537
   58CHL1   H14 5415   4.693   0.682   3.513
   58CHL1   C15 5416   4.788   0.526   3.614
   58CHL1  H15A 5417   4.786   0.418   3.642
   58CHL1  H15B 5418   4.880   0.543   3.555
   58CHL1   C16 5419   4.782   0.605   3.746
   58CHL1  H16A 5420   4.804   0.521   3.816
   58CHL1  H16B 5421   4.849   0.693   3.749
   58CHL1   C17 5422   4.630   0.651   3.759
   58CHL1   H17 5423   4.616   0.757   3.728
   58CHL1   C13 5424   4.553   0.576   3.640
   58CHL1   C18 5425   4.522   0.430   3.687
   58CHL1  H18A 5426   4.608   0.390   3.746
   58CHL1  H18B 5427   4.438   0.440   3.759
   58CHL1  H18C 5428   4.502   0.362   3.601
   58CHL1   C12 5429   4.437   0.652   3.573
   58CHL1  H12A 5430   4.341   0.640   3.627
   58CHL1  H12B 5431   4.467   0.758   3.556
   58CHL1   C11 5432   4.400   0.588   3.435
   58CHL1  H11A 5433   4.343   0.493   3.446
   58CHL1  H11B 5434   4.336   0.672   3.400
   58CHL1    C9 5435   4.514   0.573   3.336
   58CHL1    H9 5436   4.550   0.670   3.295
   58CHL1   C10 5437   4.458   0.510   3.200
   58CHL1   C19 5438   4.375   0.385   3.235
   58CHL1  H19A 5439   4.276   0.417   3.272
   58CHL1  H19B 5440   4.366   0.328   3.140
   58CHL1  H19C 5441   4.442   0.328   3.303
   58CHL1    C1 5442   4.381   0.616   3.117
   58CHL1   H1A 5443   4.280   0.632   3.162
   58CHL1   H1B 5444   4.443   0.708   3.116
   58CHL1    C2 5445   4.351   0.576   2.970
   58CHL1   H2A 5446   4.293   0.661   2.929
   58CHL1   H2B 5447   4.284   0.488   2.974
   58CHL1   C20 5448   4.573   0.637   3.899
   58CHL1   H20 5449   4.584   0.529   3.926
   58CHL1   C21 5450   4.433   0.677   3.899
   58CHL1  H21A 5451   4.365   0.598   3.861
   58CHL1  H21B 5452   4.415   0.771   3.843
   58CHL1  H21C 5453   4.407   0.699   4.005
   58CHL1   C22 5454   4.657   0.710   4.010
   58CHL1  H22A 5455   4.764   0.709   3.979
   58CHL1  H22B 5456   4.624   0.816   4.011
   58CHL1   C23 5457   4.642   0.655   4.151
   58CHL1  H23A 5458   4.539   0.662   4.191
   58CHL1  H23B 5459   4.673   0.549   4.138
   58CHL1   C24 5460   4.743   0.719   4.244
   58CHL1  H24A 5461   4.844   0.723   4.197
   58CHL1  H24B 5462   4.714   0.825   4.263
   58CHL1   C25 5463   4.750   0.659   4.383
   58CHL1   H25 5464   4.777   0.553   4.369
   58CHL1   C26 5465   4.863   0.723   4.474
   58CHL1  H26A 5466   4.958   0.704   4.421
   58CHL1  H26B 5467   4.850   0.833   4.486
   58CHL1  H26C 5468   4.871   0.681   4.576
   58CHL1   C27 5469   4.625   0.644   4.472
   58CHL1  H27A 5470   4.657   0.601   4.569
   58CHL1  H27B 5471   4.583   0.743   4.500
   58CHL1  H27C 5472   4.539   0.590   4.426
   59CHL1    C3 5473   3.150   4.502   2.249
   59CHL1    H3 5474   3.094   4.420   2.298
   59CHL1    O3 5475   3.167   4.490   2.110
   59CHL1   H3' 5476   3.218   4.568   2.090
   59CHL1    C4 5477   3.069   4.636   2.277
   59CHL1   H4A 5478   3.111   4.725   2.226
   59CHL1   H4B 5479   2.970   4.613   2.231
   59CHL1    C5 5480   3.050   4.663   2.431
   59CHL1    C6 5481   2.925   4.687   2.482
   59CHL1    H6 5482   2.837   4.688   2.417
   59CHL1    C7 5483   2.909   4.723   2.628
   59CHL1   H7A 5484   2.859   4.821   2.641
   59CHL1   H7B 5485   2.851   4.635   2.662
   59CHL1    C8 5486   3.031   4.724   2.715
   59CHL1    H8 5487   3.073   4.827   2.718
   59CHL1   C14 5488   2.995   4.688   2.854
   59CHL1   H14 5489   2.963   4.581   2.851
   59CHL1   C15 5490   2.880   4.770   2.913
   59CHL1  H15A 5491   2.902   4.877   2.891
   59CHL1  H15B 5492   2.783   4.747   2.863
   59CHL1   C16 5493   2.886   4.734   3.059
   59CHL1  H16A 5494   2.900   4.834   3.105
   59CHL1  H16B 5495   2.791   4.699   3.107
   59CHL1   C17 5496   3.016   4.647   3.081
   59CHL1   H17 5497   2.981   4.542   3.069
   59CHL1   C13 5498   3.108   4.681   2.965
   59CHL1   C18 5499   3.185   4.818   2.987
   59CHL1  H18A 5500   3.277   4.795   3.045
   59CHL1  H18B 5501   3.213   4.855   2.886
   59CHL1  H18C 5502   3.125   4.890   3.046
   59CHL1   C12 5503   3.205   4.572   2.909
   59CHL1  H12A 5504   3.299   4.555   2.965
   59CHL1  H12B 5505   3.147   4.478   2.909
   59CHL1   C11 5506   3.260   4.616   2.769
   59CHL1  H11A 5507   3.313   4.713   2.762
   59CHL1  H11B 5508   3.340   4.546   2.737
   59CHL1    C9 5509   3.140   4.624   2.662
   59CHL1    H9 5510   3.095   4.523   2.657
   59CHL1   C10 5511   3.172   4.639   2.516
   59CHL1   C19 5512   3.241   4.772   2.491
   59CHL1  H19A 5513   3.193   4.857   2.545
   59CHL1  H19B 5514   3.343   4.772   2.535
   59CHL1  H19C 5515   3.260   4.801   2.385
   59CHL1    C1 5516   3.256   4.528   2.466
   59CHL1   H1A 5517   3.353   4.534   2.520
   59CHL1   H1B 5518   3.214   4.432   2.502
   59CHL1    C2 5519   3.284   4.513   2.316
   59CHL1   H2A 5520   3.343   4.423   2.291
   59CHL1   H2B 5521   3.350   4.596   2.284
   59CHL1   C20 5522   3.075   4.666   3.224
   59CHL1   H20 5523   3.115   4.768   3.239
   59CHL1   C21 5524   3.198   4.570   3.243
   59CHL1  H21A 5525   3.220   4.566   3.352
   59CHL1  H21B 5526   3.285   4.601   3.182
   59CHL1  H21C 5527   3.164   4.471   3.207
   59CHL1   C22 5528   2.967   4.643   3.332
   59CHL1  H22A 5529   2.883   4.706   3.298
   59CHL1  H22B 5530   2.939   4.536   3.325
   59CHL1   C23 5531   3.016   4.682   3.474
   59CHL1  H23A 5532   3.083   4.603   3.513
   59CHL1  H23B 5533   3.080   4.771   3.453
   59CHL1   C24 5534   2.907   4.718   3.566
   59CHL1  H24A 5535   2.956   4.779   3.646
   59CHL1  H24B 5536   2.844   4.793   3.513
   59CHL1   C25 5537   2.822   4.605   3.623
   59CHL1   H25 5538   2.778   4.546   3.540
   59CHL1   C26 5539   2.909   4.510   3.710
   59CHL1  H26A 5540   2.958   4.561   3.796
   59CHL1  H26B 5541   2.835   4.444   3.760
   59CHL1  H26C 5542   2.979   4.445   3.653
   59CHL1   C27 5543   2.702   4.652   3.709
   59CHL1  H27A 5544   2.648   4.734   3.656
   59CHL1  H27B 5545   2.623   4.574   3.721
   59CHL1  H27C 5546   2.729   4.692   3.809
   60CHL1    C3 5547   5.706   5.602   3.038
   60CHL1    H3 5548   5.689   5.493   3.049
   60CHL1    O3 5549   5.745   5.624   2.906
   60CHL1   H3' 5550   5.789   5.709   2.908
   60CHL1    C4 5551   5.565   5.662   3.069
   60CHL1   H4A 5552   5.547   5.769   3.045
   60CHL1   H4B 5553   5.502   5.610   2.993
   60CHL1    C5 5554   5.518   5.637   3.211
   60CHL1    C6 5555   5.403   5.587   3.244
   60CHL1    H6 5556   5.329   5.561   3.166
   60CHL1    C7 5557   5.355   5.571   3.390
   60CHL1   H7A 5558   5.250   5.604   3.398
   60CHL1   H7B 5559   5.353   5.463   3.416
   60CHL1    C8 5560   5.436   5.649   3.493
   60CHL1    H8 5561   5.404   5.755   3.499
   60CHL1   C14 5562   5.418   5.587   3.628
   60CHL1   H14 5563   5.457   5.484   3.619
   60CHL1   C15 5564   5.270   5.573   3.683
   60CHL1  H15A 5565   5.223   5.669   3.650
   60CHL1  H15B 5566   5.220   5.489   3.631
   60CHL1   C16 5567   5.285   5.562   3.833
   60CHL1  H16A 5568   5.210   5.625   3.886
   60CHL1  H16B 5569   5.261   5.457   3.861
   60CHL1   C17 5570   5.432   5.582   3.867
   60CHL1   H17 5571   5.480   5.482   3.875
   60CHL1   C13 5572   5.490   5.653   3.746
   60CHL1   C18 5573   5.451   5.805   3.745
   60CHL1  H18A 5574   5.489   5.859   3.656
   60CHL1  H18B 5575   5.341   5.817   3.743
   60CHL1  H18C 5576   5.495   5.853   3.834
   60CHL1   C12 5577   5.641   5.636   3.715
   60CHL1  H12A 5578   5.696   5.687   3.797
   60CHL1  H12B 5579   5.682   5.536   3.741
   60CHL1   C11 5580   5.678   5.687   3.578
   60CHL1  H11A 5581   5.654   5.796   3.578
   60CHL1  H11B 5582   5.784   5.668   3.552
   60CHL1    C9 5583   5.586   5.634   3.458
   60CHL1    H9 5584   5.603   5.525   3.461
   60CHL1   C10 5585   5.622   5.674   3.310
   60CHL1   C19 5586   5.609   5.828   3.310
   60CHL1  H19A 5587   5.510   5.866   3.343
   60CHL1  H19B 5588   5.683   5.875   3.379
   60CHL1  H19C 5589   5.633   5.878   3.213
   60CHL1    C1 5590   5.765   5.623   3.282
   60CHL1   H1A 5591   5.841   5.649   3.358
   60CHL1   H1B 5592   5.759   5.513   3.268
   60CHL1    C2 5593   5.804   5.658   3.140
   60CHL1   H2A 5594   5.901   5.621   3.100
   60CHL1   H2B 5595   5.802   5.768   3.126
   60CHL1   C20 5596   5.442   5.642   4.012
   60CHL1   H20 5597   5.398   5.744   4.015
   60CHL1   C21 5598   5.593   5.646   4.045
   60CHL1  H21A 5599   5.654   5.716   3.984
   60CHL1  H21B 5600   5.635   5.544   4.036
   60CHL1  H21C 5601   5.616   5.684   4.147
   60CHL1   C22 5602   5.387   5.546   4.121
   60CHL1  H22A 5603   5.278   5.556   4.101
   60CHL1  H22B 5604   5.441   5.450   4.107
   60CHL1   C23 5605   5.406   5.593   4.268
   60CHL1  H23A 5606   5.500   5.547   4.305
   60CHL1  H23B 5607   5.428   5.701   4.278
   60CHL1   C24 5608   5.298   5.535   4.368
   60CHL1  H24A 5609   5.195   5.568   4.344
   60CHL1  H24B 5610   5.295   5.425   4.376
   60CHL1   C25 5611   5.340   5.591   4.505
   60CHL1   H25 5612   5.355   5.701   4.500
   60CHL1   C26 5613   5.232   5.573   4.614
   60CHL1  H26A 5614   5.225   5.468   4.648
   60CHL1  H26B 5615   5.265   5.629   4.704
   60CHL1  H26C 5616   5.133   5.611   4.581
   60CHL1   C27 5617   5.474   5.538   4.558
   60CHL1  H27A 5618   5.555   5.580   4.495
   60CHL1  H27B 5619   5.505   5.576   4.658
   60CHL1  H27C 5620   5.473   5.427   4.550
   61CHL1    C3 5621   5.629   2.260   2.765
   61CHL1    H3 5622   5.519   2.242   2.756
   61CHL1    O3 5623   5.688   2.318   2.647
   61CHL1   H3' 5624   5.774   2.357   2.666
   61CHL1    C4 5625   5.664   2.348   2.888
   61CHL1   H4A 5626   5.774   2.351   2.900
   61CHL1   H4B 5627   5.631   2.452   2.868
   61CHL1    C5 5628   5.613   2.295   3.020
   61CHL1    C6 5629   5.526   2.363   3.095
   61CHL1    H6 5630   5.495   2.463   3.063
   61CHL1    C7 5631   5.472   2.325   3.231
   61CHL1   H7A 5632   5.498   2.400   3.309
   61CHL1   H7B 5633   5.362   2.312   3.222
   61CHL1    C8 5634   5.555   2.199   3.288
   61CHL1    H8 5635   5.655   2.234   3.323
   61CHL1   C14 5636   5.481   2.135   3.398
   61CHL1   H14 5637   5.381   2.104   3.362
   61CHL1   C15 5638   5.446   2.233   3.513
   61CHL1  H15A 5639   5.524   2.308   3.536
   61CHL1  H15B 5640   5.352   2.288   3.491
   61CHL1   C16 5641   5.425   2.137   3.626
   61CHL1  H16A 5642   5.501   2.156   3.705
   61CHL1  H16B 5643   5.320   2.147   3.661
   61CHL1   C17 5644   5.446   1.987   3.570
   61CHL1   H17 5645   5.350   1.953   3.525
   61CHL1   C13 5646   5.539   2.009   3.453
   61CHL1   C18 5647   5.682   2.042   3.510
   61CHL1  H18A 5648   5.670   2.105   3.601
   61CHL1  H18B 5649   5.725   1.942   3.532
   61CHL1  H18C 5650   5.745   2.099   3.438
   61CHL1   C12 5651   5.547   1.909   3.340
   61CHL1  H12A 5652   5.613   1.823   3.365
   61CHL1  H12B 5653   5.447   1.875   3.306
   61CHL1   C11 5654   5.638   1.961   3.231
   61CHL1  H11A 5655   5.745   1.973   3.258
   61CHL1  H11B 5656   5.640   1.893   3.142
   61CHL1    C9 5657   5.584   2.095   3.175
   61CHL1    H9 5658   5.482   2.074   3.138
   61CHL1   C10 5659   5.664   2.155   3.050
   61CHL1   C19 5660   5.818   2.177   3.083
   61CHL1  H19A 5661   5.883   2.218   3.002
   61CHL1  H19B 5662   5.819   2.235   3.177
   61CHL1  H19C 5663   5.872   2.081   3.099
   61CHL1    C1 5664   5.649   2.058   2.932
   61CHL1   H1A 5665   5.717   1.972   2.949
   61CHL1   H1B 5666   5.542   2.032   2.938
   61CHL1    C2 5667   5.686   2.119   2.790
   61CHL1   H2A 5668   5.652   2.058   2.704
   61CHL1   H2B 5669   5.797   2.126   2.784
   61CHL1   C20 5670   5.486   1.894   3.690
   61CHL1   H20 5671   5.589   1.926   3.717
   61CHL1   C21 5672   5.489   1.744   3.652
   61CHL1  H21A 5673   5.384   1.709   3.639
   61CHL1  H21B 5674   5.516   1.682   3.740
   61CHL1  H21C 5675   5.553   1.721   3.564
   61CHL1   C22 5676   5.399   1.913   3.812
   61CHL1  H22A 5677   5.411   2.018   3.845
   61CHL1  H22B 5678   5.291   1.909   3.786
   61CHL1   C23 5679   5.436   1.817   3.933
   61CHL1  H23A 5680   5.407   1.713   3.907
   61CHL1  H23B 5681   5.541   1.826   3.966
   61CHL1   C24 5682   5.354   1.856   4.060
   61CHL1  H24A 5683   5.370   1.966   4.066
   61CHL1  H24B 5684   5.243   1.848   4.052
   61CHL1   C25 5685   5.404   1.797   4.188
   61CHL1   H25 5686   5.514   1.802   4.197
   61CHL1   C26 5687   5.350   1.860   4.322
   61CHL1  H26A 5688   5.409   1.807   4.400
   61CHL1  H26B 5689   5.392   1.963   4.318
   61CHL1  H26C 5690   5.239   1.860   4.318
   61CHL1   C27 5691   5.360   1.639   4.189
   61CHL1  H27A 5692   5.363   1.588   4.288
   61CHL1  H27B 5693   5.253   1.639   4.159
   61CHL1  H27C 5694   5.431   1.598   4.114
   62CHL1    C3 5695   1.726   0.589   2.813
   62CHL1    H3 5696   1.622   0.552   2.803
   62CHL1    O3 5697   1.769   0.631   2.687
   62CHL1   H3' 5698   1.786   0.550   2.639
   62CHL1    C4 5699   1.708   0.708   2.915
   62CHL1   H4A 5700   1.792   0.779   2.894
   62CHL1   H4B 5701   1.622   0.766   2.877
   62CHL1    C5 5702   1.690   0.687   3.063
   62CHL1    C6 5703   1.588   0.745   3.128
   62CHL1    H6 5704   1.521   0.806   3.066
   62CHL1    C7 5705   1.578   0.733   3.277
   62CHL1   H7A 5706   1.558   0.834   3.320
   62CHL1   H7B 5707   1.490   0.671   3.306
   62CHL1    C8 5708   1.704   0.668   3.349
   62CHL1    H8 5709   1.776   0.752   3.360
   62CHL1   C14 5710   1.681   0.615   3.488
   62CHL1   H14 5711   1.618   0.523   3.481
   62CHL1   C15 5712   1.607   0.707   3.594
   62CHL1  H15A 5713   1.653   0.808   3.594
   62CHL1  H15B 5714   1.502   0.715   3.558
   62CHL1   C16 5715   1.634   0.641   3.729
   62CHL1  H16A 5716   1.678   0.715   3.799
   62CHL1  H16B 5717   1.541   0.603   3.776
   62CHL1   C17 5718   1.738   0.529   3.707
   62CHL1   H17 5719   1.676   0.443   3.675
   62CHL1   C13 5720   1.800   0.560   3.561
   62CHL1   C18 5721   1.912   0.670   3.579
   62CHL1  H18A 5722   1.953   0.704   3.482
   62CHL1  H18B 5723   1.879   0.757   3.639
   62CHL1  H18C 5724   1.996   0.622   3.634
   62CHL1   C12 5725   1.856   0.442   3.479
   62CHL1  H12A 5726   1.951   0.409   3.524
   62CHL1  H12B 5727   1.782   0.359   3.484
   62CHL1   C11 5728   1.876   0.481   3.328
   62CHL1  H11A 5729   1.972   0.537   3.324
   62CHL1  H11B 5730   1.897   0.385   3.276
   62CHL1    C9 5731   1.762   0.556   3.265
   62CHL1    H9 5732   1.684   0.478   3.256
   62CHL1   C10 5733   1.797   0.601   3.115
   62CHL1   C19 5734   1.932   0.679   3.111
   62CHL1  H19A 5735   1.926   0.741   3.203
   62CHL1  H19B 5736   2.018   0.611   3.128
   62CHL1  H19C 5737   1.934   0.755   3.029
   62CHL1    C1 5738   1.804   0.479   3.020
   62CHL1   H1A 5739   1.882   0.409   3.057
   62CHL1   H1B 5740   1.716   0.412   3.034
   62CHL1    C2 5741   1.835   0.500   2.871
   62CHL1   H2A 5742   1.849   0.403   2.819
   62CHL1   H2B 5743   1.932   0.555   2.878
   62CHL1   C20 5744   1.831   0.498   3.818
   62CHL1   H20 5745   1.899   0.583   3.842
   62CHL1   C21 5746   1.914   0.373   3.789
   62CHL1  H21A 5747   1.957   0.336   3.885
   62CHL1  H21B 5748   1.998   0.392   3.720
   62CHL1  H21C 5749   1.860   0.285   3.750
   62CHL1   C22 5750   1.752   0.483   3.947
   62CHL1  H22A 5751   1.673   0.557   3.972
   62CHL1  H22B 5752   1.710   0.380   3.956
   62CHL1   C23 5753   1.836   0.494   4.072
   62CHL1  H23A 5754   1.920   0.422   4.064
   62CHL1  H23B 5755   1.876   0.598   4.074
   62CHL1   C24 5756   1.753   0.459   4.195
   62CHL1  H24A 5757   1.659   0.518   4.195
   62CHL1  H24B 5758   1.719   0.354   4.194
   62CHL1   C25 5759   1.829   0.479   4.326
   62CHL1   H25 5760   1.927   0.432   4.304
   62CHL1   C26 5761   1.850   0.625   4.385
   62CHL1  H26A 5762   1.756   0.673   4.418
   62CHL1  H26B 5763   1.929   0.622   4.462
   62CHL1  H26C 5764   1.886   0.688   4.301
   62CHL1   C27 5765   1.759   0.403   4.439
   62CHL1  H27A 5766   1.765   0.293   4.424
   62CHL1  H27B 5767   1.818   0.423   4.531
   62CHL1  H27C 5768   1.651   0.427   4.440
   63CHL1    C3 5769   4.786   5.146   3.037
   63CHL1    H3 5770   4.891   5.144   3.075
   63CHL1    O3 5771   4.794   5.161   2.897
   63CHL1   H3' 5772   4.705   5.153   2.864
   63CHL1    C4 5773   4.715   5.012   3.077
   63CHL1   H4A 5774   4.622   4.999   3.018
   63CHL1   H4B 5775   4.776   4.930   3.032
   63CHL1    C5 5776   4.695   4.985   3.222
   63CHL1    C6 5777   4.740   4.877   3.293
   63CHL1    H6 5778   4.797   4.793   3.252
   63CHL1    C7 5779   4.688   4.859   3.434
   63CHL1   H7A 5780   4.657   4.752   3.437
   63CHL1   H7B 5781   4.772   4.879   3.504
   63CHL1    C8 5782   4.571   4.954   3.478
   63CHL1    H8 5783   4.480   4.912   3.430
   63CHL1   C14 5784   4.547   4.948   3.624
   63CHL1   H14 5785   4.644   4.985   3.663
   63CHL1   C15 5786   4.536   4.816   3.699
   63CHL1  H15A 5787   4.451   4.758   3.656
   63CHL1  H15B 5788   4.626   4.750   3.693
   63CHL1   C16 5789   4.499   4.861   3.836
   63CHL1  H16A 5790   4.427   4.790   3.882
   63CHL1  H16B 5791   4.590   4.858   3.899
   63CHL1   C17 5792   4.453   5.010   3.829
   63CHL1   H17 5793   4.537   5.077   3.856
   63CHL1   C13 5794   4.433   5.037   3.678
   63CHL1   C18 5795   4.302   4.989   3.613
   63CHL1  H18A 5796   4.226   5.066   3.634
   63CHL1  H18B 5797   4.310   4.976   3.503
   63CHL1  H18C 5798   4.272   4.889   3.650
   63CHL1   C12 5799   4.478   5.183   3.649
   63CHL1  H12A 5800   4.403   5.259   3.678
   63CHL1  H12B 5801   4.576   5.206   3.697
   63CHL1   C11 5802   4.496   5.197   3.498
   63CHL1  H11A 5803   4.399   5.185   3.444
   63CHL1  H11B 5804   4.529   5.299   3.472
   63CHL1    C9 5805   4.600   5.095   3.436
   63CHL1    H9 5806   4.700   5.120   3.478
   63CHL1   C10 5807   4.620   5.104   3.278
   63CHL1   C19 5808   4.479   5.106   3.222
   63CHL1  H19A 5809   4.432   5.204   3.245
   63CHL1  H19B 5810   4.472   5.099   3.111
   63CHL1  H19C 5811   4.425   5.025   3.275
   63CHL1    C1 5812   4.695   5.239   3.246
   63CHL1   H1A 5813   4.631   5.320   3.287
   63CHL1   H1B 5814   4.793   5.241   3.298
   63CHL1    C2 5815   4.718   5.264   3.099
   63CHL1   H2A 5816   4.785   5.351   3.079
   63CHL1   H2B 5817   4.628   5.275   3.036
   63CHL1   C20 5818   4.339   5.033   3.931
   63CHL1   H20 5819   4.261   4.953   3.922
   63CHL1   C21 5820   4.259   5.162   3.907
   63CHL1  H21A 5821   4.159   5.149   3.954
   63CHL1  H21B 5822   4.253   5.179   3.797
   63CHL1  H21C 5823   4.320   5.246   3.945
   63CHL1   C22 5824   4.389   5.025   4.077
   63CHL1  H22A 5825   4.464   4.946   4.099
   63CHL1  H22B 5826   4.434   5.122   4.106
   63CHL1   C23 5827   4.278   4.978   4.178
   63CHL1  H23A 5828   4.198   5.055   4.178
   63CHL1  H23B 5829   4.239   4.882   4.139
   63CHL1   C24 5830   4.330   4.956   4.324
   63CHL1  H24A 5831   4.385   4.859   4.323
   63CHL1  H24B 5832   4.405   5.034   4.347
   63CHL1   C25 5833   4.212   4.955   4.419
   63CHL1   H25 5834   4.239   4.932   4.524
   63CHL1   C26 5835   4.163   5.103   4.440
   63CHL1  H26A 5836   4.207   5.150   4.530
   63CHL1  H26B 5837   4.181   5.170   4.353
   63CHL1  H26C 5838   4.055   5.100   4.463
   63CHL1   C27 5839   4.098   4.855   4.373
   63CHL1  H27A 5840   4.132   4.766   4.316
   63CHL1  H27B 5841   4.058   4.823   4.471
   63CHL1  H27C 5842   4.013   4.909   4.325
   64CHL1    C3 5843   3.015   2.663   2.945
   64CHL1    H3 5844   3.045   2.769   2.959
   64CHL1    O3 5845   2.982   2.650   2.803
   64CHL1   H3' 5846   2.976   2.556   2.786
   64CHL1    C4 5847   3.137   2.583   2.989
   64CHL1   H4A 5848   3.112   2.480   2.955
   64CHL1   H4B 5849   3.222   2.612   2.925
   64CHL1    C5 5850   3.162   2.606   3.138
   64CHL1    C6 5851   3.285   2.627   3.192
   64CHL1    H6 5852   3.371   2.645   3.127
   64CHL1    C7 5853   3.302   2.646   3.338
   64CHL1   H7A 5854   3.405   2.614   3.366
   64CHL1   H7B 5855   3.297   2.751   3.373
   64CHL1    C8 5856   3.200   2.567   3.418
   64CHL1    H8 5857   3.206   2.461   3.384
   64CHL1   C14 5858   3.218   2.585   3.568
   64CHL1   H14 5859   3.213   2.692   3.595
   64CHL1   C15 5860   3.347   2.540   3.625
   64CHL1  H15A 5861   3.368   2.435   3.595
   64CHL1  H15B 5862   3.442   2.590   3.596
   64CHL1   C16 5863   3.330   2.524   3.780
   64CHL1  H16A 5864   3.369   2.425   3.811
   64CHL1  H16B 5865   3.386   2.596   3.843
   64CHL1   C17 5866   3.173   2.542   3.798
   64CHL1   H17 5867   3.158   2.649   3.825
   64CHL1   C13 5868   3.114   2.521   3.656
   64CHL1   C18 5869   3.116   2.367   3.635
   64CHL1  H18A 5870   3.030   2.311   3.678
   64CHL1  H18B 5871   3.107   2.331   3.530
   64CHL1  H18C 5872   3.207   2.325   3.682
   64CHL1   C12 5873   2.977   2.592   3.613
   64CHL1  H12A 5874   2.892   2.559   3.678
   64CHL1  H12B 5875   2.993   2.701   3.629
   64CHL1   C11 5876   2.938   2.571   3.467
   64CHL1  H11A 5877   2.909   2.465   3.450
   64CHL1  H11B 5878   2.848   2.634   3.452
   64CHL1    C9 5879   3.059   2.605   3.371
   64CHL1    H9 5880   3.057   2.716   3.377
   64CHL1   C10 5881   3.026   2.583   3.218
   64CHL1   C19 5882   2.988   2.433   3.195
   64CHL1  H19A 5883   2.972   2.390   3.094
   64CHL1  H19B 5884   3.067   2.367   3.237
   64CHL1  H19C 5885   2.892   2.410   3.247
   64CHL1    C1 5886   2.912   2.671   3.180
   64CHL1   H1A 5887   2.817   2.634   3.225
   64CHL1   H1B 5888   2.933   2.779   3.194
   64CHL1    C2 5889   2.887   2.645   3.032
   64CHL1   H2A 5890   2.812   2.720   2.999
   64CHL1   H2B 5891   2.839   2.545   3.021
   64CHL1   C20 5892   3.109   2.461   3.918
   64CHL1   H20 5893   3.109   2.356   3.880
   64CHL1   C21 5894   2.960   2.488   3.939
   64CHL1  H21A 5895   2.932   2.444   4.037
   64CHL1  H21B 5896   2.895   2.443   3.860
   64CHL1  H21C 5897   2.947   2.598   3.945
   64CHL1   C22 5898   3.192   2.450   4.049
   64CHL1  H22A 5899   3.140   2.396   4.131
   64CHL1  H22B 5900   3.284   2.390   4.028
   64CHL1   C23 5901   3.221   2.586   4.107
   64CHL1  H23A 5902   3.301   2.626   4.041
   64CHL1  H23B 5903   3.137   2.658   4.103
   64CHL1   C24 5904   3.264   2.599   4.259
   64CHL1  H24A 5905   3.178   2.565   4.321
   64CHL1  H24B 5906   3.347   2.529   4.284
   64CHL1   C25 5907   3.303   2.735   4.305
   64CHL1   H25 5908   3.230   2.802   4.256
   64CHL1   C26 5909   3.287   2.732   4.453
   64CHL1  H26A 5910   3.329   2.638   4.493
   64CHL1  H26B 5911   3.327   2.813   4.519
   64CHL1  H26C 5912   3.178   2.741   4.473
   64CHL1   C27 5913   3.449   2.769   4.260
   64CHL1  H27A 5914   3.520   2.698   4.308
   64CHL1  H27B 5915   3.465   2.751   4.151
   64CHL1  H27C 5916   3.492   2.870   4.280
   65CHL1    C3 5917   1.035   0.199   2.496
   65CHL1    H3 5918   0.967   0.287   2.505
   65CHL1    O3 5919   1.044   0.148   2.363
   65CHL1   H3' 5920   1.041   0.052   2.365
   65CHL1    C4 5921   1.175   0.244   2.543
   65CHL1   H4A 5922   1.251   0.164   2.531
   65CHL1   H4B 5923   1.210   0.331   2.484
   65CHL1    C5 5924   1.174   0.281   2.689
   65CHL1    C6 5925   1.228   0.398   2.737
   65CHL1    H6 5926   1.268   0.464   2.658
   65CHL1    C7 5927   1.263   0.427   2.876
   65CHL1   H7A 5928   1.365   0.463   2.896
   65CHL1   H7B 5929   1.203   0.515   2.906
   65CHL1    C8 5930   1.227   0.307   2.969
   65CHL1    H8 5931   1.309   0.235   2.949
   65CHL1   C14 5932   1.228   0.355   3.110
   65CHL1   H14 5933   1.146   0.428   3.127
   65CHL1   C15 5934   1.344   0.446   3.160
   65CHL1  H15A 5935   1.441   0.398   3.139
   65CHL1  H15B 5936   1.339   0.551   3.123
   65CHL1   C16 5937   1.323   0.437   3.315
   65CHL1  H16A 5938   1.418   0.403   3.362
   65CHL1  H16B 5939   1.289   0.528   3.368
   65CHL1   C17 5940   1.216   0.324   3.349
   65CHL1   H17 5941   1.119   0.377   3.354
   65CHL1   C13 5942   1.206   0.242   3.217
   65CHL1   C18 5943   1.330   0.150   3.212
   65CHL1  H18A 5944   1.329   0.096   3.115
   65CHL1  H18B 5945   1.426   0.205   3.226
   65CHL1  H18C 5946   1.325   0.062   3.280
   65CHL1   C12 5947   1.071   0.180   3.185
   65CHL1  H12A 5948   1.059   0.088   3.246
   65CHL1  H12B 5949   0.985   0.243   3.216
   65CHL1   C11 5950   1.063   0.133   3.033
   65CHL1  H11A 5951   1.134   0.048   3.028
   65CHL1  H11B 5952   0.960   0.097   3.014
   65CHL1    C9 5953   1.100   0.238   2.927
   65CHL1    H9 5954   1.020   0.314   2.927
   65CHL1   C10 5955   1.113   0.174   2.783
   65CHL1   C19 5956   1.194   0.046   2.790
   65CHL1  H19A 5957   1.143   6.768   2.851
   65CHL1  H19B 5958   1.207   6.800   2.690
   65CHL1  H19C 5959   1.296   0.066   2.828
   65CHL1    C1 5960   0.974   0.141   2.733
   65CHL1   H1A 5961   0.931   0.064   2.801
   65CHL1   H1B 5962   0.913   0.234   2.735
   65CHL1    C2 5963   0.977   0.091   2.588
   65CHL1   H2A 5964   0.870   0.079   2.558
   65CHL1   H2B 5965   1.016   6.787   2.583
   65CHL1   C20 5966   1.245   0.255   3.480
   65CHL1   H20 5967   1.342   0.201   3.478
   65CHL1   C21 5968   1.138   0.150   3.516
   65CHL1  H21A 5969   1.164   0.102   3.612
   65CHL1  H21B 5970   1.132   0.061   3.450
   65CHL1  H21C 5971   1.033   0.188   3.526
   65CHL1   C22 5972   1.255   0.350   3.606
   65CHL1  H22A 5973   1.314   0.442   3.589
   65CHL1  H22B 5974   1.147   0.368   3.625
   65CHL1   C23 5975   1.325   0.294   3.726
   65CHL1  H23A 5976   1.271   0.200   3.752
   65CHL1  H23B 5977   1.428   0.272   3.693
   65CHL1   C24 5978   1.336   0.390   3.846
   65CHL1  H24A 5979   1.417   0.466   3.838
   65CHL1  H24B 5980   1.239   0.443   3.847
   65CHL1   C25 5981   1.368   0.317   3.980
   65CHL1   H25 5982   1.462   0.258   3.977
   65CHL1   C26 5983   1.381   0.438   4.075
   65CHL1  H26A 5984   1.453   0.510   4.030
   65CHL1  H26B 5985   1.287   0.498   4.076
   65CHL1  H26C 5986   1.409   0.392   4.172
   65CHL1   C27 5987   1.250   0.218   4.022
   65CHL1  H27A 5988   1.269   0.189   4.128
   65CHL1  H27B 5989   1.151   0.263   4.003
   65CHL1  H27C 5990   1.263   0.129   3.957
   66CHL1    C3 5991   4.586   1.670   2.609
   66CHL1    H3 5992   4.676   1.605   2.617
   66CHL1    O3 5993   4.561   1.694   2.475
   66CHL1   H3' 5994   4.644   1.726   2.439
   66CHL1    C4 5995   4.467   1.601   2.681
   66CHL1   H4A 5996   4.371   1.654   2.660
   66CHL1   H4B 5997   4.465   1.506   2.624
   66CHL1    C5 5998   4.487   1.583   2.829
   66CHL1    C6 5999   4.493   1.463   2.882
   66CHL1    H6 6000   4.493   1.376   2.814
   66CHL1    C7 6001   4.519   1.447   3.031
   66CHL1   H7A 6002   4.453   1.370   3.079
   66CHL1   H7B 6003   4.624   1.411   3.040
   66CHL1    C8 6004   4.492   1.581   3.111
   66CHL1    H8 6005   4.381   1.589   3.104
   66CHL1   C14 6006   4.531   1.573   3.253
   66CHL1   H14 6007   4.641   1.559   3.259
   66CHL1   C15 6008   4.482   1.448   3.341
   66CHL1  H15A 6009   4.378   1.416   3.317
   66CHL1  H15B 6010   4.540   1.358   3.310
   66CHL1   C16 6011   4.509   1.493   3.489
   66CHL1  H16A 6012   4.411   1.468   3.535
   66CHL1  H16B 6013   4.582   1.424   3.537
   66CHL1   C17 6014   4.555   1.644   3.477
   66CHL1   H17 6015   4.666   1.640   3.463
   66CHL1   C13 6016   4.505   1.699   3.343
   66CHL1   C18 6017   4.351   1.719   3.360
   66CHL1  H18A 6018   4.295   1.633   3.403
   66CHL1  H18B 6019   4.329   1.812   3.418
   66CHL1  H18C 6020   4.315   1.740   3.257
   66CHL1   C12 6021   4.577   1.822   3.280
   66CHL1  H12A 6022   4.553   1.910   3.343
   66CHL1  H12B 6023   4.685   1.797   3.283
   66CHL1   C11 6024   4.534   1.837   3.132
   66CHL1  H11A 6025   4.431   1.877   3.137
   66CHL1  H11B 6026   4.602   1.916   3.093
   66CHL1    C9 6027   4.548   1.707   3.042
   66CHL1    H9 6028   4.654   1.675   3.044
   66CHL1   C10 6029   4.512   1.718   2.893
   66CHL1   C19 6030   4.385   1.802   2.877
   66CHL1  H19A 6031   4.293   1.761   2.924
   66CHL1  H19B 6032   4.395   1.907   2.911
   66CHL1  H19C 6033   4.351   1.823   2.773
   66CHL1    C1 6034   4.631   1.790   2.820
   66CHL1   H1A 6035   4.644   1.894   2.855
   66CHL1   H1B 6036   4.722   1.727   2.834
   66CHL1    C2 6037   4.621   1.808   2.673
   66CHL1   H2A 6038   4.713   1.847   2.624
   66CHL1   H2B 6039   4.540   1.882   2.656
   66CHL1   C20 6040   4.518   1.721   3.608
   66CHL1   H20 6041   4.409   1.716   3.630
   66CHL1   C21 6042   4.574   1.866   3.602
   66CHL1  H21A 6043   4.576   1.912   3.703
   66CHL1  H21B 6044   4.511   1.930   3.537
   66CHL1  H21C 6045   4.681   1.873   3.573
   66CHL1   C22 6046   4.584   1.658   3.736
   66CHL1  H22A 6047   4.579   1.547   3.736
   66CHL1  H22B 6048   4.693   1.679   3.746
   66CHL1   C23 6049   4.507   1.685   3.868
   66CHL1  H23A 6050   4.580   1.656   3.947
   66CHL1  H23B 6051   4.499   1.793   3.890
   66CHL1   C24 6052   4.377   1.616   3.894
   66CHL1  H24A 6053   4.307   1.644   3.812
   66CHL1  H24B 6054   4.395   1.507   3.883
   66CHL1   C25 6055   4.320   1.640   4.024
   66CHL1   H25 6056   4.390   1.629   4.110
   66CHL1   C26 6057   4.279   1.788   4.042
   66CHL1  H26A 6058   4.219   1.815   3.952
   66CHL1  H26B 6059   4.227   1.804   4.139
   66CHL1  H26C 6060   4.368   1.855   4.037
   66CHL1   C27 6061   4.198   1.553   4.045
   66CHL1  H27A 6062   4.137   1.554   3.952
   66CHL1  H27B 6063   4.131   1.589   4.125
   66CHL1  H27C 6064   4.233   1.449   4.067
   67CHL1    C3 6065   4.630   6.191   3.042
   67CHL1    H3 6066   4.577   6.288   3.050
   67CHL1    O3 6067   4.678   6.199   2.911
   67CHL1   H3' 6068   4.744   6.131   2.897
   67CHL1    C4 6069   4.740   6.193   3.148
   67CHL1   H4A 6070   4.811   6.112   3.122
   67CHL1   H4B 6071   4.800   6.286   3.137
   67CHL1    C5 6072   4.687   6.190   3.293
   67CHL1    C6 6073   4.727   6.283   3.383
   67CHL1    H6 6074   4.805   6.357   3.358
   67CHL1    C7 6075   4.670   6.292   3.528
   67CHL1   H7A 6076   4.754   6.314   3.596
   67CHL1   H7B 6077   4.593   6.371   3.544
   67CHL1    C8 6078   4.613   6.150   3.561
   67CHL1    H8 6079   4.698   6.080   3.571
   67CHL1   C14 6080   4.544   6.161   3.694
   67CHL1   H14 6081   4.463   6.237   3.680
   67CHL1   C15 6082   4.634   6.200   3.815
   67CHL1  H15A 6083   4.733   6.149   3.817
   67CHL1  H15B 6084   4.656   6.309   3.814
   67CHL1   C16 6085   4.547   6.160   3.936
   67CHL1  H16A 6086   4.614   6.111   4.010
   67CHL1  H16B 6087   4.518   6.247   3.999
   67CHL1   C17 6088   4.417   6.084   3.887
   67CHL1   H17 6089   4.340   6.163   3.871
   67CHL1   C13 6090   4.454   6.039   3.741
   67CHL1   C18 6091   4.547   5.918   3.767
   67CHL1  H18A 6092   4.635   5.955   3.824
   67CHL1  H18B 6093   4.504   5.826   3.812
   67CHL1  H18C 6094   4.591   5.880   3.672
   67CHL1   C12 6095   4.352   6.023   3.628
   67CHL1  H12A 6096   4.273   5.949   3.654
   67CHL1  H12B 6097   4.297   6.120   3.625
   67CHL1   C11 6098   4.408   6.000   3.485
   67CHL1  H11A 6099   4.454   5.899   3.488
   67CHL1  H11B 6100   4.327   6.005   3.409
   67CHL1    C9 6101   4.511   6.109   3.454
   67CHL1    H9 6102   4.454   6.202   3.433
   67CHL1   C10 6103   4.583   6.084   3.320
   67CHL1   C19 6104   4.657   5.945   3.323
   67CHL1  H19A 6105   4.732   5.938   3.405
   67CHL1  H19B 6106   4.581   5.866   3.339
   67CHL1  H19C 6107   4.726   5.932   3.237
   67CHL1    C1 6108   4.478   6.067   3.204
   67CHL1   H1A 6109   4.425   5.972   3.223
   67CHL1   H1B 6110   4.411   6.156   3.208
   67CHL1    C2 6111   4.540   6.076   3.064
   67CHL1   H2A 6112   4.452   6.078   2.996
   67CHL1   H2B 6113   4.595   5.986   3.028
   67CHL1   C20 6114   4.350   5.982   3.984
   67CHL1   H20 6115   4.412   5.890   3.984
   67CHL1   C21 6116   4.216   5.948   3.926
   67CHL1  H21A 6117   4.238   5.892   3.833
   67CHL1  H21B 6118   4.154   6.037   3.899
   67CHL1  H21C 6119   4.156   5.880   3.990
   67CHL1   C22 6120   4.330   6.042   4.128
   67CHL1  H22A 6121   4.433   6.071   4.155
   67CHL1  H22B 6122   4.270   6.135   4.119
   67CHL1   C23 6123   4.256   5.963   4.240
   67CHL1  H23A 6124   4.238   6.034   4.324
   67CHL1  H23B 6125   4.156   5.931   4.204
   67CHL1   C24 6126   4.344   5.848   4.285
   67CHL1  H24A 6127   4.397   5.784   4.212
   67CHL1  H24B 6128   4.431   5.889   4.341
   67CHL1   C25 6129   4.271   5.755   4.380
   67CHL1   H25 6130   4.192   5.813   4.431
   67CHL1   C26 6131   4.201   5.642   4.307
   67CHL1  H26A 6132   4.136   5.582   4.375
   67CHL1  H26B 6133   4.145   5.686   4.221
   67CHL1  H26C 6134   4.279   5.570   4.274
   67CHL1   C27 6135   4.368   5.687   4.481
   67CHL1  H27A 6136   4.457   5.652   4.426
   67CHL1  H27B 6137   4.383   5.766   4.558
   67CHL1  H27C 6138   4.324   5.595   4.525
   68CHL1    C3 6139   1.962   5.314   3.029
   68CHL1    H3 6140   1.923   5.414   3.059
   68CHL1    O3 6141   1.966   5.316   2.888
   68CHL1   H3' 6142   2.026   5.244   2.868
   68CHL1    C4 6143   2.104   5.308   3.088
   68CHL1   H4A 6144   2.152   5.216   3.049
   68CHL1   H4B 6145   2.154   5.395   3.040
   68CHL1    C5 6146   2.111   5.298   3.235
   68CHL1    C6 6147   2.189   5.380   3.302
   68CHL1    H6 6148   2.247   5.449   3.238
   68CHL1    C7 6149   2.202   5.383   3.453
   68CHL1   H7A 6150   2.311   5.374   3.472
   68CHL1   H7B 6151   2.161   5.475   3.501
   68CHL1    C8 6152   2.132   5.264   3.524
   68CHL1    H8 6153   2.199   5.177   3.506
   68CHL1   C14 6154   2.102   5.308   3.665
   68CHL1   H14 6155   2.029   5.391   3.655
   68CHL1   C15 6156   2.223   5.358   3.751
   68CHL1  H15A 6157   2.309   5.290   3.730
   68CHL1  H15B 6158   2.261   5.458   3.721
   68CHL1   C16 6159   2.163   5.349   3.893
   68CHL1  H16A 6160   2.235   5.299   3.962
   68CHL1  H16B 6161   2.163   5.453   3.934
   68CHL1   C17 6162   2.033   5.269   3.887
   68CHL1   H17 6163   1.949   5.341   3.875
   68CHL1   C13 6164   2.039   5.198   3.750
   68CHL1   C18 6165   2.131   5.075   3.768
   68CHL1  H18A 6166   2.075   4.984   3.798
   68CHL1  H18B 6167   2.184   5.055   3.673
   68CHL1  H18C 6168   2.210   5.101   3.842
   68CHL1   C12 6169   1.906   5.163   3.685
   68CHL1  H12A 6170   1.871   5.071   3.736
   68CHL1  H12B 6171   1.825   5.240   3.690
   68CHL1   C11 6172   1.923   5.120   3.533
   68CHL1  H11A 6173   1.981   5.025   3.543
   68CHL1  H11B 6174   1.825   5.088   3.492
   68CHL1    C9 6175   1.999   5.228   3.448
   68CHL1    H9 6176   1.937   5.320   3.452
   68CHL1   C10 6177   2.021   5.190   3.304
   68CHL1   C19 6178   2.103   5.056   3.283
   68CHL1  H19A 6179   2.206   5.061   3.324
   68CHL1  H19B 6180   2.062   4.970   3.340
   68CHL1  H19C 6181   2.100   5.024   3.177
   68CHL1    C1 6182   1.883   5.188   3.232
   68CHL1   H1A 6183   1.815   5.109   3.272
   68CHL1   H1B 6184   1.821   5.275   3.261
   68CHL1    C2 6185   1.880   5.191   3.078
   68CHL1   H2A 6186   1.779   5.204   3.036
   68CHL1   H2B 6187   1.926   5.097   3.040
   68CHL1   C20 6188   2.009   5.188   4.014
   68CHL1   H20 6189   2.086   5.107   4.018
   68CHL1   C21 6190   1.867   5.115   3.998
   68CHL1  H21A 6191   1.800   5.184   3.944
   68CHL1  H21B 6192   1.818   5.079   4.091
   68CHL1  H21C 6193   1.876   5.018   3.945
   68CHL1   C22 6194   2.006   5.279   4.143
   68CHL1  H22A 6195   2.097   5.342   4.138
   68CHL1  H22B 6196   1.915   5.342   4.146
   68CHL1   C23 6197   2.006   5.197   4.271
   68CHL1  H23A 6198   1.914   5.139   4.293
   68CHL1  H23B 6199   2.079   5.114   4.256
   68CHL1   C24 6200   2.060   5.277   4.391
   68CHL1  H24A 6201   2.169   5.294   4.383
   68CHL1  H24B 6202   2.020   5.381   4.391
   68CHL1   C25 6203   2.015   5.214   4.531
   68CHL1   H25 6204   2.040   5.106   4.535
   68CHL1   C26 6205   2.079   5.281   4.646
   68CHL1  H26A 6206   2.071   5.391   4.640
   68CHL1  H26B 6207   2.047   5.245   4.746
   68CHL1  H26C 6208   2.187   5.258   4.635
   68CHL1   C27 6209   1.859   5.232   4.542
   68CHL1  H27A 6210   1.805   5.185   4.627
   68CHL1  H27B 6211   1.843   5.341   4.556
   68CHL1  H27C 6212   1.803   5.202   4.451
   69CHL1    C3 6213   0.873   2.709   2.758
   69CHL1    H3 6214   0.874   2.603   2.788
   69CHL1    O3 6215   0.848   2.730   2.624
   69CHL1   H3' 6216   0.823   2.822   2.614
   69CHL1    C4 6217   0.751   2.770   2.828
   69CHL1   H4A 6218   0.729   2.876   2.802
   69CHL1   H4B 6219   0.661   2.710   2.801
   69CHL1    C5 6220   0.772   2.769   2.984
   69CHL1    C6 6221   0.689   2.707   3.068
   69CHL1    H6 6222   0.601   2.651   3.034
   69CHL1    C7 6223   0.698   2.700   3.213
   69CHL1   H7A 6224   0.599   2.730   3.255
   69CHL1   H7B 6225   0.723   2.598   3.248
   69CHL1    C8 6226   0.794   2.803   3.264
   69CHL1    H8 6227   0.757   2.907   3.277
   69CHL1   C14 6228   0.838   2.741   3.402
   69CHL1   H14 6229   0.892   2.651   3.366
   69CHL1   C15 6230   0.732   2.684   3.497
   69CHL1  H15A 6231   0.638   2.744   3.506
   69CHL1  H15B 6232   0.694   2.584   3.469
   69CHL1   C16 6233   0.802   2.681   3.635
   69CHL1  H16A 6234   0.749   2.756   3.699
   69CHL1  H16B 6235   0.800   2.574   3.666
   69CHL1   C17 6236   0.946   2.738   3.610
   69CHL1   H17 6237   1.011   2.649   3.592
   69CHL1   C13 6238   0.939   2.830   3.482
   69CHL1   C18 6239   0.862   2.955   3.512
   69CHL1  H18A 6240   0.859   3.024   3.424
   69CHL1  H18B 6241   0.757   2.934   3.540
   69CHL1  H18C 6242   0.907   3.004   3.601
   69CHL1   C12 6243   1.067   2.854   3.397
   69CHL1  H12A 6244   1.137   2.934   3.430
   69CHL1  H12B 6245   1.122   2.757   3.400
   69CHL1   C11 6246   1.037   2.899   3.246
   69CHL1  H11A 6247   1.009   3.006   3.245
   69CHL1  H11B 6248   1.123   2.892   3.176
   69CHL1    C9 6249   0.925   2.805   3.180
   69CHL1    H9 6250   0.969   2.703   3.186
   69CHL1   C10 6251   0.905   2.838   3.028
   69CHL1   C19 6252   0.892   2.989   3.011
   69CHL1  H19A 6253   0.981   3.047   3.045
   69CHL1  H19B 6254   0.873   3.008   2.904
   69CHL1  H19C 6255   0.818   3.043   3.074
   69CHL1    C1 6256   1.024   2.797   2.945
   69CHL1   H1A 6257   1.119   2.853   2.959
   69CHL1   H1B 6258   1.043   2.692   2.978
   69CHL1    C2 6259   1.007   2.779   2.790
   69CHL1   H2A 6260   1.087   2.719   2.741
   69CHL1   H2B 6261   1.000   2.884   2.754
   69CHL1   C20 6262   1.003   2.800   3.737
   69CHL1   H20 6263   0.931   2.879   3.765
   69CHL1   C21 6264   1.141   2.846   3.712
   69CHL1  H21A 6265   1.133   2.944   3.661
   69CHL1  H21B 6266   1.185   2.779   3.636
   69CHL1  H21C 6267   1.197   2.854   3.808
   69CHL1   C22 6268   1.001   2.709   3.860
   69CHL1  H22A 6269   0.933   2.622   3.848
   69CHL1  H22B 6270   1.100   2.669   3.891
   69CHL1   C23 6271   0.942   2.795   3.978
   69CHL1  H23A 6272   1.002   2.888   3.985
   69CHL1  H23B 6273   0.836   2.823   3.959
   69CHL1   C24 6274   0.948   2.720   4.113
   69CHL1  H24A 6275   0.901   2.620   4.115
   69CHL1  H24B 6276   1.056   2.699   4.131
   69CHL1   C25 6277   0.885   2.803   4.230
   69CHL1   H25 6278   0.886   2.909   4.197
   69CHL1   C26 6279   0.746   2.756   4.265
   69CHL1  H26A 6280   0.707   2.822   4.346
   69CHL1  H26B 6281   0.680   2.771   4.176
   69CHL1  H26C 6282   0.747   2.651   4.301
   69CHL1   C27 6283   0.972   2.793   4.350
   69CHL1  H27A 6284   0.977   2.686   4.379
   69CHL1  H27B 6285   1.078   2.816   4.328
   69CHL1  H27C 6286   0.941   2.857   4.435
   70CHL1    C3 6287   2.846   0.378   2.521
   70CHL1    H3 6288   2.902   0.283   2.532
   70CHL1    O3 6289   2.845   0.404   2.382
   70CHL1   H3' 6290   2.915   0.468   2.372
   70CHL1    C4 6291   2.709   0.340   2.572
   70CHL1   H4A 6292   2.636   0.417   2.541
   70CHL1   H4B 6293   2.680   0.252   2.510
   70CHL1    C5 6294   2.707   0.301   2.717
   70CHL1    C6 6295   2.661   0.179   2.751
   70CHL1    H6 6296   2.632   0.111   2.670
   70CHL1    C7 6297   2.664   0.130   2.894
   70CHL1   H7A 6298   2.570   0.071   2.905
   70CHL1   H7B 6299   2.747   0.057   2.906
   70CHL1    C8 6300   2.680   0.237   3.000
   70CHL1    H8 6301   2.589   0.302   3.003
   70CHL1   C14 6302   2.715   0.176   3.136
   70CHL1   H14 6303   2.814   0.128   3.126
   70CHL1   C15 6304   2.633   0.061   3.188
   70CHL1  H15A 6305   2.524   0.075   3.174
   70CHL1  H15B 6306   2.655   6.769   3.131
   70CHL1   C16 6307   2.662   0.063   3.334
   70CHL1  H16A 6308   2.571   0.089   3.391
   70CHL1  H16B 6309   2.695   6.762   3.368
   70CHL1   C17 6310   2.760   0.177   3.365
   70CHL1   H17 6311   2.863   0.139   3.349
   70CHL1   C13 6312   2.736   0.279   3.245
   70CHL1   C18 6313   2.610   0.362   3.269
   70CHL1  H18A 6314   2.626   0.442   3.345
   70CHL1  H18B 6315   2.576   0.401   3.171
   70CHL1  H18C 6316   2.527   0.306   3.317
   70CHL1   C12 6317   2.846   0.374   3.205
   70CHL1  H12A 6318   2.867   0.458   3.274
   70CHL1  H12B 6319   2.944   0.324   3.186
   70CHL1   C11 6320   2.821   0.437   3.066
   70CHL1  H11A 6321   2.743   0.513   3.083
   70CHL1  H11B 6322   2.922   0.478   3.042
   70CHL1    C9 6323   2.788   0.333   2.958
   70CHL1    H9 6324   2.879   0.270   2.947
   70CHL1   C10 6325   2.765   0.401   2.816
   70CHL1   C19 6326   2.654   0.511   2.823
   70CHL1  H19A 6327   2.673   0.588   2.901
   70CHL1  H19B 6328   2.641   0.569   2.728
   70CHL1  H19C 6329   2.551   0.473   2.841
   70CHL1    C1 6330   2.903   0.457   2.767
   70CHL1   H1A 6331   2.921   0.554   2.817
   70CHL1   H1B 6332   2.986   0.390   2.799
   70CHL1    C2 6333   2.908   0.484   2.612
   70CHL1   H2A 6334   3.016   0.489   2.587
   70CHL1   H2B 6335   2.860   0.580   2.583
   70CHL1   C20 6336   2.745   0.219   3.516
   70CHL1   H20 6337   2.643   0.257   3.533
   70CHL1   C21 6338   2.838   0.336   3.546
   70CHL1  H21A 6339   2.938   0.304   3.511
   70CHL1  H21B 6340   2.836   0.355   3.656
   70CHL1  H21C 6341   2.803   0.425   3.489
   70CHL1   C22 6342   2.761   0.102   3.618
   70CHL1  H22A 6343   2.750   0.143   3.721
   70CHL1  H22B 6344   2.673   0.036   3.605
   70CHL1   C23 6345   2.890   0.012   3.591
   70CHL1  H23A 6346   2.892   6.773   3.487
   70CHL1  H23B 6347   2.979   0.074   3.612
   70CHL1   C24 6348   2.883   6.685   3.688
   70CHL1  H24A 6349   2.854   6.724   3.788
   70CHL1  H24B 6350   2.797   6.622   3.657
   70CHL1   C25 6351   2.998   6.585   3.693
   70CHL1   H25 6352   3.024   6.558   3.588
   70CHL1   C26 6353   3.108   6.657   3.777
   70CHL1  H26A 6354   3.193   6.597   3.816
   70CHL1  H26B 6355   3.135   6.746   3.717
   70CHL1  H26C 6356   3.054   6.693   3.867
   70CHL1   C27 6357   2.954   6.449   3.769
   70CHL1  H27A 6358   2.865   6.413   3.713
   70CHL1  H27B 6359   3.042   6.382   3.768
   70CHL1  H27C 6360   2.930   6.480   3.873
   71CHL1    C3 6361   6.177   5.879   2.950
   71CHL1    H3 6362   6.076   5.835   2.949
   71CHL1    O3 6363   6.211   5.902   2.817
   71CHL1   H3' 6364   6.127   5.914   2.772
   71CHL1    C4 6365   6.182   6.006   3.028
   71CHL1   H4A 6366   6.283   6.052   3.028
   71CHL1   H4B 6367   6.125   6.088   2.979
   71CHL1    C5 6368   6.135   5.974   3.176
   71CHL1    C6 6369   6.039   6.044   3.235
   71CHL1    H6 6370   5.984   6.120   3.179
   71CHL1    C7 6371   5.992   6.024   3.375
   71CHL1   H7A 6372   5.996   6.119   3.434
   71CHL1   H7B 6373   5.891   5.978   3.379
   71CHL1    C8 6374   6.085   5.931   3.456
   71CHL1    H8 6375   6.171   5.999   3.475
   71CHL1   C14 6376   6.027   5.878   3.582
   71CHL1   H14 6377   5.944   5.812   3.545
   71CHL1   C15 6378   5.947   5.966   3.669
   71CHL1  H15A 6379   5.995   6.064   3.682
   71CHL1  H15B 6380   5.850   5.982   3.617
   71CHL1   C16 6381   5.924   5.886   3.792
   71CHL1  H16A 6382   5.939   5.957   3.875
   71CHL1  H16B 6383   5.815   5.870   3.806
   71CHL1   C17 6384   6.015   5.757   3.786
   71CHL1   H17 6385   5.957   5.666   3.760
   71CHL1   C13 6386   6.117   5.796   3.669
   71CHL1   C18 6387   6.227   5.884   3.729
   71CHL1  H18A 6388   6.289   5.926   3.647
   71CHL1  H18B 6389   6.193   5.965   3.797
   71CHL1  H18C 6390   6.292   5.815   3.787
   71CHL1   C12 6391   6.169   5.672   3.589
   71CHL1  H12A 6392   6.247   5.604   3.630
   71CHL1  H12B 6393   6.077   5.614   3.565
   71CHL1   C11 6394   6.236   5.734   3.469
   71CHL1  H11A 6395   6.327   5.789   3.502
   71CHL1  H11B 6396   6.288   5.656   3.409
   71CHL1    C9 6397   6.151   5.815   3.374
   71CHL1    H9 6398   6.073   5.743   3.339
   71CHL1   C10 6399   6.221   5.864   3.241
   71CHL1   C19 6400   6.363   5.913   3.269
   71CHL1  H19A 6401   6.418   5.951   3.180
   71CHL1  H19B 6402   6.368   5.993   3.346
   71CHL1  H19C 6403   6.428   5.828   3.299
   71CHL1    C1 6404   6.218   5.740   3.145
   71CHL1   H1A 6405   6.297   5.675   3.188
   71CHL1   H1B 6406   6.123   5.685   3.160
   71CHL1    C2 6407   6.267   5.768   2.998
   71CHL1   H2A 6408   6.254   5.674   2.940
   71CHL1   H2B 6409   6.370   5.810   2.991
   71CHL1   C20 6410   6.068   5.727   3.928
   71CHL1   H20 6411   6.121   5.817   3.968
   71CHL1   C21 6412   6.159   5.603   3.914
   71CHL1  H21A 6413   6.259   5.639   3.880
   71CHL1  H21B 6414   6.105   5.532   3.849
   71CHL1  H21C 6415   6.169   5.548   4.010
   71CHL1   C22 6416   5.964   5.696   4.038
   71CHL1  H22A 6417   5.885   5.773   4.021
   71CHL1  H22B 6418   5.910   5.603   4.008
   71CHL1   C23 6419   6.022   5.688   4.176
   71CHL1  H23A 6420   6.114   5.626   4.173
   71CHL1  H23B 6421   6.054   5.791   4.202
   71CHL1   C24 6422   5.924   5.643   4.291
   71CHL1  H24A 6423   5.828   5.697   4.275
   71CHL1  H24B 6424   5.902   5.538   4.261
   71CHL1   C25 6425   5.981   5.661   4.432
   71CHL1   H25 6426   5.902   5.633   4.504
   71CHL1   C26 6427   6.100   5.560   4.462
   71CHL1  H26A 6428   6.190   5.571   4.398
   71CHL1  H26B 6429   6.138   5.588   4.562
   71CHL1  H26C 6430   6.060   5.456   4.458
   71CHL1   C27 6431   6.028   5.808   4.444
   71CHL1  H27A 6432   5.959   5.887   4.406
   71CHL1  H27B 6433   6.033   5.847   4.548
   71CHL1  H27C 6434   6.130   5.815   4.400
   72CHL1    C3 6435   0.446   4.564   2.906
   72CHL1    H3 6436   0.358   4.632   2.902
   72CHL1    O3 6437   0.479   4.528   2.774
   72CHL1   H3' 6438   0.509   4.606   2.726
   72CHL1    C4 6439   0.569   4.623   2.965
   72CHL1   H4A 6440   0.652   4.550   2.960
   72CHL1   H4B 6441   0.596   4.717   2.913
   72CHL1    C5 6442   0.535   4.657   3.109
   72CHL1    C6 6443   0.552   4.787   3.158
   72CHL1    H6 6444   0.596   4.866   3.096
   72CHL1    C7 6445   0.531   4.824   3.298
   72CHL1   H7A 6446   0.617   4.880   3.339
   72CHL1   H7B 6447   0.451   4.901   3.306
   72CHL1    C8 6448   0.502   4.706   3.399
   72CHL1    H8 6449   0.599   4.658   3.425
   72CHL1   C14 6450   0.435   4.761   3.522
   72CHL1   H14 6451   0.339   4.806   3.490
   72CHL1   C15 6452   0.510   4.866   3.605
   72CHL1  H15A 6453   0.617   4.842   3.622
   72CHL1  H15B 6454   0.520   4.961   3.549
   72CHL1   C16 6455   0.429   4.874   3.736
   72CHL1  H16A 6456   0.498   4.886   3.822
   72CHL1  H16B 6457   0.365   4.964   3.747
   72CHL1   C17 6458   0.333   4.745   3.734
   72CHL1   H17 6459   0.235   4.780   3.694
   72CHL1   C13 6460   0.390   4.651   3.624
   72CHL1   C18 6461   0.514   4.575   3.664
   72CHL1  H18A 6462   0.565   4.521   3.581
   72CHL1  H18B 6463   0.586   4.635   3.724
   72CHL1  H18C 6464   0.486   4.489   3.727
   72CHL1   C12 6465   0.296   4.550   3.551
   72CHL1  H12A 6466   0.264   4.462   3.610
   72CHL1  H12B 6467   0.202   4.601   3.523
   72CHL1   C11 6468   0.352   4.490   3.418
   72CHL1  H11A 6469   0.436   4.420   3.437
   72CHL1  H11B 6470   0.270   4.445   3.358
   72CHL1    C9 6471   0.415   4.603   3.327
   72CHL1    H9 6472   0.325   4.655   3.287
   72CHL1   C10 6473   0.481   4.545   3.198
   72CHL1   C19 6474   0.602   4.451   3.233
   72CHL1  H19A 6475   0.654   4.412   3.142
   72CHL1  H19B 6476   0.680   4.506   3.290
   72CHL1  H19C 6477   0.579   4.357   3.288
   72CHL1    C1 6478   0.378   4.460   3.121
   72CHL1   H1A 6479   0.371   4.359   3.167
   72CHL1   H1B 6480   0.275   4.499   3.132
   72CHL1    C2 6481   0.401   4.438   2.971
   72CHL1   H2A 6482   0.305   4.410   2.923
   72CHL1   H2B 6483   0.472   4.353   2.958
   72CHL1   C20 6484   0.301   4.684   3.867
   72CHL1   H20 6485   0.395   4.634   3.897
   72CHL1   C21 6486   0.197   4.569   3.865
   72CHL1  H21A 6487   0.215   4.487   3.793
   72CHL1  H21B 6488   0.093   4.604   3.850
   72CHL1  H21C 6489   0.200   4.525   3.967
   72CHL1   C22 6490   0.271   4.783   3.978
   72CHL1  H22A 6491   0.238   4.736   4.072
   72CHL1  H22B 6492   0.362   4.843   4.001
   72CHL1   C23 6493   0.154   4.887   3.965
   72CHL1  H23A 6494   0.149   4.920   3.859
   72CHL1  H23B 6495   0.062   4.827   3.985
   72CHL1   C24 6496   0.182   5.001   4.067
   72CHL1  H24A 6497   0.258   4.970   4.143
   72CHL1  H24B 6498   0.236   5.081   4.013
   72CHL1   C25 6499   0.049   5.053   4.125
   72CHL1   H25 6500   6.779   4.972   4.155
   72CHL1   C26 6501   0.088   5.131   4.248
   72CHL1  H26A 6502   6.795   5.160   4.299
   72CHL1  H26B 6503   0.157   5.069   4.310
   72CHL1  H26C 6504   0.140   5.223   4.215
   72CHL1   C27 6505   6.786   5.145   4.015
   72CHL1  H27A 6506   6.687   5.186   4.046
   72CHL1  H27B 6507   0.047   5.237   4.007
   72CHL1  H27C 6508   6.776   5.090   3.919
   73CHL1    C3 6509   1.415   5.109   3.284
   73CHL1    H3 6510   1.462   5.208   3.301
   73CHL1    O3 6511   1.434   5.071   3.143
   73CHL1   H3' 6512   1.360   5.117   3.104
   73CHL1    C4 6513   1.474   4.995   3.379
   73CHL1   H4A 6514   1.449   4.896   3.334
   73CHL1   H4B 6515   1.583   5.002   3.362
   73CHL1    C5 6516   1.422   5.018   3.516
   73CHL1    C6 6517   1.512   5.006   3.614
   73CHL1    H6 6518   1.619   4.994   3.592
   73CHL1    C7 6519   1.487   5.006   3.763
   73CHL1   H7A 6520   1.559   4.940   3.816
   73CHL1   H7B 6521   1.531   5.097   3.810
   73CHL1    C8 6522   1.340   4.992   3.793
   73CHL1    H8 6523   1.319   4.885   3.773
   73CHL1   C14 6524   1.319   5.028   3.941
   73CHL1   H14 6525   1.348   5.135   3.950
   73CHL1   C15 6526   1.407   4.965   4.049
   73CHL1  H15A 6527   1.406   4.859   4.018
   73CHL1  H15B 6528   1.507   5.013   4.042
   73CHL1   C16 6529   1.334   4.989   4.181
   73CHL1  H16A 6530   1.326   4.896   4.241
   73CHL1  H16B 6531   1.393   5.064   4.237
   73CHL1   C17 6532   1.197   5.059   4.142
   73CHL1   H17 6533   1.220   5.167   4.152
   73CHL1   C13 6534   1.172   5.029   3.987
   73CHL1   C18 6535   1.108   4.892   3.970
   73CHL1  H18A 6536   0.999   4.907   3.983
   73CHL1  H18B 6537   1.146   4.847   3.875
   73CHL1  H18C 6538   1.135   4.826   4.055
   73CHL1   C12 6539   1.094   5.129   3.897
   73CHL1  H12A 6540   0.987   5.113   3.922
   73CHL1  H12B 6541   1.129   5.232   3.920
   73CHL1   C11 6542   1.105   5.105   3.747
   73CHL1  H11A 6543   1.043   5.014   3.729
   73CHL1  H11B 6544   1.047   5.186   3.697
   73CHL1    C9 6545   1.254   5.079   3.700
   73CHL1    H9 6546   1.306   5.177   3.695
   73CHL1   C10 6547   1.265   5.043   3.544
   73CHL1   C19 6548   1.179   4.915   3.519
   73CHL1  H19A 6549   1.193   4.837   3.597
   73CHL1  H19B 6550   1.070   4.937   3.513
   73CHL1  H19C 6551   1.206   4.872   3.420
   73CHL1    C1 6552   1.223   5.162   3.459
   73CHL1   H1A 6553   1.115   5.186   3.466
   73CHL1   H1B 6554   1.266   5.260   3.488
   73CHL1    C2 6555   1.267   5.141   3.312
   73CHL1   H2A 6556   1.234   5.227   3.250
   73CHL1   H2B 6557   1.213   5.052   3.272
   73CHL1   C20 6558   1.079   5.038   4.247
   73CHL1   H20 6559   1.019   4.946   4.229
   73CHL1   C21 6560   0.981   5.150   4.217
   73CHL1  H21A 6561   0.949   5.163   4.111
   73CHL1  H21B 6562   1.018   5.252   4.242
   73CHL1  H21C 6563   0.888   5.138   4.276
   73CHL1   C22 6564   1.123   5.047   4.395
   73CHL1  H22A 6565   1.204   4.974   4.416
   73CHL1  H22B 6566   1.168   5.147   4.415
   73CHL1   C23 6567   1.006   5.037   4.495
   73CHL1  H23A 6568   0.944   5.129   4.495
   73CHL1  H23B 6569   0.939   4.958   4.454
   73CHL1   C24 6570   1.054   5.011   4.641
   73CHL1  H24A 6571   1.111   4.917   4.622
   73CHL1  H24B 6572   1.124   5.092   4.670
   73CHL1   C25 6573   0.943   5.005   4.749
   73CHL1   H25 6574   0.883   4.912   4.733
   73CHL1   C26 6575   0.990   4.986   4.896
   73CHL1  H26A 6576   1.049   5.072   4.935
   73CHL1  H26B 6577   0.908   4.972   4.970
   73CHL1  H26C 6578   1.057   4.897   4.896
   73CHL1   C27 6579   0.842   5.118   4.738
   73CHL1  H27A 6580   0.787   5.122   4.642
   73CHL1  H27B 6581   0.759   5.105   4.811
   73CHL1  H27C 6582   0.891   5.213   4.770
   74CHL1    C3 6583   1.384   4.340   3.166
   74CHL1    H3 6584   1.282   4.380   3.178
   74CHL1    O3 6585   1.411   4.318   3.025
   74CHL1   H3' 6586   1.503   4.289   3.028
   74CHL1    C4 6587   1.482   4.444   3.225
   74CHL1   H4A 6588   1.586   4.415   3.199
   74CHL1   H4B 6589   1.460   4.535   3.166
   74CHL1    C5 6590   1.464   4.463   3.380
   74CHL1    C6 6591   1.449   4.584   3.447
   74CHL1    H6 6592   1.435   4.679   3.393
   74CHL1    C7 6593   1.449   4.604   3.594
   74CHL1   H7A 6594   1.502   4.694   3.633
   74CHL1   H7B 6595   1.344   4.619   3.627
   74CHL1    C8 6596   1.501   4.478   3.672
   74CHL1    H8 6597   1.612   4.476   3.669
   74CHL1   C14 6598   1.441   4.476   3.810
   74CHL1   H14 6599   1.336   4.441   3.799
   74CHL1   C15 6600   1.422   4.605   3.892
   74CHL1  H15A 6601   1.502   4.681   3.882
   74CHL1  H15B 6602   1.329   4.655   3.858
   74CHL1   C16 6603   1.402   4.567   4.039
   74CHL1  H16A 6604   1.480   4.600   4.110
   74CHL1  H16B 6605   1.304   4.605   4.074
   74CHL1   C17 6606   1.410   4.412   4.037
   74CHL1   H17 6607   1.309   4.379   4.006
   74CHL1   C13 6608   1.489   4.371   3.908
   74CHL1   C18 6609   1.634   4.366   3.933
   74CHL1  H18A 6610   1.673   4.458   3.982
   74CHL1  H18B 6611   1.667   4.285   4.002
   74CHL1  H18C 6612   1.705   4.366   3.847
   74CHL1   C12 6613   1.446   4.234   3.838
   74CHL1  H12A 6614   1.485   4.152   3.902
   74CHL1  H12B 6615   1.336   4.219   3.843
   74CHL1   C11 6616   1.500   4.230   3.701
   74CHL1  H11A 6617   1.611   4.228   3.699
   74CHL1  H11B 6618   1.475   4.129   3.663
   74CHL1    C9 6619   1.454   4.347   3.610
   74CHL1    H9 6620   1.344   4.363   3.611
   74CHL1   C10 6621   1.491   4.335   3.461
   74CHL1   C19 6622   1.640   4.299   3.437
   74CHL1  H19A 6623   1.688   4.224   3.504
   74CHL1  H19B 6624   1.660   4.256   3.337
   74CHL1  H19C 6625   1.704   4.386   3.461
   74CHL1    C1 6626   1.394   4.227   3.401
   74CHL1   H1A 6627   1.413   4.130   3.451
   74CHL1   H1B 6628   1.293   4.260   3.435
   74CHL1    C2 6629   1.389   4.210   3.248
   74CHL1   H2A 6630   1.298   4.150   3.228
   74CHL1   H2B 6631   1.475   4.147   3.215
   74CHL1   C20 6632   1.438   4.345   4.176
   74CHL1   H20 6633   1.549   4.348   4.179
   74CHL1   C21 6634   1.386   4.189   4.185
   74CHL1  H21A 6635   1.415   4.142   4.089
   74CHL1  H21B 6636   1.276   4.192   4.203
   74CHL1  H21C 6637   1.438   4.136   4.267
   74CHL1   C22 6638   1.390   4.422   4.303
   74CHL1  H22A 6639   1.428   4.369   4.393
   74CHL1  H22B 6640   1.440   4.521   4.318
   74CHL1   C23 6641   1.235   4.441   4.317
   74CHL1  H23A 6642   1.195   4.503   4.234
   74CHL1  H23B 6643   1.176   4.348   4.303
   74CHL1   C24 6644   1.193   4.494   4.453
   74CHL1  H24A 6645   1.190   4.408   4.523
   74CHL1  H24B 6646   1.257   4.574   4.494
   74CHL1   C25 6647   1.043   4.549   4.455
   74CHL1   H25 6648   0.981   4.484   4.390
   74CHL1   C26 6649   0.978   4.570   4.592
   74CHL1  H26A 6650   0.944   4.471   4.629
   74CHL1  H26B 6651   1.055   4.627   4.649
   74CHL1  H26C 6652   0.884   4.628   4.578
   74CHL1   C27 6653   1.048   4.679   4.378
   74CHL1  H27A 6654   1.095   4.674   4.277
   74CHL1  H27B 6655   0.948   4.725   4.365
   74CHL1  H27C 6656   1.105   4.745   4.446
   75CHL1    C3 6657   1.312   3.189   2.931
   75CHL1    H3 6658   1.262   3.089   2.932
   75CHL1    O3 6659   1.359   3.215   2.801
   75CHL1   H3' 6660   1.395   3.303   2.796
   75CHL1    C4 6661   1.224   3.304   2.971
   75CHL1   H4A 6662   1.282   3.397   2.952
   75CHL1   H4B 6663   1.134   3.313   2.906
   75CHL1    C5 6664   1.179   3.285   3.118
   75CHL1    C6 6665   1.048   3.294   3.147
   75CHL1    H6 6666   0.968   3.312   3.074
   75CHL1    C7 6667   0.999   3.298   3.290
   75CHL1   H7A 6668   0.936   3.389   3.301
   75CHL1   H7B 6669   0.940   3.209   3.317
   75CHL1    C8 6670   1.110   3.315   3.397
   75CHL1    H8 6671   1.128   3.425   3.394
   75CHL1   C14 6672   1.063   3.290   3.533
   75CHL1   H14 6673   1.045   3.181   3.525
   75CHL1   C15 6674   0.924   3.350   3.581
   75CHL1  H15A 6675   0.919   3.453   3.540
   75CHL1  H15B 6676   0.841   3.284   3.546
   75CHL1   C16 6677   0.930   3.333   3.738
   75CHL1  H16A 6678   0.932   3.434   3.785
   75CHL1  H16B 6679   0.846   3.287   3.795
   75CHL1   C17 6680   1.074   3.279   3.764
   75CHL1   H17 6681   1.073   3.169   3.752
   75CHL1   C13 6682   1.161   3.323   3.645
   75CHL1   C18 6683   1.194   3.469   3.643
   75CHL1  H18A 6684   1.251   3.509   3.556
   75CHL1  H18B 6685   1.102   3.531   3.644
   75CHL1  H18C 6686   1.258   3.497   3.729
   75CHL1   C12 6687   1.286   3.241   3.629
   75CHL1  H12A 6688   1.364   3.273   3.701
   75CHL1  H12B 6689   1.271   3.131   3.638
   75CHL1   C11 6690   1.339   3.254   3.483
   75CHL1  H11A 6691   1.370   3.361   3.480
   75CHL1  H11B 6692   1.427   3.191   3.455
   75CHL1    C9 6693   1.239   3.236   3.364
   75CHL1    H9 6694   1.212   3.128   3.365
   75CHL1   C10 6695   1.287   3.271   3.217
   75CHL1   C19 6696   1.367   3.406   3.216
   75CHL1  H19A 6697   1.306   3.489   3.256
   75CHL1  H19B 6698   1.461   3.391   3.273
   75CHL1  H19C 6699   1.420   3.445   3.126
   75CHL1    C1 6700   1.379   3.156   3.171
   75CHL1   H1A 6701   1.458   3.142   3.247
   75CHL1   H1B 6702   1.327   3.058   3.182
   75CHL1    C2 6703   1.434   3.179   3.028
   75CHL1   H2A 6704   1.496   3.093   2.996
   75CHL1   H2B 6705   1.501   3.268   3.022
   75CHL1   C20 6706   1.125   3.302   3.912
   75CHL1   H20 6707   1.234   3.284   3.903
   75CHL1   C21 6708   1.076   3.195   4.006
   75CHL1  H21A 6709   1.095   3.092   3.971
   75CHL1  H21B 6710   0.966   3.211   4.008
   75CHL1  H21C 6711   1.115   3.214   4.108
   75CHL1   C22 6712   1.108   3.446   3.971
   75CHL1  H22A 6713   1.124   3.523   3.893
   75CHL1  H22B 6714   1.009   3.461   4.019
   75CHL1   C23 6715   1.206   3.475   4.089
   75CHL1  H23A 6716   1.188   3.405   4.173
   75CHL1  H23B 6717   1.307   3.451   4.049
   75CHL1   C24 6718   1.202   3.621   4.127
   75CHL1  H24A 6719   1.216   3.684   4.037
   75CHL1  H24B 6720   1.104   3.645   4.174
   75CHL1   C25 6721   1.321   3.664   4.216
   75CHL1   H25 6722   1.413   3.630   4.164
   75CHL1   C26 6723   1.326   3.817   4.233
   75CHL1  H26A 6724   1.411   3.850   4.296
   75CHL1  H26B 6725   1.342   3.875   4.140
   75CHL1  H26C 6726   1.238   3.861   4.284
   75CHL1   C27 6727   1.329   3.583   4.350
   75CHL1  H27A 6728   1.425   3.604   4.400
   75CHL1  H27B 6729   1.248   3.606   4.422
   75CHL1  H27C 6730   1.327   3.473   4.330
   76CHL1    C3 6731   6.773   4.968   2.864
   76CHL1    H3 6732   0.050   5.028   2.917
   76CHL1    O3 6733   0.001   4.955   2.724
   76CHL1   H3' 6734   0.096   4.940   2.731
   76CHL1    C4 6735   6.785   4.826   2.924
   76CHL1   H4A 6736   6.709   4.766   2.869
   76CHL1   H4B 6737   0.084   4.783   2.902
   76CHL1    C5 6738   6.760   4.833   3.072
   76CHL1    C6 6739   0.047   4.804   3.169
   76CHL1    H6 6740   0.143   4.762   3.133
   76CHL1    C7 6741   0.023   4.814   3.319
   76CHL1   H7A 6742   0.071   4.734   3.378
   76CHL1   H7B 6743   0.064   4.907   3.363
   76CHL1    C8 6744   6.678   4.815   3.362
   76CHL1    H8 6745   6.649   4.708   3.354
   76CHL1   C14 6746   6.658   4.858   3.510
   76CHL1   H14 6747   6.677   4.967   3.517
   76CHL1   C15 6748   6.745   4.803   3.626
   76CHL1  H15A 6749   6.746   4.692   3.625
   76CHL1  H15B 6750   0.045   4.848   3.639
   76CHL1   C16 6751   6.657   4.843   3.754
   76CHL1  H16A 6752   6.631   4.756   3.819
   76CHL1  H16B 6753   6.704   4.921   3.818
   76CHL1   C17 6754   6.522   4.898   3.701
   76CHL1   H17 6755   6.528   5.008   3.688
   76CHL1   C13 6756   6.509   4.860   3.554
   76CHL1   C18 6757   6.455   4.716   3.541
   76CHL1  H18A 6758   6.527   4.641   3.581
   76CHL1  H18B 6759   6.365   4.697   3.604
   76CHL1  H18C 6760   6.428   4.692   3.436
   76CHL1   C12 6761   6.437   4.949   3.465
   76CHL1  H12A 6762   6.327   4.953   3.481
   76CHL1  H12B 6763   6.470   5.054   3.475
   76CHL1   C11 6764   6.454   4.912   3.316
   76CHL1  H11A 6765   6.402   4.814   3.307
   76CHL1  H11B 6766   6.393   4.983   3.257
   76CHL1    C9 6767   6.603   4.905   3.266
   76CHL1    H9 6768   6.638   5.009   3.286
   76CHL1   C10 6769   6.621   4.877   3.110
   76CHL1   C19 6770   6.520   4.764   3.060
   76CHL1  H19A 6771   6.418   4.809   3.070
   76CHL1  H19B 6772   6.532   4.739   2.952
   76CHL1  H19C 6773   6.537   4.673   3.121
   76CHL1    C1 6774   6.589   5.006   3.034
   76CHL1   H1A 6775   6.485   5.037   3.055
   76CHL1   H1B 6776   6.658   5.081   3.079
   76CHL1    C2 6777   6.625   5.009   2.890
   76CHL1   H2A 6778   6.605   5.106   2.840
   76CHL1   H2B 6779   6.546   4.951   2.839
   76CHL1   C20 6780   6.405   4.883   3.807
   76CHL1   H20 6781   6.383   4.775   3.821
   76CHL1   C21 6782   6.278   4.949   3.762
   76CHL1  H21A 6783   6.284   5.059   3.746
   76CHL1  H21B 6784   6.202   4.925   3.839
   76CHL1  H21C 6785   6.245   4.903   3.667
   76CHL1   C22 6786   6.451   4.932   3.945
   76CHL1  H22A 6787   6.547   4.895   3.987
   76CHL1  H22B 6788   6.457   5.043   3.938
   76CHL1   C23 6789   6.350   4.899   4.058
   76CHL1  H23A 6790   6.251   4.947   4.042
   76CHL1  H23B 6791   6.326   4.790   4.062
   76CHL1   C24 6792   6.396   4.954   4.196
   76CHL1  H24A 6793   6.495   4.904   4.204
   76CHL1  H24B 6794   6.388   5.064   4.178
   76CHL1   C25 6795   6.313   4.913   4.317
   76CHL1   H25 6796   6.311   4.803   4.308
   76CHL1   C26 6797   6.394   4.953   4.442
   76CHL1  H26A 6798   6.497   4.912   4.447
   76CHL1  H26B 6799   6.410   5.063   4.448
   76CHL1  H26C 6800   6.339   4.918   4.532
   76CHL1   C27 6801   6.171   4.975   4.310
   76CHL1  H27A 6802   6.170   5.086   4.319
   76CHL1  H27B 6803   6.117   4.954   4.215
   76CHL1  H27C 6804   6.116   4.934   4.398
   77SOPE     N 6805   3.195   2.771   6.762
   77SOPE   HN1 6806   3.224   2.784   6.861
   77SOPE   HN2 6807   3.151   2.862   6.738
   77SOPE   HN3 6808   3.119   2.702   6.748
   77SOPE   C12 6809   3.308   2.747   6.672
   77SOPE  H12A 6810   3.264   2.749   6.570
   77SOPE  H12B 6811   3.342   2.643   6.690
   77SOPE   C11 6812   3.414   2.864   6.676
   77SOPE  H11A 6813   3.490   2.854   6.595
   77SOPE  H11B 6814   3.478   2.840   6.764
   77SOPE     P 6815   3.460   3.116   6.690
   77SOPE   O13 6816   3.577   3.097   6.777
   77SOPE   O14 6817   3.374   3.235   6.718
   77SOPE   O12 6818   3.360   2.995   6.693
   77SOPE   O11 6819   3.509   3.121   6.538
   77SOPE    C1 6820   3.403   3.183   6.455
   77SOPE    HA 6821   3.389   3.291   6.479
   77SOPE    HB 6822   3.301   3.140   6.458
   77SOPE    C2 6823   3.449   3.175   6.309
   77SOPE    HS 6824   3.359   3.199   6.249
   77SOPE   O21 6825   3.497   3.048   6.270
   77SOPE   C21 6826   3.414   2.946   6.262
   77SOPE   O22 6827   3.293   2.953   6.274
   77SOPE   C22 6828   3.500   2.823   6.228
   77SOPE   H2R 6829   3.490   2.775   6.328
   77SOPE   H2S 6830   3.607   2.849   6.209
   77SOPE    C3 6831   3.547   3.290   6.274
   77SOPE    HX 6832   3.653   3.274   6.306
   77SOPE    HY 6833   3.510   3.385   6.318
   77SOPE   O31 6834   3.543   3.314   6.134
   77SOPE   C31 6835   3.643   3.258   6.057
   77SOPE   O32 6836   3.732   3.187   6.103
   77SOPE   C32 6837   3.648   3.305   5.913
   77SOPE   H2X 6838   3.556   3.355   5.876
   77SOPE   H2Y 6839   3.640   3.209   5.857
   77SOPE   C23 6840   3.433   2.742   6.114
   77SOPE   H3R 6841   3.324   2.731   6.132
   77SOPE   H3S 6842   3.471   2.638   6.119
   77SOPE   C24 6843   3.465   2.794   5.972
   77SOPE   H4R 6844   3.569   2.832   5.970
   77SOPE   H4S 6845   3.456   2.703   5.909
   77SOPE   C25 6846   3.368   2.900   5.918
   77SOPE   H5R 6847   3.269   2.852   5.903
   77SOPE   H5S 6848   3.362   2.971   6.003
   77SOPE   C26 6849   3.410   2.980   5.792
   77SOPE   H6R 6850   3.343   3.069   5.784
   77SOPE   H6S 6851   3.511   3.022   5.810
   77SOPE   C27 6852   3.411   2.889   5.666
   77SOPE   H7R 6853   3.506   2.834   5.675
   77SOPE   H7S 6854   3.315   2.832   5.663
   77SOPE   C28 6855   3.419   2.958   5.528
   77SOPE   H8R 6856   3.351   3.045   5.528
   77SOPE   H8S 6857   3.519   3.006   5.524
   77SOPE   C29 6858   3.377   2.861   5.419
   77SOPE   H91 6859   3.370   2.759   5.461
   77SOPE  C210 6860   3.366   2.887   5.286
   77SOPE  H101 6861   3.324   2.808   5.222
   77SOPE  C211 6862   3.399   3.018   5.215
   77SOPE  H11R 6863   3.427   3.097   5.288
   77SOPE  H11S 6864   3.316   3.067   5.162
   77SOPE  C212 6865   3.509   3.024   5.105
   77SOPE  H12R 6866   3.600   3.001   5.165
   77SOPE  H12S 6867   3.529   3.130   5.079
   77SOPE  C213 6868   3.499   2.937   4.980
   77SOPE  H13R 6869   3.493   2.831   5.014
   77SOPE  H13S 6870   3.588   2.956   4.917
   77SOPE  C214 6871   3.372   2.965   4.889
   77SOPE  H14R 6872   3.287   2.942   4.957
   77SOPE  H14S 6873   3.375   2.884   4.814
   77SOPE  C215 6874   3.370   3.104   4.826
   77SOPE  H15R 6875   3.469   3.129   4.781
   77SOPE  H15S 6876   3.360   3.188   4.898
   77SOPE  C216 6877   3.249   3.111   4.721
   77SOPE  H16R 6878   3.260   3.024   4.653
   77SOPE  H16S 6879   3.275   3.204   4.666
   77SOPE  C217 6880   3.106   3.131   4.768
   77SOPE  H17R 6881   3.100   3.209   4.846
   77SOPE  H17S 6882   3.089   3.040   4.828
   77SOPE  C218 6883   2.999   3.158   4.657
   77SOPE  H18R 6884   3.031   3.236   4.584
   77SOPE  H18S 6885   2.901   3.185   4.702
   77SOPE  H18T 6886   2.966   3.061   4.615
   77SOPE   C33 6887   3.770   3.391   5.873
   77SOPE   H3X 6888   3.849   3.357   5.944
   77SOPE   H3Y 6889   3.751   3.498   5.892
   77SOPE   C34 6890   3.809   3.366   5.733
   77SOPE   H4X 6891   3.787   3.262   5.700
   77SOPE   H4Y 6892   3.915   3.388   5.707
   77SOPE   C35 6893   3.738   3.462   5.634
   77SOPE   H5X 6894   3.784   3.563   5.632
   77SOPE   H5Y 6895   3.637   3.495   5.667
   77SOPE   C36 6896   3.725   3.397   5.500
   77SOPE   H6X 6897   3.675   3.297   5.497
   77SOPE   H6Y 6898   3.824   3.375   5.456
   77SOPE   C37 6899   3.654   3.483   5.398
   77SOPE   H7X 6900   3.669   3.589   5.428
   77SOPE   H7Y 6901   3.546   3.457   5.404
   77SOPE   C38 6902   3.715   3.463   5.263
   77SOPE   H8X 6903   3.700   3.362   5.219
   77SOPE   H8Y 6904   3.823   3.482   5.281
   77SOPE   C39 6905   3.671   3.565   5.161
   77SOPE   H9X 6906   3.667   3.667   5.204
   77SOPE   H9Y 6907   3.565   3.543   5.134
   77SOPE  C310 6908   3.763   3.578   5.036
   77SOPE  H10X 6909   3.783   3.481   4.985
   77SOPE  H10Y 6910   3.863   3.615   5.068
   77SOPE  C311 6911   3.713   3.685   4.926
   77SOPE  H11X 6912   3.663   3.776   4.965
   77SOPE  H11Y 6913   3.638   3.632   4.864
   77SOPE  C312 6914   3.825   3.726   4.829
   77SOPE  H12X 6915   3.916   3.756   4.884
   77SOPE  H12Y 6916   3.778   3.811   4.776
   77SOPE  C313 6917   3.862   3.615   4.724
   77SOPE  H13X 6918   3.783   3.607   4.646
   77SOPE  H13Y 6919   3.875   3.514   4.768
   77SOPE  C314 6920   3.995   3.644   4.653
   77SOPE  H14X 6921   4.016   3.559   4.585
   77SOPE  H14Y 6922   4.076   3.657   4.728
   77SOPE  C315 6923   3.974   3.772   4.571
   77SOPE  H15X 6924   3.960   3.845   4.654
   77SOPE  H15Y 6925   3.878   3.769   4.516
   77SOPE  C316 6926   4.087   3.822   4.481
   77SOPE  H16X 6927   4.174   3.810   4.548
   77SOPE  H16Y 6928   4.073   3.929   4.455
   77SOPE  C317 6929   4.101   3.751   4.347
   77SOPE  H17X 6930   4.121   3.642   4.362
   77SOPE  H17Y 6931   4.189   3.790   4.293
   77SOPE  C318 6932   3.974   3.774   4.252
   77SOPE  H18X 6933   3.964   3.877   4.210
   77SOPE  H18Y 6934   3.878   3.749   4.303
   77SOPE  H18Z 6935   3.978   3.700   4.170
   78SOPE     N 6936   2.858   3.685   6.576
   78SOPE   HN1 6937   2.876   3.786   6.591
   78SOPE   HN2 6938   2.805   3.643   6.656
   78SOPE   HN3 6939   2.955   3.648   6.583
   78SOPE   C12 6940   2.795   3.662   6.448
   78SOPE  H12A 6941   2.870   3.692   6.371
   78SOPE  H12B 6942   2.706   3.728   6.457
   78SOPE   C11 6943   2.756   3.511   6.435
   78SOPE  H11A 6944   2.844   3.443   6.432
   78SOPE  H11B 6945   2.703   3.479   6.343
   78SOPE     P 6946   2.637   3.326   6.572
   78SOPE   O13 6947   2.526   3.326   6.668
   78SOPE   O14 6948   2.756   3.252   6.607
   78SOPE   O12 6949   2.672   3.478   6.543
   78SOPE   O11 6950   2.582   3.269   6.437
   78SOPE    C1 6951   2.467   3.326   6.374
   78SOPE    HA 6952   2.476   3.436   6.379
   78SOPE    HB 6953   2.373   3.291   6.421
   78SOPE    C2 6954   2.472   3.286   6.225
   78SOPE    HS 6955   2.499   3.178   6.226
   78SOPE   O21 6956   2.575   3.365   6.160
   78SOPE   C21 6957   2.633   3.299   6.063
   78SOPE   O22 6958   2.598   3.188   6.026
   78SOPE   C22 6959   2.755   3.375   6.015
   78SOPE   H2R 6960   2.828   3.354   6.097
   78SOPE   H2S 6961   2.735   3.484   6.015
   78SOPE    C3 6962   2.332   3.293   6.161
   78SOPE    HX 6963   2.277   3.381   6.200
   78SOPE    HY 6964   2.269   3.212   6.202
   78SOPE   O31 6965   2.338   3.306   6.020
   78SOPE   C31 6966   2.292   3.201   5.949
   78SOPE   O32 6967   2.222   3.113   5.988
   78SOPE   C32 6968   2.345   3.227   5.804
   78SOPE   H2X 6969   2.454   3.238   5.816
   78SOPE   H2Y 6970   2.289   3.315   5.764
   78SOPE   C23 6971   2.824   3.324   5.879
   78SOPE   H3R 6972   2.807   3.215   5.869
   78SOPE   H3S 6973   2.933   3.329   5.858
   78SOPE   C24 6974   2.757   3.385   5.757
   78SOPE   H4R 6975   2.649   3.394   5.785
   78SOPE   H4S 6976   2.800   3.487   5.758
   78SOPE   C25 6977   2.780   3.304   5.633
   78SOPE   H5R 6978   2.891   3.301   5.626
   78SOPE   H5S 6979   2.746   3.201   5.658
   78SOPE   C26 6980   2.727   3.357   5.506
   78SOPE   H6R 6981   2.616   3.357   5.510
   78SOPE   H6S 6982   2.756   3.460   5.477
   78SOPE   C27 6983   2.775   3.270   5.378
   78SOPE   H7R 6984   2.886   3.271   5.376
   78SOPE   H7S 6985   2.743   3.165   5.391
   78SOPE   C28 6986   2.731   3.330   5.247
   78SOPE   H8R 6987   2.621   3.338   5.254
   78SOPE   H8S 6988   2.752   3.440   5.251
   78SOPE   C29 6989   2.768   3.265   5.113
   78SOPE   H91 6990   2.872   3.285   5.083
   78SOPE  C210 6991   2.691   3.196   5.021
   78SOPE  H101 6992   2.737   3.156   4.930
   78SOPE  C211 6993   2.542   3.180   5.028
   78SOPE  H11R 6994   2.500   3.257   5.096
   78SOPE  H11S 6995   2.522   3.081   5.076
   78SOPE  C212 6996   2.471   3.175   4.894
   78SOPE  H12R 6997   2.477   3.265   4.829
   78SOPE  H12S 6998   2.364   3.158   4.916
   78SOPE  C213 6999   2.509   3.051   4.802
   78SOPE  H13R 7000   2.414   3.007   4.764
   78SOPE  H13S 7001   2.551   2.967   4.861
   78SOPE  C214 7002   2.608   3.072   4.689
   78SOPE  H14R 7003   2.633   2.971   4.649
   78SOPE  H14S 7004   2.701   3.115   4.731
   78SOPE  C215 7005   2.545   3.151   4.574
   78SOPE  H15R 7006   2.488   3.239   4.613
   78SOPE  H15S 7007   2.473   3.097   4.509
   78SOPE  C216 7008   2.654   3.203   4.483
   78SOPE  H16R 7009   2.693   3.120   4.419
   78SOPE  H16S 7010   2.734   3.250   4.543
   78SOPE  C217 7011   2.613   3.318   4.393
   78SOPE  H17R 7012   2.581   3.410   4.445
   78SOPE  H17S 7013   2.514   3.286   4.354
   78SOPE  C218 7014   2.699   3.346   4.274
   78SOPE  H18R 7015   2.774   3.424   4.298
   78SOPE  H18S 7016   2.646   3.374   4.180
   78SOPE  H18T 7017   2.760   3.257   4.252
   78SOPE   C33 7018   2.316   3.105   5.714
   78SOPE   H3X 7019   2.206   3.089   5.708
   78SOPE   H3Y 7020   2.344   3.006   5.756
   78SOPE   C34 7021   2.363   3.134   5.564
   78SOPE   H4X 7022   2.473   3.132   5.579
   78SOPE   H4Y 7023   2.336   3.236   5.529
   78SOPE   C35 7024   2.313   3.027   5.468
   78SOPE   H5X 7025   2.203   3.037   5.456
   78SOPE   H5Y 7026   2.312   2.924   5.510
   78SOPE   C36 7027   2.376   3.047   5.329
   78SOPE   H6X 7028   2.487   3.052   5.333
   78SOPE   H6Y 7029   2.342   3.143   5.285
   78SOPE   C37 7030   2.340   2.930   5.246
   78SOPE   H7X 7031   2.389   2.834   5.270
   78SOPE   H7Y 7032   2.370   2.950   5.141
   78SOPE   C38 7033   2.187   2.910   5.242
   78SOPE   H8X 7034   2.149   3.014   5.236
   78SOPE   H8Y 7035   2.147   2.871   5.337
   78SOPE   C39 7036   2.149   2.825   5.120
   78SOPE   H9X 7037   2.051   2.780   5.148
   78SOPE   H9Y 7038   2.221   2.744   5.094
   78SOPE  C310 7039   2.134   2.894   4.987
   78SOPE  H10X 7040   2.224   2.954   4.960
   78SOPE  H10Y 7041   2.053   2.969   4.999
   78SOPE  C311 7042   2.102   2.793   4.873
   78SOPE  H11X 7043   2.013   2.729   4.893
   78SOPE  H11Y 7044   2.185   2.719   4.867
   78SOPE  C312 7045   2.077   2.858   4.735
   78SOPE  H12X 7046   2.163   2.922   4.705
   78SOPE  H12Y 7047   1.982   2.915   4.727
   78SOPE  C313 7048   2.074   2.757   4.628
   78SOPE  H13X 7049   1.989   2.694   4.664
   78SOPE  H13Y 7050   2.167   2.698   4.630
   78SOPE  C314 7051   2.063   2.820   4.481
   78SOPE  H14X 7052   2.150   2.887   4.471
   78SOPE  H14Y 7053   1.975   2.888   4.485
   78SOPE  C315 7054   2.048   2.729   4.357
   78SOPE  H15X 7055   1.954   2.673   4.374
   78SOPE  H15Y 7056   2.135   2.659   4.357
   78SOPE  C316 7057   2.030   2.798   4.218
   78SOPE  H16X 7058   2.119   2.864   4.215
   78SOPE  H16Y 7059   1.945   2.870   4.218
   78SOPE  C317 7060   2.039   2.703   4.099
   78SOPE  H17X 7061   1.952   2.634   4.091
   78SOPE  H17Y 7062   2.123   2.636   4.129
   78SOPE  C318 7063   2.061   2.772   3.961
   78SOPE  H18X 7064   2.152   2.832   3.979
   78SOPE  H18Y 7065   1.984   2.853   3.964
   78SOPE  H18Z 7066   2.065   2.717   3.865
   79SOPE     N 7067   4.949   1.392   6.521
   79SOPE   HN1 7068   4.924   1.458   6.445
   79SOPE   HN2 7069   5.017   1.438   6.584
   79SOPE   HN3 7070   4.998   1.309   6.482
   79SOPE   C12 7071   4.845   1.341   6.619
   79SOPE  H12A 7072   4.760   1.314   6.553
   79SOPE  H12B 7073   4.821   1.431   6.679
   79SOPE   C11 7074   4.889   1.232   6.715
   79SOPE  H11A 7075   4.814   1.221   6.795
   79SOPE  H11B 7076   4.981   1.266   6.767
   79SOPE     P 7077   4.842   1.000   6.608
   79SOPE   O13 7078   4.781   0.964   6.742
   79SOPE   O14 7079   4.922   0.895   6.544
   79SOPE   O12 7080   4.935   1.118   6.639
   79SOPE   O11 7081   4.747   1.060   6.501
   79SOPE    C1 7082   4.789   1.082   6.362
   79SOPE    HA 7083   4.876   1.019   6.333
   79SOPE    HB 7084   4.837   1.181   6.350
   79SOPE    C2 7085   4.678   1.054   6.257
   79SOPE    HS 7086   4.593   1.096   6.315
   79SOPE   O21 7087   4.665   0.913   6.244
   79SOPE   C21 7088   4.546   0.856   6.242
   79SOPE   O22 7089   4.443   0.931   6.263
   79SOPE   C22 7090   4.548   0.709   6.211
   79SOPE   H2R 7091   4.524   0.649   6.301
   79SOPE   H2S 7092   4.645   0.681   6.165
   79SOPE    C3 7093   4.719   1.127   6.124
   79SOPE    HX 7094   4.824   1.102   6.098
   79SOPE    HY 7095   4.723   1.237   6.138
   79SOPE   O31 7096   4.641   1.088   6.009
   79SOPE   C31 7097   4.522   1.135   6.010
   79SOPE   O32 7098   4.472   1.221   6.083
   79SOPE   C32 7099   4.451   1.087   5.885
   79SOPE   H2X 7100   4.348   1.129   5.888
   79SOPE   H2Y 7101   4.449   0.976   5.891
   79SOPE   C23 7102   4.450   0.671   6.091
   79SOPE   H3R 7103   4.351   0.723   6.098
   79SOPE   H3S 7104   4.440   0.561   6.095
   79SOPE   C24 7105   4.529   0.694   5.963
   79SOPE   H4R 7106   4.563   0.800   5.960
   79SOPE   H4S 7107   4.617   0.629   5.947
   79SOPE   C25 7108   4.429   0.673   5.847
   79SOPE   H5R 7109   4.379   0.574   5.854
   79SOPE   H5S 7110   4.351   0.752   5.857
   79SOPE   C26 7111   4.483   0.691   5.703
   79SOPE   H6R 7112   4.516   0.795   5.682
   79SOPE   H6S 7113   4.570   0.623   5.698
   79SOPE   C27 7114   4.372   0.652   5.599
   79SOPE   H7R 7115   4.367   0.541   5.605
   79SOPE   H7S 7116   4.279   0.691   5.647
   79SOPE   C28 7117   4.402   0.701   5.458
   79SOPE   H8R 7118   4.303   0.705   5.408
   79SOPE   H8S 7119   4.432   0.808   5.463
   79SOPE   C29 7120   4.491   0.620   5.368
   79SOPE   H91 7121   4.481   0.511   5.368
   79SOPE  C210 7122   4.601   0.659   5.300
   79SOPE  H101 7123   4.642   0.590   5.225
   79SOPE  C211 7124   4.647   0.807   5.288
   79SOPE  H11R 7125   4.756   0.810   5.311
   79SOPE  H11S 7126   4.593   0.873   5.360
   79SOPE  C212 7127   4.628   0.857   5.146
   79SOPE  H12R 7128   4.690   0.813   5.065
   79SOPE  H12S 7129   4.677   0.956   5.144
   79SOPE  C213 7130   4.485   0.865   5.088
   79SOPE  H13R 7131   4.422   0.917   5.163
   79SOPE  H13S 7132   4.448   0.760   5.086
   79SOPE  C214 7133   4.462   0.945   4.960
   79SOPE  H14R 7134   4.531   0.906   4.882
   79SOPE  H14S 7135   4.486   1.053   4.964
   79SOPE  C215 7136   4.319   0.925   4.891
   79SOPE  H15R 7137   4.229   0.948   4.952
   79SOPE  H15S 7138   4.315   0.816   4.867
   79SOPE  C216 7139   4.298   1.004   4.758
   79SOPE  H16R 7140   4.243   0.938   4.688
   79SOPE  H16S 7141   4.393   1.022   4.704
   79SOPE  C217 7142   4.239   1.139   4.778
   79SOPE  H17R 7143   4.319   1.205   4.818
   79SOPE  H17S 7144   4.157   1.141   4.853
   79SOPE  C218 7145   4.182   1.204   4.647
   79SOPE  H18R 7146   4.121   1.127   4.594
   79SOPE  H18S 7147   4.260   1.226   4.571
   79SOPE  H18T 7148   4.113   1.288   4.670
   79SOPE   C33 7149   4.497   1.126   5.742
   79SOPE   H3X 7150   4.601   1.094   5.722
   79SOPE   H3Y 7151   4.498   1.237   5.742
   79SOPE   C34 7152   4.396   1.086   5.633
   79SOPE   H4X 7153   4.297   1.137   5.638
   79SOPE   H4Y 7154   4.383   0.976   5.636
   79SOPE   C35 7155   4.467   1.115   5.498
   79SOPE   H5X 7156   4.412   1.063   5.417
   79SOPE   H5Y 7157   4.574   1.086   5.504
   79SOPE   C36 7158   4.476   1.267   5.468
   79SOPE   H6X 7159   4.525   1.322   5.551
   79SOPE   H6Y 7160   4.377   1.317   5.460
   79SOPE   C37 7161   4.563   1.300   5.337
   79SOPE   H7X 7162   4.534   1.406   5.319
   79SOPE   H7Y 7163   4.532   1.229   5.258
   79SOPE   C38 7164   4.722   1.291   5.346
   79SOPE   H8X 7165   4.724   1.181   5.363
   79SOPE   H8Y 7166   4.766   1.354   5.426
   79SOPE   C39 7167   4.789   1.322   5.215
   79SOPE   H9X 7168   4.764   1.427   5.190
   79SOPE   H9Y 7169   4.747   1.249   5.143
   79SOPE  C310 7170   4.943   1.314   5.216
   79SOPE  H10X 7171   4.954   1.220   5.274
   79SOPE  H10Y 7172   4.988   1.396   5.275
   79SOPE  C311 7173   5.002   1.288   5.076
   79SOPE  H11X 7174   4.932   1.226   5.016
   79SOPE  H11Y 7175   5.106   1.253   5.092
   79SOPE  C312 7176   5.019   1.421   4.997
   79SOPE  H12X 7177   5.080   1.490   5.059
   79SOPE  H12Y 7178   4.916   1.461   4.997
   79SOPE  C313 7179   5.070   1.394   4.856
   79SOPE  H13X 7180   5.014   1.316   4.800
   79SOPE  H13Y 7181   5.174   1.356   4.858
   79SOPE  C314 7182   5.070   1.522   4.770
   79SOPE  H14X 7183   5.096   1.611   4.831
   79SOPE  H14Y 7184   4.964   1.526   4.739
   79SOPE  C315 7185   5.165   1.511   4.651
   79SOPE  H15X 7186   5.272   1.534   4.670
   79SOPE  H15Y 7187   5.149   1.601   4.586
   79SOPE  C316 7188   5.156   1.389   4.570
   79SOPE  H16X 7189   5.052   1.372   4.535
   79SOPE  H16Y 7190   5.198   1.309   4.634
   79SOPE  C317 7191   5.248   1.381   4.450
   79SOPE  H17X 7192   5.219   1.448   4.366
   79SOPE  H17Y 7193   5.224   1.280   4.410
   79SOPE  C318 7194   5.393   1.395   4.496
   79SOPE  H18X 7195   5.414   1.500   4.526
   79SOPE  H18Y 7196   5.457   1.377   4.407
   79SOPE  H18Z 7197   5.412   1.323   4.578
   80SOPE     N 7198   1.559   2.858   6.382
   80SOPE   HN1 7199   1.540   2.758   6.400
   80SOPE   HN2 7200   1.572   2.881   6.282
   80SOPE   HN3 7201   1.646   2.886   6.431
   80SOPE   C12 7202   1.455   2.955   6.430
   80SOPE  H12A 7203   1.418   2.917   6.528
   80SOPE  H12B 7204   1.369   2.953   6.360
   80SOPE   C11 7205   1.512   3.096   6.416
   80SOPE  H11A 7206   1.443   3.173   6.455
   80SOPE  H11B 7207   1.528   3.123   6.309
   80SOPE     P 7208   1.665   3.170   6.618
   80SOPE   O13 7209   1.807   3.166   6.655
   80SOPE   O14 7210   1.571   3.120   6.719
   80SOPE   O12 7211   1.644   3.098   6.476
   80SOPE   O11 7212   1.633   3.317   6.587
   80SOPE    C1 7213   1.713   3.425   6.547
   80SOPE    HA 7214   1.813   3.427   6.596
   80SOPE    HB 7215   1.664   3.519   6.581
   80SOPE    C2 7216   1.737   3.437   6.402
   80SOPE    HS 7217   1.770   3.540   6.375
   80SOPE   O21 7218   1.622   3.383   6.333
   80SOPE   C21 7219   1.550   3.482   6.275
   80SOPE   O22 7220   1.566   3.601   6.300
   80SOPE   C22 7221   1.442   3.423   6.185
   80SOPE   H2R 7222   1.372   3.505   6.158
   80SOPE   H2S 7223   1.379   3.360   6.251
   80SOPE    C3 7224   1.850   3.345   6.356
   80SOPE    HX 7225   1.800   3.246   6.349
   80SOPE    HY 7226   1.931   3.324   6.429
   80SOPE   O31 7227   1.895   3.385   6.225
   80SOPE   C31 7228   1.908   3.292   6.133
   80SOPE   O32 7229   1.883   3.172   6.141
   80SOPE   C32 7230   1.953   3.370   6.007
   80SOPE   H2X 7231   2.057   3.403   6.026
   80SOPE   H2Y 7232   1.892   3.462   6.007
   80SOPE   C23 7233   1.491   3.342   6.063
   80SOPE   H3R 7234   1.418   3.264   6.031
   80SOPE   H3S 7235   1.588   3.290   6.074
   80SOPE   C24 7236   1.527   3.438   5.941
   80SOPE   H4R 7237   1.460   3.527   5.943
   80SOPE   H4S 7238   1.630   3.473   5.961
   80SOPE   C25 7239   1.509   3.358   5.805
   80SOPE   H5R 7240   1.598   3.294   5.783
   80SOPE   H5S 7241   1.420   3.293   5.799
   80SOPE   C26 7242   1.498   3.453   5.687
   80SOPE   H6R 7243   1.404   3.509   5.702
   80SOPE   H6S 7244   1.581   3.526   5.698
   80SOPE   C27 7245   1.511   3.379   5.551
   80SOPE   H7R 7246   1.618   3.357   5.531
   80SOPE   H7S 7247   1.458   3.281   5.554
   80SOPE   C28 7248   1.448   3.459   5.432
   80SOPE   H8R 7249   1.436   3.389   5.347
   80SOPE   H8S 7250   1.342   3.479   5.455
   80SOPE   C29 7251   1.536   3.580   5.411
   80SOPE   H91 7252   1.519   3.657   5.487
   80SOPE  C210 7253   1.645   3.580   5.323
   80SOPE  H101 7254   1.710   3.668   5.335
   80SOPE  C211 7255   1.683   3.474   5.226
   80SOPE  H11R 7256   1.588   3.419   5.208
   80SOPE  H11S 7257   1.759   3.409   5.275
   80SOPE  C212 7258   1.743   3.540   5.099
   80SOPE  H12R 7259   1.756   3.467   5.016
   80SOPE  H12S 7260   1.846   3.578   5.118
   80SOPE  C213 7261   1.653   3.656   5.046
   80SOPE  H13R 7262   1.646   3.732   5.127
   80SOPE  H13S 7263   1.546   3.628   5.036
   80SOPE  C214 7264   1.710   3.720   4.919
   80SOPE  H14R 7265   1.718   3.636   4.846
   80SOPE  H14S 7266   1.805   3.772   4.945
   80SOPE  C215 7267   1.604   3.823   4.866
   80SOPE  H15R 7268   1.579   3.895   4.947
   80SOPE  H15S 7269   1.506   3.774   4.847
   80SOPE  C216 7270   1.651   3.901   4.741
   80SOPE  H16R 7271   1.740   3.847   4.703
   80SOPE  H16S 7272   1.685   4.000   4.778
   80SOPE  C217 7273   1.530   3.922   4.650
   80SOPE  H17R 7274   1.433   3.955   4.692
   80SOPE  H17S 7275   1.507   3.818   4.617
   80SOPE  C218 7276   1.556   4.008   4.526
   80SOPE  H18R 7277   1.463   4.044   4.477
   80SOPE  H18S 7278   1.598   3.941   4.448
   80SOPE  H18T 7279   1.626   4.093   4.544
   80SOPE   C33 7280   1.932   3.303   5.874
   80SOPE   H3X 7281   1.825   3.278   5.861
   80SOPE   H3Y 7282   1.998   3.217   5.852
   80SOPE   C34 7283   1.957   3.405   5.762
   80SOPE   H4X 7284   2.035   3.478   5.792
   80SOPE   H4Y 7285   1.858   3.451   5.740
   80SOPE   C35 7286   1.991   3.342   5.628
   80SOPE   H5X 7287   1.903   3.281   5.597
   80SOPE   H5Y 7288   2.080   3.277   5.640
   80SOPE   C36 7289   2.014   3.432   5.506
   80SOPE   H6X 7290   2.105   3.490   5.532
   80SOPE   H6Y 7291   1.934   3.504   5.481
   80SOPE   C37 7292   2.043   3.345   5.380
   80SOPE   H7X 7293   1.950   3.287   5.361
   80SOPE   H7Y 7294   2.121   3.269   5.405
   80SOPE   C38 7295   2.092   3.417   5.259
   80SOPE   H8X 7296   2.184   3.475   5.280
   80SOPE   H8Y 7297   2.016   3.495   5.236
   80SOPE   C39 7298   2.109   3.328   5.144
   80SOPE   H9X 7299   2.015   3.287   5.103
   80SOPE   H9Y 7300   2.165   3.235   5.169
   80SOPE  C310 7301   2.184   3.388   5.021
   80SOPE  H10X 7302   2.190   3.314   4.938
   80SOPE  H10Y 7303   2.290   3.414   5.043
   80SOPE  C311 7304   2.124   3.526   4.966
   80SOPE  H11X 7305   2.154   3.607   5.035
   80SOPE  H11Y 7306   2.014   3.509   4.969
   80SOPE  C312 7307   2.173   3.565   4.829
   80SOPE  H12X 7308   2.137   3.487   4.759
   80SOPE  H12Y 7309   2.283   3.570   4.837
   80SOPE  C313 7310   2.113   3.686   4.754
   80SOPE  H13X 7311   2.117   3.766   4.831
   80SOPE  H13Y 7312   2.004   3.678   4.735
   80SOPE  C314 7313   2.208   3.732   4.644
   80SOPE  H14X 7314   2.314   3.724   4.677
   80SOPE  H14Y 7315   2.169   3.833   4.618
   80SOPE  C315 7316   2.198   3.656   4.516
   80SOPE  H15X 7317   2.094   3.639   4.483
   80SOPE  H15Y 7318   2.258   3.563   4.508
   80SOPE  C316 7319   2.257   3.728   4.397
   80SOPE  H16X 7320   2.364   3.748   4.418
   80SOPE  H16Y 7321   2.193   3.818   4.378
   80SOPE  C317 7322   2.254   3.633   4.277
   80SOPE  H17X 7323   2.149   3.635   4.240
   80SOPE  H17Y 7324   2.280   3.525   4.288
   80SOPE  C318 7325   2.338   3.683   4.162
   80SOPE  H18X 7326   2.324   3.624   4.068
   80SOPE  H18Y 7327   2.442   3.656   4.187
   80SOPE  H18Z 7328   2.323   3.787   4.126
   81SOPE     N 7329   4.731   0.014   6.707
   81SOPE   HN1 7330   4.706   6.718   6.737
   81SOPE   HN2 7331   4.642   0.067   6.708
   81SOPE   HN3 7332   4.772   0.018   6.612
   81SOPE   C12 7333   4.810   0.093   6.802
   81SOPE  H12A 7334   4.901   0.039   6.836
   81SOPE  H12B 7335   4.747   0.108   6.893
   81SOPE   C11 7336   4.833   0.236   6.745
   81SOPE  H11A 7337   4.881   0.229   6.645
   81SOPE  H11B 7338   4.909   0.292   6.804
   81SOPE     P 7339   4.706   0.459   6.713
   81SOPE   O13 7340   4.790   0.507   6.823
   81SOPE   O14 7341   4.569   0.510   6.714
   81SOPE   O12 7342   4.707   0.305   6.727
   81SOPE   O11 7343   4.791   0.483   6.574
   81SOPE    C1 7344   4.746   0.416   6.460
   81SOPE    HA 7345   4.668   0.474   6.407
   81SOPE    HB 7346   4.695   0.321   6.485
   81SOPE    C2 7347   4.856   0.386   6.355
   81SOPE    HS 7348   4.942   0.334   6.404
   81SOPE   O21 7349   4.896   0.515   6.307
   81SOPE   C21 7350   4.996   0.529   6.230
   81SOPE   O22 7351   5.092   0.453   6.226
   81SOPE   C22 7352   4.987   0.653   6.133
   81SOPE   H2R 7353   5.074   0.722   6.140
   81SOPE   H2S 7354   4.895   0.706   6.164
   81SOPE    C3 7355   4.800   0.298   6.239
   81SOPE    HX 7356   4.713   0.360   6.210
   81SOPE    HY 7357   4.767   0.197   6.273
   81SOPE   O31 7358   4.886   0.290   6.129
   81SOPE   C31 7359   4.963   0.187   6.131
   81SOPE   O32 7360   4.979   0.111   6.227
   81SOPE   C32 7361   5.021   0.170   5.987
   81SOPE   H2X 7362   5.027   0.274   5.949
   81SOPE   H2Y 7363   4.939   0.121   5.930
   81SOPE   C23 7364   4.978   0.607   5.987
   81SOPE   H3R 7365   4.885   0.552   5.960
   81SOPE   H3S 7366   5.061   0.539   5.959
   81SOPE   C24 7367   4.988   0.724   5.886
   81SOPE   H4R 7368   5.079   0.785   5.908
   81SOPE   H4S 7369   4.996   0.683   5.783
   81SOPE   C25 7370   4.863   0.821   5.885
   81SOPE   H5R 7371   4.776   0.754   5.872
   81SOPE   H5S 7372   4.840   0.864   5.984
   81SOPE   C26 7373   4.886   0.930   5.780
   81SOPE   H6R 7374   4.831   1.022   5.811
   81SOPE   H6S 7375   4.991   0.962   5.798
   81SOPE   C27 7376   4.856   0.896   5.636
   81SOPE   H7R 7377   4.877   0.789   5.616
   81SOPE   H7S 7378   4.748   0.912   5.619
   81SOPE   C28 7379   4.944   0.991   5.547
   81SOPE   H8R 7380   4.903   0.985   5.444
   81SOPE   H8S 7381   4.934   1.098   5.577
   81SOPE   C29 7382   5.094   0.968   5.556
   81SOPE   H91 7383   5.138   1.013   5.646
   81SOPE  C210 7384   5.174   0.936   5.453
   81SOPE  H101 7385   5.283   0.928   5.459
   81SOPE  C211 7386   5.124   0.896   5.315
   81SOPE  H11R 7387   5.134   0.988   5.253
   81SOPE  H11S 7388   5.015   0.877   5.301
   81SOPE  C212 7389   5.209   0.783   5.259
   81SOPE  H12R 7390   5.207   0.701   5.333
   81SOPE  H12S 7391   5.316   0.810   5.248
   81SOPE  C213 7392   5.155   0.740   5.120
   81SOPE  H13R 7393   5.049   0.712   5.138
   81SOPE  H13S 7394   5.196   0.645   5.079
   81SOPE  C214 7395   5.149   0.847   5.023
   81SOPE  H14R 7396   5.239   0.913   5.026
   81SOPE  H14S 7397   5.053   0.900   5.038
   81SOPE  C215 7398   5.151   0.786   4.880
   81SOPE  H15R 7399   5.057   0.732   4.855
   81SOPE  H15S 7400   5.237   0.717   4.867
   81SOPE  C216 7401   5.171   0.891   4.771
   81SOPE  H16R 7402   5.191   0.838   4.676
   81SOPE  H16S 7403   5.264   0.952   4.776
   81SOPE  C217 7404   5.067   1.004   4.754
   81SOPE  H17R 7405   5.090   1.088   4.822
   81SOPE  H17S 7406   4.970   0.966   4.793
   81SOPE  C218 7407   5.052   1.054   4.609
   81SOPE  H18R 7408   4.984   1.141   4.604
   81SOPE  H18S 7409   5.003   0.979   4.544
   81SOPE  H18T 7410   5.147   1.091   4.564
   81SOPE   C33 7411   5.157   0.097   5.978
   81SOPE   H3X 7412   5.150   0.001   6.032
   81SOPE   H3Y 7413   5.226   0.161   6.038
   81SOPE   C34 7414   5.203   0.074   5.834
   81SOPE   H4X 7415   5.220   0.174   5.788
   81SOPE   H4Y 7416   5.122   0.032   5.771
   81SOPE   C35 7417   5.332   6.782   5.828
   81SOPE   H5X 7418   5.302   6.682   5.868
   81SOPE   H5Y 7419   5.412   0.027   5.890
   81SOPE   C36 7420   5.402   6.767   5.685
   81SOPE   H6X 7421   5.497   6.711   5.692
   81SOPE   H6Y 7422   5.420   0.069   5.644
   81SOPE   C37 7423   5.317   6.694   5.583
   81SOPE   H7X 7424   5.213   6.732   5.576
   81SOPE   H7Y 7425   5.300   6.589   5.613
   81SOPE   C38 7426   5.378   6.696   5.434
   81SOPE   H8X 7427   5.484   6.663   5.428
   81SOPE   H8Y 7428   5.360   6.798   5.393
   81SOPE   C39 7429   5.314   6.588   5.344
   81SOPE   H9X 7430   5.204   6.601   5.337
   81SOPE   H9Y 7431   5.325   6.489   5.393
   81SOPE  C310 7432   5.372   6.598   5.205
   81SOPE  H10X 7433   5.476   6.636   5.210
   81SOPE  H10Y 7434   5.315   6.671   5.144
   81SOPE  C311 7435   5.375   6.465   5.129
   81SOPE  H11X 7436   5.274   6.418   5.126
   81SOPE  H11Y 7437   5.450   6.397   5.175
   81SOPE  C312 7438   5.421   6.488   4.984
   81SOPE  H12X 7439   5.523   6.531   4.979
   81SOPE  H12Y 7440   5.355   6.561   4.932
   81SOPE  C313 7441   5.412   6.359   4.903
   81SOPE  H13X 7442   5.317   6.305   4.924
   81SOPE  H13Y 7443   5.487   6.280   4.925
   81SOPE  C314 7444   5.429   6.371   4.743
   81SOPE  H14X 7445   5.539   6.374   4.731
   81SOPE  H14Y 7446   5.369   6.458   4.707
   81SOPE  C315 7447   5.385   6.235   4.674
   81SOPE  H15X 7448   5.276   6.225   4.696
   81SOPE  H15Y 7449   5.437   6.161   4.739
   81SOPE  C316 7450   5.430   6.234   4.535
   81SOPE  H16X 7451   5.413   6.135   4.488
   81SOPE  H16Y 7452   5.539   6.253   4.540
   81SOPE  C317 7453   5.351   6.342   4.455
   81SOPE  H17X 7454   5.379   6.440   4.502
   81SOPE  H17Y 7455   5.243   6.332   4.480
   81SOPE  C318 7456   5.365   6.346   4.299
   81SOPE  H18X 7457   5.311   6.266   4.245
   81SOPE  H18Y 7458   5.471   6.337   4.267
   81SOPE  H18Z 7459   5.318   6.444   4.273
   82SOPE     N 7460   1.830   0.979   6.941
   82SOPE   HN1 7461   1.891   0.982   7.025
   82SOPE   HN2 7462   1.805   1.075   6.911
   82SOPE   HN3 7463   1.741   0.928   6.956
   82SOPE   C12 7464   1.911   0.931   6.823
   82SOPE  H12A 7465   2.003   0.992   6.812
   82SOPE  H12B 7466   1.857   0.950   6.727
   82SOPE   C11 7467   1.939   0.776   6.824
   82SOPE  H11A 7468   2.005   0.751   6.910
   82SOPE  H11B 7469   1.994   0.752   6.731
   82SOPE     P 7470   1.717   0.677   6.718
   82SOPE   O13 7471   1.640   0.802   6.688
   82SOPE   O14 7472   1.642   0.555   6.744
   82SOPE   O12 7473   1.814   0.704   6.841
   82SOPE   O11 7474   1.822   0.651   6.608
   82SOPE    C1 7475   1.910   0.539   6.592
   82SOPE    HA 7476   1.886   0.452   6.658
   82SOPE    HB 7477   2.011   0.569   6.626
   82SOPE    C2 7478   1.915   0.492   6.445
   82SOPE    HS 7479   1.997   0.417   6.443
   82SOPE   O21 7480   1.946   0.605   6.358
   82SOPE   C21 7481   2.070   0.649   6.367
   82SOPE   O22 7482   2.162   0.594   6.422
   82SOPE   C22 7483   2.084   0.776   6.286
   82SOPE   H2R 7484   2.146   0.853   6.338
   82SOPE   H2S 7485   1.983   0.816   6.261
   82SOPE    C3 7486   1.776   0.423   6.400
   82SOPE    HX 7487   1.713   0.512   6.380
   82SOPE    HY 7488   1.734   0.369   6.488
   82SOPE   O31 7489   1.781   0.342   6.280
   82SOPE   C31 7490   1.661   0.296   6.249
   82SOPE   O32 7491   1.554   0.316   6.305
   82SOPE   C32 7492   1.679   0.209   6.125
   82SOPE   H2X 7493   1.591   0.142   6.114
   82SOPE   H2Y 7494   1.770   0.146   6.133
   82SOPE   C23 7495   2.160   0.755   6.147
   82SOPE   H3R 7496   2.105   0.676   6.093
   82SOPE   H3S 7497   2.259   0.713   6.176
   82SOPE   C24 7498   2.179   0.882   6.055
   82SOPE   H4R 7499   2.078   0.916   6.020
   82SOPE   H4S 7500   2.234   0.962   6.109
   82SOPE   C25 7501   2.276   0.848   5.935
   82SOPE   H5R 7502   2.290   0.941   5.876
   82SOPE   H5S 7503   2.371   0.834   5.992
   82SOPE   C26 7504   2.246   0.723   5.852
   82SOPE   H6R 7505   2.225   0.630   5.910
   82SOPE   H6S 7506   2.158   0.745   5.789
   82SOPE   C27 7507   2.368   0.684   5.751
   82SOPE   H7R 7508   2.451   0.640   5.809
   82SOPE   H7S 7509   2.332   0.599   5.690
   82SOPE   C28 7510   2.426   0.799   5.663
   82SOPE   H8R 7511   2.487   0.877   5.713
   82SOPE   H8S 7512   2.494   0.748   5.592
   82SOPE   C29 7513   2.309   0.850   5.575
   82SOPE   H91 7514   2.251   0.927   5.627
   82SOPE  C210 7515   2.269   0.819   5.454
   82SOPE  H101 7516   2.172   0.862   5.423
   82SOPE  C211 7517   2.331   0.732   5.350
   82SOPE  H11R 7518   2.255   0.657   5.319
   82SOPE  H11S 7519   2.413   0.667   5.388
   82SOPE  C212 7520   2.384   0.805   5.233
   82SOPE  H12R 7521   2.469   0.751   5.186
   82SOPE  H12S 7522   2.429   0.903   5.259
   82SOPE  C213 7523   2.281   0.811   5.127
   82SOPE  H13R 7524   2.181   0.842   5.165
   82SOPE  H13S 7525   2.268   0.709   5.086
   82SOPE  C214 7526   2.323   0.893   5.005
   82SOPE  H14R 7527   2.395   0.839   4.939
   82SOPE  H14S 7528   2.379   0.982   5.038
   82SOPE  C215 7529   2.203   0.924   4.912
   82SOPE  H15R 7530   2.126   0.986   4.964
   82SOPE  H15S 7531   2.159   0.828   4.877
   82SOPE  C216 7532   2.235   1.007   4.784
   82SOPE  H16R 7533   2.280   1.106   4.808
   82SOPE  H16S 7534   2.141   1.029   4.729
   82SOPE  C217 7535   2.323   0.919   4.693
   82SOPE  H17R 7536   2.266   0.824   4.697
   82SOPE  H17S 7537   2.424   0.902   4.738
   82SOPE  C218 7538   2.322   0.969   4.545
   82SOPE  H18R 7539   2.215   0.978   4.516
   82SOPE  H18S 7540   2.368   0.903   4.469
   82SOPE  H18T 7541   2.371   1.068   4.534
   82SOPE   C33 7542   1.682   0.303   5.996
   82SOPE   H3X 7543   1.762   0.379   6.010
   82SOPE   H3Y 7544   1.595   0.372   5.990
   82SOPE   C34 7545   1.679   0.223   5.872
   82SOPE   H4X 7546   1.586   0.163   5.864
   82SOPE   H4Y 7547   1.766   0.159   5.849
   82SOPE   C35 7548   1.687   0.319   5.747
   82SOPE   H5X 7549   1.785   0.371   5.741
   82SOPE   H5Y 7550   1.619   0.405   5.765
   82SOPE   C36 7551   1.646   0.238   5.627
   82SOPE   H6X 7552   1.547   0.197   5.656
   82SOPE   H6Y 7553   1.721   0.157   5.617
   82SOPE   C37 7554   1.639   0.310   5.496
   82SOPE   H7X 7555   1.627   0.229   5.420
   82SOPE   H7Y 7556   1.731   0.368   5.473
   82SOPE   C38 7557   1.523   0.412   5.496
   82SOPE   H8X 7558   1.543   0.484   5.578
   82SOPE   H8Y 7559   1.423   0.366   5.514
   82SOPE   C39 7560   1.519   0.485   5.360
   82SOPE   H9X 7561   1.533   0.410   5.279
   82SOPE   H9Y 7562   1.603   0.557   5.361
   82SOPE  C310 7563   1.375   0.551   5.339
   82SOPE  H10X 7564   1.350   0.621   5.422
   82SOPE  H10Y 7565   1.306   0.464   5.352
   82SOPE  C311 7566   1.366   0.618   5.204
   82SOPE  H11X 7567   1.463   0.672   5.195
   82SOPE  H11Y 7568   1.283   0.692   5.202
   82SOPE  C312 7569   1.349   0.524   5.088
   82SOPE  H12X 7570   1.251   0.473   5.094
   82SOPE  H12Y 7571   1.429   0.447   5.088
   82SOPE  C313 7572   1.351   0.608   4.959
   82SOPE  H13X 7573   1.439   0.675   4.958
   82SOPE  H13Y 7574   1.264   0.678   4.951
   82SOPE  C314 7575   1.339   0.526   4.827
   82SOPE  H14X 7576   1.436   0.477   4.804
   82SOPE  H14Y 7577   1.314   0.600   4.748
   82SOPE  C315 7578   1.223   0.423   4.820
   82SOPE  H15X 7579   1.132   0.443   4.880
   82SOPE  H15Y 7580   1.259   0.326   4.860
   82SOPE  C316 7581   1.180   0.392   4.677
   82SOPE  H16X 7582   1.109   0.466   4.634
   82SOPE  H16Y 7583   1.123   0.297   4.685
   82SOPE  C317 7584   1.282   0.372   4.565
   82SOPE  H17X 7585   1.356   0.296   4.599
   82SOPE  H17Y 7586   1.337   0.468   4.551
   82SOPE  C318 7587   1.223   0.328   4.433
   82SOPE  H18X 7588   1.152   0.409   4.406
   82SOPE  H18Y 7589   1.166   0.233   4.441
   82SOPE  H18Z 7590   1.304   0.323   4.357
   83SOPE     N 7591   1.365   2.407   1.840
   83SOPE   HN1 7592   1.386   2.308   1.865
   83SOPE   HN2 7593   1.324   2.458   1.921
   83SOPE   HN3 7594   1.297   2.415   1.762
   83SOPE   C12 7595   1.492   2.479   1.803
   83SOPE  H12A 7596   1.469   2.528   1.705
   83SOPE  H12B 7597   1.570   2.401   1.793
   83SOPE   C11 7598   1.538   2.588   1.908
   83SOPE  H11A 7599   1.633   2.635   1.874
   83SOPE  H11B 7600   1.555   2.538   2.005
   83SOPE     P 7601   1.328   2.700   2.031
   83SOPE   O13 7602   1.247   2.578   2.020
   83SOPE   O14 7603   1.258   2.832   2.021
   83SOPE   O12 7604   1.440   2.693   1.917
   83SOPE   O11 7605   1.411   2.689   2.172
   83SOPE    C1 7606   1.518   2.782   2.191
   83SOPE    HA 7607   1.483   2.886   2.178
   83SOPE    HB 7608   1.600   2.759   2.120
   83SOPE    C2 7609   1.579   2.787   2.340
   83SOPE    HS 7610   1.653   2.869   2.355
   83SOPE   O21 7611   1.631   2.657   2.386
   83SOPE   C21 7612   1.752   2.646   2.350
   83SOPE   O22 7613   1.833   2.726   2.304
   83SOPE   C22 7614   1.785   2.500   2.377
   83SOPE   H2R 7615   1.802   2.486   2.486
   83SOPE   H2S 7616   1.887   2.484   2.335
   83SOPE    C3 7617   1.464   2.832   2.443
   83SOPE    HX 7618   1.382   2.766   2.408
   83SOPE    HY 7619   1.434   2.938   2.431
   83SOPE   O31 7620   1.498   2.811   2.585
   83SOPE   C31 7621   1.596   2.890   2.632
   83SOPE   O32 7622   1.667   2.964   2.571
   83SOPE   C32 7623   1.616   2.862   2.783
   83SOPE   H2X 7624   1.619   2.753   2.804
   83SOPE   H2Y 7625   1.518   2.892   2.826
   83SOPE   C23 7626   1.691   2.399   2.312
   83SOPE   H3R 7627   1.748   2.318   2.262
   83SOPE   H3S 7628   1.633   2.440   2.226
   83SOPE   C24 7629   1.592   2.333   2.397
   83SOPE   H4R 7630   1.543   2.415   2.453
   83SOPE   H4S 7631   1.507   2.287   2.343
   83SOPE   C25 7632   1.648   2.226   2.492
   83SOPE   H5R 7633   1.685   2.139   2.433
   83SOPE   H5S 7634   1.734   2.275   2.541
   83SOPE   C26 7635   1.540   2.177   2.596
   83SOPE   H6R 7636   1.481   2.265   2.630
   83SOPE   H6S 7637   1.462   2.111   2.552
   83SOPE   C27 7638   1.589   2.119   2.731
   83SOPE   H7R 7639   1.652   2.191   2.787
   83SOPE   H7S 7640   1.498   2.115   2.795
   83SOPE   C28 7641   1.643   1.967   2.740
   83SOPE   H8R 7642   1.714   1.955   2.655
   83SOPE   H8S 7643   1.700   1.972   2.835
   83SOPE   C29 7644   1.528   1.865   2.744
   83SOPE   H91 7645   1.434   1.892   2.694
   83SOPE  C210 7646   1.530   1.752   2.825
   83SOPE  H101 7647   1.443   1.686   2.836
   83SOPE  C211 7648   1.642   1.706   2.911
   83SOPE  H11R 7649   1.740   1.747   2.880
   83SOPE  H11S 7650   1.652   1.600   2.881
   83SOPE  C212 7651   1.603   1.718   3.055
   83SOPE  H12R 7652   1.501   1.679   3.077
   83SOPE  H12S 7653   1.598   1.821   3.095
   83SOPE  C213 7654   1.706   1.632   3.140
   83SOPE  H13R 7655   1.799   1.690   3.157
   83SOPE  H13S 7656   1.734   1.549   3.071
   83SOPE  C214 7657   1.645   1.572   3.271
   83SOPE  H14R 7658   1.722   1.510   3.323
   83SOPE  H14S 7659   1.569   1.495   3.243
   83SOPE  C215 7660   1.587   1.682   3.365
   83SOPE  H15R 7661   1.505   1.726   3.304
   83SOPE  H15S 7662   1.669   1.755   3.380
   83SOPE  C216 7663   1.536   1.627   3.496
   83SOPE  H16R 7664   1.457   1.552   3.477
   83SOPE  H16S 7665   1.481   1.713   3.542
   83SOPE  C217 7666   1.655   1.579   3.582
   83SOPE  H17R 7667   1.735   1.654   3.569
   83SOPE  H17S 7668   1.696   1.485   3.539
   83SOPE  C218 7669   1.634   1.549   3.728
   83SOPE  H18R 7670   1.702   1.470   3.766
   83SOPE  H18S 7671   1.529   1.514   3.741
   83SOPE  H18T 7672   1.648   1.638   3.792
   83SOPE   C33 7673   1.733   2.952   2.850
   83SOPE   H3X 7674   1.710   3.061   2.843
   83SOPE   H3Y 7675   1.832   2.932   2.805
   83SOPE   C34 7676   1.744   2.916   2.999
   83SOPE   H4X 7677   1.729   2.806   3.006
   83SOPE   H4Y 7678   1.662   2.969   3.052
   83SOPE   C35 7679   1.879   2.966   3.049
   83SOPE   H5X 7680   1.882   3.072   3.018
   83SOPE   H5Y 7681   1.967   2.915   3.004
   83SOPE   C36 7682   1.912   2.952   3.197
   83SOPE   H6X 7683   1.902   2.847   3.232
   83SOPE   H6Y 7684   1.834   3.014   3.246
   83SOPE   C37 7685   2.049   3.008   3.225
   83SOPE   H7X 7686   2.056   3.118   3.223
   83SOPE   H7Y 7687   2.125   2.965   3.156
   83SOPE   C38 7688   2.106   2.955   3.354
   83SOPE   H8X 7689   2.216   2.953   3.339
   83SOPE   H8Y 7690   2.066   2.856   3.385
   83SOPE   C39 7691   2.084   3.047   3.479
   83SOPE   H9X 7692   1.975   3.048   3.503
   83SOPE   H9Y 7693   2.103   3.152   3.446
   83SOPE  C310 7694   2.141   2.994   3.605
   83SOPE  H10X 7695   2.252   2.993   3.601
   83SOPE  H10Y 7696   2.119   2.886   3.612
   83SOPE  C311 7697   2.100   3.066   3.732
   83SOPE  H11X 7698   2.133   3.008   3.821
   83SOPE  H11Y 7699   1.988   3.064   3.731
   83SOPE  C312 7700   2.153   3.205   3.745
   83SOPE  H12X 7701   2.140   3.249   3.644
   83SOPE  H12Y 7702   2.262   3.204   3.766
   83SOPE  C313 7703   2.089   3.283   3.868
   83SOPE  H13X 7704   1.985   3.246   3.864
   83SOPE  H13Y 7705   2.089   3.393   3.848
   83SOPE  C314 7706   2.156   3.250   4.006
   83SOPE  H14X 7707   2.262   3.283   4.003
   83SOPE  H14Y 7708   2.164   3.140   4.017
   83SOPE  C315 7709   2.093   3.322   4.127
   83SOPE  H15X 7710   1.984   3.333   4.112
   83SOPE  H15Y 7711   2.127   3.427   4.138
   83SOPE  C316 7712   2.134   3.243   4.252
   83SOPE  H16X 7713   2.244   3.251   4.261
   83SOPE  H16Y 7714   2.096   3.138   4.245
   83SOPE  C317 7715   2.066   3.303   4.378
   83SOPE  H17X 7716   1.955   3.297   4.366
   83SOPE  H17Y 7717   2.091   3.411   4.384
   83SOPE  C318 7718   2.119   3.251   4.507
   83SOPE  H18X 7719   2.095   3.144   4.523
   83SOPE  H18Y 7720   2.082   3.311   4.593
   83SOPE  H18Z 7721   2.230   3.257   4.509
   84SOPE     N 7722   0.235   0.693   1.754
   84SOPE   HN1 7723   0.138   0.695   1.717
   84SOPE   HN2 7724   0.273   0.597   1.740
   84SOPE   HN3 7725   0.227   0.700   1.857
   84SOPE   C12 7726   0.324   0.785   1.682
   84SOPE  H12A 7727   0.352   0.870   1.748
   84SOPE  H12B 7728   0.284   0.832   1.590
   84SOPE   C11 7729   0.444   0.704   1.631
   84SOPE  H11A 7730   0.512   0.768   1.571
   84SOPE  H11B 7731   0.398   0.628   1.564
   84SOPE     P 7732   0.514   0.500   1.783
   84SOPE   O13 7733   0.628   0.447   1.710
   84SOPE   O14 7734   0.385   0.441   1.753
   84SOPE   O12 7735   0.508   0.660   1.750
   84SOPE   O11 7736   0.543   0.503   1.943
   84SOPE    C1 7737   0.447   0.578   2.025
   84SOPE    HA 7738   0.343   0.551   1.995
   84SOPE    HB 7739   0.456   0.688   2.013
   84SOPE    C2 7740   0.447   0.525   2.173
   84SOPE    HS 7741   0.369   0.567   2.240
   84SOPE   O21 7742   0.574   0.557   2.230
   84SOPE   C21 7743   0.606   0.682   2.251
   84SOPE   O22 7744   0.528   0.773   2.252
   84SOPE   C22 7745   0.745   0.682   2.315
   84SOPE   H2R 7746   0.790   0.777   2.280
   84SOPE   H2S 7747   0.796   0.589   2.281
   84SOPE    C3 7748   0.419   0.371   2.176
   84SOPE    HX 7749   0.512   0.323   2.138
   84SOPE    HY 7750   0.342   0.361   2.097
   84SOPE   O31 7751   0.374   0.316   2.307
   84SOPE   C31 7752   0.474   0.260   2.373
   84SOPE   O32 7753   0.587   0.251   2.329
   84SOPE   C32 7754   0.431   0.221   2.515
   84SOPE   H2X 7755   0.368   0.130   2.502
   84SOPE   H2Y 7756   0.368   0.306   2.548
   84SOPE   C23 7757   0.756   0.701   2.469
   84SOPE   H3R 7758   0.699   0.793   2.493
   84SOPE   H3S 7759   0.866   0.714   2.481
   84SOPE   C24 7760   0.716   0.573   2.536
   84SOPE   H4R 7761   0.609   0.562   2.564
   84SOPE   H4S 7762   0.744   0.482   2.479
   84SOPE   C25 7763   0.774   0.544   2.676
   84SOPE   H5R 7764   0.718   0.467   2.732
   84SOPE   H5S 7765   0.875   0.502   2.656
   84SOPE   C26 7766   0.787   0.673   2.767
   84SOPE   H6R 7767   0.833   0.752   2.705
   84SOPE   H6S 7768   0.682   0.695   2.798
   84SOPE   C27 7769   0.882   0.650   2.891
   84SOPE   H7R 7770   0.987   0.638   2.856
   84SOPE   H7S 7771   0.880   0.743   2.951
   84SOPE   C28 7772   0.834   0.540   2.990
   84SOPE   H8R 7773   0.837   0.436   2.950
   84SOPE   H8S 7774   0.910   0.543   3.070
   84SOPE   C29 7775   0.702   0.573   3.058
   84SOPE   H91 7776   0.622   0.591   2.985
   84SOPE  C210 7777   0.688   0.580   3.189
   84SOPE  H101 7778   0.593   0.614   3.231
   84SOPE  C211 7779   0.795   0.549   3.295
   84SOPE  H11R 7780   0.890   0.607   3.291
   84SOPE  H11S 7781   0.826   0.442   3.286
   84SOPE  C212 7782   0.755   0.581   3.439
   84SOPE  H12R 7783   0.652   0.547   3.462
   84SOPE  H12S 7784   0.754   0.691   3.450
   84SOPE  C213 7785   0.861   0.531   3.533
   84SOPE  H13R 7786   0.967   0.558   3.516
   84SOPE  H13S 7787   0.865   0.420   3.523
   84SOPE  C214 7788   0.835   0.574   3.678
   84SOPE  H14R 7789   0.743   0.524   3.715
   84SOPE  H14S 7790   0.823   0.684   3.686
   84SOPE  C215 7791   0.946   0.537   3.785
   84SOPE  H15R 7792   1.037   0.600   3.782
   84SOPE  H15S 7793   0.981   0.435   3.757
   84SOPE  C216 7794   0.911   0.540   3.932
   84SOPE  H16R 7795   1.004   0.516   3.987
   84SOPE  H16S 7796   0.841   0.456   3.950
   84SOPE  C217 7797   0.834   0.662   3.980
   84SOPE  H17R 7798   0.749   0.672   3.909
   84SOPE  H17S 7799   0.899   0.752   3.975
   84SOPE  C218 7800   0.777   0.654   4.122
   84SOPE  H18R 7801   0.766   0.755   4.168
   84SOPE  H18S 7802   0.836   0.597   4.197
   84SOPE  H18T 7803   0.672   0.618   4.122
   84SOPE   C33 7804   0.531   0.189   2.613
   84SOPE   H3X 7805   0.587   0.282   2.634
   84SOPE   H3Y 7806   0.619   0.124   2.592
   84SOPE   C34 7807   0.477   0.127   2.739
   84SOPE   H4X 7808   0.472   0.017   2.743
   84SOPE   H4Y 7809   0.376   0.169   2.758
   84SOPE   C35 7810   0.558   0.163   2.861
   84SOPE   H5X 7811   0.574   0.271   2.846
   84SOPE   H5Y 7812   0.658   0.118   2.849
   84SOPE   C36 7813   0.515   0.119   3.001
   84SOPE   H6X 7814   0.503   0.009   3.012
   84SOPE   H6Y 7815   0.414   0.165   3.009
   84SOPE   C37 7816   0.608   0.175   3.108
   84SOPE   H7X 7817   0.599   0.285   3.095
   84SOPE   H7Y 7818   0.714   0.146   3.094
   84SOPE   C38 7819   0.563   0.123   3.248
   84SOPE   H8X 7820   0.612   0.025   3.265
   84SOPE   H8Y 7821   0.452   0.120   3.250
   84SOPE   C39 7822   0.616   0.205   3.361
   84SOPE   H9X 7823   0.591   0.312   3.349
   84SOPE   H9Y 7824   0.726   0.215   3.348
   84SOPE  C310 7825   0.601   0.136   3.498
   84SOPE  H10X 7826   0.682   0.060   3.506
   84SOPE  H10Y 7827   0.499   0.094   3.509
   84SOPE  C311 7828   0.641   0.226   3.612
   84SOPE  H11X 7829   0.614   0.326   3.573
   84SOPE  H11Y 7830   0.748   0.217   3.641
   84SOPE  C312 7831   0.550   0.207   3.732
   84SOPE  H12X 7832   0.566   0.109   3.783
   84SOPE  H12Y 7833   0.442   0.223   3.710
   84SOPE  C313 7834   0.570   0.301   3.848
   84SOPE  H13X 7835   0.514   0.396   3.833
   84SOPE  H13Y 7836   0.678   0.303   3.871
   84SOPE  C314 7837   0.498   0.245   3.974
   84SOPE  H14X 7838   0.536   0.144   3.999
   84SOPE  H14Y 7839   0.391   0.250   3.944
   84SOPE  C315 7840   0.503   0.347   4.097
   84SOPE  H15X 7841   0.479   0.451   4.067
   84SOPE  H15Y 7842   0.605   0.345   4.142
   84SOPE  C316 7843   0.388   0.312   4.197
   84SOPE  H16X 7844   0.441   0.229   4.250
   84SOPE  H16Y 7845   0.297   0.282   4.142
   84SOPE  C317 7846   0.373   0.437   4.284
   84SOPE  H17X 7847   0.334   0.521   4.223
   84SOPE  H17Y 7848   0.464   0.472   4.337
   84SOPE  C318 7849   0.267   0.432   4.399
   84SOPE  H18X 7850   0.162   0.419   4.365
   84SOPE  H18Y 7851   0.262   0.526   4.457
   84SOPE  H18Z 7852   0.301   0.364   4.480
   85SOPE     N 7853   5.639   4.584   2.169
   85SOPE   HN1 7854   5.571   4.505   2.167
   85SOPE   HN2 7855   5.702   4.571   2.251
   85SOPE   HN3 7856   5.579   4.668   2.174
   85SOPE   C12 7857   5.728   4.583   2.051
   85SOPE  H12A 7858   5.810   4.656   2.067
   85SOPE  H12B 7859   5.668   4.617   1.963
   85SOPE   C11 7860   5.771   4.440   2.040
   85SOPE  H11A 7861   5.815   4.388   2.128
   85SOPE  H11B 7862   5.862   4.453   1.977
   85SOPE     P 7863   5.561   4.275   2.039
   85SOPE   O13 7864   5.456   4.261   1.937
   85SOPE   O14 7865   5.526   4.352   2.158
   85SOPE   O12 7866   5.683   4.350   1.973
   85SOPE   O11 7867   5.610   4.125   2.075
   85SOPE    C1 7868   5.692   4.097   2.196
   85SOPE    HA 7869   5.759   4.183   2.218
   85SOPE    HB 7870   5.756   4.010   2.169
   85SOPE    C2 7871   5.609   4.065   2.325
   85SOPE    HS 7872   5.515   4.018   2.286
   85SOPE   O21 7873   5.608   4.188   2.403
   85SOPE   C21 7874   5.502   4.205   2.480
   85SOPE   O22 7875   5.421   4.120   2.499
   85SOPE   C22 7876   5.492   4.349   2.524
   85SOPE   H2R 7877   5.448   4.415   2.445
   85SOPE   H2S 7878   5.593   4.388   2.549
   85SOPE    C3 7879   5.702   3.962   2.400
   85SOPE    HX 7880   5.802   4.008   2.416
   85SOPE    HY 7881   5.712   3.876   2.331
   85SOPE   O31 7882   5.639   3.905   2.522
   85SOPE   C31 7883   5.730   3.878   2.623
   85SOPE   O32 7884   5.848   3.902   2.619
   85SOPE   C32 7885   5.648   3.825   2.743
   85SOPE   H2X 7886   5.721   3.762   2.798
   85SOPE   H2Y 7887   5.569   3.758   2.704
   85SOPE   C23 7888   5.408   4.362   2.651
   85SOPE   H3R 7889   5.314   4.305   2.636
   85SOPE   H3S 7890   5.377   4.469   2.660
   85SOPE   C24 7891   5.474   4.325   2.784
   85SOPE   H4R 7892   5.502   4.218   2.788
   85SOPE   H4S 7893   5.564   4.388   2.803
   85SOPE   C25 7894   5.377   4.349   2.892
   85SOPE   H5R 7895   5.348   4.456   2.904
   85SOPE   H5S 7896   5.284   4.291   2.874
   85SOPE   C26 7897   5.439   4.303   3.026
   85SOPE   H6R 7898   5.492   4.207   3.005
   85SOPE   H6S 7899   5.518   4.372   3.061
   85SOPE   C27 7900   5.332   4.292   3.136
   85SOPE   H7R 7901   5.279   4.386   3.159
   85SOPE   H7S 7902   5.256   4.219   3.101
   85SOPE   C28 7903   5.398   4.231   3.269
   85SOPE   H8R 7904   5.320   4.159   3.302
   85SOPE   H8S 7905   5.480   4.164   3.234
   85SOPE   C29 7906   5.447   4.329   3.374
   85SOPE   H91 7907   5.516   4.404   3.333
   85SOPE  C210 7908   5.426   4.316   3.508
   85SOPE  H101 7909   5.471   4.387   3.578
   85SOPE  C211 7910   5.333   4.212   3.568
   85SOPE  H11R 7911   5.330   4.125   3.499
   85SOPE  H11S 7912   5.236   4.265   3.582
   85SOPE  C212 7913   5.373   4.167   3.716
   85SOPE  H12R 7914   5.483   4.170   3.733
   85SOPE  H12S 7915   5.346   4.061   3.733
   85SOPE  C213 7916   5.285   4.238   3.811
   85SOPE  H13R 7917   5.181   4.249   3.774
   85SOPE  H13S 7918   5.321   4.343   3.821
   85SOPE  C214 7919   5.289   4.179   3.957
   85SOPE  H14R 7920   5.396   4.174   3.987
   85SOPE  H14S 7921   5.255   4.073   3.956
   85SOPE  C215 7922   5.198   4.250   4.058
   85SOPE  H15R 7923   5.091   4.240   4.030
   85SOPE  H15S 7924   5.228   4.357   4.058
   85SOPE  C216 7925   5.214   4.200   4.200
   85SOPE  H16R 7926   5.322   4.219   4.219
   85SOPE  H16S 7927   5.206   4.090   4.190
   85SOPE  C217 7928   5.146   4.269   4.317
   85SOPE  H17R 7929   5.201   4.363   4.338
   85SOPE  H17S 7930   5.156   4.208   4.409
   85SOPE  C218 7931   4.999   4.306   4.290
   85SOPE  H18R 7932   4.946   4.212   4.264
   85SOPE  H18S 7933   4.990   4.373   4.202
   85SOPE  H18T 7934   4.942   4.347   4.376
   85SOPE   C33 7935   5.574   3.940   2.810
   85SOPE   H3X 7936   5.508   3.984   2.733
   85SOPE   H3Y 7937   5.647   4.019   2.837
   85SOPE   C34 7938   5.484   3.906   2.935
   85SOPE   H4X 7939   5.409   3.832   2.900
   85SOPE   H4Y 7940   5.425   3.996   2.962
   85SOPE   C35 7941   5.562   3.850   3.042
   85SOPE   H5X 7942   5.608   3.935   3.097
   85SOPE   H5Y 7943   5.648   3.790   3.003
   85SOPE   C36 7944   5.474   3.767   3.143
   85SOPE   H6X 7945   5.482   3.667   3.096
   85SOPE   H6Y 7946   5.365   3.789   3.142
   85SOPE   C37 7947   5.530   3.750   3.283
   85SOPE   H7X 7948   5.641   3.740   3.283
   85SOPE   H7Y 7949   5.488   3.653   3.319
   85SOPE   C38 7950   5.500   3.863   3.381
   85SOPE   H8X 7951   5.390   3.874   3.387
   85SOPE   H8Y 7952   5.532   3.962   3.341
   85SOPE   C39 7953   5.579   3.847   3.509
   85SOPE   H9X 7954   5.566   3.937   3.573
   85SOPE   H9Y 7955   5.686   3.836   3.482
   85SOPE  C310 7956   5.535   3.737   3.610
   85SOPE  H10X 7957   5.543   3.643   3.552
   85SOPE  H10Y 7958   5.428   3.739   3.641
   85SOPE  C311 7959   5.626   3.729   3.730
   85SOPE  H11X 7960   5.726   3.708   3.687
   85SOPE  H11Y 7961   5.594   3.649   3.800
   85SOPE  C312 7962   5.647   3.855   3.812
   85SOPE  H12X 7963   5.549   3.899   3.842
   85SOPE  H12Y 7964   5.709   3.925   3.751
   85SOPE  C313 7965   5.724   3.823   3.938
   85SOPE  H13X 7966   5.805   3.747   3.935
   85SOPE  H13Y 7967   5.651   3.786   4.013
   85SOPE  C314 7968   5.783   3.943   4.012
   85SOPE  H14X 7969   5.707   4.018   4.042
   85SOPE  H14Y 7970   5.850   3.996   3.941
   85SOPE  C315 7971   5.881   3.901   4.128
   85SOPE  H15X 7972   5.950   3.987   4.146
   85SOPE  H15Y 7973   5.949   3.826   4.083
   85SOPE  C316 7974   5.814   3.846   4.250
   85SOPE  H16X 7975   5.710   3.838   4.211
   85SOPE  H16Y 7976   5.815   3.919   4.334
   85SOPE  C317 7977   5.874   3.719   4.306
   85SOPE  H17X 7978   5.976   3.752   4.336
   85SOPE  H17Y 7979   5.879   3.651   4.219
   85SOPE  C318 7980   5.807   3.674   4.438
   85SOPE  H18X 7981   5.710   3.626   4.412
   85SOPE  H18Y 7982   5.791   3.762   4.505
   85SOPE  H18Z 7983   5.856   3.595   4.500
   86SOPE     N 7984   5.410   1.083   2.323
   86SOPE   HN1 7985   5.464   1.005   2.279
   86SOPE   HN2 7986   5.329   1.047   2.378
   86SOPE   HN3 7987   5.372   1.137   2.243
   86SOPE   C12 7988   5.478   1.188   2.410
   86SOPE  H12A 7989   5.398   1.262   2.430
   86SOPE  H12B 7990   5.553   1.244   2.350
   86SOPE   C11 7991   5.535   1.139   2.545
   86SOPE  H11A 7992   5.462   1.072   2.595
   86SOPE  H11B 7993   5.551   1.230   2.607
   86SOPE     P 7994   5.788   1.066   2.539
   86SOPE   O13 7995   5.825   1.172   2.438
   86SOPE   O14 7996   5.861   0.936   2.543
   86SOPE   O12 7997   5.636   1.046   2.524
   86SOPE   O11 7998   5.796   1.122   2.685
   86SOPE    C1 7999   5.870   1.055   2.785
   86SOPE    HA 8000   5.975   1.091   2.786
   86SOPE    HB 8001   5.875   0.944   2.789
   86SOPE    C2 8002   5.800   1.096   2.915
   86SOPE    HS 8003   5.766   1.201   2.897
   86SOPE   O21 8004   5.900   1.101   3.017
   86SOPE   C21 8005   5.869   1.169   3.125
   86SOPE   O22 8006   5.783   1.249   3.137
   86SOPE   C22 8007   5.957   1.137   3.245
   86SOPE   H2R 8008   6.057   1.185   3.233
   86SOPE   H2S 8009   5.971   1.027   3.247
   86SOPE    C3 8010   5.685   1.010   2.957
   86SOPE    HX 8011   5.619   1.007   2.867
   86SOPE    HY 8012   5.617   1.060   3.030
   86SOPE   O31 8013   5.727   0.885   3.004
   86SOPE   C31 8014   5.649   0.787   2.986
   86SOPE   O32 8015   5.549   0.779   2.912
   86SOPE   C32 8016   5.677   0.679   3.092
   86SOPE   H2X 8017   5.688   0.735   3.187
   86SOPE   H2Y 8018   5.767   0.619   3.067
   86SOPE   C23 8019   5.891   1.184   3.372
   86SOPE   H3R 8020   5.798   1.125   3.387
   86SOPE   H3S 8021   5.864   1.292   3.364
   86SOPE   C24 8022   5.986   1.170   3.492
   86SOPE   H4R 8023   6.054   1.085   3.470
   86SOPE   H4S 8024   6.055   1.257   3.493
   86SOPE   C25 8025   5.917   1.165   3.630
   86SOPE   H5R 8026   5.874   1.261   3.665
   86SOPE   H5S 8027   5.836   1.091   3.621
   86SOPE   C26 8028   6.014   1.113   3.728
   86SOPE   H6R 8029   5.975   1.035   3.797
   86SOPE   H6S 8030   6.099   1.052   3.690
   86SOPE   C27 8031   6.073   1.217   3.829
   86SOPE   H7R 8032   6.109   1.309   3.778
   86SOPE   H7S 8033   5.990   1.250   3.896
   86SOPE   C28 8034   6.181   1.156   3.925
   86SOPE   H8R 8035   6.269   1.148   3.858
   86SOPE   H8S 8036   6.204   1.238   3.997
   86SOPE   C29 8037   6.154   1.027   3.998
   86SOPE   H91 8038   6.058   1.018   4.051
   86SOPE  C210 8039   6.240   0.923   4.005
   86SOPE  H101 8040   6.210   0.836   4.064
   86SOPE  C211 8041   6.383   0.916   3.954
   86SOPE  H11R 8042   6.402   1.006   3.891
   86SOPE  H11S 8043   6.404   0.820   3.901
   86SOPE  C212 8044   6.478   0.933   4.077
   86SOPE  H12R 8045   6.431   1.013   4.138
   86SOPE  H12S 8046   6.577   0.967   4.041
   86SOPE  C213 8047   6.490   0.801   4.159
   86SOPE  H13R 8048   6.533   0.727   4.088
   86SOPE  H13S 8049   6.395   0.776   4.210
   86SOPE  C214 8050   6.593   0.810   4.276
   86SOPE  H14R 8051   6.549   0.886   4.345
   86SOPE  H14S 8052   6.689   0.859   4.250
   86SOPE  C215 8053   6.602   0.681   4.354
   86SOPE  H15R 8054   6.627   0.598   4.284
   86SOPE  H15S 8055   6.498   0.655   4.381
   86SOPE  C216 8056   6.698   0.683   4.467
   86SOPE  H16R 8057   6.707   0.789   4.499
   86SOPE  H16S 8058   0.005   0.663   4.448
   86SOPE  C217 8059   6.649   0.597   4.587
   86SOPE  H17R 8060   6.633   0.492   4.553
   86SOPE  H17S 8061   6.554   0.639   4.628
   86SOPE  C218 8062   6.757   0.590   4.696
   86SOPE  H18R 8063   6.771   0.680   4.759
   86SOPE  H18S 8064   0.056   0.564   4.654
   86SOPE  H18T 8065   6.732   0.510   4.770
   86SOPE   C33 8066   5.580   0.563   3.114
   86SOPE   H3X 8067   5.560   0.510   3.018
   86SOPE   H3Y 8068   5.485   0.614   3.143
   86SOPE   C34 8069   5.637   0.458   3.220
   86SOPE   H4X 8070   5.744   0.440   3.198
   86SOPE   H4Y 8071   5.591   0.359   3.200
   86SOPE   C35 8072   5.633   0.506   3.367
   86SOPE   H5X 8073   5.534   0.544   3.397
   86SOPE   H5Y 8074   5.708   0.587   3.377
   86SOPE   C36 8075   5.675   0.398   3.459
   86SOPE   H6X 8076   5.774   0.365   3.421
   86SOPE   H6Y 8077   5.602   0.314   3.451
   86SOPE   C37 8078   5.696   0.457   3.602
   86SOPE   H7X 8079   5.601   0.502   3.637
   86SOPE   H7Y 8080   5.780   0.530   3.599
   86SOPE   C38 8081   5.743   0.342   3.695
   86SOPE   H8X 8082   5.849   0.322   3.667
   86SOPE   H8Y 8083   5.688   0.249   3.670
   86SOPE   C39 8084   5.733   0.362   3.849
   86SOPE   H9X 8085   5.626   0.384   3.870
   86SOPE   H9Y 8086   5.789   0.457   3.869
   86SOPE  C310 8087   5.783   0.247   3.937
   86SOPE  H10X 8088   5.875   0.204   3.894
   86SOPE  H10Y 8089   5.702   0.172   3.925
   86SOPE  C311 8090   5.801   0.280   4.090
   86SOPE  H11X 8091   5.871   0.365   4.104
   86SOPE  H11Y 8092   5.835   0.184   4.134
   86SOPE  C312 8093   5.664   0.319   4.152
   86SOPE  H12X 8094   5.632   0.231   4.211
   86SOPE  H12Y 8095   5.590   0.331   4.070
   86SOPE  C313 8096   5.659   0.445   4.237
   86SOPE  H13X 8097   5.696   0.524   4.169
   86SOPE  H13Y 8098   5.728   0.432   4.323
   86SOPE  C314 8099   5.517   0.481   4.272
   86SOPE  H14X 8100   5.455   0.457   4.183
   86SOPE  H14Y 8101   5.500   0.590   4.287
   86SOPE  C315 8102   5.455   0.411   4.399
   86SOPE  H15X 8103   5.522   0.412   4.488
   86SOPE  H15Y 8104   5.435   0.306   4.371
   86SOPE  C316 8105   5.320   0.471   4.448
   86SOPE  H16X 8106   5.246   0.451   4.368
   86SOPE  H16Y 8107   5.326   0.581   4.456
   86SOPE  C317 8108   5.270   0.406   4.574
   86SOPE  H17X 8109   5.340   0.430   4.657
   86SOPE  H17Y 8110   5.251   0.297   4.571
   86SOPE  C318 8111   5.135   0.476   4.618
   86SOPE  H18X 8112   5.152   0.582   4.648
   86SOPE  H18Y 8113   5.091   0.418   4.702
   86SOPE  H18Z 8114   5.058   0.463   4.539
   87SOPE     N 8115   6.702   0.023   1.597
   87SOPE   HN1 8116   6.672   0.106   1.653
   87SOPE   HN2 8117   6.711   0.044   1.495
   87SOPE   HN3 8118   6.625   6.754   1.599
   87SOPE   C12 8119   0.020   6.769   1.663
   87SOPE  H12A 8120   0.114   6.791   1.608
   87SOPE  H12B 8121   0.017   6.658   1.669
   87SOPE   C11 8122   0.036   0.038   1.799
   87SOPE  H11A 8123   0.039   0.147   1.782
   87SOPE  H11B 8124   0.134   0.003   1.838
   87SOPE     P 8125   6.616   0.104   1.921
   87SOPE   O13 8126   6.511   0.022   1.991
   87SOPE   O14 8127   6.574   0.155   1.788
   87SOPE   O12 8128   6.740   0.003   1.891
   87SOPE   O11 8129   6.672   0.213   2.020
   87SOPE    C1 8130   6.789   0.210   2.112
   87SOPE    HA 8131   0.029   0.313   2.119
   87SOPE    HB 8132   0.066   0.155   2.053
   87SOPE    C2 8133   6.754   0.156   2.251
   87SOPE    HS 8134   6.736   0.047   2.233
   87SOPE   O21 8135   6.658   0.236   2.314
   87SOPE   C21 8136   6.589   0.180   2.413
   87SOPE   O22 8137   6.586   0.062   2.444
   87SOPE   C22 8138   6.499   0.289   2.473
   87SOPE   H2R 8139   6.418   0.237   2.528
   87SOPE   H2S 8140   6.447   0.345   2.393
   87SOPE    C3 8141   0.094   0.164   2.325
   87SOPE    HX 8142   0.113   0.267   2.361
   87SOPE    HY 8143   0.175   0.139   2.253
   87SOPE   O31 8144   0.100   0.073   2.436
   87SOPE   C31 8145   0.119   6.741   2.412
   87SOPE   O32 8146   0.129   6.692   2.303
   87SOPE   C32 8147   0.120   6.661   2.536
   87SOPE   H2X 8148   0.226   6.639   2.564
   87SOPE   H2Y 8149   0.076   6.565   2.502
   87SOPE   C23 8150   6.570   0.404   2.555
   87SOPE   H3R 8151   6.487   0.461   2.602
   87SOPE   H3S 8152   6.634   0.464   2.488
   87SOPE   C24 8153   6.654   0.339   2.662
   87SOPE   H4R 8154   6.623   0.235   2.682
   87SOPE   H4S 8155   6.761   0.349   2.633
   87SOPE   C25 8156   6.631   0.400   2.803
   87SOPE   H5R 8157   6.718   0.382   2.871
   87SOPE   H5S 8158   6.644   0.510   2.790
   87SOPE   C26 8159   6.503   0.359   2.873
   87SOPE   H6R 8160   6.426   0.357   2.793
   87SOPE   H6S 8161   6.507   0.256   2.915
   87SOPE   C27 8162   6.472   0.466   2.983
   87SOPE   H7R 8163   6.514   0.563   2.949
   87SOPE   H7S 8164   6.364   0.475   3.003
   87SOPE   C28 8165   6.517   0.412   3.118
   87SOPE   H8R 8166   6.462   0.321   3.151
   87SOPE   H8S 8167   6.620   0.371   3.108
   87SOPE   C29 8168   6.530   0.526   3.210
   87SOPE   H91 8169   6.590   0.610   3.171
   87SOPE  C210 8170   6.479   0.530   3.334
   87SOPE  H101 8171   6.499   0.622   3.390
   87SOPE  C211 8172   6.405   0.419   3.410
   87SOPE  H11R 8173   6.393   0.321   3.360
   87SOPE  H11S 8174   6.307   0.468   3.432
   87SOPE  C212 8175   6.474   0.406   3.548
   87SOPE  H12R 8176   6.406   0.345   3.611
   87SOPE  H12S 8177   6.497   0.503   3.597
   87SOPE  C213 8178   6.598   0.322   3.543
   87SOPE  H13R 8179   6.651   0.355   3.450
   87SOPE  H13S 8180   6.577   0.213   3.536
   87SOPE  C214 8181   6.700   0.332   3.653
   87SOPE  H14R 8182   6.751   0.431   3.653
   87SOPE  H14S 8183   6.780   0.255   3.649
   87SOPE  C215 8184   6.637   0.326   3.799
   87SOPE  H15R 8185   6.595   0.226   3.822
   87SOPE  H15S 8186   6.562   0.407   3.805
   87SOPE  C216 8187   6.742   0.327   3.903
   87SOPE  H16R 8188   6.773   0.434   3.903
   87SOPE  H16S 8189   0.026   0.259   3.875
   87SOPE  C217 8190   6.686   0.287   4.034
   87SOPE  H17R 8191   6.655   0.180   4.038
   87SOPE  H17S 8192   6.582   0.325   4.047
   87SOPE  C218 8193   6.781   0.321   4.149
   87SOPE  H18R 8194   6.763   0.253   4.235
   87SOPE  H18S 8195   6.793   0.421   4.196
   87SOPE  H18T 8196   0.082   0.287   4.118
   87SOPE   C33 8197   0.031   6.699   2.653
   87SOPE   H3X 8198   0.013   6.603   2.706
   87SOPE   H3Y 8199   6.730   6.731   2.621
   87SOPE   C34 8200   0.084   0.009   2.743
   87SOPE   H4X 8201   0.095   0.104   2.686
   87SOPE   H4Y 8202   0.189   6.778   2.760
   87SOPE   C35 8203   0.016   0.026   2.879
   87SOPE   H5X 8204   6.777   6.725   2.902
   87SOPE   H5Y 8205   6.733   0.096   2.860
   87SOPE   C36 8206   0.108   0.067   2.993
   87SOPE   H6X 8207   0.146   0.170   2.984
   87SOPE   H6Y 8208   0.191   6.794   3.001
   87SOPE   C37 8209   0.018   0.050   3.126
   87SOPE   H7X 8210   6.776   6.748   3.127
   87SOPE   H7Y 8211   6.741   0.130   3.129
   87SOPE   C38 8212   0.120   0.075   3.239
   87SOPE   H8X 8213   0.141   0.180   3.267
   87SOPE   H8Y 8214   0.221   0.042   3.207
   87SOPE   C39 8215   0.061   0.008   3.369
   87SOPE   H9X 8216   0.053   6.700   3.345
   87SOPE   H9Y 8217   6.762   0.048   3.398
   87SOPE  C310 8218   0.145   0.023   3.492
   87SOPE  H10X 8219   0.146   0.132   3.509
   87SOPE  H10Y 8220   0.249   6.793   3.468
   87SOPE  C311 8221   0.092   6.743   3.613
   87SOPE  H11X 8222   0.108   6.634   3.599
   87SOPE  H11Y 8223   6.787   6.770   3.636
   87SOPE  C312 8224   0.176   6.791   3.732
   87SOPE  H12X 8225   0.179   0.102   3.728
   87SOPE  H12Y 8226   0.282   6.761   3.737
   87SOPE  C313 8227   0.118   6.731   3.859
   87SOPE  H13X 8228   0.144   6.623   3.856
   87SOPE  H13Y 8229   0.008   6.737   3.874
   87SOPE  C314 8230   0.185   6.782   3.990
   87SOPE  H14X 8231   0.160   0.088   4.014
   87SOPE  H14Y 8232   0.294   6.766   3.974
   87SOPE  C315 8233   0.146   6.702   4.119
   87SOPE  H15X 8234   0.185   6.600   4.102
   87SOPE  H15Y 8235   0.037   6.682   4.132
   87SOPE  C316 8236   0.215   6.764   4.245
   87SOPE  H16X 8237   0.191   0.070   4.260
   87SOPE  H16Y 8238   0.325   6.758   4.229
   87SOPE  C317 8239   0.186   6.685   4.379
   87SOPE  H17X 8240   0.244   6.591   4.369
   87SOPE  H17Y 8241   0.080   6.655   4.393
   87SOPE  C318 8242   0.218   6.750   4.515
   87SOPE  H18X 8243   0.317   0.000   4.515
   87SOPE  H18Y 8244   0.228   6.673   4.594
   87SOPE  H18Z 8245   0.134   0.019   4.535
   88SOPE     N 8246   1.380   5.409   2.249
   88SOPE   HN1 8247   1.480   5.437   2.242
   88SOPE   HN2 8248   1.362   5.320   2.198
   88SOPE   HN3 8249   1.320   5.480   2.201
   88SOPE   C12 8250   1.339   5.400   2.388
   88SOPE  H12A 8251   1.409   5.322   2.425
   88SOPE  H12B 8252   1.233   5.366   2.394
   88SOPE   C11 8253   1.347   5.533   2.458
   88SOPE  H11A 8254   1.443   5.582   2.432
   88SOPE  H11B 8255   1.347   5.510   2.567
   88SOPE     P 8256   1.229   5.724   2.299
   88SOPE   O13 8257   1.093   5.780   2.288
   88SOPE   O14 8258   1.281   5.642   2.188
   88SOPE   O12 8259   1.238   5.616   2.418
   88SOPE   O11 8260   1.331   5.832   2.338
   88SOPE    C1 8261   1.305   5.919   2.445
   88SOPE    HA 8262   1.199   5.916   2.479
   88SOPE    HB 8263   1.339   6.021   2.415
   88SOPE    C2 8264   1.391   5.888   2.569
   88SOPE    HS 8265   1.381   5.779   2.592
   88SOPE   O21 8266   1.349   5.970   2.681
   88SOPE   C21 8267   1.241   5.935   2.743
   88SOPE   O22 8268   1.172   5.838   2.717
   88SOPE   C22 8269   1.233   6.029   2.868
   88SOPE   H2R 8270   1.135   6.077   2.851
   88SOPE   H2S 8271   1.308   6.111   2.862
   88SOPE    C3 8272   1.538   5.903   2.518
   88SOPE    HX 8273   1.540   6.011   2.489
   88SOPE    HY 8274   1.546   5.847   2.422
   88SOPE   O31 8275   1.623   5.862   2.624
   88SOPE   C31 8276   1.741   5.927   2.635
   88SOPE   O32 8277   1.801   5.986   2.549
   88SOPE   C32 8278   1.784   5.904   2.773
   88SOPE   H2X 8279   1.887   5.945   2.787
   88SOPE   H2Y 8280   1.787   5.798   2.809
   88SOPE   C23 8281   1.223   5.948   2.997
   88SOPE   H3R 8282   1.313   5.886   3.017
   88SOPE   H3S 8283   1.138   5.877   2.996
   88SOPE   C24 8284   1.197   6.042   3.119
   88SOPE   H4R 8285   1.276   6.119   3.129
   88SOPE   H4S 8286   1.123   6.115   3.078
   88SOPE   C25 8287   1.153   5.975   3.250
   88SOPE   H5R 8288   1.052   5.931   3.240
   88SOPE   H5S 8289   1.233   5.899   3.263
   88SOPE   C26 8290   1.147   6.078   3.364
   88SOPE   H6R 8291   1.236   6.142   3.381
   88SOPE   H6S 8292   1.066   6.152   3.343
   88SOPE   C27 8293   1.119   6.008   3.499
   88SOPE   H7R 8294   1.018   5.963   3.503
   88SOPE   H7S 8295   1.192   5.925   3.511
   88SOPE   C28 8296   1.145   6.106   3.620
   88SOPE   H8R 8297   1.156   6.043   3.711
   88SOPE   H8S 8298   1.241   6.158   3.601
   88SOPE   C29 8299   1.024   6.201   3.610
   88SOPE   H91 8300   1.018   6.264   3.521
   88SOPE  C210 8301   0.932   6.207   3.708
   88SOPE  H101 8302   0.844   6.269   3.684
   88SOPE  C211 8303   0.928   6.125   3.834
   88SOPE  H11R 8304   1.029   6.089   3.864
   88SOPE  H11S 8305   0.870   6.034   3.809
   88SOPE  C212 8306   0.874   6.198   3.960
   88SOPE  H12R 8307   0.766   6.220   3.947
   88SOPE  H12S 8308   0.921   6.297   3.981
   88SOPE  C213 8309   0.888   6.100   4.077
   88SOPE  H13R 8310   0.992   6.066   4.093
   88SOPE  H13S 8311   0.829   6.007   4.061
   88SOPE  C214 8312   0.842   6.164   4.209
   88SOPE  H14R 8313   0.745   6.214   4.192
   88SOPE  H14S 8314   0.902   6.255   4.230
   88SOPE  C215 8315   0.841   6.062   4.322
   88SOPE  H15R 8316   0.875   6.111   4.417
   88SOPE  H15S 8317   0.914   5.979   4.311
   88SOPE  C216 8318   0.712   5.993   4.340
   88SOPE  H16R 8319   0.683   5.946   4.243
   88SOPE  H16S 8320   0.630   6.065   4.363
   88SOPE  C217 8321   0.707   5.881   4.436
   88SOPE  H17R 8322   0.791   5.808   4.426
   88SOPE  H17S 8323   0.622   5.816   4.408
   88SOPE  C218 8324   0.694   5.925   4.579
   88SOPE  H18R 8325   0.792   5.958   4.619
   88SOPE  H18S 8326   0.655   5.835   4.630
   88SOPE  H18T 8327   0.621   6.008   4.585
   88SOPE   C33 8328   1.693   5.975   2.874
   88SOPE   H3X 8329   1.589   5.953   2.845
   88SOPE   H3Y 8330   1.709   6.085   2.870
   88SOPE   C34 8331   1.712   5.930   3.017
   88SOPE   H4X 8332   1.818   5.941   3.047
   88SOPE   H4Y 8333   1.699   5.820   3.023
   88SOPE   C35 8334   1.621   5.996   3.119
   88SOPE   H5X 8335   1.516   5.969   3.094
   88SOPE   H5Y 8336   1.626   6.106   3.108
   88SOPE   C36 8337   1.671   5.963   3.262
   88SOPE   H6X 8338   1.773   6.007   3.268
   88SOPE   H6Y 8339   1.689   5.854   3.268
   88SOPE   C37 8340   1.570   6.022   3.369
   88SOPE   H7X 8341   1.474   5.966   3.362
   88SOPE   H7Y 8342   1.560   6.131   3.348
   88SOPE   C38 8343   1.633   6.018   3.508
   88SOPE   H8X 8344   1.727   6.078   3.505
   88SOPE   H8Y 8345   1.676   5.917   3.528
   88SOPE   C39 8346   1.536   6.073   3.611
   88SOPE   H9X 8347   1.451   6.004   3.629
   88SOPE   H9Y 8348   1.487   6.163   3.569
   88SOPE  C310 8349   1.611   6.112   3.739
   88SOPE  H10X 8350   1.535   6.157   3.806
   88SOPE  H10Y 8351   1.686   6.190   3.713
   88SOPE  C311 8352   1.681   5.991   3.813
   88SOPE  H11X 8353   1.770   6.028   3.869
   88SOPE  H11Y 8354   1.722   5.911   3.750
   88SOPE  C312 8355   1.584   5.935   3.920
   88SOPE  H12X 8356   1.588   5.989   4.016
   88SOPE  H12Y 8357   1.624   5.834   3.945
   88SOPE  C313 8358   1.436   5.923   3.883
   88SOPE  H13X 8359   1.429   5.846   3.803
   88SOPE  H13Y 8360   1.389   6.021   3.859
   88SOPE  C314 8361   1.354   5.873   3.998
   88SOPE  H14X 8362   1.363   5.763   4.014
   88SOPE  H14Y 8363   1.245   5.881   3.980
   88SOPE  C315 8364   1.380   5.945   4.128
   88SOPE  H15X 8365   1.380   6.054   4.107
   88SOPE  H15Y 8366   1.478   5.921   4.175
   88SOPE  C316 8367   1.270   5.917   4.231
   88SOPE  H16X 8368   1.243   5.812   4.209
   88SOPE  H16Y 8369   1.176   5.971   4.207
   88SOPE  C317 8370   1.314   5.941   4.381
   88SOPE  H17X 8371   1.360   6.042   4.369
   88SOPE  H17Y 8372   1.382   5.859   4.412
   88SOPE  C318 8373   1.195   5.939   4.474
   88SOPE  H18X 8374   1.235   5.983   4.568
   88SOPE  H18Y 8375   1.155   5.835   4.475
   88SOPE  H18Z 8376   1.117   6.006   4.433
   89SAPC     N 8377   5.366   2.952   6.833
   89SAPC   C12 8378   5.360   2.963   6.686
   89SAPC  H12A 8379   5.278   2.900   6.654
   89SAPC  H12B 8380   5.452   2.919   6.650
   89SAPC   C13 8381   5.371   2.814   6.883
   89SAPC  H13A 8382   5.287   2.756   6.848
   89SAPC  H13B 8383   5.459   2.760   6.852
   89SAPC  H13C 8384   5.369   2.812   6.991
   89SAPC   C14 8385   5.486   3.025   6.885
   89SAPC  H14A 8386   5.466   3.069   6.982
   89SAPC  H14B 8387   5.575   2.965   6.893
   89SAPC  H14C 8388   5.501   3.114   6.826
   89SAPC   C15 8389   5.243   3.010   6.890
   89SAPC  H15A 8390   5.151   2.962   6.862
   89SAPC  H15B 8391   5.242   3.016   6.998
   89SAPC  H15C 8392   5.234   3.109   6.849
   89SAPC   C11 8393   5.335   3.106   6.636
   89SAPC  H11A 8394   5.371   3.120   6.533
   89SAPC  H11B 8395   5.384   3.182   6.701
   89SAPC     P 8396   5.142   3.282   6.634
   89SAPC   O13 8397   4.997   3.288   6.593
   89SAPC   O14 8398   5.170   3.347   6.764
   89SAPC   O12 8399   5.198   3.135   6.631
   89SAPC   O11 8400   5.227   3.350   6.532
   89SAPC    C1 8401   5.215   3.337   6.395
   89SAPC    HA 8402   5.318   3.322   6.357
   89SAPC    HB 8403   5.150   3.252   6.364
   89SAPC    C2 8404   5.168   3.471   6.327
   89SAPC    HS 8405   5.069   3.503   6.365
   89SAPC   O21 8406   5.159   3.464   6.178
   89SAPC   C21 8407   5.058   3.389   6.141
   89SAPC   O22 8408   4.977   3.336   6.220
   89SAPC   C22 8409   5.039   3.377   5.995
   89SAPC   H2R 8410   5.023   3.480   5.956
   89SAPC   H2S 8411   5.130   3.332   5.949
   89SAPC    C3 8412   5.266   3.591   6.366
   89SAPC    HX 8413   5.366   3.567   6.324
   89SAPC    HY 8414   5.278   3.603   6.475
   89SAPC   O31 8415   5.224   3.718   6.307
   89SAPC   C31 8416   5.120   3.774   6.371
   89SAPC   O32 8417   5.060   3.729   6.466
   89SAPC   C32 8418   5.098   3.908   6.305
   89SAPC   H2X 8419   5.172   3.922   6.224
   89SAPC   H2Y 8420   5.133   3.982   6.379
   89SAPC   C23 8421   4.915   3.286   5.954
   89SAPC   H3R 8422   4.828   3.353   5.938
   89SAPC   H3S 8423   4.885   3.211   6.030
   89SAPC   C24 8424   4.958   3.212   5.828
   89SAPC   H4R 8425   5.046   3.154   5.861
   89SAPC   H4S 8426   4.979   3.293   5.755
   89SAPC   C25 8427   4.848   3.123   5.767
   89SAPC   H5R 8428   4.757   3.105   5.826
   89SAPC   C26 8429   4.848   3.074   5.636
   89SAPC   H6R 8430   4.766   3.006   5.608
   89SAPC   C27 8431   4.964   3.076   5.537
   89SAPC   H7R 8432   5.061   3.099   5.587
   89SAPC   H7S 8433   4.950   3.165   5.471
   89SAPC   C28 8434   4.983   2.940   5.464
   89SAPC   H8R 8435   4.998   2.851   5.527
   89SAPC   C29 8436   5.002   2.929   5.334
   89SAPC   H9R 8437   5.011   2.834   5.281
   89SAPC  C210 8438   4.990   3.049   5.240
   89SAPC  H10R 8439   5.030   3.141   5.286
   89SAPC  H10S 8440   4.879   3.050   5.226
   89SAPC  C211 8441   5.060   3.026   5.106
   89SAPC  H11R 8442   5.160   2.981   5.102
   89SAPC  C212 8443   5.014   3.052   4.984
   89SAPC  H12R 8444   5.083   3.032   4.900
   89SAPC  C213 8445   4.881   3.114   4.937
   89SAPC  H13R 8446   4.887   3.203   4.871
   89SAPC  H13S 8447   4.835   3.157   5.028
   89SAPC  C214 8448   4.804   3.002   4.881
   89SAPC  H14R 8449   4.843   2.900   4.891
   89SAPC  C215 8450   4.679   3.010   4.840
   89SAPC  H15R 8451   4.634   2.922   4.791
   89SAPC  C216 8452   4.609   3.144   4.815
   89SAPC  H16R 8453   4.578   3.138   4.709
   89SAPC  H16S 8454   4.677   3.231   4.825
   89SAPC  C217 8455   4.480   3.176   4.891
   89SAPC  H17R 8456   4.414   3.087   4.893
   89SAPC  H17S 8457   4.441   3.258   4.827
   89SAPC  C218 8458   4.511   3.217   5.033
   89SAPC  H18R 8459   4.436   3.293   5.065
   89SAPC  H18S 8460   4.603   3.280   5.035
   89SAPC  C219 8461   4.516   3.107   5.137
   89SAPC  H19R 8462   4.619   3.066   5.146
   89SAPC  H19S 8463   4.452   3.025   5.098
   89SAPC  C220 8464   4.478   3.142   5.283
   89SAPC  H20R 8465   4.375   3.183   5.273
   89SAPC  H20S 8466   4.557   3.217   5.305
   89SAPC  H20T 8467   4.490   3.056   5.352
   89SAPC   C33 8468   4.955   3.922   6.255
   89SAPC   H3X 8469   4.943   4.030   6.232
   89SAPC   H3Y 8470   4.877   3.889   6.326
   89SAPC   C34 8471   4.932   3.866   6.117
   89SAPC   H4X 8472   5.021   3.800   6.108
   89SAPC   H4Y 8473   4.943   3.944   6.039
   89SAPC   C35 8474   4.800   3.787   6.105
   89SAPC   H5X 8475   4.716   3.860   6.103
   89SAPC   H5Y 8476   4.804   3.705   6.180
   89SAPC   C36 8477   4.783   3.718   5.963
   89SAPC   H6X 8478   4.877   3.668   5.930
   89SAPC   H6Y 8479   4.772   3.799   5.888
   89SAPC   C37 8480   4.661   3.626   5.965
   89SAPC   H7X 8481   4.563   3.665   5.998
   89SAPC   H7Y 8482   4.689   3.531   6.016
   89SAPC   C38 8483   4.638   3.581   5.818
   89SAPC   H8X 8484   4.732   3.534   5.781
   89SAPC   H8Y 8485   4.615   3.676   5.766
   89SAPC   C39 8486   4.529   3.474   5.797
   89SAPC   H9X 8487   4.428   3.519   5.808
   89SAPC   H9Y 8488   4.548   3.395   5.873
   89SAPC  C310 8489   4.533   3.395   5.658
   89SAPC  H10X 8490   4.496   3.291   5.667
   89SAPC  H10Y 8491   4.640   3.382   5.630
   89SAPC  C311 8492   4.440   3.461   5.554
   89SAPC  H11X 8493   4.339   3.470   5.599
   89SAPC  H11Y 8494   4.437   3.387   5.471
   89SAPC  C312 8495   4.495   3.595   5.502
   89SAPC  H12X 8496   4.604   3.578   5.494
   89SAPC  H12Y 8497   4.478   3.670   5.582
   89SAPC  C313 8498   4.432   3.627   5.371
   89SAPC  H13X 8499   4.387   3.728   5.373
   89SAPC  H13Y 8500   4.350   3.551   5.364
   89SAPC  C314 8501   4.515   3.595   5.243
   89SAPC  H14X 8502   4.531   3.485   5.233
   89SAPC  H14Y 8503   4.611   3.651   5.246
   89SAPC  C315 8504   4.440   3.631   5.122
   89SAPC  H15X 8505   4.429   3.742   5.122
   89SAPC  H15Y 8506   4.341   3.582   5.118
   89SAPC  C316 8507   4.526   3.592   4.994
   89SAPC  H16X 8508   4.574   3.495   5.018
   89SAPC  H16Y 8509   4.604   3.666   4.967
   89SAPC  C317 8510   4.430   3.566   4.879
   89SAPC  H17X 8511   4.366   3.481   4.911
   89SAPC  H17Y 8512   4.490   3.520   4.798
   89SAPC  C318 8513   4.349   3.677   4.818
   89SAPC  H18X 8514   4.421   3.760   4.798
   89SAPC  H18Y 8515   4.273   3.723   4.885
   89SAPC  H18Z 8516   4.300   3.635   4.728
   90SAPC     N 8517   2.909   6.682   6.707
   90SAPC   C12 8518   3.002   6.563   6.736
   90SAPC  H12A 8519   2.961   6.499   6.813
   90SAPC  H12B 8520   3.094   6.605   6.774
   90SAPC   C13 8521   2.771   6.632   6.663
   90SAPC  H13A 8522   2.703   6.713   6.639
   90SAPC  H13B 8523   2.778   6.580   6.569
   90SAPC  H13C 8524   2.724   6.575   6.741
   90SAPC   C14 8525   2.893   6.754   6.832
   90SAPC  H14A 8526   2.865   6.685   6.910
   90SAPC  H14B 8527   2.993   6.780   6.863
   90SAPC  H14C 8528   2.824   0.037   6.839
   90SAPC   C15 8529   2.966   6.771   6.598
   90SAPC  H15A 8530   2.897   0.042   6.556
   90SAPC  H15B 8531   3.049   0.028   6.635
   90SAPC  H15C 8532   2.994   6.710   6.513
   90SAPC   C11 8533   3.037   6.472   6.622
   90SAPC  H11A 8534   3.085   6.511   6.530
   90SAPC  H11B 8535   2.946   6.423   6.583
   90SAPC     P 8536   3.270   6.376   6.672
   90SAPC   O13 8537   3.315   6.499   6.740
   90SAPC   O14 8538   3.319   6.245   6.708
   90SAPC   O12 8539   3.115   6.373   6.694
   90SAPC   O11 8540   3.284   6.401   6.520
   90SAPC    C1 8541   3.223   6.305   6.423
   90SAPC    HA 8542   3.196   6.207   6.467
   90SAPC    HB 8543   3.140   6.358   6.373
   90SAPC    C2 8544   3.332   6.272   6.326
   90SAPC    HS 8545   3.382   6.369   6.304
   90SAPC   O21 8546   3.266   6.234   6.208
   90SAPC   C21 8547   3.348   6.234   6.105
   90SAPC   O22 8548   3.464   6.278   6.104
   90SAPC   C22 8549   3.277   6.165   5.986
   90SAPC   H2R 8550   3.175   6.210   5.976
   90SAPC   H2S 8551   3.332   6.187   5.893
   90SAPC    C3 8552   3.434   6.166   6.375
   90SAPC    HX 8553   3.474   6.212   6.468
   90SAPC    HY 8554   3.515   6.166   6.299
   90SAPC   O31 8555   3.376   6.039   6.409
   90SAPC   C31 8556   3.456   5.929   6.390
   90SAPC   O32 8557   3.570   5.934   6.339
   90SAPC   C32 8558   3.387   5.799   6.430
   90SAPC   H2X 8559   3.432   5.749   6.519
   90SAPC   H2Y 8560   3.401   5.733   6.341
   90SAPC   C23 8561   3.272   6.013   6.016
   90SAPC   H3R 8562   3.188   5.963   5.962
   90SAPC   H3S 8563   3.227   6.003   6.117
   90SAPC   C24 8564   3.409   5.942   6.006
   90SAPC   H4R 8565   3.392   5.849   6.065
   90SAPC   H4S 8566   3.482   6.006   6.058
   90SAPC   C25 8567   3.446   5.924   5.862
   90SAPC   H5R 8568   3.513   6.005   5.831
   90SAPC   C26 8569   3.429   5.816   5.786
   90SAPC   H6R 8570   3.455   5.824   5.680
   90SAPC   C27 8571   3.377   5.681   5.826
   90SAPC   H7R 8572   3.429   5.660   5.922
   90SAPC   H7S 8573   3.403   5.608   5.746
   90SAPC   C28 8574   3.233   5.681   5.855
   90SAPC   H8R 8575   3.211   5.697   5.962
   90SAPC   C29 8576   3.132   5.664   5.770
   90SAPC   H9R 8577   3.029   5.676   5.806
   90SAPC  C210 8578   3.155   5.670   5.624
   90SAPC  H10R 8579   3.179   5.568   5.588
   90SAPC  H10S 8580   3.253   5.717   5.599
   90SAPC  C211 8581   3.050   5.734   5.550
   90SAPC  H11R 8582   2.962   5.772   5.603
   90SAPC  C212 8583   3.043   5.743   5.406
   90SAPC  H12R 8584   2.957   5.791   5.358
   90SAPC  C213 8585   3.148   5.691   5.306
   90SAPC  H13R 8586   3.229   5.640   5.363
   90SAPC  H13S 8587   3.182   5.785   5.258
   90SAPC  C214 8588   3.073   5.602   5.204
   90SAPC  H14R 8589   3.042   5.504   5.244
   90SAPC  C215 8590   3.051   5.626   5.068
   90SAPC  H15R 8591   2.992   5.552   5.012
   90SAPC  C216 8592   3.111   5.741   4.994
   90SAPC  H16R 8593   3.194   5.705   4.929
   90SAPC  H16S 8594   3.158   5.814   5.063
   90SAPC  C217 8595   3.002   5.800   4.901
   90SAPC  H17R 8596   2.931   5.845   4.974
   90SAPC  H17S 8597   2.940   5.728   4.843
   90SAPC  C218 8598   3.038   5.914   4.806
   90SAPC  H18R 8599   3.122   5.960   4.862
   90SAPC  H18S 8600   2.948   5.978   4.794
   90SAPC  C219 8601   3.080   5.848   4.679
   90SAPC  H19R 8602   2.998   5.792   4.629
   90SAPC  H19S 8603   3.166   5.780   4.689
   90SAPC  C220 8604   3.121   5.962   4.583
   90SAPC  H20R 8605   3.032   6.025   4.564
   90SAPC  H20S 8606   3.159   5.923   4.486
   90SAPC  H20T 8607   3.181   6.045   4.626
   90SAPC   C33 8608   3.233   5.827   6.454
   90SAPC   H3X 8609   3.186   5.882   6.370
   90SAPC   H3Y 8610   3.224   5.892   6.543
   90SAPC   C34 8611   3.158   5.693   6.467
   90SAPC   H4X 8612   3.059   5.728   6.503
   90SAPC   H4Y 8613   3.193   5.632   6.553
   90SAPC   C35 8614   3.144   5.611   6.334
   90SAPC   H5X 8615   3.239   5.572   6.292
   90SAPC   H5Y 8616   3.106   5.689   6.264
   90SAPC   C36 8617   3.046   5.492   6.347
   90SAPC   H6X 8618   2.953   5.532   6.393
   90SAPC   H6Y 8619   3.081   5.420   6.424
   90SAPC   C37 8620   3.014   5.441   6.205
   90SAPC   H7X 8621   3.101   5.385   6.165
   90SAPC   H7Y 8622   3.005   5.527   6.134
   90SAPC   C38 8623   2.882   5.365   6.194
   90SAPC   H8X 8624   2.796   5.432   6.217
   90SAPC   H8Y 8625   2.868   5.275   6.258
   90SAPC   C39 8626   2.859   5.313   6.049
   90SAPC   H9X 8627   2.799   5.220   6.036
   90SAPC   H9Y 8628   2.960   5.286   6.011
   90SAPC  C310 8629   2.803   5.406   5.948
   90SAPC  H10X 8630   2.859   5.498   5.922
   90SAPC  H10Y 8631   2.707   5.450   5.983
   90SAPC  C311 8632   2.764   5.339   5.816
   90SAPC  H11X 8633   2.666   5.291   5.834
   90SAPC  H11Y 8634   2.826   5.248   5.799
   90SAPC  C312 8635   2.780   5.435   5.691
   90SAPC  H12X 8636   2.888   5.456   5.671
   90SAPC  H12Y 8637   2.719   5.524   5.716
   90SAPC  C313 8638   2.716   5.376   5.563
   90SAPC  H13X 8639   2.607   5.359   5.576
   90SAPC  H13Y 8640   2.758   5.275   5.543
   90SAPC  C314 8641   2.731   5.475   5.447
   90SAPC  H14X 8642   2.840   5.497   5.437
   90SAPC  H14Y 8643   2.683   5.570   5.478
   90SAPC  C315 8644   2.674   5.408   5.321
   90SAPC  H15X 8645   2.565   5.429   5.316
   90SAPC  H15Y 8646   2.685   5.298   5.328
   90SAPC  C316 8647   2.743   5.446   5.193
   90SAPC  H16X 8648   2.852   5.430   5.206
   90SAPC  H16Y 8649   2.731   5.556   5.181
   90SAPC  C317 8650   2.679   5.368   5.075
   90SAPC  H17X 8651   2.575   5.408   5.069
   90SAPC  H17Y 8652   2.676   5.260   5.101
   90SAPC  C318 8653   2.755   5.406   4.947
   90SAPC  H18X 8654   2.729   5.343   4.859
   90SAPC  H18Y 8655   2.866   5.398   4.951
   90SAPC  H18Z 8656   2.729   5.508   4.911
   91SAPC     N 8657   0.617   5.651   7.355
   91SAPC   C12 8658   0.469   5.617   7.384
   91SAPC  H12A 8659   0.420   5.713   7.374
   91SAPC  H12B 8660   0.465   5.589   7.488
   91SAPC   C13 8661   0.635   5.679   7.210
   91SAPC  H13A 8662   0.607   5.588   7.158
   91SAPC  H13B 8663   0.579   5.761   7.168
   91SAPC  H13C 8664   0.738   5.709   7.204
   91SAPC   C14 8665   0.656   5.772   7.435
   91SAPC  H14A 8666   0.606   5.865   7.412
   91SAPC  H14B 8667   0.653   5.759   7.542
   91SAPC  H14C 8668   0.763   5.781   7.433
   91SAPC   C15 8669   0.711   5.548   7.414
   91SAPC  H15A 8670   0.812   5.566   7.380
   91SAPC  H15B 8671   0.713   5.546   7.522
   91SAPC  H15C 8672   0.680   5.451   7.378
   91SAPC   C11 8673   0.390   5.511   7.306
   91SAPC  H11A 8674   0.296   5.496   7.363
   91SAPC  H11B 8675   0.445   5.415   7.309
   91SAPC     P 8676   0.249   5.647   7.134
   91SAPC   O13 8677   0.130   5.567   7.119
   91SAPC   O14 8678   0.254   5.770   7.222
   91SAPC   O12 8679   0.366   5.552   7.168
   91SAPC   O11 8680   0.299   5.697   6.994
   91SAPC    C1 8681   0.347   5.607   6.890
   91SAPC    HA 8682   0.455   5.588   6.907
   91SAPC    HB 8683   0.285   5.515   6.881
   91SAPC    C2 8684   0.333   5.653   6.741
   91SAPC    HS 8685   0.344   5.562   6.677
   91SAPC   O21 8686   0.426   5.749   6.708
   91SAPC   C21 8687   0.552   5.718   6.681
   91SAPC   O22 8688   0.608   5.612   6.703
   91SAPC   C22 8689   0.615   5.848   6.640
   91SAPC   H2R 8690   0.531   5.916   6.614
   91SAPC   H2S 8691   0.665   5.903   6.722
   91SAPC    C3 8692   0.192   5.725   6.727
   91SAPC    HX 8693   0.198   5.817   6.789
   91SAPC    HY 8694   0.112   5.660   6.768
   91SAPC   O31 8695   0.152   5.742   6.586
   91SAPC   C31 8696   0.198   5.852   6.524
   91SAPC   O32 8697   0.270   5.938   6.572
   91SAPC   C32 8698   0.144   5.862   6.386
   91SAPC   H2X 8699   0.069   5.944   6.383
   91SAPC   H2Y 8700   0.094   5.765   6.361
   91SAPC   C23 8701   0.705   5.830   6.515
   91SAPC   H3R 8702   0.653   5.766   6.440
   91SAPC   H3S 8703   0.806   5.791   6.540
   91SAPC   C24 8704   0.718   5.962   6.436
   91SAPC   H4R 8705   0.787   6.017   6.502
   91SAPC   H4S 8706   0.626   6.021   6.415
   91SAPC   C25 8707   0.796   5.936   6.309
   91SAPC   H5R 8708   0.891   5.882   6.328
   91SAPC   C26 8709   0.766   5.978   6.181
   91SAPC   H6R 8710   0.845   5.964   6.105
   91SAPC   C27 8711   0.645   6.056   6.123
   91SAPC   H7R 8712   0.562   6.079   6.193
   91SAPC   H7S 8713   0.585   5.993   6.055
   91SAPC   C28 8714   0.676   6.191   6.057
   91SAPC   H8R 8715   0.715   6.264   6.130
   91SAPC   C29 8716   0.681   6.230   5.928
   91SAPC   H9R 8717   0.714   6.332   5.901
   91SAPC  C210 8718   0.638   6.144   5.820
   91SAPC  H10R 8719   0.538   6.178   5.786
   91SAPC  H10S 8720   0.628   6.039   5.855
   91SAPC  C211 8721   0.735   6.156   5.703
   91SAPC  H11R 8722   0.809   6.236   5.716
   91SAPC  C212 8723   0.748   6.064   5.607
   91SAPC  H12R 8724   0.822   6.087   5.529
   91SAPC  C213 8725   0.670   5.938   5.572
   91SAPC  H13R 8726   0.585   5.967   5.507
   91SAPC  H13S 8727   0.622   5.894   5.662
   91SAPC  C214 8728   0.745   5.827   5.494
   91SAPC  H14R 8729   0.797   5.748   5.551
   91SAPC  C215 8730   0.748   5.809   5.364
   91SAPC  H15R 8731   0.822   5.736   5.328
   91SAPC  C216 8732   0.700   5.909   5.261
   91SAPC  H16R 8733   0.685   6.012   5.301
   91SAPC  H16S 8734   0.609   5.873   5.209
   91SAPC  C217 8735   0.799   5.921   5.146
   91SAPC  H17R 8736   0.757   6.000   5.080
   91SAPC  H17S 8737   0.789   5.829   5.084
   91SAPC  C218 8738   0.943   5.965   5.177
   91SAPC  H18R 8739   0.993   5.876   5.220
   91SAPC  H18S 8740   0.953   6.053   5.244
   91SAPC  C219 8741   1.026   6.016   5.055
   91SAPC  H19R 8742   1.108   6.078   5.096
   91SAPC  H19S 8743   0.970   6.089   4.992
   91SAPC  C220 8744   1.091   5.900   4.975
   91SAPC  H20R 8745   1.022   5.831   4.922
   91SAPC  H20S 8746   1.147   5.843   5.052
   91SAPC  H20T 8747   1.171   5.934   4.906
   91SAPC   C33 8748   0.259   5.895   6.292
   91SAPC   H3X 8749   0.345   5.831   6.321
   91SAPC   H3Y 8750   0.290   6.002   6.298
   91SAPC   C34 8751   0.219   5.858   6.149
   91SAPC   H4X 8752   0.200   5.749   6.142
   91SAPC   H4Y 8753   0.307   5.884   6.087
   91SAPC   C35 8754   0.097   5.953   6.094
   91SAPC   H5X 8755   0.121   6.060   6.116
   91SAPC   H5Y 8756   0.005   5.936   6.155
   91SAPC   C36 8757   0.066   5.935   5.943
   91SAPC   H6X 8758   0.161   5.927   5.886
   91SAPC   H6Y 8759   0.017   6.030   5.915
   91SAPC   C37 8760   6.775   5.817   5.912
   91SAPC   H7X 8761   6.693   5.815   5.987
   91SAPC   H7Y 8762   0.039   5.728   5.926
   91SAPC   C38 8763   6.704   5.809   5.777
   91SAPC   H8X 8764   6.629   5.891   5.770
   91SAPC   H8Y 8765   6.645   5.717   5.760
   91SAPC   C39 8766   0.005   5.822   5.665
   91SAPC   H9X 8767   0.071   5.732   5.667
   91SAPC   H9Y 8768   0.073   5.909   5.678
   91SAPC  C310 8769   6.730   5.826   5.529
   91SAPC  H10X 8770   6.680   5.922   5.503
   91SAPC  H10Y 8771   6.649   5.750   5.528
   91SAPC  C311 8772   0.025   5.795   5.417
   91SAPC  H11X 8773   0.038   5.685   5.409
   91SAPC  H11Y 8774   0.127   5.838   5.428
   91SAPC  C312 8775   6.761   5.823   5.280
   91SAPC  H12X 8776   6.729   5.929   5.282
   91SAPC  H12Y 8777   6.675   5.751   5.278
   91SAPC  C313 8778   0.045   5.802   5.150
   91SAPC  H13X 8779   0.068   5.693   5.143
   91SAPC  H13Y 8780   0.138   5.858   5.167
   91SAPC  C314 8781   6.784   5.856   5.021
   91SAPC  H14X 8782   6.754   5.961   5.042
   91SAPC  H14Y 8783   6.689   5.809   4.988
   91SAPC  C315 8784   0.093   5.852   4.914
   91SAPC  H15X 8785   0.108   5.747   4.881
   91SAPC  H15Y 8786   0.187   5.892   4.957
   91SAPC  C316 8787   0.057   5.932   4.789
   91SAPC  H16X 8788   0.082   6.039   4.809
   91SAPC  H16Y 8789   6.754   5.927   4.750
   91SAPC  C317 8790   0.133   5.895   4.656
   91SAPC  H17X 8791   0.120   5.972   4.576
   91SAPC  H17Y 8792   0.095   5.799   4.616
   91SAPC  C318 8793   0.284   5.884   4.678
   91SAPC  H18X 8794   0.308   5.969   4.745
   91SAPC  H18Y 8795   0.334   5.894   4.579
   91SAPC  H18Z 8796   0.308   5.784   4.718
   92SAPC     N 8797   6.400   4.442   7.240
   92SAPC   C12 8798   6.307   4.562   7.267
   92SAPC  H12A 8799   6.205   4.532   7.288
   92SAPC  H12B 8800   6.288   4.611   7.172
   92SAPC   C13 8801   6.524   4.500   7.179
   92SAPC  H13A 8802   6.556   4.583   7.240
   92SAPC  H13B 8803   6.595   4.419   7.182
   92SAPC  H13C 8804   6.512   4.528   7.075
   92SAPC   C14 8805   6.429   4.377   7.375
   92SAPC  H14A 8806   6.450   4.455   7.446
   92SAPC  H14B 8807   6.342   4.323   7.409
   92SAPC  H14C 8808   6.507   4.303   7.367
   92SAPC   C15 8809   6.341   4.355   7.135
   92SAPC  H15A 8810   6.250   4.307   7.167
   92SAPC  H15B 8811   6.310   4.420   7.055
   92SAPC  H15C 8812   6.403   4.273   7.100
   92SAPC   C11 8813   6.342   4.670   7.371
   92SAPC  H11A 8814   6.371   4.634   7.472
   92SAPC  H11B 8815   6.254   4.734   7.395
   92SAPC     P 8816   6.422   4.850   7.202
   92SAPC   O13 8817   6.278   4.873   7.193
   92SAPC   O14 8818   6.508   4.972   7.210
   92SAPC   O12 8819   6.454   4.749   7.325
   92SAPC   O11 8820   6.468   4.762   7.081
   92SAPC    C1 8821   6.597   4.768   7.017
   92SAPC    HA 8822   6.678   4.796   7.088
   92SAPC    HB 8823   6.625   4.673   6.966
   92SAPC    C2 8824   6.610   4.872   6.902
   92SAPC    HS 8825   6.570   4.965   6.948
   92SAPC   O21 8826   6.528   4.828   6.792
   92SAPC   C21 8827   6.464   4.917   6.721
   92SAPC   O22 8828   6.467   5.038   6.734
   92SAPC   C22 8829   6.374   4.843   6.620
   92SAPC   H2R 8830   6.458   4.798   6.562
   92SAPC   H2S 8831   6.307   4.771   6.671
   92SAPC    C3 8832   6.759   4.903   6.865
   92SAPC    HX 8833   0.002   4.802   6.852
   92SAPC    HY 8834   0.008   4.947   6.954
   92SAPC   O31 8835   6.773   4.992   6.746
   92SAPC   C31 8836   6.793   5.120   6.772
   92SAPC   O32 8837   0.000   5.173   6.883
   92SAPC   C32 8838   0.003   5.190   6.638
   92SAPC   H2X 8839   6.705   5.179   6.586
   92SAPC   H2Y 8840   0.077   5.140   6.572
   92SAPC   C23 8841   6.288   4.936   6.528
   92SAPC   H3R 8842   6.347   5.027   6.503
   92SAPC   H3S 8843   6.201   4.981   6.581
   92SAPC   C24 8844   6.246   4.849   6.411
   92SAPC   H4R 8845   6.164   4.909   6.365
   92SAPC   H4S 8846   6.198   4.756   6.447
   92SAPC   C25 8847   6.353   4.822   6.313
   92SAPC   H5R 8848   6.452   4.819   6.359
   92SAPC   C26 8849   6.340   4.790   6.182
   92SAPC   H6R 8850   6.430   4.772   6.122
   92SAPC   C27 8851   6.202   4.786   6.115
   92SAPC   H7R 8852   6.122   4.809   6.188
   92SAPC   H7S 8853   6.182   4.681   6.084
   92SAPC   C28 8854   6.193   4.881   6.002
   92SAPC   H8R 8855   6.200   4.988   6.026
   92SAPC   C29 8856   6.159   4.850   5.874
   92SAPC   H9R 8857   6.166   4.933   5.802
   92SAPC  C210 8858   6.130   4.719   5.812
   92SAPC  H10R 8859   6.025   4.706   5.777
   92SAPC  H10S 8860   6.132   4.637   5.887
   92SAPC  C211 8861   6.233   4.702   5.707
   92SAPC  H11R 8862   6.326   4.674   5.759
   92SAPC  C212 8863   6.222   4.719   5.574
   92SAPC  H12R 8864   6.316   4.710   5.518
   92SAPC  C213 8865   6.097   4.770   5.504
   92SAPC  H13R 8866   6.128   4.836   5.420
   92SAPC  H13S 8867   6.025   4.824   5.568
   92SAPC  C214 8868   6.007   4.664   5.461
   92SAPC  H14R 8869   5.923   4.636   5.526
   92SAPC  C215 8870   6.008   4.608   5.330
   92SAPC  H15R 8871   5.932   4.538   5.293
   92SAPC  C216 8872   6.123   4.634   5.241
   92SAPC  H16R 8873   6.181   4.539   5.237
   92SAPC  H16S 8874   6.200   4.708   5.271
   92SAPC  C217 8875   6.071   4.666   5.102
   92SAPC  H17R 8876   6.017   4.763   5.097
   92SAPC  H17S 8877   6.008   4.587   5.056
   92SAPC  C218 8878   6.193   4.683   5.007
   92SAPC  H18R 8879   6.262   4.596   5.012
   92SAPC  H18S 8880   6.259   4.769   5.034
   92SAPC  C219 8881   6.156   4.688   4.857
   92SAPC  H19R 8882   6.067   4.752   4.839
   92SAPC  H19S 8883   6.127   4.584   4.830
   92SAPC  C220 8884   6.274   4.730   4.764
   92SAPC  H20R 8885   6.311   4.832   4.789
   92SAPC  H20S 8886   6.246   4.728   4.657
   92SAPC  H20T 8887   6.362   4.664   4.781
   92SAPC   C33 8888   0.054   5.331   6.668
   92SAPC   H3X 8889   0.164   5.331   6.682
   92SAPC   H3Y 8890   0.002   5.381   6.752
   92SAPC   C34 8891   0.022   5.430   6.552
   92SAPC   H4X 8892   0.076   5.525   6.571
   92SAPC   H4Y 8893   6.716   5.460   6.542
   92SAPC   C35 8894   0.061   5.379   6.418
   92SAPC   H5X 8895   6.780   5.397   6.344
   92SAPC   H5Y 8896   0.086   5.271   6.418
   92SAPC   C36 8897   0.185   5.466   6.363
   92SAPC   H6X 8898   0.278   5.435   6.415
   92SAPC   H6Y 8899   0.162   5.572   6.389
   92SAPC   C37 8900   0.202   5.458   6.214
   92SAPC   H7X 8901   0.285   5.525   6.182
   92SAPC   H7Y 8902   0.109   5.495   6.164
   92SAPC   C38 8903   0.238   5.317   6.168
   92SAPC   H8X 8904   0.158   5.242   6.182
   92SAPC   H8Y 8905   0.337   5.293   6.212
   92SAPC   C39 8906   0.274   5.317   6.012
   92SAPC   H9X 8907   0.372   5.366   5.996
   92SAPC   H9Y 8908   0.198   5.384   5.966
   92SAPC  C310 8909   0.270   5.185   5.945
   92SAPC  H10X 8910   0.162   5.158   5.945
   92SAPC  H10Y 8911   0.332   5.107   5.995
   92SAPC  C311 8912   0.291   5.193   5.795
   92SAPC  H11X 8913   0.395   5.209   5.759
   92SAPC  H11Y 8914   0.240   5.281   5.749
   92SAPC  C312 8915   0.241   5.061   5.724
   92SAPC  H12X 8916   0.130   5.069   5.727
   92SAPC  H12Y 8917   0.265   4.974   5.788
   92SAPC  C313 8918   0.282   5.042   5.577
   92SAPC  H13X 8919   0.276   5.146   5.540
   92SAPC  H13Y 8920   0.218   4.964   5.532
   92SAPC  C314 8921   0.428   4.989   5.559
   92SAPC  H14X 8922   0.451   4.890   5.605
   92SAPC  H14Y 8923   0.493   5.063   5.611
   92SAPC  C315 8924   0.478   4.972   5.413
   92SAPC  H15X 8925   0.420   4.904   5.347
   92SAPC  H15Y 8926   0.586   4.946   5.413
   92SAPC  C316 8927   0.482   5.115   5.348
   92SAPC  H16X 8928   0.537   5.194   5.402
   92SAPC  H16Y 8929   0.376   5.148   5.350
   92SAPC  C317 8930   0.512   5.099   5.205
   92SAPC  H17X 8931   0.492   5.199   5.161
   92SAPC  H17Y 8932   0.443   5.026   5.157
   92SAPC  C318 8933   0.662   5.065   5.169
   92SAPC  H18X 8934   0.693   4.958   5.165
   92SAPC  H18Y 8935   0.740   5.115   5.230
   92SAPC  H18Z 8936   0.689   5.100   5.067
   93SAPC     N 8937   1.117   6.688   6.993
   93SAPC   C12 8938   1.109   6.716   6.845
   93SAPC  H12A 8939   1.206   6.748   6.810
   93SAPC  H12B 8940   1.037   6.794   6.830
   93SAPC   C13 8941   1.171   0.008   7.066
   93SAPC  H13A 8942   1.176   6.792   7.172
   93SAPC  H13B 8943   1.270   0.027   7.026
   93SAPC  H13C 8944   1.112   0.094   7.037
   93SAPC   C14 8945   0.982   6.648   7.059
   93SAPC  H14A 8946   0.933   6.574   6.997
   93SAPC  H14B 8947   0.996   6.599   7.155
   93SAPC  H14C 8948   0.909   6.727   7.065
   93SAPC   C15 8949   1.220   6.578   7.020
   93SAPC  H15A 8950   1.251   6.587   7.123
   93SAPC  H15B 8951   1.187   6.479   6.995
   93SAPC  H15C 8952   1.314   6.592   6.968
   93SAPC   C11 8953   1.062   6.600   6.755
   93SAPC  H11A 8954   1.056   6.639   6.650
   93SAPC  H11B 8955   0.961   6.575   6.793
   93SAPC     P 8956   1.278   6.494   6.682
   93SAPC   O13 8957   1.354   6.615   6.722
   93SAPC   O14 8958   1.348   6.360   6.690
   93SAPC   O12 8959   1.142   6.487   6.760
   93SAPC   O11 8960   1.230   6.515   6.533
   93SAPC    C1 8961   1.116   6.447   6.483
   93SAPC    HA 8962   1.090   6.368   6.557
   93SAPC    HB 8963   1.033   6.521   6.486
   93SAPC    C2 8964   1.131   6.395   6.339
   93SAPC    HS 8965   1.207   6.315   6.348
   93SAPC   O21 8966   1.158   6.514   6.254
   93SAPC   C21 8967   1.263   6.498   6.180
   93SAPC   O22 8968   1.341   6.407   6.196
   93SAPC   C22 8969   1.277   6.620   6.087
   93SAPC   H2R 8970   1.183   6.644   6.033
   93SAPC   H2S 8971   1.299   6.707   6.153
   93SAPC    C3 8972   0.998   6.329   6.299
   93SAPC    HX 8973   0.918   6.406   6.302
   93SAPC    HY 8974   0.976   6.254   6.378
   93SAPC   O31 8975   0.994   6.277   6.163
   93SAPC   C31 8976   1.045   6.156   6.148
   93SAPC   O32 8977   1.106   6.093   6.232
   93SAPC   C32 8978   1.032   6.112   6.004
   93SAPC   H2X 8979   0.924   6.107   5.977
   93SAPC   H2Y 8980   1.078   6.012   5.990
   93SAPC   C23 8981   1.388   6.611   5.984
   93SAPC   H3R 8982   1.489   6.582   6.021
   93SAPC   H3S 8983   1.409   6.712   5.942
   93SAPC   C24 8984   1.345   6.516   5.872
   93SAPC   H4R 8985   1.244   6.553   5.846
   93SAPC   H4S 8986   1.333   6.411   5.907
   93SAPC   C25 8987   1.447   6.518   5.756
   93SAPC   H5R 8988   1.532   6.450   5.770
   93SAPC   C26 8989   1.445   6.598   5.651
   93SAPC   H6R 8990   1.525   6.585   5.577
   93SAPC   C27 8991   1.356   6.708   5.615
   93SAPC   H7R 8992   1.418   6.798   5.598
   93SAPC   H7S 8993   1.289   6.740   5.697
   93SAPC   C28 8994   1.274   6.668   5.492
   93SAPC   H8R 8995   1.199   6.588   5.496
   93SAPC   C29 8996   1.306   6.712   5.363
   93SAPC   H9R 8997   1.232   6.696   5.284
   93SAPC  C210 8998   1.421   0.005   5.330
   93SAPC  H10R 8999   1.512   6.749   5.301
   93SAPC  H10S 9000   1.441   0.070   5.417
   93SAPC  C211 9001   1.391   0.102   5.218
   93SAPC  H11R 9002   1.297   0.156   5.238
   93SAPC  C212 9003   1.468   0.139   5.119
   93SAPC  H12R 9004   1.431   0.214   5.048
   93SAPC  C213 9005   1.596   0.075   5.070
   93SAPC  H13R 9006   1.671   0.072   5.152
   93SAPC  H13S 9007   1.652   0.132   4.992
   93SAPC  C214 9008   1.582   6.737   5.011
   93SAPC  H14R 9009   1.578   6.659   5.088
   93SAPC  C215 9010   1.576   6.699   4.880
   93SAPC  H15R 9011   1.562   6.593   4.853
   93SAPC  C216 9012   1.570   0.003   4.770
   93SAPC  H16R 9013   1.665   0.055   4.744
   93SAPC  H16S 9014   1.498   0.086   4.787
   93SAPC  C217 9015   1.524   6.741   4.635
   93SAPC  H17R 9016   1.434   6.679   4.653
   93SAPC  H17S 9017   1.589   6.656   4.608
   93SAPC  C218 9018   1.502   0.042   4.522
   93SAPC  H18R 9019   1.599   0.087   4.492
   93SAPC  H18S 9020   1.430   0.122   4.549
   93SAPC  C219 9021   1.446   6.769   4.400
   93SAPC  H19R 9022   1.339   6.739   4.411
   93SAPC  H19S 9023   1.505   6.675   4.394
   93SAPC  C220 9024   1.459   0.033   4.261
   93SAPC  H20R 9025   1.398   6.775   4.189
   93SAPC  H20S 9026   1.562   0.025   4.219
   93SAPC  H20T 9027   1.417   0.135   4.267
   93SAPC   C33 9028   1.095   6.216   5.911
   93SAPC   H3X 9029   1.192   6.260   5.944
   93SAPC   H3Y 9030   1.021   6.296   5.892
   93SAPC   C34 9031   1.114   6.151   5.775
   93SAPC   H4X 9032   1.030   6.080   5.754
   93SAPC   H4Y 9033   1.208   6.093   5.776
   93SAPC   C35 9034   1.133   6.255   5.667
   93SAPC   H5X 9035   1.207   6.327   5.707
   93SAPC   H5Y 9036   1.046   6.318   5.640
   93SAPC   C36 9037   1.186   6.182   5.542
   93SAPC   H6X 9038   1.121   6.095   5.518
   93SAPC   H6Y 9039   1.281   6.141   5.580
   93SAPC   C37 9040   1.204   6.276   5.428
   93SAPC   H7X 9041   1.263   6.364   5.460
   93SAPC   H7Y 9042   1.109   6.323   5.396
   93SAPC   C38 9043   1.275   6.218   5.311
   93SAPC   H8X 9044   1.229   6.121   5.282
   93SAPC   H8Y 9045   1.384   6.209   5.333
   93SAPC   C39 9046   1.252   6.303   5.184
   93SAPC   H9X 9047   1.268   6.411   5.204
   93SAPC   H9Y 9048   1.145   6.287   5.161
   93SAPC  C310 9049   1.326   6.266   5.056
   93SAPC  H10X 9050   1.310   6.157   5.048
   93SAPC  H10Y 9051   1.435   6.282   5.073
   93SAPC  C311 9052   1.280   6.341   4.934
   93SAPC  H11X 9053   1.312   6.447   4.942
   93SAPC  H11Y 9054   1.169   6.345   4.938
   93SAPC  C312 9055   1.308   6.279   4.794
   93SAPC  H12X 9056   1.249   6.185   4.800
   93SAPC  H12Y 9057   1.416   6.254   4.796
   93SAPC  C313 9058   1.269   6.364   4.674
   93SAPC  H13X 9059   1.336   6.453   4.666
   93SAPC  H13Y 9060   1.170   6.414   4.682
   93SAPC  C314 9061   1.265   6.289   4.538
   93SAPC  H14X 9062   1.184   6.214   4.548
   93SAPC  H14Y 9063   1.363   6.240   4.521
   93SAPC  C315 9064   1.235   6.377   4.422
   93SAPC  H15X 9065   1.329   6.434   4.402
   93SAPC  H15Y 9066   1.158   6.451   4.453
   93SAPC  C316 9067   1.194   6.296   4.300
   93SAPC  H16X 9068   1.093   6.252   4.319
   93SAPC  H16Y 9069   1.258   6.206   4.290
   93SAPC  C317 9070   1.194   6.372   4.168
   93SAPC  H17X 9071   1.138   6.313   4.092
   93SAPC  H17Y 9072   1.295   6.384   4.123
   93SAPC  C318 9073   1.123   6.503   4.192
   93SAPC  H18X 9074   1.025   6.491   4.243
   93SAPC  H18Y 9075   1.082   6.531   4.093
   93SAPC  H18Z 9076   1.183   6.585   4.239
   94SAPC     N 9077   0.140   4.932   7.410
   94SAPC   C12 9078   0.165   5.047   7.316
   94SAPC  H12A 9079   0.248   5.103   7.356
   94SAPC  H12B 9080   0.079   5.111   7.302
   94SAPC   C13 9081   0.035   4.840   7.360
   94SAPC  H13A 9082   0.025   4.756   7.427
   94SAPC  H13B 9083   6.738   4.886   7.363
   94SAPC  H13C 9084   0.052   4.789   7.267
   94SAPC   C14 9085   0.265   4.857   7.430
   94SAPC  H14A 9086   0.233   4.759   7.463
   94SAPC  H14B 9087   0.303   4.835   7.331
   94SAPC  H14C 9088   0.344   4.908   7.484
   94SAPC   C15 9089   0.093   4.984   7.538
   94SAPC  H15A 9090   0.091   4.907   7.614
   94SAPC  H15B 9091   0.147   5.071   7.571
   94SAPC  H15C 9092   6.790   5.015   7.526
   94SAPC   C11 9093   0.203   5.016   7.168
   94SAPC  H11A 9094   0.202   5.116   7.120
   94SAPC  H11B 9095   0.122   4.959   7.118
   94SAPC     P 9096   0.370   4.833   7.080
   94SAPC   O13 9097   0.450   4.743   7.166
   94SAPC   O14 9098   0.247   4.770   7.020
   94SAPC   O12 9099   0.336   4.960   7.170
   94SAPC   O11 9100   0.471   4.883   6.968
   94SAPC    C1 9101   0.435   4.991   6.885
   94SAPC    HA 9102   0.331   4.981   6.848
   94SAPC    HB 9103   0.455   5.089   6.934
   94SAPC    C2 9104   0.526   4.988   6.761
   94SAPC    HS 9105   0.628   5.010   6.800
   94SAPC   O21 9106   0.482   5.086   6.667
   94SAPC   C21 9107   0.568   5.117   6.571
   94SAPC   O22 9108   0.679   5.077   6.563
   94SAPC   C22 9109   0.498   5.206   6.470
   94SAPC   H2R 9110   0.479   5.142   6.381
   94SAPC   H2S 9111   0.398   5.230   6.510
   94SAPC    C3 9112   0.515   4.844   6.705
   94SAPC    HX 9113   0.530   4.766   6.784
   94SAPC    HY 9114   0.593   4.826   6.628
   94SAPC   O31 9115   0.381   4.810   6.661
   94SAPC   C31 9116   0.351   4.838   6.531
   94SAPC   O32 9117   0.427   4.861   6.442
   94SAPC   C32 9118   0.198   4.833   6.518
   94SAPC   H2X 9119   0.158   4.870   6.614
   94SAPC   H2Y 9120   0.157   4.734   6.491
   94SAPC   C23 9121   0.558   5.339   6.422
   94SAPC   H3R 9122   0.575   5.398   6.515
   94SAPC   H3S 9123   0.485   5.400   6.364
   94SAPC   C24 9124   0.688   5.316   6.341
   94SAPC   H4R 9125   0.655   5.263   6.249
   94SAPC   H4S 9126   0.762   5.254   6.397
   94SAPC   C25 9127   0.754   5.454   6.334
   94SAPC   H5R 9128   0.838   5.477   6.402
   94SAPC   C26 9129   0.715   5.555   6.257
   94SAPC   H6R 9130   0.786   5.639   6.256
   94SAPC   C27 9131   0.609   5.557   6.151
   94SAPC   H7R 9132   0.588   5.664   6.129
   94SAPC   H7S 9133   0.514   5.512   6.185
   94SAPC   C28 9134   0.655   5.475   6.033
   94SAPC   H8R 9135   0.732   5.401   6.057
   94SAPC   C29 9136   0.637   5.501   5.901
   94SAPC   H9R 9137   0.658   5.425   5.824
   94SAPC  C210 9138   0.572   5.624   5.844
   94SAPC  H10R 9139   0.600   5.650   5.739
   94SAPC  H10S 9140   0.611   5.709   5.904
   94SAPC  C211 9141   0.417   5.622   5.854
   94SAPC  H11R 9142   0.387   5.617   5.960
   94SAPC  C212 9143   0.328   5.625   5.752
   94SAPC  H12R 9144   0.221   5.615   5.775
   94SAPC  C213 9145   0.362   5.625   5.606
   94SAPC  H13R 9146   0.436   5.706   5.591
   94SAPC  H13S 9147   0.280   5.664   5.542
   94SAPC  C214 9148   0.405   5.495   5.550
   94SAPC  H14R 9149   0.471   5.425   5.602
   94SAPC  C215 9150   0.369   5.459   5.428
   94SAPC  H15R 9151   0.390   5.356   5.397
   94SAPC  C216 9152   0.284   5.539   5.333
   94SAPC  H16R 9153   0.308   5.647   5.328
   94SAPC  H16S 9154   0.177   5.527   5.362
   94SAPC  C217 9155   0.296   5.481   5.188
   94SAPC  H17R 9156   0.216   5.514   5.118
   94SAPC  H17S 9157   0.279   5.372   5.194
   94SAPC  C218 9158   0.423   5.512   5.117
   94SAPC  H18R 9159   0.512   5.457   5.153
   94SAPC  H18S 9160   0.451   5.616   5.146
   94SAPC  C219 9161   0.416   5.509   4.966
   94SAPC  H19R 9162   0.320   5.556   4.935
   94SAPC  H19S 9163   0.413   5.404   4.929
   94SAPC  C220 9164   0.537   5.581   4.902
   94SAPC  H20R 9165   0.636   5.545   4.939
   94SAPC  H20S 9166   0.525   5.689   4.925
   94SAPC  H20T 9167   0.532   5.568   4.791
   94SAPC   C33 9168   0.143   4.919   6.406
   94SAPC   H3X 9169   0.180   4.880   6.309
   94SAPC   H3Y 9170   0.194   5.016   6.421
   94SAPC   C34 9171   6.787   4.928   6.408
   94SAPC   H4X 9172   6.769   4.981   6.504
   94SAPC   H4Y 9173   6.753   4.823   6.416
   94SAPC   C35 9174   6.719   5.009   6.298
   94SAPC   H5X 9175   6.745   5.111   6.333
   94SAPC   H5Y 9176   6.610   4.996   6.319
   94SAPC   C36 9177   6.763   4.978   6.157
   94SAPC   H6X 9178   6.739   4.871   6.139
   94SAPC   H6Y 9179   0.070   5.003   6.143
   94SAPC   C37 9180   6.686   5.050   6.051
   94SAPC   H7X 9181   6.742   5.144   6.031
   94SAPC   H7Y 9182   6.583   5.065   6.089
   94SAPC   C38 9183   6.701   4.987   5.913
   94SAPC   H8X 9184   0.005   4.956   5.894
   94SAPC   H8Y 9185   6.670   5.065   5.840
   94SAPC   C39 9186   6.608   4.862   5.888
   94SAPC   H9X 9187   6.506   4.883   5.925
   94SAPC   H9Y 9188   6.636   4.784   5.963
   94SAPC  C310 9189   6.612   4.809   5.741
   94SAPC  H10X 9190   6.519   4.750   5.729
   94SAPC  H10Y 9191   6.693   4.734   5.729
   94SAPC  C311 9192   6.626   4.913   5.625
   94SAPC  H11X 9193   6.732   4.943   5.611
   94SAPC  H11Y 9194   6.556   4.999   5.634
   94SAPC  C312 9195   6.574   4.845   5.502
   94SAPC  H12X 9196   6.474   4.797   5.512
   94SAPC  H12Y 9197   6.648   4.771   5.466
   94SAPC  C313 9198   6.544   4.946   5.382
   94SAPC  H13X 9199   6.643   4.989   5.356
   94SAPC  H13Y 9200   6.472   5.025   5.409
   94SAPC  C314 9201   6.497   4.880   5.255
   94SAPC  H14X 9202   6.410   4.932   5.210
   94SAPC  H14Y 9203   6.470   4.773   5.272
   94SAPC  C315 9204   6.583   4.897   5.122
   94SAPC  H15X 9205   6.676   4.846   5.156
   94SAPC  H15Y 9206   6.609   5.004   5.111
   94SAPC  C316 9207   6.515   4.854   4.995
   94SAPC  H16X 9208   6.429   4.915   4.958
   94SAPC  H16Y 9209   6.475   4.752   5.012
   94SAPC  C317 9210   6.612   4.852   4.871
   94SAPC  H17X 9211   6.557   4.813   4.783
   94SAPC  H17Y 9212   6.702   4.794   4.904
   94SAPC  C318 9213   6.668   4.986   4.818
   94SAPC  H18X 9214   6.737   5.035   4.890
   94SAPC  H18Y 9215   6.579   5.051   4.807
   94SAPC  H18Z 9216   6.711   4.957   4.720
   95SAPC     N 9217   4.475   6.065   2.516
   95SAPC   C12 9218   4.349   6.017   2.575
   95SAPC  H12A 9219   4.284   5.979   2.498
   95SAPC  H12B 9220   4.296   6.098   2.623
   95SAPC   C13 9221   4.454   6.150   2.390
   95SAPC  H13A 9222   4.551   6.184   2.359
   95SAPC  H13B 9223   4.406   6.095   2.309
   95SAPC  H13C 9224   4.388   6.234   2.404
   95SAPC   C14 9225   4.549   6.132   2.631
   95SAPC  H14A 9226   4.646   6.155   2.590
   95SAPC  H14B 9227   4.495   6.222   2.658
   95SAPC  H14C 9228   4.570   6.064   2.712
   95SAPC   C15 9229   4.559   5.953   2.476
   95SAPC  H15A 9230   4.650   5.967   2.420
   95SAPC  H15B 9231   4.586   5.897   2.564
   95SAPC  H15C 9232   4.496   5.888   2.417
   95SAPC   C11 9233   4.363   5.899   2.671
   95SAPC  H11A 9234   4.262   5.889   2.715
   95SAPC  H11B 9235   4.430   5.930   2.755
   95SAPC     P 9236   4.294   5.699   2.522
   95SAPC   O13 9237   4.258   5.789   2.410
   95SAPC   O14 9238   4.358   5.572   2.481
   95SAPC   O12 9239   4.403   5.780   2.605
   95SAPC   O11 9240   4.172   5.668   2.619
   95SAPC    C1 9241   4.111   5.537   2.621
   95SAPC    HA 9242   4.178   5.452   2.595
   95SAPC    HB 9243   4.068   5.517   2.722
   95SAPC    C2 9244   3.990   5.524   2.526
   95SAPC    HS 9245   4.018   5.551   2.422
   95SAPC   O21 9246   3.880   5.606   2.579
   95SAPC   C21 9247   3.787   5.632   2.489
   95SAPC   O22 9248   3.774   5.583   2.381
   95SAPC   C22 9249   3.698   5.741   2.537
   95SAPC   H2R 9250   3.680   5.718   2.644
   95SAPC   H2S 9251   3.746   5.841   2.548
   95SAPC    C3 9252   3.964   5.368   2.527
   95SAPC    HX 9253   4.035   5.307   2.466
   95SAPC    HY 9254   3.869   5.334   2.481
   95SAPC   O31 9255   3.970   5.315   2.667
   95SAPC   C31 9256   3.864   5.353   2.734
   95SAPC   O32 9257   3.760   5.395   2.690
   95SAPC   C32 9258   3.891   5.347   2.883
   95SAPC   H2X 9259   4.001   5.350   2.895
   95SAPC   H2Y 9260   3.857   5.247   2.918
   95SAPC   C23 9261   3.556   5.744   2.467
   95SAPC   H3R 9262   3.504   5.651   2.498
   95SAPC   H3S 9263   3.582   5.738   2.359
   95SAPC   C24 9264   3.461   5.855   2.505
   95SAPC   H4R 9265   3.496   5.960   2.491
   95SAPC   H4S 9266   3.437   5.854   2.613
   95SAPC   C25 9267   3.343   5.835   2.415
   95SAPC   H5R 9268   3.364   5.888   2.321
   95SAPC   C26 9269   3.230   5.770   2.439
   95SAPC   H6R 9270   3.151   5.785   2.364
   95SAPC   C27 9271   3.193   5.690   2.560
   95SAPC   H7R 9272   3.220   5.756   2.645
   95SAPC   H7S 9273   3.263   5.604   2.568
   95SAPC   C28 9274   3.049   5.646   2.570
   95SAPC   H8R 9275   3.033   5.545   2.528
   95SAPC   C29 9276   2.942   5.723   2.595
   95SAPC   H9R 9277   2.844   5.680   2.620
   95SAPC  C210 9278   2.949   5.876   2.623
   95SAPC  H10R 9279   3.037   5.897   2.687
   95SAPC  H10S 9280   2.856   5.899   2.679
   95SAPC  C211 9281   2.966   5.969   2.499
   95SAPC  H11R 9282   2.935   5.918   2.407
   95SAPC  C212 9283   2.992   6.103   2.504
   95SAPC  H12R 9284   3.009   6.165   2.415
   95SAPC  C213 9285   3.014   6.178   2.631
   95SAPC  H13R 9286   3.086   6.260   2.609
   95SAPC  H13S 9287   3.067   6.111   2.702
   95SAPC  C214 9288   2.898   6.235   2.711
   95SAPC  H14R 9289   2.813   6.245   2.641
   95SAPC  C215 9290   2.873   6.232   2.845
   95SAPC  H15R 9291   2.784   6.285   2.881
   95SAPC  C216 9292   2.963   6.180   2.954
   95SAPC  H16R 9293   2.944   6.228   3.053
   95SAPC  H16S 9294   3.065   6.207   2.919
   95SAPC  C217 9295   2.934   6.027   2.970
   95SAPC  H17R 9296   2.949   5.980   2.871
   95SAPC  H17S 9297   2.833   6.010   3.014
   95SAPC  C218 9298   3.034   5.964   3.069
   95SAPC  H18R 9299   3.037   6.021   3.164
   95SAPC  H18S 9300   3.134   5.987   3.027
   95SAPC  C219 9301   3.010   5.814   3.105
   95SAPC  H19R 9302   2.906   5.816   3.144
   95SAPC  H19S 9303   3.090   5.785   3.176
   95SAPC  C220 9304   3.009   5.722   2.992
   95SAPC  H20R 9305   3.104   5.700   2.938
   95SAPC  H20S 9306   2.944   5.755   2.909
   95SAPC  H20T 9307   2.970   5.621   3.017
   95SAPC   C33 9308   3.817   5.462   2.957
   95SAPC   H3X 9309   3.710   5.436   2.946
   95SAPC   H3Y 9310   3.840   5.560   2.909
   95SAPC   C34 9311   3.845   5.456   3.108
   95SAPC   H4X 9312   3.948   5.492   3.125
   95SAPC   H4Y 9313   3.839   5.347   3.127
   95SAPC   C35 9314   3.736   5.536   3.195
   95SAPC   H5X 9315   3.634   5.499   3.170
   95SAPC   H5Y 9316   3.744   5.641   3.158
   95SAPC   C36 9317   3.781   5.517   3.336
   95SAPC   H6X 9318   3.850   5.597   3.372
   95SAPC   H6Y 9319   3.830   5.420   3.360
   95SAPC   C37 9320   3.661   5.515   3.425
   95SAPC   H7X 9321   3.604   5.425   3.394
   95SAPC   H7Y 9322   3.612   5.614   3.415
   95SAPC   C38 9323   3.691   5.487   3.578
   95SAPC   H8X 9324   3.719   5.577   3.636
   95SAPC   H8Y 9325   3.783   5.425   3.569
   95SAPC   C39 9326   3.574   5.421   3.653
   95SAPC   H9X 9327   3.572   5.314   3.623
   95SAPC   H9Y 9328   3.482   5.471   3.617
   95SAPC  C310 9329   3.570   5.436   3.811
   95SAPC  H10X 9330   3.668   5.409   3.856
   95SAPC  H10Y 9331   3.501   5.361   3.855
   95SAPC  C311 9332   3.528   5.576   3.865
   95SAPC  H11X 9333   3.424   5.581   3.824
   95SAPC  H11Y 9334   3.593   5.660   3.832
   95SAPC  C312 9335   3.535   5.586   4.018
   95SAPC  H12X 9336   3.510   5.687   4.057
   95SAPC  H12Y 9337   3.639   5.566   4.052
   95SAPC  C313 9338   3.445   5.487   4.092
   95SAPC  H13X 9339   3.470   5.385   4.056
   95SAPC  H13Y 9340   3.339   5.503   4.065
   95SAPC  C314 9341   3.480   5.493   4.240
   95SAPC  H14X 9342   3.463   5.596   4.277
   95SAPC  H14Y 9343   3.579   5.460   4.277
   95SAPC  C315 9344   3.390   5.409   4.336
   95SAPC  H15X 9345   3.291   5.407   4.285
   95SAPC  H15Y 9346   3.391   5.464   4.433
   95SAPC  C316 9347   3.440   5.263   4.361
   95SAPC  H16X 9348   3.530   5.264   4.426
   95SAPC  H16Y 9349   3.473   5.220   4.264
   95SAPC  C317 9350   3.334   5.174   4.425
   95SAPC  H17X 9351   3.236   5.176   4.372
   95SAPC  H17Y 9352   3.318   5.223   4.524
   95SAPC  C318 9353   3.382   5.027   4.425
   95SAPC  H18X 9354   3.486   5.019   4.461
   95SAPC  H18Y 9355   3.386   4.984   4.322
   95SAPC  H18Z 9356   3.312   4.958   4.477
   96SAPC     N 9357   3.944   2.405   2.023
   96SAPC   C12 9358   3.988   2.257   2.029
   96SAPC  H12A 9359   4.089   2.254   1.992
   96SAPC  H12B 9360   3.920   2.199   1.969
   96SAPC   C13 9361   4.053   2.486   2.085
   96SAPC  H13A 9362   4.025   2.588   2.103
   96SAPC  H13B 9363   4.072   2.446   2.184
   96SAPC  H13C 9364   4.144   2.479   2.028
   96SAPC   C14 9365   3.907   2.449   1.878
   96SAPC  H14A 9366   3.885   2.555   1.880
   96SAPC  H14B 9367   3.994   2.429   1.818
   96SAPC  H14C 9368   3.828   2.384   1.845
   96SAPC   C15 9369   3.828   2.417   2.104
   96SAPC  H15A 9370   3.758   2.338   2.082
   96SAPC  H15B 9371   3.855   2.413   2.209
   96SAPC  H15C 9372   3.775   2.510   2.089
   96SAPC   C11 9373   3.989   2.184   2.171
   96SAPC  H11A 9374   4.043   2.251   2.241
   96SAPC  H11B 9375   4.050   2.092   2.178
   96SAPC     P 9376   3.758   2.053   2.162
   96SAPC   O13 9377   3.622   2.086   2.210
   96SAPC   O14 9378   3.769   2.036   2.016
   96SAPC   O12 9379   3.859   2.165   2.218
   96SAPC   O11 9380   3.809   1.926   2.241
   96SAPC    C1 9381   3.721   1.817   2.262
   96SAPC    HA 9382   3.627   1.829   2.204
   96SAPC    HB 9383   3.771   1.729   2.217
   96SAPC    C2 9384   3.675   1.800   2.412
   96SAPC    HS 9385   3.584   1.863   2.423
   96SAPC   O21 9386   3.781   1.837   2.501
   96SAPC   C21 9387   3.749   1.933   2.590
   96SAPC   O22 9388   3.641   1.985   2.599
   96SAPC   C22 9389   3.875   1.970   2.674
   96SAPC   H2R 9390   3.928   1.882   2.715
   96SAPC   H2S 9391   3.940   2.015   2.596
   96SAPC    C3 9392   3.633   1.656   2.450
   96SAPC    HX 9393   3.724   1.593   2.443
   96SAPC    HY 9394   3.565   1.612   2.374
   96SAPC   O31 9395   3.590   1.648   2.586
   96SAPC   C31 9396   3.462   1.669   2.614
   96SAPC   O32 9397   3.374   1.682   2.529
   96SAPC   C32 9398   3.433   1.642   2.773
   96SAPC   H2X 9399   3.465   1.539   2.800
   96SAPC   H2Y 9400   3.323   1.645   2.786
   96SAPC   C23 9401   3.842   2.073   2.791
   96SAPC   H3R 9402   3.759   2.029   2.850
   96SAPC   H3S 9403   3.796   2.164   2.748
   96SAPC   C24 9404   3.975   2.120   2.863
   96SAPC   H4R 9405   3.949   2.197   2.939
   96SAPC   H4S 9406   4.042   2.169   2.789
   96SAPC   C25 9407   4.065   2.018   2.933
   96SAPC   H5R 9408   4.117   1.953   2.861
   96SAPC   C26 9409   4.081   2.002   3.069
   96SAPC   H6R 9410   4.155   1.927   3.101
   96SAPC   C27 9411   4.030   2.088   3.187
   96SAPC   H7R 9412   4.010   2.194   3.157
   96SAPC   H7S 9413   4.114   2.096   3.258
   96SAPC   C28 9414   3.901   2.049   3.261
   96SAPC   H8R 9415   3.809   2.051   3.201
   96SAPC   C29 9416   3.876   2.031   3.391
   96SAPC   H9R 9417   3.776   2.019   3.436
   96SAPC  C210 9418   3.987   2.033   3.493
   96SAPC  H10R 9419   3.962   2.122   3.554
   96SAPC  H10S 9420   4.084   2.055   3.443
   96SAPC  C211 9421   4.002   1.900   3.567
   96SAPC  H11R 9422   4.081   1.830   3.537
   96SAPC  C212 9423   3.916   1.839   3.650
   96SAPC  H12R 9424   3.956   1.745   3.692
   96SAPC  C213 9425   3.792   1.897   3.701
   96SAPC  H13R 9426   3.802   2.008   3.703
   96SAPC  H13S 9427   3.798   1.879   3.811
   96SAPC  C214 9428   3.664   1.842   3.637
   96SAPC  H14R 9429   3.666   1.845   3.527
   96SAPC  C215 9430   3.558   1.804   3.706
   96SAPC  H15R 9431   3.468   1.760   3.660
   96SAPC  C216 9432   3.549   1.799   3.857
   96SAPC  H16R 9433   3.440   1.799   3.880
   96SAPC  H16S 9434   3.594   1.885   3.912
   96SAPC  C217 9435   3.598   1.672   3.929
   96SAPC  H17R 9436   3.709   1.679   3.926
   96SAPC  H17S 9437   3.551   1.584   3.879
   96SAPC  C218 9438   3.546   1.658   4.078
   96SAPC  H18R 9439   3.590   1.559   4.107
   96SAPC  H18S 9440   3.435   1.662   4.077
   96SAPC  C219 9441   3.616   1.753   4.168
   96SAPC  H19R 9442   3.578   1.853   4.138
   96SAPC  H19S 9443   3.726   1.747   4.149
   96SAPC  C220 9444   3.597   1.742   4.320
   96SAPC  H20R 9445   3.652   1.821   4.376
   96SAPC  H20S 9446   3.630   1.643   4.357
   96SAPC  H20T 9447   3.489   1.756   4.343
   96SAPC   C33 9448   3.512   1.739   2.866
   96SAPC   H3X 9449   3.474   1.841   2.844
   96SAPC   H3Y 9450   3.622   1.734   2.848
   96SAPC   C34 9451   3.484   1.722   3.021
   96SAPC   H4X 9452   3.375   1.737   3.037
   96SAPC   H4Y 9453   3.546   1.804   3.064
   96SAPC   C35 9454   3.530   1.584   3.068
   96SAPC   H5X 9455   3.629   1.562   3.022
   96SAPC   H5Y 9456   3.467   1.494   3.052
   96SAPC   C36 9457   3.542   1.581   3.223
   96SAPC   H6X 9458   3.612   1.662   3.252
   96SAPC   H6Y 9459   3.592   1.489   3.258
   96SAPC   C37 9460   3.417   1.605   3.308
   96SAPC   H7X 9461   3.332   1.546   3.268
   96SAPC   H7Y 9462   3.373   1.706   3.297
   96SAPC   C38 9463   3.432   1.573   3.458
   96SAPC   H8X 9464   3.345   1.623   3.506
   96SAPC   H8Y 9465   3.521   1.625   3.497
   96SAPC   C39 9466   3.427   1.422   3.495
   96SAPC   H9X 9467   3.513   1.368   3.450
   96SAPC   H9Y 9468   3.331   1.379   3.458
   96SAPC  C310 9469   3.416   1.405   3.653
   96SAPC  H10X 9470   3.334   1.452   3.712
   96SAPC  H10Y 9471   3.501   1.453   3.708
   96SAPC  C311 9472   3.413   1.248   3.682
   96SAPC  H11X 9473   3.475   1.207   3.600
   96SAPC  H11Y 9474   3.309   1.208   3.677
   96SAPC  C312 9475   3.468   1.199   3.820
   96SAPC  H12X 9476   3.569   1.240   3.839
   96SAPC  H12Y 9477   3.473   1.089   3.821
   96SAPC  C313 9478   3.381   1.242   3.940
   96SAPC  H13X 9479   3.351   1.345   3.911
   96SAPC  H13Y 9480   3.444   1.244   4.032
   96SAPC  C314 9481   3.258   1.150   3.962
   96SAPC  H14X 9482   3.281   1.042   3.963
   96SAPC  H14Y 9483   3.187   1.169   3.879
   96SAPC  C315 9484   3.182   1.170   4.092
   96SAPC  H15X 9485   3.146   1.275   4.102
   96SAPC  H15Y 9486   3.251   1.163   4.178
   96SAPC  C316 9487   3.069   1.065   4.120
   96SAPC  H16X 9488   3.103   0.961   4.097
   96SAPC  H16Y 9489   3.001   1.081   4.034
   96SAPC  C317 9490   2.994   1.070   4.257
   96SAPC  H17X 9491   2.925   0.983   4.249
   96SAPC  H17Y 9492   2.933   1.162   4.259
   96SAPC  C318 9493   3.083   1.041   4.379
   96SAPC  H18X 9494   3.165   1.116   4.389
   96SAPC  H18Y 9495   3.122   0.939   4.357
   96SAPC  H18Z 9496   3.019   1.041   4.470
   97SAPC     N 9497   3.318   1.061   1.864
   97SAPC   C12 9498   3.425   0.952   1.865
   97SAPC  H12A 9499   3.516   0.988   1.818
   97SAPC  H12B 9500   3.385   0.872   1.804
   97SAPC   C13 9501   3.322   1.132   1.734
   97SAPC  H13A 9502   3.289   1.069   1.652
   97SAPC  H13B 9503   3.247   1.209   1.727
   97SAPC  H13C 9504   3.423   1.165   1.711
   97SAPC   C14 9505   3.176   1.015   1.875
   97SAPC  H14A 9506   3.114   1.104   1.882
   97SAPC  H14B 9507   3.146   0.973   1.780
   97SAPC  H14C 9508   3.161   0.958   1.965
   97SAPC   C15 9509   3.352   1.157   1.975
   97SAPC  H15A 9510   3.366   1.094   2.061
   97SAPC  H15B 9511   3.445   1.205   1.950
   97SAPC  H15C 9512   3.276   1.233   1.990
   97SAPC   C11 9513   3.451   0.882   1.993
   97SAPC  H11A 9514   3.500   0.950   2.066
   97SAPC  H11B 9515   3.516   0.794   1.974
   97SAPC     P 9516   3.276   0.691   2.000
   97SAPC   O13 9517   3.140   0.688   2.058
   97SAPC   O14 9518   3.298   0.667   1.857
   97SAPC   O12 9519   3.329   0.827   2.042
   97SAPC   O11 9520   3.363   0.593   2.076
   97SAPC    C1 9521   3.422   0.627   2.213
   97SAPC    HA 9522   3.507   0.698   2.210
   97SAPC    HB 9523   3.335   0.664   2.273
   97SAPC    C2 9524   3.469   0.490   2.286
   97SAPC    HS 9525   3.546   0.454   2.214
   97SAPC   O21 9526   3.347   0.409   2.306
   97SAPC   C21 9527   3.347   0.287   2.254
   97SAPC   O22 9528   3.448   0.233   2.209
   97SAPC   C22 9529   3.206   0.231   2.264
   97SAPC   H2R 9530   3.148   0.304   2.204
   97SAPC   H2S 9531   3.189   0.131   2.218
   97SAPC    C3 9532   3.549   0.520   2.420
   97SAPC    HX 9533   3.628   0.595   2.399
   97SAPC    HY 9534   3.599   0.428   2.457
   97SAPC   O31 9535   3.468   0.575   2.525
   97SAPC   C31 9536   3.459   0.519   2.642
   97SAPC   O32 9537   3.506   0.407   2.674
   97SAPC   C32 9538   3.389   0.615   2.737
   97SAPC   H2X 9539   3.328   0.688   2.681
   97SAPC   H2Y 9540   3.473   0.672   2.782
   97SAPC   C23 9541   3.151   0.232   2.407
   97SAPC   H3R 9542   3.047   0.194   2.398
   97SAPC   H3S 9543   3.147   0.337   2.445
   97SAPC   C24 9544   3.229   0.137   2.497
   97SAPC   H4R 9545   3.169   0.119   2.588
   97SAPC   H4S 9546   3.326   0.184   2.526
   97SAPC   C25 9547   3.251   6.799   2.427
   97SAPC   H5R 9548   3.331   6.784   2.353
   97SAPC   C26 9549   3.192   6.684   2.456
   97SAPC   H6R 9550   3.206   6.601   2.385
   97SAPC   C27 9551   3.096   6.650   2.565
   97SAPC   H7R 9552   3.047   6.558   2.526
   97SAPC   H7S 9553   3.020   6.730   2.582
   97SAPC   C28 9554   3.155   6.594   2.691
   97SAPC   H8R 9555   3.239   6.524   2.683
   97SAPC   C29 9556   3.124   6.628   2.814
   97SAPC   H9R 9557   3.170   6.576   2.900
   97SAPC  C210 9558   3.013   6.725   2.851
   97SAPC  H10R 9559   2.919   6.669   2.832
   97SAPC  H10S 9560   3.009   0.009   2.778
   97SAPC  C211 9561   3.010   6.762   2.997
   97SAPC  H11R 9562   3.044   0.065   3.016
   97SAPC  C212 9563   2.973   6.689   3.105
   97SAPC  H12R 9564   2.988   6.740   3.202
   97SAPC  C213 9565   2.915   6.551   3.100
   97SAPC  H13R 9566   2.901   6.520   2.994
   97SAPC  H13S 9567   2.811   6.551   3.140
   97SAPC  C214 9568   3.007   6.465   3.183
   97SAPC  H14R 9569   3.107   6.448   3.140
   97SAPC  C215 9570   2.976   6.392   3.293
   97SAPC  H15R 9571   3.058   6.338   3.342
   97SAPC  C216 9572   2.859   6.385   3.382
   97SAPC  H16R 9573   2.800   6.478   3.365
   97SAPC  H16S 9574   2.879   6.370   3.490
   97SAPC  C217 9575   2.760   6.276   3.343
   97SAPC  H17R 9576   2.741   6.290   3.234
   97SAPC  H17S 9577   2.664   6.285   3.397
   97SAPC  C218 9578   2.815   6.132   3.346
   97SAPC  H18R 9579   2.905   6.112   3.285
   97SAPC  H18S 9580   2.739   6.061   3.308
   97SAPC  C219 9581   2.857   6.084   3.489
   97SAPC  H19R 9582   2.771   6.102   3.557
   97SAPC  H19S 9583   2.951   6.135   3.520
   97SAPC  C220 9584   2.895   5.937   3.494
   97SAPC  H20R 9585   2.976   5.915   3.421
   97SAPC  H20S 9586   2.801   5.885   3.465
   97SAPC  H20T 9587   2.922   5.919   3.600
   97SAPC   C33 9588   3.306   0.555   2.853
   97SAPC   H3X 9589   3.235   0.482   2.807
   97SAPC   H3Y 9590   3.251   0.634   2.908
   97SAPC   C34 9591   3.398   0.481   2.947
   97SAPC   H4X 9592   3.469   0.561   2.976
   97SAPC   H4Y 9593   3.456   0.398   2.902
   97SAPC   C35 9594   3.330   0.425   3.069
   97SAPC   H5X 9595   3.279   0.330   3.040
   97SAPC   H5Y 9596   3.249   0.496   3.097
   97SAPC   C36 9597   3.427   0.405   3.185
   97SAPC   H6X 9598   3.472   0.501   3.217
   97SAPC   H6Y 9599   3.502   0.334   3.145
   97SAPC   C37 9600   3.359   0.345   3.304
   97SAPC   H7X 9601   3.431   0.326   3.387
   97SAPC   H7Y 9602   3.314   0.248   3.274
   97SAPC   C38 9603   3.254   0.442   3.359
   97SAPC   H8X 9604   3.167   0.458   3.291
   97SAPC   H8Y 9605   3.293   0.543   3.383
   97SAPC   C39 9606   3.179   0.383   3.481
   97SAPC   H9X 9607   3.143   0.281   3.459
   97SAPC   H9Y 9608   3.093   0.451   3.502
   97SAPC  C310 9609   3.267   0.369   3.607
   97SAPC  H10X 9610   3.204   0.384   3.697
   97SAPC  H10Y 9611   3.344   0.446   3.585
   97SAPC  C311 9612   3.339   0.234   3.624
   97SAPC  H11X 9613   3.387   0.201   3.530
   97SAPC  H11Y 9614   3.276   0.154   3.668
   97SAPC  C312 9615   3.456   0.258   3.717
   97SAPC  H12X 9616   3.524   0.331   3.670
   97SAPC  H12Y 9617   3.524   0.171   3.736
   97SAPC  C313 9618   3.420   0.285   3.864
   97SAPC  H13X 9619   3.349   0.368   3.885
   97SAPC  H13Y 9620   3.517   0.318   3.908
   97SAPC  C314 9621   3.366   0.160   3.938
   97SAPC  H14X 9622   3.432   0.074   3.914
   97SAPC  H14Y 9623   3.265   0.137   3.898
   97SAPC  C315 9624   3.362   0.168   4.089
   97SAPC  H15X 9625   3.289   0.243   4.128
   97SAPC  H15Y 9626   3.463   0.190   4.129
   97SAPC  C316 9627   3.323   0.039   4.157
   97SAPC  H16X 9628   3.381   6.757   4.112
   97SAPC  H16Y 9629   3.215   0.019   4.141
   97SAPC  C317 9630   3.342   0.054   4.306
   97SAPC  H17X 9631   3.285   0.141   4.344
   97SAPC  H17Y 9632   3.451   0.067   4.325
   97SAPC  C318 9633   3.303   6.724   4.378
   97SAPC  H18X 9634   3.333   6.633   4.323
   97SAPC  H18Y 9635   3.192   6.733   4.377
   97SAPC  H18Z 9636   3.344   6.729   4.481
   98SAPC     N 9637   6.377   1.437   2.351
   98SAPC   C12 9638   6.510   1.377   2.338
   98SAPC  H12A 9639   6.583   1.430   2.397
   98SAPC  H12B 9640   6.553   1.377   2.239
   98SAPC   C13 9641   6.322   1.425   2.494
   98SAPC  H13A 9642   6.223   1.467   2.495
   98SAPC  H13B 9643   6.317   1.322   2.525
   98SAPC  H13C 9644   6.387   1.480   2.561
   98SAPC   C14 9645   6.374   1.574   2.313
   98SAPC  H14A 9646   6.376   1.576   2.205
   98SAPC  H14B 9647   6.280   1.625   2.324
   98SAPC  H14C 9648   6.442   1.635   2.371
   98SAPC   C15 9649   6.283   1.365   2.262
   98SAPC  H15A 9650   6.180   1.391   2.282
   98SAPC  H15B 9651   6.293   1.387   2.156
   98SAPC  H15C 9652   6.301   1.259   2.262
   98SAPC   C11 9653   6.522   1.222   2.360
   98SAPC  H11A 9654   6.459   1.194   2.447
   98SAPC  H11B 9655   6.627   1.212   2.393
   98SAPC     P 9656   6.511   1.002   2.244
   98SAPC   O13 9657   6.468   0.953   2.107
   98SAPC   O14 9658   6.650   0.983   2.279
   98SAPC   O12 9659   6.485   1.156   2.239
   98SAPC   O11 9660   6.418   0.946   2.354
   98SAPC    C1 9661   6.280   0.976   2.351
   98SAPC    HA 9662   6.266   1.086   2.357
   98SAPC    HB 9663   6.229   0.939   2.259
   98SAPC    C2 9664   6.213   0.927   2.483
   98SAPC    HS 9665   6.115   0.976   2.498
   98SAPC   O21 9666   6.300   0.933   2.595
   98SAPC   C21 9667   6.291   1.050   2.663
   98SAPC   O22 9668   6.220   1.145   2.641
   98SAPC   C22 9669   6.389   1.043   2.776
   98SAPC   H2R 9670   6.375   0.950   2.835
   98SAPC   H2S 9671   6.489   1.042   2.728
   98SAPC    C3 9672   6.168   0.775   2.464
   98SAPC    HX 9673   6.257   0.712   2.442
   98SAPC    HY 9674   6.097   0.781   2.379
   98SAPC   O31 9675   6.108   0.710   2.581
   98SAPC   C31 9676   6.191   0.652   2.662
   98SAPC   O32 9677   6.309   0.625   2.645
   98SAPC   C32 9678   6.118   0.629   2.799
   98SAPC   H2X 9679   6.112   0.520   2.820
   98SAPC   H2Y 9680   6.016   0.671   2.789
   98SAPC   C23 9681   6.373   1.161   2.872
   98SAPC   H3R 9682   6.348   1.259   2.824
   98SAPC   H3S 9683   6.472   1.183   2.916
   98SAPC   C24 9684   6.258   1.141   2.969
   98SAPC   H4R 9685   6.171   1.108   2.908
   98SAPC   H4S 9686   6.228   1.242   3.003
   98SAPC   C25 9687   6.280   1.045   3.093
   98SAPC   H5R 9688   6.267   0.937   3.079
   98SAPC   C26 9689   6.327   1.083   3.217
   98SAPC   H6R 9690   6.344   1.004   3.293
   98SAPC   C27 9691   6.367   1.216   3.265
   98SAPC   H7R 9692   6.327   1.289   3.190
   98SAPC   H7S 9693   6.476   1.228   3.251
   98SAPC   C28 9694   6.330   1.258   3.399
   98SAPC   H8R 9695   6.265   1.347   3.396
   98SAPC   C29 9696   6.380   1.213   3.513
   98SAPC   H9R 9697   6.340   1.251   3.609
   98SAPC  C210 9698   6.480   1.099   3.530
   98SAPC  H10R 9699   6.555   1.147   3.597
   98SAPC  H10S 9700   6.537   1.078   3.438
   98SAPC  C211 9701   6.430   0.962   3.580
   98SAPC  H11R 9702   6.322   0.943   3.569
   98SAPC  C212 9703   6.505   0.869   3.637
   98SAPC  H12R 9704   6.457   0.776   3.673
   98SAPC  C213 9705   6.652   0.873   3.668
   98SAPC  H13R 9706   6.671   0.816   3.761
   98SAPC  H13S 9707   6.693   0.976   3.676
   98SAPC  C214 9708   6.727   0.779   3.570
   98SAPC  H14R 9709   6.703   0.673   3.588
   98SAPC  C215 9710   6.795   0.806   3.457
   98SAPC  H15R 9711   0.017   0.716   3.399
   98SAPC  C216 9712   0.014   0.942   3.399
   98SAPC  H16R 9713   0.121   0.957   3.423
   98SAPC  H16S 9714   6.750   1.027   3.433
   98SAPC  C217 9715   0.012   0.948   3.245
   98SAPC  H17R 9716   0.055   0.850   3.214
   98SAPC  H17S 9717   0.072   1.036   3.215
   98SAPC  C218 9718   6.672   0.958   3.186
   98SAPC  H18R 9719   6.618   1.040   3.238
   98SAPC  H18S 9720   6.624   0.868   3.228
   98SAPC  C219 9721   6.670   0.973   3.037
   98SAPC  H19R 9722   6.726   1.068   3.023
   98SAPC  H19S 9723   6.570   1.007   3.003
   98SAPC  C220 9724   6.710   0.856   2.955
   98SAPC  H20R 9725   0.012   0.824   2.982
   98SAPC  H20S 9726   6.717   0.874   2.846
   98SAPC  H20T 9727   6.633   0.777   2.966
   98SAPC   C33 9728   6.191   0.707   2.913
   98SAPC   H3X 9729   6.188   0.815   2.888
   98SAPC   H3Y 9730   6.294   0.665   2.917
   98SAPC   C34 9731   6.136   0.709   3.062
   98SAPC   H4X 9732   6.034   0.752   3.055
   98SAPC   H4Y 9733   6.196   0.775   3.128
   98SAPC   C35 9734   6.125   0.569   3.135
   98SAPC   H5X 9735   6.222   0.540   3.181
   98SAPC   H5Y 9736   6.077   0.493   3.070
   98SAPC   C36 9737   6.028   0.584   3.261
   98SAPC   H6X 9738   6.022   0.485   3.312
   98SAPC   H6Y 9739   5.923   0.595   3.228
   98SAPC   C37 9740   6.085   0.676   3.366
   98SAPC   H7X 9741   6.072   0.782   3.334
   98SAPC   H7Y 9742   6.193   0.664   3.388
   98SAPC   C38 9743   6.001   0.685   3.493
   98SAPC   H8X 9744   5.987   0.584   3.538
   98SAPC   H8Y 9745   5.900   0.723   3.466
   98SAPC   C39 9746   6.059   0.774   3.605
   98SAPC   H9X 9747   5.986   0.804   3.683
   98SAPC   H9Y 9748   6.099   0.869   3.565
   98SAPC  C310 9749   6.172   0.714   3.689
   98SAPC  H10X 9750   6.212   0.805   3.739
   98SAPC  H10Y 9751   6.235   0.655   3.620
   98SAPC  C311 9752   6.129   0.624   3.803
   98SAPC  H11X 9753   6.054   0.547   3.775
   98SAPC  H11Y 9754   6.074   0.687   3.875
   98SAPC  C312 9755   6.241   0.562   3.879
   98SAPC  H12X 9756   6.307   0.626   3.942
   98SAPC  H12Y 9757   6.304   0.495   3.817
   98SAPC  C313 9758   6.199   0.477   4.007
   98SAPC  H13X 9759   6.134   0.399   3.961
   98SAPC  H13Y 9760   6.132   0.532   4.076
   98SAPC  C314 9761   6.314   0.405   4.076
   98SAPC  H14X 9762   6.393   0.478   4.104
   98SAPC  H14Y 9763   6.356   0.336   4.000
   98SAPC  C315 9764   6.271   0.323   4.197
   98SAPC  H15X 9765   6.359   0.266   4.235
   98SAPC  H15Y 9766   6.195   0.253   4.157
   98SAPC  C316 9767   6.210   0.395   4.320
   98SAPC  H16X 9768   6.168   0.489   4.279
   98SAPC  H16Y 9769   6.283   0.425   4.399
   98SAPC  C317 9770   6.102   0.305   4.381
   98SAPC  H17X 9771   6.149   0.212   4.420
   98SAPC  H17Y 9772   6.027   0.281   4.302
   98SAPC  C318 9773   6.031   0.368   4.495
   98SAPC  H18X 9774   5.959   0.309   4.556
   98SAPC  H18Y 9775   5.990   0.464   4.457
   98SAPC  H18Z 9776   6.118   0.404   4.554
   99SAPC     N 9777   4.045   5.103   1.760
   99SAPC   C12 9778   3.974   5.003   1.845
   99SAPC  H12A 9779   4.024   4.908   1.829
   99SAPC  H12B 9780   3.874   4.990   1.806
   99SAPC   C13 9781   4.003   5.245   1.790
   99SAPC  H13A 9782   4.082   5.312   1.758
   99SAPC  H13B 9783   3.917   5.277   1.734
   99SAPC  H13C 9784   3.985   5.251   1.896
   99SAPC   C14 9785   4.192   5.098   1.809
   99SAPC  H14A 9786   4.254   5.175   1.767
   99SAPC  H14B 9787   4.183   5.115   1.916
   99SAPC  H14C 9788   4.238   5.001   1.794
   99SAPC   C15 9789   4.042   5.080   1.612
   99SAPC  H15A 9790   3.942   5.070   1.573
   99SAPC  H15B 9791   4.081   5.169   1.566
   99SAPC  H15C 9792   4.107   4.998   1.585
   99SAPC   C11 9793   3.939   5.018   2.000
   99SAPC  H11A 9794   3.882   4.931   2.038
   99SAPC  H11B 9795   3.877   5.110   2.002
   99SAPC     P 9796   4.089   5.141   2.180
   99SAPC   O13 9797   4.182   5.092   2.286
   99SAPC   O14 9798   4.125   5.264   2.106
   99SAPC   O12 9799   4.059   5.026   2.075
   99SAPC   O11 9800   3.949   5.172   2.241
   99SAPC    C1 9801   3.884   5.067   2.313
   99SAPC    HA 9802   3.927   4.967   2.292
   99SAPC    HB 9803   3.895   5.081   2.423
   99SAPC    C2 9804   3.735   5.063   2.297
   99SAPC    HS 9805   3.715   5.105   2.196
   99SAPC   O21 9806   3.676   5.142   2.406
   99SAPC   C21 9807   3.541   5.169   2.399
   99SAPC   O22 9808   3.463   5.138   2.312
   99SAPC   C22 9809   3.517   5.253   2.518
   99SAPC   H2R 9810   3.615   5.290   2.553
   99SAPC   H2S 9811   3.475   5.352   2.489
   99SAPC    C3 9812   3.679   4.922   2.300
   99SAPC    HX 9813   3.733   4.872   2.218
   99SAPC    HY 9814   3.569   4.917   2.285
   99SAPC   O31 9815   3.712   4.867   2.426
   99SAPC   C31 9816   3.716   4.731   2.419
   99SAPC   O32 9817   3.713   4.667   2.318
   99SAPC   C32 9818   3.738   4.669   2.569
   99SAPC   H2X 9819   3.776   4.751   2.634
   99SAPC   H2Y 9820   3.810   4.586   2.553
   99SAPC   C23 9821   3.416   5.190   2.619
   99SAPC   H3R 9822   3.324   5.181   2.557
   99SAPC   H3S 9823   3.400   5.257   2.706
   99SAPC   C24 9824   3.456   5.052   2.668
   99SAPC   H4R 9825   3.434   4.985   2.582
   99SAPC   H4S 9826   3.387   5.021   2.749
   99SAPC   C25 9827   3.603   5.027   2.714
   99SAPC   H5R 9828   3.682   5.013   2.639
   99SAPC   C26 9829   3.646   5.029   2.841
   99SAPC   H6R 9830   3.749   4.997   2.862
   99SAPC   C27 9831   3.561   5.047   2.964
   99SAPC   H7R 9832   3.606   5.001   3.055
   99SAPC   H7S 9833   3.464   4.995   2.951
   99SAPC   C28 9834   3.524   5.190   2.991
   99SAPC   H8R 9835   3.516   5.250   2.899
   99SAPC   C29 9836   3.505   5.243   3.111
   99SAPC   H9R 9837   3.458   5.343   3.114
   99SAPC  C210 9838   3.498   5.178   3.246
   99SAPC  H10R 9839   3.519   5.245   3.333
   99SAPC  H10S 9840   3.574   5.098   3.259
   99SAPC  C211 9841   3.364   5.109   3.253
   99SAPC  H11R 9842   3.303   5.093   3.163
   99SAPC  C212 9843   3.307   5.074   3.374
   99SAPC  H12R 9844   3.206   5.032   3.369
   99SAPC  C213 9845   3.372   5.100   3.510
   99SAPC  H13R 9846   3.346   5.202   3.545
   99SAPC  H13S 9847   3.482   5.103   3.493
   99SAPC  C214 9848   3.332   4.989   3.602
   99SAPC  H14R 9849   3.403   4.905   3.607
   99SAPC  C215 9850   3.225   4.994   3.681
   99SAPC  H15R 9851   3.202   4.911   3.748
   99SAPC  C216 9852   3.123   5.103   3.695
   99SAPC  H16R 9853   3.018   5.069   3.682
   99SAPC  H16S 9854   3.133   5.180   3.616
   99SAPC  C217 9855   3.137   5.175   3.830
   99SAPC  H17R 9856   3.079   5.269   3.819
   99SAPC  H17S 9857   3.243   5.201   3.853
   99SAPC  C218 9858   3.061   5.107   3.946
   99SAPC  H18R 9859   3.082   4.998   3.943
   99SAPC  H18S 9860   2.951   5.103   3.931
   99SAPC  C219 9861   3.098   5.168   4.079
   99SAPC  H19R 9862   3.209   5.170   4.086
   99SAPC  H19S 9863   3.068   5.092   4.154
   99SAPC  C220 9864   3.063   5.305   4.123
   99SAPC  H20R 9865   3.047   5.317   4.232
   99SAPC  H20S 9866   2.968   5.337   4.077
   99SAPC  H20T 9867   3.135   5.386   4.096
   99SAPC   C33 9868   3.607   4.609   2.631
   99SAPC   H3X 9869   3.591   4.510   2.584
   99SAPC   H3Y 9870   3.512   4.666   2.629
   99SAPC   C34 9871   3.638   4.574   2.774
   99SAPC   H4X 9872   3.740   4.529   2.780
   99SAPC   H4Y 9873   3.570   4.489   2.796
   99SAPC   C35 9874   3.625   4.683   2.882
   99SAPC   H5X 9875   3.527   4.733   2.867
   99SAPC   H5Y 9876   3.702   4.762   2.869
   99SAPC   C36 9877   3.615   4.625   3.028
   99SAPC   H6X 9878   3.715   4.576   3.038
   99SAPC   H6Y 9879   3.532   4.553   3.039
   99SAPC   C37 9880   3.602   4.728   3.138
   99SAPC   H7X 9881   3.514   4.795   3.128
   99SAPC   H7Y 9882   3.692   4.792   3.126
   99SAPC   C38 9883   3.609   4.662   3.275
   99SAPC   H8X 9884   3.706   4.609   3.271
   99SAPC   H8Y 9885   3.533   4.585   3.301
   99SAPC   C39 9886   3.610   4.764   3.391
   99SAPC   H9X 9887   3.519   4.829   3.382
   99SAPC   H9Y 9888   3.684   4.845   3.371
   99SAPC  C310 9889   3.625   4.715   3.538
   99SAPC  H10X 9890   3.611   4.803   3.605
   99SAPC  H10Y 9891   3.728   4.674   3.534
   99SAPC  C311 9892   3.520   4.613   3.578
   99SAPC  H11X 9893   3.527   4.535   3.500
   99SAPC  H11Y 9894   3.417   4.653   3.579
   99SAPC  C312 9895   3.545   4.518   3.700
   99SAPC  H12X 9896   3.640   4.467   3.675
   99SAPC  H12Y 9897   3.468   4.439   3.709
   99SAPC  C313 9898   3.558   4.594   3.836
   99SAPC  H13X 9899   3.608   4.693   3.828
   99SAPC  H13Y 9900   3.619   4.532   3.906
   99SAPC  C314 9901   3.423   4.623   3.893
   99SAPC  H14X 9902   3.348   4.661   3.820
   99SAPC  H14Y 9903   3.431   4.705   3.967
   99SAPC  C315 9904   3.342   4.504   3.952
   99SAPC  H15X 9905   3.415   4.455   4.020
   99SAPC  H15Y 9906   3.320   4.422   3.881
   99SAPC  C316 9907   3.211   4.538   4.024
   99SAPC  H16X 9908   3.141   4.573   3.945
   99SAPC  H16Y 9909   3.232   4.614   4.102
   99SAPC  C317 9910   3.147   4.416   4.095
   99SAPC  H17X 9911   3.197   4.407   4.194
   99SAPC  H17Y 9912   3.179   4.330   4.032
   99SAPC  C318 9913   2.999   4.423   4.098
   99SAPC  H18X 9914   2.959   4.327   4.138
   99SAPC  H18Y 9915   2.937   4.453   4.010
   99SAPC  H18Z 9916   2.965   4.497   4.174
  100SAPC     N 9917   1.778   3.966   1.429
  100SAPC   C12 9918   1.744   4.078   1.525
  100SAPC  H12A 9919   1.669   4.046   1.595
  100SAPC  H12B 9920   1.694   4.149   1.460
  100SAPC   C13 9921   1.886   4.010   1.337
  100SAPC  H13A 9922   1.911   3.938   1.260
  100SAPC  H13B 9923   1.854   4.104   1.294
  100SAPC  H13C 9924   1.982   4.021   1.385
  100SAPC   C14 9925   1.827   3.846   1.510
  100SAPC  H14A 9926   1.863   3.756   1.463
  100SAPC  H14B 9927   1.900   3.879   1.582
  100SAPC  H14C 9928   1.745   3.819   1.575
  100SAPC   C15 9929   1.659   3.933   1.343
  100SAPC  H15A 9930   1.680   3.855   1.271
  100SAPC  H15B 9931   1.577   3.902   1.406
  100SAPC  H15C 9932   1.612   4.018   1.296
  100SAPC   C11 9933   1.845   4.144   1.617
  100SAPC  H11A 9934   1.795   4.238   1.648
  100SAPC  H11B 9935   1.936   4.175   1.563
  100SAPC     P 9936   2.011   4.067   1.815
  100SAPC   O13 9937   2.109   4.150   1.750
  100SAPC   O14 9938   1.968   4.106   1.948
  100SAPC   O12 9939   1.878   4.064   1.726
  100SAPC   O11 9940   2.044   3.920   1.809
  100SAPC    C1 9941   1.970   3.825   1.882
  100SAPC    HA 9942   1.873   3.867   1.919
  100SAPC    HB 9943   1.950   3.734   1.821
  100SAPC    C2 9944   2.042   3.770   2.014
  100SAPC    HS 9945   1.969   3.711   2.074
  100SAPC   O21 9946   2.102   3.881   2.092
  100SAPC   C21 9947   2.016   3.926   2.178
  100SAPC   O22 9948   1.902   3.880   2.197
  100SAPC   C22 9949   2.063   4.046   2.254
  100SAPC   H2R 9950   2.162   4.089   2.229
  100SAPC   H2S 9951   1.983   4.121   2.233
  100SAPC    C3 9952   2.151   3.663   1.983
  100SAPC    HX 9953   2.237   3.707   1.928
  100SAPC    HY 9954   2.111   3.596   1.904
  100SAPC   O31 9955   2.196   3.589   2.099
  100SAPC   C31 9956   2.193   3.459   2.095
  100SAPC   O32 9957   2.147   3.387   2.005
  100SAPC   C32 9958   2.256   3.404   2.217
  100SAPC   H2X 9959   2.314   3.488   2.261
  100SAPC   H2Y 9960   2.326   3.324   2.187
  100SAPC   C23 9961   2.060   4.022   2.406
  100SAPC   H3R 9962   2.135   3.947   2.438
  100SAPC   H3S 9963   1.965   3.971   2.432
  100SAPC   C24 9964   2.068   4.145   2.492
  100SAPC   H4R 9965   2.034   4.115   2.593
  100SAPC   H4S 9966   1.993   4.218   2.453
  100SAPC   C25 9967   2.200   4.208   2.512
  100SAPC   H5R 9968   2.267   4.209   2.425
  100SAPC   C26 9969   2.259   4.234   2.635
  100SAPC   H6R 9970   2.361   4.275   2.639
  100SAPC   C27 9971   2.191   4.244   2.772
  100SAPC   H7R 9972   2.263   4.242   2.857
  100SAPC   H7S 9973   2.132   4.151   2.785
  100SAPC   C28 9974   2.105   4.366   2.798
  100SAPC   H8R 9975   2.082   4.412   2.701
  100SAPC   C29 9976   2.070   4.426   2.910
  100SAPC   H9R 9977   2.013   4.520   2.909
  100SAPC  C210 9978   2.109   4.382   3.049
  100SAPC  H10R 9979   2.100   4.469   3.117
  100SAPC  H10S 9980   2.219   4.365   3.045
  100SAPC  C211 9981   2.041   4.259   3.105
  100SAPC  H11R 9982   2.020   4.183   3.027
  100SAPC  C212 9983   1.988   4.248   3.228
  100SAPC  H12R 9984   1.945   4.154   3.264
  100SAPC  C213 9985   2.002   4.345   3.351
  100SAPC  H13R 9986   1.907   4.366   3.404
  100SAPC  H13S 9987   2.040   4.444   3.317
  100SAPC  C214 9988   2.098   4.273   3.443
  100SAPC  H14R 9989   2.181   4.227   3.388
  100SAPC  C215 9990   2.097   4.256   3.576
  100SAPC  H15R 9991   2.177   4.198   3.624
  100SAPC  C216 9992   1.999   4.303   3.681
  100SAPC  H16R 9993   1.937   4.218   3.718
  100SAPC  H16S 9994   1.938   4.383   3.634
  100SAPC  C217 9995   2.086   4.348   3.796
  100SAPC  H17R 9996   2.100   4.458   3.781
  100SAPC  H17S 9997   2.174   4.282   3.813
  100SAPC  C218 9998   2.010   4.351   3.932
  100SAPC  H18R 9999   1.904   4.377   3.915
  100SAPC  H18S10000   2.054   4.417   4.010
  100SAPC  C21910001   2.013   4.221   4.008
  100SAPC  H19R10002   1.981   4.136   3.944
  100SAPC  H19S10003   1.944   4.225   4.094
  100SAPC  C22010004   2.155   4.188   4.073
  100SAPC  H20R10005   2.231   4.167   3.995
  100SAPC  H20S10006   2.137   4.107   4.148
  100SAPC  H20T10007   2.192   4.276   4.129
  100SAPC   C3310008   2.160   3.335   2.317
  100SAPC   H3X10009   2.204   3.284   2.405
  100SAPC   H3Y10010   2.101   3.264   2.255
  100SAPC   C3410011   2.061   3.437   2.373
  100SAPC   H4X10012   1.974   3.384   2.417
  100SAPC   H4Y10013   2.013   3.500   2.296
  100SAPC   C3510014   2.125   3.550   2.471
  100SAPC   H5X10015   2.206   3.599   2.413
  100SAPC   H5Y10016   2.166   3.497   2.559
  100SAPC   C3610017   2.021   3.654   2.517
  100SAPC   H6X10018   1.921   3.606   2.525
  100SAPC   H6Y10019   2.021   3.737   2.443
  100SAPC   C3710020   2.054   3.716   2.657
  100SAPC   H7X10021   2.152   3.770   2.656
  100SAPC   H7Y10022   2.064   3.626   2.722
  100SAPC   C3810023   1.936   3.815   2.697
  100SAPC   H8X10024   1.844   3.754   2.700
  100SAPC   H8Y10025   1.927   3.895   2.621
  100SAPC   C3910026   1.945   3.876   2.838
  100SAPC   H9X10027   1.843   3.909   2.865
  100SAPC   H9Y10028   2.021   3.955   2.819
  100SAPC  C31010029   1.995   3.788   2.957
  100SAPC  H10X10030   2.088   3.736   2.926
  100SAPC  H10Y10031   1.916   3.714   2.981
  100SAPC  C31110032   2.019   3.867   3.087
  100SAPC  H11X10033   1.928   3.885   3.147
  100SAPC  H11Y10034   2.072   3.959   3.055
  100SAPC  C31210035   2.112   3.793   3.175
  100SAPC  H12X10036   2.218   3.786   3.142
  100SAPC  H12Y10037   2.091   3.683   3.172
  100SAPC  C31310038   2.102   3.836   3.321
  100SAPC  H13X10039   1.997   3.817   3.350
  100SAPC  H13Y10040   2.124   3.945   3.322
  100SAPC  C31410041   2.202   3.771   3.414
  100SAPC  H14X10042   2.303   3.769   3.368
  100SAPC  H14Y10043   2.174   3.665   3.433
  100SAPC  C31510044   2.211   3.835   3.551
  100SAPC  H15X10045   2.201   3.945   3.544
  100SAPC  H15Y10046   2.312   3.815   3.593
  100SAPC  C31610047   2.105   3.780   3.650
  100SAPC  H16X10048   2.120   3.671   3.669
  100SAPC  H16Y10049   2.007   3.789   3.600
  100SAPC  C31710050   2.130   3.849   3.788
  100SAPC  H17X10051   2.067   3.815   3.872
  100SAPC  H17Y10052   2.099   3.955   3.774
  100SAPC  C31810053   2.277   3.843   3.839
  100SAPC  H18X10054   2.347   3.909   3.783
  100SAPC  H18Y10055   2.323   3.742   3.836
  100SAPC  H18Z10056   2.270   3.889   3.940
  101OSM      N10057   3.845   2.636   7.064
  101OSM    C1510058   3.787   2.540   6.960
  101OSM   H15A10059   3.694   2.492   6.988
  101OSM   H15B10060   3.851   2.458   6.929
  101OSM   H15C10061   3.753   2.598   6.875
  101OSM    C1410062   3.756   2.755   7.076
  101OSM   H14A10063   3.734   2.810   6.985
  101OSM   H14B10064   3.807   2.818   7.148
  101OSM   H14C10065   3.662   2.722   7.117
  101OSM    C1310066   3.856   2.562   7.193
  101OSM   H13A10067   3.761   2.513   7.213
  101OSM   H13B10068   3.897   2.629   7.266
  101OSM   H13C10069   3.923   2.478   7.182
  101OSM    C1210070   3.986   2.688   7.021
  101OSM   H12A10071   4.065   2.621   7.051
  101OSM   H12B10072   4.019   2.769   7.084
  101OSM    C1110073   4.000   2.712   6.872
  101OSM   H11A10074   3.916   2.776   6.836
  101OSM   H11B10075   4.003   2.611   6.826
  101OSM      P10076   4.256   2.678   6.846
  101OSM    O1310077   4.376   2.758   6.867
  101OSM    O1410078   4.249   2.559   6.931
  101OSM    O1110079   4.251   2.616   6.700
  101OSM    O1210080   4.130   2.773   6.852
  101OSM    C1S10081   4.271   2.711   6.590
  101OSM    H1S10082   4.380   2.702   6.571
  101OSM    H1T10083   4.241   2.817   6.603
  101OSM     NF10084   4.267   2.721   6.343
  101OSM    HNF10085   4.207   2.781   6.291
  101OSM    C2S10086   4.212   2.655   6.459
  101OSM    H2S10087   4.227   2.545   6.453
  101OSM    C3S10088   4.061   2.671   6.468
  101OSM    H3S10089   4.042   2.779   6.485
  101OSM     O310090   4.001   2.620   6.589
  101OSM    HO310091   4.068   2.639   6.656
  101OSM    C4S10092   3.984   2.606   6.352
  101OSM    H4S10093   3.941   2.685   6.290
  101OSM    C5S10094   3.933   2.480   6.339
  101OSM    H5S10095   3.940   2.406   6.420
  101OSM    C6S10096   3.852   2.426   6.224
  101OSM    H6S10097   3.750   2.399   6.259
  101OSM    H6T10098   3.893   2.325   6.205
  101OSM    C7S10099   3.848   2.522   6.104
  101OSM    H7S10100   3.955   2.545   6.090
  101OSM    H7T10101   3.794   2.615   6.133
  101OSM    C8S10102   3.780   2.478   5.971
  101OSM    H8S10103   3.674   2.457   5.996
  101OSM    H8T10104   3.831   2.389   5.928
  101OSM    C9S10105   3.771   2.581   5.868
  101OSM    H9S10106   3.868   2.614   5.825
  101OSM    H9T10107   3.723   2.674   5.907
  101OSM   C10S10108   3.679   2.536   5.755
  101OSM   H10S10109   3.571   2.551   5.776
  101OSM   H10T10110   3.687   2.426   5.738
  101OSM   C11S10111   3.710   2.615   5.625
  101OSM   H11S10112   3.818   2.611   5.599
  101OSM   H11T10113   3.700   2.721   5.655
  101OSM   C12S10114   3.613   2.578   5.513
  101OSM   H12S10115   3.514   2.621   5.540
  101OSM   H12T10116   3.616   2.467   5.514
  101OSM   C13S10117   3.654   2.632   5.371
  101OSM   H13S10118   3.760   2.599   5.356
  101OSM   H13T10119   3.646   2.743   5.368
  101OSM   C14S10120   3.559   2.577   5.268
  101OSM   H14S10121   3.457   2.620   5.267
  101OSM   H14T10122   3.543   2.468   5.284
  101OSM   C15S10123   3.627   2.597   5.123
  101OSM   H15S10124   3.730   2.557   5.135
  101OSM   H15T10125   3.640   2.705   5.100
  101OSM   C16S10126   3.544   2.520   5.018
  101OSM   H16S10127   3.441   2.561   5.027
  101OSM   H16T10128   3.541   2.412   5.045
  101OSM   C17S10129   3.592   2.534   4.877
  101OSM   H17S10130   3.697   2.501   4.866
  101OSM   H17T10131   3.579   2.638   4.842
  101OSM   C18S10132   3.518   2.445   4.772
  101OSM   H18S10133   3.545   2.339   4.791
  101OSM   H18T10134   3.533   2.470   4.665
  101OSM   H18U10135   3.407   2.452   4.780
  101OSM    C1F10136   4.392   2.711   6.301
  101OSM     OF10137   4.479   2.658   6.364
  101OSM    C2F10138   4.429   2.792   6.171
  101OSM    H2F10139   4.448   2.893   6.213
  101OSM    H2G10140   4.337   2.789   6.108
  101OSM    C3F10141   4.548   2.719   6.104
  101OSM    H3F10142   4.520   2.612   6.092
  101OSM    H3G10143   4.637   2.716   6.169
  101OSM    C4F10144   4.591   2.781   5.967
  101OSM    H4F10145   4.673   2.713   5.936
  101OSM    H4G10146   4.638   2.880   5.981
  101OSM    C5F10147   4.480   2.795   5.870
  101OSM    H5F10148   4.406   2.871   5.900
  101OSM    H5G10149   4.428   2.699   5.849
  101OSM    C6F10150   4.552   2.835   5.742
  101OSM    H6F10151   4.613   2.751   5.701
  101OSM    H6G10152   4.619   2.921   5.761
  101OSM    C7F10153   4.463   2.867   5.626
  101OSM    H7F10154   4.530   2.909   5.548
  101OSM    H7G10155   4.394   2.950   5.649
  101OSM    C8F10156   4.382   2.747   5.571
  101OSM    H8F10157   4.302   2.778   5.500
  101OSM    H8G10158   4.327   2.703   5.656
  101OSM    C9F10159   4.467   2.632   5.509
  101OSM    H9F10160   4.490   2.538   5.559
  101OSM   C10F10161   4.482   2.635   5.371
  101OSM   H10F10162   4.518   2.544   5.322
  101OSM   C11F10163   4.449   2.741   5.273
  101OSM   H11F10164   4.460   2.842   5.318
  101OSM   H11G10165   4.347   2.717   5.237
  101OSM   C12F10166   4.545   2.745   5.145
  101OSM   H12F10167   4.651   2.747   5.179
  101OSM   H12G10168   4.525   2.835   5.083
  101OSM   C13F10169   4.540   2.618   5.058
  101OSM   H13F10170   4.560   2.526   5.117
  101OSM   H13G10171   4.619   2.615   4.979
  101OSM   C14F10172   4.410   2.602   4.976
  101OSM   H14F10173   4.315   2.633   5.025
  101OSM   H14G10174   4.393   2.500   4.935
  101OSM   C15F10175   4.423   2.696   4.851
  101OSM   H15F10176   4.516   2.680   4.792
  101OSM   H15G10177   4.434   2.802   4.885
  101OSM   C16F10178   4.305   2.686   4.759
  101OSM   H16F10179   4.214   2.692   4.823
  101OSM   H16G10180   4.318   2.588   4.708
  101OSM   C17F10181   4.306   2.798   4.655
  101OSM   H17F10182   4.408   2.826   4.621
  101OSM   H17G10183   4.268   2.887   4.709
  101OSM   C18F10184   4.229   2.766   4.526
  101OSM   H18F10185   4.121   2.745   4.540
  101OSM   H18G10186   4.276   2.669   4.500
  101OSM   H18H10187   4.249   2.843   4.449
  102OSM      N10188   4.595   2.409   6.782
  102OSM    C1510189   4.465   2.364   6.736
  102OSM   H15A10190   4.452   2.378   6.630
  102OSM   H15B10191   4.391   2.415   6.796
  102OSM   H15C10192   4.465   2.258   6.756
  102OSM    C1410193   4.610   2.558   6.780
  102OSM   H14A10194   4.711   2.584   6.809
  102OSM   H14B10195   4.541   2.603   6.850
  102OSM   H14C10196   4.581   2.599   6.684
  102OSM    C1310197   4.619   2.365   6.927
  102OSM   H13A10198   4.705   2.412   6.973
  102OSM   H13B10199   4.640   2.260   6.913
  102OSM   H13C10200   4.533   2.385   6.990
  102OSM    C1210201   4.702   2.347   6.697
  102OSM   H12A10202   4.797   2.395   6.710
  102OSM   H12B10203   4.673   2.364   6.594
  102OSM    C1110204   4.733   2.198   6.698
  102OSM   H11A10205   4.800   2.169   6.782
  102OSM   H11B10206   4.785   2.180   6.601
  102OSM      P10207   4.608   1.963   6.719
  102OSM    O1310208   4.743   1.901   6.718
  102OSM    O1410209   4.527   1.925   6.835
  102OSM    O1110210   4.526   1.912   6.592
  102OSM    O1210211   4.613   2.119   6.708
  102OSM    C1S10212   4.587   1.933   6.459
  102OSM    H1S10213   4.620   1.837   6.413
  102OSM    H1T10214   4.677   1.997   6.467
  102OSM     NF10215   4.526   2.010   6.219
  102OSM    HNF10216   4.555   2.103   6.198
  102OSM    C2S10217   4.475   1.991   6.354
  102OSM    H2S10218   4.385   1.925   6.352
  102OSM    C3S10219   4.411   2.123   6.421
  102OSM    H3S10220   4.493   2.195   6.438
  102OSM     O310221   4.349   2.100   6.544
  102OSM    HO310222   4.381   2.011   6.561
  102OSM    C4S10223   4.320   2.188   6.324
  102OSM    H4S10224   4.222   2.139   6.330
  102OSM    C5S10225   4.341   2.297   6.244
  102OSM    H5S10226   4.435   2.352   6.249
  102OSM    C6S10227   4.242   2.365   6.155
  102OSM    H6S10228   4.238   2.475   6.172
  102OSM    H6T10229   4.141   2.330   6.185
  102OSM    C7S10230   4.273   2.344   6.004
  102OSM    H7S10231   4.234   2.245   5.970
  102OSM    H7T10232   4.384   2.350   5.996
  102OSM    C8S10233   4.187   2.442   5.924
  102OSM    H8S10234   4.221   2.545   5.943
  102OSM    H8T10235   4.083   2.411   5.951
  102OSM    C9S10236   4.210   2.422   5.775
  102OSM    H9S10237   4.199   2.316   5.743
  102OSM    H9T10238   4.312   2.449   5.741
  102OSM   C10S10239   4.105   2.489   5.681
  102OSM   H10S10240   4.122   2.598   5.694
  102OSM   H10T10241   4.000   2.469   5.712
  102OSM   C11S10242   4.139   2.447   5.538
  102OSM   H11S10243   4.143   2.336   5.535
  102OSM   H11T10244   4.243   2.483   5.521
  102OSM   C12S10245   4.034   2.496   5.435
  102OSM   H12S10246   4.008   2.603   5.447
  102OSM   H12T10247   3.940   2.440   5.451
  102OSM   C13S10248   4.106   2.471   5.297
  102OSM   H13S10249   4.166   2.377   5.291
  102OSM   H13T10250   4.181   2.552   5.281
  102OSM   C14S10251   4.011   2.470   5.176
  102OSM   H14S10252   3.987   2.569   5.132
  102OSM   H14T10253   3.912   2.426   5.201
  102OSM   C15S10254   4.061   2.401   5.043
  102OSM   H15S10255   4.080   2.292   5.054
  102OSM   H15T10256   4.158   2.443   5.009
  102OSM   C16S10257   3.954   2.413   4.929
  102OSM   H16S10258   3.903   2.512   4.926
  102OSM   H16T10259   3.875   2.335   4.942
  102OSM   C17S10260   4.012   2.389   4.788
  102OSM   H17S10261   4.028   2.280   4.784
  102OSM   H17T10262   4.107   2.447   4.784
  102OSM   C18S10263   3.922   2.457   4.680
  102OSM   H18S10264   3.905   2.560   4.719
  102OSM   H18T10265   3.824   2.407   4.666
  102OSM   H18U10266   3.980   2.462   4.585
  102OSM    C1F10267   4.562   1.903   6.134
  102OSM     OF10268   4.538   1.790   6.175
  102OSM    C2F10269   4.612   1.937   5.993
  102OSM    H2F10270   4.577   1.856   5.925
  102OSM    H2G10271   4.723   1.945   5.987
  102OSM    C3F10272   4.536   2.064   5.936
  102OSM    H3F10273   4.574   2.142   6.005
  102OSM    H3G10274   4.426   2.058   5.945
  102OSM    C4F10275   4.581   2.105   5.796
  102OSM    H4F10276   4.690   2.100   5.775
  102OSM    H4G10277   4.564   2.215   5.794
  102OSM    C5F10278   4.494   2.044   5.685
  102OSM    H5F10279   4.387   2.073   5.698
  102OSM    H5G10280   4.501   1.933   5.682
  102OSM    C6F10281   4.524   2.095   5.546
  102OSM    H6F10282   4.448   2.055   5.476
  102OSM    H6G10283   4.622   2.046   5.528
  102OSM    C7F10284   4.534   2.246   5.511
  102OSM    H7F10285   4.621   2.290   5.565
  102OSM    H7G10286   4.449   2.306   5.550
  102OSM    C8F10287   4.568   2.270   5.361
  102OSM    H8F10288   4.647   2.198   5.330
  102OSM    H8G10289   4.609   2.372   5.344
  102OSM    C9F10290   4.450   2.258   5.273
  102OSM    H9F10291   4.362   2.300   5.322
  102OSM   C10F10292   4.443   2.199   5.158
  102OSM   H10F10293   4.348   2.209   5.103
  102OSM   C11F10294   4.553   2.142   5.074
  102OSM   H11F10295   4.546   2.032   5.059
  102OSM   H11G10296   4.647   2.138   5.133
  102OSM   C12F10297   4.580   2.223   4.942
  102OSM   H12F10298   4.667   2.173   4.896
  102OSM   H12G10299   4.586   2.333   4.955
  102OSM   C13F10300   4.458   2.199   4.847
  102OSM   H13F10301   4.365   2.233   4.897
  102OSM   H13G10302   4.451   2.093   4.814
  102OSM   C14F10303   4.468   2.279   4.711
  102OSM   H14F10304   4.570   2.264   4.668
  102OSM   H14G10305   4.448   2.385   4.740
  102OSM   C15F10306   4.358   2.224   4.615
  102OSM   H15F10307   4.278   2.195   4.686
  102OSM   H15G10308   4.401   2.134   4.565
  102OSM   C16F10309   4.306   2.330   4.511
  102OSM   H16F10310   4.390   2.369   4.451
  102OSM   H16G10311   4.254   2.417   4.558
  102OSM   C17F10312   4.219   2.281   4.403
  102OSM   H17F10313   4.139   2.219   4.449
  102OSM   H17G10314   4.270   2.193   4.357
  102OSM   C18F10315   4.180   2.391   4.310
  102OSM   H18F10316   4.274   2.443   4.283
  102OSM   H18G10317   4.120   2.466   4.366
  102OSM   H18H10318   4.136   2.353   4.215
  103OSM      N10319   4.375   5.003   6.970
  103OSM    C1510320   4.496   4.942   7.023
  103OSM   H15A10321   4.582   4.974   6.965
  103OSM   H15B10322   4.491   4.834   7.021
  103OSM   H15C10323   4.503   4.966   7.128
  103OSM    C1410324   4.258   4.954   7.053
  103OSM   H14A10325   4.159   4.985   7.023
  103OSM   H14B10326   4.253   4.987   7.156
  103OSM   H14C10327   4.252   4.847   7.062
  103OSM    C1310328   4.385   5.148   6.992
  103OSM   H13A10329   4.311   5.199   6.932
  103OSM   H13B10330   4.484   5.184   6.970
  103OSM   H13C10331   4.365   5.178   7.094
  103OSM    C1210332   4.357   4.969   6.822
  103OSM   H12A10333   4.428   5.026   6.764
  103OSM   H12B10334   4.257   4.999   6.796
  103OSM    C1110335   4.373   4.816   6.780
  103OSM   H11A10336   4.477   4.783   6.802
  103OSM   H11B10337   4.373   4.799   6.670
  103OSM      P10338   4.136   4.729   6.784
  103OSM    O1310339   4.073   4.606   6.830
  103OSM    O1410340   4.070   4.859   6.816
  103OSM    O1110341   4.174   4.722   6.628
  103OSM    O1210342   4.282   4.731   6.846
  103OSM    C1S10343   4.181   4.594   6.561
  103OSM    H1S10344   4.087   4.537   6.574
  103OSM    H1T10345   4.261   4.533   6.607
  103OSM     NF10346   4.212   4.473   6.343
  103OSM    HNF10347   4.304   4.442   6.323
  103OSM    C2S10348   4.198   4.602   6.407
  103OSM    H2S10349   4.109   4.650   6.360
  103OSM    C3S10350   4.320   4.693   6.375
  103OSM    H3S10351   4.403   4.651   6.435
  103OSM     O310352   4.307   4.824   6.420
  103OSM    HO310353   4.241   4.817   6.489
  103OSM    C4S10354   4.346   4.705   6.229
  103OSM    H4S10355   4.275   4.765   6.170
  103OSM    C5S10356   4.450   4.646   6.170
  103OSM    H5S10357   4.509   4.585   6.241
  103OSM    C6S10358   4.497   4.660   6.030
  103OSM    H6S10359   4.607   4.676   6.031
  103OSM    H6T10360   4.443   4.748   5.990
  103OSM    C7S10361   4.467   4.538   5.946
  103OSM    H7S10362   4.385   4.473   5.985
  103OSM    H7T10363   4.547   4.465   5.973
  103OSM    C8S10364   4.445   4.560   5.794
  103OSM    H8S10365   4.420   4.462   5.749
  103OSM    H8T10366   4.534   4.610   5.751
  103OSM    C9S10367   4.322   4.645   5.768
  103OSM    H9S10368   4.341   4.747   5.809
  103OSM    H9T10369   4.223   4.612   5.806
  103OSM   C10S10370   4.299   4.686   5.615
  103OSM   H10S10371   4.209   4.750   5.611
  103OSM   H10T10372   4.271   4.586   5.575
  103OSM   C11S10373   4.412   4.762   5.542
  103OSM   H11S10374   4.500   4.695   5.533
  103OSM   H11T10375   4.441   4.854   5.598
  103OSM   C12S10376   4.367   4.793   5.395
  103OSM   H12S10377   4.260   4.825   5.395
  103OSM   H12T10378   4.380   4.700   5.335
  103OSM   C13S10379   4.443   4.907   5.331
  103OSM   H13S10380   4.547   4.870   5.325
  103OSM   H13T10381   4.450   4.999   5.392
  103OSM   C14S10382   4.381   4.949   5.200
  103OSM   H14S10383   4.427   5.046   5.171
  103OSM   H14T10384   4.275   4.971   5.227
  103OSM   C15S10385   4.414   4.859   5.086
  103OSM   H15S10386   4.363   4.761   5.098
  103OSM   H15T10387   4.522   4.834   5.096
  103OSM   C16S10388   4.370   4.921   4.952
  103OSM   H16S10389   4.379   4.847   4.869
  103OSM   H16T10390   4.427   5.009   4.917
  103OSM   C17S10391   4.219   4.956   4.949
  103OSM   H17S10392   4.202   5.034   5.026
  103OSM   H17T10393   4.147   4.874   4.973
  103OSM   C18S10394   4.178   5.005   4.814
  103OSM   H18S10395   4.178   4.919   4.743
  103OSM   H18T10396   4.249   5.083   4.779
  103OSM   H18U10397   4.072   5.037   4.807
  103OSM    C1F10398   4.105   4.394   6.332
  103OSM     OF10399   3.991   4.432   6.350
  103OSM    C2F10400   4.135   4.252   6.281
  103OSM    H2F10401   4.107   4.171   6.352
  103OSM    H2G10402   4.243   4.240   6.258
  103OSM    C3F10403   4.059   4.211   6.158
  103OSM    H3F10404   3.951   4.234   6.168
  103OSM    H3G10405   4.075   4.102   6.142
  103OSM    C4F10406   4.095   4.275   6.025
  103OSM    H4F10407   4.202   4.304   6.028
  103OSM    H4G10408   4.043   4.372   6.009
  103OSM    C5F10409   4.065   4.194   5.886
  103OSM    H5F10410   3.956   4.180   5.871
  103OSM    H5G10411   4.120   4.098   5.892
  103OSM    C6F10412   4.112   4.275   5.769
  103OSM    H6F10413   4.205   4.329   5.800
  103OSM    H6G10414   4.037   4.352   5.739
  103OSM    C7F10415   4.170   4.194   5.643
  103OSM    H7F10416   4.115   4.105   5.606
  103OSM    H7G10417   4.261   4.146   5.684
  103OSM    C8F10418   4.208   4.289   5.533
  103OSM    H8F10419   4.278   4.367   5.571
  103OSM    H8G10420   4.117   4.336   5.492
  103OSM    C9F10421   4.284   4.234   5.420
  103OSM    H9F10422   4.376   4.184   5.454
  103OSM   C10F10423   4.271   4.258   5.284
  103OSM   H10F10424   4.348   4.220   5.215
  103OSM   C11F10425   4.162   4.341   5.222
  103OSM   H11F10426   4.072   4.337   5.287
  103OSM   H11G10427   4.130   4.296   5.126
  103OSM   C12F10428   4.211   4.484   5.210
  103OSM   H12F10429   4.299   4.499   5.143
  103OSM   H12G10430   4.249   4.528   5.305
  103OSM   C13F10431   4.096   4.582   5.180
  103OSM   H13F10432   4.131   4.687   5.188
  103OSM   H13G10433   4.012   4.564   5.250
  103OSM   C14F10434   4.031   4.560   5.034
  103OSM   H14F10435   3.973   4.650   5.004
  103OSM   H14G10436   3.961   4.476   5.049
  103OSM   C15F10437   4.125   4.521   4.914
  103OSM   H15F10438   4.171   4.421   4.932
  103OSM   H15G10439   4.208   4.590   4.890
  103OSM   C16F10440   4.040   4.527   4.777
  103OSM   H16F10441   4.003   4.631   4.781
  103OSM   H16G10442   3.950   4.462   4.792
  103OSM   C17F10443   4.117   4.489   4.653
  103OSM   H17F10444   4.129   4.379   4.661
  103OSM   H17G10445   4.222   4.523   4.654
  103OSM   C18F10446   4.040   4.521   4.527
  103OSM   H18F10447   4.017   4.629   4.516
  103OSM   H18G10448   3.946   4.463   4.521
  103OSM   H18H10449   4.097   4.499   4.434
  104OSM      N10450   5.626   3.474   6.648
  104OSM    C1510451   5.555   3.604   6.616
  104OSM   H15A10452   5.450   3.582   6.618
  104OSM   H15B10453   5.571   3.637   6.514
  104OSM   H15C10454   5.597   3.672   6.688
  104OSM    C1410455   5.570   3.372   6.555
  104OSM   H14A10456   5.462   3.364   6.559
  104OSM   H14B10457   5.614   3.273   6.560
  104OSM   H14C10458   5.589   3.397   6.452
  104OSM    C1310459   5.767   3.496   6.605
  104OSM   H13A10460   5.778   3.532   6.504
  104OSM   H13B10461   5.824   3.404   6.606
  104OSM   H13C10462   5.811   3.576   6.663
  104OSM    C1210463   5.618   3.434   6.782
  104OSM   H12A10464   5.518   3.414   6.819
  104OSM   H12B10465   5.654   3.513   6.846
  104OSM    C1110466   5.711   3.315   6.828
  104OSM   H11A10467   5.680   3.296   6.933
  104OSM   H11B10468   5.817   3.348   6.833
  104OSM      P10469   5.825   3.104   6.708
  104OSM    O1310470   5.948   3.187   6.705
  104OSM    O1410471   5.815   2.988   6.803
  104OSM    O1110472   5.802   3.057   6.560
  104OSM    O1210473   5.696   3.196   6.737
  104OSM    C1S10474   5.668   3.016   6.527
  104OSM    H1S10475   5.595   3.099   6.534
  104OSM    H1T10476   5.637   2.940   6.602
  104OSM     NF10477   5.529   2.930   6.337
  104OSM    HNF10478   5.487   2.841   6.351
  104OSM    C2S10479   5.666   2.951   6.389
  104OSM    H2S10480   5.719   3.016   6.316
  104OSM    C3S10481   5.751   2.818   6.385
  104OSM    H3S10482   5.701   2.740   6.446
  104OSM     O310483   5.884   2.828   6.447
  104OSM    HO310484   5.893   2.915   6.486
  104OSM    C4S10485   5.753   2.750   6.254
  104OSM    H4S10486   5.665   2.688   6.230
  104OSM    C5S10487   5.838   2.756   6.155
  104OSM    H5S10488   5.928   2.815   6.180
  104OSM    C6S10489   5.843   2.689   6.021
  104OSM    H6S10490   5.808   2.761   5.945
  104OSM    H6T10491   5.758   2.617   6.014
  104OSM    C7S10492   5.960   2.595   5.987
  104OSM    H7S10493   5.973   2.526   6.072
  104OSM    H7T10494   6.057   2.649   5.976
  104OSM    C8S10495   5.933   2.501   5.866
  104OSM    H8S10496   5.851   2.437   5.906
  104OSM    H8T10497   6.027   2.444   5.852
  104OSM    C9S10498   5.880   2.579   5.744
  104OSM    H9S10499   5.964   2.648   5.721
  104OSM    H9T10500   5.788   2.640   5.754
  104OSM   C10S10501   5.861   2.493   5.618
  104OSM   H10S10502   5.806   2.402   5.651
  104OSM   H10T10503   5.957   2.442   5.592
  104OSM   C11S10504   5.777   2.547   5.501
  104OSM   H11S10505   5.792   2.656   5.489
  104OSM   H11T10506   5.666   2.539   5.510
  104OSM   C12S10507   5.832   2.490   5.367
  104OSM   H12S10508   5.821   2.379   5.364
  104OSM   H12T10509   5.942   2.504   5.371
  104OSM   C13S10510   5.775   2.557   5.241
  104OSM   H13S10511   5.813   2.661   5.228
  104OSM   H13T10512   5.665   2.546   5.245
  104OSM   C14S10513   5.819   2.487   5.112
  104OSM   H14S10514   5.791   2.380   5.106
  104OSM   H14T10515   5.928   2.468   5.101
  104OSM   C15S10516   5.767   2.546   4.981
  104OSM   H15S10517   5.802   2.650   4.967
  104OSM   H15T10518   5.658   2.566   4.994
  104OSM   C16S10519   5.784   2.471   4.842
  104OSM   H16S10520   5.704   2.394   4.841
  104OSM   H16T10521   5.887   2.434   4.823
  104OSM   C17S10522   5.749   2.575   4.732
  104OSM   H17S10523   5.833   2.647   4.736
  104OSM   H17T10524   5.652   2.624   4.755
  104OSM   C18S10525   5.767   2.509   4.601
  104OSM   H18S10526   5.868   2.464   4.588
  104OSM   H18T10527   5.754   2.570   4.509
  104OSM   H18U10528   5.691   2.429   4.596
  104OSM    C1F10529   5.449   3.023   6.281
  104OSM     OF10530   5.485   3.129   6.245
  104OSM    C2F10531   5.314   2.986   6.249
  104OSM    H2F10532   5.245   3.049   6.309
  104OSM    H2G10533   5.303   2.878   6.275
  104OSM    C3F10534   5.298   3.000   6.095
  104OSM    H3F10535   5.315   3.105   6.063
  104OSM    H3G10536   5.192   2.979   6.067
  104OSM    C4F10537   5.381   2.899   6.008
  104OSM    H4F10538   5.391   2.804   6.064
  104OSM    H4G10539   5.485   2.938   6.007
  104OSM    C5F10540   5.313   2.880   5.868
  104OSM    H5F10541   5.243   2.965   5.850
  104OSM    H5G10542   5.255   2.785   5.870
  104OSM    C6F10543   5.408   2.893   5.749
  104OSM    H6F10544   5.489   2.824   5.780
  104OSM    H6G10545   5.431   2.999   5.730
  104OSM    C7F10546   5.344   2.833   5.623
  104OSM    H7F10547   5.265   2.904   5.589
  104OSM    H7G10548   5.301   2.734   5.649
  104OSM    C8F10549   5.442   2.826   5.497
  104OSM    H8F10550   5.532   2.767   5.524
  104OSM    H8G10551   5.472   2.930   5.473
  104OSM    C9F10552   5.387   2.744   5.380
  104OSM    H9F10553   5.337   2.654   5.419
  104OSM   C10F10554   5.384   2.780   5.249
  104OSM   H10F10555   5.345   2.702   5.181
  104OSM   C11F10556   5.436   2.897   5.177
  104OSM   H11F10557   5.489   2.960   5.251
  104OSM   H11G10558   5.350   2.957   5.140
  104OSM   C12F10559   5.538   2.883   5.058
  104OSM   H12F10560   5.627   2.819   5.072
  104OSM   H12G10561   5.568   2.983   5.019
  104OSM   C13F10562   5.460   2.821   4.935
  104OSM   H13F10563   5.352   2.843   4.945
  104OSM   H13G10564   5.484   2.713   4.934
  104OSM   C14F10565   5.505   2.877   4.799
  104OSM   H14F10566   5.613   2.854   4.785
  104OSM   H14G10567   5.502   2.988   4.804
  104OSM   C15F10568   5.424   2.823   4.678
  104OSM   H15F10569   5.318   2.847   4.700
  104OSM   H15G10570   5.433   2.713   4.678
  104OSM   C16F10571   5.473   2.881   4.544
  104OSM   H16F10572   5.576   2.846   4.524
  104OSM   H16G10573   5.464   2.992   4.543
  104OSM   C17F10574   5.390   2.827   4.422
  104OSM   H17F10575   5.413   2.720   4.402
  104OSM   H17G10576   5.431   2.885   4.336
  104OSM   C18F10577   5.234   2.860   4.424
  104OSM   H18F10578   5.182   2.827   4.332
  104OSM   H18G10579   5.205   2.965   4.446
  104OSM   H18H10580   5.182   2.802   4.504
  105OSM      N10581   5.883   3.792   7.304
  105OSM    C1510582   5.918   3.914   7.377
  105OSM   H15A10583   5.849   3.940   7.456
  105OSM   H15B10584   5.913   3.998   7.310
  105OSM   H15C10585   6.015   3.907   7.423
  105OSM    C1410586   6.003   3.698   7.282
  105OSM   H14A10587   6.100   3.742   7.266
  105OSM   H14B10588   5.976   3.642   7.195
  105OSM   H14C10589   6.016   3.632   7.366
  105OSM    C1310590   5.799   3.708   7.398
  105OSM   H13A10591   5.763   3.620   7.348
  105OSM   H13B10592   5.713   3.770   7.421
  105OSM   H13C10593   5.847   3.683   7.491
  105OSM    C1210594   5.807   3.818   7.180
  105OSM   H12A10595   5.720   3.878   7.205
  105OSM   H12B10596   5.765   3.728   7.139
  105OSM    C1110597   5.881   3.884   7.066
  105OSM   H11A10598   5.961   3.951   7.103
  105OSM   H11B10599   5.815   3.955   7.011
  105OSM      P10600   5.862   3.683   6.903
  105OSM    O1310601   5.934   3.557   6.917
  105OSM    O1410602   5.715   3.674   6.935
  105OSM    O1110603   5.887   3.744   6.760
  105OSM    O1210604   5.945   3.787   6.983
  105OSM    C1S10605   6.028   3.751   6.722
  105OSM    H1S10606   6.067   3.648   6.710
  105OSM    H1T10607   6.097   3.797   6.795
  105OSM     NF10608   6.187   3.760   6.517
  105OSM    HNF10609   6.267   3.819   6.508
  105OSM    C2S10610   6.058   3.813   6.582
  105OSM    H2S10611   5.982   3.781   6.508
  105OSM    C3S10612   6.052   3.965   6.601
  105OSM    H3S10613   6.138   4.005   6.660
  105OSM     O310614   5.926   4.010   6.657
  105OSM    HO310615   5.885   3.930   6.692
  105OSM    C4S10616   6.053   4.026   6.466
  105OSM    H4S10617   6.156   4.021   6.427
  105OSM    C5S10618   5.948   4.059   6.388
  105OSM    H5S10619   5.848   4.067   6.433
  105OSM    C6S10620   5.960   4.096   6.240
  105OSM    H6S10621   6.062   4.128   6.212
  105OSM    H6T10622   5.891   4.182   6.224
  105OSM    C7S10623   5.931   3.976   6.148
  105OSM    H7S10624   5.827   3.944   6.166
  105OSM    H7T10625   6.004   3.893   6.165
  105OSM    C8S10626   5.944   4.022   6.000
  105OSM    H8S10627   6.044   4.065   5.978
  105OSM    H8T10628   5.866   4.099   5.983
  105OSM    C9S10629   5.902   3.918   5.897
  105OSM    H9S10630   5.792   3.909   5.909
  105OSM    H9T10631   5.948   3.817   5.902
  105OSM   C10S10632   5.921   3.959   5.757
  105OSM   H10S10633   6.029   3.975   5.736
  105OSM   H10T10634   5.882   4.063   5.751
  105OSM   C11S10635   5.864   3.868   5.645
  105OSM   H11S10636   5.758   3.838   5.664
  105OSM   H11T10637   5.923   3.773   5.645
  105OSM   C12S10638   5.879   3.928   5.508
  105OSM   H12S10639   5.980   3.971   5.488
  105OSM   H12T10640   5.806   4.012   5.502
  105OSM   C13S10641   5.837   3.838   5.389
  105OSM   H13S10642   5.733   3.797   5.396
  105OSM   H13T10643   5.911   3.755   5.391
  105OSM   C14S10644   5.853   3.916   5.260
  105OSM   H14S10645   5.960   3.944   5.265
  105OSM   H14T10646   5.779   3.998   5.263
  105OSM   C15S10647   5.826   3.836   5.133
  105OSM   H15S10648   5.721   3.803   5.147
  105OSM   H15T10649   5.894   3.748   5.134
  105OSM   C16S10650   5.853   3.918   5.004
  105OSM   H16S10651   5.962   3.916   4.988
  105OSM   H16T10652   5.835   4.027   5.012
  105OSM   C17S10653   5.792   3.869   4.875
  105OSM   H17S10654   5.865   3.897   4.796
  105OSM   H17T10655   5.696   3.921   4.855
  105OSM   C18S10656   5.760   3.721   4.851
  105OSM   H18S10657   5.850   3.658   4.834
  105OSM   H18T10658   5.693   3.718   4.763
  105OSM   H18U10659   5.693   3.673   4.925
  105OSM    C1F10660   6.202   3.631   6.478
  105OSM     OF10661   6.111   3.548   6.484
  105OSM    C2F10662   6.333   3.592   6.419
  105OSM    H2F10663   6.393   3.552   6.504
  105OSM    H2G10664   6.395   3.680   6.394
  105OSM    C3F10665   6.307   3.491   6.297
  105OSM    H3F10666   6.236   3.414   6.333
  105OSM    H3G10667   6.404   3.442   6.274
  105OSM    C4F10668   6.254   3.559   6.171
  105OSM    H4F10669   6.339   3.623   6.138
  105OSM    H4G10670   6.167   3.625   6.189
  105OSM    C5F10671   6.220   3.458   6.059
  105OSM    H5F10672   6.125   3.408   6.086
  105OSM    H5G10673   6.304   3.388   6.042
  105OSM    C6F10674   6.206   3.522   5.916
  105OSM    H6F10675   6.311   3.542   5.885
  105OSM    H6G10676   6.147   3.616   5.917
  105OSM    C7F10677   6.130   3.422   5.827
  105OSM    H7F10678   6.034   3.394   5.876
  105OSM    H7G10679   6.198   3.335   5.835
  105OSM    C8F10680   6.101   3.455   5.680
  105OSM    H8F10681   6.198   3.483   5.633
  105OSM    H8G10682   6.032   3.542   5.673
  105OSM    C9F10683   6.023   3.355   5.611
  105OSM    H9F10684   5.964   3.284   5.670
  105OSM   C10F10685   5.990   3.368   5.474
  105OSM   H10F10686   5.920   3.297   5.429
  105OSM   C11F10687   6.057   3.476   5.385
  105OSM   H11F10688   6.161   3.448   5.360
  105OSM   H11G10689   6.071   3.577   5.427
  105OSM   C12F10690   5.978   3.482   5.258
  105OSM   H12F10691   6.022   3.571   5.209
  105OSM   H12G10692   5.869   3.502   5.271
  105OSM   C13F10693   5.987   3.359   5.174
  105OSM   H13F10694   5.963   3.265   5.227
  105OSM   H13G10695   6.093   3.342   5.144
  105OSM   C14F10696   5.893   3.372   5.050
  105OSM   H14F10697   5.881   3.474   5.009
  105OSM   H14G10698   5.789   3.346   5.080
  105OSM   C15F10699   5.952   3.284   4.939
  105OSM   H15F10700   5.938   3.178   4.967
  105OSM   H15G10701   6.062   3.292   4.925
  105OSM   C16F10702   5.885   3.318   4.808
  105OSM   H16F10703   5.894   3.428   4.803
  105OSM   H16G10704   5.779   3.283   4.811
  105OSM   C17F10705   5.961   3.261   4.681
  105OSM   H17F10706   6.063   3.305   4.684
  105OSM   H17G10707   5.906   3.289   4.589
  105OSM   C18F10708   5.973   3.105   4.690
  105OSM   H18F10709   5.992   3.070   4.586
  105OSM   H18G10710   5.870   3.076   4.720
  105OSM   H18H10711   6.042   3.067   4.769
  106OSM      N10712   4.574   1.556   7.089
  106OSM    C1510713   4.674   1.558   7.200
  106OSM   H15A10714   4.746   1.482   7.176
  106OSM   H15B10715   4.631   1.532   7.296
  106OSM   H15C10716   4.714   1.658   7.211
  106OSM    C1410717   4.503   1.426   7.096
  106OSM   H14A10718   4.448   1.420   7.189
  106OSM   H14B10719   4.576   1.346   7.100
  106OSM   H14C10720   4.437   1.415   7.012
  106OSM    C1310721   4.477   1.662   7.107
  106OSM   H13A10722   4.403   1.674   7.030
  106OSM   H13B10723   4.525   1.754   7.137
  106OSM   H13C10724   4.420   1.640   7.197
  106OSM    C1210725   4.657   1.578   6.959
  106OSM   H12A10726   4.732   1.500   6.962
  106OSM   H12B10727   4.701   1.676   6.963
  106OSM    C1110728   4.575   1.580   6.826
  106OSM   H11A10729   4.642   1.636   6.757
  106OSM   H11B10730   4.486   1.643   6.843
  106OSM      P10731   4.420   1.396   6.721
  106OSM    O1310732   4.440   1.257   6.669
  106OSM    O1410733   4.316   1.414   6.820
  106OSM    O1110734   4.402   1.498   6.606
  106OSM    O1210735   4.546   1.443   6.788
  106OSM    C1S10736   4.505   1.523   6.511
  106OSM    H1S10737   4.608   1.502   6.547
  106OSM    H1T10738   4.496   1.632   6.490
  106OSM     NF10739   4.566   1.537   6.270
  106OSM    HNF10740   4.548   1.624   6.225
  106OSM    C2S10741   4.470   1.475   6.365
  106OSM    H2S10742   4.468   1.365   6.349
  106OSM    C3S10743   4.323   1.522   6.328
  106OSM    H3S10744   4.316   1.630   6.353
  106OSM     O310745   4.225   1.457   6.416
  106OSM    HO310746   4.269   1.424   6.495
  106OSM    C4S10747   4.284   1.502   6.189
  106OSM    H4S10748   4.265   1.397   6.162
  106OSM    C5S10749   4.278   1.604   6.107
  106OSM    H5S10750   4.307   1.702   6.148
  106OSM    C6S10751   4.250   1.599   5.959
  106OSM    H6S10752   4.352   1.610   5.915
  106OSM    H6T10753   4.182   1.677   5.919
  106OSM    C7S10754   4.211   1.460   5.910
  106OSM    H7S10755   4.101   1.467   5.922
  106OSM    H7T10756   4.254   1.367   5.953
  106OSM    C8S10757   4.230   1.449   5.758
  106OSM    H8S10758   4.210   1.346   5.724
  106OSM    H8T10759   4.339   1.463   5.746
  106OSM    C9S10760   4.159   1.553   5.682
  106OSM    H9S10761   4.186   1.652   5.722
  106OSM    H9T10762   4.051   1.529   5.694
  106OSM   C10S10763   4.184   1.562   5.525
  106OSM   H10S10764   4.293   1.560   5.507
  106OSM   H10T10765   4.142   1.655   5.483
  106OSM   C11S10766   4.117   1.446   5.440
  106OSM   H11S10767   4.012   1.453   5.474
  106OSM   H11T10768   4.154   1.344   5.463
  106OSM   C12S10769   4.129   1.470   5.287
  106OSM   H12S10770   4.233   1.452   5.252
  106OSM   H12T10771   4.110   1.577   5.263
  106OSM   C13S10772   4.036   1.371   5.216
  106OSM   H13S10773   3.929   1.364   5.244
  106OSM   H13T10774   4.081   1.272   5.240
  106OSM   C14S10775   4.053   1.382   5.064
  106OSM   H14S10776   4.021   1.288   5.015
  106OSM   H14T10777   4.161   1.405   5.053
  106OSM   C15S10778   3.970   1.506   5.014
  106OSM   H15S10779   4.000   1.605   5.054
  106OSM   H15T10780   3.864   1.481   5.039
  106OSM   C16S10781   3.978   1.521   4.865
  106OSM   H16S10782   3.960   1.418   4.829
  106OSM   H16T10783   4.080   1.549   4.832
  106OSM   C17S10784   3.883   1.617   4.797
  106OSM   H17S10785   3.918   1.717   4.832
  106OSM   H17T10786   3.776   1.608   4.827
  106OSM   C18S10787   3.888   1.606   4.634
  106OSM   H18S10788   3.981   1.658   4.599
  106OSM   H18T10789   3.803   1.655   4.582
  106OSM   H18U10790   3.892   1.497   4.614
  106OSM    C1F10791   4.689   1.499   6.269
  106OSM     OF10792   4.723   1.394   6.327
  106OSM    C2F10793   4.794   1.573   6.185
  106OSM    H2F10794   4.867   1.604   6.262
  106OSM    H2G10795   4.763   1.671   6.143
  106OSM    C3F10796   4.874   1.501   6.076
  106OSM    H3F10797   4.922   1.415   6.128
  106OSM    H3G10798   4.955   1.562   6.033
  106OSM    C4F10799   4.785   1.458   5.955
  106OSM    H4F10800   4.709   1.388   5.996
  106OSM    H4G10801   4.863   1.419   5.886
  106OSM    C5F10802   4.705   1.573   5.888
  106OSM    H5F10803   4.776   1.656   5.868
  106OSM    H5G10804   4.620   1.614   5.948
  106OSM    C6F10805   4.643   1.535   5.750
  106OSM    H6F10806   4.565   1.458   5.772
  106OSM    H6G10807   4.718   1.485   5.685
  106OSM    C7F10808   4.581   1.663   5.682
  106OSM    H7F10809   4.646   1.742   5.724
  106OSM    H7G10810   4.479   1.679   5.723
  106OSM    C8F10811   4.580   1.648   5.527
  106OSM    H8F10812   4.536   1.550   5.500
  106OSM    H8G10813   4.688   1.652   5.502
  106OSM    C9F10814   4.506   1.757   5.459
  106OSM    H9F10815   4.450   1.833   5.515
  106OSM   C10F10816   4.528   1.779   5.326
  106OSM   H10F10817   4.476   1.866   5.284
  106OSM   C11F10818   4.598   1.693   5.232
  106OSM   H11F10819   4.628   1.594   5.272
  106OSM   H11G10820   4.696   1.746   5.225
  106OSM   C12F10821   4.513   1.687   5.109
  106OSM   H12F10822   4.477   1.788   5.082
  106OSM   H12G10823   4.424   1.633   5.148
  106OSM   C13F10824   4.588   1.602   5.003
  106OSM   H13F10825   4.571   1.495   5.028
  106OSM   H13G10826   4.696   1.614   5.024
  106OSM   C14F10827   4.533   1.631   4.859
  106OSM   H14F10828   4.601   1.582   4.787
  106OSM   H14G10829   4.530   1.739   4.834
  106OSM   C15F10830   4.400   1.562   4.819
  106OSM   H15F10831   4.321   1.610   4.881
  106OSM   H15G10832   4.413   1.455   4.845
  106OSM   C16F10833   4.376   1.575   4.663
  106OSM   H16F10834   4.297   1.498   4.648
  106OSM   H16G10835   4.468   1.558   4.602
  106OSM   C17F10836   4.322   1.717   4.633
  106OSM   H17F10837   4.391   1.799   4.663
  106OSM   H17G10838   4.238   1.737   4.701
  106OSM   C18F10839   4.267   1.738   4.495
  106OSM   H18F10840   4.325   1.697   4.411
  106OSM   H18G10841   4.267   1.849   4.484
  106OSM   H18H10842   4.162   1.701   4.491
  107OSM      N10843   3.794   6.259   6.872
  107OSM    C1510844   3.913   6.233   6.959
  107OSM   H15A10845   3.985   6.169   6.910
  107OSM   H15B10846   3.881   6.202   7.058
  107OSM   H15C10847   3.956   6.326   6.994
  107OSM    C1410848   3.722   6.127   6.854
  107OSM   H14A10849   3.788   6.047   6.825
  107OSM   H14B10850   3.641   6.126   6.782
  107OSM   H14C10851   3.668   6.111   6.947
  107OSM    C1310852   3.700   6.356   6.936
  107OSM   H13A10853   3.604   6.355   6.885
  107OSM   H13B10854   3.738   6.455   6.953
  107OSM   H13C10855   3.677   6.319   7.035
  107OSM    C1210856   3.848   6.304   6.734
  107OSM   H12A10857   3.891   6.215   6.690
  107OSM   H12B10858   3.930   6.374   6.739
  107OSM    C1110859   3.742   6.367   6.637
  107OSM   H11A10860   3.639   6.331   6.660
  107OSM   H11B10861   3.772   6.342   6.534
  107OSM      P10862   3.862   6.605   6.582
  107OSM    O1310863   3.823   6.747   6.619
  107OSM    O1410864   3.999   6.547   6.610
  107OSM    O1110865   3.835   6.585   6.430
  107OSM    O1210866   3.749   6.512   6.644
  107OSM    C1S10867   3.708   6.580   6.365
  107OSM    H1S10868   3.658   6.679   6.360
  107OSM    H1T10869   3.633   6.509   6.406
  107OSM     NF10870   3.593   6.554   6.145
  107OSM    HNF10871   3.540   6.482   6.100
  107OSM    C2S10872   3.720   6.532   6.217
  107OSM    H2S10873   3.791   6.606   6.175
  107OSM    C3S10874   3.787   6.392   6.199
  107OSM    H3S10875   3.732   6.313   6.254
  107OSM     O310876   3.916   6.374   6.254
  107OSM    HO310877   3.935   6.449   6.311
  107OSM    C4S10878   3.795   6.350   6.050
  107OSM    H4S10879   3.829   6.428   5.981
  107OSM    C5S10880   3.748   6.231   5.998
  107OSM    H5S10881   3.719   6.149   6.065
  107OSM    C6S10882   3.745   6.180   5.857
  107OSM    H6S10883   3.647   6.132   5.839
  107OSM    H6T10884   3.819   6.099   5.842
  107OSM    C7S10885   3.780   6.279   5.749
  107OSM    H7S10886   3.885   6.315   5.747
  107OSM    H7T10887   3.709   6.360   5.776
  107OSM    C8S10888   3.755   6.226   5.603
  107OSM    H8S10889   3.647   6.207   5.587
  107OSM    H8T10890   3.787   6.121   5.591
  107OSM    C9S10891   3.819   6.315   5.497
  107OSM    H9S10892   3.929   6.318   5.515
  107OSM    H9T10893   3.780   6.419   5.497
  107OSM   C10S10894   3.800   6.265   5.357
  107OSM   H10S10895   3.693   6.282   5.333
  107OSM   H10T10896   3.813   6.155   5.346
  107OSM   C11S10897   3.886   6.348   5.259
  107OSM   H11S10898   3.995   6.330   5.273
  107OSM   H11T10899   3.878   6.455   5.287
  107OSM   C12S10900   3.860   6.323   5.106
  107OSM   H12S10901   3.756   6.352   5.080
  107OSM   H12T10902   3.872   6.215   5.085
  107OSM   C13S10903   3.960   6.401   5.023
  107OSM   H13S10904   4.067   6.373   5.033
  107OSM   H13T10905   3.951   6.508   5.052
  107OSM   C14S10906   3.941   6.392   4.867
  107OSM   H14S10907   3.970   6.292   4.828
  107OSM   H14T10908   4.013   6.467   4.829
  107OSM   C15S10909   3.799   6.422   4.816
  107OSM   H15S10910   3.767   6.521   4.855
  107OSM   H15T10911   3.726   6.345   4.847
  107OSM   C16S10912   3.782   6.439   4.660
  107OSM   H16S10913   3.788   6.334   4.622
  107OSM   H16T10914   3.874   6.489   4.623
  107OSM   C17S10915   3.648   6.502   4.616
  107OSM   H17S10916   3.620   6.601   4.659
  107OSM   H17T10917   3.578   6.416   4.618
  107OSM   C18S10918   3.672   6.529   4.467
  107OSM   H18S10919   3.601   6.603   4.424
  107OSM   H18T10920   3.672   6.433   4.411
  107OSM   H18U10921   3.769   6.578   4.444
  107OSM    C1F10922   3.548   6.681   6.113
  107OSM     OF10923   3.622   6.779   6.121
  107OSM    C2F10924   3.410   6.700   6.052
  107OSM    H2F10925   3.389   6.800   6.010
  107OSM    H2G10926   3.326   6.671   6.119
  107OSM    C3F10927   3.382   6.603   5.931
  107OSM    H3F10928   3.286   6.626   5.881
  107OSM    H3G10929   3.372   6.498   5.964
  107OSM    C4F10930   3.491   6.599   5.820
  107OSM    H4F10931   3.573   6.530   5.851
  107OSM    H4G10932   3.534   6.701   5.805
  107OSM    C5F10933   3.431   6.541   5.693
  107OSM    H5F10934   3.514   6.522   5.621
  107OSM    H5G10935   3.367   6.619   5.647
  107OSM    C6F10936   3.360   6.411   5.704
  107OSM    H6F10937   3.267   6.437   5.760
  107OSM    H6G10938   3.411   6.333   5.764
  107OSM    C7F10939   3.329   6.343   5.573
  107OSM    H7F10940   3.422   6.308   5.523
  107OSM    H7G10941   3.277   6.421   5.513
  107OSM    C8F10942   3.244   6.220   5.581
  107OSM    H8F10943   3.162   6.244   5.652
  107OSM    H8G10944   3.299   6.133   5.622
  107OSM    C9F10945   3.176   6.176   5.450
  107OSM    H9F10946   3.073   6.209   5.433
  107OSM   C10F10947   3.227   6.082   5.365
  107OSM   H10F10948   3.169   6.063   5.274
  107OSM   C11F10949   3.359   6.014   5.388
  107OSM   H11F10950   3.340   5.908   5.361
  107OSM   H11G10951   3.395   6.020   5.493
  107OSM   C12F10952   3.467   6.066   5.290
  107OSM   H12F10953   3.564   6.012   5.296
  107OSM   H12G10954   3.500   6.168   5.319
  107OSM   C13F10955   3.413   6.065   5.143
  107OSM   H13F10956   3.336   6.141   5.118
  107OSM   H13G10957   3.372   5.962   5.139
  107OSM   C14F10958   3.518   6.085   5.019
  107OSM   H14F10959   3.587   5.998   5.012
  107OSM   H14G10960   3.565   6.184   5.038
  107OSM   C15F10961   3.434   6.106   4.887
  107OSM   H15F10962   3.348   6.173   4.905
  107OSM   H15G10963   3.378   6.011   4.881
  107OSM   C16F10964   3.518   6.143   4.767
  107OSM   H16F10965   3.599   6.067   4.768
  107OSM   H16G10966   3.559   6.244   4.791
  107OSM   C17F10967   3.443   6.128   4.633
  107OSM   H17F10968   3.355   6.196   4.629
  107OSM   H17G10969   3.395   6.028   4.633
  107OSM   C18F10970   3.533   6.134   4.515
  107OSM   H18F10971   3.568   6.239   4.505
  107OSM   H18G10972   3.495   6.094   4.419
  107OSM   H18H10973   3.623   6.073   4.538
  108OSM      N10974   6.411   5.856   7.067
  108OSM    C1510975   6.389   5.776   7.192
  108OSM   H15A10976   6.467   5.703   7.209
  108OSM   H15B10977   6.293   5.728   7.183
  108OSM   H15C10978   6.393   5.843   7.277
  108OSM    C1410979   6.298   5.958   7.063
  108OSM   H14A10980   6.203   5.906   7.065
  108OSM   H14B10981   6.297   6.014   6.971
  108OSM   H14C10982   6.297   6.035   7.138
  108OSM    C1310983   6.542   5.914   7.085
  108OSM   H13A10984   6.570   5.959   6.991
  108OSM   H13B10985   6.611   5.837   7.115
  108OSM   H13C10986   6.544   5.990   7.162
  108OSM    C1210987   6.409   5.765   6.948
  108OSM   H12A10988   6.322   5.701   6.957
  108OSM   H12B10989   6.491   5.695   6.948
  108OSM    C1110990   6.403   5.826   6.807
  108OSM   H11A10991   6.310   5.884   6.789
  108OSM   H11B10992   6.409   5.749   6.727
  108OSM      P10993   6.650   5.887   6.739
  108OSM    O1310994   6.740   6.004   6.716
  108OSM    O1410995   6.705   5.774   6.823
  108OSM    O1110996   6.615   5.835   6.593
  108OSM    O1210997   6.503   5.923   6.794
  108OSM    C1S10998   6.549   5.933   6.508
  108OSM    H1S10999   6.599   6.032   6.503
  108OSM    H1T11000   6.444   5.953   6.537
  108OSM     NF11001   6.496   5.984   6.272
  108OSM    HNF11002   6.413   5.965   6.222
  108OSM    C2S11003   6.543   5.883   6.361
  108OSM    H2S11004   6.648   5.861   6.331
  108OSM    C3S11005   6.450   5.758   6.345
  108OSM    H3S11006   6.345   5.789   6.322
  108OSM     O311007   6.440   5.687   6.465
  108OSM    HO311008   6.508   5.717   6.526
  108OSM    C4S11009   6.480   5.672   6.219
  108OSM    H4S11010   6.407   5.673   6.137
  108OSM    C5S11011   6.581   5.577   6.219
  108OSM    H5S11012   6.650   5.571   6.304
  108OSM    C6S11013   6.618   5.486   6.099
  108OSM    H6S11014   6.629   5.379   6.128
  108OSM    H6T11015   6.719   5.520   6.068
  108OSM    C7S11016   6.519   5.497   5.973
  108OSM    H7S11017   6.520   5.602   5.938
  108OSM    H7T11018   6.418   5.464   6.006
  108OSM    C8S11019   6.570   5.402   5.864
  108OSM    H8S11020   6.514   5.419   5.770
  108OSM    H8T11021   6.537   5.301   5.897
  108OSM    C9S11022   6.717   5.416   5.835
  108OSM    H9S11023   6.774   5.371   5.919
  108OSM    H9T11024   6.754   5.519   5.818
  108OSM   C10S11025   6.744   5.347   5.699
  108OSM   H10S11026   6.703   5.244   5.700
  108OSM   H10T11027   0.053   5.338   5.681
  108OSM   C11S11028   6.679   5.419   5.581
  108OSM   H11S11029   6.709   5.525   5.593
  108OSM   H11T11030   6.569   5.411   5.588
  108OSM   C12S11031   6.724   5.358   5.446
  108OSM   H12S11032   6.696   5.251   5.447
  108OSM   H12T11033   0.034   5.366   5.436
  108OSM   C13S11034   6.663   5.434   5.322
  108OSM   H13S11035   6.677   5.543   5.336
  108OSM   H13T11036   6.552   5.432   5.327
  108OSM   C14S11037   6.720   5.369   5.192
  108OSM   H14S11038   6.678   5.266   5.197
  108OSM   H14T11039   0.031   5.368   5.197
  108OSM   C15S11040   6.680   5.434   5.053
  108OSM   H15S11041   6.735   5.529   5.037
  108OSM   H15T11042   6.570   5.449   5.064
  108OSM   C16S11043   6.707   5.342   4.937
  108OSM   H16S11044   6.674   5.240   4.967
  108OSM   H16T11045   0.017   5.331   4.922
  108OSM   C17S11046   6.666   5.396   4.798
  108OSM   H17S11047   6.709   5.497   4.817
  108OSM   H17T11048   6.555   5.393   4.805
  108OSM   C18S11049   6.729   5.328   4.671
  108OSM   H18S11050   6.680   5.372   4.582
  108OSM   H18T11051   6.718   5.218   4.683
  108OSM   H18U11052   0.036   5.358   4.671
  108OSM    C1F11053   6.569   6.091   6.235
  108OSM     OF11054   6.676   6.121   6.296
  108OSM    C2F11055   6.513   6.177   6.129
  108OSM    H2F11056   6.462   6.258   6.186
  108OSM    H2G11057   6.452   6.118   6.057
  108OSM    C3F11058   6.625   6.242   6.039
  108OSM    H3F11059   6.670   6.162   5.977
  108OSM    H3G11060   6.703   6.277   6.110
  108OSM    C4F11061   6.586   6.357   5.950
  108OSM    H4F11062   6.681   6.394   5.906
  108OSM    H4G11063   6.544   6.436   6.015
  108OSM    C5F11064   6.468   6.332   5.854
  108OSM    H5F11065   6.444   6.423   5.796
  108OSM    H5G11066   6.385   6.325   5.928
  108OSM    C6F11067   6.492   6.215   5.759
  108OSM    H6F11068   6.497   6.118   5.812
  108OSM    H6G11069   6.597   6.209   5.722
  108OSM    C7F11070   6.407   6.193   5.634
  108OSM    H7F11071   6.299   6.203   5.658
  108OSM    H7G11072   6.420   6.090   5.596
  108OSM    C8F11073   6.454   6.286   5.513
  108OSM    H8F11074   6.563   6.269   5.501
  108OSM    H8G11075   6.434   6.394   5.530
  108OSM    C9F11076   6.382   6.240   5.392
  108OSM    H9F11077   6.273   6.257   5.384
  108OSM   C10F11078   6.434   6.200   5.273
  108OSM   H10F11079   6.358   6.179   5.197
  108OSM   C11F11080   6.581   6.190   5.240
  108OSM   H11F11081   6.593   6.095   5.184
  108OSM   H11G11082   6.652   6.186   5.325
  108OSM   C12F11083   6.618   6.320   5.156
  108OSM   H12F11084   6.727   6.333   5.171
  108OSM   H12G11085   6.574   6.413   5.197
  108OSM   C13F11086   6.570   6.299   5.012
  108OSM   H13F11087   6.465   6.264   5.009
  108OSM   H13G11088   6.625   6.208   4.978
  108OSM   C14F11089   6.591   6.424   4.924
  108OSM   H14F11090   6.542   6.519   4.956
  108OSM   H14G11091   6.523   6.407   4.838
  108OSM   C15F11092   6.726   6.443   4.859
  108OSM   H15F11093   6.750   6.342   4.820
  108OSM   H15G11094   0.005   6.463   4.934
  108OSM   C16F11095   6.723   6.563   4.751
  108OSM   H16F11096   0.029   6.579   4.725
  108OSM   H16G11097   6.690   6.652   4.810
  108OSM   C17F11098   6.640   6.536   4.628
  108OSM   H17F11099   6.636   6.628   4.567
  108OSM   H17G11100   6.535   6.506   4.651
  108OSM   C18F11101   6.682   6.413   4.547
  108OSM   H18F11102   6.606   6.381   4.472
  108OSM   H18G11103   6.703   6.329   4.616
  108OSM   H18H11104   6.771   6.429   4.483
  109OSM      N11105   2.599   2.866   6.523
  109OSM    C1511106   2.614   2.947   6.649
  109OSM   H15A11107   2.639   3.049   6.625
  109OSM   H15B11108   2.683   2.899   6.717
  109OSM   H15C11109   2.517   2.945   6.695
  109OSM    C1411110   2.517   2.740   6.579
  109OSM   H14A11111   2.415   2.766   6.607
  109OSM   H14B11112   2.580   2.701   6.658
  109OSM   H14C11113   2.512   2.658   6.510
  109OSM    C1311114   2.519   2.943   6.434
  109OSM   H13A11115   2.498   2.885   6.345
  109OSM   H13B11116   2.571   3.033   6.402
  109OSM   H13C11117   2.426   2.977   6.478
  109OSM    C1211118   2.732   2.830   6.471
  109OSM   H12A11119   2.790   2.918   6.446
  109OSM   H12B11120   2.709   2.785   6.375
  109OSM    C1111121   2.830   2.756   6.570
  109OSM   H11A11122   2.825   2.816   6.664
  109OSM   H11B11123   2.933   2.763   6.528
  109OSM      P11124   2.905   2.526   6.655
  109OSM    O1311125   2.991   2.606   6.750
  109OSM    O1411126   2.858   2.401   6.712
  109OSM    O1111127   2.997   2.482   6.526
  109OSM    O1211128   2.791   2.617   6.589
  109OSM    C1S11129   2.953   2.389   6.431
  109OSM    H1S11130   2.842   2.383   6.432
  109OSM    H1T11131   2.982   2.286   6.462
  109OSM     NF11132   2.949   2.311   6.201
  109OSM    HNF11133   3.018   2.240   6.183
  109OSM    C2S11134   2.995   2.412   6.291
  109OSM    H2S11135   2.939   2.503   6.259
  109OSM    C3S11136   3.156   2.431   6.283
  109OSM    H3S11137   3.198   2.330   6.300
  109OSM     O311138   3.220   2.512   6.384
  109OSM    HO311139   3.148   2.517   6.447
  109OSM    C4S11140   3.192   2.473   6.148
  109OSM    H4S11141   3.133   2.558   6.111
  109OSM    C5S11142   3.282   2.402   6.071
  109OSM    H5S11143   3.337   2.318   6.114
  109OSM    C6S11144   3.308   2.437   5.927
  109OSM    H6S11145   3.336   2.346   5.869
  109OSM    H6T11146   3.397   2.504   5.917
  109OSM    C7S11147   3.194   2.517   5.856
  109OSM    H7S11148   3.192   2.612   5.914
  109OSM    H7T11149   3.095   2.469   5.866
  109OSM    C8S11150   3.217   2.546   5.702
  109OSM    H8S11151   3.325   2.567   5.697
  109OSM    H8T11152   3.162   2.637   5.672
  109OSM    C9S11153   3.177   2.428   5.608
  109OSM    H9S11154   3.066   2.420   5.610
  109OSM    H9T11155   3.219   2.330   5.637
  109OSM   C10S11156   3.213   2.463   5.460
  109OSM   H10S11157   3.324   2.457   5.450
  109OSM   H10T11158   3.174   2.565   5.436
  109OSM   C11S11159   3.157   2.362   5.369
  109OSM   H11S11160   3.047   2.352   5.377
  109OSM   H11T11161   3.199   2.261   5.386
  109OSM   C12S11162   3.189   2.399   5.224
  109OSM   H12S11163   3.298   2.410   5.203
  109OSM   H12T11164   3.147   2.498   5.195
  109OSM   C13S11165   3.130   2.290   5.126
  109OSM   H13S11166   3.021   2.306   5.141
  109OSM   H13T11167   3.149   2.189   5.168
  109OSM   C14S11168   3.151   2.294   4.975
  109OSM   H14S11169   3.259   2.279   4.954
  109OSM   H14T11170   3.115   2.394   4.942
  109OSM   C15S11171   3.078   2.186   4.894
  109OSM   H15S11172   2.969   2.206   4.902
  109OSM   H15T11173   3.110   2.094   4.947
  109OSM   C16S11174   3.111   2.183   4.745
  109OSM   H16S11175   3.047   2.104   4.701
  109OSM   H16T11176   3.210   2.140   4.721
  109OSM   C17S11177   3.093   2.315   4.677
  109OSM   H17S11178   3.165   2.382   4.726
  109OSM   H17T11179   2.994   2.363   4.695
  109OSM   C18S11180   3.144   2.317   4.536
  109OSM   H18S11181   3.155   2.424   4.509
  109OSM   H18T11182   3.075   2.263   4.467
  109OSM   H18U11183   3.237   2.258   4.524
  109OSM    C1F11184   2.820   2.295   6.164
  109OSM     OF11185   2.737   2.372   6.203
  109OSM    C2F11186   2.789   2.187   6.066
  109OSM    H2F11187   2.704   2.124   6.102
  109OSM    H2G11188   2.871   2.112   6.058
  109OSM    C3F11189   2.776   2.252   5.930
  109OSM    H3F11190   2.875   2.297   5.908
  109OSM    H3G11191   2.693   2.325   5.928
  109OSM    C4F11192   2.755   2.159   5.810
  109OSM    H4F11193   2.653   2.115   5.811
  109OSM    H4G11194   2.824   2.072   5.796
  109OSM    C5F11195   2.775   2.233   5.666
  109OSM    H5F11196   2.884   2.252   5.658
  109OSM    H5G11197   2.717   2.327   5.659
  109OSM    C6F11198   2.727   2.144   5.547
  109OSM    H6F11199   2.621   2.113   5.558
  109OSM    H6G11200   2.791   2.056   5.567
  109OSM    C7F11201   2.773   2.214   5.425
  109OSM    H7F11202   2.883   2.202   5.431
  109OSM    H7G11203   2.754   2.323   5.441
  109OSM    C8F11204   2.705   2.192   5.291
  109OSM    H8F11205   2.744   2.258   5.211
  109OSM    H8G11206   2.595   2.207   5.306
  109OSM    C9F11207   2.720   2.051   5.248
  109OSM    H9F11208   2.796   1.999   5.309
  109OSM   C10F11209   2.653   1.988   5.153
  109OSM   H10F11210   2.685   1.884   5.139
  109OSM   C11F11211   2.538   2.039   5.076
  109OSM   H11F11212   2.508   2.137   5.119
  109OSM   H11G11213   2.457   1.964   5.092
  109OSM   C12F11214   2.567   2.046   4.928
  109OSM   H12F11215   2.480   2.101   4.885
  109OSM   H12G11216   2.565   1.947   4.877
  109OSM   C13F11217   2.693   2.128   4.899
  109OSM   H13F11218   2.778   2.059   4.915
  109OSM   H13G11219   2.680   2.222   4.958
  109OSM   C14F11220   2.695   2.181   4.751
  109OSM   H14F11221   2.793   2.231   4.733
  109OSM   H14G11222   2.625   2.267   4.742
  109OSM   C15F11223   2.664   2.069   4.644
  109OSM   H15F11224   2.561   2.031   4.658
  109OSM   H15G11225   2.739   1.990   4.660
  109OSM   C16F11226   2.667   2.125   4.500
  109OSM   H16F11227   2.604   2.217   4.500
  109OSM   H16G11228   2.631   2.042   4.435
  109OSM   C17F11229   2.812   2.162   4.455
  109OSM   H17F11230   2.879   2.079   4.485
  109OSM   H17G11231   2.841   2.244   4.524
  109OSM   C18F11232   2.807   2.205   4.308
  109OSM   H18F11233   2.908   2.240   4.279
  109OSM   H18G11234   2.730   2.285   4.302
  109OSM   H18H11235   2.785   2.114   4.247
  110OSM      N11236   5.076   6.039   7.029
  110OSM    C1511237   5.177   6.021   7.140
  110OSM   H15A11238   5.276   6.055   7.114
  110OSM   H15B11239   5.208   5.919   7.160
  110OSM   H15C11240   5.145   6.070   7.231
  110OSM    C1411241   4.957   5.961   7.077
  110OSM   H14A11242   4.871   5.961   7.012
  110OSM   H14B11243   4.927   6.005   7.171
  110OSM   H14C11244   4.984   5.857   7.088
  110OSM    C1311245   5.030   6.186   7.030
  110OSM   H13A11246   5.002   6.226   7.127
  110OSM   H13B11247   4.944   6.193   6.964
  110OSM   H13C11248   5.113   6.246   6.997
  110OSM    C1211249   5.131   5.993   6.904
  110OSM   H12A11250   5.052   5.984   6.830
  110OSM   H12B11251   5.160   5.889   6.911
  110OSM    C1111252   5.247   6.080   6.845
  110OSM   H11A11253   5.203   6.178   6.819
  110OSM   H11B11254   5.287   6.042   6.748
  110OSM      P11255   5.470   6.200   6.901
  110OSM    O1311256   5.433   6.312   6.990
  110OSM    O1411257   5.602   6.136   6.905
  110OSM    O1111258   5.435   6.234   6.747
  110OSM    O1211259   5.358   6.088   6.933
  110OSM    C1S11260   5.496   6.357   6.704
  110OSM    H1S11261   5.603   6.358   6.734
  110OSM    H1T11262   5.455   6.439   6.767
  110OSM     NF11263   5.585   6.477   6.510
  110OSM    HNF11264   5.537   6.561   6.484
  110OSM    C2S11265   5.491   6.378   6.551
  110OSM    H2S11266   5.522   6.278   6.514
  110OSM    C3S11267   5.341   6.392   6.509
  110OSM    H3S11268   5.303   6.492   6.542
  110OSM     O311269   5.253   6.284   6.552
  110OSM    HO311270   5.313   6.237   6.611
  110OSM    C4S11271   5.333   6.403   6.360
  110OSM    H4S11272   5.375   6.313   6.314
  110OSM    C5S11273   5.287   6.504   6.285
  110OSM    H5S11274   5.260   6.602   6.327
  110OSM    C6S11275   5.296   6.509   6.138
  110OSM    H6S11276   5.382   6.569   6.102
  110OSM    H6T11277   5.208   6.562   6.096
  110OSM    C7S11278   5.286   6.381   6.055
  110OSM    H7S11279   5.191   6.324   6.065
  110OSM    H7T11280   5.368   6.318   6.095
  110OSM    C8S11281   5.314   6.390   5.906
  110OSM    H8S11282   5.414   6.435   5.892
  110OSM    H8T11283   5.246   6.469   5.867
  110OSM    C9S11284   5.290   6.257   5.833
  110OSM    H9S11285   5.193   6.208   5.855
  110OSM    H9T11286   5.375   6.188   5.854
  110OSM   C10S11287   5.293   6.294   5.678
  110OSM   H10S11288   5.385   6.347   5.648
  110OSM   H10T11289   5.216   6.369   5.653
  110OSM   C11S11290   5.283   6.157   5.607
  110OSM   H11S11291   5.189   6.105   5.634
  110OSM   H11T11292   5.370   6.093   5.632
  110OSM   C12S11293   5.277   6.181   5.457
  110OSM   H12S11294   5.372   6.232   5.429
  110OSM   H12T11295   5.189   6.239   5.422
  110OSM   C13S11296   5.278   6.046   5.372
  110OSM   H13S11297   5.179   5.997   5.384
  110OSM   H13T11298   5.341   5.960   5.401
  110OSM   C14S11299   5.301   6.083   5.227
  110OSM   H14S11300   5.393   6.143   5.213
  110OSM   H14T11301   5.216   6.148   5.196
  110OSM   C15S11302   5.291   5.958   5.147
  110OSM   H15S11303   5.210   5.888   5.175
  110OSM   H15T11304   5.381   5.893   5.159
  110OSM   C16S11305   5.268   5.989   5.003
  110OSM   H16S11306   5.353   6.049   4.965
  110OSM   H16T11307   5.182   6.059   5.000
  110OSM   C17S11308   5.252   5.864   4.920
  110OSM   H17S11309   5.317   5.780   4.953
  110OSM   H17T11310   5.295   5.881   4.819
  110OSM   C18S11311   5.108   5.810   4.915
  110OSM   H18S11312   5.069   5.814   5.020
  110OSM   H18T11313   5.100   5.711   4.866
  110OSM   H18U11314   5.043   5.878   4.855
  110OSM    C1F11315   5.716   6.460   6.506
  110OSM     OF11316   5.774   6.359   6.544
  110OSM    C2F11317   5.791   6.583   6.462
  110OSM    H2F11318   5.868   6.598   6.540
  110OSM    H2G11319   5.712   6.662   6.462
  110OSM    C3F11320   5.865   6.564   6.328
  110OSM    H3F11321   5.936   6.482   6.351
  110OSM    H3G11322   5.915   6.662   6.316
  110OSM    C4F11323   5.775   6.535   6.210
  110OSM    H4F11324   5.735   6.432   6.223
  110OSM    H4G11325   5.840   6.551   6.122
  110OSM    C5F11326   5.661   6.638   6.182
  110OSM    H5F11327   5.675   6.732   6.241
  110OSM    H5G11328   5.564   6.598   6.217
  110OSM    C6F11329   5.657   6.685   6.032
  110OSM    H6F11330   5.557   6.733   6.019
  110OSM    H6G11331   5.675   6.598   5.966
  110OSM    C7F11332   5.772   6.777   5.992
  110OSM    H7F11333   5.863   6.722   6.024
  110OSM    H7G11334   5.773   0.073   6.047
  110OSM    C8F11335   5.774   6.794   5.843
  110OSM    H8F11336   5.675   0.030   5.808
  110OSM    H8G11337   5.789   6.696   5.794
  110OSM    C9F11338   5.881   0.082   5.787
  110OSM    H9F11339   5.975   0.091   5.844
  110OSM   C10F11340   5.884   0.143   5.665
  110OSM   H10F11341   5.973   0.203   5.637
  110OSM   C11F11342   5.777   0.160   5.552
  110OSM   H11F11343   5.766   0.267   5.523
  110OSM   H11G11344   5.679   0.121   5.585
  110OSM   C12F11345   5.823   0.087   5.426
  110OSM   H12F11346   5.848   6.782   5.447
  110OSM   H12G11347   5.908   0.136   5.373
  110OSM   C13F11348   5.715   0.089   5.316
  110OSM   H13F11349   5.692   0.196   5.295
  110OSM   H13G11350   5.623   0.034   5.347
  110OSM   C14F11351   5.764   0.017   5.192
  110OSM   H14F11352   5.772   6.708   5.206
  110OSM   H14G11353   5.866   0.052   5.166
  110OSM   C15F11354   5.674   0.045   5.066
  110OSM   H15F11355   5.664   0.155   5.049
  110OSM   H15G11356   5.575   0.002   5.093
  110OSM   C16F11357   5.735   6.790   4.932
  110OSM   H16F11358   5.720   6.680   4.927
  110OSM   H16G11359   5.841   0.017   4.912
  110OSM   C17F11360   5.656   0.045   4.812
  110OSM   H17F11361   5.707   0.005   4.722
  110OSM   H17G11362   5.666   0.155   4.819
  110OSM   C18F11363   5.509   0.013   4.803
  110OSM   H18F11364   5.472   0.012   4.908
  110OSM   H18G11365   5.491   6.710   4.766
  110OSM   H18H11366   5.463   0.086   4.733
  111OSM      N11367   1.514   3.495   6.886
  111OSM    C1511368   1.419   3.480   7.005
  111OSM   H15A11369   1.463   3.532   7.089
  111OSM   H15B11370   1.407   3.375   7.027
  111OSM   H15C11371   1.326   3.528   6.976
  111OSM    C1411372   1.548   3.637   6.850
  111OSM   H14A11373   1.605   3.642   6.759
  111OSM   H14B11374   1.600   3.684   6.932
  111OSM   H14C11375   1.453   3.683   6.825
  111OSM    C1311376   1.639   3.419   6.920
  111OSM   H13A11377   1.724   3.439   6.856
  111OSM   H13B11378   1.639   3.311   6.925
  111OSM   H13C11379   1.675   3.452   7.016
  111OSM    C1211380   1.452   3.440   6.762
  111OSM   H12A11381   1.415   3.343   6.790
  111OSM   H12B11382   1.536   3.433   6.694
  111OSM    C1111383   1.332   3.515   6.696
  111OSM   H11A11384   1.279   3.451   6.623
  111OSM   H11B11385   1.364   3.607   6.641
  111OSM      P11386   1.161   3.681   6.823
  111OSM    O1311387   1.069   3.656   6.933
  111OSM    O1411388   1.267   3.788   6.833
  111OSM    O1111389   1.077   3.691   6.689
  111OSM    O1211390   1.241   3.549   6.797
  111OSM    C1S11391   1.079   3.803   6.603
  111OSM    H1S11392   1.164   3.795   6.531
  111OSM    H1T11393   1.105   3.899   6.653
  111OSM     NF11394   0.971   3.907   6.412
  111OSM    HNF11395   0.902   3.979   6.416
  111OSM    C2S11396   0.952   3.812   6.514
  111OSM    H2S11397   0.953   3.714   6.461
  111OSM    C3S11398   0.821   3.824   6.595
  111OSM    H3S11399   0.813   3.925   6.642
  111OSM     O311400   0.813   3.738   6.709
  111OSM    HO311401   0.903   3.704   6.712
  111OSM    C4S11402   0.699   3.814   6.515
  111OSM    H4S11403   0.632   3.901   6.517
  111OSM    C5S11404   0.674   3.715   6.431
  111OSM    H5S11405   0.740   3.628   6.418
  111OSM    C6S11406   0.549   3.711   6.352
  111OSM    H6S11407   0.467   3.677   6.418
  111OSM    H6T11408   0.566   3.647   6.263
  111OSM    C7S11409   0.488   3.845   6.296
  111OSM    H7S11410   0.479   3.917   6.380
  111OSM    H7T11411   0.393   3.839   6.239
  111OSM    C8S11412   0.584   3.904   6.187
  111OSM    H8S11413   0.586   3.849   6.091
  111OSM    H8T11414   0.691   3.893   6.215
  111OSM    C9S11415   0.551   4.051   6.146
  111OSM    H9S11416   0.563   4.120   6.233
  111OSM    H9T11417   0.446   4.050   6.112
  111OSM   C10S11418   0.646   4.110   6.037
  111OSM   H10S11419   0.660   4.025   5.968
  111OSM   H10T11420   0.745   4.137   6.081
  111OSM   C11S11421   0.579   4.230   5.968
  111OSM   H11S11422   0.584   4.316   6.038
  111OSM   H11T11423   0.473   4.206   5.943
  111OSM   C12S11424   0.660   4.266   5.849
  111OSM   H12S11425   0.669   4.179   5.780
  111OSM   H12T11426   0.765   4.290   5.876
  111OSM   C13S11427   0.602   4.373   5.750
  111OSM   H13S11428   0.617   4.477   5.784
  111OSM   H13T11429   0.493   4.359   5.737
  111OSM   C14S11430   0.666   4.367   5.619
  111OSM   H14S11431   0.674   4.266   5.573
  111OSM   H14T11432   0.768   4.412   5.627
  111OSM   C15S11433   0.578   4.445   5.518
  111OSM   H15S11434   0.522   4.533   5.557
  111OSM   H15T11435   0.503   4.367   5.493
  111OSM   C16S11436   0.653   4.489   5.385
  111OSM   H16S11437   0.573   4.500   5.309
  111OSM   H16T11438   0.727   4.412   5.354
  111OSM   C17S11439   0.720   4.625   5.374
  111OSM   H17S11440   0.648   4.708   5.386
  111OSM   H17T11441   0.762   4.630   5.272
  111OSM   C18S11442   0.838   4.635   5.474
  111OSM   H18S11443   0.903   4.712   5.427
  111OSM   H18T11444   0.899   4.543   5.486
  111OSM   H18U11445   0.817   4.679   5.574
  111OSM    C1F11446   1.065   3.902   6.308
  111OSM     OF11447   1.149   3.814   6.300
  111OSM    C2F11448   1.085   4.025   6.219
  111OSM    H2F11449   1.088   4.114   6.287
  111OSM    H2G11450   0.998   4.035   6.151
  111OSM    C3F11451   1.223   4.017   6.144
  111OSM    H3F11452   1.237   3.919   6.093
  111OSM    H3G11453   1.296   4.041   6.224
  111OSM    C4F11454   1.244   4.120   6.028
  111OSM    H4F11455   1.348   4.110   5.990
  111OSM    H4G11456   1.236   4.222   6.073
  111OSM    C5F11457   1.144   4.110   5.919
  111OSM    H5F11458   1.040   4.133   5.949
  111OSM    H5G11459   1.137   4.004   5.885
  111OSM    C6F11460   1.168   4.197   5.801
  111OSM    H6F11461   1.276   4.192   5.775
  111OSM    H6G11462   1.150   4.297   5.846
  111OSM    C7F11463   1.086   4.169   5.670
  111OSM    H7F11464   0.997   4.109   5.699
  111OSM    H7G11465   1.152   4.097   5.617
  111OSM    C8F11466   1.025   4.279   5.584
  111OSM    H8F11467   0.981   4.357   5.649
  111OSM    H8G11468   0.952   4.240   5.510
  111OSM    C9F11469   1.148   4.346   5.514
  111OSM    H9F11470   1.210   4.404   5.585
  111OSM   C10F11471   1.180   4.355   5.388
  111OSM   H10F11472   1.277   4.401   5.365
  111OSM   C11F11473   1.120   4.279   5.267
  111OSM   H11F11474   1.051   4.194   5.284
  111OSM   H11G11475   1.209   4.254   5.205
  111OSM   C12F11476   1.032   4.384   5.182
  111OSM   H12F11477   1.080   4.483   5.168
  111OSM   H12G11478   0.941   4.400   5.243
  111OSM   C13F11479   1.006   4.340   5.040
  111OSM   H13F11480   0.932   4.258   5.054
  111OSM   H13G11481   1.100   4.298   4.996
  111OSM   C14F11482   0.953   4.449   4.951
  111OSM   H14F11483   0.927   4.400   4.854
  111OSM   H14G11484   1.028   4.528   4.926
  111OSM   C15F11485   0.834   4.522   5.000
  111OSM   H15F11486   0.861   4.588   5.085
  111OSM   H15G11487   0.757   4.453   5.040
  111OSM   C16F11488   0.767   4.606   4.887
  111OSM   H16F11489   0.734   4.529   4.814
  111OSM   H16G11490   0.842   4.682   4.855
  111OSM   C17F11491   0.646   4.686   4.939
  111OSM   H17F11492   0.679   4.747   5.026
  111OSM   H17G11493   0.572   4.611   4.975
  111OSM   C18F11494   0.580   4.776   4.841
  111OSM   H18F11495   0.658   4.842   4.798
  111OSM   H18G11496   0.499   4.841   4.881
  111OSM   H18H11497   0.543   4.706   4.763
  112OSM      N11498   3.835   1.605   7.227
  112OSM    C1511499   3.806   1.477   7.284
  112OSM   H15A11500   3.706   1.443   7.261
  112OSM   H15B11501   3.802   1.479   7.392
  112OSM   H15C11502   3.878   1.401   7.260
  112OSM    C1411503   3.740   1.703   7.281
  112OSM   H14A11504   3.645   1.652   7.291
  112OSM   H14B11505   3.731   1.784   7.211
  112OSM   H14C11506   3.770   1.732   7.381
  112OSM    C1311507   3.970   1.636   7.266
  112OSM   H13A11508   3.982   1.618   7.372
  112OSM   H13B11509   3.998   1.739   7.252
  112OSM   H13C11510   4.044   1.573   7.219
  112OSM    C1211511   3.828   1.613   7.072
  112OSM   H12A11512   3.899   1.543   7.031
  112OSM   H12B11513   3.862   1.706   7.030
  112OSM    C1111514   3.691   1.579   7.006
  112OSM   H11A11515   3.692   1.631   6.907
  112OSM   H11B11516   3.611   1.624   7.069
  112OSM      P11517   3.744   1.347   6.898
  112OSM    O1311518   3.870   1.292   6.955
  112OSM    O1411519   3.637   1.256   6.872
  112OSM    O1111520   3.777   1.447   6.772
  112OSM    O1211521   3.672   1.440   7.005
  112OSM    C1S11522   3.886   1.392   6.690
  112OSM    H1S11523   3.864   1.286   6.663
  112OSM    H1T11524   3.984   1.404   6.740
  112OSM     NF11525   3.962   1.403   6.455
  112OSM    HNF11526   4.057   1.434   6.452
  112OSM    C2S11527   3.890   1.473   6.556
  112OSM    H2S11528   3.788   1.491   6.515
  112OSM    C3S11529   3.951   1.607   6.594
  112OSM    H3S11530   4.051   1.584   6.637
  112OSM     O311531   3.889   1.681   6.700
  112OSM    HO311532   3.832   1.610   6.730
  112OSM    C4S11533   3.968   1.694   6.461
  112OSM    H4S11534   4.054   1.667   6.398
  112OSM    C5S11535   3.894   1.802   6.418
  112OSM    H5S11536   3.805   1.832   6.475
  112OSM    C6S11537   3.925   1.898   6.305
  112OSM    H6S11538   3.917   2.002   6.344
  112OSM    H6T11539   3.852   1.889   6.221
  112OSM    C7S11540   4.068   1.889   6.252
  112OSM    H7S11541   4.081   1.780   6.235
  112OSM    H7T11542   4.146   1.909   6.329
  112OSM    C8S11543   4.099   1.994   6.138
  112OSM    H8S11544   4.210   1.999   6.138
  112OSM    H8T11545   4.048   2.088   6.169
  112OSM    C9S11546   4.037   1.949   5.999
  112OSM    H9S11547   3.930   1.925   6.019
  112OSM    H9T11548   4.087   1.855   5.969
  112OSM   C10S11549   4.059   2.052   5.887
  112OSM   H10S11550   4.168   2.074   5.879
  112OSM   H10T11551   4.007   2.148   5.910
  112OSM   C11S11552   4.009   1.991   5.758
  112OSM   H11S11553   3.900   1.996   5.775
  112OSM   H11T11554   4.064   1.895   5.760
  112OSM   C12S11555   4.037   2.064   5.628
  112OSM   H12S11556   4.144   2.096   5.628
  112OSM   H12T11557   3.978   2.158   5.624
  112OSM   C13S11558   4.005   1.966   5.510
  112OSM   H13S11559   3.899   1.943   5.483
  112OSM   H13T11560   4.047   1.871   5.547
  112OSM   C14S11561   4.082   2.022   5.390
  112OSM   H14S11562   4.185   2.045   5.423
  112OSM   H14T11563   4.025   2.106   5.344
  112OSM   C15S11564   4.083   1.912   5.289
  112OSM   H15S11565   3.975   1.887   5.291
  112OSM   H15T11566   4.143   1.822   5.315
  112OSM   C16S11567   4.142   1.953   5.151
  112OSM   H16S11568   4.253   1.953   5.158
  112OSM   H16T11569   4.103   2.056   5.137
  112OSM   C17S11570   4.116   1.875   5.018
  112OSM   H17S11571   4.007   1.858   5.011
  112OSM   H17T11572   4.162   1.774   5.021
  112OSM   C18S11573   4.170   1.948   4.898
  112OSM   H18S11574   4.137   2.054   4.887
  112OSM   H18T11575   4.149   1.887   4.808
  112OSM   H18U11576   4.278   1.974   4.904
  112OSM    C1F11577   3.913   1.308   6.381
  112OSM     OF11578   3.802   1.268   6.414
  112OSM    C2F11579   3.986   1.255   6.260
  112OSM    H2F11580   4.030   1.160   6.298
  112OSM    H2G11581   4.073   1.318   6.232
  112OSM    C3F11582   3.892   1.234   6.134
  112OSM    H3F11583   3.859   1.335   6.100
  112OSM    H3G11584   3.815   1.159   6.160
  112OSM    C4F11585   3.957   1.166   6.016
  112OSM    H4F11586   3.981   1.060   6.038
  112OSM    H4G11587   4.052   1.221   5.999
  112OSM    C5F11588   3.878   1.191   5.885
  112OSM    H5F11589   3.881   1.298   5.856
  112OSM    H5G11590   3.769   1.167   5.884
  112OSM    C6F11591   3.941   1.113   5.773
  112OSM    H6F11592   3.923   1.004   5.785
  112OSM    H6G11593   4.050   1.132   5.777
  112OSM    C7F11594   3.878   1.149   5.633
  112OSM    H7F11595   3.915   1.249   5.601
  112OSM    H7G11596   3.769   1.166   5.646
  112OSM    C8F11597   3.898   1.043   5.530
  112OSM    H8F11598   3.826   1.052   5.446
  112OSM    H8G11599   3.878   0.943   5.575
  112OSM    C9F11600   4.040   1.044   5.475
  112OSM    H9F11601   4.109   1.121   5.513
  112OSM   C10F11602   4.097   0.953   5.386
  112OSM   H10F11603   4.197   0.973   5.346
  112OSM   C11F11604   4.006   0.858   5.317
  112OSM   H11F11605   3.910   0.853   5.372
  112OSM   H11G11606   4.050   0.756   5.322
  112OSM   C12F11607   3.986   0.880   5.170
  112OSM   H12F11608   3.910   0.811   5.130
  112OSM   H12G11609   4.072   0.865   5.101
  112OSM   C13F11610   3.921   1.013   5.143
  112OSM   H13F11611   3.989   1.098   5.163
  112OSM   H13G11612   3.834   1.035   5.209
  112OSM   C14F11613   3.860   1.014   4.996
  112OSM   H14F11614   3.797   0.927   4.966
  112OSM   H14G11615   3.952   1.025   4.934
  112OSM   C15F11616   3.759   1.130   4.983
  112OSM   H15F11617   3.822   1.221   4.990
  112OSM   H15G11618   3.688   1.126   5.068
  112OSM   C16F11619   3.693   1.148   4.844
  112OSM   H16F11620   3.636   1.242   4.832
  112OSM   H16G11621   3.616   1.072   4.820
  112OSM   C17F11622   3.796   1.149   4.733
  112OSM   H17F11623   3.843   1.049   4.724
  112OSM   H17G11624   3.869   1.229   4.759
  112OSM   C18F11625   3.725   1.180   4.600
  112OSM   H18F11626   3.695   1.287   4.588
  112OSM   H18G11627   3.631   1.121   4.600
  112OSM   H18H11628   3.791   1.156   4.514
  113OSM      N11629   1.042   2.041   6.326
  113OSM    C1511630   0.980   2.125   6.219
  113OSM   H15A11631   0.879   2.154   6.241
  113OSM   H15B11632   0.987   2.067   6.128
  113OSM   H15C11633   1.044   2.211   6.205
  113OSM    C1411634   1.150   1.958   6.270
  113OSM   H14A11635   1.213   2.016   6.204
  113OSM   H14B11636   1.099   1.878   6.218
  113OSM   H14C11637   1.212   1.906   6.341
  113OSM    C1311638   1.088   2.139   6.431
  113OSM   H13A11639   1.154   2.217   6.396
  113OSM   H13B11640   1.141   2.096   6.514
  113OSM   H13C11641   1.001   2.185   6.476
  113OSM    C1211642   0.958   1.941   6.390
  113OSM   H12A11643   0.876   1.992   6.439
  113OSM   H12B11644   1.018   1.882   6.458
  113OSM    C1111645   0.874   1.843   6.298
  113OSM   H11A11646   0.943   1.768   6.253
  113OSM   H11B11647   0.824   1.891   6.211
  113OSM      P11648   0.640   1.861   6.409
  113OSM    O1311649   0.567   1.778   6.507
  113OSM    O1411650   0.667   2.000   6.437
  113OSM    O1111651   0.570   1.854   6.270
  113OSM    O1211652   0.774   1.783   6.374
  113OSM    C1S11653   0.564   1.729   6.202
  113OSM    H1S11654   0.513   1.654   6.266
  113OSM    H1T11655   0.664   1.695   6.169
  113OSM     NF11656   0.440   1.612   6.008
  113OSM    HNF11657   0.495   1.575   5.934
  113OSM    C2S11658   0.475   1.736   6.066
  113OSM    H2S11659   0.376   1.781   6.089
  113OSM    C3S11660   0.546   1.827   5.965
  113OSM    H3S11661   0.617   1.764   5.906
  113OSM     O311662   0.643   1.924   6.022
  113OSM    HO311663   0.643   1.899   6.115
  113OSM    C4S11664   0.457   1.882   5.855
  113OSM    H4S11665   0.361   1.926   5.886
  113OSM    C5S11666   0.488   1.880   5.722
  113OSM    H5S11667   0.578   1.822   5.697
  113OSM    C6S11668   0.403   1.932   5.603
  113OSM    H6S11669   0.325   2.001   5.640
  113OSM    H6T11670   0.358   1.851   5.543
  113OSM    C7S11671   0.502   2.007   5.499
  113OSM    H7S11672   0.566   2.086   5.543
  113OSM    H7T11673   0.442   2.063   5.425
  113OSM    C8S11674   0.584   1.915   5.411
  113OSM    H8S11675   0.652   1.841   5.459
  113OSM    H8T11676   0.641   1.975   5.337
  113OSM    C9S11677   0.501   1.819   5.320
  113OSM    H9S11678   0.437   1.872   5.246
  113OSM    H9T11679   0.438   1.749   5.378
  113OSM   C10S11680   0.597   1.744   5.226
  113OSM   H10S11681   0.637   1.650   5.268
  113OSM   H10T11682   0.680   1.812   5.196
  113OSM   C11S11683   0.540   1.711   5.083
  113OSM   H11S11684   0.505   1.804   5.035
  113OSM   H11T11685   0.447   1.649   5.083
  113OSM   C12S11686   0.638   1.630   4.997
  113OSM   H12S11687   0.670   1.548   5.065
  113OSM   H12T11688   0.725   1.692   4.968
  113OSM   C13S11689   0.567   1.594   4.873
  113OSM   H13S11690   0.465   1.552   4.884
  113OSM   H13T11691   0.623   1.515   4.818
  113OSM   C14S11692   0.557   1.715   4.778
  113OSM   H14S11693   0.657   1.762   4.767
  113OSM   H14T11694   0.487   1.786   4.827
  113OSM   C15S11695   0.527   1.662   4.635
  113OSM   H15S11696   0.443   1.590   4.636
  113OSM   H15T11697   0.620   1.607   4.609
  113OSM   C16S11698   0.503   1.768   4.535
  113OSM   H16S11699   0.584   1.842   4.544
  113OSM   H16T11700   0.402   1.804   4.563
  113OSM   C17S11701   0.502   1.727   4.381
  113OSM   H17S11702   0.412   1.781   4.345
  113OSM   H17T11703   0.486   1.617   4.385
  113OSM   C18S11704   0.628   1.757   4.304
  113OSM   H18S11705   0.627   1.696   4.212
  113OSM   H18T11706   0.720   1.727   4.359
  113OSM   H18U11707   0.618   1.865   4.279
  113OSM    C1F11708   0.356   1.525   6.061
  113OSM     OF11709   0.265   1.557   6.138
  113OSM    C2F11710   0.373   1.378   6.030
  113OSM    H2F11711   0.462   1.344   6.086
  113OSM    H2G11712   0.384   1.364   5.921
  113OSM    C3F11713   0.248   1.296   6.061
  113OSM    H3F11714   0.154   1.342   6.024
  113OSM    H3G11715   0.234   1.297   6.171
  113OSM    C4F11716   0.257   1.155   6.005
  113OSM    H4F11717   0.164   1.113   6.050
  113OSM    H4G11718   0.341   1.097   6.049
  113OSM    C5F11719   0.239   1.129   5.856
  113OSM    H5F11720   0.238   1.020   5.837
  113OSM    H5G11721   0.326   1.164   5.796
  113OSM    C6F11722   0.106   1.179   5.805
  113OSM    H6F11723   0.114   1.290   5.802
  113OSM    H6G11724   0.026   1.141   5.872
  113OSM    C7F11725   0.080   1.125   5.659
  113OSM    H7F11726   0.124   1.024   5.654
  113OSM    H7G11727   0.126   1.201   5.592
  113OSM    C8F11728   6.727   1.132   5.619
  113OSM    H8F11729   6.693   1.237   5.633
  113OSM    H8G11730   6.672   1.073   5.695
  113OSM    C9F11731   6.702   1.069   5.486
  113OSM    H9F11732   6.705   0.959   5.490
  113OSM   C10F11733   6.694   1.128   5.369
  113OSM   H10F11734   6.677   1.060   5.284
  113OSM   C11F11735   6.717   1.272   5.338
  113OSM   H11F11736   6.793   1.298   5.261
  113OSM   H11G11737   6.757   1.330   5.424
  113OSM   C12F11738   6.585   1.337   5.283
  113OSM   H12F11739   6.616   1.440   5.255
  113OSM   H12G11740   6.511   1.347   5.365
  113OSM   C13F11741   6.520   1.273   5.160
  113OSM   H13F11742   6.442   1.343   5.122
  113OSM   H13G11743   6.474   1.179   5.197
  113OSM   C14F11744   6.607   1.240   5.034
  113OSM   H14F11745   6.686   1.172   5.072
  113OSM   H14G11746   6.660   1.331   4.997
  113OSM   C15F11747   6.540   1.167   4.919
  113OSM   H15F11748   6.468   1.239   4.873
  113OSM   H15G11749   6.476   1.081   4.948
  113OSM   C16F11750   6.647   1.132   4.823
  113OSM   H16F11751   6.743   1.119   4.878
  113OSM   H16G11752   6.663   1.220   4.756
  113OSM   C17F11753   6.622   0.992   4.750
  113OSM   H17F11754   6.637   0.917   4.831
  113OSM   H17G11755   6.704   0.972   4.678
  113OSM   C18F11756   6.485   0.989   4.687
  113OSM   H18F11757   6.473   1.085   4.632
  113OSM   H18G11758   6.405   0.984   4.764
  113OSM   H18H11759   6.476   0.914   4.606
  114OSM      N11760   6.658   6.419   7.264
  114OSM    C1511761   6.623   6.395   7.409
  114OSM   H15A11762   6.517   6.404   7.420
  114OSM   H15B11763   6.674   6.467   7.472
  114OSM   H15C11764   6.643   6.291   7.432
  114OSM    C1411765   0.001   6.383   7.249
  114OSM   H14A11766   0.033   6.393   7.146
  114OSM   H14B11767   0.016   6.282   7.281
  114OSM   H14C11768   0.063   6.449   7.308
  114OSM    C1311769   6.574   6.339   7.166
  114OSM   H13A11770   6.583   6.233   7.186
  114OSM   H13B11771   6.610   6.366   7.068
  114OSM   H13C11772   6.469   6.362   7.165
  114OSM    C1211773   6.644   6.570   7.233
  114OSM   H12A11774   6.701   6.625   7.306
  114OSM   H12B11775   6.539   6.591   7.250
  114OSM    C1111776   6.696   6.622   7.096
  114OSM   H11A11777   0.003   6.593   7.093
  114OSM   H11B11778   6.692   6.733   7.097
  114OSM      P11779   6.497   6.642   6.935
  114OSM    O1311780   6.426   6.562   6.831
  114OSM    O1411781   6.422   6.709   7.050
  114OSM    O1111782   6.563   6.753   6.856
  114OSM    O1211783   6.622   6.563   6.985
  114OSM    C1S11784   6.671   6.735   6.760
  114OSM    H1S11785   6.687   6.629   6.732
  114OSM    H1T11786   6.770   6.761   6.804
  114OSM     NF11787   6.749   6.760   6.535
  114OSM    HNF11788   0.038   0.001   6.523
  114OSM    C2S11789   6.652   0.011   6.631
  114OSM    H2S11790   6.553   6.781   6.591
  114OSM    C3S11791   6.654   0.162   6.673
  114OSM    H3S11792   6.741   0.187   6.738
  114OSM     O311793   6.536   0.191   6.737
  114OSM    HO311794   6.511   0.100   6.753
  114OSM    C4S11795   6.668   0.262   6.555
  114OSM    H4S11796   6.774   0.293   6.550
  114OSM    C5S11797   6.580   0.292   6.455
  114OSM    H5S11798   6.484   0.240   6.450
  114OSM    C6S11799   6.607   0.386   6.335
  114OSM    H6S11800   6.634   0.483   6.381
  114OSM    H6T11801   6.515   0.405   6.276
  114OSM    C7S11802   6.715   0.341   6.238
  114OSM    H7S11803   6.662   0.264   6.179
  114OSM    H7T11804   0.004   0.314   6.300
  114OSM    C8S11805   6.743   0.456   6.145
  114OSM    H8S11806   6.769   0.542   6.210
  114OSM    H8T11807   6.641   0.486   6.110
  114OSM    C9S11808   0.029   0.429   6.015
  114OSM    H9S11809   0.129   0.435   6.064
  114OSM    H9T11810   0.025   0.510   5.938
  114OSM   C10S11811   0.004   0.292   5.951
  114OSM   H10S11812   6.696   0.284   5.929
  114OSM   H10T11813   0.026   0.208   6.020
  114OSM   C11S11814   0.091   0.251   5.826
  114OSM   H11S11815   0.091   0.141   5.817
  114OSM   H11T11816   0.196   0.281   5.845
  114OSM   C12S11817   0.027   0.289   5.690
  114OSM   H12S11818   6.800   0.397   5.692
  114OSM   H12T11819   6.722   0.256   5.693
  114OSM   C13S11820   0.115   0.250   5.571
  114OSM   H13S11821   0.102   0.147   5.531
  114OSM   H13T11822   0.219   0.268   5.607
  114OSM   C14S11823   0.073   0.327   5.444
  114OSM   H14S11824   0.148   0.309   5.364
  114OSM   H14T11825   0.073   0.435   5.470
  114OSM   C15S11826   6.736   0.279   5.396
  114OSM   H15S11827   6.686   0.225   5.480
  114OSM   H15T11828   6.759   0.201   5.320
  114OSM   C16S11829   6.653   0.387   5.320
  114OSM   H16S11830   6.702   0.416   5.224
  114OSM   H16T11831   6.643   0.483   5.375
  114OSM   C17S11832   6.514   0.331   5.300
  114OSM   H17S11833   6.436   0.411   5.297
  114OSM   H17T11834   6.481   0.257   5.376
  114OSM   C18S11835   6.488   0.248   5.163
  114OSM   H18S11836   6.386   0.205   5.148
  114OSM   H18T11837   6.547   0.154   5.163
  114OSM   H18U11838   6.499   0.314   5.074
  114OSM    C1F11839   6.731   6.653   6.459
  114OSM     OF11840   6.629   6.588   6.468
  114OSM    C2F11841   0.047   6.616   6.366
  114OSM    H2F11842   0.078   6.513   6.393
  114OSM    H2G11843   0.125   6.692   6.388
  114OSM    C3F11844   0.010   6.630   6.213
  114OSM    H3F11845   6.735   6.550   6.197
  114OSM    H3G11846   0.095   6.601   6.148
  114OSM    C4F11847   6.747   6.768   6.166
  114OSM    H4F11848   0.030   0.038   6.143
  114OSM    H4G11849   6.676   0.001   6.245
  114OSM    C5F11850   6.660   6.733   6.043
  114OSM    H5F11851   6.613   0.026   6.007
  114OSM    H5G11852   6.584   6.661   6.081
  114OSM    C6F11853   6.750   6.691   5.924
  114OSM    H6F11854   0.003   6.596   5.948
  114OSM    H6G11855   0.023   6.772   5.906
  114OSM    C7F11856   6.660   6.673   5.802
  114OSM    H7F11857   6.641   6.772   5.755
  114OSM    H7G11858   6.564   6.624   5.829
  114OSM    C8F11859   6.724   6.597   5.683
  114OSM    H8F11860   6.636   6.583   5.616
  114OSM    H8G11861   6.758   6.499   5.721
  114OSM    C9F11862   0.038   6.650   5.598
  114OSM    H9F11863   0.113   6.705   5.657
  114OSM   C10F11864   0.048   6.653   5.459
  114OSM   H10F11865   0.118   6.718   5.404
  114OSM   C11F11866   6.757   6.585   5.357
  114OSM   H11F11867   6.659   6.573   5.408
  114OSM   H11G11868   0.018   6.496   5.329
  114OSM   C12F11869   6.732   6.674   5.237
  114OSM   H12F11870   6.704   6.775   5.274
  114OSM   H12G11871   6.640   6.639   5.186
  114OSM   C13F11872   0.044   6.688   5.142
  114OSM   H13F11873   0.089   6.592   5.110
  114OSM   H13G11874   0.127   6.735   5.200
  114OSM   C14F11875   0.019   6.779   5.028
  114OSM   H14F11876   6.784   0.072   5.077
  114OSM   H14G11877   6.732   6.756   4.963
  114OSM   C15F11878   0.143   0.001   4.940
  114OSM   H15F11879   0.169   6.699   4.907
  114OSM   H15G11880   0.225   0.039   5.005
  114OSM   C16F11881   0.116   0.083   4.818
  114OSM   H16F11882   0.039   0.041   4.749
  114OSM   H16G11883   0.213   0.083   4.764
  114OSM   C17F11884   0.070   0.229   4.849
  114OSM   H17F11885   6.767   0.228   4.889
  114OSM   H17G11886   0.082   0.287   4.755
  114OSM   C18F11887   0.158   0.298   4.959
  114OSM   H18F11888   0.265   0.309   4.929
  114OSM   H18G11889   0.147   0.243   5.055
  114OSM   H18H11890   0.112   0.398   4.971
  115OSM      N11891   0.244   2.280   6.498
  115OSM    C1511892   0.388   2.285   6.445
  115OSM   H15A11893   0.376   2.263   6.339
  115OSM   H15B11894   0.459   2.210   6.476
  115OSM   H15C11895   0.433   2.381   6.464
  115OSM    C1411896   0.160   2.386   6.425
  115OSM   H14A11897   0.062   2.387   6.469
  115OSM   H14B11898   0.158   2.370   6.319
  115OSM   H14C11899   0.202   2.483   6.449
  115OSM    C1311900   0.185   2.142   6.485
  115OSM   H13A11901   0.248   2.075   6.541
  115OSM   H13B11902   0.186   2.096   6.387
  115OSM   H13C11903   0.085   2.153   6.524
  115OSM    C1211904   0.230   2.310   6.646
  115OSM   H12A11905   0.243   2.417   6.655
  115OSM   H12B11906   0.306   2.246   6.689
  115OSM    C1111907   0.091   2.304   6.720
  115OSM   H11A11908   0.121   2.312   6.826
  115OSM   H11B11909   0.047   2.204   6.701
  115OSM      P11910   0.032   2.563   6.717
  115OSM    O1311911   6.782   2.579   6.860
  115OSM    O1411912   0.172   2.590   6.687
  115OSM    O1111913   6.742   2.643   6.610
  115OSM    O1211914   0.003   2.414   6.677
  115OSM    C1S11915   6.755   2.640   6.468
  115OSM    H1S11916   6.693   2.553   6.436
  115OSM    H1T11917   0.057   2.610   6.437
  115OSM     NF11918   6.725   2.760   6.248
  115OSM    HNF11919   6.770   2.829   6.191
  115OSM    C2S11920   6.715   2.767   6.393
  115OSM    H2S11921   6.608   2.787   6.414
  115OSM    C3S11922   6.788   2.891   6.449
  115OSM    H3S11923   0.097   2.872   6.435
  115OSM     O311924   6.769   2.903   6.587
  115OSM    HO311925   6.716   2.827   6.613
  115OSM    C4S11926   6.759   3.027   6.391
  115OSM    H4S11927   0.051   3.062   6.343
  115OSM    C5S11928   6.647   3.102   6.407
  115OSM    H5S11929   6.553   3.064   6.450
  115OSM    C6S11930   6.630   3.242   6.340
  115OSM    H6S11931   6.572   3.316   6.399
  115OSM    H6T11932   6.574   3.230   6.245
  115OSM    C7S11933   6.760   3.322   6.306
  115OSM    H7S11934   0.031   3.264   6.243
  115OSM    H7T11935   0.013   3.338   6.402
  115OSM    C8S11936   6.732   3.455   6.237
  115OSM    H8S11937   0.014   3.527   6.252
  115OSM    H8T11938   6.654   3.502   6.301
  115OSM    C9S11939   6.683   3.443   6.094
  115OSM    H9S11940   6.575   3.420   6.103
  115OSM    H9T11941   6.734   3.354   6.052
  115OSM   C10S11942   6.701   3.572   6.007
  115OSM   H10S11943   0.006   3.606   6.009
  115OSM   H10T11944   6.643   3.644   6.069
  115OSM   C11S11945   6.643   3.552   5.868
  115OSM   H11S11946   6.639   3.649   5.815
  115OSM   H11T11947   6.540   3.509   5.865
  115OSM   C12S11948   6.733   3.467   5.777
  115OSM   H12S11949   6.731   3.363   5.817
  115OSM   H12T11950   0.039   3.498   5.777
  115OSM   C13S11951   6.683   3.458   5.631
  115OSM   H13S11952   6.573   3.471   5.623
  115OSM   H13T11953   6.718   3.366   5.580
  115OSM   C14S11954   6.739   3.571   5.542
  115OSM   H14S11955   0.050   3.566   5.535
  115OSM   H14T11956   6.728   3.661   5.606
  115OSM   C15S11957   6.686   3.594   5.401
  115OSM   H15S11958   6.742   3.681   5.361
  115OSM   H15T11959   6.580   3.621   5.416
  115OSM   C16S11960   6.701   3.476   5.301
  115OSM   H16S11961   6.601   3.450   5.261
  115OSM   H16T11962   6.721   3.382   5.358
  115OSM   C17S11963   6.799   3.500   5.192
  115OSM   H17S11964   6.799   3.413   5.124
  115OSM   H17T11965   0.100   3.507   5.238
  115OSM   C18S11966   6.770   3.624   5.103
  115OSM   H18S11967   6.676   3.612   5.045
  115OSM   H18T11968   0.045   3.645   5.023
  115OSM   H18U11969   6.755   3.713   5.168
  115OSM    C1F11970   6.656   2.670   6.183
  115OSM     OF11971   6.574   2.603   6.235
  115OSM    C2F11972   6.681   2.662   6.036
  115OSM    H2F11973   6.785   2.636   6.007
  115OSM    H2G11974   6.659   2.767   6.007
  115OSM    C3F11975   6.568   2.576   5.974
  115OSM    H3F11976   6.466   2.609   6.000
  115OSM    H3G11977   6.585   2.472   6.009
  115OSM    C4F11978   6.582   2.572   5.818
  115OSM    H4F11979   6.675   2.521   5.784
  115OSM    H4G11980   6.592   2.678   5.785
  115OSM    C5F11981   6.461   2.507   5.756
  115OSM    H5F11982   6.372   2.565   5.787
  115OSM    H5G11983   6.436   2.411   5.805
  115OSM    C6F11984   6.476   2.509   5.597
  115OSM    H6F11985   6.519   2.415   5.557
  115OSM    H6G11986   6.555   2.585   5.578
  115OSM    C7F11987   6.341   2.561   5.537
  115OSM    H7F11988   6.319   2.657   5.589
  115OSM    H7G11989   6.250   2.499   5.557
  115OSM    C8F11990   6.351   2.601   5.385
  115OSM    H8F11991   6.251   2.625   5.344
  115OSM    H8G11992   6.370   2.506   5.330
  115OSM    C9F11993   6.454   2.710   5.364
  115OSM    H9F11994   6.433   2.802   5.422
  115OSM   C10F11995   6.556   2.715   5.272
  115OSM   H10F11996   6.611   2.810   5.261
  115OSM   C11F11997   6.587   2.617   5.166
  115OSM   H11F11998   6.555   2.664   5.071
  115OSM   H11G11999   6.527   2.524   5.182
  115OSM   C12F12000   6.738   2.575   5.142
  115OSM   H12F12001   6.756   2.493   5.215
  115OSM   H12G12002   6.800   2.661   5.173
  115OSM   C13F12003   6.777   2.538   4.999
  115OSM   H13F12004   6.778   2.631   4.938
  115OSM   H13G12005   6.707   2.459   4.964
  115OSM   C14F12006   0.121   2.477   4.993
  115OSM   H14F12007   0.112   2.383   5.052
  115OSM   H14G12008   0.182   2.545   5.056
  115OSM   C15F12009   0.171   2.464   4.852
  115OSM   H15F12010   0.090   2.485   4.779
  115OSM   H15G12011   0.197   2.357   4.836
  115OSM   C16F12012   0.284   2.562   4.813
  115OSM   H16F12013   0.376   2.535   4.870
  115OSM   H16G12014   0.270   2.670   4.830
  115OSM   C17F12015   0.319   2.539   4.662
  115OSM   H17F12016   0.226   2.553   4.602
  115OSM   H17G12017   0.360   2.437   4.650
  115OSM   C18F12018   0.421   2.642   4.618
  115OSM   H18F12019   0.388   2.747   4.632
  115OSM   H18G12020   0.439   2.628   4.509
  115OSM   H18H12021   0.523   2.629   4.659
  116OSM      N12022   0.906   1.575   6.646
  116OSM    C1512023   0.909   1.564   6.499
  116OSM   H15A12024   0.980   1.492   6.460
  116OSM   H15B12025   0.932   1.655   6.446
  116OSM   H15C12026   0.812   1.529   6.467
  116OSM    C1412027   0.816   1.691   6.690
  116OSM   H14A12028   0.804   1.702   6.797
  116OSM   H14B12029   0.725   1.673   6.636
  116OSM   H14C12030   0.868   1.780   6.661
  116OSM    C1312031   0.836   1.453   6.697
  116OSM   H13A12032   0.856   1.438   6.802
  116OSM   H13B12033   0.877   1.361   6.657
  116OSM   H13C12034   0.730   1.451   6.677
  116OSM    C1212035   1.045   1.595   6.709
  116OSM   H12A12036   1.032   1.588   6.816
  116OSM   H12B12037   1.081   1.693   6.682
  116OSM    C1112038   1.154   1.486   6.672
  116OSM   H11A12039   1.117   1.383   6.690
  116OSM   H11B12040   1.235   1.493   6.748
  116OSM      P12041   1.281   1.631   6.495
  116OSM    O1312042   1.198   1.754   6.508
  116OSM    O1412043   1.408   1.639   6.567
  116OSM    O1112044   1.298   1.608   6.343
  116OSM    O1212045   1.205   1.498   6.537
  116OSM    C1S12046   1.204   1.561   6.255
  116OSM    H1S12047   1.127   1.641   6.249
  116OSM    H1T12048   1.159   1.463   6.280
  116OSM     NF12049   1.156   1.563   6.014
  116OSM    HNF12050   1.113   1.477   5.987
  116OSM    C2S12051   1.260   1.569   6.115
  116OSM    H2S12052   1.322   1.660   6.095
  116OSM    C3S12053   1.358   1.447   6.106
  116OSM    H3S12054   1.310   1.349   6.130
  116OSM     O312055   1.465   1.468   6.196
  116OSM    HO312056   1.422   1.533   6.252
  116OSM    C4S12057   1.427   1.425   5.971
  116OSM    H4S12058   1.427   1.509   5.900
  116OSM    C5S12059   1.510   1.319   5.935
  116OSM    H5S12060   1.536   1.236   6.003
  116OSM    C6S12061   1.575   1.306   5.800
  116OSM    H6S12062   1.550   1.208   5.754
  116OSM    H6T12063   1.686   1.312   5.808
  116OSM    C7S12064   1.535   1.416   5.699
  116OSM    H7S12065   1.573   1.517   5.728
  116OSM    H7T12066   1.424   1.415   5.703
  116OSM    C8S12067   1.563   1.379   5.557
  116OSM    H8S12068   1.531   1.275   5.536
  116OSM    H8T12069   1.674   1.374   5.552
  116OSM    C9S12070   1.512   1.482   5.449
  116OSM    H9S12071   1.579   1.570   5.461
  116OSM    H9T12072   1.408   1.521   5.461
  116OSM   C10S12073   1.531   1.428   5.313
  116OSM   H10S12074   1.493   1.326   5.289
  116OSM   H10T12075   1.638   1.439   5.284
  116OSM   C11S12076   1.460   1.519   5.214
  116OSM   H11S12077   1.487   1.624   5.238
  116OSM   H11T12078   1.352   1.524   5.242
  116OSM   C12S12079   1.483   1.474   5.070
  116OSM   H12S12080   1.425   1.381   5.050
  116OSM   H12T12081   1.590   1.447   5.061
  116OSM   C13S12082   1.446   1.587   4.966
  116OSM   H13S12083   1.519   1.667   4.988
  116OSM   H13T12084   1.345   1.626   4.994
  116OSM   C14S12085   1.467   1.554   4.824
  116OSM   H14S12086   1.419   1.454   4.816
  116OSM   H14T12087   1.575   1.545   4.803
  116OSM   C15S12088   1.386   1.632   4.722
  116OSM   H15S12089   1.429   1.733   4.711
  116OSM   H15T12090   1.283   1.638   4.765
  116OSM   C16S12091   1.366   1.565   4.582
  116OSM   H16S12092   1.353   1.455   4.580
  116OSM   H16T12093   1.461   1.591   4.530
  116OSM   C17S12094   1.253   1.636   4.503
  116OSM   H17S12095   1.272   1.745   4.512
  116OSM   H17T12096   1.155   1.611   4.549
  116OSM   C18S12097   1.242   1.611   4.356
  116OSM   H18S12098   1.142   1.645   4.320
  116OSM   H18T12099   1.266   1.508   4.321
  116OSM   H18U12100   1.300   1.682   4.293
  116OSM    C1F12101   1.086   1.674   5.988
  116OSM     OF12102   1.139   1.783   6.003
  116OSM    C2F12103   0.946   1.667   5.941
  116OSM    H2F12104   0.882   1.721   6.013
  116OSM    H2G12105   0.903   1.565   5.948
  116OSM    C3F12106   0.929   1.731   5.806
  116OSM    H3F12107   0.980   1.829   5.803
  116OSM    H3G12108   0.824   1.757   5.781
  116OSM    C4F12109   0.995   1.655   5.687
  116OSM    H4F12110   0.997   1.547   5.715
  116OSM    H4G12111   1.099   1.695   5.687
  116OSM    C5F12112   0.928   1.700   5.548
  116OSM    H5F12113   0.961   1.805   5.535
  116OSM    H5G12114   0.818   1.693   5.534
  116OSM    C6F12115   1.006   1.625   5.432
  116OSM    H6F12116   0.972   1.519   5.434
  116OSM    H6G12117   1.115   1.622   5.450
  116OSM    C7F12118   0.978   1.698   5.300
  116OSM    H7F12119   1.025   1.799   5.304
  116OSM    H7G12120   0.870   1.721   5.291
  116OSM    C8F12121   1.042   1.634   5.174
  116OSM    H8F12122   1.149   1.613   5.191
  116OSM    H8G12123   1.044   1.713   5.095
  116OSM    C9F12124   0.958   1.513   5.140
  116OSM    H9F12125   0.928   1.456   5.229
  116OSM   C10F12126   0.968   1.454   5.022
  116OSM   H10F12127   0.905   1.366   5.003
  116OSM   C11F12128   1.028   1.497   4.890
  116OSM   H11F12129   1.113   1.566   4.906
  116OSM   H11G12130   0.943   1.536   4.831
  116OSM   C12F12131   1.088   1.391   4.795
  116OSM   H12F12132   1.172   1.338   4.844
  116OSM   H12G12133   1.131   1.444   4.707
  116OSM   C13F12134   0.981   1.285   4.743
  116OSM   H13F12135   0.883   1.337   4.740
  116OSM   H13G12136   0.965   1.203   4.816
  116OSM   C14F12137   1.021   1.219   4.617
  116OSM   H14F12138   1.120   1.172   4.633
  116OSM   H14G12139   1.017   1.287   4.529
  116OSM   C15F12140   0.928   1.095   4.591
  116OSM   H15F12141   0.826   1.133   4.567
  116OSM   H15G12142   0.916   1.033   4.682
  116OSM   C16F12143   0.992   0.997   4.487
  116OSM   H16F12144   1.101   0.982   4.504
  116OSM   H16G12145   0.972   1.036   4.385
  116OSM   C17F12146   0.941   0.848   4.497
  116OSM   H17F12147   0.946   0.818   4.604
  116OSM   H17G12148   1.004   0.780   4.436
  116OSM   C18F12149   0.798   0.853   4.443
  116OSM   H18F12150   0.792   0.888   4.337
  116OSM   H18G12151   0.737   0.918   4.509
  116OSM   H18H12152   0.758   0.749   4.448
  117OSM      N12153   1.006   3.966   7.206
  117OSM    C1512154   1.045   3.881   7.316
  117OSM   H15A12155   1.076   3.929   7.408
  117OSM   H15B12156   1.131   3.826   7.281
  117OSM   H15C12157   0.965   3.818   7.353
  117OSM    C1412158   0.896   4.061   7.256
  117OSM   H14A12159   0.815   3.996   7.286
  117OSM   H14B12160   0.869   4.127   7.175
  117OSM   H14C12161   0.925   4.116   7.344
  117OSM    C1312162   1.127   4.041   7.164
  117OSM   H13A12163   1.158   4.114   7.237
  117OSM   H13B12164   1.093   4.108   7.086
  117OSM   H13C12165   1.216   3.990   7.132
  117OSM    C1212166   0.952   3.877   7.091
  117OSM   H12A12167   0.870   3.818   7.128
  117OSM   H12B12168   1.034   3.812   7.068
  117OSM    C1112169   0.915   3.929   6.947
  117OSM   H11A12170   0.871   3.838   6.902
  117OSM   H11B12171   1.009   3.952   6.892
  117OSM      P12172   0.678   4.052   6.969
  117OSM    O1312173   0.625   3.928   7.028
  117OSM    O1412174   0.657   4.168   7.050
  117OSM    O1112175   0.620   4.077   6.820
  117OSM    O1212176   0.835   4.043   6.949
  117OSM    C1S12177   0.698   4.170   6.736
  117OSM    H1S12178   0.789   4.121   6.694
  117OSM    H1T12179   0.728   4.266   6.782
  117OSM     NF12180   0.711   4.293   6.523
  117OSM    HNF12181   0.713   4.392   6.530
  117OSM    C2S12182   0.626   4.216   6.610
  117OSM    H2S12183   0.596   4.124   6.556
  117OSM    C3S12184   0.495   4.296   6.639
  117OSM    H3S12185   0.524   4.384   6.701
  117OSM     O312186   0.398   4.225   6.722
  117OSM    HO312187   0.443   4.157   6.773
  117OSM    C4S12188   0.436   4.345   6.508
  117OSM    H4S12189   0.480   4.439   6.472
  117OSM    C5S12190   0.335   4.294   6.439
  117OSM    H5S12191   0.282   4.204   6.472
  117OSM    C6S12192   0.272   4.358   6.312
  117OSM    H6S12193   0.164   4.363   6.338
  117OSM    H6T12194   0.275   4.282   6.232
  117OSM    C7S12195   0.304   4.500   6.262
  117OSM    H7S12196   0.414   4.509   6.248
  117OSM    H7T12197   0.264   4.567   6.341
  117OSM    C8S12198   0.232   4.539   6.132
  117OSM    H8S12199   0.122   4.527   6.143
  117OSM    H8T12200   0.279   4.466   6.063
  117OSM    C9S12201   0.257   4.682   6.087
  117OSM    H9S12202   0.322   4.726   6.165
  117OSM    H9T12203   0.173   4.752   6.108
  117OSM   C10S12204   0.309   4.707   5.945
  117OSM   H10S12205   0.402   4.649   5.925
  117OSM   H10T12206   0.323   4.815   5.921
  117OSM   C11S12207   0.209   4.663   5.840
  117OSM   H11S12208   0.113   4.718   5.851
  117OSM   H11T12209   0.192   4.554   5.850
  117OSM   C12S12210   0.263   4.684   5.696
  117OSM   H12S12211   0.358   4.626   5.695
  117OSM   H12T12212   0.285   4.792   5.688
  117OSM   C13S12213   0.173   4.637   5.580
  117OSM   H13S12214   0.081   4.699   5.582
  117OSM   H13T12215   0.148   4.530   5.597
  117OSM   C14S12216   0.238   4.655   5.441
  117OSM   H14S12217   0.343   4.619   5.452
  117OSM   H14T12218   0.235   4.762   5.410
  117OSM   C15S12219   0.172   4.572   5.329
  117OSM   H15S12220   0.068   4.612   5.327
  117OSM   H15T12221   0.194   4.464   5.346
  117OSM   C16S12222   0.233   4.611   5.198
  117OSM   H16S12223   0.336   4.570   5.194
  117OSM   H16T12224   0.244   4.719   5.178
  117OSM   C17S12225   0.153   4.568   5.081
  117OSM   H17S12226   0.161   4.649   5.006
  117OSM   H17T12227   0.045   4.563   5.106
  117OSM   C18S12228   0.197   4.432   5.025
  117OSM   H18S12229   0.107   4.378   4.988
  117OSM   H18T12230   0.245   4.370   5.104
  117OSM   H18U12231   0.271   4.452   4.945
  117OSM    C1F12232   0.807   4.243   6.441
  117OSM     OF12233   0.794   4.126   6.403
  117OSM    C2F12234   0.920   4.330   6.392
  117OSM    H2F12235   1.011   4.267   6.402
  117OSM    H2G12236   0.938   4.422   6.451
  117OSM    C3F12237   0.899   4.360   6.240
  117OSM    H3F12238   0.799   4.406   6.236
  117OSM    H3G12239   0.896   4.265   6.182
  117OSM    C4F12240   1.000   4.455   6.179
  117OSM    H4F12241   1.102   4.410   6.181
  117OSM    H4G12242   1.009   4.548   6.238
  117OSM    C5F12243   0.991   4.463   6.026
  117OSM    H5F12244   0.886   4.493   6.009
  117OSM    H5G12245   1.011   4.366   5.976
  117OSM    C6F12246   1.085   4.566   5.969
  117OSM    H6F12247   1.192   4.536   5.967
  117OSM    H6G12248   1.085   4.661   6.026
  117OSM    C7F12249   1.047   4.599   5.823
  117OSM    H7F12250   0.938   4.617   5.808
  117OSM    H7G12251   1.075   4.509   5.764
  117OSM    C8F12252   1.122   4.717   5.763
  117OSM    H8F12253   1.116   4.808   5.827
  117OSM    H8G12254   1.073   4.748   5.669
  117OSM    C9F12255   1.268   4.703   5.751
  117OSM    H9F12256   1.321   4.711   5.846
  117OSM   C10F12257   1.337   4.684   5.640
  117OSM   H10F12258   1.443   4.655   5.645
  117OSM   C11F12259   1.293   4.674   5.499
  117OSM   H11F12260   1.186   4.691   5.475
  117OSM   H11G12261   1.322   4.569   5.480
  117OSM   C12F12262   1.374   4.772   5.416
  117OSM   H12F12263   1.483   4.749   5.419
  117OSM   H12G12264   1.365   4.873   5.460
  117OSM   C13F12265   1.333   4.774   5.270
  117OSM   H13F12266   1.222   4.783   5.266
  117OSM   H13G12267   1.364   4.680   5.218
  117OSM   C14F12268   1.400   4.885   5.194
  117OSM   H14F12269   1.507   4.880   5.225
  117OSM   H14G12270   1.362   4.978   5.243
  117OSM   C15F12271   1.373   4.888   5.044
  117OSM   H15F12272   1.268   4.859   5.025
  117OSM   H15G12273   1.442   4.814   4.997
  117OSM   C16F12274   1.402   5.019   4.976
  117OSM   H16F12275   1.513   5.029   4.984
  117OSM   H16G12276   1.350   5.100   5.033
  117OSM   C17F12277   1.354   5.018   4.834
  117OSM   H17F12278   1.243   5.014   4.832
  117OSM   H17G12279   1.404   4.933   4.783
  117OSM   C18F12280   1.392   5.144   4.757
  117OSM   H18F12281   1.353   5.131   4.654
  117OSM   H18G12282   1.503   5.153   4.755
  117OSM   H18H12283   1.351   5.226   4.819
  118OSM      N12284   0.430   3.313   7.015
  118OSM    C1512285   0.527   3.255   7.118
  118OSM   H15A12286   0.627   3.275   7.085
  118OSM   H15B12287   0.502   3.155   7.151
  118OSM   H15C12288   0.514   3.308   7.212
  118OSM    C1412289   0.294   3.278   7.048
  118OSM   H14A12290   0.250   3.328   7.133
  118OSM   H14B12291   0.288   3.179   7.089
  118OSM   H14C12292   0.232   3.292   6.961
  118OSM    C1312293   0.444   3.462   7.016
  118OSM   H13A12294   0.547   3.490   7.000
  118OSM   H13B12295   0.397   3.513   7.099
  118OSM   H13C12296   0.391   3.499   6.929
  118OSM    C1212297   0.462   3.261   6.875
  118OSM   H12A12298   0.457   3.153   6.882
  118OSM   H12B12299   0.567   3.276   6.855
  118OSM    C1112300   0.392   3.320   6.753
  118OSM   H11A12301   0.443   3.274   6.666
  118OSM   H11B12302   0.413   3.428   6.737
  118OSM      P12303   0.198   3.168   6.663
  118OSM    O1312304   0.276   3.046   6.678
  118OSM    O1412305   0.051   3.170   6.692
  118OSM    O1112306   0.225   3.220   6.515
  118OSM    O1212307   0.255   3.288   6.757
  118OSM    C1S12308   0.332   3.168   6.435
  118OSM    H1S12309   0.341   3.058   6.425
  118OSM    H1T12310   0.423   3.212   6.482
  118OSM     NF12311   0.418   3.144   6.196
  118OSM    HNF12312   0.491   3.180   6.138
  118OSM    C2S12313   0.332   3.223   6.288
  118OSM    H2S12314   0.231   3.208   6.243
  118OSM    C3S12315   0.364   3.377   6.286
  118OSM    H3S12316   0.472   3.386   6.313
  118OSM     O312317   0.286   3.448   6.378
  118OSM    HO312318   0.266   3.377   6.439
  118OSM    C4S12319   0.337   3.434   6.154
  118OSM    H4S12320   0.229   3.440   6.133
  118OSM    C5S12321   0.421   3.470   6.051
  118OSM    H5S12322   0.529   3.452   6.063
  118OSM    C6S12323   0.377   3.526   5.914
  118OSM    H6S12324   0.381   3.636   5.921
  118OSM    H6T12325   0.272   3.491   5.904
  118OSM    C7S12326   0.456   3.467   5.797
  118OSM    H7S12327   0.453   3.356   5.803
  118OSM    H7T12328   0.561   3.499   5.814
  118OSM    C8S12329   0.402   3.511   5.665
  118OSM    H8S12330   0.332   3.596   5.681
  118OSM    H8T12331   0.332   3.428   5.640
  118OSM    C9S12332   0.503   3.539   5.555
  118OSM    H9S12333   0.569   3.627   5.573
  118OSM    H9T12334   0.442   3.569   5.467
  118OSM   C10S12335   0.594   3.418   5.531
  118OSM   H10S12336   0.527   3.334   5.502
  118OSM   H10T12337   0.655   3.379   5.615
  118OSM   C11S12338   0.684   3.449   5.412
  118OSM   H11S12339   0.774   3.386   5.423
  118OSM   H11T12340   0.708   3.557   5.425
  118OSM   C12S12341   0.614   3.427   5.279
  118OSM   H12S12342   0.518   3.481   5.259
  118OSM   H12T12343   0.584   3.321   5.280
  118OSM   C13S12344   0.703   3.437   5.159
  118OSM   H13S12345   0.663   3.366   5.084
  118OSM   H13T12346   0.813   3.436   5.176
  118OSM   C14S12347   0.667   3.571   5.097
  118OSM   H14S12348   0.682   3.642   5.180
  118OSM   H14T12349   0.562   3.579   5.063
  118OSM   C15S12350   0.765   3.610   4.985
  118OSM   H15S12351   0.868   3.625   5.024
  118OSM   H15T12352   0.726   3.712   4.963
  118OSM   C16S12353   0.765   3.514   4.859
  118OSM   H16S12354   0.657   3.503   4.836
  118OSM   H16T12355   0.821   3.421   4.883
  118OSM   C17S12356   0.834   3.574   4.738
  118OSM   H17S12357   0.929   3.621   4.770
  118OSM   H17T12358   0.778   3.659   4.693
  118OSM   C18S12359   0.859   3.463   4.629
  118OSM   H18S12360   0.916   3.376   4.669
  118OSM   H18T12361   0.909   3.508   4.541
  118OSM   H18U12362   0.758   3.427   4.601
  118OSM    C1F12363   0.406   3.013   6.184
  118OSM     OF12364   0.299   2.961   6.191
  118OSM    C2F12365   0.534   2.943   6.162
  118OSM    H2F12366   0.528   2.858   6.234
  118OSM    H2G12367   0.620   3.010   6.184
  118OSM    C3F12368   0.553   2.887   6.016
  118OSM    H3F12369   0.455   2.851   5.979
  118OSM    H3G12370   0.634   2.810   6.022
  118OSM    C4F12371   0.618   3.004   5.928
  118OSM    H4F12372   0.693   3.059   5.989
  118OSM    H4G12373   0.545   3.083   5.900
  118OSM    C5F12374   0.683   2.945   5.807
  118OSM    H5F12375   0.607   2.872   5.771
  118OSM    H5G12376   0.773   2.881   5.823
  118OSM    C6F12377   0.722   3.055   5.697
  118OSM    H6F12378   0.803   3.126   5.725
  118OSM    H6G12379   0.629   3.112   5.678
  118OSM    C7F12380   0.773   2.989   5.567
  118OSM    H7F12381   0.695   2.914   5.540
  118OSM    H7G12382   0.867   2.933   5.582
  118OSM    C8F12383   0.791   3.088   5.448
  118OSM    H8F12384   0.858   3.168   5.485
  118OSM    H8G12385   0.690   3.133   5.435
  118OSM    C9F12386   0.835   3.028   5.316
  118OSM    H9F12387   0.767   2.956   5.267
  118OSM   C10F12388   0.959   3.034   5.264
  118OSM   H10F12389   0.985   2.993   5.166
  118OSM   C11F12390   1.070   3.115   5.332
  118OSM   H11F12391   1.132   3.045   5.392
  118OSM   H11G12392   1.032   3.192   5.403
  118OSM   C12F12393   1.170   3.176   5.235
  118OSM   H12F12394   1.225   3.096   5.182
  118OSM   H12G12395   1.230   3.240   5.303
  118OSM   C13F12396   1.121   3.278   5.129
  118OSM   H13F12397   1.069   3.352   5.194
  118OSM   H13G12398   1.045   3.243   5.057
  118OSM   C14F12399   1.234   3.365   5.074
  118OSM   H14F12400   1.308   3.381   5.155
  118OSM   H14G12401   1.188   3.461   5.042
  118OSM   C15F12402   1.293   3.301   4.952
  118OSM   H15F12403   1.215   3.241   4.901
  118OSM   H15G12404   1.368   3.232   4.997
  118OSM   C16F12405   1.369   3.397   4.859
  118OSM   H16F12406   1.469   3.423   4.899
  118OSM   H16G12407   1.306   3.488   4.850
  118OSM   C17F12408   1.370   3.334   4.720
  118OSM   H17F12409   1.267   3.322   4.680
  118OSM   H17G12410   1.408   3.230   4.718
  118OSM   C18F12411   1.451   3.428   4.627
  118OSM   H18F12412   1.395   3.524   4.624
  118OSM   H18G12413   1.469   3.396   4.522
  118OSM   H18H12414   1.549   3.457   4.671
  119OSM      N12415   3.347   1.271   6.628
  119OSM    C1512416   3.494   1.303   6.608
  119OSM   H15A12417   3.502   1.398   6.557
  119OSM   H15B12418   3.539   1.236   6.537
  119OSM   H15C12419   3.540   1.297   6.706
  119OSM    C1412420   3.341   1.142   6.704
  119OSM   H14A12421   3.409   1.070   6.660
  119OSM   H14B12422   3.244   1.097   6.715
  119OSM   H14C12423   3.372   1.160   6.806
  119OSM    C1312424   3.277   1.376   6.716
  119OSM   H13A12425   3.178   1.353   6.751
  119OSM   H13B12426   3.285   1.480   6.688
  119OSM   H13C12427   3.326   1.386   6.812
  119OSM    C1212428   3.274   1.273   6.495
  119OSM   H12A12429   3.296   1.365   6.442
  119OSM   H12B12430   3.168   1.282   6.516
  119OSM    C1112431   3.297   1.158   6.397
  119OSM   H11A12432   3.404   1.128   6.391
  119OSM   H11B12433   3.271   1.205   6.299
  119OSM      P12434   3.050   1.071   6.412
  119OSM    O1312435   2.998   0.936   6.439
  119OSM    O1412436   3.006   1.176   6.510
  119OSM    O1112437   3.007   1.111   6.265
  119OSM    O1212438   3.204   1.052   6.425
  119OSM    C1S12439   3.028   1.018   6.162
  119OSM    H1S12440   2.948   0.941   6.170
  119OSM    H1T12441   3.126   0.967   6.166
  119OSM     NF12442   3.027   0.980   5.919
  119OSM    HNF12443   3.108   0.937   5.879
  119OSM    C2S12444   3.019   1.089   6.023
  119OSM    H2S12445   2.920   1.135   6.003
  119OSM    C3S12446   3.130   1.201   6.022
  119OSM    H3S12447   3.226   1.146   6.033
  119OSM     O312448   3.112   1.296   6.118
  119OSM    HO312449   3.048   1.254   6.176
  119OSM    C4S12450   3.123   1.258   5.886
  119OSM    H4S12451   3.202   1.217   5.821
  119OSM    C5S12452   3.045   1.362   5.847
  119OSM    H5S12453   2.984   1.411   5.924
  119OSM    C6S12454   3.051   1.418   5.711
  119OSM    H6S12455   3.123   1.503   5.700
  119OSM    H6T12456   2.954   1.463   5.681
  119OSM    C7S12457   3.087   1.317   5.601
  119OSM    H7S12458   3.012   1.235   5.594
  119OSM    H7T12459   3.187   1.273   5.622
  119OSM    C8S12460   3.086   1.390   5.460
  119OSM    H8S12461   3.159   1.473   5.464
  119OSM    H8T12462   2.986   1.435   5.446
  119OSM    C9S12463   3.119   1.288   5.344
  119OSM    H9S12464   3.044   1.206   5.347
  119OSM    H9T12465   3.218   1.242   5.369
  119OSM   C10S12466   3.128   1.354   5.205
  119OSM   H10S12467   3.194   1.444   5.210
  119OSM   H10T12468   3.033   1.383   5.158
  119OSM   C11S12469   3.184   1.238   5.116
  119OSM   H11S12470   3.122   1.146   5.118
  119OSM   H11T12471   3.286   1.212   5.153
  119OSM   C12S12472   3.201   1.277   4.968
  119OSM   H12S12473   3.233   1.380   4.940
  119OSM   H12T12474   3.103   1.255   4.921
  119OSM   C13S12475   3.296   1.174   4.899
  119OSM   H13S12476   3.266   1.072   4.932
  119OSM   H13T12477   3.397   1.178   4.944
  119OSM   C14S12478   3.312   1.179   4.748
  119OSM   H14S12479   3.215   1.146   4.704
  119OSM   H14T12480   3.396   1.110   4.722
  119OSM   C15S12481   3.345   1.320   4.691
  119OSM   H15S12482   3.435   1.369   4.735
  119OSM   H15T12483   3.265   1.396   4.697
  119OSM   C16S12484   3.379   1.300   4.548
  119OSM   H16S12485   3.301   1.246   4.490
  119OSM   H16T12486   3.476   1.249   4.530
  119OSM   C17S12487   3.366   1.433   4.463
  119OSM   H17S12488   3.440   1.503   4.506
  119OSM   H17T12489   3.271   1.486   4.487
  119OSM   C18S12490   3.368   1.407   4.316
  119OSM   H18S12491   3.442   1.326   4.300
  119OSM   H18T12492   3.400   1.493   4.252
  119OSM   H18U12493   3.267   1.379   4.281
  119OSM    C1F12494   2.928   0.902   5.890
  119OSM     OF12495   2.818   0.911   5.941
  119OSM    C2F12496   2.970   0.785   5.809
  119OSM    H2F12497   2.987   0.695   5.872
  119OSM    H2G12498   3.069   0.804   5.761
  119OSM    C3F12499   2.870   0.756   5.700
  119OSM    H3F12500   2.775   0.713   5.739
  119OSM    H3G12501   2.922   0.681   5.637
  119OSM    C4F12502   2.847   0.877   5.598
  119OSM    H4F12503   2.845   0.967   5.662
  119OSM    H4G12504   2.745   0.874   5.555
  119OSM    C5F12505   2.952   0.894   5.484
  119OSM    H5F12506   3.054   0.877   5.526
  119OSM    H5G12507   2.930   0.995   5.443
  119OSM    C6F12508   2.927   0.803   5.365
  119OSM    H6F12509   2.822   0.823   5.334
  119OSM    H6G12510   2.921   0.694   5.387
  119OSM    C7F12511   3.030   0.827   5.255
  119OSM    H7F12512   3.128   0.805   5.302
  119OSM    H7G12513   3.026   0.935   5.232
  119OSM    C8F12514   3.028   0.740   5.123
  119OSM    H8F12515   3.047   0.636   5.156
  119OSM    H8G12516   3.110   0.764   5.052
  119OSM    C9F12517   2.892   0.740   5.050
  119OSM    H9F12518   2.806   0.719   5.116
  119OSM   C10F12519   2.860   0.757   4.915
  119OSM   H10F12520   2.753   0.764   4.890
  119OSM   C11F12521   2.958   0.779   4.806
  119OSM   H11F12522   3.064   0.751   4.824
  119OSM   H11G12523   2.973   0.883   4.772
  119OSM   C12F12524   2.901   0.702   4.684
  119OSM   H12F12525   2.890   0.593   4.700
  119OSM   H12G12526   2.983   0.714   4.611
  119OSM   C13F12527   2.783   0.761   4.607
  119OSM   H13F12528   2.806   0.870   4.606
  119OSM   H13G12529   2.692   0.741   4.668
  119OSM   C14F12530   2.767   0.707   4.468
  119OSM   H14F12531   2.742   0.599   4.473
  119OSM   H14G12532   2.862   0.721   4.413
  119OSM   C15F12533   2.669   0.785   4.376
  119OSM   H15F12534   2.701   0.890   4.359
  119OSM   H15G12535   2.574   0.791   4.433
  119OSM   C16F12536   2.637   0.722   4.239
  119OSM   H16F12537   2.571   0.801   4.200
  119OSM   H16G12538   2.579   0.629   4.259
  119OSM   C17F12539   2.751   0.692   4.146
  119OSM   H17F12540   2.810   0.618   4.205
  119OSM   H17G12541   2.813   0.781   4.122
  119OSM   C18F12542   2.707   0.627   4.011
  119OSM   H18F12543   2.639   0.542   4.034
  119OSM   H18G12544   2.790   0.603   3.942
  119OSM   H18H12545   2.644   0.696   3.952
  120OSM      N12546   6.050   5.130   6.973
  120OSM    C1512547   6.037   5.282   7.000
  120OSM   H15A12548   6.022   5.329   6.904
  120OSM   H15B12549   6.117   5.323   7.060
  120OSM   H15C12550   5.944   5.293   7.054
  120OSM    C1412551   6.194   5.106   6.932
  120OSM   H14A12552   6.214   5.000   6.925
  120OSM   H14B12553   6.264   5.139   7.007
  120OSM   H14C12554   6.218   5.159   6.842
  120OSM    C1312555   6.033   5.049   7.097
  120OSM   H13A12556   5.928   5.045   7.121
  120OSM   H13B12557   6.093   5.092   7.176
  120OSM   H13C12558   6.063   4.946   7.084
  120OSM    C1212559   5.947   5.079   6.874
  120OSM   H12A12560   5.973   4.978   6.847
  120OSM   H12B12561   5.940   5.123   6.776
  120OSM    C1112562   5.798   5.078   6.933
  120OSM   H11A12563   5.774   5.002   7.010
  120OSM   H11B12564   5.724   5.055   6.854
  120OSM      P12565   5.633   5.245   7.047
  120OSM    O1312566   5.524   5.144   7.033
  120OSM    O1412567   5.665   5.277   7.194
  120OSM    O1112568   5.594   5.376   6.972
  120OSM    O1212569   5.755   5.205   6.978
  120OSM    C1S12570   5.661   5.425   6.856
  120OSM    H1S12571   5.771   5.434   6.863
  120OSM    H1T12572   5.626   5.529   6.840
  120OSM     NF12573   5.713   5.394   6.617
  120OSM    HNF12574   5.667   5.455   6.552
  120OSM    C2S12575   5.634   5.344   6.721
  120OSM    H2S12576   5.658   5.239   6.747
  120OSM    C3S12577   5.476   5.334   6.688
  120OSM    H3S12578   5.438   5.438   6.692
  120OSM     O312579   5.409   5.261   6.788
  120OSM    HO312580   5.456   5.269   6.872
  120OSM    C4S12581   5.454   5.272   6.552
  120OSM    H4S12582   5.429   5.343   6.472
  120OSM    C5S12583   5.440   5.137   6.521
  120OSM    H5S12584   5.447   5.065   6.604
  120OSM    C6S12585   5.404   5.083   6.380
  120OSM    H6S12586   5.303   5.037   6.375
  120OSM    H6T12587   5.467   4.999   6.344
  120OSM    C7S12588   5.412   5.172   6.258
  120OSM    H7S12589   5.519   5.201   6.260
  120OSM    H7T12590   5.337   5.254   6.253
  120OSM    C8S12591   5.380   5.095   6.129
  120OSM    H8S12592   5.460   5.019   6.128
  120OSM    H8T12593   5.385   5.167   6.045
  120OSM    C9S12594   5.236   5.039   6.112
  120OSM    H9S12595   5.153   5.109   6.134
  120OSM    H9T12596   5.234   4.946   6.174
  120OSM   C10S12597   5.210   4.995   5.969
  120OSM   H10S12598   5.143   4.906   5.973
  120OSM   H10T12599   5.307   4.967   5.922
  120OSM   C11S12600   5.135   5.106   5.887
  120OSM   H11S12601   5.192   5.201   5.889
  120OSM   H11T12602   5.040   5.136   5.936
  120OSM   C12S12603   5.102   5.062   5.743
  120OSM   H12S12604   5.033   5.139   5.703
  120OSM   H12T12605   5.049   4.968   5.768
  120OSM   C13S12606   5.215   5.060   5.645
  120OSM   H13S12607   5.303   5.036   5.708
  120OSM   H13T12608   5.236   5.161   5.603
  120OSM   C14S12609   5.191   4.960   5.536
  120OSM   H14S12610   5.107   4.990   5.469
  120OSM   H14T12611   5.167   4.867   5.593
  120OSM   C15S12612   5.313   4.924   5.448
  120OSM   H15S12613   5.405   4.952   5.504
  120OSM   H15T12614   5.313   4.990   5.359
  120OSM   C16S12615   5.321   4.776   5.415
  120OSM   H16S12616   5.308   4.713   5.506
  120OSM   H16T12617   5.410   4.760   5.350
  120OSM   C17S12618   5.219   4.726   5.312
  120OSM   H17S12619   5.241   4.785   5.220
  120OSM   H17T12620   5.114   4.757   5.329
  120OSM   C18S12621   5.239   4.579   5.299
  120OSM   H18S12622   5.168   4.530   5.229
  120OSM   H18T12623   5.233   4.533   5.399
  120OSM   H18U12624   5.340   4.556   5.257
  120OSM    C1F12625   5.849   5.384   6.612
  120OSM     OF12626   5.915   5.319   6.690
  120OSM    C2F12627   5.912   5.450   6.492
  120OSM    H2F12628   6.004   5.509   6.511
  120OSM    H2G12629   5.841   5.514   6.436
  120OSM    C3F12630   5.956   5.339   6.396
  120OSM    H3F12631   5.864   5.295   6.353
  120OSM    H3G12632   6.020   5.266   6.451
  120OSM    C4F12633   6.027   5.397   6.269
  120OSM    H4F12634   6.122   5.445   6.300
  120OSM    H4G12635   5.965   5.474   6.218
  120OSM    C5F12636   6.069   5.292   6.163
  120OSM    H5F12637   5.986   5.219   6.149
  120OSM    H5G12638   6.153   5.240   6.214
  120OSM    C6F12639   6.119   5.349   6.029
  120OSM    H6F12640   6.212   5.407   6.048
  120OSM    H6G12641   6.038   5.420   6.003
  120OSM    C7F12642   6.141   5.242   5.920
  120OSM    H7F12643   6.045   5.190   5.901
  120OSM    H7G12644   6.216   5.176   5.969
  120OSM    C8F12645   6.196   5.308   5.793
  120OSM    H8F12646   6.276   5.374   5.831
  120OSM    H8G12647   6.113   5.363   5.743
  120OSM    C9F12648   6.248   5.208   5.694
  120OSM    H9F12649   6.348   5.174   5.724
  120OSM   C10F12650   6.209   5.165   5.575
  120OSM   H10F12651   6.277   5.095   5.524
  120OSM   C11F12652   6.089   5.219   5.495
  120OSM   H11F12653   6.015   5.279   5.552
  120OSM   H11G12654   6.019   5.133   5.485
  120OSM   C12F12655   6.118   5.285   5.364
  120OSM   H12F12656   6.184   5.369   5.391
  120OSM   H12G12657   6.030   5.331   5.315
  120OSM   C13F12658   6.192   5.200   5.264
  120OSM   H13F12659   6.129   5.112   5.238
  120OSM   H13G12660   6.288   5.165   5.308
  120OSM   C14F12661   6.216   5.267   5.134
  120OSM   H14F12662   6.299   5.339   5.148
  120OSM   H14G12663   6.135   5.336   5.101
  120OSM   C15F12664   6.254   5.166   5.032
  120OSM   H15F12665   6.157   5.113   5.020
  120OSM   H15G12666   6.339   5.099   5.058
  120OSM   C16F12667   6.306   5.234   4.905
  120OSM   H16F12668   6.411   5.266   4.927
  120OSM   H16G12669   6.252   5.326   4.873
  120OSM   C17F12670   6.300   5.145   4.780
  120OSM   H17F12671   6.332   5.042   4.806
  120OSM   H17G12672   6.384   5.191   4.724
  120OSM   C18F12673   6.166   5.129   4.706
  120OSM   H18F12674   6.099   5.067   4.770
  120OSM   H18G12675   6.176   5.075   4.610
  120OSM   H18H12676   6.119   5.229   4.691
  121OSM      N12677   0.035   0.997   6.785
  121OSM    C1512678   6.744   0.902   6.859
  121OSM   H15A12679   0.016   0.864   6.929
  121OSM   H15B12680   6.695   0.825   6.802
  121OSM   H15C12681   6.678   0.960   6.922
  121OSM    C1412682   0.115   1.072   6.883
  121OSM   H14A12683   0.158   1.008   6.958
  121OSM   H14B12684   0.043   1.140   6.926
  121OSM   H14C12685   0.185   1.134   6.830
  121OSM    C1312686   0.127   0.915   6.694
  121OSM   H13A12687   0.077   0.841   6.634
  121OSM   H13B12688   0.199   0.865   6.757
  121OSM   H13C12689   0.186   0.977   6.628
  121OSM    C1212690   6.756   1.100   6.703
  121OSM   H12A12691   6.672   1.129   6.764
  121OSM   H12B12692   6.720   1.059   6.610
  121OSM    C1112693   0.036   1.231   6.675
  121OSM   H11A12694   0.064   1.284   6.768
  121OSM   H11B12695   6.770   1.302   6.621
  121OSM      P12696   0.149   1.206   6.451
  121OSM    O1312697   0.077   1.335   6.424
  121OSM    O1412698   0.289   1.186   6.413
  121OSM    O1112699   0.065   1.081   6.410
  121OSM    O1212700   0.155   1.200   6.604
  121OSM    C1S12701   6.729   1.093   6.364
  121OSM    H1S12702   6.688   1.195   6.379
  121OSM    H1T12703   6.663   1.024   6.420
  121OSM     NF12704   6.581   1.086   6.139
  121OSM    HNF12705   6.503   1.025   6.128
  121OSM    C2S12706   6.702   1.042   6.211
  121OSM    H2S12707   6.785   1.080   6.149
  121OSM    C3S12708   6.718   0.888   6.202
  121OSM    H3S12709   6.627   0.845   6.249
  121OSM     O312710   0.017   0.819   6.281
  121OSM    HO312711   0.061   0.882   6.339
  121OSM    C4S12712   6.714   0.845   6.057
  121OSM    H4S12713   6.610   0.840   6.024
  121OSM    C5S12714   0.016   0.811   5.975
  121OSM    H5S12715   0.118   0.807   6.016
  121OSM    C6S12716   6.799   0.771   5.832
  121OSM    H6S12717   0.050   0.676   5.808
  121OSM    H6T12718   0.055   0.851   5.781
  121OSM    C7S12719   6.656   0.765   5.781
  121OSM    H7S12720   6.600   0.861   5.780
  121OSM    H7T12721   6.590   0.707   5.849
  121OSM    C8S12722   6.636   0.703   5.641
  121OSM    H8S12723   6.649   0.593   5.647
  121OSM    H8T12724   6.720   0.738   5.578
  121OSM    C9S12725   6.492   0.714   5.583
  121OSM    H9S12726   6.476   0.649   5.495
  121OSM    H9T12727   6.488   0.813   5.533
  121OSM   C10S12728   6.365   0.701   5.671
  121OSM   H10S12729   6.364   0.761   5.765
  121OSM   H10T12730   6.371   0.593   5.699
  121OSM   C11S12731   6.242   0.751   5.595
  121OSM   H11S12732   6.246   0.862   5.586
  121OSM   H11T12733   6.151   0.731   5.655
  121OSM   C12S12734   6.207   0.697   5.458
  121OSM   H12S12735   6.229   0.588   5.452
  121OSM   H12T12736   6.259   0.747   5.374
  121OSM   C13S12737   6.060   0.723   5.420
  121OSM   H13S12738   6.041   0.832   5.434
  121OSM   H13T12739   6.001   0.676   5.501
  121OSM   C14S12740   6.005   0.666   5.286
  121OSM   H14S12741   6.080   0.698   5.210
  121OSM   H14T12742   5.908   0.716   5.268
  121OSM   C15S12743   6.001   0.511   5.288
  121OSM   H15S12744   5.950   0.497   5.385
  121OSM   H15T12745   6.101   0.468   5.306
  121OSM   C16S12746   5.920   0.439   5.184
  121OSM   H16S12747   5.826   0.487   5.150
  121OSM   H16T12748   5.885   0.336   5.206
  121OSM   C17S12749   6.004   0.414   5.052
  121OSM   H17S12750   6.109   0.385   5.076
  121OSM   H17T12751   6.000   0.507   4.991
  121OSM   C18S12752   5.946   0.305   4.965
  121OSM   H18S12753   5.848   0.332   4.920
  121OSM   H18T12754   5.952   0.209   5.021
  121OSM   H18U12755   6.009   0.293   4.874
  121OSM    C1F12756   6.558   1.217   6.125
  121OSM     OF12757   6.623   1.306   6.179
  121OSM    C2F12758   6.444   1.253   6.031
  121OSM    H2F12759   6.482   1.332   5.962
  121OSM    H2G12760   6.356   1.301   6.080
  121OSM    C3F12761   6.390   1.133   5.950
  121OSM    H3F12762   6.373   1.050   6.023
  121OSM    H3G12763   6.464   1.096   5.875
  121OSM    C4F12764   6.265   1.164   5.868
  121OSM    H4F12765   6.288   1.242   5.792
  121OSM    H4G12766   6.185   1.203   5.933
  121OSM    C5F12767   6.218   1.030   5.811
  121OSM    H5F12768   6.204   0.954   5.890
  121OSM    H5G12769   6.298   0.993   5.744
  121OSM    C6F12770   6.083   1.046   5.742
  121OSM    H6F12771   6.003   1.063   5.818
  121OSM    H6G12772   6.054   0.950   5.695
  121OSM    C7F12773   6.079   1.154   5.635
  121OSM    H7F12774   6.108   1.255   5.669
  121OSM    H7G12775   5.970   1.161   5.619
  121OSM    C8F12776   6.158   1.109   5.513
  121OSM    H8F12777   6.108   1.020   5.468
  121OSM    H8G12778   6.260   1.078   5.542
  121OSM    C9F12779   6.157   1.214   5.402
  121OSM    H9F12780   6.146   1.316   5.441
  121OSM   C10F12781   6.159   1.195   5.270
  121OSM   H10F12782   6.173   1.287   5.211
  121OSM   C11F12783   6.176   1.059   5.200
  121OSM   H11F12784   6.176   0.977   5.275
  121OSM   H11G12785   6.271   1.060   5.142
  121OSM   C12F12786   6.058   1.029   5.096
  121OSM   H12F12787   5.970   1.005   5.160
  121OSM   H12G12788   6.082   0.936   5.041
  121OSM   C13F12789   6.025   1.151   5.005
  121OSM   H13F12790   6.123   1.193   4.974
  121OSM   H13G12791   5.978   1.235   5.060
  121OSM   C14F12792   5.953   1.111   4.879
  121OSM   H14F12793   5.854   1.063   4.896
  121OSM   H14G12794   6.013   1.038   4.820
  121OSM   C15F12795   5.939   1.228   4.778
  121OSM   H15F12796   5.863   1.207   4.700
  121OSM   H15G12797   6.038   1.248   4.732
  121OSM   C16F12798   5.879   1.359   4.838
  121OSM   H16F12799   5.879   1.447   4.771
  121OSM   H16G12800   5.942   1.385   4.926
  121OSM   C17F12801   5.740   1.361   4.906
  121OSM   H17F12802   5.710   1.466   4.924
  121OSM   H17G12803   5.735   1.299   4.998
  121OSM   C18F12804   5.636   1.311   4.813
  121OSM   H18F12805   5.627   1.388   4.733
  121OSM   H18G12806   5.546   1.302   4.878
  121OSM   H18H12807   5.674   1.214   4.776
  122OSM      N12808   0.204   3.946   6.901
  122OSM    C1512809   0.344   3.891   6.889
  122OSM   H15A12810   0.421   3.965   6.902
  122OSM   H15B12811   0.362   3.837   6.798
  122OSM   H15C12812   0.368   3.836   6.979
  122OSM    C1412813   0.169   3.983   6.759
  122OSM   H14A12814   0.236   4.062   6.728
  122OSM   H14B12815   0.069   4.025   6.761
  122OSM   H14C12816   0.176   3.900   6.690
  122OSM    C1312817   0.118   3.830   6.939
  122OSM   H13A12818   0.015   3.858   6.921
  122OSM   H13B12819   0.137   3.794   7.039
  122OSM   H13C12820   0.133   3.747   6.872
  122OSM    C1212821   0.208   4.060   7.004
  122OSM   H12A12822   0.269   4.142   6.966
  122OSM   H12B12823   0.253   4.036   7.099
  122OSM    C1112824   0.070   4.119   7.044
  122OSM   H11A12825   0.085   4.183   7.134
  122OSM   H11B12826   0.010   4.035   7.085
  122OSM      P12827   6.662   4.251   6.977
  122OSM    O1312828   6.630   4.230   7.121
  122OSM    O1412829   6.698   4.390   6.948
  122OSM    O1112830   6.547   4.197   6.888
  122OSM    O1212831   6.795   4.174   6.935
  122OSM    C1S12832   6.565   4.178   6.749
  122OSM    H1S12833   6.608   4.076   6.741
  122OSM    H1T12834   6.642   4.244   6.703
  122OSM     NF12835   6.465   4.160   6.524
  122OSM    HNF12836   6.495   4.227   6.458
  122OSM    C2S12837   6.435   4.198   6.661
  122OSM    H2S12838   6.347   4.141   6.699
  122OSM    C3S12839   6.400   4.345   6.681
  122OSM    H3S12840   6.490   4.397   6.643
  122OSM     O312841   6.382   4.382   6.825
  122OSM    HO312842   6.411   4.310   6.882
  122OSM    C4S12843   6.279   4.380   6.594
  122OSM    H4S12844   6.289   4.398   6.486
  122OSM    C5S12845   6.150   4.369   6.637
  122OSM    H5S12846   6.135   4.340   6.742
  122OSM    C6S12847   6.026   4.385   6.553
  122OSM    H6S12848   5.955   4.453   6.605
  122OSM    H6T12849   5.972   4.290   6.539
  122OSM    C7S12850   6.046   4.447   6.411
  122OSM    H7S12851   6.118   4.382   6.357
  122OSM    H7T12852   6.089   4.549   6.408
  122OSM    C8S12853   5.924   4.450   6.324
  122OSM    H8S12854   5.864   4.537   6.359
  122OSM    H8T12855   5.864   4.358   6.336
  122OSM    C9S12856   5.959   4.459   6.179
  122OSM    H9S12857   6.029   4.379   6.147
  122OSM    H9T12858   6.011   4.557   6.172
  122OSM   C10S12859   5.835   4.442   6.081
  122OSM   H10S12860   5.758   4.513   6.117
  122OSM   H10T12861   5.797   4.338   6.093
  122OSM   C11S12862   5.868   4.451   5.935
  122OSM   H11S12863   5.955   4.388   5.908
  122OSM   H11T12864   5.905   4.556   5.925
  122OSM   C12S12865   5.750   4.411   5.847
  122OSM   H12S12866   5.656   4.470   5.862
  122OSM   H12T12867   5.724   4.306   5.872
  122OSM   C13S12868   5.772   4.414   5.697
  122OSM   H13S12869   5.869   4.370   5.666
  122OSM   H13T12870   5.774   4.522   5.669
  122OSM   C14S12871   5.661   4.335   5.624
  122OSM   H14S12872   5.568   4.383   5.662
  122OSM   H14T12873   5.665   4.225   5.640
  122OSM   C15S12874   5.650   4.361   5.474
  122OSM   H15S12875   5.623   4.469   5.470
  122OSM   H15T12876   5.569   4.304   5.423
  122OSM   C16S12877   5.780   4.324   5.394
  122OSM   H16S12878   5.809   4.220   5.421
  122OSM   H16T12879   5.850   4.403   5.426
  122OSM   C17S12880   5.770   4.319   5.237
  122OSM   H17S12881   5.737   4.417   5.198
  122OSM   H17T12882   5.677   4.268   5.206
  122OSM   C18S12883   5.905   4.284   5.181
  122OSM   H18S12884   5.907   4.271   5.071
  122OSM   H18T12885   5.929   4.183   5.219
  122OSM   H18U12886   5.987   4.349   5.219
  122OSM    C1F12887   6.463   4.033   6.488
  122OSM     OF12888   6.427   3.940   6.564
  122OSM    C2F12889   6.515   4.002   6.352
  122OSM    H2F12890   6.570   3.905   6.354
  122OSM    H2G12891   6.590   4.078   6.321
  122OSM    C3F12892   6.406   3.972   6.256
  122OSM    H3F12893   6.335   4.055   6.236
  122OSM    H3G12894   6.350   3.883   6.292
  122OSM    C4F12895   6.454   3.914   6.118
  122OSM    H4F12896   6.486   3.808   6.120
  122OSM    H4G12897   6.536   3.980   6.081
  122OSM    C5F12898   6.344   3.916   6.012
  122OSM    H5F12899   6.323   4.024   5.992
  122OSM    H5G12900   6.248   3.873   6.046
  122OSM    C6F12901   6.386   3.848   5.883
  122OSM    H6F12902   6.408   3.741   5.902
  122OSM    H6G12903   6.476   3.902   5.845
  122OSM    C7F12904   6.278   3.865   5.770
  122OSM    H7F12905   6.284   3.973   5.744
  122OSM    H7G12906   6.176   3.836   5.803
  122OSM    C8F12907   6.297   3.774   5.650
  122OSM    H8F12908   6.206   3.775   5.586
  122OSM    H8G12909   6.308   3.668   5.682
  122OSM    C9F12910   6.421   3.822   5.580
  122OSM    H9F12911   6.515   3.833   5.636
  122OSM   C10F12912   6.428   3.858   5.451
  122OSM   H10F12913   6.528   3.887   5.418
  122OSM   C11F12914   6.320   3.861   5.350
  122OSM   H11F12915   6.256   3.952   5.352
  122OSM   H11G12916   6.258   3.778   5.390
  122OSM   C12F12917   6.364   3.830   5.204
  122OSM   H12F12918   6.406   3.727   5.202
  122OSM   H12G12919   6.456   3.880   5.166
  122OSM   C13F12920   6.243   3.850   5.109
  122OSM   H13F12921   6.205   3.954   5.111
  122OSM   H13G12922   6.161   3.784   5.143
  122OSM   C14F12923   6.279   3.837   4.962
  122OSM   H14F12924   6.357   3.913   4.942
  122OSM   H14G12925   6.189   3.863   4.902
  122OSM   C15F12926   6.351   3.699   4.925
  122OSM   H15F12927   6.453   3.702   4.967
  122OSM   H15G12928   6.376   3.703   4.817
  122OSM   C16F12929   6.270   3.579   4.967
  122OSM   H16F12930   6.173   3.585   4.914
  122OSM   H16G12931   6.239   3.584   5.074
  122OSM   C17F12932   6.345   3.444   4.939
  122OSM   H17F12933   6.292   3.362   4.991
  122OSM   H17G12934   6.449   3.443   4.980
  122OSM   C18F12935   6.354   3.407   4.787
  122OSM   H18F12936   6.357   3.505   4.734
  122OSM   H18G12937   6.273   3.335   4.762
  122OSM   H18H12938   6.450   3.355   4.764
  123OSM      N12939   2.938   2.949   2.154
  123OSM    C1512940   2.922   2.886   2.020
  123OSM   H15A12941   2.997   2.813   1.994
  123OSM   H15B12942   2.914   2.955   1.937
  123OSM   H15C12943   2.834   2.824   2.015
  123OSM    C1412944   3.074   3.015   2.160
  123OSM   H14A12945   3.079   3.117   2.124
  123OSM   H14B12946   3.149   2.962   2.103
  123OSM   H14C12947   3.114   3.016   2.260
  123OSM    C1312948   2.821   3.037   2.199
  123OSM   H13A12949   2.723   3.001   2.174
  123OSM   H13B12950   2.828   3.138   2.162
  123OSM   H13C12951   2.829   3.037   2.307
  123OSM    C1212952   2.930   2.838   2.258
  123OSM   H12A12953   2.968   2.873   2.352
  123OSM   H12B12954   2.995   2.759   2.224
  123OSM    C1112955   2.790   2.767   2.283
  123OSM   H11A12956   2.729   2.846   2.331
  123OSM   H11B12957   2.818   2.705   2.371
  123OSM      P12958   2.768   2.571   2.126
  123OSM    O1312959   2.688   2.525   2.010
  123OSM    O1412960   2.914   2.551   2.119
  123OSM    O1112961   2.717   2.488   2.246
  123OSM    O1212962   2.724   2.714   2.167
  123OSM    C1S12963   2.577   2.503   2.275
  123OSM    H1S12964   2.509   2.462   2.196
  123OSM    H1T12965   2.548   2.608   2.297
  123OSM     NF12966   2.395   2.421   2.411
  123OSM    HNF12967   2.358   2.472   2.487
  123OSM    C2S12968   2.538   2.418   2.399
  123OSM    H2S12969   2.582   2.316   2.401
  123OSM    C3S12970   2.620   2.478   2.521
  123OSM    H3S12971   2.589   2.584   2.532
  123OSM     O312972   2.758   2.488   2.513
  123OSM    HO312973   2.773   2.495   2.419
  123OSM    C4S12974   2.596   2.387   2.646
  123OSM    H4S12975   2.673   2.311   2.663
  123OSM    C5S12976   2.514   2.409   2.752
  123OSM    H5S12977   2.443   2.493   2.747
  123OSM    C6S12978   2.516   2.327   2.874
  123OSM    H6S12979   2.464   2.230   2.861
  123OSM    H6T12980   2.460   2.383   2.953
  123OSM    C7S12981   2.653   2.307   2.937
  123OSM    H7S12982   2.699   2.407   2.946
  123OSM    H7T12983   2.727   2.254   2.872
  123OSM    C8S12984   2.655   2.230   3.077
  123OSM    H8S12985   2.760   2.200   3.095
  123OSM    H8T12986   2.594   2.137   3.066
  123OSM    C9S12987   2.615   2.311   3.197
  123OSM    H9S12988   2.506   2.329   3.182
  123OSM    H9T12989   2.668   2.409   3.198
  123OSM   C10S12990   2.614   2.239   3.337
  123OSM   H10S12991   2.718   2.218   3.368
  123OSM   H10T12992   2.563   2.140   3.330
  123OSM   C11S12993   2.528   2.321   3.437
  123OSM   H11S12994   2.442   2.375   3.392
  123OSM   H11T12995   2.594   2.401   3.478
  123OSM   C12S12996   2.475   2.241   3.560
  123OSM   H12S12997   2.422   2.157   3.509
  123OSM   H12T12998   2.405   2.297   3.625
  123OSM   C13S12999   2.594   2.185   3.642
  123OSM   H13S13000   2.672   2.264   3.647
  123OSM   H13T13001   2.631   2.095   3.588
  123OSM   C14S13002   2.573   2.144   3.795
  123OSM   H14S13003   2.488   2.073   3.799
  123OSM   H14T13004   2.554   2.240   3.847
  123OSM   C15S13005   2.701   2.079   3.854
  123OSM   H15S13006   2.772   2.160   3.882
  123OSM   H15T13007   2.752   2.012   3.780
  123OSM   C16S13008   2.682   1.995   3.988
  123OSM   H16S13009   2.599   1.923   3.974
  123OSM   H16T13010   2.652   2.069   4.066
  123OSM   C17S13011   2.818   1.931   4.024
  123OSM   H17S13012   2.818   1.908   4.133
  123OSM   H17T13013   2.896   2.007   4.002
  123OSM   C18S13014   2.852   1.791   3.967
  123OSM   H18S13015   2.778   1.716   4.001
  123OSM   H18T13016   2.952   1.762   4.008
  123OSM   H18U13017   2.835   1.789   3.857
  123OSM    C1F13018   2.304   2.351   2.333
  123OSM     OF13019   2.338   2.271   2.244
  123OSM    C2F13020   2.162   2.363   2.367
  123OSM    H2F13021   2.109   2.423   2.290
  123OSM    H2G13022   2.144   2.413   2.465
  123OSM    C3F13023   2.078   2.228   2.364
  123OSM    H3F13024   2.088   2.195   2.258
  123OSM    H3G13025   1.969   2.247   2.379
  123OSM    C4F13026   2.125   2.127   2.472
  123OSM    H4F13027   2.236   2.116   2.467
  123OSM    H4G13028   2.086   2.023   2.467
  123OSM    C5F13029   2.106   2.178   2.614
  123OSM    H5F13030   1.998   2.193   2.636
  123OSM    H5G13031   2.157   2.276   2.631
  123OSM    C6F13032   2.155   2.082   2.725
  123OSM    H6F13033   2.243   2.030   2.682
  123OSM    H6G13034   2.077   2.007   2.749
  123OSM    C7F13035   2.188   2.164   2.853
  123OSM    H7F13036   2.087   2.202   2.879
  123OSM    H7G13037   2.237   2.259   2.824
  123OSM    C8F13038   2.270   2.078   2.953
  123OSM    H8F13039   2.373   2.076   2.912
  123OSM    H8G13040   2.226   1.976   2.957
  123OSM    C9F13041   2.280   2.129   3.091
  123OSM    H9F13042   2.351   2.213   3.092
  123OSM   C10F13043   2.238   2.068   3.202
  123OSM   H10F13044   2.271   2.114   3.296
  123OSM   C11F13045   2.173   1.934   3.220
  123OSM   H11F13046   2.243   1.857   3.259
  123OSM   H11G13047   2.137   1.889   3.125
  123OSM   C12F13048   2.051   1.930   3.312
  123OSM   H12F13049   2.000   1.835   3.288
  123OSM   H12G13050   1.984   2.015   3.284
  123OSM   C13F13051   2.098   1.920   3.458
  123OSM   H13F13052   2.157   2.010   3.485
  123OSM   H13G13053   2.150   1.823   3.470
  123OSM   C14F13054   1.980   1.917   3.551
  123OSM   H14F13055   1.909   1.842   3.511
  123OSM   H14G13056   1.932   2.017   3.552
  123OSM   C15F13057   2.013   1.874   3.688
  123OSM   H15F13058   2.091   1.944   3.727
  123OSM   H15G13059   2.045   1.768   3.686
  123OSM   C16F13060   1.903   1.886   3.788
  123OSM   H16F13061   1.808   1.878   3.731
  123OSM   H16G13062   1.905   1.992   3.824
  123OSM   C17F13063   1.904   1.783   3.904
  123OSM   H17F13064   1.916   1.681   3.861
  123OSM   H17G13065   1.801   1.779   3.946
  123OSM   C18F13066   2.006   1.800   4.023
  123OSM   H18F13067   1.966   1.883   4.086
  123OSM   H18G13068   2.100   1.841   3.981
  123OSM   H18H13069   2.020   1.708   4.083
  124OSM      N13070   3.247   3.866   1.947
  124OSM    C1513071   3.273   3.917   2.085
  124OSM   H15A13072   3.258   3.837   2.156
  124OSM   H15B13073   3.210   4.003   2.104
  124OSM   H15C13074   3.375   3.951   2.088
  124OSM    C1413075   3.245   3.972   1.841
  124OSM   H14A13076   3.236   3.940   1.738
  124OSM   H14B13077   3.341   4.021   1.837
  124OSM   H14C13078   3.173   4.045   1.872
  124OSM    C1313079   3.354   3.766   1.912
  124OSM   H13A13080   3.353   3.686   1.985
  124OSM   H13B13081   3.447   3.821   1.906
  124OSM   H13C13082   3.343   3.716   1.817
  124OSM    C1213083   3.116   3.779   1.950
  124OSM   H12A13084   3.108   3.726   1.856
  124OSM   H12B13085   3.040   3.855   1.955
  124OSM    C1113086   3.097   3.679   2.070
  124OSM   H11A13087   2.991   3.645   2.068
  124OSM   H11B13088   3.097   3.726   2.170
  124OSM      P13089   3.179   3.450   2.014
  124OSM    O1313090   3.103   3.467   1.887
  124OSM    O1413091   3.309   3.384   2.001
  124OSM    O1113092   3.089   3.377   2.125
  124OSM    O1213093   3.193   3.581   2.083
  124OSM    C1S13094   3.136   3.354   2.257
  124OSM    H1S13095   3.224   3.417   2.279
  124OSM    H1T13096   3.175   3.251   2.276
  124OSM     NF13097   3.105   3.380   2.510
  124OSM    HNF13098   3.052   3.320   2.570
  124OSM    C2S13099   3.043   3.408   2.372
  124OSM    H2S13100   3.037   3.518   2.356
  124OSM    C3S13101   2.896   3.347   2.359
  124OSM    H3S13102   2.907   3.237   2.374
  124OSM     O313103   2.837   3.363   2.229
  124OSM    HO313104   2.913   3.385   2.175
  124OSM    C4S13105   2.786   3.384   2.455
  124OSM    H4S13106   2.734   3.300   2.504
  124OSM    C5S13107   2.747   3.511   2.480
  124OSM    H5S13108   2.805   3.589   2.431
  124OSM    C6S13109   2.650   3.560   2.582
  124OSM    H6S13110   2.575   3.629   2.537
  124OSM    H6T13111   2.703   3.613   2.664
  124OSM    C7S13112   2.576   3.450   2.667
  124OSM    H7S13113   2.648   3.379   2.713
  124OSM    H7T13114   2.533   3.382   2.590
  124OSM    C8S13115   2.469   3.499   2.765
  124OSM    H8S13116   2.396   3.570   2.720
  124OSM    H8T13117   2.525   3.545   2.849
  124OSM    C9S13118   2.385   3.382   2.814
  124OSM    H9S13119   2.456   3.324   2.877
  124OSM    H9T13120   2.356   3.319   2.728
  124OSM   C10S13121   2.260   3.425   2.892
  124OSM   H10S13122   2.193   3.337   2.901
  124OSM   H10T13123   2.216   3.520   2.856
  124OSM   C11S13124   2.286   3.463   3.037
  124OSM   H11S13125   2.203   3.528   3.073
  124OSM   H11T13126   2.379   3.523   3.049
  124OSM   C12S13127   2.309   3.340   3.129
  124OSM   H12S13128   2.410   3.304   3.098
  124OSM   H12T13129   2.234   3.260   3.114
  124OSM   C13S13130   2.315   3.375   3.281
  124OSM   H13S13131   2.212   3.366   3.322
  124OSM   H13T13132   2.356   3.475   3.304
  124OSM   C14S13133   2.404   3.270   3.358
  124OSM   H14S13134   2.505   3.261   3.313
  124OSM   H14T13135   2.358   3.170   3.340
  124OSM   C15S13136   2.410   3.306   3.507
  124OSM   H15S13137   2.446   3.216   3.562
  124OSM   H15T13138   2.312   3.335   3.551
  124OSM   C16S13139   2.510   3.425   3.526
  124OSM   H16S13140   2.464   3.511   3.473
  124OSM   H16T13141   2.611   3.401   3.488
  124OSM   C17S13142   2.541   3.470   3.672
  124OSM   H17S13143   2.597   3.565   3.662
  124OSM   H17T13144   2.611   3.396   3.716
  124OSM   C18S13145   2.414   3.500   3.752
  124OSM   H18S13146   2.348   3.561   3.688
  124OSM   H18T13147   2.435   3.566   3.838
  124OSM   H18U13148   2.356   3.414   3.791
  124OSM    C1F13149   3.218   3.439   2.543
  124OSM     OF13150   3.256   3.541   2.485
  124OSM    C2F13151   3.294   3.381   2.655
  124OSM    H2F13152   3.402   3.383   2.629
  124OSM    H2G13153   3.264   3.277   2.678
  124OSM    C3F13154   3.269   3.467   2.783
  124OSM    H3F13155   3.161   3.490   2.798
  124OSM    H3G13156   3.322   3.564   2.777
  124OSM    C4F13157   3.324   3.401   2.912
  124OSM    H4F13158   3.421   3.349   2.897
  124OSM    H4G13159   3.252   3.318   2.929
  124OSM    C5F13160   3.293   3.509   3.020
  124OSM    H5F13161   3.202   3.569   2.994
  124OSM    H5G13162   3.381   3.576   3.025
  124OSM    C6F13163   3.285   3.441   3.159
  124OSM    H6F13164   3.378   3.388   3.187
  124OSM    H6G13165   3.209   3.360   3.152
  124OSM    C7F13166   3.253   3.526   3.280
  124OSM    H7F13167   3.155   3.575   3.258
  124OSM    H7G13168   3.320   3.611   3.301
  124OSM    C8F13169   3.234   3.453   3.408
  124OSM    H8F13170   3.168   3.365   3.391
  124OSM    H8G13171   3.190   3.519   3.485
  124OSM    C9F13172   3.373   3.409   3.455
  124OSM    H9F13173   3.412   3.315   3.413
  124OSM   C10F13174   3.446   3.455   3.563
  124OSM   H10F13175   3.547   3.414   3.576
  124OSM   C11F13176   3.423   3.577   3.643
  124OSM   H11F13177   3.346   3.635   3.589
  124OSM   H11G13178   3.517   3.636   3.648
  124OSM   C12F13179   3.369   3.544   3.784
  124OSM   H12F13180   3.452   3.485   3.830
  124OSM   H12G13181   3.284   3.476   3.764
  124OSM   C13F13182   3.324   3.661   3.872
  124OSM   H13F13183   3.252   3.620   3.946
  124OSM   H13G13184   3.273   3.739   3.811
  124OSM   C14F13185   3.436   3.732   3.948
  124OSM   H14F13186   3.525   3.747   3.883
  124OSM   H14G13187   3.461   3.654   4.024
  124OSM   C15F13188   3.377   3.834   4.041
  124OSM   H15F13189   3.292   3.785   4.093
  124OSM   H15G13190   3.325   3.917   3.989
  124OSM   C16F13191   3.475   3.898   4.145
  124OSM   H16F13192   3.562   3.941   4.090
  124OSM   H16G13193   3.507   3.821   4.218
  124OSM   C17F13194   3.399   3.998   4.240
  124OSM   H17F13195   3.470   4.014   4.325
  124OSM   H17G13196   3.313   3.944   4.285
  124OSM   C18F13197   3.367   4.137   4.185
  124OSM   H18F13198   3.341   4.211   4.263
  124OSM   H18G13199   3.277   4.131   4.120
  124OSM   H18H13200   3.448   4.186   4.126
  125OSM      N13201   3.900   5.968   2.225
  125OSM    C1513202   3.929   6.017   2.084
  125OSM   H15A13203   4.013   5.960   2.045
  125OSM   H15B13204   3.945   6.123   2.090
  125OSM   H15C13205   3.842   5.998   2.023
  125OSM    C1413206   3.783   6.035   2.281
  125OSM   H14A13207   3.689   6.007   2.236
  125OSM   H14B13208   3.790   6.143   2.281
  125OSM   H14C13209   3.775   6.005   2.384
  125OSM    C1313210   3.865   5.827   2.199
  125OSM   H13A13211   3.815   5.785   2.285
  125OSM   H13B13212   3.950   5.766   2.174
  125OSM   H13C13213   3.790   5.826   2.122
  125OSM    C1213214   4.015   5.983   2.327
  125OSM   H12A13215   4.106   5.944   2.286
  125OSM   H12B13216   3.999   5.926   2.418
  125OSM    C1113217   4.068   6.124   2.373
  125OSM   H11A13218   4.152   6.091   2.438
  125OSM   H11B13219   3.992   6.183   2.428
  125OSM      P13220   4.140   6.351   2.256
  125OSM    O1313221   4.227   6.388   2.142
  125OSM    O1413222   4.013   6.423   2.292
  125OSM    O1113223   4.236   6.362   2.384
  125OSM    O1213224   4.108   6.196   2.254
  125OSM    C1S13225   4.175   6.377   2.518
  125OSM    H1S13226   4.203   6.287   2.577
  125OSM    H1T13227   4.064   6.389   2.514
  125OSM     NF13228   4.198   6.472   2.738
  125OSM    HNF13229   4.117   6.526   2.759
  125OSM    C2S13230   4.239   6.488   2.605
  125OSM    H2S13231   4.349   6.473   2.598
  125OSM    C3S13232   4.220   6.630   2.539
  125OSM    H3S13233   4.116   6.641   2.501
  125OSM     O313234   4.310   6.647   2.439
  125OSM    HO313235   4.347   6.562   2.416
  125OSM    C4S13236   4.260   6.731   2.641
  125OSM    H4S13237   4.369   6.748   2.640
  125OSM    C5S13238   4.169   0.011   2.702
  125OSM    H5S13239   4.063   6.796   2.678
  125OSM    C6S13240   4.196   0.117   2.809
  125OSM    H6S13241   4.161   0.217   2.774
  125OSM    H6T13242   4.306   0.133   2.819
  125OSM    C7S13243   4.161   0.079   2.955
  125OSM    H7S13244   4.188   0.157   3.029
  125OSM    H7T13245   4.216   6.785   2.976
  125OSM    C8S13246   4.017   0.041   2.998
  125OSM    H8S13247   3.978   6.771   2.922
  125OSM    H8T13248   3.948   0.128   3.003
  125OSM    C9S13249   4.018   6.754   3.122
  125OSM    H9S13250   4.080   0.003   3.200
  125OSM    H9T13251   4.062   6.655   3.094
  125OSM   C10S13252   3.880   6.721   3.185
  125OSM   H10S13253   3.811   6.672   3.113
  125OSM   H10T13254   3.833   0.011   3.229
  125OSM   C11S13255   3.882   6.624   3.299
  125OSM   H11S13256   3.903   6.521   3.262
  125OSM   H11T13257   3.779   6.609   3.338
  125OSM   C12S13258   3.983   6.661   3.413
  125OSM   H12S13259   4.088   6.666   3.377
  125OSM   H12T13260   3.985   6.580   3.489
  125OSM   C13S13261   3.951   6.795   3.479
  125OSM   H13S13262   3.841   0.003   3.495
  125OSM   H13T13263   3.983   0.080   3.417
  125OSM   C14S13264   4.028   0.002   3.616
  125OSM   H14S13265   4.136   6.792   3.589
  125OSM   H14T13266   4.020   6.715   3.684
  125OSM   C15S13267   4.009   0.134   3.686
  125OSM   H15S13268   3.902   0.150   3.709
  125OSM   H15T13269   4.037   0.208   3.608
  125OSM   C16S13270   4.102   0.168   3.800
  125OSM   H16S13271   4.202   0.149   3.755
  125OSM   H16T13272   4.093   0.093   3.881
  125OSM   C17S13273   4.103   0.320   3.847
  125OSM   H17S13274   3.999   0.358   3.859
  125OSM   H17T13275   4.147   0.375   3.760
  125OSM   C18S13276   4.184   0.350   3.969
  125OSM   H18S13277   4.167   0.458   3.991
  125OSM   H18T13278   4.289   0.327   3.940
  125OSM   H18U13279   4.152   0.285   4.052
  125OSM    C1F13280   4.250   6.374   2.812
  125OSM     OF13281   4.338   6.300   2.770
  125OSM    C2F13282   4.180   6.349   2.945
  125OSM    H2F13283   4.162   6.241   2.961
  125OSM    H2G13284   4.078   6.394   2.949
  125OSM    C3F13285   4.268   6.409   3.056
  125OSM    H3F13286   4.274   6.520   3.052
  125OSM    H3G13287   4.369   6.367   3.036
  125OSM    C4F13288   4.211   6.370   3.195
  125OSM    H4F13289   4.216   6.261   3.215
  125OSM    H4G13290   4.102   6.392   3.204
  125OSM    C5F13291   4.283   6.433   3.312
  125OSM    H5F13292   4.274   6.544   3.314
  125OSM    H5G13293   4.388   6.399   3.318
  125OSM    C6F13294   4.216   6.385   3.447
  125OSM    H6F13295   4.244   6.278   3.451
  125OSM    H6G13296   4.105   6.386   3.445
  125OSM    C7F13297   4.269   6.465   3.570
  125OSM    H7F13298   4.231   6.569   3.564
  125OSM    H7G13299   4.379   6.470   3.559
  125OSM    C8F13300   4.221   6.414   3.707
  125OSM    H8F13301   4.269   6.472   3.789
  125OSM    H8G13302   4.260   6.310   3.703
  125OSM    C9F13303   4.070   6.415   3.727
  125OSM    H9F13304   4.011   6.440   3.638
  125OSM   C10F13305   4.014   6.417   3.853
  125OSM   H10F13306   3.904   6.421   3.858
  125OSM   C11F13307   4.098   6.413   3.980
  125OSM   H11F13308   4.180   6.339   3.965
  125OSM   H11G13309   4.027   6.374   4.056
  125OSM   C12F13310   4.149   6.543   4.051
  125OSM   H12F13311   4.181   6.620   3.978
  125OSM   H12G13312   4.229   6.516   4.123
  125OSM   C13F13313   4.033   6.603   4.135
  125OSM   H13F13314   3.975   6.532   4.198
  125OSM   H13G13315   3.955   6.628   4.061
  125OSM   C14F13316   4.078   6.734   4.205
  125OSM   H14F13317   4.127   0.005   4.136
  125OSM   H14G13318   4.151   6.705   4.283
  125OSM   C15F13319   3.959   0.009   4.272
  125OSM   H15F13320   4.003   0.095   4.326
  125OSM   H15G13321   3.932   6.744   4.358
  125OSM   C16F13322   3.847   0.057   4.181
  125OSM   H16F13323   3.762   0.113   4.225
  125OSM   H16G13324   3.787   6.775   4.137
  125OSM   C17F13325   3.885   0.137   4.062
  125OSM   H17F13326   3.937   0.068   3.992
  125OSM   H17G13327   3.959   0.214   4.096
  125OSM   C18F13328   3.776   0.201   3.985
  125OSM   H18F13329   3.702   0.263   4.040
  125OSM   H18G13330   3.727   0.127   3.918
  125OSM   H18H13331   3.818   0.269   3.907
  126OSM      N13332   2.613   1.505   1.949
  126OSM    C1513333   2.559   1.604   1.851
  126OSM   H15A13334   2.451   1.605   1.849
  126OSM   H15B13335   2.592   1.575   1.753
  126OSM   H15C13336   2.590   1.705   1.873
  126OSM    C1413337   2.758   1.522   1.946
  126OSM   H14A13338   2.771   1.624   1.977
  126OSM   H14B13339   2.799   1.534   1.847
  126OSM   H14C13340   2.819   1.454   2.003
  126OSM    C1313341   2.565   1.528   2.085
  126OSM   H13A13342   2.468   1.486   2.104
  126OSM   H13B13343   2.564   1.634   2.107
  126OSM   H13C13344   2.633   1.476   2.152
  126OSM    C1213345   2.580   1.361   1.913
  126OSM   H12A13346   2.637   1.354   1.822
  126OSM   H12B13347   2.472   1.354   1.902
  126OSM    C1113348   2.615   1.252   2.013
  126OSM   H11A13349   2.582   1.151   1.980
  126OSM   H11B13350   2.568   1.271   2.112
  126OSM      P13351   2.876   1.187   1.970
  126OSM    O1313352   2.827   1.109   1.850
  126OSM    O1413353   2.979   1.288   1.943
  126OSM    O1113354   2.921   1.084   2.086
  126OSM    O1213355   2.755   1.253   2.047
  126OSM    C1S13356   3.017   1.119   2.181
  126OSM    H1S13357   3.052   1.224   2.172
  126OSM    H1T13358   3.114   1.073   2.149
  126OSM     NF13359   3.118   1.107   2.411
  126OSM    HNF13360   3.192   1.039   2.410
  126OSM    C2S13361   2.990   1.084   2.334
  126OSM    H2S13362   2.909   1.154   2.364
  126OSM    C3S13363   2.942   0.950   2.359
  126OSM    H3S13364   3.018   0.880   2.317
  126OSM     O313365   2.818   0.930   2.291
  126OSM    HO313366   2.814   0.999   2.223
  126OSM    C4S13367   2.926   0.926   2.510
  126OSM    H4S13368   2.849   0.985   2.561
  126OSM    C5S13369   3.011   0.840   2.575
  126OSM    H5S13370   3.093   0.791   2.520
  126OSM    C6S13371   3.004   0.818   2.721
  126OSM    H6S13372   3.080   0.740   2.746
  126OSM    H6T13373   2.905   0.772   2.738
  126OSM    C7S13374   3.028   0.934   2.821
  126OSM    H7S13375   2.951   1.008   2.790
  126OSM    H7T13376   3.128   0.975   2.797
  126OSM    C8S13377   3.029   0.888   2.969
  126OSM    H8S13378   3.108   0.811   2.982
  126OSM    H8T13379   2.930   0.838   2.981
  126OSM    C9S13380   3.053   1.007   3.060
  126OSM    H9S13381   3.143   1.052   3.012
  126OSM    H9T13382   3.093   0.964   3.154
  126OSM   C10S13383   2.945   1.112   3.091
  126OSM   H10S13384   2.850   1.062   3.059
  126OSM   H10T13385   2.964   1.202   3.029
  126OSM   C11S13386   2.913   1.151   3.235
  126OSM   H11S13387   2.840   1.233   3.252
  126OSM   H11T13388   3.009   1.202   3.260
  126OSM   C12S13389   2.896   1.039   3.339
  126OSM   H12S13390   2.934   0.945   3.295
  126OSM   H12T13391   2.786   1.028   3.356
  126OSM   C13S13392   2.955   1.051   3.485
  126OSM   H13S13393   2.932   1.149   3.532
  126OSM   H13T13394   3.066   1.045   3.473
  126OSM   C14S13395   2.892   0.938   3.572
  126OSM   H14S13396   2.893   0.833   3.535
  126OSM   H14T13397   2.786   0.967   3.564
  126OSM   C15S13398   2.940   0.943   3.716
  126OSM   H15S13399   2.874   0.882   3.782
  126OSM   H15T13400   2.928   1.049   3.746
  126OSM   C16S13401   3.089   0.895   3.747
  126OSM   H16S13402   3.120   0.930   3.848
  126OSM   H16T13403   3.148   0.958   3.677
  126OSM   C17S13404   3.120   0.743   3.731
  126OSM   H17S13405   3.219   0.716   3.773
  126OSM   H17T13406   3.125   0.716   3.624
  126OSM   C18S13407   2.999   0.655   3.776
  126OSM   H18S13408   2.917   0.666   3.702
  126OSM   H18T13409   2.971   0.702   3.873
  126OSM   H18U13410   3.027   0.548   3.773
  126OSM    C1F13411   3.145   1.228   2.445
  126OSM     OF13412   3.067   1.318   2.417
  126OSM    C2F13413   3.269   1.257   2.508
  126OSM    H2F13414   3.335   1.304   2.431
  126OSM    H2G13415   3.312   1.157   2.531
  126OSM    C3F13416   3.249   1.340   2.635
  126OSM    H3F13417   3.181   1.427   2.623
  126OSM    H3G13418   3.349   1.382   2.660
  126OSM    C4F13419   3.212   1.266   2.764
  126OSM    H4F13420   3.296   1.196   2.784
  126OSM    H4G13421   3.125   1.203   2.738
  126OSM    C5F13422   3.183   1.363   2.875
  126OSM    H5F13423   3.271   1.431   2.871
  126OSM    H5G13424   3.180   1.306   2.971
  126OSM    C6F13425   3.061   1.449   2.869
  126OSM    H6F13426   2.973   1.383   2.887
  126OSM    H6G13427   3.046   1.488   2.766
  126OSM    C7F13428   3.060   1.565   2.972
  126OSM    H7F13429   2.970   1.626   2.952
  126OSM    H7G13430   3.157   1.619   2.961
  126OSM    C8F13431   3.032   1.509   3.112
  126OSM    H8F13432   3.125   1.460   3.149
  126OSM    H8G13433   2.958   1.427   3.103
  126OSM    C9F13434   2.982   1.616   3.204
  126OSM    H9F13435   2.945   1.708   3.156
  126OSM   C10F13436   2.977   1.616   3.340
  126OSM   H10F13437   2.961   1.714   3.387
  126OSM   C11F13438   3.022   1.492   3.424
  126OSM   H11F13439   3.110   1.446   3.375
  126OSM   H11G13440   2.942   1.415   3.419
  126OSM   C12F13441   3.063   1.529   3.571
  126OSM   H12F13442   3.068   1.638   3.593
  126OSM   H12G13443   3.164   1.487   3.587
  126OSM   C13F13444   2.991   1.452   3.690
  126OSM   H13F13445   3.053   1.476   3.779
  126OSM   H13G13446   2.984   1.343   3.672
  126OSM   C14F13447   2.853   1.512   3.717
  126OSM   H14F13448   2.793   1.507   3.623
  126OSM   H14G13449   2.858   1.621   3.734
  126OSM   C15F13450   2.777   1.449   3.835
  126OSM   H15F13451   2.671   1.482   3.837
  126OSM   H15G13452   2.812   1.499   3.927
  126OSM   C16F13453   2.785   1.296   3.841
  126OSM   H16F13454   2.893   1.272   3.852
  126OSM   H16G13455   2.745   1.256   3.745
  126OSM   C17F13456   2.701   1.235   3.954
  126OSM   H17F13457   2.596   1.269   3.940
  126OSM   H17G13458   2.728   1.277   4.053
  126OSM   C18F13459   2.701   1.086   3.958
  126OSM   H18F13460   2.671   1.057   4.060
  126OSM   H18G13461   2.807   1.060   3.940
  126OSM   H18H13462   2.636   1.033   3.885
  127OSM      N13463   2.222   3.073   1.846
  127OSM    C1513464   2.368   3.081   1.879
  127OSM   H15A13465   2.397   3.150   1.957
  127OSM   H15B13466   2.419   3.115   1.790
  127OSM   H15C13467   2.403   2.984   1.909
  127OSM    C1413468   2.196   3.199   1.760
  127OSM   H14A13469   2.269   3.207   1.681
  127OSM   H14B13470   2.223   3.289   1.814
  127OSM   H14C13471   2.095   3.196   1.721
  127OSM    C1313472   2.189   2.943   1.776
  127OSM   H13A13473   2.209   2.859   1.840
  127OSM   H13B13474   2.251   2.945   1.687
  127OSM   H13C13475   2.084   2.934   1.750
  127OSM    C1213476   2.140   3.089   1.977
  127OSM   H12A13477   2.035   3.072   1.959
  127OSM   H12B13478   2.155   3.184   2.025
  127OSM    C1113479   2.163   2.985   2.093
  127OSM   H11A13480   2.108   3.034   2.176
  127OSM   H11B13481   2.263   3.002   2.137
  127OSM      P13482   2.207   2.732   2.087
  127OSM    O1313483   2.133   2.609   2.069
  127OSM    O1413484   2.318   2.748   1.995
  127OSM    O1113485   2.262   2.743   2.233
  127OSM    O1213486   2.116   2.852   2.069
  127OSM    C1S13487   2.173   2.742   2.345
  127OSM    H1S13488   2.123   2.643   2.352
  127OSM    H1T13489   2.107   2.831   2.346
  127OSM     NF13490   2.142   2.748   2.590
  127OSM    HNF13491   2.068   2.814   2.587
  127OSM    C2S13492   2.245   2.753   2.484
  127OSM    H2S13493   2.315   2.666   2.482
  127OSM    C3S13494   2.331   2.877   2.493
  127OSM    H3S13495   2.259   2.961   2.480
  127OSM     O313496   2.428   2.888   2.385
  127OSM    HO313497   2.391   2.829   2.320
  127OSM    C4S13498   2.399   2.882   2.620
  127OSM    H4S13499   2.473   2.802   2.632
  127OSM    C5S13500   2.372   2.976   2.714
  127OSM    H5S13501   2.311   3.065   2.693
  127OSM    C6S13502   2.441   2.983   2.843
  127OSM    H6S13503   2.442   3.087   2.882
  127OSM    H6T13504   2.547   2.953   2.830
  127OSM    C7S13505   2.383   2.879   2.948
  127OSM    H7S13506   2.390   2.779   2.901
  127OSM    H7T13507   2.276   2.909   2.960
  127OSM    C8S13508   2.458   2.879   3.083
  127OSM    H8S13509   2.447   2.978   3.133
  127OSM    H8T13510   2.566   2.858   3.069
  127OSM    C9S13511   2.421   2.770   3.180
  127OSM    H9S13512   2.437   2.671   3.132
  127OSM    H9T13513   2.311   2.773   3.196
  127OSM   C10S13514   2.498   2.789   3.308
  127OSM   H10S13515   2.521   2.895   3.331
  127OSM   H10T13516   2.595   2.736   3.293
  127OSM   C11S13517   2.436   2.720   3.431
  127OSM   H11S13518   2.417   2.615   3.401
  127OSM   H11T13519   2.335   2.761   3.451
  127OSM   C12S13520   2.529   2.736   3.553
  127OSM   H12S13521   2.555   2.841   3.577
  127OSM   H12T13522   2.622   2.678   3.533
  127OSM   C13S13523   2.458   2.669   3.667
  127OSM   H13S13524   2.445   2.561   3.643
  127OSM   H13T13525   2.359   2.720   3.675
  127OSM   C14S13526   2.522   2.682   3.806
  127OSM   H14S13527   2.628   2.647   3.800
  127OSM   H14T13528   2.453   2.612   3.858
  127OSM   C15S13529   2.509   2.812   3.877
  127OSM   H15S13530   2.413   2.860   3.848
  127OSM   H15T13531   2.590   2.879   3.841
  127OSM   C16S13532   2.517   2.791   4.031
  127OSM   H16S13533   2.616   2.748   4.060
  127OSM   H16T13534   2.436   2.720   4.058
  127OSM   C17S13535   2.496   2.924   4.108
  127OSM   H17S13536   2.397   2.959   4.075
  127OSM   H17T13537   2.576   2.996   4.079
  127OSM   C18S13538   2.490   2.916   4.264
  127OSM   H18S13539   2.464   3.018   4.301
  127OSM   H18T13540   2.593   2.887   4.294
  127OSM   H18U13541   2.405   2.848   4.288
  127OSM    C1F13542   2.143   2.648   2.675
  127OSM     OF13543   2.214   2.550   2.660
  127OSM    C2F13544   2.033   2.656   2.784
  127OSM    H2F13545   1.959   2.734   2.756
  127OSM    H2G13546   2.083   2.691   2.876
  127OSM    C3F13547   1.972   2.515   2.795
  127OSM    H3F13548   2.049   2.437   2.815
  127OSM    H3G13549   1.925   2.494   2.697
  127OSM    C4F13550   1.873   2.510   2.906
  127OSM    H4F13551   1.839   2.406   2.922
  127OSM    H4G13552   1.788   2.574   2.874
  127OSM    C5F13553   1.921   2.570   3.037
  127OSM    H5F13554   1.836   2.587   3.106
  127OSM    H5G13555   1.953   2.675   3.016
  127OSM    C6F13556   2.021   2.486   3.121
  127OSM    H6F13557   2.113   2.477   3.060
  127OSM    H6G13558   1.987   2.381   3.127
  127OSM    C7F13559   2.063   2.553   3.255
  127OSM    H7F13560   1.977   2.565   3.325
  127OSM    H7G13561   2.104   2.654   3.232
  127OSM    C8F13562   2.175   2.476   3.331
  127OSM    H8F13563   2.208   2.548   3.409
  127OSM    H8G13564   2.255   2.460   3.255
  127OSM    C9F13565   2.124   2.347   3.396
  127OSM    H9F13566   2.078   2.280   3.322
  127OSM   C10F13567   2.108   2.320   3.525
  127OSM   H10F13568   2.080   2.218   3.556
  127OSM   C11F13569   2.148   2.410   3.643
  127OSM   H11F13570   2.065   2.484   3.643
  127OSM   H11G13571   2.247   2.457   3.623
  127OSM   C12F13572   2.166   2.334   3.774
  127OSM   H12F13573   2.226   2.396   3.845
  127OSM   H12G13574   2.225   2.242   3.755
  127OSM   C13F13575   2.038   2.284   3.849
  127OSM   H13F13576   2.004   2.200   3.783
  127OSM   H13G13577   1.962   2.365   3.850
  127OSM   C14F13578   2.066   2.236   3.997
  127OSM   H14F13579   1.971   2.188   4.027
  127OSM   H14G13580   2.088   2.321   4.065
  127OSM   C15F13581   2.195   2.138   4.002
  127OSM   H15F13582   2.289   2.176   3.957
  127OSM   H15G13583   2.166   2.057   3.933
  127OSM   C16F13584   2.240   2.073   4.136
  127OSM   H16F13585   2.324   2.004   4.114
  127OSM   H16G13586   2.147   2.024   4.171
  127OSM   C17F13587   2.294   2.165   4.242
  127OSM   H17F13588   2.327   2.111   4.333
  127OSM   H17G13589   2.213   2.234   4.273
  127OSM   C18F13590   2.413   2.249   4.194
  127OSM   H18F13591   2.439   2.323   4.272
  127OSM   H18G13592   2.392   2.304   4.100
  127OSM   H18H13593   2.503   2.189   4.168
  128OSM      N13594   1.533   0.809   1.908
  128OSM    C1513595   1.413   0.782   1.986
  128OSM   H15A13596   1.429   0.761   2.091
  128OSM   H15B13597   1.353   0.703   1.944
  128OSM   H15C13598   1.351   0.870   1.973
  128OSM    C1413599   1.501   0.856   1.770
  128OSM   H14A13600   1.458   0.778   1.710
  128OSM   H14B13601   1.595   0.893   1.730
  128OSM   H14C13602   1.437   0.942   1.756
  128OSM    C1313603   1.608   0.912   1.982
  128OSM   H13A13604   1.699   0.912   1.924
  128OSM   H13B13605   1.638   0.888   2.082
  128OSM   H13C13606   1.553   1.005   1.992
  128OSM    C1213607   1.617   0.685   1.892
  128OSM   H12A13608   1.700   0.716   1.830
  128OSM   H12B13609   1.563   0.624   1.821
  128OSM    C1113610   1.675   0.617   2.021
  128OSM   H11A13611   1.725   0.521   1.994
  128OSM   H11B13612   1.593   0.582   2.087
  128OSM      P13613   1.903   0.730   2.056
  128OSM    O1313614   1.987   0.609   2.041
  128OSM    O1413615   1.889   0.829   1.942
  128OSM    O1113616   1.962   0.813   2.188
  128OSM    O1213617   1.757   0.699   2.107
  128OSM    C1S13618   1.975   0.746   2.307
  128OSM    H1S13619   2.063   0.678   2.305
  128OSM    H1T13620   1.890   0.676   2.320
  128OSM     NF13621   2.006   0.764   2.552
  128OSM    HNF13622   1.934   0.714   2.599
  128OSM    C2S13623   1.973   0.836   2.429
  128OSM    H2S13624   2.041   0.923   2.414
  128OSM    C3S13625   1.831   0.917   2.425
  128OSM    H3S13626   1.749   0.843   2.436
  128OSM     O313627   1.801   0.987   2.299
  128OSM    HO313628   1.851   0.935   2.235
  128OSM    C4S13629   1.813   1.005   2.535
  128OSM    H4S13630   1.741   0.954   2.601
  128OSM    C5S13631   1.849   1.124   2.564
  128OSM    H5S13632   1.916   1.177   2.495
  128OSM    C6S13633   1.817   1.206   2.685
  128OSM    H6S13634   1.747   1.290   2.663
  128OSM    H6T13635   1.914   1.241   2.726
  128OSM    C7S13636   1.740   1.129   2.794
  128OSM    H7S13637   1.798   1.042   2.831
  128OSM    H7T13638   1.640   1.096   2.758
  128OSM    C8S13639   1.722   1.218   2.925
  128OSM    H8S13640   1.666   1.311   2.901
  128OSM    H8T13641   1.824   1.239   2.963
  128OSM    C9S13642   1.656   1.136   3.042
  128OSM    H9S13643   1.735   1.066   3.077
  128OSM    H9T13644   1.574   1.070   3.007
  128OSM   C10S13645   1.617   1.224   3.158
  128OSM   H10S13646   1.549   1.305   3.124
  128OSM   H10T13647   1.703   1.274   3.207
  128OSM   C11S13648   1.557   1.145   3.274
  128OSM   H11S13649   1.641   1.072   3.283
  128OSM   H11T13650   1.471   1.078   3.256
  128OSM   C12S13651   1.531   1.227   3.404
  128OSM   H12S13652   1.462   1.311   3.382
  128OSM   H12T13653   1.620   1.271   3.454
  128OSM   C13S13654   1.475   1.132   3.501
  128OSM   H13S13655   1.553   1.064   3.539
  128OSM   H13T13656   1.389   1.076   3.458
  128OSM   C14S13657   1.441   1.201   3.638
  128OSM   H14S13658   1.535   1.256   3.658
  128OSM   H14T13659   1.420   1.120   3.712
  128OSM   C15S13660   1.311   1.285   3.642
  128OSM   H15S13661   1.220   1.241   3.594
  128OSM   H15T13662   1.336   1.372   3.578
  128OSM   C16S13663   1.273   1.317   3.780
  128OSM   H16S13664   1.357   1.355   3.841
  128OSM   H16T13665   1.238   1.229   3.838
  128OSM   C17S13666   1.158   1.418   3.779
  128OSM   H17S13667   1.110   1.410   3.879
  128OSM   H17T13668   1.083   1.375   3.710
  128OSM   C18S13669   1.192   1.559   3.745
  128OSM   H18S13670   1.237   1.560   3.644
  128OSM   H18T13671   1.254   1.616   3.817
  128OSM   H18U13672   1.098   1.617   3.733
  128OSM    C1F13673   2.131   0.720   2.562
  128OSM     OF13674   2.219   0.762   2.490
  128OSM    C2F13675   2.141   0.611   2.665
  128OSM    H2F13676   2.065   0.532   2.652
  128OSM    H2G13677   2.126   0.663   2.762
  128OSM    C3F13678   2.281   0.535   2.668
  128OSM    H3F13679   2.366   0.605   2.681
  128OSM    H3G13680   2.291   0.506   2.561
  128OSM    C4F13681   2.291   0.411   2.764
  128OSM    H4F13682   2.393   0.371   2.741
  128OSM    H4G13683   2.220   0.335   2.725
  128OSM    C5F13684   2.252   0.448   2.909
  128OSM    H5F13685   2.151   0.493   2.916
  128OSM    H5G13686   2.329   0.519   2.947
  128OSM    C6F13687   2.235   0.319   3.002
  128OSM    H6F13688   2.330   0.263   2.986
  128OSM    H6G13689   2.161   0.253   2.952
  128OSM    C7F13690   2.194   0.361   3.142
  128OSM    H7F13691   2.092   0.404   3.146
  128OSM    H7G13692   2.256   0.448   3.173
  128OSM    C8F13693   2.212   0.251   3.257
  128OSM    H8F13694   2.310   0.197   3.257
  128OSM    H8G13695   2.142   0.166   3.242
  128OSM    C9F13696   2.176   0.313   3.391
  128OSM    H9F13697   2.098   0.390   3.377
  128OSM   C10F13698   2.227   0.283   3.509
  128OSM   H10F13699   2.182   0.327   3.599
  128OSM   C11F13700   2.333   0.187   3.549
  128OSM   H11F13701   2.409   0.174   3.468
  128OSM   H11G13702   2.287   0.086   3.551
  128OSM   C12F13703   2.403   0.203   3.687
  128OSM   H12F13704   2.468   0.293   3.680
  128OSM   H12G13705   2.479   0.122   3.696
  128OSM   C13F13706   2.297   0.205   3.807
  128OSM   H13F13707   2.234   0.114   3.798
  128OSM   H13G13708   2.232   0.295   3.800
  128OSM   C14F13709   2.362   0.206   3.946
  128OSM   H14F13710   2.414   0.304   3.945
  128OSM   H14G13711   2.434   0.121   3.953
  128OSM   C15F13712   2.261   0.190   4.065
  128OSM   H15F13713   2.224   0.086   4.078
  128OSM   H15G13714   2.178   0.254   4.031
  128OSM   C16F13715   2.320   0.233   4.196
  128OSM   H16F13716   2.237   0.234   4.269
  128OSM   H16G13717   2.350   0.339   4.179
  128OSM   C17F13718   2.432   0.143   4.255
  128OSM   H17F13719   2.506   0.125   4.174
  128OSM   H17G13720   2.396   0.041   4.282
  128OSM   C18F13721   2.491   0.207   4.384
  128OSM   H18F13722   2.421   0.262   4.449
  128OSM   H18G13723   2.574   0.274   4.352
  128OSM   H18H13724   2.534   0.126   4.448
  129OSM      N13725   4.091   6.740   2.089
  129OSM    C1513726   4.225   6.675   2.055
  129OSM   H15A13727   4.307   6.700   2.120
  129OSM   H15B13728   4.265   6.694   1.957
  129OSM   H15C13729   4.227   6.567   2.061
  129OSM    C1413730   4.083   0.087   2.054
  129OSM   H14A13731   4.148   0.143   2.119
  129OSM   H14B13732   3.984   0.124   2.075
  129OSM   H14C13733   4.103   0.104   1.949
  129OSM    C1313734   3.979   6.682   2.009
  129OSM   H13A13735   3.890   6.743   2.007
  129OSM   H13B13736   3.944   6.587   2.046
  129OSM   H13C13737   4.011   6.666   1.907
  129OSM    C1213738   4.065   6.716   2.235
  129OSM   H12A13739   4.145   6.760   2.293
  129OSM   H12B13740   4.076   6.610   2.253
  129OSM    C1113741   3.929   6.767   2.296
  129OSM   H11A13742   3.921   6.735   2.403
  129OSM   H11B13743   3.861   6.705   2.234
  129OSM      P13744   3.966   0.214   2.362
  129OSM    O1313745   4.112   0.207   2.324
  129OSM    O1413746   3.902   0.339   2.329
  129OSM    O1113747   3.940   0.179   2.510
  129OSM    O1213748   3.900   0.102   2.277
  129OSM    C1S13749   3.805   0.175   2.571
  129OSM    H1S13750   3.771   0.069   2.577
  129OSM    H1T13751   3.738   0.247   2.520
  129OSM     NF13752   3.674   0.197   2.771
  129OSM    HNF13753   3.610   0.271   2.755
  129OSM    C2S13754   3.806   0.223   2.722
  129OSM    H2S13755   3.881   0.161   2.774
  129OSM    C3S13756   3.851   0.371   2.732
  129OSM    H3S13757   3.792   0.439   2.667
  129OSM     O313758   3.981   0.382   2.683
  129OSM    HO313759   4.006   0.311   2.623
  129OSM    C4S13760   3.848   0.422   2.871
  129OSM    H4S13761   3.899   0.356   2.942
  129OSM    C5S13762   3.783   0.532   2.919
  129OSM    H5S13763   3.731   0.599   2.848
  129OSM    C6S13764   3.774   0.578   3.063
  129OSM    H6S13765   3.695   0.534   3.128
  129OSM    H6T13766   3.787   0.688   3.071
  129OSM    C7S13767   3.904   0.528   3.138
  129OSM    H7S13768   3.991   0.574   3.085
  129OSM    H7T13769   3.920   0.418   3.132
  129OSM    C8S13770   3.908   0.590   3.284
  129OSM    H8S13771   3.811   0.552   3.323
  129OSM    H8T13772   3.906   0.700   3.277
  129OSM    C9S13773   4.029   0.547   3.372
  129OSM    H9S13774   4.127   0.577   3.330
  129OSM    H9T13775   4.034   0.437   3.358
  129OSM   C10S13776   4.018   0.597   3.517
  129OSM   H10S13777   4.091   0.546   3.584
  129OSM   H10T13778   3.916   0.569   3.551
  129OSM   C11S13779   4.038   0.746   3.540
  129OSM   H11S13780   3.972   0.807   3.476
  129OSM   H11T13781   4.135   0.782   3.499
  129OSM   C12S13782   4.027   0.785   3.689
  129OSM   H12S13783   4.088   0.710   3.745
  129OSM   H12T13784   3.921   0.773   3.720
  129OSM   C13S13785   4.074   0.931   3.717
  129OSM   H13S13786   4.009   0.993   3.653
  129OSM   H13T13787   4.182   0.940   3.693
  129OSM   C14S13788   4.047   0.972   3.864
  129OSM   H14S13789   3.937   0.974   3.877
  129OSM   H14T13790   4.082   1.078   3.868
  129OSM   C15S13791   4.124   0.876   3.964
  129OSM   H15S13792   4.225   0.863   3.919
  129OSM   H15T13793   4.074   0.777   3.970
  129OSM   C16S13794   4.144   0.934   4.103
  129OSM   H16S13795   4.044   0.964   4.139
  129OSM   H16T13796   4.200   1.030   4.093
  129OSM   C17S13797   4.214   0.855   4.207
  129OSM   H17S13798   4.321   0.872   4.181
  129OSM   H17T13799   4.184   0.749   4.191
  129OSM   C18S13800   4.189   0.898   4.349
  129OSM   H18S13801   4.183   1.008   4.364
  129OSM   H18T13802   4.260   0.878   4.432
  129OSM   H18U13803   4.091   0.859   4.383
  129OSM    C1F13804   3.636   0.072   2.794
  129OSM     OF13805   3.723   6.788   2.815
  129OSM    C2F13806   3.492   0.041   2.783
  129OSM    H2F13807   3.476   6.734   2.763
  129OSM    H2G13808   3.447   0.095   2.698
  129OSM    C3F13809   3.431   0.068   2.923
  129OSM    H3F13810   3.321   0.075   2.909
  129OSM    H3G13811   3.456   0.169   2.963
  129OSM    C4F13812   3.461   6.768   3.022
  129OSM    H4F13813   3.572   6.761   3.029
  129OSM    H4G13814   3.418   6.669   2.992
  129OSM    C5F13815   3.422   0.003   3.169
  129OSM    H5F13816   3.325   0.055   3.170
  129OSM    H5G13817   3.491   0.079   3.211
  129OSM    C6F13818   3.433   6.675   3.271
  129OSM    H6F13819   3.527   6.625   3.240
  129OSM    H6G13820   3.345   6.614   3.241
  129OSM    C7F13821   3.425   6.726   3.412
  129OSM    H7F13822   3.330   6.780   3.433
  129OSM    H7G13823   3.518   6.785   3.420
  129OSM    C8F13824   3.426   6.610   3.512
  129OSM    H8F13825   3.350   6.538   3.475
  129OSM    H8G13826   3.399   6.649   3.613
  129OSM    C9F13827   3.567   6.544   3.518
  129OSM    H9F13828   3.618   6.524   3.423
  129OSM   C10F13829   3.643   6.537   3.629
  129OSM   H10F13830   3.733   6.475   3.613
  129OSM   C11F13831   3.613   6.567   3.772
  129OSM   H11F13832   3.559   6.663   3.786
  129OSM   H11G13833   3.712   6.588   3.819
  129OSM   C12F13834   3.536   6.466   3.864
  129OSM   H12F13835   3.581   6.369   3.832
  129OSM   H12G13836   3.433   6.458   3.824
  129OSM   C13F13837   3.528   6.489   4.014
  129OSM   H13F13838   3.482   6.588   4.037
  129OSM   H13G13839   3.631   6.483   4.055
  129OSM   C14F13840   3.442   6.388   4.086
  129OSM   H14F13841   3.461   6.389   4.196
  129OSM   H14G13842   3.464   6.286   4.048
  129OSM   C15F13843   3.290   6.407   4.072
  129OSM   H15F13844   3.249   6.380   3.972
  129OSM   H15G13845   3.248   6.509   4.086
  129OSM   C16F13846   3.217   6.318   4.170
  129OSM   H16F13847   3.252   6.332   4.275
  129OSM   H16G13848   3.238   6.209   4.162
  129OSM   C17F13849   3.063   6.341   4.169
  129OSM   H17F13850   3.028   6.331   4.064
  129OSM   H17G13851   3.051   6.446   4.204
  129OSM   C18F13852   2.985   6.243   4.255
  129OSM   H18F13853   2.878   6.273   4.257
  129OSM   H18G13854   3.014   6.248   4.363
  129OSM   H18H13855   2.996   6.139   4.217
  130OSM      N13856   3.771   4.320   2.003
  130OSM    C1513857   3.738   4.425   1.900
  130OSM   H15A13858   3.707   4.363   1.817
  130OSM   H15B13859   3.818   4.493   1.875
  130OSM   H15C13860   3.662   4.492   1.936
  130OSM    C1413861   3.900   4.249   1.976
  130OSM   H14A13862   3.924   4.190   2.063
  130OSM   H14B13863   3.974   4.323   1.949
  130OSM   H14C13864   3.883   4.183   1.892
  130OSM    C1313865   3.800   4.393   2.135
  130OSM   H13A13866   3.882   4.462   2.128
  130OSM   H13B13867   3.842   4.322   2.205
  130OSM   H13C13868   3.714   4.436   2.184
  130OSM    C1213869   3.655   4.221   2.014
  130OSM   H12A13870   3.565   4.268   2.052
  130OSM   H12B13871   3.681   4.141   2.082
  130OSM    C1113872   3.609   4.138   1.892
  130OSM   H11A13873   3.577   4.212   1.815
  130OSM   H11B13874   3.518   4.076   1.902
  130OSM      P13875   3.710   3.899   1.816
  130OSM    O1313876   3.595   3.845   1.741
  130OSM    O1413877   3.843   3.860   1.766
  130OSM    O1113878   3.694   3.837   1.960
  130OSM    O1213879   3.718   4.058   1.844
  130OSM    C1S13880   3.793   3.879   2.053
  130OSM    H1S13881   3.798   3.989   2.066
  130OSM    H1T13882   3.893   3.839   2.030
  130OSM     NF13883   3.847   3.886   2.292
  130OSM    HNF13884   3.896   3.817   2.345
  130OSM    C2S13885   3.763   3.818   2.194
  130OSM    H2S13886   3.660   3.846   2.225
  130OSM    C3S13887   3.782   3.663   2.187
  130OSM    H3S13888   3.885   3.642   2.153
  130OSM     O313889   3.698   3.608   2.087
  130OSM    HO313890   3.695   3.679   2.023
  130OSM    C4S13891   3.757   3.597   2.321
  130OSM    H4S13892   3.847   3.582   2.383
  130OSM    C5S13893   3.640   3.564   2.373
  130OSM    H5S13894   3.554   3.573   2.305
  130OSM    C6S13895   3.613   3.504   2.502
  130OSM    H6S13896   3.593   3.395   2.489
  130OSM    H6T13897   3.518   3.551   2.535
  130OSM    C7S13898   3.730   3.524   2.592
  130OSM    H7S13899   3.761   3.629   2.611
  130OSM    H7T13900   3.817   3.463   2.558
  130OSM    C8S13901   3.688   3.473   2.730
  130OSM    H8S13902   3.668   3.364   2.733
  130OSM    H8T13903   3.595   3.525   2.764
  130OSM    C9S13904   3.796   3.516   2.831
  130OSM    H9S13905   3.802   3.624   2.853
  130OSM    H9T13906   3.900   3.495   2.799
  130OSM   C10S13907   3.780   3.469   2.980
  130OSM   H10S13908   3.784   3.358   2.971
  130OSM   H10T13909   3.676   3.501   3.002
  130OSM   C11S13910   3.862   3.519   3.101
  130OSM   H11S13911   3.842   3.628   3.107
  130OSM   H11T13912   3.970   3.515   3.078
  130OSM   C12S13913   3.824   3.448   3.226
  130OSM   H12S13914   3.892   3.360   3.232
  130OSM   H12T13915   3.725   3.399   3.231
  130OSM   C13S13916   3.833   3.531   3.352
  130OSM   H13S13917   3.754   3.608   3.346
  130OSM   H13T13918   3.928   3.590   3.354
  130OSM   C14S13919   3.829   3.447   3.478
  130OSM   H14S13920   3.928   3.399   3.492
  130OSM   H14T13921   3.746   3.373   3.472
  130OSM   C15S13922   3.795   3.522   3.609
  130OSM   H15S13923   3.754   3.455   3.688
  130OSM   H15T13924   3.729   3.603   3.572
  130OSM   C16S13925   3.930   3.579   3.676
  130OSM   H16S13926   3.969   3.656   3.607
  130OSM   H16T13927   4.008   3.500   3.670
  130OSM   C17S13928   3.907   3.631   3.810
  130OSM   H17S13929   3.860   3.553   3.874
  130OSM   H17T13930   3.826   3.705   3.797
  130OSM   C18S13931   4.014   3.713   3.873
  130OSM   H18S13932   4.048   3.793   3.805
  130OSM   H18T13933   4.100   3.647   3.899
  130OSM   H18U13934   3.982   3.774   3.960
  130OSM    C1F13935   3.834   4.018   2.332
  130OSM     OF13936   3.746   4.087   2.285
  130OSM    C2F13937   3.916   4.072   2.449
  130OSM    H2F13938   4.021   4.061   2.415
  130OSM    H2G13939   3.889   4.011   2.537
  130OSM    C3F13940   3.872   4.220   2.482
  130OSM    H3F13941   3.765   4.242   2.502
  130OSM    H3G13942   3.891   4.276   2.388
  130OSM    C4F13943   3.945   4.296   2.597
  130OSM    H4F13944   3.938   4.406   2.587
  130OSM    H4G13945   4.050   4.273   2.571
  130OSM    C5F13946   3.909   4.258   2.740
  130OSM    H5F13947   3.914   4.148   2.749
  130OSM    H5G13948   3.800   4.262   2.759
  130OSM    C6F13949   3.986   4.339   2.841
  130OSM    H6F13950   3.986   4.447   2.816
  130OSM    H6G13951   4.090   4.301   2.828
  130OSM    C7F13952   3.932   4.325   2.980
  130OSM    H7F13953   3.917   4.217   2.999
  130OSM    H7G13954   3.831   4.373   2.973
  130OSM    C8F13955   4.023   4.391   3.087
  130OSM    H8F13956   4.128   4.376   3.056
  130OSM    H8G13957   4.011   4.333   3.181
  130OSM    C9F13958   3.982   4.533   3.105
  130OSM    H9F13959   3.931   4.577   3.018
  130OSM   C10F13960   4.003   4.618   3.208
  130OSM   H10F13961   3.974   4.722   3.187
  130OSM   C11F13962   4.087   4.589   3.333
  130OSM   H11F13963   4.156   4.675   3.344
  130OSM   H11G13964   4.141   4.493   3.330
  130OSM   C12F13965   3.999   4.594   3.466
  130OSM   H12F13966   3.925   4.512   3.454
  130OSM   H12G13967   3.954   4.696   3.466
  130OSM   C13F13968   4.076   4.578   3.595
  130OSM   H13F13969   4.137   4.671   3.600
  130OSM   H13G13970   4.130   4.482   3.590
  130OSM   C14F13971   3.998   4.571   3.732
  130OSM   H14F13972   3.959   4.468   3.747
  130OSM   H14G13973   3.910   4.637   3.716
  130OSM   C15F13974   4.079   4.621   3.856
  130OSM   H15F13975   4.148   4.702   3.824
  130OSM   H15G13976   4.155   4.541   3.870
  130OSM   C16F13977   3.990   4.663   3.976
  130OSM   H16F13978   3.907   4.734   3.954
  130OSM   H16G13979   4.049   4.709   4.059
  130OSM   C17F13980   3.938   4.533   4.046
  130OSM   H17F13981   4.024   4.476   4.088
  130OSM   H17G13982   3.872   4.475   3.979
  130OSM   C18F13983   3.853   4.575   4.169
  130OSM   H18F13984   3.813   4.487   4.224
  130OSM   H18G13985   3.763   4.630   4.136
  130OSM   H18H13986   3.899   4.649   4.238
  131OSM      N13987   1.121   0.093   1.917
  131OSM    C1513988   1.055   0.037   2.041
  131OSM   H15A13989   0.950   0.060   2.032
  131OSM   H15B13990   1.094   0.084   2.130
  131OSM   H15C13991   1.069   6.731   2.045
  131OSM    C1413992   1.052   0.041   1.794
  131OSM   H14A13993   1.043   6.734   1.799
  131OSM   H14B13994   1.105   0.076   1.706
  131OSM   H14C13995   0.949   0.074   1.793
  131OSM    C1313996   1.128   0.240   1.913
  131OSM   H13A13997   1.177   0.267   1.821
  131OSM   H13B13998   1.186   0.272   1.999
  131OSM   H13C13999   1.027   0.280   1.910
  131OSM    C1214000   1.262   0.032   1.913
  131OSM   H12A14001   1.304   0.061   1.817
  131OSM   H12B14002   1.251   6.726   1.898
  131OSM    C1114003   1.362   0.076   2.022
  131OSM   H11A14004   1.332   0.046   2.125
  131OSM   H11B14005   1.359   0.187   2.019
  131OSM      P14006   1.615   0.127   2.035
  131OSM    O1314007   1.742   0.056   2.047
  131OSM    O1414008   1.614   0.245   1.943
  131OSM    O1114009   1.568   0.175   2.178
  131OSM    O1214010   1.492   0.032   1.996
  131OSM    C1S14011   1.582   0.305   2.232
  131OSM    H1S14012   1.523   0.382   2.179
  131OSM    H1T14013   1.690   0.331   2.234
  131OSM     NF14014   1.537   0.427   2.447
  131OSM    HNF14015   1.627   0.442   2.487
  131OSM    C2S14016   1.524   0.300   2.379
  131OSM    H2S14017   1.417   0.273   2.365
  131OSM    C3S14018   1.585   0.172   2.453
  131OSM    H3S14019   1.695   0.175   2.438
  131OSM     O314020   1.543   0.047   2.399
  131OSM    HO314021   1.519   0.068   2.308
  131OSM    C4S14022   1.540   0.172   2.593
  131OSM    H4S14023   1.441   0.127   2.612
  131OSM    C5S14024   1.620   0.195   2.701
  131OSM    H5S14025   1.721   0.233   2.681
  131OSM    C6S14026   1.586   0.160   2.846
  131OSM    H6S14027   1.513   0.075   2.844
  131OSM    H6T14028   1.536   0.246   2.894
  131OSM    C7S14029   1.705   0.114   2.928
  131OSM    H7S14030   1.774   0.201   2.919
  131OSM    H7T14031   1.745   0.021   2.883
  131OSM    C8S14032   1.673   0.102   3.084
  131OSM    H8S14033   1.594   0.027   3.108
  131OSM    H8T14034   1.638   0.200   3.125
  131OSM    C9S14035   1.800   0.073   3.156
  131OSM    H9S14036   1.866   0.160   3.174
  131OSM    H9T14037   1.869   0.005   3.100
  131OSM   C10S14038   1.771   0.025   3.303
  131OSM   H10S14039   1.720   6.727   3.298
  131OSM   H10T14040   1.717   0.104   3.359
  131OSM   C11S14041   1.898   6.787   3.375
  131OSM   H11S14042   1.981   0.060   3.365
  131OSM   H11T14043   1.947   6.695   3.337
  131OSM   C12S14044   1.878   6.771   3.526
  131OSM   H12S14045   1.821   6.678   3.549
  131OSM   H12T14046   1.827   0.054   3.578
  131OSM   C13S14047   2.016   6.744   3.592
  131OSM   H13S14048   2.080   0.028   3.557
  131OSM   H13T14049   2.051   6.655   3.536
  131OSM   C14S14050   2.017   6.710   3.741
  131OSM   H14S14051   2.123   6.693   3.772
  131OSM   H14T14052   1.964   6.612   3.747
  131OSM   C15S14053   1.947   0.022   3.821
  131OSM   H15S14054   1.841   0.030   3.787
  131OSM   H15T14055   1.993   0.121   3.800
  131OSM   C16S14056   1.947   6.800   3.975
  131OSM   H16S14057   2.047   6.784   4.019
  131OSM   H16T14058   1.883   6.712   3.998
  131OSM   C17S14059   1.887   0.119   4.048
  131OSM   H17S14060   1.784   0.148   4.015
  131OSM   H17T14061   1.956   0.205   4.033
  131OSM   C18S14062   1.866   0.091   4.196
  131OSM   H18S14063   1.780   0.152   4.231
  131OSM   H18T14064   1.951   0.120   4.261
  131OSM   H18U14065   1.842   6.784   4.214
  131OSM    C1F14066   1.464   0.528   2.415
  131OSM     OF14067   1.354   0.514   2.361
  131OSM    C2F14068   1.525   0.667   2.417
  131OSM    H2F14069   1.538   0.693   2.310
  131OSM    H2G14070   1.617   0.659   2.479
  131OSM    C3F14071   1.437   0.781   2.484
  131OSM    H3F14072   1.338   0.774   2.434
  131OSM    H3G14073   1.486   0.879   2.468
  131OSM    C4F14074   1.412   0.758   2.636
  131OSM    H4F14075   1.506   0.800   2.678
  131OSM    H4G14076   1.416   0.654   2.674
  131OSM    C5F14077   1.294   0.832   2.702
  131OSM    H5F14078   1.201   0.780   2.671
  131OSM    H5G14079   1.295   0.935   2.660
  131OSM    C6F14080   1.311   0.837   2.858
  131OSM    H6F14081   1.410   0.873   2.895
  131OSM    H6G14082   1.276   0.742   2.902
  131OSM    C7F14083   1.207   0.935   2.924
  131OSM    H7F14084   1.104   0.900   2.904
  131OSM    H7G14085   1.224   1.039   2.887
  131OSM    C8F14086   1.225   0.959   3.074
  131OSM    H8F14087   1.156   1.038   3.113
  131OSM    H8G14088   1.328   0.997   3.092
  131OSM    C9F14089   1.204   0.835   3.160
  131OSM    H9F14090   1.202   0.738   3.108
  131OSM   C10F14091   1.160   0.841   3.285
  131OSM   H10F14092   1.132   0.758   3.352
  131OSM   C11F14093   1.143   0.972   3.363
  131OSM   H11F14094   1.042   1.015   3.349
  131OSM   H11G14095   1.204   1.061   3.337
  131OSM   C12F14096   1.158   0.945   3.513
  131OSM   H12F14097   1.168   1.042   3.566
  131OSM   H12G14098   1.248   0.884   3.535
  131OSM   C13F14099   1.042   0.871   3.578
  131OSM   H13F14100   1.061   0.762   3.568
  131OSM   H13G14101   0.942   0.900   3.538
  131OSM   C14F14102   1.023   0.907   3.725
  131OSM   H14F14103   1.122   0.901   3.777
  131OSM   H14G14104   0.954   0.833   3.771
  131OSM   C15F14105   0.959   1.043   3.756
  131OSM   H15F14106   0.851   1.027   3.737
  131OSM   H15G14107   1.005   1.118   3.687
  131OSM   C16F14108   0.973   1.089   3.901
  131OSM   H16F14109   1.079   1.109   3.925
  131OSM   H16G14110   0.941   1.007   3.969
  131OSM   C17F14111   0.875   1.200   3.939
  131OSM   H17F14112   0.777   1.191   3.886
  131OSM   H17G14113   0.929   1.295   3.918
  131OSM   C18F14114   0.862   1.199   4.091
  131OSM   H18F14115   0.964   1.211   4.134
  131OSM   H18G14116   0.801   1.109   4.114
  131OSM   H18H14117   0.796   1.281   4.126
  132OSM      N14118   5.548   6.523   2.415
  132OSM    C1514119   5.543   6.392   2.334
  132OSM   H15A14120   5.492   6.412   2.241
  132OSM   H15B14121   5.479   6.321   2.384
  132OSM   H15C14122   5.643   6.351   2.330
  132OSM    C1414123   5.408   6.588   2.407
  132OSM   H14A14124   5.333   6.527   2.456
  132OSM   H14B14125   5.382   6.598   2.303
  132OSM   H14C14126   5.393   6.679   2.463
  132OSM    C1314127   5.587   6.487   2.555
  132OSM   H13A14128   5.601   6.577   2.613
  132OSM   H13B14129   5.684   6.439   2.548
  132OSM   H13C14130   5.511   6.424   2.597
  132OSM    C1214131   5.644   6.625   2.354
  132OSM   H12A14132   5.621   6.717   2.405
  132OSM   H12B14133   5.617   6.643   2.251
  132OSM    C1114134   5.794   6.594   2.360
  132OSM   H11A14135   5.837   6.592   2.462
  132OSM   H11B14136   5.839   6.679   2.306
  132OSM      P14137   5.911   6.464   2.185
  132OSM    O1314138   5.945   6.327   2.152
  132OSM    O1414139   5.837   6.545   2.090
  132OSM    O1114140   6.047   6.536   2.231
  132OSM    O1214141   5.822   6.466   2.308
  132OSM    C1S14142   6.115   6.461   2.336
  132OSM    H1S14143   6.164   6.373   2.289
  132OSM    H1T14144   6.043   6.432   2.415
  132OSM     NF14145   6.290   6.447   2.507
  132OSM    HNF14146   6.246   6.443   2.596
  132OSM    C2S14147   6.225   6.545   2.416
  132OSM    H2S14148   6.305   6.570   2.343
  132OSM    C3S14149   6.170   6.668   2.487
  132OSM    H3S14150   6.072   6.645   2.533
  132OSM     O314151   6.127   6.764   2.393
  132OSM    HO314152   6.099   6.709   2.320
  132OSM    C4S14153   6.256   6.739   2.583
  132OSM    H4S14154   6.344   6.791   2.541
  132OSM    C5S14155   6.241   6.737   2.716
  132OSM    H5S14156   6.163   6.678   2.766
  132OSM    C6S14157   6.334   0.005   2.811
  132OSM    H6S14158   6.324   0.115   2.821
  132OSM    H6T14159   6.440   6.780   2.789
  132OSM    C7S14160   6.304   6.743   2.950
  132OSM    H7S14161   6.352   6.643   2.941
  132OSM    H7T14162   6.196   6.730   2.973
  132OSM    C8S14163   6.372   0.018   3.065
  132OSM    H8S14164   6.317   0.115   3.073
  132OSM    H8T14165   6.475   0.031   3.026
  132OSM    C9S14166   6.371   6.739   3.198
  132OSM    H9S14167   6.410   6.635   3.186
  132OSM    H9T14168   6.270   6.729   3.244
  132OSM   C10S14169   6.462   0.010   3.295
  132OSM   H10S14170   6.448   0.120   3.297
  132OSM   H10T14171   6.564   0.003   3.251
  132OSM   C11S14172   6.462   6.747   3.432
  132OSM   H11S14173   6.361   6.743   3.479
  132OSM   H11T14174   6.523   0.012   3.498
  132OSM   C12S14175   6.531   6.612   3.442
  132OSM   H12S14176   6.637   6.598   3.408
  132OSM   H12T14177   6.487   6.536   3.373
  132OSM   C13S14178   6.531   6.567   3.584
  132OSM   H13S14179   6.432   6.577   3.632
  132OSM   H13T14180   6.599   6.638   3.635
  132OSM   C14S14181   6.561   6.417   3.596
  132OSM   H14S14182   6.668   6.399   3.572
  132OSM   H14T14183   6.503   6.354   3.526
  132OSM   C15S14184   6.539   6.368   3.743
  132OSM   H15S14185   6.505   6.263   3.754
  132OSM   H15T14186   6.452   6.429   3.773
  132OSM   C16S14187   6.653   6.402   3.830
  132OSM   H16S14188   6.670   6.512   3.833
  132OSM   H16T14189   6.742   6.341   3.803
  132OSM   C17S14190   6.630   6.358   3.977
  132OSM   H17S14191   6.641   6.248   3.980
  132OSM   H17T14192   6.523   6.378   4.000
  132OSM   C18S14193   6.717   6.422   4.092
  132OSM   H18S14194   0.024   6.415   4.064
  132OSM   H18T14195   6.695   6.379   4.192
  132OSM   H18U14196   6.690   6.529   4.101
  132OSM    C1F14197   6.370   6.338   2.473
  132OSM     OF14198   6.418   6.336   2.359
  132OSM    C2F14199   6.392   6.239   2.585
  132OSM    H2F14200   6.342   6.143   2.564
  132OSM    H2G14201   6.336   6.286   2.669
  132OSM    C3F14202   6.543   6.220   2.606
  132OSM    H3F14203   6.586   6.173   2.515
  132OSM    H3G14204   6.535   6.144   2.687
  132OSM    C4F14205   6.621   6.340   2.653
  132OSM    H4F14206   6.616   6.422   2.578
  132OSM    H4G14207   6.725   6.302   2.657
  132OSM    C5F14208   6.588   6.400   2.793
  132OSM    H5F14209   6.487   6.441   2.774
  132OSM    H5G14210   6.674   6.463   2.826
  132OSM    C6F14211   6.572   6.295   2.906
  132OSM    H6F14212   6.645   6.214   2.885
  132OSM    H6G14213   6.471   6.247   2.908
  132OSM    C7F14214   6.572   6.349   3.053
  132OSM    H7F14215   6.491   6.424   3.066
  132OSM    H7G14216   6.665   6.408   3.070
  132OSM    C8F14217   6.554   6.245   3.165
  132OSM    H8F14218   6.461   6.189   3.143
  132OSM    H8G14219   6.553   6.291   3.266
  132OSM    C9F14220   6.648   6.125   3.156
  132OSM    H9F14221   6.641   6.073   3.059
  132OSM   C10F14222   6.742   6.089   3.244
  132OSM   H10F14223   0.009   6.008   3.210
  132OSM   C11F14224   6.783   6.145   3.372
  132OSM   H11F14225   6.751   6.086   3.461
  132OSM   H11G14226   6.736   6.245   3.386
  132OSM   C12F14227   0.140   6.162   3.366
  132OSM   H12F14228   0.162   6.235   3.285
  132OSM   H12G14229   0.191   6.067   3.343
  132OSM   C13F14230   0.181   6.231   3.495
  132OSM   H13F14231   0.145   6.335   3.504
  132OSM   H13G14232   0.287   6.255   3.476
  132OSM   C14F14233   0.166   6.145   3.618
  132OSM   H14F14234   0.190   6.041   3.586
  132OSM   H14G14235   0.058   6.138   3.645
  132OSM   C15F14236   0.259   6.189   3.728
  132OSM   H15F14237   0.237   6.294   3.758
  132OSM   H15G14238   0.363   6.192   3.688
  132OSM   C16F14239   0.253   6.093   3.849
  132OSM   H16F14240   0.250   5.990   3.807
  132OSM   H16G14241   0.173   6.113   3.924
  132OSM   C17F14242   0.382   6.088   3.929
  132OSM   H17F14243   0.378   6.190   3.971
  132OSM   H17G14244   0.468   6.077   3.859
  132OSM   C18F14245   0.405   5.985   4.037
  132OSM   H18F14246   0.405   5.884   3.990
  132OSM   H18G14247   0.337   5.995   4.124
  132OSM   H18H14248   0.509   5.997   4.073
  133OSM      N14249   4.849   3.263   2.173
  133OSM    C1514250   4.822   3.206   2.039
  133OSM   H15A14251   4.906   3.208   1.972
  133OSM   H15B14252   4.743   3.260   1.988
  133OSM   H15C14253   4.781   3.106   2.045
  133OSM    C1414254   4.910   3.402   2.169
  133OSM   H14A14255   4.940   3.426   2.270
  133OSM   H14B14256   4.834   3.475   2.147
  133OSM   H14C14257   4.999   3.403   2.108
  133OSM    C1314258   4.719   3.277   2.248
  133OSM   H13A14259   4.741   3.322   2.343
  133OSM   H13B14260   4.660   3.186   2.243
  133OSM   H13C14261   4.660   3.353   2.199
  133OSM    C1214262   4.936   3.162   2.246
  133OSM   H12A14263   5.040   3.153   2.218
  133OSM   H12B14264   4.903   3.060   2.233
  133OSM    C1114265   4.958   3.178   2.403
  133OSM   H11A14266   4.860   3.181   2.456
  133OSM   H11B14267   5.014   3.269   2.435
  133OSM      P14268   5.172   3.022   2.426
  133OSM    O1314269   5.170   2.919   2.322
  133OSM    O1414270   5.244   3.148   2.391
  133OSM    O1114271   5.216   2.960   2.569
  133OSM    O1214272   5.024   3.055   2.450
  133OSM    C1S14273   5.144   2.843   2.611
  133OSM    H1S14274   5.213   2.762   2.579
  133OSM    H1T14275   5.047   2.823   2.561
  133OSM     NF14276   5.108   2.692   2.804
  133OSM    HNF14277   5.016   2.662   2.828
  133OSM    C2S14278   5.148   2.825   2.763
  133OSM    H2S14279   5.254   2.843   2.791
  133OSM    C3S14280   5.063   2.934   2.839
  133OSM    H3S14281   4.956   2.919   2.813
  133OSM     O314282   5.081   3.069   2.798
  133OSM    HO314283   5.130   3.068   2.715
  133OSM    C4S14284   5.083   2.926   2.986
  133OSM    H4S14285   5.003   2.864   3.029
  133OSM    C5S14286   5.173   2.994   3.060
  133OSM    H5S14287   5.240   3.062   3.005
  133OSM    C6S14288   5.180   2.990   3.217
  133OSM    H6S14289   5.121   3.075   3.259
  133OSM    H6T14290   5.288   3.003   3.241
  133OSM    C7S14291   5.125   2.852   3.275
  133OSM    H7S14292   5.019   2.840   3.244
  133OSM    H7T14293   5.125   2.868   3.385
  133OSM    C8S14294   5.216   2.734   3.233
  133OSM    H8S14295   5.311   2.756   3.287
  133OSM    H8T14296   5.231   2.730   3.123
  133OSM    C9S14297   5.173   2.606   3.288
  133OSM    H9S14298   5.122   2.618   3.386
  133OSM    H9T14299   5.261   2.541   3.308
  133OSM   C10S14300   5.073   2.533   3.198
  133OSM   H10S14301   5.112   2.522   3.094
  133OSM   H10T14302   4.983   2.597   3.209
  133OSM   C11S14303   5.032   2.399   3.249
  133OSM   H11S14304   5.121   2.333   3.260
  133OSM   H11T14305   4.967   2.358   3.169
  133OSM   C12S14306   4.976   2.397   3.393
  133OSM   H12S14307   4.882   2.455   3.401
  133OSM   H12T14308   5.057   2.430   3.463
  133OSM   C13S14309   4.932   2.265   3.459
  133OSM   H13S14310   5.020   2.213   3.503
  133OSM   H13T14311   4.887   2.210   3.374
  133OSM   C14S14312   4.819   2.285   3.564
  133OSM   H14S14313   4.759   2.193   3.583
  133OSM   H14T14314   4.759   2.371   3.527
  133OSM   C15S14315   4.862   2.336   3.702
  133OSM   H15S14316   4.797   2.421   3.734
  133OSM   H15T14317   4.957   2.392   3.695
  133OSM   C16S14318   4.884   2.226   3.796
  133OSM   H16S14319   4.943   2.146   3.747
  133OSM   H16T14320   4.784   2.188   3.826
  133OSM   C17S14321   4.956   2.281   3.924
  133OSM   H17S14322   4.885   2.340   3.986
  133OSM   H17T14323   5.034   2.352   3.889
  133OSM   C18S14324   5.023   2.180   4.008
  133OSM   H18S14325   5.110   2.139   3.953
  133OSM   H18T14326   4.954   2.094   4.020
  133OSM   H18U14327   5.042   2.217   4.111
  133OSM    C1F14328   5.192   2.589   2.778
  133OSM     OF14329   5.305   2.607   2.749
  133OSM    C2F14330   5.141   2.449   2.781
  133OSM    H2F14331   5.140   2.411   2.677
  133OSM    H2G14332   5.037   2.451   2.820
  133OSM    C3F14333   5.242   2.361   2.858
  133OSM    H3F14334   5.254   2.396   2.962
  133OSM    H3G14335   5.345   2.368   2.817
  133OSM    C4F14336   5.208   2.209   2.868
  133OSM    H4F14337   5.290   2.149   2.913
  133OSM    H4G14338   5.182   2.166   2.769
  133OSM    C5F14339   5.090   2.166   2.956
  133OSM    H5F14340   4.996   2.219   2.929
  133OSM    H5G14341   5.129   2.199   3.054
  133OSM    C6F14342   5.039   2.019   2.952
  133OSM    H6F14343   5.133   1.962   2.962
  133OSM    H6G14344   5.007   1.998   2.847
  133OSM    C7F14345   4.929   1.975   3.055
  133OSM    H7F14346   4.897   1.868   3.055
  133OSM    H7G14347   4.834   2.032   3.042
  133OSM    C8F14348   4.973   2.001   3.201
  133OSM    H8F14349   4.883   1.990   3.266
  133OSM    H8G14350   5.011   2.104   3.213
  133OSM    C9F14351   5.075   1.895   3.245
  133OSM    H9F14352   5.168   1.887   3.186
  133OSM   C10F14353   5.080   1.818   3.358
  133OSM   H10F14354   5.174   1.762   3.366
  133OSM   C11F14355   4.984   1.793   3.476
  133OSM   H11F14356   4.963   1.684   3.472
  133OSM   H11G14357   4.891   1.850   3.459
  133OSM   C12F14358   5.046   1.828   3.615
  133OSM   H12F14359   5.091   1.929   3.620
  133OSM   H12G14360   5.139   1.768   3.626
  133OSM   C13F14361   4.959   1.774   3.727
  133OSM   H13F14362   4.936   1.669   3.699
  133OSM   H13G14363   4.868   1.838   3.735
  133OSM   C14F14364   5.034   1.771   3.861
  133OSM   H14F14365   5.067   1.871   3.896
  133OSM   H14G14366   5.118   1.698   3.852
  133OSM   C15F14367   4.946   1.718   3.977
  133OSM   H15F14368   4.843   1.759   3.978
  133OSM   H15G14369   5.003   1.744   4.069
  133OSM   C16F14370   4.927   1.571   3.978
  133OSM   H16F14371   5.027   1.527   3.956
  133OSM   H16G14372   4.856   1.543   3.897
  133OSM   C17F14373   4.878   1.515   4.113
  133OSM   H17F14374   4.831   1.415   4.101
  133OSM   H17G14375   4.793   1.578   4.149
  133OSM   C18F14376   4.978   1.509   4.228
  133OSM   H18F14377   5.029   1.604   4.254
  133OSM   H18G14378   5.062   1.439   4.208
  133OSM   H18H14379   4.929   1.474   4.322
  134OSM      N14380   6.058   5.155   2.103
  134OSM    C1514381   6.134   5.071   2.006
  134OSM   H15A14382   6.067   5.004   1.953
  134OSM   H15B14383   6.214   5.014   2.052
  134OSM   H15C14384   6.173   5.125   1.920
  134OSM    C1414385   6.151   5.265   2.143
  134OSM   H14A14386   6.099   5.336   2.206
  134OSM   H14B14387   6.190   5.316   2.056
  134OSM   H14C14388   6.228   5.235   2.212
  134OSM    C1314389   5.948   5.223   2.028
  134OSM   H13A14390   5.876   5.270   2.093
  134OSM   H13B14391   5.899   5.154   1.960
  134OSM   H13C14392   5.976   5.314   1.977
  134OSM    C1214393   6.009   5.074   2.214
  134OSM   H12A14394   6.083   5.008   2.257
  134OSM   H12B14395   5.926   5.015   2.178
  134OSM    C1114396   5.961   5.159   2.332
  134OSM   H11A14397   6.035   5.230   2.376
  134OSM   H11B14398   5.939   5.083   2.410
  134OSM      P14399   5.694   5.176   2.300
  134OSM    O1314400   5.603   5.264   2.222
  134OSM    O1414401   5.700   5.033   2.261
  134OSM    O1114402   5.645   5.194   2.453
  134OSM    O1214403   5.843   5.233   2.295
  134OSM    C1S14404   5.637   5.328   2.497
  134OSM    H1S14405   5.541   5.369   2.458
  134OSM    H1T14406   5.711   5.402   2.460
  134OSM     NF14407   5.584   5.468   2.700
  134OSM    HNF14408   5.650   5.535   2.733
  134OSM    C2S14409   5.634   5.338   2.652
  134OSM    H2S14410   5.558   5.259   2.673
  134OSM    C3S14411   5.768   5.278   2.716
  134OSM    H3S14412   5.843   5.359   2.703
  134OSM     O314413   5.818   5.153   2.655
  134OSM    HO314414   5.771   5.139   2.572
  134OSM    C4S14415   5.757   5.269   2.865
  134OSM    H4S14416   5.820   5.351   2.903
  134OSM    C5S14417   5.713   5.170   2.947
  134OSM    H5S14418   5.677   5.078   2.898
  134OSM    C6S14419   5.747   5.166   3.087
  134OSM    H6S14420   5.809   5.251   3.124
  134OSM    H6T14421   5.806   5.076   3.116
  134OSM    C7S14422   5.622   5.156   3.174
  134OSM    H7S14423   5.580   5.057   3.145
  134OSM    H7T14424   5.550   5.240   3.158
  134OSM    C8S14425   5.654   5.156   3.326
  134OSM    H8S14426   5.718   5.247   3.331
  134OSM    H8T14427   5.721   5.074   3.362
  134OSM    C9S14428   5.531   5.174   3.413
  134OSM    H9S14429   5.453   5.095   3.409
  134OSM    H9T14430   5.479   5.269   3.388
  134OSM   C10S14431   5.567   5.170   3.558
  134OSM   H10S14432   5.632   5.256   3.582
  134OSM   H10T14433   5.632   5.082   3.573
  134OSM   C11S14434   5.456   5.151   3.669
  134OSM   H11S14435   5.399   5.057   3.655
  134OSM   H11T14436   5.393   5.240   3.650
  134OSM   C12S14437   5.517   5.155   3.811
  134OSM   H12S14438   5.581   5.246   3.816
  134OSM   H12T14439   5.564   5.056   3.827
  134OSM   C13S14440   5.412   5.166   3.920
  134OSM   H13S14441   5.314   5.127   3.886
  134OSM   H13T14442   5.416   5.273   3.950
  134OSM   C14S14443   5.448   5.084   4.042
  134OSM   H14S14444   5.559   5.083   4.050
  134OSM   H14T14445   5.419   4.982   4.009
  134OSM   C15S14446   5.384   5.142   4.163
  134OSM   H15S14447   5.274   5.154   4.154
  134OSM   H15T14448   5.420   5.245   4.181
  134OSM   C16S14449   5.422   5.064   4.295
  134OSM   H16S14450   5.532   5.052   4.301
  134OSM   H16T14451   5.377   4.963   4.295
  134OSM   C17S14452   5.383   5.138   4.426
  134OSM   H17S14453   5.424   5.242   4.431
  134OSM   H17T14454   5.422   5.090   4.519
  134OSM   C18S14455   5.230   5.150   4.430
  134OSM   H18S14456   5.178   5.051   4.429
  134OSM   H18T14457   5.187   5.194   4.337
  134OSM   H18U14458   5.198   5.218   4.511
  134OSM    C1F14459   5.457   5.499   2.683
  134OSM     OF14460   5.391   5.417   2.623
  134OSM    C2F14461   5.401   5.627   2.724
  134OSM    H2F14462   5.390   5.697   2.638
  134OSM    H2G14463   5.469   5.680   2.795
  134OSM    C3F14464   5.253   5.619   2.775
  134OSM    H3F14465   5.189   5.553   2.712
  134OSM    H3G14466   5.210   5.722   2.784
  134OSM    C4F14467   5.254   5.562   2.921
  134OSM    H4F14468   5.240   5.651   2.987
  134OSM    H4G14469   5.347   5.501   2.921
  134OSM    C5F14470   5.134   5.465   2.932
  134OSM    H5F14471   5.173   5.369   2.894
  134OSM    H5G14472   5.049   5.510   2.875
  134OSM    C6F14473   5.090   5.440   3.076
  134OSM    H6F14474   5.180   5.388   3.115
  134OSM    H6G14475   5.013   5.360   3.074
  134OSM    C7F14476   5.041   5.561   3.150
  134OSM    H7F14477   4.966   5.610   3.084
  134OSM    H7G14478   5.127   5.627   3.178
  134OSM    C8F14479   4.975   5.518   3.280
  134OSM    H8F14480   5.050   5.523   3.362
  134OSM    H8G14481   4.958   5.408   3.273
  134OSM    C9F14482   4.845   5.584   3.317
  134OSM    H9F14483   4.773   5.574   3.234
  134OSM   C10F14484   4.809   5.635   3.434
  134OSM   H10F14485   4.712   5.682   3.455
  134OSM   C11F14486   4.887   5.627   3.559
  134OSM   H11F14487   4.845   5.704   3.626
  134OSM   H11G14488   4.989   5.665   3.539
  134OSM   C12F14489   4.903   5.492   3.632
  134OSM   H12F14490   4.985   5.492   3.707
  134OSM   H12G14491   4.934   5.422   3.553
  134OSM   C13F14492   4.768   5.430   3.680
  134OSM   H13F14493   4.803   5.330   3.711
  134OSM   H13G14494   4.700   5.428   3.591
  134OSM   C14F14495   4.687   5.513   3.784
  134OSM   H14F14496   4.598   5.463   3.829
  134OSM   H14G14497   4.640   5.600   3.733
  134OSM   C15F14498   4.766   5.557   3.904
  134OSM   H15F14499   4.843   5.633   3.877
  134OSM   H15G14500   4.819   5.465   3.939
  134OSM   C16F14501   4.675   5.616   4.013
  134OSM   H16F14502   4.614   5.693   3.961
  134OSM   H16G14503   4.739   5.668   4.087
  134OSM   C17F14504   4.567   5.524   4.077
  134OSM   H17F14505   4.484   5.499   4.007
  134OSM   H17G14506   4.522   5.581   4.161
  134OSM   C18F14507   4.621   5.389   4.128
  134OSM   H18F14508   4.664   5.333   4.042
  134OSM   H18G14509   4.538   5.330   4.173
  134OSM   H18H14510   4.705   5.394   4.200
  135OSM      N14511   0.728   1.311   1.789
  135OSM    C1514512   0.737   1.461   1.778
  135OSM   H15A14513   0.759   1.493   1.678
  135OSM   H15B14514   0.818   1.494   1.842
  135OSM   H15C14515   0.649   1.513   1.814
  135OSM    C1414516   0.660   1.263   1.664
  135OSM   H14A14517   0.671   1.156   1.652
  135OSM   H14B14518   0.690   1.306   1.569
  135OSM   H14C14519   0.554   1.277   1.674
  135OSM    C1314520   0.862   1.256   1.809
  135OSM   H13A14521   0.922   1.276   1.721
  135OSM   H13B14522   0.866   1.149   1.816
  135OSM   H13C14523   0.921   1.301   1.888
  135OSM    C1214524   0.644   1.270   1.911
  135OSM   H12A14525   0.703   1.291   1.999
  135OSM   H12B14526   0.631   1.163   1.908
  135OSM    C1114527   0.498   1.330   1.930
  135OSM   H11A14528   0.500   1.441   1.932
  135OSM   H11B14529   0.467   1.300   2.032
  135OSM      P14530   0.356   1.137   1.841
  135OSM    O1314531   0.306   1.094   1.707
  135OSM    O1414532   0.449   1.046   1.915
  135OSM    O1114533   0.226   1.165   1.928
  135OSM    O1214534   0.415   1.280   1.825
  135OSM    C1S14535   0.139   1.061   1.969
  135OSM    H1S14536   0.145   0.971   1.904
  135OSM    H1T14537   0.040   1.108   1.989
  135OSM     NF14538   0.086   0.901   2.155
  135OSM    HNF14539   0.001   0.924   2.202
  135OSM    C2S14540   0.184   1.007   2.114
  135OSM    H2S14541   0.287   0.965   2.113
  135OSM    C3S14542   0.183   1.126   2.221
  135OSM    H3S14543   0.085   1.178   2.212
  135OSM     O314544   0.282   1.224   2.197
  135OSM    HO314545   0.301   1.205   2.104
  135OSM    C4S14546   0.213   1.064   2.366
  135OSM    H4S14547   0.116   1.049   2.417
  135OSM    C5S14548   0.323   1.003   2.419
  135OSM    H5S14549   0.413   0.979   2.360
  135OSM    C6S14550   0.334   0.953   2.561
  135OSM    H6S14551   0.334   0.843   2.569
  135OSM    H6T14552   0.245   0.994   2.615
  135OSM    C7S14553   0.462   1.001   2.627
  135OSM    H7S14554   0.465   1.110   2.648
  135OSM    H7T14555   0.550   0.972   2.566
  135OSM    C8S14556   0.486   0.931   2.760
  135OSM    H8S14557   0.590   0.941   2.797
  135OSM    H8T14558   0.472   0.822   2.745
  135OSM    C9S14559   0.412   0.995   2.880
  135OSM    H9S14560   0.303   0.984   2.861
  135OSM    H9T14561   0.437   1.103   2.879
  135OSM   C10S14562   0.446   0.923   3.010
  135OSM   H10S14563   0.556   0.903   3.019
  135OSM   H10T14564   0.399   0.823   3.003
  135OSM   C11S14565   0.399   1.000   3.139
  135OSM   H11S14566   0.288   0.995   3.138
  135OSM   H11T14567   0.431   1.106   3.145
  135OSM   C12S14568   0.450   0.948   3.275
  135OSM   H12S14569   0.561   0.944   3.274
  135OSM   H12T14570   0.419   0.843   3.289
  135OSM   C13S14571   0.398   1.024   3.395
  135OSM   H13S14572   0.313   0.973   3.446
  135OSM   H13T14573   0.360   1.124   3.367
  135OSM   C14S14574   0.502   1.045   3.513
  135OSM   H14S14575   0.600   1.083   3.477
  135OSM   H14T14576   0.528   0.947   3.558
  135OSM   C15S14577   0.451   1.132   3.629
  135OSM   H15S14578   0.340   1.126   3.636
  135OSM   H15T14579   0.473   1.236   3.600
  135OSM   C16S14580   0.525   1.097   3.756
  135OSM   H16S14581   0.621   1.153   3.762
  135OSM   H16T14582   0.537   0.987   3.767
  135OSM   C17S14583   0.451   1.144   3.882
  135OSM   H17S14584   0.487   1.097   3.975
  135OSM   H17T14585   0.344   1.121   3.864
  135OSM   C18S14586   0.478   1.292   3.912
  135OSM   H18S14587   0.402   1.338   3.978
  135OSM   H18T14588   0.468   1.358   3.823
  135OSM   H18U14589   0.578   1.306   3.959
  135OSM    C1F14590   0.097   0.780   2.101
  135OSM     OF14591   0.183   0.755   2.017
  135OSM    C2F14592   6.799   0.674   2.156
  135OSM    H2F14593   6.767   0.610   2.071
  135OSM    H2G14594   6.709   0.725   2.195
  135OSM    C3F14595   0.065   0.575   2.253
  135OSM    H3F14596   0.158   0.536   2.207
  135OSM    H3G14597   0.002   0.485   2.266
  135OSM    C4F14598   0.104   0.638   2.382
  135OSM    H4F14599   0.029   0.703   2.431
  135OSM    H4G14600   0.180   0.718   2.365
  135OSM    C5F14601   0.179   0.546   2.481
  135OSM    H5F14602   0.285   0.535   2.450
  135OSM    H5G14603   0.136   0.444   2.481
  135OSM    C6F14604   0.175   0.596   2.624
  135OSM    H6F14605   0.082   0.581   2.683
  135OSM    H6G14606   0.200   0.703   2.634
  135OSM    C7F14607   0.280   0.515   2.704
  135OSM    H7F14608   0.378   0.546   2.662
  135OSM    H7G14609   0.261   0.406   2.688
  135OSM    C8F14610   0.288   0.539   2.860
  135OSM    H8F14611   0.316   0.646   2.868
  135OSM    H8G14612   0.372   0.474   2.894
  135OSM    C9F14613   0.167   0.511   2.941
  135OSM    H9F14614   0.068   0.529   2.896
  135OSM   C10F14615   0.157   0.456   3.063
  135OSM   H10F14616   0.052   0.454   3.098
  135OSM   C11F14617   0.269   0.427   3.158
  135OSM   H11F14618   0.365   0.474   3.126
  135OSM   H11G14619   0.286   0.318   3.171
  135OSM   C12F14620   0.238   0.475   3.299
  135OSM   H12F14621   0.150   0.423   3.343
  135OSM   H12G14622   0.211   0.582   3.287
  135OSM   C13F14623   0.357   0.453   3.394
  135OSM   H13F14624   0.452   0.481   3.345
  135OSM   H13G14625   0.370   0.345   3.415
  135OSM   C14F14626   0.348   0.515   3.536
  135OSM   H14F14627   0.329   0.624   3.523
  135OSM   H14G14628   0.446   0.485   3.579
  135OSM   C15F14629   0.234   0.465   3.623
  135OSM   H15F14630   0.248   0.355   3.628
  135OSM   H15G14631   0.135   0.487   3.578
  135OSM   C16F14632   0.242   0.530   3.756
  135OSM   H16F14633   0.318   0.481   3.820
  135OSM   H16G14634   0.148   0.531   3.815
  135OSM   C17F14635   0.283   0.682   3.760
  135OSM   H17F14636   0.224   0.732   3.680
  135OSM   H17G14637   0.388   0.706   3.736
  135OSM   C18F14638   0.267   0.764   3.888
  135OSM   H18F14639   0.317   0.717   3.976
  135OSM   H18G14640   0.156   0.767   3.895
  135OSM   H18H14641   0.306   0.867   3.876
  136OSM      N14642   1.669   5.028   2.491
  136OSM    C1514643   1.538   5.080   2.535
  136OSM   H15A14644   1.491   5.024   2.614
  136OSM   H15B14645   1.476   5.082   2.446
  136OSM   H15C14646   1.537   5.184   2.564
  136OSM    C1414647   1.708   5.104   2.369
  136OSM   H14A14648   1.799   5.058   2.333
  136OSM   H14B14649   1.715   5.208   2.396
  136OSM   H14C14650   1.631   5.101   2.294
  136OSM    C1314651   1.771   5.071   2.598
  136OSM   H13A14652   1.763   5.178   2.604
  136OSM   H13B14653   1.871   5.044   2.566
  136OSM   H13C14654   1.753   5.023   2.693
  136OSM    C1214655   1.664   4.880   2.480
  136OSM   H12A14656   1.588   4.852   2.408
  136OSM   H12B14657   1.627   4.836   2.571
  136OSM    C1114658   1.792   4.806   2.454
  136OSM   H11A14659   1.785   4.698   2.476
  136OSM   H11B14660   1.862   4.850   2.528
  136OSM      P14661   1.984   4.859   2.277
  136OSM    O1314662   2.012   4.823   2.134
  136OSM    O1414663   1.999   4.997   2.313
  136OSM    O1114664   2.073   4.764   2.370
  136OSM    O1214665   1.840   4.828   2.322
  136OSM    C1S14666   2.187   4.826   2.443
  136OSM    H1S14667   2.150   4.905   2.511
  136OSM    H1T14668   2.263   4.867   2.372
  136OSM     NF14669   2.347   4.792   2.620
  136OSM    HNF14670   2.443   4.815   2.607
  136OSM    C2S14671   2.263   4.722   2.527
  136OSM    H2S14672   2.193   4.663   2.589
  136OSM    C3S14673   2.354   4.644   2.432
  136OSM    H3S14674   2.402   4.718   2.364
  136OSM     O314675   2.280   4.559   2.342
  136OSM    HO314676   2.196   4.604   2.339
  136OSM    C4S14677   2.450   4.555   2.519
  136OSM    H4S14678   2.449   4.571   2.628
  136OSM    C5S14679   2.547   4.488   2.457
  136OSM    H5S14680   2.564   4.499   2.349
  136OSM    C6S14681   2.656   4.414   2.535
  136OSM    H6S14682   2.755   4.443   2.495
  136OSM    H6T14683   2.641   4.306   2.515
  136OSM    C7S14684   2.659   4.433   2.685
  136OSM    H7S14685   2.570   4.395   2.739
  136OSM    H7T14686   2.663   4.540   2.712
  136OSM    C8S14687   2.774   4.357   2.744
  136OSM    H8S14688   2.868   4.403   2.706
  136OSM    H8T14689   2.768   4.262   2.687
  136OSM    C9S14690   2.769   4.350   2.899
  136OSM    H9S14691   2.667   4.316   2.928
  136OSM    H9T14692   2.784   4.450   2.946
  136OSM   C10S14693   2.878   4.249   2.959
  136OSM   H10S14694   2.976   4.290   2.929
  136OSM   H10T14695   2.865   4.151   2.907
  136OSM   C11S14696   2.867   4.224   3.113
  136OSM   H11S14697   2.775   4.163   3.122
  136OSM   H11T14698   2.845   4.323   3.160
  136OSM   C12S14699   2.984   4.149   3.175
  136OSM   H12S14700   3.068   4.219   3.155
  136OSM   H12T14701   2.987   4.045   3.136
  136OSM   C13S14702   2.964   4.141   3.326
  136OSM   H13S14703   2.869   4.090   3.350
  136OSM   H13T14704   2.957   4.243   3.368
  136OSM   C14S14705   3.080   4.066   3.402
  136OSM   H14S14706   3.168   4.096   3.340
  136OSM   H14T14707   3.082   3.955   3.392
  136OSM   C15S14708   3.098   4.115   3.547
  136OSM   H15S14709   3.008   4.085   3.605
  136OSM   H15T14710   3.116   4.225   3.546
  136OSM   C16S14711   3.221   4.058   3.609
  136OSM   H16S14712   3.311   4.086   3.550
  136OSM   H16T14713   3.202   3.949   3.611
  136OSM   C17S14714   3.245   4.113   3.758
  136OSM   H17S14715   3.265   4.221   3.740
  136OSM   H17T14716   3.338   4.073   3.804
  136OSM   C18S14717   3.121   4.085   3.849
  136OSM   H18S14718   3.090   3.980   3.833
  136OSM   H18T14719   3.032   4.152   3.838
  136OSM   H18U14720   3.155   4.096   3.954
  136OSM    C1F14721   2.293   4.843   2.730
  136OSM     OF14722   2.179   4.816   2.765
  136OSM    C2F14723   2.381   4.933   2.817
  136OSM    H2F14724   2.342   5.036   2.805
  136OSM    H2G14725   2.483   4.937   2.771
  136OSM    C3F14726   2.389   4.891   2.964
  136OSM    H3F14727   2.298   4.897   3.028
  136OSM    H3G14728   2.459   4.958   3.019
  136OSM    C4F14729   2.442   4.749   2.991
  136OSM    H4F14730   2.547   4.739   2.956
  136OSM    H4G14731   2.383   4.685   2.922
  136OSM    C5F14732   2.438   4.701   3.138
  136OSM    H5F14733   2.507   4.766   3.197
  136OSM    H5G14734   2.472   4.595   3.136
  136OSM    C6F14735   2.301   4.713   3.203
  136OSM    H6F14736   2.232   4.678   3.123
  136OSM    H6G14737   2.287   4.815   3.244
  136OSM    C7F14738   2.287   4.616   3.323
  136OSM    H7F14739   2.273   4.511   3.289
  136OSM    H7G14740   2.188   4.643   3.365
  136OSM    C8F14741   2.396   4.630   3.431
  136OSM    H8F14742   2.495   4.613   3.384
  136OSM    H8G14743   2.395   4.552   3.509
  136OSM    C9F14744   2.388   4.758   3.501
  136OSM    H9F14745   2.397   4.847   3.436
  136OSM   C10F14746   2.364   4.784   3.631
  136OSM   H10F14747   2.362   4.884   3.677
  136OSM   C11F14748   2.339   4.671   3.732
  136OSM   H11F14749   2.401   4.583   3.706
  136OSM   H11G14750   2.235   4.634   3.732
  136OSM   C12F14751   2.378   4.718   3.873
  136OSM   H12F14752   2.330   4.812   3.907
  136OSM   H12G14753   2.486   4.745   3.872
  136OSM   C13F14754   2.342   4.607   3.980
  136OSM   H13F14755   2.376   4.516   3.927
  136OSM   H13G14756   2.232   4.608   3.993
  136OSM   C14F14757   2.407   4.608   4.113
  136OSM   H14F14758   2.375   4.519   4.172
  136OSM   H14G14759   2.380   4.705   4.159
  136OSM   C15F14760   2.563   4.610   4.097
  136OSM   H15F14761   2.591   4.712   4.062
  136OSM   H15G14762   2.597   4.527   4.031
  136OSM   C16F14763   2.637   4.591   4.232
  136OSM   H16F14764   2.591   4.665   4.301
  136OSM   H16G14765   2.744   4.617   4.217
  136OSM   C17F14766   2.634   4.450   4.287
  136OSM   H17F14767   2.674   4.380   4.210
  136OSM   H17G14768   2.530   4.410   4.297
  136OSM   C18F14769   2.711   4.412   4.420
  136OSM   H18F14770   2.679   4.487   4.496
  136OSM   H18G14771   2.819   4.432   4.408
  136OSM   H18H14772   2.703   4.310   4.462
  137OSM      N14773   0.698   1.666   2.237
  137OSM    C1514774   0.583   1.605   2.155
  137OSM   H15A14775   0.541   1.529   2.219
  137OSM   H15B14776   0.632   1.561   2.069
  137OSM   H15C14777   0.499   1.665   2.125
  137OSM    C1414778   0.648   1.692   2.381
  137OSM   H14A14779   0.569   1.765   2.389
  137OSM   H14B14780   0.728   1.723   2.447
  137OSM   H14C14781   0.608   1.597   2.414
  137OSM    C1314782   0.804   1.559   2.245
  137OSM   H13A14783   0.772   1.458   2.225
  137OSM   H13B14784   0.841   1.547   2.346
  137OSM   H13C14785   0.886   1.581   2.178
  137OSM    C1214786   0.752   1.798   2.177
  137OSM   H12A14787   0.675   1.874   2.175
  137OSM   H12B14788   0.778   1.770   2.076
  137OSM    C1114789   0.885   1.860   2.234
  137OSM   H11A14790   0.965   1.785   2.213
  137OSM   H11B14791   0.890   1.877   2.344
  137OSM      P14792   0.854   2.119   2.191
  137OSM    O1314793   0.924   2.222   2.110
  137OSM    O1414794   0.704   2.109   2.180
  137OSM    O1114795   0.918   2.128   2.334
  137OSM    O1214796   0.913   1.974   2.150
  137OSM    C1S14797   0.875   2.205   2.447
  137OSM    H1S14798   0.795   2.149   2.499
  137OSM    H1T14799   0.823   2.297   2.413
  137OSM     NF14800   0.924   2.294   2.670
  137OSM    HNF14801   0.923   2.394   2.679
  137OSM    C2S14802   0.985   2.247   2.545
  137OSM    H2S14803   1.043   2.154   2.567
  137OSM    C3S14804   1.088   2.329   2.469
  137OSM    H3S14805   1.032   2.413   2.424
  137OSM     O314806   1.134   2.264   2.345
  137OSM    HO314807   1.086   2.181   2.347
  137OSM    C4S14808   1.198   2.365   2.558
  137OSM    H4S14809   1.251   2.281   2.606
  137OSM    C5S14810   1.242   2.488   2.584
  137OSM    H5S14811   1.179   2.573   2.553
  137OSM    C6S14812   1.332   2.523   2.694
  137OSM    H6S14813   1.339   2.631   2.720
  137OSM    H6T14814   1.429   2.482   2.658
  137OSM    C7S14815   1.297   2.462   2.827
  137OSM    H7S14816   1.300   2.351   2.828
  137OSM    H7T14817   1.197   2.492   2.864
  137OSM    C8S14818   1.397   2.509   2.937
  137OSM    H8S14819   1.491   2.538   2.884
  137OSM    H8T14820   1.412   2.416   2.996
  137OSM    C9S14821   1.340   2.629   3.019
  137OSM    H9S14822   1.246   2.597   3.068
  137OSM    H9T14823   1.309   2.710   2.950
  137OSM   C10S14824   1.441   2.668   3.129
  137OSM   H10S14825   1.535   2.689   3.072
  137OSM   H10T14826   1.467   2.580   3.191
  137OSM   C11S14827   1.406   2.799   3.197
  137OSM   H11S14828   1.297   2.789   3.216
  137OSM   H11T14829   1.431   2.882   3.128
  137OSM   C12S14830   1.471   2.799   3.338
  137OSM   H12S14831   1.488   2.697   3.378
  137OSM   H12T14832   1.403   2.850   3.409
  137OSM   C13S14833   1.597   2.879   3.346
  137OSM   H13S14834   1.573   2.981   3.309
  137OSM   H13T14835   1.664   2.836   3.268
  137OSM   C14S14836   1.675   2.856   3.479
  137OSM   H14S14837   1.778   2.893   3.459
  137OSM   H14T14838   1.689   2.750   3.508
  137OSM   C15S14839   1.606   2.914   3.604
  137OSM   H15S14840   1.507   2.866   3.617
  137OSM   H15T14841   1.592   3.021   3.575
  137OSM   C16S14842   1.687   2.898   3.737
  137OSM   H16S14843   1.666   2.992   3.793
  137OSM   H16T14844   1.797   2.887   3.726
  137OSM   C17S14845   1.614   2.795   3.821
  137OSM   H17S14846   1.646   2.690   3.801
  137OSM   H17T14847   1.505   2.784   3.808
  137OSM   C18S14848   1.627   2.818   3.971
  137OSM   H18S14849   1.574   2.912   3.997
  137OSM   H18T14850   1.733   2.807   4.004
  137OSM   H18U14851   1.579   2.737   4.030
  137OSM    C1F14852   0.854   2.217   2.758
  137OSM     OF14853   0.826   2.103   2.732
  137OSM    C2F14854   0.825   2.270   2.897
  137OSM    H2F14855   0.752   2.209   2.955
  137OSM    H2G14856   0.776   2.369   2.886
  137OSM    C3F14857   0.950   2.292   2.981
  137OSM    H3F14858   1.027   2.343   2.919
  137OSM    H3G14859   0.992   2.192   3.006
  137OSM    C4F14860   0.937   2.368   3.112
  137OSM    H4F14861   0.857   2.310   3.164
  137OSM    H4G14862   0.928   2.475   3.084
  137OSM    C5F14863   1.072   2.344   3.178
  137OSM    H5F14864   1.149   2.372   3.103
  137OSM    H5G14865   1.085   2.236   3.202
  137OSM    C6F14866   1.094   2.422   3.308
  137OSM    H6F14867   1.027   2.381   3.388
  137OSM    H6G14868   1.057   2.526   3.301
  137OSM    C7F14869   1.233   2.390   3.354
  137OSM    H7F14870   1.308   2.425   3.280
  137OSM    H7G14871   1.260   2.282   3.360
  137OSM    C8F14872   1.281   2.465   3.479
  137OSM    H8F14873   1.235   2.564   3.461
  137OSM    H8G14874   1.391   2.481   3.474
  137OSM    C9F14875   1.223   2.407   3.595
  137OSM    H9F14876   1.139   2.337   3.585
  137OSM   C10F14877   1.271   2.422   3.716
  137OSM   H10F14878   1.209   2.380   3.797
  137OSM   C11F14879   1.386   2.510   3.761
  137OSM   H11F14880   1.352   2.590   3.830
  137OSM   H11G14881   1.429   2.568   3.677
  137OSM   C12F14882   1.501   2.430   3.833
  137OSM   H12F14883   1.455   2.377   3.919
  137OSM   H12G14884   1.575   2.500   3.878
  137OSM   C13F14885   1.567   2.338   3.735
  137OSM   H13F14886   1.493   2.286   3.671
  137OSM   H13G14887   1.632   2.261   3.782
  137OSM   C14F14888   1.674   2.413   3.647
  137OSM   H14F14889   1.759   2.426   3.717
  137OSM   H14G14890   1.637   2.513   3.617
  137OSM   C15F14891   1.728   2.343   3.522
  137OSM   H15F14892   1.757   2.239   3.550
  137OSM   H15G14893   1.824   2.391   3.493
  137OSM   C16F14894   1.637   2.346   3.400
  137OSM   H16F14895   1.626   2.456   3.389
  137OSM   H16G14896   1.539   2.302   3.425
  137OSM   C17F14897   1.691   2.272   3.277
  137OSM   H17F14898   1.662   2.166   3.293
  137OSM   H17G14899   1.799   2.296   3.288
  137OSM   C18F14900   1.635   2.333   3.148
  137OSM   H18F14901   1.635   2.444   3.141
  137OSM   H18G14902   1.528   2.304   3.144
  137OSM   H18H14903   1.684   2.290   3.058
  138OSM      N14904   5.862   5.947   2.243
  138OSM    C1514905   5.723   5.912   2.207
  138OSM   H15A14906   5.684   5.975   2.128
  138OSM   H15B14907   5.652   5.931   2.286
  138OSM   H15C14908   5.723   5.809   2.174
  138OSM    C1414909   5.917   5.843   2.340
  138OSM   H14A14910   5.876   5.749   2.307
  138OSM   H14B14911   5.875   5.869   2.435
  138OSM   H14C14912   6.025   5.845   2.330
  138OSM    C1314913   5.949   5.935   2.116
  138OSM   H13A14914   6.054   5.957   2.131
  138OSM   H13B14915   5.927   5.995   2.029
  138OSM   H13C14916   5.947   5.832   2.081
  138OSM    C1214917   5.876   6.090   2.286
  138OSM   H12A14918   5.865   6.161   2.206
  138OSM   H12B14919   5.977   6.112   2.318
  138OSM    C1114920   5.795   6.139   2.414
  138OSM   H11A14921   5.685   6.123   2.402
  138OSM   H11B14922   5.802   6.249   2.423
  138OSM      P14923   5.980   6.116   2.606
  138OSM    O1314924   5.996   6.025   2.725
  138OSM    O1414925   6.084   6.098   2.500
  138OSM    O1114926   5.967   6.267   2.645
  138OSM    O1214927   5.837   6.086   2.539
  138OSM    C1S14928   5.864   6.288   2.746
  138OSM    H1S14929   5.790   6.205   2.755
  138OSM    H1T14930   5.810   6.382   2.719
  138OSM     NF14931   5.805   6.335   2.982
  138OSM    HNF14932   5.770   6.428   2.995
  138OSM    C2S14933   5.921   6.311   2.888
  138OSM    H2S14934   5.977   6.222   2.922
  138OSM    C3S14935   6.031   6.424   2.887
  138OSM    H3S14936   5.994   6.522   2.850
  138OSM     O314937   6.146   6.390   2.813
  138OSM    HO314938   6.112   6.331   2.746
  138OSM    C4S14939   6.066   6.448   3.032
  138OSM    H4S14940   6.014   6.537   3.072
  138OSM    C5S14941   6.146   6.375   3.114
  138OSM    H5S14942   6.203   6.289   3.074
  138OSM    C6S14943   6.174   6.410   3.260
  138OSM    H6S14944   6.276   6.454   3.268
  138OSM    H6T14945   6.179   6.325   3.332
  138OSM    C7S14946   6.078   6.506   3.335
  138OSM    H7S14947   5.974   6.466   3.339
  138OSM    H7T14948   6.066   6.605   3.285
  138OSM    C8S14949   6.115   6.532   3.475
  138OSM    H8S14950   6.064   6.619   3.520
  138OSM    H8T14951   6.225   6.551   3.475
  138OSM    C9S14952   6.082   6.418   3.566
  138OSM    H9S14953   6.137   6.328   3.532
  138OSM    H9T14954   5.977   6.383   3.570
  138OSM   C10S14955   6.123   6.450   3.715
  138OSM   H10S14956   6.061   6.535   3.749
  138OSM   H10T14957   6.221   6.502   3.711
  138OSM   C11S14958   6.123   6.320   3.797
  138OSM   H11S14959   6.204   6.254   3.759
  138OSM   H11T14960   6.023   6.277   3.776
  138OSM   C12S14961   6.146   6.346   3.945
  138OSM   H12S14962   6.077   6.424   3.983
  138OSM   H12T14963   6.248   6.386   3.962
  138OSM   C13S14964   6.129   6.221   4.028
  138OSM   H13S14965   6.179   6.135   3.977
  138OSM   H13T14966   6.023   6.202   4.053
  138OSM   C14S14967   6.195   6.233   4.168
  138OSM   H14S14968   6.141   6.302   4.237
  138OSM   H14T14969   6.301   6.262   4.151
  138OSM   C15S14970   6.206   6.098   4.244
  138OSM   H15S14971   6.102   6.070   4.271
  138OSM   H15T14972   6.250   6.117   4.345
  138OSM   C16S14973   6.267   5.986   4.154
  138OSM   H16S14974   6.193   5.966   4.074
  138OSM   H16T14975   6.273   5.893   4.215
  138OSM   C17S14976   6.409   6.006   4.101
  138OSM   H17S14977   6.401   6.059   4.004
  138OSM   H17T14978   6.464   5.915   4.067
  138OSM   C18S14979   6.502   6.074   4.200
  138OSM   H18S14980   6.605   6.089   4.161
  138OSM   H18T14981   6.496   6.022   4.298
  138OSM   H18U14982   6.464   6.177   4.214
  138OSM    C1F14983   5.726   6.234   3.024
  138OSM     OF14984   5.741   6.122   2.983
  138OSM    C2F14985   5.615   6.265   3.115
  138OSM    H2F14986   5.516   6.258   3.063
  138OSM    H2G14987   5.647   6.361   3.159
  138OSM    C3F14988   5.612   6.176   3.239
  138OSM    H3F14989   5.701   6.111   3.254
  138OSM    H3G14990   5.525   6.108   3.225
  138OSM    C4F14991   5.587   6.255   3.368
  138OSM    H4F14992   5.483   6.294   3.369
  138OSM    H4G14993   5.666   6.334   3.376
  138OSM    C5F14994   5.581   6.167   3.498
  138OSM    H5F14995   5.683   6.130   3.525
  138OSM    H5G14996   5.508   6.084   3.485
  138OSM    C6F14997   5.532   6.250   3.621
  138OSM    H6F14998   5.431   6.288   3.591
  138OSM    H6G14999   5.601   6.335   3.638
  138OSM    C7F15000   5.515   6.162   3.746
  138OSM    H7F15001   5.603   6.100   3.774
  138OSM    H7G15002   5.429   6.096   3.721
  138OSM    C8F15003   5.490   6.244   3.871
  138OSM    H8F15004   5.420   6.328   3.858
  138OSM    H8G15005   5.586   6.299   3.885
  138OSM    C9F15006   5.454   6.151   3.985
  138OSM    H9F15007   5.349   6.149   4.018
  138OSM   C10F15008   5.529   6.065   4.056
  138OSM   H10F15009   5.481   6.009   4.137
  138OSM   C11F15010   5.674   6.040   4.038
  138OSM   H11F15011   5.720   6.079   3.945
  138OSM   H11G15012   5.692   5.931   4.037
  138OSM   C12F15013   5.751   6.098   4.165
  138OSM   H12F15014   5.744   6.209   4.171
  138OSM   H12G15015   5.858   6.079   4.144
  138OSM   C13F15016   5.714   6.037   4.308
  138OSM   H13F15017   5.773   5.944   4.321
  138OSM   H13G15018   5.606   6.009   4.303
  138OSM   C14F15019   5.750   6.118   4.428
  138OSM   H14F15020   5.679   6.203   4.420
  138OSM   H14G15021   5.855   6.154   4.420
  138OSM   C15F15022   5.733   6.036   4.551
  138OSM   H15F15023   5.759   5.928   4.546
  138OSM   H15G15024   5.622   6.040   4.561
  138OSM   C16F15025   5.799   6.087   4.681
  138OSM   H16F15026   5.751   6.182   4.714
  138OSM   H16G15027   5.897   6.125   4.646
  138OSM   C17F15028   5.808   5.982   4.791
  138OSM   H17F15029   5.857   6.023   4.882
  138OSM   H17G15030   5.872   5.901   4.749
  138OSM   C18F15031   5.672   5.917   4.828
  138OSM   H18F15032   5.630   5.852   4.749
  138OSM   H18G15033   5.601   5.997   4.858
  138OSM   H18H15034   5.689   5.844   4.910
  139OSM      N15035   0.963   0.929   1.503
  139OSM    C1515036   0.813   0.905   1.527
  139OSM   H15A15037   0.801   0.798   1.531
  139OSM   H15B15038   0.747   0.928   1.445
  139OSM   H15C15039   0.771   0.949   1.616
  139OSM    C1415040   0.999   0.862   1.377
  139OSM   H14A15041   0.938   0.896   1.294
  139OSM   H14B15042   0.998   0.755   1.368
  139OSM   H14C15043   1.102   0.889   1.356
  139OSM    C1315044   0.998   1.079   1.497
  139OSM   H13A15045   0.970   1.125   1.591
  139OSM   H13B15046   0.935   1.129   1.425
  139OSM   H13C15047   1.099   1.095   1.461
  139OSM    C1215048   1.035   0.857   1.612
  139OSM   H12A15049   1.141   0.871   1.597
  139OSM   H12B15050   1.011   0.752   1.617
  139OSM    C1115051   1.012   0.904   1.759
  139OSM   H11A15052   1.064   0.835   1.829
  139OSM   H11B15053   0.905   0.884   1.782
  139OSM      P15054   1.186   1.102   1.805
  139OSM    O1315055   1.282   1.059   1.705
  139OSM    O1415056   1.168   1.250   1.811
  139OSM    O1115057   1.230   1.048   1.946
  139OSM    O1215058   1.046   1.039   1.783
  139OSM    C1S15059   1.149   1.075   2.061
  139OSM    H1S15060   1.068   1.002   2.078
  139OSM    H1T15061   1.099   1.173   2.049
  139OSM     NF15062   1.129   1.091   2.301
  139OSM    HNF15063   1.118   1.188   2.322
  139OSM    C2S15064   1.226   1.062   2.194
  139OSM    H2S15065   1.278   0.966   2.210
  139OSM    C3S15066   1.332   1.173   2.192
  139OSM    H3S15067   1.284   1.270   2.170
  139OSM     O315068   1.419   1.160   2.084
  139OSM    HO315069   1.360   1.107   2.030
  139OSM    C4S15070   1.413   1.180   2.315
  139OSM    H4S15071   1.450   1.083   2.348
  139OSM    C5S15072   1.427   1.289   2.390
  139OSM    H5S15073   1.374   1.381   2.363
  139OSM    C6S15074   1.500   1.297   2.525
  139OSM    H6S15075   1.570   1.383   2.533
  139OSM    H6T15076   1.559   1.203   2.523
  139OSM    C7S15077   1.420   1.314   2.659
  139OSM    H7S15078   1.458   1.244   2.737
  139OSM    H7T15079   1.315   1.291   2.633
  139OSM    C8S15080   1.402   1.459   2.697
  139OSM    H8S15081   1.377   1.510   2.601
  139OSM    H8T15082   1.496   1.501   2.739
  139OSM    C9S15083   1.282   1.469   2.784
  139OSM    H9S15084   1.191   1.413   2.752
  139OSM    H9T15085   1.252   1.576   2.796
  139OSM   C10S15086   1.314   1.420   2.929
  139OSM   H10S15087   1.401   1.476   2.971
  139OSM   H10T15088   1.338   1.312   2.927
  139OSM   C11S15089   1.197   1.442   3.027
  139OSM   H11S15090   1.109   1.379   3.001
  139OSM   H11T15091   1.174   1.550   3.039
  139OSM   C12S15092   1.229   1.382   3.167
  139OSM   H12S15093   1.304   1.452   3.209
  139OSM   H12T15094   1.268   1.279   3.155
  139OSM   C13S15095   1.118   1.364   3.266
  139OSM   H13S15096   1.156   1.309   3.355
  139OSM   H13T15097   1.037   1.297   3.231
  139OSM   C14S15098   1.069   1.496   3.322
  139OSM   H14S15099   1.036   1.559   3.237
  139OSM   H14T15100   1.156   1.544   3.372
  139OSM   C15S15101   0.941   1.482   3.419
  139OSM   H15S15102   0.911   1.588   3.430
  139OSM   H15T15103   0.967   1.446   3.521
  139OSM   C16S15104   0.827   1.396   3.356
  139OSM   H16S15105   0.850   1.287   3.357
  139OSM   H16T15106   0.814   1.425   3.250
  139OSM   C17S15107   0.695   1.409   3.429
  139OSM   H17S15108   0.676   1.518   3.427
  139OSM   H17T15109   0.708   1.370   3.532
  139OSM   C18S15110   0.571   1.351   3.353
  139OSM   H18S15111   0.578   1.246   3.318
  139OSM   H18T15112   0.553   1.420   3.268
  139OSM   H18U15113   0.478   1.369   3.411
  139OSM    C1F15114   1.041   1.007   2.351
  139OSM     OF15115   1.059   0.887   2.350
  139OSM    C2F15116   0.922   1.062   2.418
  139OSM    H2F15117   0.831   1.002   2.398
  139OSM    H2G15118   0.912   1.168   2.389
  139OSM    C3F15119   0.948   1.063   2.571
  139OSM    H3F15120   1.026   1.141   2.584
  139OSM    H3G15121   0.980   0.960   2.595
  139OSM    C4F15122   0.829   1.104   2.659
  139OSM    H4F15123   0.750   1.027   2.650
  139OSM    H4G15124   0.804   1.202   2.612
  139OSM    C5F15125   0.865   1.118   2.809
  139OSM    H5F15126   0.949   1.190   2.814
  139OSM    H5G15127   0.891   1.018   2.851
  139OSM    C6F15128   0.758   1.161   2.911
  139OSM    H6F15129   0.816   1.187   3.003
  139OSM    H6G15130   0.687   1.080   2.934
  139OSM    C7F15131   0.669   1.273   2.864
  139OSM    H7F15132   0.596   1.233   2.790
  139OSM    H7G15133   0.734   1.347   2.812
  139OSM    C8F15134   0.609   1.340   2.981
  139OSM    H8F15135   0.687   1.396   3.037
  139OSM    H8G15136   0.550   1.268   3.041
  139OSM    C9F15137   0.505   1.437   2.931
  139OSM    H9F15138   0.422   1.385   2.881
  139OSM   C10F15139   0.509   1.569   2.929
  139OSM   H10F15140   0.423   1.625   2.890
  139OSM   C11F15141   0.631   1.642   2.969
  139OSM   H11F15142   0.659   1.720   2.895
  139OSM   H11G15143   0.723   1.579   2.967
  139OSM   C12F15144   0.620   1.723   3.102
  139OSM   H12F15145   0.608   1.648   3.182
  139OSM   H12G15146   0.528   1.784   3.095
  139OSM   C13F15147   0.746   1.809   3.134
  139OSM   H13F15148   0.763   1.869   3.042
  139OSM   H13G15149   0.837   1.746   3.148
  139OSM   C14F15150   0.716   1.911   3.252
  139OSM   H14F15151   0.805   1.969   3.283
  139OSM   H14G15152   0.663   1.855   3.332
  139OSM   C15F15153   0.622   2.024   3.211
  139OSM   H15F15154   0.520   1.987   3.189
  139OSM   H15G15155   0.657   2.078   3.121
  139OSM   C16F15156   0.618   2.131   3.313
  139OSM   H16F15157   0.721   2.167   3.334
  139OSM   H16G15158   0.579   2.094   3.411
  139OSM   C17F15159   0.549   2.255   3.251
  139OSM   H17F15160   0.447   2.236   3.210
  139OSM   H17G15161   0.617   2.281   3.167
  139OSM   C18F15162   0.538   2.381   3.340
  139OSM   H18F15163   0.475   2.352   3.426
  139OSM   H18G15164   0.494   2.472   3.295
  139OSM   H18H15165   0.643   2.403   3.370
  140OSM      N15166   5.178   0.312   2.051
  140OSM    C1515167   5.299   0.303   1.963
  140OSM   H15A15168   5.323   0.199   1.947
  140OSM   H15B15169   5.382   0.351   2.014
  140OSM   H15C15170   5.289   0.338   1.862
  140OSM    C1415171   5.141   0.457   2.065
  140OSM   H14A15172   5.120   0.498   1.967
  140OSM   H14B15173   5.225   0.514   2.102
  140OSM   H14C15174   5.053   0.476   2.125
  140OSM    C1315175   5.063   0.235   1.988
  140OSM   H13A15176   5.093   0.131   1.989
  140OSM   H13B15177   5.044   0.271   1.888
  140OSM   H13C15178   4.972   0.239   2.046
  140OSM    C1215179   5.205   0.261   2.190
  140OSM   H12A15180   5.111   0.260   2.242
  140OSM   H12B15181   5.264   0.339   2.236
  140OSM    C1115182   5.268   0.122   2.205
  140OSM   H11A15183   5.299   0.094   2.308
  140OSM   H11B15184   5.373   0.127   2.170
  140OSM      P15185   5.097   6.727   2.235
  140OSM    O1315186   4.959   6.747   2.183
  140OSM    O1415187   5.157   6.591   2.225
  140OSM    O1115188   5.109   6.790   2.372
  140OSM    O1215189   5.193   0.020   2.149
  140OSM    C1S15190   5.028   6.733   2.479
  140OSM    H1S15191   5.074   6.638   2.513
  140OSM    H1T15192   4.921   6.722   2.452
  140OSM     NF15193   4.983   6.754   2.721
  140OSM    HNF15194   4.886   6.770   2.739
  140OSM    C2S15195   5.033   0.026   2.607
  140OSM    H2S15196   5.143   0.030   2.621
  140OSM    C3S15197   4.962   0.160   2.579
  140OSM    H3S15198   4.852   0.144   2.585
  140OSM     O315199   5.001   0.219   2.459
  140OSM    HO315200   5.064   0.157   2.423
  140OSM    C4S15201   4.994   0.256   2.694
  140OSM    H4S15202   5.093   0.237   2.738
  140OSM    C5S15203   4.919   0.359   2.741
  140OSM    H5S15204   4.832   0.398   2.686
  140OSM    C6S15205   4.962   0.455   2.847
  140OSM    H6S15206   4.870   0.502   2.887
  140OSM    H6T15207   5.025   0.528   2.790
  140OSM    C7S15208   5.041   0.405   2.967
  140OSM    H7S15209   5.133   0.354   2.930
  140OSM    H7T15210   4.991   0.330   3.033
  140OSM    C8S15211   5.079   0.523   3.053
  140OSM    H8S15212   4.993   0.584   3.086
  140OSM    H8T15213   5.137   0.587   2.983
  140OSM    C9S15214   5.172   0.505   3.182
  140OSM    H9S15215   5.164   0.593   3.250
  140OSM    H9T15216   5.274   0.493   3.142
  140OSM   C10S15217   5.144   0.376   3.263
  140OSM   H10S15218   5.148   0.279   3.209
  140OSM   H10T15219   5.037   0.387   3.292
  140OSM   C11S15220   5.230   0.372   3.393
  140OSM   H11S15221   5.225   0.478   3.427
  140OSM   H11T15222   5.337   0.346   3.379
  140OSM   C12S15223   5.175   0.275   3.500
  140OSM   H12S15224   5.175   0.171   3.461
  140OSM   H12T15225   5.070   0.306   3.518
  140OSM   C13S15226   5.247   0.302   3.635
  140OSM   H13S15227   5.185   0.368   3.700
  140OSM   H13T15228   5.340   0.354   3.607
  140OSM   C14S15229   5.278   0.176   3.710
  140OSM   H14S15230   5.367   0.127   3.666
  140OSM   H14T15231   5.187   0.112   3.717
  140OSM   C15S15232   5.325   0.204   3.854
  140OSM   H15S15233   5.271   0.292   3.894
  140OSM   H15T15234   5.435   0.219   3.847
  140OSM   C16S15235   5.305   0.078   3.945
  140OSM   H16S15236   5.358   6.797   3.891
  140OSM   H16T15237   5.196   0.057   3.957
  140OSM   C17S15238   5.367   0.090   4.086
  140OSM   H17S15239   5.326   0.166   4.156
  140OSM   H17T15240   5.469   0.126   4.061
  140OSM   C18S15241   5.380   6.746   4.145
  140OSM   H18S15242   5.422   6.746   4.249
  140OSM   H18T15243   5.428   6.676   4.074
  140OSM   H18U15244   5.280   6.704   4.168
  140OSM    C1F15245   5.029   6.642   2.764
  140OSM     OF15246   5.150   6.612   2.768
  140OSM    C2F15247   4.921   6.540   2.807
  140OSM    H2F15248   4.892   6.482   2.717
  140OSM    H2G15249   4.830   6.598   2.834
  140OSM    C3F15250   4.973   6.455   2.930
  140OSM    H3F15251   5.060   6.393   2.901
  140OSM    H3G15252   4.894   6.379   2.948
  140OSM    C4F15253   4.992   6.540   3.059
  140OSM    H4F15254   4.893   6.559   3.104
  140OSM    H4G15255   5.031   6.641   3.035
  140OSM    C5F15256   5.084   6.465   3.166
  140OSM    H5F15257   5.188   6.457   3.129
  140OSM    H5G15258   5.057   6.358   3.175
  140OSM    C6F15259   5.060   6.534   3.298
  140OSM    H6F15260   4.953   6.552   3.320
  140OSM    H6G15261   5.097   6.638   3.283
  140OSM    C7F15262   5.132   6.462   3.414
  140OSM    H7F15263   5.239   6.466   3.383
  140OSM    H7G15264   5.102   6.355   3.423
  140OSM    C8F15265   5.110   6.534   3.555
  140OSM    H8F15266   5.013   6.491   3.589
  140OSM    H8G15267   5.089   6.640   3.530
  140OSM    C9F15268   5.226   6.539   3.651
  140OSM    H9F15269   5.326   6.514   3.611
  140OSM   C10F15270   5.217   6.574   3.779
  140OSM   H10F15271   5.297   6.553   3.851
  140OSM   C11F15272   5.093   6.584   3.862
  140OSM   H11F15273   5.003   6.589   3.797
  140OSM   H11G15274   5.094   6.685   3.910
  140OSM   C12F15275   5.050   6.484   3.974
  140OSM   H12F15276   5.117   6.490   4.063
  140OSM   H12G15277   5.059   6.390   3.916
  140OSM   C13F15278   4.892   6.498   4.009
  140OSM   H13F15279   4.830   6.485   3.918
  140OSM   H13G15280   4.886   6.600   4.052
  140OSM   C14F15281   4.842   6.398   4.108
  140OSM   H14F15282   4.928   6.393   4.178
  140OSM   H14G15283   4.831   6.294   4.069
  140OSM   C15F15284   4.722   6.444   4.188
  140OSM   H15F15285   4.627   6.439   4.130
  140OSM   H15G15286   4.743   6.552   4.203
  140OSM   C16F15287   4.725   6.375   4.320
  140OSM   H16F15288   4.829   6.379   4.358
  140OSM   H16G15289   4.703   6.268   4.297
  140OSM   C17F15290   4.628   6.441   4.424
  140OSM   H17F15291   4.633   6.392   4.524
  140OSM   H17G15292   4.525   6.441   4.383
  140OSM   C18F15293   4.653   6.587   4.464
  140OSM   H18F15294   4.654   6.635   4.364
  140OSM   H18G15295   4.749   6.591   4.519
  140OSM   H18H15296   4.570   6.637   4.519
  141OSM      N15297   0.958   4.088   2.079
  141OSM    C1515298   0.891   3.976   2.007
  141OSM   H15A15299   0.951   3.933   1.928
  141OSM   H15B15300   0.794   4.009   1.974
  141OSM   H15C15301   0.872   3.900   2.083
  141OSM    C1415302   1.100   4.059   2.115
  141OSM   H14A15303   1.151   4.152   2.138
  141OSM   H14B15304   1.143   4.012   2.028
  141OSM   H14C15305   1.108   3.996   2.202
  141OSM    C1315306   0.972   4.202   1.981
  141OSM   H13A15307   1.035   4.171   1.899
  141OSM   H13B15308   1.006   4.293   2.027
  141OSM   H13C15309   0.875   4.221   1.936
  141OSM    C1215310   0.870   4.130   2.197
  141OSM   H12A15311   0.857   4.044   2.260
  141OSM   H12B15312   0.776   4.155   2.149
  141OSM    C1115313   0.925   4.232   2.295
  141OSM   H11A15314   0.945   4.327   2.241
  141OSM   H11B15315   1.017   4.181   2.332
  141OSM      P15316   0.854   4.336   2.517
  141OSM    O1315317   0.948   4.445   2.486
  141OSM    O1415318   0.727   4.382   2.569
  141OSM    O1115319   0.935   4.244   2.610
  141OSM    O1215320   0.820   4.254   2.389
  141OSM    C1S15321   0.880   4.127   2.666
  141OSM    H1S15322   0.929   4.039   2.621
  141OSM    H1T15323   0.769   4.127   2.666
  141OSM     NF15324   0.932   3.971   2.858
  141OSM    HNF15325   0.855   3.933   2.910
  141OSM    C2S15326   0.925   4.111   2.821
  141OSM    H2S15327   1.027   4.153   2.826
  141OSM    C3S15328   0.843   4.209   2.911
  141OSM    H3S15329   0.735   4.186   2.899
  141OSM     O315330   0.848   4.353   2.874
  141OSM    HO315331   0.878   4.346   2.783
  141OSM    C4S15332   0.884   4.185   3.057
  141OSM    H4S15333   0.850   4.088   3.096
  141OSM    C5S15334   0.957   4.268   3.139
  141OSM    H5S15335   1.003   4.360   3.101
  141OSM    C6S15336   0.980   4.242   3.284
  141OSM    H6S15337   1.074   4.293   3.313
  141OSM    H6T15338   0.993   4.132   3.301
  141OSM    C7S15339   0.864   4.284   3.380
  141OSM    H7S15340   0.770   4.233   3.350
  141OSM    H7T15341   0.846   4.393   3.370
  141OSM    C8S15342   0.903   4.236   3.521
  141OSM    H8S15343   0.981   4.302   3.563
  141OSM    H8T15344   0.946   4.134   3.512
  141OSM    C9S15345   0.781   4.231   3.618
  141OSM    H9S15346   0.696   4.173   3.575
  141OSM    H9T15347   0.753   4.339   3.624
  141OSM   C10S15348   0.817   4.166   3.754
  141OSM   H10S15349   0.879   4.231   3.820
  141OSM   H10T15350   0.887   4.081   3.740
  141OSM   C11S15351   0.694   4.104   3.821
  141OSM   H11S15352   0.736   4.053   3.911
  141OSM   H11T15353   0.645   4.027   3.757
  141OSM   C12S15354   0.584   4.197   3.862
  141OSM   H12S15355   0.516   4.198   3.774
  141OSM   H12T15356   0.625   4.298   3.880
  141OSM   C13S15357   0.512   4.142   3.987
  141OSM   H13S15358   0.577   4.149   4.077
  141OSM   H13T15359   0.494   4.034   3.969
  141OSM   C14S15360   0.372   4.199   4.004
  141OSM   H14S15361   0.309   4.167   3.918
  141OSM   H14T15362   0.386   4.309   4.004
  141OSM   C15S15363   0.300   4.159   4.138
  141OSM   H15S15364   0.380   4.174   4.215
  141OSM   H15T15365   0.278   4.051   4.127
  141OSM   C16S15366   0.175   4.234   4.170
  141OSM   H16S15367   0.124   4.249   4.072
  141OSM   H16T15368   0.195   4.338   4.203
  141OSM   C17S15369   0.085   4.168   4.281
  141OSM   H17S15370   6.799   4.231   4.310
  141OSM   H17T15371   0.148   4.167   4.372
  141OSM   C18S15372   0.037   4.031   4.236
  141OSM   H18S15373   0.019   4.024   4.126
  141OSM   H18T15374   6.746   4.010   4.295
  141OSM   H18U15375   0.108   3.954   4.271
  141OSM    C1F15376   1.027   3.889   2.814
  141OSM     OF15377   1.130   3.937   2.759
  141OSM    C2F15378   1.012   3.734   2.820
  141OSM    H2F15379   0.980   3.693   2.721
  141OSM    H2G15380   0.935   3.710   2.896
  141OSM    C3F15381   1.140   3.661   2.866
  141OSM    H3F15382   1.210   3.662   2.780
  141OSM    H3G15383   1.120   3.552   2.876
  141OSM    C4F15384   1.204   3.708   3.001
  141OSM    H4F15385   1.246   3.808   2.980
  141OSM    H4G15386   1.289   3.644   3.033
  141OSM    C5F15387   1.108   3.722   3.126
  141OSM    H5F15388   1.044   3.636   3.154
  141OSM    H5G15389   1.039   3.805   3.102
  141OSM    C6F15390   1.195   3.777   3.245
  141OSM    H6F15391   1.267   3.846   3.197
  141OSM    H6G15392   1.256   3.691   3.281
  141OSM    C7F15393   1.104   3.842   3.342
  141OSM    H7F15394   1.025   3.771   3.373
  141OSM    H7G15395   1.049   3.926   3.295
  141OSM    C8F15396   1.172   3.928   3.453
  141OSM    H8F15397   1.091   3.993   3.494
  141OSM    H8G15398   1.242   4.000   3.404
  141OSM    C9F15399   1.251   3.834   3.541
  141OSM    H9F15400   1.332   3.782   3.488
  141OSM   C10F15401   1.240   3.802   3.671
  141OSM   H10F15402   1.313   3.735   3.720
  141OSM   C11F15403   1.148   3.866   3.776
  141OSM   H11F15404   1.095   3.792   3.839
  141OSM   H11G15405   1.064   3.902   3.713
  141OSM   C12F15406   1.220   3.969   3.871
  141OSM   H12F15407   1.264   4.040   3.799
  141OSM   H12G15408   1.297   3.918   3.933
  141OSM   C13F15409   1.127   4.063   3.948
  141OSM   H13F15410   1.065   4.130   3.885
  141OSM   H13G15411   1.187   4.129   4.015
  141OSM   C14F15412   1.030   3.987   4.040
  141OSM   H14F15413   1.084   3.911   4.099
  141OSM   H14G15414   0.952   3.926   3.988
  141OSM   C15F15415   0.958   4.082   4.141
  141OSM   H15F15416   0.896   4.149   4.078
  141OSM   H15G15417   1.025   4.150   4.197
  141OSM   C16F15418   0.864   4.012   4.247
  141OSM   H16F15419   0.931   3.954   4.314
  141OSM   H16G15420   0.806   3.931   4.199
  141OSM   C17F15421   0.779   4.122   4.314
  141OSM   H17F15422   0.735   4.194   4.242
  141OSM   H17G15423   0.859   4.182   4.361
  141OSM   C18F15424   0.671   4.080   4.417
  141OSM   H18F15425   0.575   4.051   4.370
  141OSM   H18G15426   0.642   4.168   4.478
  141OSM   H18H15427   0.698   3.991   4.478
  142OSM      N15428   2.085   5.285   1.983
  142OSM    C1515429   2.087   5.432   1.987
  142OSM   H15A15430   2.055   5.478   1.894
  142OSM   H15B15431   2.193   5.447   2.002
  142OSM   H15C15432   2.035   5.458   2.077
  142OSM    C1415433   1.970   5.246   1.902
  142OSM   H14A15434   1.879   5.283   1.946
  142OSM   H14B15435   1.968   5.138   1.898
  142OSM   H14C15436   1.985   5.274   1.799
  142OSM    C1315437   2.211   5.224   1.929
  142OSM   H13A15438   2.295   5.270   1.980
  142OSM   H13B15439   2.220   5.253   1.825
  142OSM   H13C15440   2.220   5.118   1.946
  142OSM    C1215441   2.057   5.235   2.121
  142OSM   H12A15442   2.144   5.248   2.183
  142OSM   H12B15443   2.044   5.127   2.120
  142OSM    C1115444   1.925   5.285   2.197
  142OSM   H11A15445   1.927   5.247   2.301
  142OSM   H11B15446   1.838   5.242   2.144
  142OSM      P15447   1.802   5.494   2.290
  142OSM    O1315448   1.837   5.632   2.314
  142OSM    O1415449   1.664   5.463   2.244
  142OSM    O1115450   1.820   5.412   2.427
  142OSM    O1215451   1.914   5.429   2.206
  142OSM    C1S15452   1.913   5.448   2.523
  142OSM    H1S15453   1.999   5.502   2.479
  142OSM    H1T15454   1.957   5.361   2.576
  142OSM     NF15455   1.957   5.571   2.738
  142OSM    HNF15456   1.957   5.521   2.824
  142OSM    C2S15457   1.854   5.533   2.639
  142OSM    H2S15458   1.820   5.625   2.587
  142OSM    C3S15459   1.726   5.452   2.691
  142OSM    H3S15460   1.771   5.358   2.729
  142OSM     O315461   1.628   5.411   2.591
  142OSM    HO315462   1.683   5.394   2.515
  142OSM    C4S15463   1.666   5.504   2.823
  142OSM    H4S15464   1.715   5.447   2.902
  142OSM    C5S15465   1.566   5.581   2.840
  142OSM    H5S15466   1.501   5.613   2.757
  142OSM    C6S15467   1.505   5.613   2.973
  142OSM    H6S15468   1.400   5.577   2.972
  142OSM    H6T15469   1.491   5.723   2.982
  142OSM    C7S15470   1.574   5.563   3.095
  142OSM    H7S15471   1.683   5.584   3.098
  142OSM    H7T15472   1.562   5.453   3.102
  142OSM    C8S15473   1.500   5.595   3.227
  142OSM    H8S15474   1.391   5.594   3.211
  142OSM    H8T15475   1.519   5.702   3.253
  142OSM    C9S15476   1.542   5.501   3.343
  142OSM    H9S15477   1.648   5.474   3.326
  142OSM    H9T15478   1.480   5.409   3.345
  142OSM   C10S15479   1.533   5.566   3.482
  142OSM   H10S15480   1.428   5.570   3.516
  142OSM   H10T15481   1.586   5.663   3.488
  142OSM   C11S15482   1.598   5.480   3.595
  142OSM   H11S15483   1.708   5.485   3.579
  142OSM   H11T15484   1.563   5.380   3.561
  142OSM   C12S15485   1.560   5.524   3.735
  142OSM   H12S15486   1.451   5.543   3.734
  142OSM   H12T15487   1.613   5.618   3.761
  142OSM   C13S15488   1.585   5.415   3.835
  142OSM   H13S15489   1.695   5.403   3.850
  142OSM   H13T15490   1.539   5.318   3.805
  142OSM   C14S15491   1.510   5.453   3.969
  142OSM   H14S15492   1.404   5.474   3.941
  142OSM   H14T15493   1.548   5.556   3.988
  142OSM   C15S15494   1.529   5.354   4.083
  142OSM   H15S15495   1.636   5.343   4.112
  142OSM   H15T15496   1.507   5.250   4.050
  142OSM   C16S15497   1.442   5.388   4.201
  142OSM   H16S15498   1.437   5.300   4.269
  142OSM   H16T15499   1.337   5.407   4.172
  142OSM   C17S15500   1.492   5.507   4.283
  142OSM   H17S15501   1.471   5.609   4.242
  142OSM   H17T15502   1.599   5.480   4.288
  142OSM   C18S15503   1.455   5.495   4.431
  142OSM   H18S15504   1.507   5.569   4.496
  142OSM   H18T15505   1.494   5.395   4.458
  142OSM   H18U15506   1.344   5.490   4.437
  142OSM    C1F15507   2.063   5.650   2.702
  142OSM     OF15508   2.049   5.736   2.620
  142OSM    C2F15509   2.191   5.639   2.778
  142OSM    H2F15510   2.273   5.654   2.704
  142OSM    H2G15511   2.199   5.537   2.821
  142OSM    C3F15512   2.199   5.755   2.888
  142OSM    H3F15513   2.206   5.850   2.832
  142OSM    H3G15514   2.296   5.742   2.942
  142OSM    C4F15515   2.087   5.753   2.999
  142OSM    H4F15516   2.083   5.652   3.046
  142OSM    H4G15517   1.992   5.780   2.949
  142OSM    C5F15518   2.122   5.854   3.103
  142OSM    H5F15519   2.123   5.960   3.069
  142OSM    H5G15520   2.216   5.838   3.161
  142OSM    C6F15521   2.026   5.851   3.228
  142OSM    H6F15522   1.922   5.837   3.191
  142OSM    H6G15523   2.028   5.947   3.283
  142OSM    C7F15524   2.048   5.731   3.325
  142OSM    H7F15525   2.148   5.753   3.369
  142OSM    H7G15526   2.033   5.637   3.267
  142OSM    C8F15527   1.944   5.724   3.440
  142OSM    H8F15528   1.950   5.631   3.501
  142OSM    H8G15529   1.845   5.705   3.393
  142OSM    C9F15530   1.935   5.839   3.535
  142OSM    H9F15531   1.870   5.923   3.504
  142OSM   C10F15532   1.990   5.848   3.654
  142OSM   H10F15533   1.964   5.943   3.704
  142OSM   C11F15534   2.097   5.752   3.711
  142OSM   H11F15535   2.200   5.773   3.674
  142OSM   H11G15536   2.080   5.643   3.702
  142OSM   C12F15537   2.093   5.764   3.868
  142OSM   H12F15538   2.115   5.870   3.893
  142OSM   H12G15539   2.176   5.693   3.893
  142OSM   C13F15540   1.953   5.718   3.934
  142OSM   H13F15541   1.938   5.608   3.929
  142OSM   H13G15542   1.869   5.774   3.889
  142OSM   C14F15543   1.955   5.772   4.081
  142OSM   H14F15544   1.947   5.883   4.075
  142OSM   H14G15545   2.047   5.738   4.132
  142OSM   C15F15546   1.851   5.712   4.171
  142OSM   H15F15547   1.855   5.602   4.153
  142OSM   H15G15548   1.751   5.746   4.136
  142OSM   C16F15549   1.885   5.754   4.319
  142OSM   H16F15550   1.912   5.860   4.334
  142OSM   H16G15551   1.971   5.688   4.344
  142OSM   C17F15552   1.774   5.704   4.414
  142OSM   H17F15553   1.744   5.603   4.379
  142OSM   H17G15554   1.679   5.759   4.395
  142OSM   C18F15555   1.807   5.705   4.563
  142OSM   H18F15556   1.894   5.640   4.587
  142OSM   H18G15557   1.709   5.685   4.611
  142OSM   H18H15558   1.848   5.804   4.595
  143OSM      N15559   1.400   4.226   2.514
  143OSM    C1515560   1.425   4.151   2.642
  143OSM   H15A15561   1.386   4.051   2.652
  143OSM   H15B15562   1.384   4.209   2.723
  143OSM   H15C15563   1.531   4.146   2.659
  143OSM    C1415564   1.419   4.122   2.414
  143OSM   H14A15565   1.362   4.032   2.432
  143OSM   H14B15566   1.522   4.089   2.415
  143OSM   H14C15567   1.392   4.155   2.315
  143OSM    C1315568   1.259   4.267   2.522
  143OSM   H13A15569   1.257   4.316   2.618
  143OSM   H13B15570   1.197   4.182   2.544
  143OSM   H13C15571   1.214   4.321   2.439
  143OSM    C1215572   1.500   4.341   2.500
  143OSM   H12A15573   1.474   4.393   2.409
  143OSM   H12B15574   1.594   4.294   2.474
  143OSM    C1115575   1.507   4.444   2.616
  143OSM   H11A15576   1.602   4.500   2.620
  143OSM   H11B15577   1.519   4.378   2.705
  143OSM      P15578   1.364   4.655   2.560
  143OSM    O1315579   1.437   4.654   2.430
  143OSM    O1415580   1.221   4.677   2.544
  143OSM    O1115581   1.427   4.763   2.657
  143OSM    O1215582   1.389   4.522   2.638
  143OSM    C1S15583   1.359   4.797   2.778
  143OSM    H1S15584   1.261   4.745   2.788
  143OSM    H1T15585   1.331   4.905   2.781
  143OSM     NF15586   1.357   4.788   3.018
  143OSM    HNF15587   1.374   4.878   3.059
  143OSM    C2S15588   1.437   4.764   2.908
  143OSM    H2S15589   1.458   4.656   2.919
  143OSM    C3S15590   1.574   4.830   2.895
  143OSM    H3S15591   1.572   4.941   2.898
  143OSM     O315592   1.652   4.791   2.780
  143OSM    HO315593   1.586   4.743   2.728
  143OSM    C4S15594   1.650   4.794   3.020
  143OSM    H4S15595   1.629   4.864   3.102
  143OSM    C5S15596   1.749   4.700   3.036
  143OSM    H5S15597   1.770   4.638   2.948
  143OSM    C6S15598   1.836   4.664   3.159
  143OSM    H6S15599   1.940   4.679   3.124
  143OSM    H6T15600   1.827   4.555   3.179
  143OSM    C7S15601   1.805   4.734   3.290
  143OSM    H7S15602   1.694   4.729   3.296
  143OSM    H7T15603   1.805   4.843   3.270
  143OSM    C8S15604   1.875   4.683   3.420
  143OSM    H8S15605   1.979   4.718   3.401
  143OSM    H8T15606   1.870   4.572   3.425
  143OSM    C9S15607   1.822   4.745   3.543
  143OSM    H9S15608   1.715   4.714   3.554
  143OSM    H9T15609   1.810   4.855   3.534
  143OSM   C10S15610   1.912   4.722   3.669
  143OSM   H10S15611   1.994   4.796   3.676
  143OSM   H10T15612   1.949   4.617   3.665
  143OSM   C11S15613   1.833   4.736   3.804
  143OSM   H11S15614   1.765   4.649   3.815
  143OSM   H11T15615   1.769   4.826   3.799
  143OSM   C12S15616   1.903   4.738   3.933
  143OSM   H12S15617   1.988   4.809   3.921
  143OSM   H12T15618   1.958   4.642   3.945
  143OSM   C13S15619   1.806   4.752   4.044
  143OSM   H13S15620   1.729   4.672   4.034
  143OSM   H13T15621   1.749   4.848   4.051
  143OSM   C14S15622   1.882   4.722   4.173
  143OSM   H14S15623   1.961   4.800   4.176
  143OSM   H14T15624   1.941   4.629   4.162
  143OSM   C15S15625   1.790   4.725   4.294
  143OSM   H15S15626   1.841   4.672   4.377
  143OSM   H15T15627   1.700   4.667   4.265
  143OSM   C16S15628   1.738   4.862   4.334
  143OSM   H16S15629   1.687   4.917   4.252
  143OSM   H16T15630   1.831   4.917   4.359
  143OSM   C17S15631   1.637   4.859   4.454
  143OSM   H17S15632   1.678   4.799   4.539
  143OSM   H17T15633   1.554   4.791   4.428
  143OSM   C18S15634   1.593   4.996   4.500
  143OSM   H18S15635   1.511   4.984   4.573
  143OSM   H18T15636   1.547   5.065   4.425
  143OSM   H18U15637   1.684   5.042   4.546
  143OSM    C1F15638   1.254   4.703   3.054
  143OSM     OF15639   1.222   4.612   2.984
  143OSM    C2F15640   1.178   4.731   3.179
  143OSM    H2F15641   1.148   4.838   3.177
  143OSM    H2G15642   1.249   4.717   3.263
  143OSM    C3F15643   1.048   4.646   3.203
  143OSM    H3F15644   1.075   4.538   3.197
  143OSM    H3G15645   0.992   4.647   3.107
  143OSM    C4F15646   0.970   4.678   3.334
  143OSM    H4F15647   0.869   4.637   3.317
  143OSM    H4G15648   0.957   4.789   3.339
  143OSM    C5F15649   1.031   4.617   3.465
  143OSM    H5F15650   1.130   4.667   3.474
  143OSM    H5G15651   1.063   4.510   3.457
  143OSM    C6F15652   0.938   4.612   3.585
  143OSM    H6F15653   0.848   4.558   3.547
  143OSM    H6G15654   0.897   4.713   3.606
  143OSM    C7F15655   0.994   4.543   3.711
  143OSM    H7F15656   1.083   4.599   3.748
  143OSM    H7G15657   1.028   4.443   3.678
  143OSM    C8F15658   0.888   4.543   3.820
  143OSM    H8F15659   0.804   4.473   3.801
  143OSM    H8G15660   0.840   4.643   3.820
  143OSM    C9F15661   0.954   4.506   3.948
  143OSM    H9F15662   1.042   4.443   3.928
  143OSM   C10F15663   0.932   4.551   4.072
  143OSM   H10F15664   0.994   4.509   4.153
  143OSM   C11F15665   0.823   4.654   4.104
  143OSM   H11F15666   0.761   4.688   4.018
  143OSM   H11G15667   0.873   4.744   4.146
  143OSM   C12F15668   0.721   4.594   4.198
  143OSM   H12F15669   0.770   4.565   4.294
  143OSM   H12G15670   0.683   4.501   4.152
  143OSM   C13F15671   0.607   4.687   4.212
  143OSM   H13F15672   0.575   4.725   4.113
  143OSM   H13G15673   0.644   4.770   4.276
  143OSM   C14F15674   0.485   4.623   4.271
  143OSM   H14F15675   0.504   4.521   4.312
  143OSM   H14G15676   0.399   4.612   4.202
  143OSM   C15F15677   0.429   4.704   4.385
  143OSM   H15F15678   0.405   4.809   4.360
  143OSM   H15G15679   0.490   4.714   4.477
  143OSM   C16F15680   0.295   4.654   4.453
  143OSM   H16F15681   0.317   4.557   4.503
  143OSM   H16G15682   0.213   4.635   4.380
  143OSM   C17F15683   0.247   4.761   4.549
  143OSM   H17F15684   0.214   4.848   4.487
  143OSM   H17G15685   0.337   4.801   4.599
  143OSM   C18F15686   0.144   4.712   4.651
  143OSM   H18F15687   0.200   4.633   4.705
  143OSM   H18G15688   0.059   4.660   4.603
  143OSM   H18H15689   0.112   4.796   4.718
  144OSM      N15690   0.917   5.537   2.005
  144OSM    C1515691   0.820   5.573   2.114
  144OSM   H15A15692   0.797   5.678   2.105
  144OSM   H15B15693   0.865   5.565   2.211
  144OSM   H15C15694   0.733   5.510   2.125
  144OSM    C1415695   0.850   5.540   1.867
  144OSM   H14A15696   0.915   5.556   1.783
  144OSM   H14B15697   0.771   5.613   1.856
  144OSM   H14C15698   0.803   5.445   1.847
  144OSM    C1315699   1.016   5.646   2.010
  144OSM   H13A15700   1.080   5.659   2.095
  144OSM   H13B15701   0.966   5.740   1.996
  144OSM   H13C15702   1.090   5.632   1.932
  144OSM    C1215703   0.990   5.405   2.028
  144OSM   H12A15704   1.054   5.391   1.942
  144OSM   H12B15705   0.914   5.328   2.025
  144OSM    C1115706   1.069   5.387   2.155
  144OSM   H11A15707   1.133   5.476   2.171
  144OSM   H11B15708   1.137   5.300   2.144
  144OSM      P15709   0.966   5.256   2.369
  144OSM    O1315710   0.841   5.189   2.331
  144OSM    O1415711   1.087   5.176   2.359
  144OSM    O1115712   0.953   5.325   2.511
  144OSM    O1215713   0.989   5.385   2.279
  144OSM    C1S15714   0.941   5.471   2.516
  144OSM    H1S15715   0.849   5.503   2.463
  144OSM    H1T15716   1.022   5.522   2.461
  144OSM     NF15717   0.942   5.671   2.656
  144OSM    HNF15718   1.019   5.732   2.673
  144OSM    C2S15719   0.948   5.528   2.662
  144OSM    H2S15720   0.862   5.497   2.725
  144OSM    C3S15721   1.077   5.479   2.732
  144OSM    H3S15722   1.159   5.512   2.665
  144OSM     O315723   1.087   5.335   2.736
  144OSM    HO315724   1.051   5.316   2.649
  144OSM    C4S15725   1.081   5.543   2.878
  144OSM    H4S15726   1.124   5.644   2.885
  144OSM    C5S15727   1.051   5.491   2.997
  144OSM    H5S15728   1.029   5.383   3.008
  144OSM    C6S15729   1.081   5.564   3.124
  144OSM    H6S15730   1.044   5.669   3.117
  144OSM    H6T15731   1.190   5.582   3.126
  144OSM    C7S15732   1.043   5.493   3.252
  144OSM    H7S15733   1.099   5.397   3.255
  144OSM    H7T15734   0.937   5.465   3.273
  144OSM    C8S15735   1.088   5.575   3.377
  144OSM    H8S15736   1.033   5.671   3.383
  144OSM    H8T15737   1.197   5.598   3.372
  144OSM    C9S15738   1.066   5.502   3.507
  144OSM    H9S15739   1.105   5.398   3.500
  144OSM    H9T15740   0.956   5.491   3.522
  144OSM   C10S15741   1.128   5.572   3.631
  144OSM   H10S15742   1.105   5.680   3.642
  144OSM   H10T15743   1.234   5.539   3.634
  144OSM   C11S15744   1.061   5.517   3.761
  144OSM   H11S15745   1.091   5.410   3.769
  144OSM   H11T15746   0.950   5.515   3.757
  144OSM   C12S15747   1.109   5.585   3.895
  144OSM   H12S15748   1.055   5.682   3.895
  144OSM   H12T15749   1.219   5.600   3.893
  144OSM   C13S15750   1.076   5.508   4.013
  144OSM   H13S15751   1.144   5.420   4.009
  144OSM   H13T15752   0.973   5.467   4.011
  144OSM   C14S15753   1.116   5.589   4.135
  144OSM   H14S15754   1.081   5.695   4.129
  144OSM   H14T15755   1.226   5.585   4.146
  144OSM   C15S15756   1.055   5.521   4.257
  144OSM   H15S15757   1.120   5.437   4.292
  144OSM   H15T15758   0.954   5.480   4.233
  144OSM   C16S15759   1.027   5.617   4.373
  144OSM   H16S15760   0.965   5.702   4.339
  144OSM   H16T15761   1.118   5.658   4.423
  144OSM   C17S15762   0.961   5.545   4.493
  144OSM   H17S15763   1.029   5.461   4.519
  144OSM   H17T15764   0.861   5.508   4.461
  144OSM   C18S15765   0.933   5.635   4.613
  144OSM   H18S15766   0.875   5.580   4.690
  144OSM   H18T15767   0.883   5.727   4.576
  144OSM   H18U15768   1.032   5.662   4.656
  144OSM    C1F15769   0.827   5.734   2.621
  144OSM     OF15770   0.718   5.682   2.619
  144OSM    C2F15771   0.828   5.878   2.589
  144OSM    H2F15772   0.787   5.895   2.487
  144OSM    H2G15773   0.934   5.911   2.583
  144OSM    C3F15774   0.756   5.969   2.689
  144OSM    H3F15775   0.649   5.939   2.692
  144OSM    H3G15776   0.762   6.071   2.645
  144OSM    C4F15777   0.820   5.969   2.829
  144OSM    H4F15778   0.931   5.973   2.818
  144OSM    H4G15779   0.811   5.874   2.885
  144OSM    C5F15780   0.763   6.070   2.925
  144OSM    H5F15781   0.655   6.047   2.936
  144OSM    H5G15782   0.782   6.177   2.901
  144OSM    C6F15783   0.820   6.045   3.070
  144OSM    H6F15784   0.928   6.023   3.056
  144OSM    H6G15785   0.765   5.960   3.116
  144OSM    C7F15786   0.796   6.162   3.166
  144OSM    H7F15787   0.856   6.251   3.140
  144OSM    H7G15788   0.827   6.126   3.266
  144OSM    C8F15789   0.650   6.212   3.170
  144OSM    H8F15790   0.640   6.251   3.067
  144OSM    H8G15791   0.653   6.294   3.245
  144OSM    C9F15792   0.546   6.107   3.195
  144OSM    H9F15793   0.499   6.059   3.108
  144OSM   C10F15794   0.506   6.065   3.321
  144OSM   H10F15795   0.430   5.987   3.318
  144OSM   C11F15796   0.557   6.121   3.454
  144OSM   H11F15797   0.493   6.206   3.487
  144OSM   H11G15798   0.664   6.150   3.450
  144OSM   C12F15799   0.548   6.010   3.566
  144OSM   H12F15800   0.441   5.986   3.586
  144OSM   H12G15801   0.583   6.068   3.654
  144OSM   C13F15802   0.624   5.886   3.535
  144OSM   H13F15803   0.732   5.886   3.508
  144OSM   H13G15804   0.579   5.851   3.440
  144OSM   C14F15805   0.620   5.782   3.649
  144OSM   H14F15806   0.659   5.688   3.605
  144OSM   H14G15807   0.516   5.754   3.677
  144OSM   C15F15808   0.715   5.825   3.770
  144OSM   H15F15809   0.677   5.909   3.833
  144OSM   H15G15810   0.812   5.848   3.721
  144OSM   C16F15811   0.749   5.710   3.866
  144OSM   H16F15812   0.826   5.737   3.942
  144OSM   H16G15813   0.778   5.622   3.806
  144OSM   C17F15814   0.624   5.667   3.944
  144OSM   H17F15815   0.559   5.611   3.874
  144OSM   H17G15816   0.574   5.759   3.981
  144OSM   C18F15817   0.654   5.583   4.064
  144OSM   H18F15818   0.556   5.556   4.110
  144OSM   H18G15819   0.726   5.636   4.129
  144OSM   H18H15820   0.704   5.487   4.037
  145SAPE     N15821   1.378   0.787   6.712
  145SAPE   HN115822   1.352   0.888   6.702
  145SAPE   HN215823   1.361   0.753   6.809
  145SAPE   HN315824   1.478   0.795   6.686
  145SAPE   C1215825   1.291   0.701   6.619
  145SAPE  H12A15826   1.322   0.594   6.621
  145SAPE  H12B15827   1.306   0.736   6.515
  145SAPE   C1115828   1.138   0.704   6.644
  145SAPE  H11A15829   1.116   0.657   6.742
  145SAPE  H11B15830   1.086   0.643   6.567
  145SAPE     P15831   0.957   0.873   6.547
  145SAPE   O1315832   0.841   0.775   6.575
  145SAPE   O1415833   0.932   1.021   6.551
  145SAPE   O1215834   1.085   0.836   6.632
  145SAPE   O1115835   1.008   0.840   6.406
  145SAPE    C115836   1.109   0.910   6.339
  145SAPE    HA15837   1.138   1.004   6.391
  145SAPE    HB15838   1.205   0.854   6.331
  145SAPE    C215839   1.060   0.949   6.197
  145SAPE    HS15840   0.961   0.998   6.204
  145SAPE   O2115841   1.055   0.830   6.112
  145SAPE   C2115842   0.953   0.830   6.025
  145SAPE   O2215843   0.863   0.912   6.026
  145SAPE   C2215844   0.977   0.717   5.923
  145SAPE   H2R15845   1.042   0.637   5.966
  145SAPE   H2S15846   0.877   0.671   5.909
  145SAPE    C315847   1.164   1.054   6.139
  145SAPE    HX15848   1.262   1.006   6.163
  145SAPE    HY15849   1.146   1.147   6.197
  145SAPE   O3115850   1.153   1.074   5.998
  145SAPE   C3115851   1.092   1.181   5.962
  145SAPE   O3215852   1.066   1.275   6.036
  145SAPE   C3215853   1.087   1.179   5.810
  145SAPE   H2X15854   0.981   1.201   5.785
  145SAPE   H2Y15855   1.114   1.077   5.775
  145SAPE   C2315856   1.052   0.762   5.798
  145SAPE   H3R15857   1.131   0.690   5.769
  145SAPE   H3S15858   1.073   0.871   5.797
  145SAPE   C2415859   0.950   0.745   5.683
  145SAPE   H4R15860   0.905   0.644   5.674
  145SAPE   H4S15861   1.022   0.754   5.599
  145SAPE   C2515862   0.846   0.850   5.660
  145SAPE   H5R15863   0.838   0.924   5.741
  145SAPE   C2615864   0.753   0.841   5.560
  145SAPE   H6R15865   0.665   0.907   5.564
  145SAPE   C2715866   0.746   0.731   5.457
  145SAPE   H7R15867   0.689   0.645   5.499
  145SAPE   H7S15868   0.849   0.694   5.438
  145SAPE   C2815869   0.683   0.763   5.322
  145SAPE   H8R15870   0.607   0.687   5.296
  145SAPE   C2915871   0.731   0.844   5.230
  145SAPE   H9R15872   0.667   0.863   5.142
  145SAPE  C21015873   0.853   0.935   5.235
  145SAPE  H10R15874   0.851   0.979   5.336
  145SAPE  H10S15875   0.842   1.006   5.150
  145SAPE  C21115876   0.983   0.863   5.220
  145SAPE  H11R15877   1.031   0.841   5.317
  145SAPE  C21215878   1.032   0.804   5.111
  145SAPE  H12R15879   1.130   0.755   5.121
  145SAPE  C21315880   0.968   0.819   4.971
  145SAPE  H13R15881   1.011   0.897   4.905
  145SAPE  H13S15882   0.867   0.867   4.975
  145SAPE  C21415883   0.967   0.695   4.879
  145SAPE  H14R15884   1.067   0.663   4.849
  145SAPE  C21515885   0.864   0.611   4.860
  145SAPE  H15R15886   0.890   0.518   4.808
  145SAPE  C21615887   0.728   0.615   4.912
  145SAPE  H16R15888   0.730   0.686   4.997
  145SAPE  H16S15889   0.690   0.515   4.943
  145SAPE  C21715890   0.616   0.676   4.825
  145SAPE  H17R15891   0.601   0.610   4.736
  145SAPE  H17S15892   0.664   0.769   4.788
  145SAPE  C21815893   0.481   0.703   4.902
  145SAPE  H18R15894   0.507   0.784   4.973
  145SAPE  H18S15895   0.470   0.610   4.962
  145SAPE  C21915896   0.359   0.741   4.823
  145SAPE  H19R15897   0.380   0.834   4.767
  145SAPE  H19S15898   0.267   0.759   4.883
  145SAPE  C22015899   0.335   0.626   4.728
  145SAPE  H20R15900   0.418   0.609   4.657
  145SAPE  H20S15901   0.244   0.639   4.665
  145SAPE  H20T15902   0.312   0.534   4.786
  145SAPE   C3315903   1.179   1.297   5.753
  145SAPE   H3X15904   1.287   1.275   5.763
  145SAPE   H3Y15905   1.152   1.388   5.811
  145SAPE   C3415906   1.148   1.322   5.604
  145SAPE   H4X15907   1.214   1.402   5.563
  145SAPE   H4Y15908   1.041   1.345   5.584
  145SAPE   C3515909   1.193   1.200   5.511
  145SAPE   H5X15910   1.151   1.108   5.556
  145SAPE   H5Y15911   1.304   1.191   5.513
  145SAPE   C3615912   1.145   1.217   5.367
  145SAPE   H6X15913   1.143   1.326   5.348
  145SAPE   H6Y15914   1.040   1.184   5.351
  145SAPE   C3715915   1.243   1.140   5.271
  145SAPE   H7X15916   1.244   1.029   5.284
  145SAPE   H7Y15917   1.347   1.172   5.294
  145SAPE   C3815918   1.207   1.153   5.123
  145SAPE   H8X15919   1.207   1.261   5.097
  145SAPE   H8Y15920   1.099   1.131   5.111
  145SAPE   C3915921   1.278   1.063   5.023
  145SAPE   H9X15922   1.201   1.020   4.955
  145SAPE   H9Y15923   1.323   0.972   5.067
  145SAPE  C31015924   1.380   1.145   4.945
  145SAPE  H10X15925   1.454   1.192   5.013
  145SAPE  H10Y15926   1.333   1.227   4.886
  145SAPE  C31115927   1.463   1.069   4.843
  145SAPE  H11X15928   1.488   0.968   4.881
  145SAPE  H11Y15929   1.546   1.139   4.821
  145SAPE  C31215930   1.376   1.039   4.720
  145SAPE  H12X15931   1.319   1.125   4.678
  145SAPE  H12Y15932   1.307   0.957   4.747
  145SAPE  C31315933   1.463   0.987   4.601
  145SAPE  H13X15934   1.508   0.893   4.639
  145SAPE  H13Y15935   1.546   1.060   4.590
  145SAPE  C31415936   1.384   0.975   4.477
  145SAPE  H14X15937   1.319   1.064   4.467
  145SAPE  H14Y15938   1.315   0.889   4.493
  145SAPE  C31515939   1.466   0.968   4.350
  145SAPE  H15X15940   1.534   0.880   4.355
  145SAPE  H15Y15941   1.516   1.067   4.342
  145SAPE  C31615942   1.376   0.972   4.219
  145SAPE  H16X15943   1.441   0.994   4.132
  145SAPE  H16Y15944   1.295   1.045   4.235
  145SAPE  C31715945   1.321   0.831   4.184
  145SAPE  H17X15946   1.275   0.803   4.281
  145SAPE  H17Y15947   1.405   0.769   4.145
  145SAPE  C31815948   1.213   0.843   4.074
  145SAPE  H18X15949   1.147   0.755   4.056
  145SAPE  H18Y15950   1.259   0.869   3.976
  145SAPE  H18Z15951   1.154   0.934   4.097
  146SAPE     N15952   3.676   0.113   6.808
  146SAPE   HN115953   3.745   0.095   6.885
  146SAPE   HN215954   3.588   0.060   6.819
  146SAPE   HN315955   3.713   0.094   6.713
  146SAPE   C1215956   3.651   0.260   6.829
  146SAPE  H12A15957   3.581   0.278   6.913
  146SAPE  H12B15958   3.591   0.302   6.745
  146SAPE   C1115959   3.792   0.328   6.858
  146SAPE  H11A15960   3.831   0.289   6.954
  146SAPE  H11B15961   3.777   0.435   6.880
  146SAPE     P15962   3.906   0.395   6.631
  146SAPE   O1315963   3.770   0.438   6.598
  146SAPE   O1415964   4.013   0.490   6.657
  146SAPE   O1215965   3.890   0.302   6.758
  146SAPE   O1115966   3.945   0.290   6.518
  146SAPE    C115967   4.075   0.303   6.458
  146SAPE    HA15968   4.109   0.408   6.441
  146SAPE    HB15969   4.151   0.270   6.532
  146SAPE    C215970   4.077   0.226   6.324
  146SAPE    HS15971   4.182   0.213   6.293
  146SAPE   O2115972   4.006   0.296   6.218
  146SAPE   C2115973   4.069   0.398   6.169
  146SAPE   O2215974   4.176   0.442   6.197
  146SAPE   C2215975   3.971   0.461   6.081
  146SAPE   H2R15976   3.911   0.392   6.019
  146SAPE   H2S15977   3.910   0.519   6.154
  146SAPE    C315978   4.022   0.083   6.338
  146SAPE    HX15979   3.912   0.097   6.328
  146SAPE    HY15980   4.053   0.039   6.436
  146SAPE   O3115981   4.069   6.789   6.245
  146SAPE   C3115982   4.022   6.792   6.120
  146SAPE   O3215983   3.943   0.068   6.070
  146SAPE   C3215984   4.072   6.671   6.050
  146SAPE   H2X15985   4.024   6.585   6.100
  146SAPE   H2Y15986   4.183   6.672   6.060
  146SAPE   C2315987   4.050   0.550   5.992
  146SAPE   H3R15988   4.108   0.489   5.920
  146SAPE   H3S15989   4.113   0.619   6.052
  146SAPE   C2415990   3.956   0.644   5.907
  146SAPE   H4R15991   3.906   0.705   5.985
  146SAPE   H4S15992   3.888   0.577   5.851
  146SAPE   C2515993   4.033   0.730   5.822
  146SAPE   H5R15994   4.102   0.798   5.873
  146SAPE   C2615995   4.031   0.728   5.689
  146SAPE   H6R15996   4.101   0.790   5.631
  146SAPE   C2715997   3.954   0.642   5.597
  146SAPE   H7R15998   3.942   0.538   5.635
  146SAPE   H7S15999   4.017   0.631   5.506
  146SAPE   C2816000   3.816   0.694   5.576
  146SAPE   H8R16001   3.771   0.743   5.664
  146SAPE   C2916002   3.740   0.671   5.463
  146SAPE   H9R16003   3.638   0.713   5.460
  146SAPE  C21016004   3.791   0.586   5.345
  146SAPE  H10R16005   3.800   0.478   5.373
  146SAPE  H10S16006   3.894   0.615   5.313
  146SAPE  C21116007   3.704   0.585   5.222
  146SAPE  H11R16008   3.632   0.667   5.207
  146SAPE  C21216009   3.723   0.497   5.116
  146SAPE  H12R16010   3.649   0.505   5.035
  146SAPE  C21316011   3.822   0.387   5.110
  146SAPE  H13R16012   3.911   0.421   5.168
  146SAPE  H13S16013   3.859   0.375   5.006
  146SAPE  C21416014   3.768   0.257   5.165
  146SAPE  H14R16015   3.723   0.263   5.266
  146SAPE  C21516016   3.757   0.137   5.102
  146SAPE  H15R16017   3.696   0.060   5.153
  146SAPE  C21616018   3.822   0.105   4.967
  146SAPE  H16R16019   3.842   6.796   4.961
  146SAPE  H16S16020   3.919   0.152   4.941
  146SAPE  C21716021   3.726   0.137   4.846
  146SAPE  H17R16022   3.710   0.245   4.823
  146SAPE  H17S16023   3.623   0.110   4.876
  146SAPE  C21816024   3.759   0.053   4.724
  146SAPE  H18R16025   3.749   6.746   4.754
  146SAPE  H18S16026   3.862   0.073   4.688
  146SAPE  C21916027   3.662   0.080   4.606
  146SAPE  H19R16028   3.561   0.087   4.651
  146SAPE  H19S16029   3.652   6.785   4.549
  146SAPE  C22016030   3.702   0.198   4.516
  146SAPE  H20R16031   3.801   0.182   4.469
  146SAPE  H20S16032   3.694   0.284   4.585
  146SAPE  H20T16033   3.630   0.204   4.431
  146SAPE   C3316034   4.032   6.673   5.902
  146SAPE   H3X16035   4.094   6.751   5.853
  146SAPE   H3Y16036   3.925   6.702   5.893
  146SAPE   C3416037   4.065   6.537   5.842
  146SAPE   H4X16038   4.014   6.448   5.885
  146SAPE   H4Y16039   4.174   6.530   5.861
  146SAPE   C3516040   4.043   6.539   5.692
  146SAPE   H5X16041   3.942   6.583   5.682
  146SAPE   H5Y16042   4.043   6.438   5.645
  146SAPE   C3616043   4.150   6.626   5.615
  146SAPE   H6X16044   4.254   6.590   5.634
  146SAPE   H6Y16045   4.129   6.729   5.651
  146SAPE   C3716046   4.139   6.630   5.464
  146SAPE   H7X16047   4.058   6.695   5.425
  146SAPE   H7Y16048   4.130   6.528   5.422
  146SAPE   C3816049   4.269   6.683   5.393
  146SAPE   H8X16050   4.342   6.600   5.392
  146SAPE   H8Y16051   4.307   6.777   5.439
  146SAPE   C3916052   4.254   6.731   5.243
  146SAPE   H9X16053   4.347   6.780   5.207
  146SAPE   H9Y16054   4.169   0.002   5.241
  146SAPE  C31016055   4.222   6.614   5.143
  146SAPE  H10X16056   4.111   6.602   5.146
  146SAPE  H10Y16057   4.280   6.528   5.184
  146SAPE  C31116058   4.275   6.641   4.997
  146SAPE  H11X16059   4.261   6.545   4.942
  146SAPE  H11Y16060   4.384   6.661   4.994
  146SAPE  C31216061   4.192   6.742   4.920
  146SAPE  H12X16062   4.195   0.035   4.979
  146SAPE  H12Y16063   4.086   6.711   4.907
  146SAPE  C31316064   4.249   6.784   4.784
  146SAPE  H13X16065   4.263   6.701   4.712
  146SAPE  H13Y16066   4.345   0.037   4.803
  146SAPE  C31416067   4.158   0.076   4.716
  146SAPE  H14X16068   4.128   0.167   4.772
  146SAPE  H14Y16069   4.060   0.030   4.693
  146SAPE  C31516070   4.213   0.130   4.581
  146SAPE  H15X16071   4.204   0.049   4.504
  146SAPE  H15Y16072   4.320   0.158   4.593
  146SAPE  C31616073   4.157   0.265   4.538
  146SAPE  H16X16074   4.185   0.346   4.609
  146SAPE  H16Y16075   4.046   0.260   4.525
  146SAPE  C31716076   4.214   0.328   4.415
  146SAPE  H17X16077   4.206   0.257   4.330
  146SAPE  H17Y16078   4.322   0.342   4.434
  146SAPE  C31816079   4.171   0.467   4.368
  146SAPE  H18X16080   4.067   0.469   4.328
  146SAPE  H18Y16081   4.237   0.504   4.286
  146SAPE  H18Z16082   4.186   0.541   4.450
  147SAPE     N16083   5.024   5.441   7.316
  147SAPE   HN116084   5.004   5.418   7.415
  147SAPE   HN216085   5.113   5.493   7.300
  147SAPE   HN316086   4.954   5.513   7.289
  147SAPE   C1216087   5.000   5.325   7.224
  147SAPE  H12A16088   4.905   5.270   7.242
  147SAPE  H12B16089   5.086   5.256   7.229
  147SAPE   C1116090   5.005   5.363   7.071
  147SAPE  H11A16091   4.902   5.364   7.032
  147SAPE  H11B16092   5.060   5.290   7.007
  147SAPE     P16093   5.021   5.597   6.952
  147SAPE   O1316094   4.892   5.661   6.995
  147SAPE   O1416095   5.136   5.685   6.928
  147SAPE   O1216096   5.065   5.494   7.059
  147SAPE   O1116097   4.998   5.491   6.835
  147SAPE    C116098   5.118   5.438   6.761
  147SAPE    HA16099   5.218   5.456   6.807
  147SAPE    HB16100   5.105   5.328   6.750
  147SAPE    C216101   5.110   5.496   6.619
  147SAPE    HS16102   5.187   5.446   6.555
  147SAPE   O2116103   5.134   5.638   6.623
  147SAPE   C2116104   5.183   5.694   6.514
  147SAPE   O2216105   5.243   5.637   6.425
  147SAPE   C2216106   5.171   5.847   6.537
  147SAPE   H2R16107   5.063   5.870   6.553
  147SAPE   H2S16108   5.229   5.873   6.629
  147SAPE    C316109   4.963   5.470   6.559
  147SAPE    HX16110   4.898   5.551   6.598
  147SAPE    HY16111   4.920   5.374   6.594
  147SAPE   O3116112   4.973   5.484   6.411
  147SAPE   C3116113   5.033   5.376   6.349
  147SAPE   O3216114   5.073   5.280   6.412
  147SAPE   C3216115   5.060   5.423   6.207
  147SAPE   H2X16116   5.166   5.401   6.183
  147SAPE   H2Y16117   5.040   5.531   6.192
  147SAPE   C2316118   5.225   5.928   6.414
  147SAPE   H3R16119   5.317   5.882   6.373
  147SAPE   H3S16120   5.237   6.029   6.457
  147SAPE   C2416121   5.117   5.928   6.305
  147SAPE   H4R16122   5.027   5.968   6.356
  147SAPE   H4S16123   5.107   5.818   6.289
  147SAPE   C2516124   5.158   5.996   6.180
  147SAPE   H5R16125   5.185   6.100   6.204
  147SAPE   C2616126   5.173   5.943   6.055
  147SAPE   H6R16127   5.208   6.017   5.981
  147SAPE   C2716128   5.137   5.806   5.992
  147SAPE   H7R16129   5.082   5.823   5.897
  147SAPE   H7S16130   5.058   5.751   6.049
  147SAPE   C2816131   5.252   5.714   5.975
  147SAPE   H8R16132   5.287   5.663   6.066
  147SAPE   C2916133   5.282   5.654   5.858
  147SAPE   H9R16134   5.367   5.584   5.856
  147SAPE  C21016135   5.216   5.678   5.726
  147SAPE  H10R16136   5.267   5.762   5.675
  147SAPE  H10S16137   5.109   5.708   5.732
  147SAPE  C21116138   5.238   5.571   5.626
  147SAPE  H11R16139   5.327   5.513   5.653
  147SAPE  C21216140   5.179   5.557   5.504
  147SAPE  H12R16141   5.204   5.468   5.443
  147SAPE  C21316142   5.057   5.634   5.452
  147SAPE  H13R16143   5.082   5.742   5.455
  147SAPE  H13S16144   4.971   5.633   5.522
  147SAPE  C21416145   4.996   5.598   5.320
  147SAPE  H14R16146   4.887   5.606   5.307
  147SAPE  C21516147   5.056   5.543   5.209
  147SAPE  H15R16148   4.993   5.510   5.124
  147SAPE  C21616149   5.208   5.516   5.194
  147SAPE  H16R16150   5.279   5.571   5.259
  147SAPE  H16S16151   5.233   5.562   5.096
  147SAPE  C21716152   5.254   5.370   5.200
  147SAPE  H17R16153   5.213   5.320   5.291
  147SAPE  H17S16154   5.365   5.371   5.207
  147SAPE  C21816155   5.209   5.275   5.091
  147SAPE  H18R16156   5.100   5.254   5.095
  147SAPE  H18S16157   5.273   5.185   5.101
  147SAPE  C21916158   5.223   5.320   4.945
  147SAPE  H19R16159   5.163   5.412   4.931
  147SAPE  H19S16160   5.192   5.244   4.870
  147SAPE  C22016161   5.372   5.337   4.910
  147SAPE  H20R16162   5.387   5.325   4.801
  147SAPE  H20S16163   5.438   5.264   4.963
  147SAPE  H20T16164   5.411   5.436   4.942
  147SAPE   C3316165   4.971   5.326   6.116
  147SAPE   H3X16166   4.986   5.224   6.157
  147SAPE   H3Y16167   5.010   5.330   6.012
  147SAPE   C3416168   4.819   5.342   6.125
  147SAPE   H4X16169   4.795   5.343   6.234
  147SAPE   H4Y16170   4.765   5.259   6.073
  147SAPE   C3516171   4.767   5.480   6.067
  147SAPE   H5X16172   4.836   5.548   6.122
  147SAPE   H5Y16173   4.663   5.500   6.099
  147SAPE   C3616174   4.799   5.492   5.921
  147SAPE   H6X16175   4.908   5.511   5.915
  147SAPE   H6Y16176   4.738   5.579   5.885
  147SAPE   C3716177   4.780   5.372   5.839
  147SAPE   H7X16178   4.669   5.362   5.836
  147SAPE   H7Y16179   4.830   5.282   5.881
  147SAPE   C3816180   4.824   5.390   5.690
  147SAPE   H8X16181   4.933   5.405   5.676
  147SAPE   H8Y16182   4.781   5.489   5.664
  147SAPE   C3916183   4.775   5.286   5.592
  147SAPE   H9X16184   4.676   5.253   5.631
  147SAPE   H9Y16185   4.847   5.202   5.597
  147SAPE  C31016186   4.776   5.341   5.453
  147SAPE  H10X16187   4.874   5.392   5.443
  147SAPE  H10Y16188   4.688   5.409   5.454
  147SAPE  C31116189   4.763   5.234   5.343
  147SAPE  H11X16190   4.689   5.156   5.371
  147SAPE  H11Y16191   4.863   5.188   5.329
  147SAPE  C31216192   4.736   5.308   5.212
  147SAPE  H12X16193   4.814   5.384   5.191
  147SAPE  H12Y16194   4.641   5.365   5.221
  147SAPE  C31316195   4.721   5.211   5.086
  147SAPE  H13X16196   4.628   5.152   5.104
  147SAPE  H13Y16197   4.807   5.141   5.089
  147SAPE  C31416198   4.721   5.286   4.961
  147SAPE  H14X16199   4.825   5.319   4.941
  147SAPE  H14Y16200   4.657   5.375   4.980
  147SAPE  C31516201   4.670   5.198   4.848
  147SAPE  H15X16202   4.562   5.173   4.855
  147SAPE  H15Y16203   4.712   5.097   4.867
  147SAPE  C31616204   4.716   5.252   4.709
  147SAPE  H16X16205   4.675   5.200   4.619
  147SAPE  H16Y16206   4.823   5.227   4.698
  147SAPE  C31716207   4.686   5.397   4.667
  147SAPE  H17X16208   4.743   5.423   4.575
  147SAPE  H17Y16209   4.713   5.469   4.747
  147SAPE  C31816210   4.532   5.419   4.649
  147SAPE  H18X16211   4.485   5.396   4.747
  147SAPE  H18Y16212   4.502   5.355   4.563
  147SAPE  H18Z16213   4.516   5.526   4.628
  148SAPE     N16214   2.545   0.724   6.470
  148SAPE   HN116215   2.633   0.753   6.422
  148SAPE   HN216216   2.475   0.798   6.490
  148SAPE   HN316217   2.566   0.674   6.559
  148SAPE   C1216218   2.495   0.620   6.372
  148SAPE  H12A16219   2.516   0.650   6.267
  148SAPE  H12B16220   2.385   0.615   6.391
  148SAPE   C1116221   2.543   0.481   6.402
  148SAPE  H11A16222   2.646   0.476   6.360
  148SAPE  H11B16223   2.470   0.415   6.350
  148SAPE     P16224   2.456   0.328   6.605
  148SAPE   O1316225   2.541   0.213   6.622
  148SAPE   O1416226   2.388   0.389   6.721
  148SAPE   O1216227   2.545   0.441   6.542
  148SAPE   O1116228   2.347   0.284   6.509
  148SAPE    C116229   2.235   0.212   6.540
  148SAPE    HA16230   2.259   0.145   6.626
  148SAPE    HB16231   2.141   0.270   6.545
  148SAPE    C216232   2.210   0.108   6.425
  148SAPE    HS16233   2.291   0.034   6.412
  148SAPE   O2116234   2.173   0.180   6.307
  148SAPE   C2116235   2.276   0.216   6.235
  148SAPE   O2216236   2.386   0.164   6.242
  148SAPE   C2216237   2.231   0.336   6.139
  148SAPE   H2R16238   2.241   0.431   6.195
  148SAPE   H2S16239   2.315   0.346   6.066
  148SAPE    C316240   2.093   0.013   6.480
  148SAPE    HX16241   2.007   0.081   6.498
  148SAPE    HY16242   2.136   6.764   6.569
  148SAPE   O3116243   2.061   6.719   6.380
  148SAPE   C3116244   1.950   6.722   6.321
  148SAPE   O3216245   1.853   6.800   6.340
  148SAPE   C3216246   1.942   6.605   6.223
  148SAPE   H2X16247   1.971   6.515   6.281
  148SAPE   H2Y16248   2.012   6.637   6.142
  148SAPE   C2316249   2.103   0.325   6.068
  148SAPE   H3R16250   2.077   0.408   6.000
  148SAPE   H3S16251   2.016   0.317   6.137
  148SAPE   C2416252   2.094   0.195   5.988
  148SAPE   H4R16253   1.988   0.195   5.955
  148SAPE   H4S16254   2.095   0.110   6.060
  148SAPE   C2516255   2.199   0.190   5.881
  148SAPE   H5R16256   2.293   0.141   5.908
  148SAPE   C2616257   2.180   0.229   5.759
  148SAPE   H6R16258   2.263   0.214   5.689
  148SAPE   C2716259   2.056   0.288   5.690
  148SAPE   H7R16260   1.977   0.282   5.768
  148SAPE   H7S16261   2.018   0.223   5.608
  148SAPE   C2816262   2.084   0.421   5.639
  148SAPE   H8R16263   2.081   0.491   5.724
  148SAPE   C2916264   2.059   0.473   5.516
  148SAPE   H9R16265   2.091   0.576   5.498
  148SAPE  C21016266   2.033   0.394   5.386
  148SAPE  H10R16267   1.930   0.354   5.378
  148SAPE  H10S16268   2.100   0.305   5.394
  148SAPE  C21116269   2.058   0.466   5.254
  148SAPE  H11R16270   1.964   0.518   5.231
  148SAPE  C21216271   2.156   0.458   5.168
  148SAPE  H12R16272   2.145   0.512   5.073
  148SAPE  C21316273   2.295   0.401   5.199
  148SAPE  H13R16274   2.293   0.352   5.299
  148SAPE  H13S16275   2.365   0.486   5.213
  148SAPE  C21416276   2.334   0.303   5.088
  148SAPE  H14R16277   2.296   0.200   5.093
  148SAPE  C21516278   2.395   0.337   4.969
  148SAPE  H15R16279   2.420   0.257   4.898
  148SAPE  C21616280   2.434   0.478   4.931
  148SAPE  H16R16281   2.544   0.488   4.943
  148SAPE  H16S16282   2.388   0.558   4.993
  148SAPE  C21716283   2.395   0.527   4.787
  148SAPE  H17R16284   2.453   0.481   4.704
  148SAPE  H17S16285   2.415   0.636   4.794
  148SAPE  C21816286   2.252   0.516   4.741
  148SAPE  H18R16287   2.199   0.579   4.816
  148SAPE  H18S16288   2.220   0.410   4.751
  148SAPE  C21916289   2.205   0.564   4.609
  148SAPE  H19R16290   2.239   0.669   4.603
  148SAPE  H19S16291   2.094   0.569   4.618
  148SAPE  C22016292   2.246   0.482   4.484
  148SAPE  H20R16293   2.215   0.376   4.492
  148SAPE  H20S16294   2.354   0.488   4.460
  148SAPE  H20T16295   2.190   0.525   4.398
  148SAPE   C3316296   1.803   6.580   6.153
  148SAPE   H3X16297   1.782   6.676   6.102
  148SAPE   H3Y16298   1.724   6.575   6.232
  148SAPE   C3416299   1.798   6.458   6.056
  148SAPE   H4X16300   1.694   6.436   6.021
  148SAPE   H4Y16301   1.821   6.370   6.120
  148SAPE   C3516302   1.904   6.463   5.946
  148SAPE   H5X16303   1.902   6.370   5.885
  148SAPE   H5Y16304   2.004   6.479   5.991
  148SAPE   C3616305   1.886   6.573   5.841
  148SAPE   H6X16306   1.853   6.669   5.886
  148SAPE   H6Y16307   1.792   6.543   5.791
  148SAPE   C3716308   1.993   6.583   5.732
  148SAPE   H7X16309   1.998   6.489   5.674
  148SAPE   H7Y16310   2.086   6.606   5.788
  148SAPE   C3816311   1.974   6.705   5.642
  148SAPE   H8X16312   1.968   0.002   5.697
  148SAPE   H8Y16313   1.886   6.700   5.575
  148SAPE   C3916314   2.096   6.716   5.551
  148SAPE   H9X16315   2.186   6.732   5.615
  148SAPE   H9Y16316   2.090   0.008   5.489
  148SAPE  C31016317   2.127   6.599   5.454
  148SAPE  H10X16318   2.131   6.507   5.516
  148SAPE  H10Y16319   2.230   6.627   5.423
  148SAPE  C31116320   2.051   6.588   5.326
  148SAPE  H11X16321   1.945   6.586   5.359
  148SAPE  H11Y16322   2.069   6.494   5.270
  148SAPE  C31216323   2.068   6.712   5.238
  148SAPE  H12X16324   2.171   6.752   5.246
  148SAPE  H12Y16325   1.996   6.790   5.270
  148SAPE  C31316326   2.055   6.698   5.077
  148SAPE  H13X16327   1.980   6.623   5.045
  148SAPE  H13Y16328   2.152   6.658   5.042
  148SAPE  C31416329   2.030   0.033   5.009
  148SAPE  H14X16330   2.112   0.100   5.041
  148SAPE  H14Y16331   1.932   0.070   5.046
  148SAPE  C31516332   2.036   0.011   4.854
  148SAPE  H15X16333   1.963   6.733   4.825
  148SAPE  H15Y16334   2.134   6.770   4.824
  148SAPE  C31616335   2.003   0.141   4.781
  148SAPE  H16X16336   2.076   0.219   4.811
  148SAPE  H16Y16337   1.901   0.183   4.789
  148SAPE  C31716338   2.023   0.140   4.633
  148SAPE  H17X16339   1.982   0.233   4.589
  148SAPE  H17Y16340   1.960   0.059   4.589
  148SAPE  C31816341   2.168   0.120   4.599
  148SAPE  H18X16342   2.187   0.011   4.591
  148SAPE  H18Y16343   2.244   0.160   4.670
  148SAPE  H18Z16344   2.194   0.152   4.495
  149SAPE     N16345   2.067   1.808   6.280
  149SAPE   HN116346   2.098   1.785   6.184
  149SAPE   HN216347   2.053   1.717   6.328
  149SAPE   HN316348   1.984   1.871   6.283
  149SAPE   C1216349   2.180   1.876   6.346
  149SAPE  H12A16350   2.244   1.925   6.270
  149SAPE  H12B16351   2.245   1.803   6.400
  149SAPE   C1116352   2.123   1.993   6.433
  149SAPE  H11A16353   2.074   2.073   6.374
  149SAPE  H11B16354   2.217   2.039   6.473
  149SAPE     P16355   1.896   1.952   6.573
  149SAPE   O1316356   1.856   1.908   6.710
  149SAPE   O1416357   1.862   2.093   6.534
  149SAPE   O1216358   2.049   1.944   6.541
  149SAPE   O1116359   1.841   1.860   6.454
  149SAPE    C116360   1.731   1.776   6.479
  149SAPE    HA16361   1.770   1.677   6.512
  149SAPE    HB16362   1.662   1.818   6.556
  149SAPE    C216363   1.653   1.742   6.351
  149SAPE    HS16364   1.575   1.667   6.372
  149SAPE   O2116365   1.742   1.686   6.248
  149SAPE   C2116366   1.777   1.565   6.265
  149SAPE   O2216367   1.753   1.496   6.367
  149SAPE   C2216368   1.844   1.519   6.136
  149SAPE   H2R16369   1.782   1.551   6.050
  149SAPE   H2S16370   1.936   1.581   6.138
  149SAPE    C316371   1.580   1.871   6.299
  149SAPE    HX16372   1.652   1.956   6.298
  149SAPE    HY16373   1.504   1.911   6.369
  149SAPE   O3116374   1.520   1.854   6.167
  149SAPE   C3116375   1.591   1.893   6.066
  149SAPE   O3216376   1.701   1.956   6.071
  149SAPE   C3216377   1.520   1.858   5.941
  149SAPE   H2X16378   1.423   1.912   5.936
  149SAPE   H2Y16379   1.502   1.749   5.927
  149SAPE   C2316380   1.876   1.370   6.121
  149SAPE   H3R16381   1.784   1.310   6.106
  149SAPE   H3S16382   1.916   1.321   6.212
  149SAPE   C2416383   1.976   1.342   6.004
  149SAPE   H4R16384   2.073   1.377   6.043
  149SAPE   H4S16385   1.942   1.406   5.920
  149SAPE   C2516386   1.978   1.192   5.965
  149SAPE   H5R16387   1.986   1.129   6.055
  149SAPE   C2616388   1.988   1.134   5.842
  149SAPE   H6R16389   2.002   1.025   5.837
  149SAPE   C2716390   1.991   1.206   5.712
  149SAPE   H7R16391   1.916   1.288   5.704
  149SAPE   H7S16392   1.970   1.126   5.638
  149SAPE   C2816393   2.122   1.262   5.675
  149SAPE   H8R16394   2.183   1.285   5.764
  149SAPE   C2916395   2.168   1.299   5.554
  149SAPE   H9R16396   2.272   1.333   5.544
  149SAPE  C21016397   2.092   1.268   5.423
  149SAPE  H10R16398   2.054   1.356   5.366
  149SAPE  H10S16399   1.992   1.232   5.456
  149SAPE  C21116400   2.144   1.155   5.340
  149SAPE  H11R16401   2.227   1.100   5.387
  149SAPE  C21216402   2.099   1.124   5.214
  149SAPE  H12R16403   2.145   1.041   5.158
  149SAPE  C21316404   1.994   1.207   5.128
  149SAPE  H13R16405   1.954   1.288   5.193
  149SAPE  H13S16406   1.905   1.141   5.116
  149SAPE  C21416407   2.051   1.250   4.993
  149SAPE  H14R16408   2.151   1.296   4.993
  149SAPE  C21516409   1.990   1.253   4.879
  149SAPE  H15R16410   2.047   1.285   4.790
  149SAPE  C21616411   1.849   1.215   4.850
  149SAPE  H16R16412   1.789   1.294   4.799
  149SAPE  H16S16413   1.791   1.177   4.936
  149SAPE  C21716414   1.850   1.092   4.750
  149SAPE  H17R16415   1.749   1.047   4.756
  149SAPE  H17S16416   1.902   1.003   4.790
  149SAPE  C21816417   1.875   1.123   4.607
  149SAPE  H18R16418   1.971   1.180   4.608
  149SAPE  H18S16419   1.804   1.192   4.559
  149SAPE  C21916420   1.894   1.006   4.522
  149SAPE  H19R16421   1.806   0.938   4.521
  149SAPE  H19S16422   1.980   0.942   4.551
  149SAPE  C22016423   1.920   1.047   4.375
  149SAPE  H20R16424   1.832   1.084   4.319
  149SAPE  H20S16425   1.954   0.954   4.325
  149SAPE  H20T16426   2.004   1.120   4.370
  149SAPE   C3316427   1.599   1.886   5.811
  149SAPE   H3X16428   1.685   1.817   5.821
  149SAPE   H3Y16429   1.644   1.987   5.820
  149SAPE   C3416430   1.522   1.853   5.684
  149SAPE   H4X16431   1.453   1.768   5.703
  149SAPE   H4Y16432   1.599   1.809   5.617
  149SAPE   C3516433   1.451   1.977   5.637
  149SAPE   H5X16434   1.525   2.059   5.635
  149SAPE   H5Y16435   1.379   2.015   5.713
  149SAPE   C3616436   1.361   1.966   5.512
  149SAPE   H6X16437   1.296   2.055   5.507
  149SAPE   H6Y16438   1.290   1.881   5.519
  149SAPE   C3716439   1.436   1.937   5.383
  149SAPE   H7X16440   1.466   1.830   5.383
  149SAPE   H7Y16441   1.516   2.012   5.392
  149SAPE   C3816442   1.353   1.970   5.253
  149SAPE   H8X16443   1.317   2.075   5.261
  149SAPE   H8Y16444   1.276   1.892   5.239
  149SAPE   C3916445   1.442   1.955   5.124
  149SAPE   H9X16446   1.466   1.849   5.100
  149SAPE   H9Y16447   1.534   2.013   5.147
  149SAPE  C31016448   1.383   2.024   5.004
  149SAPE  H10X16449   1.320   2.110   5.032
  149SAPE  H10Y16450   1.316   1.953   4.951
  149SAPE  C31116451   1.492   2.073   4.903
  149SAPE  H11X16452   1.565   1.992   4.883
  149SAPE  H11Y16453   1.533   2.169   4.941
  149SAPE  C31216454   1.429   2.083   4.764
  149SAPE  H12X16455   1.375   1.991   4.733
  149SAPE  H12Y16456   1.521   2.113   4.710
  149SAPE  C31316457   1.328   2.202   4.749
  149SAPE  H13X16458   1.362   2.288   4.811
  149SAPE  H13Y16459   1.231   2.167   4.791
  149SAPE  C31416460   1.292   2.255   4.600
  149SAPE  H14X16461   1.206   2.324   4.608
  149SAPE  H14Y16462   1.255   2.170   4.539
  149SAPE  C31516463   1.416   2.317   4.535
  149SAPE  H15X16464   1.500   2.244   4.537
  149SAPE  H15Y16465   1.467   2.387   4.605
  149SAPE  C31616466   1.382   2.387   4.400
  149SAPE  H16X16467   1.462   2.460   4.376
  149SAPE  H16Y16468   1.295   2.454   4.416
  149SAPE  C31716469   1.324   2.293   4.294
  149SAPE  H17X16470   1.230   2.245   4.326
  149SAPE  H17Y16471   1.410   2.224   4.279
  149SAPE  C31816472   1.299   2.364   4.153
  149SAPE  H18X16473   1.392   2.407   4.112
  149SAPE  H18Y16474   1.226   2.444   4.177
  149SAPE  H18Z16475   1.252   2.281   4.096
  150SAPE     N16476   4.846   3.077   6.496
  150SAPE   HN116477   4.862   3.007   6.572
  150SAPE   HN216478   4.890   3.161   6.539
  150SAPE   HN316479   4.743   3.084   6.506
  150SAPE   C1216480   4.913   3.046   6.361
  150SAPE  H12A16481   5.023   3.048   6.372
  150SAPE  H12B16482   4.880   3.129   6.296
  150SAPE   C1116483   4.873   2.905   6.300
  150SAPE  H11A16484   4.914   2.908   6.197
  150SAPE  H11B16485   4.764   2.892   6.283
  150SAPE     P16486   5.058   2.724   6.348
  150SAPE   O1316487   5.163   2.789   6.430
  150SAPE   O1416488   5.050   2.584   6.365
  150SAPE   O1216489   4.926   2.794   6.370
  150SAPE   O1116490   5.099   2.757   6.195
  150SAPE    C116491   5.038   2.672   6.100
  150SAPE    HA16492   4.933   2.645   6.121
  150SAPE    HB16493   5.037   2.717   5.999
  150SAPE    C216494   5.118   2.541   6.078
  150SAPE    HS16495   5.158   2.502   6.174
  150SAPE   O2116496   5.229   2.567   5.983
  150SAPE   C2116497   5.321   2.476   5.991
  150SAPE   O2216498   5.330   2.390   6.077
  150SAPE   C2216499   5.433   2.506   5.881
  150SAPE   H2R16500   5.390   2.569   5.801
  150SAPE   H2S16501   5.522   2.561   5.918
  150SAPE    C316502   5.034   2.431   6.022
  150SAPE    HX16503   4.979   2.397   6.112
  150SAPE    HY16504   5.097   2.345   5.988
  150SAPE   O3116505   4.956   2.476   5.909
  150SAPE   C3116506   4.833   2.426   5.895
  150SAPE   O3216507   4.771   2.367   5.982
  150SAPE   C3216508   4.784   2.457   5.757
  150SAPE   H2X16509   4.707   2.537   5.757
  150SAPE   H2Y16510   4.727   2.370   5.719
  150SAPE   C2316511   5.497   2.372   5.829
  150SAPE   H3R16512   5.516   2.313   5.920
  150SAPE   H3S16513   5.601   2.385   5.793
  150SAPE   C2416514   5.425   2.282   5.733
  150SAPE   H4R16515   5.358   2.214   5.791
  150SAPE   H4S16516   5.502   2.214   5.691
  150SAPE   C2516517   5.343   2.354   5.632
  150SAPE   H5R16518   5.292   2.440   5.678
  150SAPE   C2616519   5.342   2.336   5.501
  150SAPE   H6R16520   5.274   2.404   5.446
  150SAPE   C2716521   5.430   2.239   5.423
  150SAPE   H7R16522   5.366   2.155   5.391
  150SAPE   H7S16523   5.499   2.186   5.493
  150SAPE   C2816524   5.508   2.294   5.313
  150SAPE   H8R16525   5.615   2.313   5.333
  150SAPE   C2916526   5.481   2.306   5.184
  150SAPE   H9R16527   5.569   2.334   5.124
  150SAPE  C21016528   5.346   2.294   5.114
  150SAPE  H10R16529   5.254   2.314   5.172
  150SAPE  H10S16530   5.340   2.188   5.082
  150SAPE  C21116531   5.349   2.397   5.001
  150SAPE  H11R16532   5.332   2.499   5.038
  150SAPE  C21216533   5.386   2.372   4.876
  150SAPE  H12R16534   5.393   2.460   4.809
  150SAPE  C21316535   5.417   2.239   4.806
  150SAPE  H13R16536   5.510   2.199   4.853
  150SAPE  H13S16537   5.443   2.257   4.700
  150SAPE  C21416538   5.307   2.138   4.814
  150SAPE  H14R16539   5.303   2.084   4.910
  150SAPE  C21516540   5.238   2.083   4.713
  150SAPE  H15R16541   5.170   2.006   4.750
  150SAPE  C21616542   5.242   2.128   4.566
  150SAPE  H16R16543   5.196   2.050   4.502
  150SAPE  H16S16544   5.347   2.124   4.529
  150SAPE  C21716545   5.181   2.264   4.519
  150SAPE  H17R16546   5.248   2.345   4.556
  150SAPE  H17S16547   5.078   2.267   4.560
  150SAPE  C21816548   5.176   2.268   4.367
  150SAPE  H18R16549   5.121   2.181   4.323
  150SAPE  H18S16550   5.276   2.248   4.325
  150SAPE  C21916551   5.139   2.403   4.316
  150SAPE  H19R16552   5.082   2.447   4.400
  150SAPE  H19S16553   5.073   2.390   4.228
  150SAPE  C22016554   5.261   2.492   4.274
  150SAPE  H20R16555   5.315   2.446   4.188
  150SAPE  H20S16556   5.329   2.504   4.361
  150SAPE  H20T16557   5.226   2.594   4.247
  150SAPE   C3316558   4.898   2.476   5.650
  150SAPE   H3X16559   4.941   2.375   5.632
  150SAPE   H3Y16560   4.980   2.540   5.691
  150SAPE   C3416561   4.848   2.526   5.515
  150SAPE   H4X16562   4.833   2.635   5.525
  150SAPE   H4Y16563   4.750   2.483   5.484
  150SAPE   C3516564   4.944   2.483   5.398
  150SAPE   H5X16565   4.968   2.375   5.403
  150SAPE   H5Y16566   5.037   2.544   5.402
  150SAPE   C3616567   4.902   2.488   5.255
  150SAPE   H6X16568   4.909   2.593   5.218
  150SAPE   H6Y16569   4.794   2.463   5.241
  150SAPE   C3716570   4.998   2.413   5.162
  150SAPE   H7X16571   5.025   2.311   5.196
  150SAPE   H7Y16572   5.093   2.470   5.155
  150SAPE   C3816573   4.956   2.398   5.021
  150SAPE   H8X16574   4.849   2.369   5.010
  150SAPE   H8Y16575   5.007   2.322   4.959
  150SAPE   C3916576   4.966   2.530   4.950
  150SAPE   H9X16577   5.068   2.568   4.973
  150SAPE   H9Y16578   4.895   2.607   4.988
  150SAPE  C31016579   4.937   2.507   4.805
  150SAPE  H10X16580   4.862   2.427   4.791
  150SAPE  H10Y16581   5.027   2.469   4.753
  150SAPE  C31116582   4.875   2.636   4.734
  150SAPE  H11X16583   4.941   2.726   4.738
  150SAPE  H11Y16584   4.781   2.664   4.786
  150SAPE  C31216585   4.846   2.632   4.585
  150SAPE  H12X16586   4.760   2.564   4.563
  150SAPE  H12Y16587   4.933   2.591   4.531
  150SAPE  C31316588   4.827   2.772   4.530
  150SAPE  H13X16589   4.925   2.824   4.535
  150SAPE  H13Y16590   4.759   2.833   4.594
  150SAPE  C31416591   4.782   2.774   4.385
  150SAPE  H14X16592   4.766   2.879   4.353
  150SAPE  H14Y16593   4.698   2.702   4.376
  150SAPE  C31516594   4.883   2.720   4.287
  150SAPE  H15X16595   4.900   2.611   4.301
  150SAPE  H15Y16596   4.969   2.788   4.303
  150SAPE  C31616597   4.832   2.732   4.138
  150SAPE  H16X16598   4.790   2.829   4.106
  150SAPE  H16Y16599   4.759   2.652   4.116
  150SAPE  C31716600   4.943   2.712   4.042
  150SAPE  H17X16601   4.999   2.620   4.070
  150SAPE  H17Y16602   5.004   2.804   4.050
  150SAPE  C31816603   4.874   2.672   3.911
  150SAPE  H18X16604   4.953   2.684   3.835
  150SAPE  H18Y16605   4.787   2.736   3.886
  150SAPE  H18Z16606   4.834   2.569   3.902
  151SAPE     N16607   4.219   6.589   6.764
  151SAPE   HN116608   4.133   6.572   6.709
  151SAPE   HN216609   4.232   6.520   6.841
  151SAPE   HN316610   4.232   6.688   6.792
  151SAPE   C1216611   4.325   6.570   6.660
  151SAPE  H12A16612   4.329   6.462   6.634
  151SAPE  H12B16613   4.427   6.599   6.693
  151SAPE   C1116614   4.296   6.655   6.532
  151SAPE  H11A16615   4.212   6.616   6.470
  151SAPE  H11B16616   4.383   6.633   6.467
  151SAPE     P16617   4.418   0.091   6.535
  151SAPE   O1316618   4.380   0.226   6.482
  151SAPE   O1416619   4.491   0.087   6.659
  151SAPE   O1216620   4.292   6.798   6.565
  151SAPE   O1116621   4.510   0.021   6.428
  151SAPE    C116622   4.452   0.022   6.296
  151SAPE    HA16623   4.359   6.762   6.291
  151SAPE    HB16624   4.430   0.126   6.261
  151SAPE    C216625   4.552   6.756   6.191
  151SAPE    HS16626   4.648   0.010   6.200
  151SAPE   O2116627   4.494   6.756   6.060
  151SAPE   C2116628   4.577   6.786   5.963
  151SAPE   O2216629   4.690   0.031   5.968
  151SAPE   C2216630   4.496   6.771   5.831
  151SAPE   H2R16631   4.535   6.679   5.783
  151SAPE   H2S16632   4.394   6.754   5.871
  151SAPE    C316633   4.572   6.605   6.232
  151SAPE    HX16634   4.475   6.550   6.228
  151SAPE    HY16635   4.608   6.594   6.337
  151SAPE   O3116636   4.665   6.536   6.147
  151SAPE   C3116637   4.797   6.564   6.165
  151SAPE   O3216638   4.848   6.645   6.244
  151SAPE   C3216639   4.881   6.464   6.079
  151SAPE   H2X16640   4.845   6.359   6.092
  151SAPE   H2Y16641   4.980   6.474   6.128
  151SAPE   C2316642   4.508   0.099   5.736
  151SAPE   H3R16643   4.456   0.069   5.643
  151SAPE   H3S16644   4.616   0.107   5.711
  151SAPE   C2416645   4.467   0.229   5.800
  151SAPE   H4R16646   4.490   0.313   5.731
  151SAPE   H4S16647   4.525   0.241   5.894
  151SAPE   C2516648   4.322   0.232   5.848
  151SAPE   H5R16649   4.302   0.224   5.956
  151SAPE   C2616650   4.211   0.247   5.775
  151SAPE   H6R16651   4.112   0.256   5.822
  151SAPE   C2716652   4.220   0.248   5.622
  151SAPE   H7R16653   4.305   0.200   5.568
  151SAPE   H7S16654   4.249   0.352   5.598
  151SAPE   C2816655   4.091   0.221   5.537
  151SAPE   H8R16656   4.006   0.190   5.599
  151SAPE   C2916657   4.065   0.233   5.406
  151SAPE   H9R16658   3.960   0.211   5.380
  151SAPE  C21016659   4.162   0.282   5.298
  151SAPE  H10R16660   4.125   0.254   5.197
  151SAPE  H10S16661   4.263   0.239   5.317
  151SAPE  C21116662   4.185   0.433   5.297
  151SAPE  H11R16663   4.129   0.484   5.377
  151SAPE  C21216664   4.233   0.504   5.187
  151SAPE  H12R16665   4.239   0.613   5.195
  151SAPE  C21316666   4.296   0.440   5.059
  151SAPE  H13R16667   4.243   0.346   5.035
  151SAPE  H13S16668   4.404   0.415   5.072
  151SAPE  C21416669   4.293   0.529   4.933
  151SAPE  H14R16670   4.212   0.604   4.935
  151SAPE  C21516671   4.348   0.496   4.814
  151SAPE  H15R16672   4.348   0.562   4.727
  151SAPE  C21616673   4.437   0.379   4.789
  151SAPE  H16R16674   4.420   0.344   4.685
  151SAPE  H16S16675   4.413   0.292   4.853
  151SAPE  C21716676   4.592   0.400   4.799
  151SAPE  H17R16677   4.614   0.491   4.739
  151SAPE  H17S16678   4.636   0.311   4.751
  151SAPE  C21816679   4.661   0.408   4.934
  151SAPE  H18R16680   4.644   0.318   4.998
  151SAPE  H18S16681   4.625   0.502   4.981
  151SAPE  C21916682   4.813   0.408   4.915
  151SAPE  H19R16683   4.842   0.462   4.823
  151SAPE  H19S16684   4.852   0.306   4.896
  151SAPE  C22016685   4.888   0.468   5.033
  151SAPE  H20R16686   4.848   0.567   5.064
  151SAPE  H20S16687   4.992   0.477   4.994
  151SAPE  H20T16688   4.884   0.399   5.120
  151SAPE   C3316689   4.882   6.494   5.930
  151SAPE   H3X16690   4.967   6.446   5.878
  151SAPE   H3Y16691   4.907   6.602   5.918
  151SAPE   C3416692   4.753   6.443   5.851
  151SAPE   H4X16693   4.665   6.481   5.908
  151SAPE   H4Y16694   4.753   6.333   5.866
  151SAPE   C3516695   4.754   6.465   5.701
  151SAPE   H5X16696   4.844   6.412   5.664
  151SAPE   H5Y16697   4.763   6.575   5.687
  151SAPE   C3616698   4.634   6.392   5.628
  151SAPE   H6X16699   4.544   6.447   5.661
  151SAPE   H6Y16700   4.632   6.285   5.658
  151SAPE   C3716701   4.639   6.414   5.479
  151SAPE   H7X16702   4.660   6.523   5.467
  151SAPE   H7Y16703   4.545   6.394   5.423
  151SAPE   C3816704   4.733   6.317   5.412
  151SAPE   H8X16705   4.689   6.216   5.395
  151SAPE   H8Y16706   4.820   6.297   5.477
  151SAPE   C3916707   4.802   6.380   5.290
  151SAPE   H9X16708   4.874   6.457   5.323
  151SAPE   H9Y16709   4.730   6.436   5.227
  151SAPE  C31016710   4.872   6.275   5.201
  151SAPE  H10X16711   4.810   6.188   5.171
  151SAPE  H10Y16712   4.972   6.240   5.234
  151SAPE  C31116713   4.898   6.351   5.063
  151SAPE  H11X16714   4.975   6.429   5.078
  151SAPE  H11Y16715   4.797   6.389   5.036
  151SAPE  C31216716   4.928   6.257   4.944
  151SAPE  H12X16717   4.848   6.182   4.927
  151SAPE  H12Y16718   5.020   6.201   4.970
  151SAPE  C31316719   4.934   6.337   4.812
  151SAPE  H13X16720   4.825   6.357   4.797
  151SAPE  H13Y16721   4.978   6.279   4.728
  151SAPE  C31416722   5.017   6.468   4.806
  151SAPE  H14X16723   5.120   6.430   4.826
  151SAPE  H14Y16724   4.979   6.528   4.891
  151SAPE  C31516725   5.008   6.533   4.672
  151SAPE  H15X16726   4.904   6.571   4.667
  151SAPE  H15Y16727   5.026   6.469   4.583
  151SAPE  C31616728   5.096   6.654   4.670
  151SAPE  H16X16729   5.203   6.625   4.666
  151SAPE  H16Y16730   5.091   6.712   4.765
  151SAPE  C31716731   5.078   6.732   4.541
  151SAPE  H17X16732   4.979   6.784   4.539
  151SAPE  H17Y16733   5.076   6.662   4.455
  151SAPE  C31816734   5.187   0.041   4.517
  151SAPE  H18X16735   5.284   6.799   4.485
  151SAPE  H18Y16736   5.207   0.093   4.613
  151SAPE  H18Z16737   5.154   0.116   4.442
  152SAPE     N16738   0.136   1.594   6.364
  152SAPE   HN116739   0.115   1.492   6.356
  152SAPE   HN216740   0.053   1.652   6.387
  152SAPE   HN316741   0.173   1.628   6.273
  152SAPE   C1216742   0.231   1.618   6.476
  152SAPE  H12A16743   0.266   1.724   6.475
  152SAPE  H12B16744   0.310   1.541   6.463
  152SAPE   C1116745   0.162   1.590   6.617
  152SAPE  H11A16746   0.248   1.568   6.684
  152SAPE  H11B16747   0.085   1.511   6.614
  152SAPE     P16748   6.740   1.736   6.645
  152SAPE   O1316749   6.662   1.619   6.688
  152SAPE   O1416750   6.698   1.870   6.692
  152SAPE   O1216751   0.096   1.707   6.674
  152SAPE   O1116752   6.746   1.737   6.485
  152SAPE    C116753   6.696   1.849   6.409
  152SAPE    HA16754   6.615   1.905   6.460
  152SAPE    HB16755   6.780   1.914   6.377
  152SAPE    C216756   6.623   1.805   6.280
  152SAPE    HS16757   6.536   1.748   6.320
  152SAPE   O2116758   6.705   1.715   6.209
  152SAPE   C2116759   6.649   1.659   6.097
  152SAPE   O2216760   6.532   1.669   6.066
  152SAPE   C2216761   6.759   1.583   6.018
  152SAPE   H2R16762   0.024   1.529   6.089
  152SAPE   H2S16763   6.706   1.507   5.956
  152SAPE    C316764   6.569   1.931   6.200
  152SAPE    HX16765   6.548   2.017   6.266
  152SAPE    HY16766   6.477   1.891   6.153
  152SAPE   O3116767   6.666   1.974   6.102
  152SAPE   C3116768   6.603   2.038   5.998
  152SAPE   O3216769   6.486   2.044   5.980
  152SAPE   C3216770   6.708   2.088   5.899
  152SAPE   H2X16771   0.001   2.029   5.907
  152SAPE   H2Y16772   6.739   2.186   5.940
  152SAPE   C2316773   0.036   1.670   5.927
  152SAPE   H3R16774   0.123   1.609   5.895
  152SAPE   H3S16775   0.077   1.758   5.981
  152SAPE   C2416776   6.760   1.727   5.803
  152SAPE   H4R16777   0.023   1.800   5.748
  152SAPE   H4S16778   6.667   1.767   5.847
  152SAPE   C2516779   6.732   1.618   5.700
  152SAPE   H5R16780   6.727   1.516   5.742
  152SAPE   C2616781   6.727   1.634   5.569
  152SAPE   H6R16782   6.710   1.550   5.499
  152SAPE   C2716783   6.743   1.763   5.487
  152SAPE   H7R16784   6.737   1.851   5.554
  152SAPE   H7S16785   6.659   1.778   5.415
  152SAPE   C2816786   0.081   1.768   5.420
  152SAPE   H8R16787   0.157   1.823   5.478
  152SAPE   C2916788   0.120   1.697   5.310
  152SAPE   H9R16789   0.223   1.714   5.274
  152SAPE  C21016790   0.031   1.612   5.222
  152SAPE  H10R16791   6.792   1.527   5.281
  152SAPE  H10S16792   0.096   1.570   5.142
  152SAPE  C21116793   6.717   1.670   5.146
  152SAPE  H11R16794   6.636   1.706   5.212
  152SAPE  C21216795   6.700   1.686   5.011
  152SAPE  H12R16796   6.613   1.739   4.970
  152SAPE  C21316797   6.789   1.632   4.904
  152SAPE  H13R16798   6.727   1.598   4.818
  152SAPE  H13S16799   0.031   1.534   4.937
  152SAPE  C21416800   0.108   1.710   4.856
  152SAPE  H14R16801   0.150   1.782   4.928
  152SAPE  C21516802   0.171   1.694   4.736
  152SAPE  H15R16803   0.244   1.773   4.713
  152SAPE  C21616804   0.137   1.598   4.623
  152SAPE  H16R16805   0.046   1.538   4.643
  152SAPE  H16S16806   0.219   1.525   4.641
  152SAPE  C21716807   0.135   1.660   4.480
  152SAPE  H17R16808   0.198   1.750   4.459
  152SAPE  H17S16809   0.030   1.691   4.461
  152SAPE  C21816810   0.165   1.568   4.363
  152SAPE  H18R16811   0.091   1.486   4.375
  152SAPE  H18S16812   0.265   1.521   4.378
  152SAPE  C21916813   0.164   1.641   4.224
  152SAPE  H19R16814   0.223   1.734   4.245
  152SAPE  H19S16815   0.058   1.659   4.197
  152SAPE  C22016816   0.222   1.555   4.112
  152SAPE  H20R16817   0.174   1.454   4.115
  152SAPE  H20S16818   0.331   1.542   4.122
  152SAPE  H20T16819   0.200   1.596   4.011
  152SAPE   C3316820   6.672   2.105   5.754
  152SAPE   H3X16821   6.582   2.167   5.732
  152SAPE   H3Y16822   6.658   2.004   5.710
  152SAPE   C3416823   6.783   2.176   5.675
  152SAPE   H4X16824   0.076   2.118   5.692
  152SAPE   H4Y16825   6.799   2.276   5.720
  152SAPE   C3516826   6.754   2.186   5.522
  152SAPE   H5X16827   6.716   2.287   5.495
  152SAPE   H5Y16828   6.672   2.116   5.492
  152SAPE   C3616829   0.072   2.165   5.434
  152SAPE   H6X16830   0.133   2.085   5.480
  152SAPE   H6Y16831   0.121   2.265   5.438
  152SAPE   C3716832   0.045   2.117   5.290
  152SAPE   H7X16833   6.776   2.178   5.229
  152SAPE   H7Y16834   6.787   2.023   5.296
  152SAPE   C3816835   0.183   2.100   5.215
  152SAPE   H8X16836   0.233   2.014   5.265
  152SAPE   H8Y16837   0.247   2.189   5.232
  152SAPE   C3916838   0.160   2.080   5.064
  152SAPE   H9X16839   0.119   2.176   5.026
  152SAPE   H9Y16840   0.085   1.999   5.049
  152SAPE  C31016841   0.283   2.033   4.992
  152SAPE  H10X16842   0.262   2.021   4.884
  152SAPE  H10Y16843   0.321   1.934   5.023
  152SAPE  C31116844   0.401   2.137   4.999
  152SAPE  H11X16845   0.440   2.125   5.102
  152SAPE  H11Y16846   0.364   2.239   4.975
  152SAPE  C31216847   0.519   2.098   4.902
  152SAPE  H12X16848   0.473   2.047   4.815
  152SAPE  H12Y16849   0.583   2.016   4.941
  152SAPE  C31316850   0.583   2.232   4.863
  152SAPE  H13X16851   0.641   2.272   4.949
  152SAPE  H13Y16852   0.510   2.310   4.834
  152SAPE  C31416853   0.671   2.210   4.738
  152SAPE  H14X16854   0.601   2.179   4.657
  152SAPE  H14Y16855   0.737   2.121   4.749
  152SAPE  C31516856   0.749   2.332   4.689
  152SAPE  H15X16857   0.684   2.422   4.686
  152SAPE  H15Y16858   0.781   2.315   4.585
  152SAPE  C31616859   0.887   2.355   4.763
  152SAPE  H16X16860   0.942   2.260   4.746
  152SAPE  H16Y16861   0.867   2.363   4.872
  152SAPE  C31716862   0.954   2.478   4.708
  152SAPE  H17X16863   0.881   2.561   4.716
  152SAPE  H17Y16864   0.970   2.464   4.599
  152SAPE  C31816865   1.080   2.531   4.774
  152SAPE  H18X16866   1.123   2.606   4.703
  152SAPE  H18Y16867   1.156   2.450   4.780
  152SAPE  H18Z16868   1.053   2.574   4.873
  153SAPE     N16869   6.434   1.467   6.653
  153SAPE   HN116870   6.383   1.536   6.712
  153SAPE   HN216871   6.464   1.383   6.706
  153SAPE   HN316872   6.528   1.501   6.624
  153SAPE   C1216873   6.362   1.424   6.532
  153SAPE  H12A16874   6.403   1.480   6.445
  153SAPE  H12B16875   6.259   1.467   6.534
  153SAPE   C1116876   6.343   1.273   6.507
  153SAPE  H11A16877   6.439   1.231   6.471
  153SAPE  H11B16878   6.265   1.268   6.427
  153SAPE     P16879   6.406   1.125   6.718
  153SAPE   O1316880   6.508   1.222   6.782
  153SAPE   O1416881   6.331   1.048   6.817
  153SAPE   O1216882   6.305   1.204   6.625
  153SAPE   O1116883   6.489   1.032   6.620
  153SAPE    C116884   6.476   0.888   6.616
  153SAPE    HA16885   6.572   0.839   6.589
  153SAPE    HB16886   6.437   0.848   6.712
  153SAPE    C216887   6.397   0.840   6.493
  153SAPE    HS16888   6.458   0.837   6.400
  153SAPE   O2116889   6.286   0.926   6.464
  153SAPE   C2116890   6.260   0.960   6.338
  153SAPE   O2216891   6.329   0.932   6.238
  153SAPE   C2216892   6.126   1.019   6.324
  153SAPE   H2R16893   6.042   0.947   6.316
  153SAPE   H2S16894   6.107   1.080   6.415
  153SAPE    C316895   6.354   0.693   6.504
  153SAPE    HX16896   6.270   0.687   6.575
  153SAPE    HY16897   6.442   0.639   6.546
  153SAPE   O3116898   6.322   0.645   6.379
  153SAPE   C3116899   6.198   0.645   6.336
  153SAPE   O3216900   6.108   0.714   6.383
  153SAPE   C3216901   6.184   0.553   6.217
  153SAPE   H2X16902   6.184   0.451   6.261
  153SAPE   H2Y16903   6.276   0.562   6.155
  153SAPE   C2316904   6.113   1.102   6.191
  153SAPE   H3R16905   6.110   1.034   6.104
  153SAPE   H3S16906   6.209   1.158   6.185
  153SAPE   C2416907   6.000   1.206   6.180
  153SAPE   H4R16908   6.028   1.277   6.099
  153SAPE   H4S16909   5.988   1.255   6.279
  153SAPE   C2516910   5.874   1.131   6.139
  153SAPE   H5R16911   5.863   1.042   6.203
  153SAPE   C2616912   5.796   1.160   6.037
  153SAPE   H6R16913   5.708   1.097   6.014
  153SAPE   C2716914   5.797   1.270   5.935
  153SAPE   H7R16915   5.842   1.236   5.839
  153SAPE   H7S16916   5.868   1.351   5.963
  153SAPE   C2816917   5.666   1.331   5.887
  153SAPE   H8R16918   5.598   1.258   5.841
  153SAPE   C2916919   5.629   1.460   5.910
  153SAPE   H9R16920   5.532   1.499   5.878
  153SAPE  C21016921   5.703   1.572   5.991
  153SAPE  H10R16922   5.750   1.545   6.088
  153SAPE  H10S16923   5.623   1.639   6.028
  153SAPE  C21116924   5.815   1.643   5.927
  153SAPE  H11R16925   5.909   1.646   5.985
  153SAPE  C21216926   5.813   1.726   5.821
  153SAPE  H12R16927   5.903   1.783   5.796
  153SAPE  C21316928   5.682   1.757   5.753
  153SAPE  H13R16929   5.653   1.864   5.760
  153SAPE  H13S16930   5.596   1.714   5.809
  153SAPE  C21416931   5.659   1.715   5.607
  153SAPE  H14R16932   5.625   1.611   5.603
  153SAPE  C21516933   5.638   1.801   5.503
  153SAPE  H15R16934   5.604   1.751   5.411
  153SAPE  C21616935   5.671   1.945   5.500
  153SAPE  H16R16936   5.700   1.986   5.599
  153SAPE  H16S16937   5.579   2.005   5.484
  153SAPE  C21716938   5.776   1.986   5.391
  153SAPE  H17R16939   5.864   1.921   5.409
  153SAPE  H17S16940   5.792   2.090   5.429
  153SAPE  C21816941   5.729   1.991   5.243
  153SAPE  H18R16942   5.624   2.028   5.235
  153SAPE  H18S16943   5.727   1.889   5.198
  153SAPE  C21916944   5.828   2.077   5.162
  153SAPE  H19R16945   5.934   2.046   5.169
  153SAPE  H19S16946   5.828   2.177   5.211
  153SAPE  C22016947   5.790   2.094   5.020
  153SAPE  H20R16948   5.788   1.994   4.972
  153SAPE  H20S16949   5.872   2.155   4.976
  153SAPE  H20T16950   5.692   2.141   4.996
  153SAPE   C3316951   6.063   0.581   6.117
  153SAPE   H3X16952   5.969   0.584   6.176
  153SAPE   H3Y16953   6.059   0.488   6.056
  153SAPE   C3416954   6.078   0.706   6.031
  153SAPE   H4X16955   6.162   0.707   5.958
  153SAPE   H4Y16956   6.098   0.794   6.095
  153SAPE   C3516957   5.949   0.739   5.969
  153SAPE   H5X16958   5.944   0.844   5.932
  153SAPE   H5Y16959   5.888   0.730   6.062
  153SAPE   C3616960   5.918   0.638   5.852
  153SAPE   H6X16961   5.907   0.538   5.901
  153SAPE   H6Y16962   6.003   0.634   5.780
  153SAPE   C3716963   5.798   0.673   5.759
  153SAPE   H7X16964   5.823   0.772   5.714
  153SAPE   H7Y16965   5.705   0.700   5.813
  153SAPE   C3816966   5.761   0.558   5.656
  153SAPE   H8X16967   5.734   0.469   5.718
  153SAPE   H8Y16968   5.855   0.539   5.599
  153SAPE   C3916969   5.644   0.601   5.571
  153SAPE   H9X16970   5.673   0.703   5.537
  153SAPE   H9Y16971   5.552   0.606   5.634
  153SAPE  C31016972   5.620   0.509   5.449
  153SAPE  H10X16973   5.591   0.411   5.493
  153SAPE  H10Y16974   5.713   0.514   5.389
  153SAPE  C31116975   5.512   0.554   5.354
  153SAPE  H11X16976   5.541   0.646   5.300
  153SAPE  H11Y16977   5.434   0.606   5.415
  153SAPE  C31216978   5.442   0.455   5.259
  153SAPE  H12X16979   5.334   0.482   5.264
  153SAPE  H12Y16980   5.453   0.354   5.306
  153SAPE  C31316981   5.505   0.441   5.120
  153SAPE  H13X16982   5.614   0.420   5.129
  153SAPE  H13Y16983   5.483   0.536   5.067
  153SAPE  C31416984   5.438   0.327   5.047
  153SAPE  H14X16985   5.451   0.229   5.098
  153SAPE  H14Y16986   5.487   0.305   4.949
  153SAPE  C31516987   5.292   0.357   5.016
  153SAPE  H15X16988   5.305   0.436   4.939
  153SAPE  H15Y16989   5.242   0.396   5.107
  153SAPE  C31616990   5.204   0.241   4.962
  153SAPE  H16X16991   5.230   0.208   4.859
  153SAPE  H16Y16992   5.103   0.288   4.959
  153SAPE  C31716993   5.206   0.131   5.059
  153SAPE  H17X16994   5.194   0.175   5.161
  153SAPE  H17Y16995   5.307   0.086   5.068
  153SAPE  C31816996   5.099   0.028   5.038
  153SAPE  H18X16997   4.998   0.072   5.021
  153SAPE  H18Y16998   5.102   6.758   5.123
  153SAPE  H18Z16999   5.118   6.775   4.943
  154SAPE     N17000   4.157   0.685   6.527
  154SAPE   HN117001   4.089   0.607   6.537
  154SAPE   HN217002   4.242   0.636   6.562
  154SAPE   HN317003   4.136   0.757   6.599
  154SAPE   C1217004   4.163   0.733   6.384
  154SAPE  H12A17005   4.209   0.645   6.333
  154SAPE  H12B17006   4.230   0.821   6.383
  154SAPE   C1117007   4.028   0.774   6.329
  154SAPE  H11A17008   4.035   0.800   6.221
  154SAPE  H11B17009   4.008   0.865   6.391
  154SAPE     P17010   3.774   0.699   6.326
  154SAPE   O1317011   3.716   0.558   6.325
  154SAPE   O1417012   3.723   0.790   6.426
  154SAPE   O1217013   3.930   0.670   6.353
  154SAPE   O1117014   3.781   0.765   6.182
  154SAPE    C117015   3.715   0.895   6.151
  154SAPE    HA17016   3.763   0.960   6.227
  154SAPE    HB17017   3.732   0.909   6.042
  154SAPE    C217018   3.561   0.894   6.167
  154SAPE    HS17019   3.533   0.887   6.275
  154SAPE   O2117020   3.513   0.780   6.093
  154SAPE   C2117021   3.394   0.744   6.110
  154SAPE   O2217022   3.315   0.797   6.187
  154SAPE   C2217023   3.359   0.622   6.025
  154SAPE   H2R17024   3.388   0.536   6.089
  154SAPE   H2S17025   3.248   0.620   6.021
  154SAPE    C317026   3.495   1.028   6.118
  154SAPE    HX17027   3.527   1.115   6.178
  154SAPE    HY17028   3.385   1.011   6.127
  154SAPE   O3117029   3.535   1.063   5.985
  154SAPE   C3117030   3.456   1.017   5.891
  154SAPE   O3217031   3.348   0.958   5.909
  154SAPE   C3217032   3.517   1.042   5.752
  154SAPE   H2X17033   3.622   1.006   5.757
  154SAPE   H2Y17034   3.508   1.149   5.724
  154SAPE   C2317035   3.423   0.604   5.888
  154SAPE   H3R17036   3.410   0.706   5.844
  154SAPE   H3S17037   3.356   0.541   5.826
  154SAPE   C2417038   3.564   0.546   5.893
  154SAPE   H4R17039   3.640   0.608   5.945
  154SAPE   H4S17040   3.601   0.535   5.788
  154SAPE   C2517041   3.562   0.403   5.944
  154SAPE   H5R17042   3.528   0.406   6.049
  154SAPE   C2617043   3.612   0.286   5.893
  154SAPE   H6R17044   3.593   0.193   5.949
  154SAPE   C2717045   3.691   0.274   5.759
  154SAPE   H7R17046   3.771   0.350   5.755
  154SAPE   H7S17047   3.631   0.295   5.668
  154SAPE   C2817048   3.757   0.140   5.756
  154SAPE   H8R17049   3.809   0.106   5.846
  154SAPE   C2917050   3.754   0.052   5.655
  154SAPE   H9R17051   3.802   6.756   5.674
  154SAPE  C21017052   3.688   0.072   5.523
  154SAPE  H10R17053   3.698   0.180   5.500
  154SAPE  H10S17054   3.580   0.046   5.537
  154SAPE  C21117055   3.748   6.778   5.423
  154SAPE  H11R17056   3.849   6.740   5.441
  154SAPE  C21217057   3.679   6.699   5.338
  154SAPE  H12R17058   3.738   6.632   5.273
  154SAPE  C21317059   3.530   6.721   5.292
  154SAPE  H13R17060   3.536   6.751   5.186
  154SAPE  H13S17061   3.473   0.002   5.340
  154SAPE  C21417062   3.444   6.593   5.301
  154SAPE  H14R17063   3.400   6.574   5.400
  154SAPE  C21517064   3.409   6.505   5.206
  154SAPE  H15R17065   3.351   6.413   5.224
  154SAPE  C21617066   3.468   6.509   5.069
  154SAPE  H16R17067   3.511   6.411   5.039
  154SAPE  H16S17068   3.562   6.568   5.066
  154SAPE  C21717069   3.384   6.544   4.947
  154SAPE  H17R17070   3.283   6.497   4.939
  154SAPE  H17S17071   3.423   6.529   4.844
  154SAPE  C21817072   3.381   6.692   4.940
  154SAPE  H18R17073   3.482   6.738   4.946
  154SAPE  H18S17074   3.330   6.732   5.030
  154SAPE  C21917075   3.307   6.747   4.813
  154SAPE  H19R17076   3.358   6.721   4.717
  154SAPE  H19S17077   3.293   0.056   4.819
  154SAPE  C22017078   3.167   6.689   4.794
  154SAPE  H20R17079   3.162   6.578   4.787
  154SAPE  H20S17080   3.127   6.731   4.699
  154SAPE  H20T17081   3.096   6.724   4.872
  154SAPE   C3317082   3.436   0.966   5.645
  154SAPE   H3X17083   3.340   1.019   5.628
  154SAPE   H3Y17084   3.429   0.860   5.679
  154SAPE   C3417085   3.507   0.972   5.507
  154SAPE   H4X17086   3.614   0.947   5.519
  154SAPE   H4Y17087   3.514   1.077   5.472
  154SAPE   C3517088   3.425   0.899   5.398
  154SAPE   H5X17089   3.320   0.934   5.393
  154SAPE   H5Y17090   3.425   0.791   5.424
  154SAPE   C3617091   3.481   0.926   5.259
  154SAPE   H6X17092   3.589   0.903   5.270
  154SAPE   H6Y17093   3.472   1.034   5.236
  154SAPE   C3717094   3.409   0.845   5.146
  154SAPE   H7X17095   3.306   0.885   5.142
  154SAPE   H7Y17096   3.409   0.736   5.170
  154SAPE   C3817097   3.477   0.859   5.007
  154SAPE   H8X17098   3.578   0.814   5.018
  154SAPE   H8Y17099   3.489   0.970   4.999
  154SAPE   C3917100   3.406   0.803   4.890
  154SAPE   H9X17101   3.315   0.866   4.892
  154SAPE   H9Y17102   3.375   0.699   4.913
  154SAPE  C31017103   3.477   0.821   4.756
  154SAPE  H10X17104   3.527   0.920   4.748
  154SAPE  H10Y17105   3.403   0.817   4.674
  154SAPE  C31117106   3.590   0.720   4.733
  154SAPE  H11X17107   3.546   0.620   4.710
  154SAPE  H11Y17108   3.645   0.710   4.829
  154SAPE  C31217109   3.679   0.738   4.610
  154SAPE  H12X17110   3.742   0.829   4.605
  154SAPE  H12Y17111   3.615   0.746   4.519
  154SAPE  C31317112   3.751   0.607   4.574
  154SAPE  H13X17113   3.690   0.519   4.603
  154SAPE  H13Y17114   3.852   0.604   4.620
  154SAPE  C31417115   3.775   0.601   4.427
  154SAPE  H14X17116   3.682   0.559   4.384
  154SAPE  H14Y17117   3.854   0.523   4.418
  154SAPE  C31517118   3.820   0.725   4.349
  154SAPE  H15X17119   3.900   0.770   4.411
  154SAPE  H15Y17120   3.742   0.805   4.350
  154SAPE  C31617121   3.884   0.680   4.217
  154SAPE  H16X17122   3.976   0.623   4.242
  154SAPE  H16Y17123   3.904   0.762   4.146
  154SAPE  C31717124   3.794   0.584   4.133
  154SAPE  H17X17125   3.708   0.645   4.100
  154SAPE  H17Y17126   3.752   0.503   4.195
  154SAPE  C31817127   3.865   0.531   4.008
  154SAPE  H18X17128   3.923   0.447   4.053
  154SAPE  H18Y17129   3.928   0.605   3.954
  154SAPE  H18Z17130   3.789   0.502   3.932
  155SAPE     N17131   5.594   5.634   7.083
  155SAPE   HN117132   5.612   5.693   6.999
  155SAPE   HN217133   5.549   5.545   7.052
  155SAPE   HN317134   5.525   5.683   7.144
  155SAPE   C1217135   5.714   5.606   7.171
  155SAPE  H12A17136   5.747   5.502   7.147
  155SAPE  H12B17137   5.690   5.596   7.279
  155SAPE   C1117138   5.834   5.696   7.138
  155SAPE  H11A17139   5.924   5.671   7.198
  155SAPE  H11B17140   5.809   5.799   7.173
  155SAPE     P17141   5.954   5.776   6.922
  155SAPE   O1317142   5.948   5.915   6.980
  155SAPE   O1417143   6.087   5.708   6.911
  155SAPE   O1217144   5.859   5.683   7.001
  155SAPE   O1117145   5.892   5.792   6.780
  155SAPE    C117146   5.765   5.854   6.750
  155SAPE    HA17147   5.681   5.810   6.807
  155SAPE    HB17148   5.768   5.962   6.777
  155SAPE    C217149   5.738   5.826   6.595
  155SAPE    HS17150   5.768   5.720   6.582
  155SAPE   O2117151   5.819   5.915   6.523
  155SAPE   C2117152   5.863   5.871   6.405
  155SAPE   O2217153   5.862   5.758   6.362
  155SAPE   C2217154   5.932   5.991   6.343
  155SAPE   H2R17155   5.914   6.080   6.408
  155SAPE   H2S17156   6.041   5.974   6.346
  155SAPE    C317157   5.584   5.847   6.556
  155SAPE    HX17158   5.569   5.955   6.575
  155SAPE    HY17159   5.520   5.785   6.623
  155SAPE   O3117160   5.560   5.810   6.417
  155SAPE   C3117161   5.544   5.678   6.395
  155SAPE   O3217162   5.559   5.597   6.483
  155SAPE   C3217163   5.533   5.646   6.251
  155SAPE   H2X17164   5.566   5.731   6.187
  155SAPE   H2Y17165   5.423   5.641   6.234
  155SAPE   C2317166   5.898   6.035   6.196
  155SAPE   H3R17167   5.867   5.942   6.145
  155SAPE   H3S17168   5.983   6.093   6.154
  155SAPE   C2417169   5.780   6.136   6.189
  155SAPE   H4R17170   5.775   6.189   6.091
  155SAPE   H4S17171   5.791   6.220   6.260
  155SAPE   C2517172   5.641   6.076   6.209
  155SAPE   H5R17173   5.607   6.085   6.313
  155SAPE   C2617174   5.555   6.015   6.124
  155SAPE   H6R17175   5.455   5.988   6.163
  155SAPE   C2717176   5.581   5.979   5.974
  155SAPE   H7R17177   5.607   6.077   5.930
  155SAPE   H7S17178   5.492   5.931   5.928
  155SAPE   C2817179   5.695   5.879   5.956
  155SAPE   H8R17180   5.745   5.848   6.049
  155SAPE   C2917181   5.749   5.844   5.837
  155SAPE   H9R17182   5.833   5.774   5.840
  155SAPE  C21017183   5.709   5.894   5.695
  155SAPE  H10R17184   5.791   5.923   5.626
  155SAPE  H10S17185   5.662   5.995   5.698
  155SAPE  C21117186   5.602   5.807   5.635
  155SAPE  H11R17187   5.510   5.799   5.694
  155SAPE  C21217188   5.605   5.758   5.509
  155SAPE  H12R17189   5.522   5.687   5.494
  155SAPE  C21317190   5.713   5.782   5.407
  155SAPE  H13R17191   5.781   5.694   5.407
  155SAPE  H13S17192   5.774   5.872   5.428
  155SAPE  C21417193   5.638   5.797   5.275
  155SAPE  H14R17194   5.592   5.896   5.267
  155SAPE  C21517195   5.611   5.698   5.186
  155SAPE  H15R17196   5.557   5.712   5.091
  155SAPE  C21617197   5.635   5.549   5.206
  155SAPE  H16R17198   5.537   5.504   5.233
  155SAPE  H16S17199   5.700   5.527   5.293
  155SAPE  C21717200   5.674   5.482   5.073
  155SAPE  H17R17201   5.614   5.522   4.988
  155SAPE  H17S17202   5.652   5.374   5.082
  155SAPE  C21817203   5.824   5.487   5.043
  155SAPE  H18R17204   5.880   5.421   5.112
  155SAPE  H18S17205   5.857   5.593   5.044
  155SAPE  C21917206   5.856   5.448   4.894
  155SAPE  H19R17207   5.780   5.504   4.834
  155SAPE  H19S17208   5.847   5.339   4.878
  155SAPE  C22017209   5.996   5.472   4.848
  155SAPE  H20R17210   6.019   5.581   4.847
  155SAPE  H20S17211   6.015   5.430   4.747
  155SAPE  H20T17212   6.072   5.425   4.914
  155SAPE   C3317213   5.609   5.520   6.199
  155SAPE   H3X17214   5.561   5.430   6.245
  155SAPE   H3Y17215   5.715   5.521   6.231
  155SAPE   C3417216   5.589   5.511   6.042
  155SAPE   H4X17217   5.618   5.605   5.991
  155SAPE   H4Y17218   5.484   5.497   6.008
  155SAPE   C3517219   5.687   5.409   5.996
  155SAPE   H5X17220   5.673   5.314   6.052
  155SAPE   H5Y17221   5.789   5.450   6.010
  155SAPE   C3617222   5.683   5.373   5.843
  155SAPE   H6X17223   5.766   5.311   5.802
  155SAPE   H6Y17224   5.696   5.463   5.779
  155SAPE   C3717225   5.556   5.299   5.802
  155SAPE   H7X17226   5.470   5.357   5.842
  155SAPE   H7Y17227   5.547   5.198   5.846
  155SAPE   C3817228   5.534   5.308   5.653
  155SAPE   H8X17229   5.580   5.403   5.620
  155SAPE   H8Y17230   5.428   5.314   5.620
  155SAPE   C3917231   5.601   5.201   5.560
  155SAPE   H9X17232   5.563   5.100   5.583
  155SAPE   H9Y17233   5.710   5.205   5.578
  155SAPE  C31017234   5.557   5.223   5.416
  155SAPE  H10X17235   5.571   5.329   5.386
  155SAPE  H10Y17236   5.449   5.200   5.407
  155SAPE  C31117237   5.631   5.127   5.323
  155SAPE  H11X17238   5.614   5.030   5.376
  155SAPE  H11Y17239   5.740   5.148   5.316
  155SAPE  C31217240   5.578   5.101   5.175
  155SAPE  H12X17241   5.641   5.142   5.094
  155SAPE  H12Y17242   5.474   5.136   5.163
  155SAPE  C31317243   5.555   4.954   5.149
  155SAPE  H13X17244   5.489   4.962   5.060
  155SAPE  H13Y17245   5.489   4.917   5.231
  155SAPE  C31417246   5.681   4.869   5.126
  155SAPE  H14X17247   5.738   4.874   5.221
  155SAPE  H14Y17248   5.740   4.919   5.047
  155SAPE  C31517249   5.643   4.723   5.097
  155SAPE  H15X17250   5.572   4.699   5.179
  155SAPE  H15Y17251   5.737   4.665   5.101
  155SAPE  C31617252   5.571   4.710   4.963
  155SAPE  H16X17253   5.629   4.756   4.880
  155SAPE  H16Y17254   5.480   4.773   4.975
  155SAPE  C31717255   5.530   4.564   4.925
  155SAPE  H17X17256   5.461   4.568   4.837
  155SAPE  H17Y17257   5.467   4.518   5.004
  155SAPE  C31817258   5.646   4.464   4.893
  155SAPE  H18X17259   5.607   4.362   4.873
  155SAPE  H18Y17260   5.713   4.461   4.981
  155SAPE  H18Z17261   5.701   4.507   4.806
  156SAPE     N17262   0.718   0.538   6.646
  156SAPE   HN117263   0.706   0.636   6.615
  156SAPE   HN217264   0.815   0.501   6.630
  156SAPE   HN317265   0.667   0.478   6.579
  156SAPE   C1217266   0.677   0.501   6.787
  156SAPE  H12A17267   0.670   0.595   6.846
  156SAPE  H12B17268   0.757   0.440   6.834
  156SAPE   C1117269   0.535   0.449   6.790
  156SAPE  H11A17270   0.515   0.452   6.899
  156SAPE  H11B17271   0.545   0.342   6.762
  156SAPE     P17272   0.309   0.583   6.740
  156SAPE   O1317273   0.232   0.479   6.812
  156SAPE   O1417274   0.326   0.710   6.810
  156SAPE   O1217275   0.453   0.528   6.706
  156SAPE   O1117276   0.248   0.618   6.599
  156SAPE    C117277   0.319   0.681   6.497
  156SAPE    HA17278   0.264   0.771   6.462
  156SAPE    HB17279   0.416   0.722   6.531
  156SAPE    C217280   0.360   0.581   6.375
  156SAPE    HS17281   0.443   0.520   6.416
  156SAPE   O2117282   0.371   0.663   6.258
  156SAPE   C2117283   0.456   0.619   6.162
  156SAPE   O2217284   0.511   0.509   6.163
  156SAPE   C2217285   0.462   0.724   6.049
  156SAPE   H2R17286   0.358   0.756   6.025
  156SAPE   H2S17287   0.511   0.813   6.094
  156SAPE    C317288   0.252   0.470   6.351
  156SAPE    HX17289   0.162   0.531   6.328
  156SAPE    HY17290   0.240   0.423   6.451
  156SAPE   O3117291   0.289   0.383   6.239
  156SAPE   C3117292   0.375   0.286   6.271
  156SAPE   O3217293   0.406   0.256   6.386
  156SAPE   C3217294   0.448   0.226   6.148
  156SAPE   H2X17295   0.547   0.275   6.144
  156SAPE   H2Y17296   0.391   0.272   6.065
  156SAPE   C2317297   0.537   0.674   5.926
  156SAPE   H3R17298   0.562   0.566   5.929
  156SAPE   H3S17299   0.631   0.733   5.930
  156SAPE   C2417300   0.458   0.721   5.797
  156SAPE   H4R17301   0.532   0.720   5.714
  156SAPE   H4S17302   0.424   0.824   5.818
  156SAPE   C2517303   0.344   0.620   5.781
  156SAPE   H5R17304   0.320   0.553   5.864
  156SAPE   C2617305   0.274   0.595   5.670
  156SAPE   H6R17306   0.193   0.522   5.685
  156SAPE   C2717307   0.295   0.647   5.528
  156SAPE   H7R17308   0.332   0.751   5.537
  156SAPE   H7S17309   0.198   0.659   5.475
  156SAPE   C2817310   0.387   0.557   5.443
  156SAPE   H8R17311   0.475   0.524   5.500
  156SAPE   C2917312   0.359   0.519   5.318
  156SAPE   H9R17313   0.430   0.451   5.268
  156SAPE  C21017314   0.248   0.570   5.221
  156SAPE  H10R17315   0.153   0.524   5.256
  156SAPE  H10S17316   0.259   0.532   5.117
  156SAPE  C21117317   0.252   0.722   5.199
  156SAPE  H11R17318   0.351   0.765   5.221
  156SAPE  C21217319   0.148   0.806   5.192
  156SAPE  H12R17320   0.166   0.914   5.182
  156SAPE  C21317321   0.010   0.768   5.185
  156SAPE  H13R17322   6.758   0.759   5.283
  156SAPE  H13S17323   0.006   0.671   5.131
  156SAPE  C21417324   6.716   0.857   5.098
  156SAPE  H14R17325   6.762   0.937   5.038
  156SAPE  C21517326   6.581   0.833   5.090
  156SAPE  H15R17327   6.527   0.903   5.024
  156SAPE  C21617328   6.495   0.720   5.155
  156SAPE  H16R17329   6.422   0.761   5.227
  156SAPE  H16S17330   6.555   0.649   5.215
  156SAPE  C21717331   6.428   0.622   5.043
  156SAPE  H17R17332   6.374   0.549   5.107
  156SAPE  H17S17333   6.508   0.577   4.980
  156SAPE  C21817334   6.322   0.693   4.961
  156SAPE  H18R17335   6.368   0.783   4.916
  156SAPE  H18S17336   6.253   0.723   5.042
  156SAPE  C21917337   6.280   0.604   4.853
  156SAPE  H19R17338   6.259   0.503   4.893
  156SAPE  H19S17339   6.372   0.582   4.794
  156SAPE  C22017340   6.166   0.663   4.772
  156SAPE  H20R17341   6.192   0.767   4.743
  156SAPE  H20S17342   6.068   0.677   4.821
  156SAPE  H20T17343   6.144   0.599   4.683
  156SAPE   C3317344   0.452   0.069   6.139
  156SAPE   H3X17345   0.348   0.032   6.140
  156SAPE   H3Y17346   0.503   0.032   6.230
  156SAPE   C3417347   0.524   0.018   6.011
  156SAPE   H4X17348   0.533   6.707   6.009
  156SAPE   H4Y17349   0.630   0.051   6.017
  156SAPE   C3517350   0.451   0.057   5.885
  156SAPE   H5X17351   0.462   0.167   5.875
  156SAPE   H5Y17352   0.354   0.004   5.883
  156SAPE   C3617353   0.493   0.002   5.752
  156SAPE   H6X17354   0.498   6.692   5.761
  156SAPE   H6Y17355   0.600   0.027   5.737
  156SAPE   C3717356   0.408   0.050   5.633
  156SAPE   H7X17357   0.417   0.160   5.636
  156SAPE   H7Y17358   0.304   0.010   5.639
  156SAPE   C3817359   0.463   6.796   5.499
  156SAPE   H8X17360   0.430   6.691   5.478
  156SAPE   H8Y17361   0.574   6.800   5.506
  156SAPE   C3917362   0.430   0.093   5.385
  156SAPE   H9X17363   0.484   0.188   5.408
  156SAPE   H9Y17364   0.321   0.112   5.388
  156SAPE  C31017365   0.492   0.035   5.253
  156SAPE  H10X17366   0.446   6.735   5.240
  156SAPE  H10Y17367   0.603   0.031   5.253
  156SAPE  C31117368   0.453   0.114   5.129
  156SAPE  H11X17369   0.492   0.218   5.144
  156SAPE  H11Y17370   0.345   0.134   5.118
  156SAPE  C31217371   0.523   0.070   4.999
  156SAPE  H12X17372   0.446   0.056   4.920
  156SAPE  H12Y17373   0.576   6.775   5.017
  156SAPE  C31317374   0.613   0.184   4.934
  156SAPE  H13X17375   0.702   0.209   4.995
  156SAPE  H13Y17376   0.546   0.273   4.927
  156SAPE  C31417377   0.668   0.161   4.793
  156SAPE  H14X17378   0.581   0.162   4.723
  156SAPE  H14Y17379   0.719   0.063   4.793
  156SAPE  C31517380   0.759   0.270   4.744
  156SAPE  H15X17381   0.838   0.285   4.820
  156SAPE  H15Y17382   0.697   0.362   4.753
  156SAPE  C31617383   0.828   0.251   4.611
  156SAPE  H16X17384   0.895   0.164   4.628
  156SAPE  H16Y17385   0.903   0.330   4.587
  156SAPE  C31717386   0.744   0.243   4.488
  156SAPE  H17X17387   0.690   0.339   4.470
  156SAPE  H17Y17388   0.677   0.154   4.493
  156SAPE  C31817389   0.823   0.215   4.361
  156SAPE  H18X17390   0.875   0.117   4.367
  156SAPE  H18Y17391   0.909   0.282   4.343
  156SAPE  H18Z17392   0.762   0.213   4.267
  157SAPE     N17393   0.311   6.186   6.688
  157SAPE   HN117394   0.217   6.176   6.730
  157SAPE   HN217395   0.320   6.283   6.651
  157SAPE   HN317396   0.305   6.128   6.602
  157SAPE   C1217397   0.420   6.152   6.786
  157SAPE  H12A17398   0.464   6.057   6.749
  157SAPE  H12B17399   0.371   6.137   6.884
  157SAPE   C1117400   0.520   6.267   6.796
  157SAPE  H11A17401   0.573   6.255   6.894
  157SAPE  H11B17402   0.467   6.364   6.802
  157SAPE     P17403   0.740   6.341   6.675
  157SAPE   O1317404   0.732   6.467   6.758
  157SAPE   O1417405   0.852   6.250   6.710
  157SAPE   O1217406   0.603   6.259   6.680
  157SAPE   O1117407   0.760   6.382   6.525
  157SAPE    C117408   0.669   6.332   6.422
  157SAPE    HA17409   0.714   6.347   6.321
  157SAPE    HB17410   0.634   6.228   6.439
  157SAPE    C217411   0.554   6.435   6.415
  157SAPE    HS17412   0.497   6.431   6.511
  157SAPE   O2117413   0.467   6.406   6.300
  157SAPE   C2117414   0.374   6.314   6.322
  157SAPE   O2217415   0.364   6.250   6.426
  157SAPE   C2217416   0.270   6.323   6.214
  157SAPE   H2R17417   0.245   6.215   6.202
  157SAPE   H2S17418   0.182   6.373   6.259
  157SAPE    C317419   0.595   6.585   6.400
  157SAPE    HX17420   0.631   6.629   6.495
  157SAPE    HY17421   0.493   6.628   6.388
  157SAPE   O3117422   0.675   6.608   6.280
  157SAPE   C3117423   0.787   6.680   6.293
  157SAPE   O3217424   0.828   6.735   6.398
  157SAPE   C3217425   0.857   6.695   6.159
  157SAPE   H2X17426   0.967   6.698   6.173
  157SAPE   H2Y17427   0.817   6.794   6.126
  157SAPE   C2317428   0.312   6.386   6.077
  157SAPE   H3R17429   0.419   6.371   6.051
  157SAPE   H3S17430   0.312   6.495   6.095
  157SAPE   C2417431   0.214   6.352   5.961
  157SAPE   H4R17432   0.114   6.369   6.006
  157SAPE   H4S17433   0.218   6.243   5.943
  157SAPE   C2517434   0.222   6.436   5.836
  157SAPE   H5R17435   0.262   6.537   5.853
  157SAPE   C2617436   0.215   6.388   5.705
  157SAPE   H6R17437   0.232   6.462   5.625
  157SAPE   C2717438   0.182   6.248   5.662
  157SAPE   H7R17439   0.126   6.193   5.740
  157SAPE   H7S17440   0.284   6.207   5.645
  157SAPE   C2817441   0.108   6.235   5.526
  157SAPE   H8R17442   6.800   6.216   5.529
  157SAPE   C2917443   0.163   6.259   5.405
  157SAPE   H9R17444   0.098   6.246   5.318
  157SAPE  C21017445   0.307   6.271   5.368
  157SAPE  H10R17446   0.383   6.279   5.448
  157SAPE  H10S17447   0.312   6.367   5.311
  157SAPE  C21117448   0.347   6.166   5.259
  157SAPE  H11R17449   0.408   6.085   5.302
  157SAPE  C21217450   0.318   6.167   5.132
  157SAPE  H12R17451   0.350   6.086   5.066
  157SAPE  C21317452   0.236   6.272   5.056
  157SAPE  H13R17453   0.163   6.325   5.121
  157SAPE  H13S17454   0.164   6.226   4.986
  157SAPE  C21417455   0.314   6.376   4.980
  157SAPE  H14R17456   0.368   6.443   5.049
  157SAPE  C21517457   0.319   6.396   4.843
  157SAPE  H15R17458   0.378   6.481   4.806
  157SAPE  C21617459   0.251   6.312   4.733
  157SAPE  H16R17460   0.153   6.353   4.702
  157SAPE  H16S17461   0.233   6.208   4.769
  157SAPE  C21717462   0.328   6.304   4.596
  157SAPE  H17R17463   0.404   6.225   4.614
  157SAPE  H17S17464   0.371   6.404   4.571
  157SAPE  C21817465   0.250   6.250   4.474
  157SAPE  H18R17466   0.164   6.318   4.456
  157SAPE  H18S17467   0.205   6.153   4.505
  157SAPE  C21917468   0.335   6.224   4.346
  157SAPE  H19R17469   0.278   6.172   4.267
  157SAPE  H19S17470   0.420   6.161   4.381
  157SAPE  C22017471   0.391   6.347   4.267
  157SAPE  H20R17472   0.301   6.404   4.236
  157SAPE  H20S17473   0.448   6.326   4.174
  157SAPE  H20T17474   0.452   6.414   4.332
  157SAPE   C3317475   0.819   6.590   6.055
  157SAPE   H3X17476   0.725   6.533   6.070
  157SAPE   H3Y17477   0.884   6.501   6.071
  157SAPE   C3417478   0.837   6.652   5.921
  157SAPE   H4X17479   0.947   6.660   5.912
  157SAPE   H4Y17480   0.798   6.755   5.908
  157SAPE   C3517481   0.807   6.557   5.804
  157SAPE   H5X17482   0.696   6.544   5.807
  157SAPE   H5Y17483   0.867   6.465   5.818
  157SAPE   C3617484   0.846   6.621   5.670
  157SAPE   H6X17485   0.955   6.644   5.671
  157SAPE   H6Y17486   0.791   6.716   5.652
  157SAPE   C3717487   0.813   6.513   5.560
  157SAPE   H7X17488   0.702   6.516   5.556
  157SAPE   H7Y17489   0.843   6.410   5.587
  157SAPE   C3817490   0.867   6.553   5.424
  157SAPE   H8X17491   0.978   6.561   5.425
  157SAPE   H8Y17492   0.842   6.659   5.406
  157SAPE   C3917493   0.818   6.459   5.315
  157SAPE   H9X17494   0.713   6.441   5.346
  157SAPE   H9Y17495   0.871   6.365   5.339
  157SAPE  C31017496   0.835   6.496   5.170
  157SAPE  H10X17497   0.942   6.523   5.153
  157SAPE  H10Y17498   0.769   6.579   5.137
  157SAPE  C31117499   0.799   6.373   5.084
  157SAPE  H11X17500   0.691   6.350   5.094
  157SAPE  H11Y17501   0.854   6.287   5.126
  157SAPE  C31217502   0.813   6.386   4.932
  157SAPE  H12X17503   0.920   6.381   4.904
  157SAPE  H12Y17504   0.783   6.487   4.896
  157SAPE  C31317505   0.740   6.272   4.858
  157SAPE  H13X17506   0.632   6.270   4.884
  157SAPE  H13Y17507   0.780   6.175   4.895
  157SAPE  C31417508   0.765   6.281   4.709
  157SAPE  H14X17509   0.709   6.189   4.680
  157SAPE  H14Y17510   0.873   6.271   4.686
  157SAPE  C31517511   0.721   6.403   4.628
  157SAPE  H15X17512   0.774   6.493   4.665
  157SAPE  H15Y17513   0.614   6.412   4.659
  157SAPE  C31617514   0.726   6.406   4.471
  157SAPE  H16X17515   0.645   6.357   4.414
  157SAPE  H16Y17516   0.821   6.361   4.433
  157SAPE  C31717517   0.718   6.546   4.404
  157SAPE  H17X17518   0.798   6.608   4.449
  157SAPE  H17Y17519   0.625   6.601   4.431
  157SAPE  C31817520   0.734   6.534   4.257
  157SAPE  H18X17521   0.761   6.634   4.216
  157SAPE  H18Y17522   0.645   6.500   4.200
  157SAPE  H18Z17523   0.818   6.462   4.242
  158SAPE     N17524   3.219   4.652   6.881
  158SAPE   HN117525   3.196   4.604   6.970
  158SAPE   HN217526   3.129   4.656   6.829
  158SAPE   HN317527   3.283   4.584   6.835
  158SAPE   C1217528   3.290   4.787   6.893
  158SAPE  H12A17529   3.316   4.822   6.791
  158SAPE  H12B17530   3.385   4.773   6.949
  158SAPE   C1117531   3.200   4.883   6.977
  158SAPE  H11A17532   3.253   4.975   7.012
  158SAPE  H11B17533   3.183   4.844   7.079
  158SAPE     P17534   3.077   5.052   6.826
  158SAPE   O1317535   3.088   5.165   6.915
  158SAPE   O1417536   3.184   5.033   6.725
  158SAPE   O1217537   3.079   4.915   6.916
  158SAPE   O1117538   2.937   5.043   6.765
  158SAPE    C117539   2.909   4.962   6.653
  158SAPE    HA17540   2.978   4.877   6.637
  158SAPE    HB17541   2.805   4.923   6.655
  158SAPE    C217542   2.925   5.039   6.517
  158SAPE    HS17543   3.026   5.079   6.495
  158SAPE   O2117544   2.828   5.147   6.510
  158SAPE   C2117545   2.865   5.258   6.567
  158SAPE   O2217546   2.978   5.285   6.605
  158SAPE   C2217547   2.742   5.353   6.579
  158SAPE   H2R17548   2.754   5.435   6.505
  158SAPE   H2S17549   2.647   5.300   6.555
  158SAPE    C317550   2.902   4.937   6.404
  158SAPE    HX17551   2.794   4.917   6.416
  158SAPE    HY17552   2.941   4.836   6.430
  158SAPE   O3117553   2.932   4.991   6.274
  158SAPE   C3117554   3.053   4.976   6.238
  158SAPE   O3217555   3.147   4.938   6.304
  158SAPE   C3217556   3.068   5.005   6.087
  158SAPE   H2X17557   2.985   5.068   6.048
  158SAPE   H2Y17558   3.050   4.907   6.038
  158SAPE   C2317559   2.724   5.409   6.724
  158SAPE   H3R17560   2.817   5.451   6.768
  158SAPE   H3S17561   2.702   5.318   6.784
  158SAPE   C2417562   2.618   5.521   6.733
  158SAPE   H4R17563   2.655   5.612   6.681
  158SAPE   H4S17564   2.612   5.541   6.842
  158SAPE   C2517565   2.492   5.479   6.653
  158SAPE   H5R17566   2.422   5.405   6.695
  158SAPE   C2617567   2.447   5.538   6.538
  158SAPE   H6R17568   2.350   5.503   6.497
  158SAPE   C2717569   2.499   5.665   6.476
  158SAPE   H7R17570   2.610   5.661   6.466
  158SAPE   H7S17571   2.493   5.747   6.551
  158SAPE   C2817572   2.447   5.702   6.338
  158SAPE   H8R17573   2.345   5.665   6.321
  158SAPE   C2917574   2.504   5.782   6.241
  158SAPE   H9R17575   2.435   5.800   6.158
  158SAPE  C21017576   2.636   5.858   6.261
  158SAPE  H10R17577   2.644   5.894   6.366
  158SAPE  H10S17578   2.631   5.951   6.201
  158SAPE  C21117579   2.752   5.767   6.227
  158SAPE  H11R17580   2.760   5.683   6.297
  158SAPE  C21217581   2.854   5.793   6.131
  158SAPE  H12R17582   2.921   5.710   6.105
  158SAPE  C21317583   2.853   5.909   6.040
  158SAPE  H13R17584   2.958   5.942   6.025
  158SAPE  H13S17585   2.808   6.001   6.084
  158SAPE  C21417586   2.793   5.875   5.908
  158SAPE  H14R17587   2.723   5.789   5.909
  158SAPE  C21517588   2.812   5.945   5.798
  158SAPE  H15R17589   2.761   5.917   5.705
  158SAPE  C21617590   2.912   6.059   5.791
  158SAPE  H16R17591   3.001   6.032   5.730
  158SAPE  H16S17592   2.947   6.100   5.888
  158SAPE  C21717593   2.859   6.183   5.716
  158SAPE  H17R17594   2.941   6.258   5.721
  158SAPE  H17S17595   2.773   6.221   5.775
  158SAPE  C21817596   2.821   6.144   5.572
  158SAPE  H18R17597   2.730   6.081   5.570
  158SAPE  H18S17598   2.894   6.069   5.535
  158SAPE  C21917599   2.806   6.259   5.482
  158SAPE  H19R17600   2.811   6.234   5.374
  158SAPE  H19S17601   2.895   6.325   5.497
  158SAPE  C22017602   2.679   6.343   5.509
  158SAPE  H20R17603   2.594   6.307   5.446
  158SAPE  H20S17604   2.700   6.448   5.480
  158SAPE  H20T17605   2.637   6.334   5.612
  158SAPE   C3317606   3.205   5.055   6.036
  158SAPE   H3X17607   3.275   4.983   6.083
  158SAPE   H3Y17608   3.231   5.158   6.068
  158SAPE   C3417609   3.211   5.042   5.885
  158SAPE   H4X17610   3.227   4.936   5.855
  158SAPE   H4Y17611   3.306   5.093   5.862
  158SAPE   C3517612   3.102   5.118   5.809
  158SAPE   H5X17613   3.103   5.227   5.832
  158SAPE   H5Y17614   3.002   5.093   5.849
  158SAPE   C3617615   3.117   5.105   5.654
  158SAPE   H6X17616   3.103   4.997   5.629
  158SAPE   H6Y17617   3.226   5.122   5.641
  158SAPE   C3717618   3.026   5.204   5.583
  158SAPE   H7X17619   3.041   5.303   5.632
  158SAPE   H7Y17620   2.922   5.169   5.598
  158SAPE   C3817621   3.060   5.211   5.427
  158SAPE   H8X17622   2.992   5.286   5.381
  158SAPE   H8Y17623   3.027   5.113   5.386
  158SAPE   C3917624   3.208   5.240   5.391
  158SAPE   H9X17625   3.270   5.155   5.425
  158SAPE   H9Y17626   3.235   5.323   5.460
  158SAPE  C31017627   3.238   5.248   5.246
  158SAPE  H10X17628   3.340   5.290   5.236
  158SAPE  H10Y17629   3.163   5.314   5.198
  158SAPE  C31117630   3.252   5.112   5.171
  158SAPE  H11X17631   3.152   5.063   5.160
  158SAPE  H11Y17632   3.305   5.037   5.234
  158SAPE  C31217633   3.330   5.124   5.036
  158SAPE  H12X17634   3.343   5.027   4.983
  158SAPE  H12Y17635   3.426   5.173   5.063
  158SAPE  C31317636   3.263   5.225   4.940
  158SAPE  H13X17637   3.329   5.235   4.851
  158SAPE  H13Y17638   3.257   5.323   4.991
  158SAPE  C31417639   3.120   5.191   4.886
  158SAPE  H14X17640   3.044   5.230   4.956
  158SAPE  H14Y17641   3.113   5.080   4.875
  158SAPE  C31517642   3.097   5.260   4.753
  158SAPE  H15X17643   2.989   5.250   4.730
  158SAPE  H15Y17644   3.159   5.221   4.670
  158SAPE  C31617645   3.146   5.406   4.751
  158SAPE  H16X17646   3.256   5.406   4.769
  158SAPE  H16Y17647   3.081   5.451   4.828
  158SAPE  C31717648   3.133   5.476   4.615
  158SAPE  H17X17649   3.185   5.407   4.544
  158SAPE  H17Y17650   3.207   5.559   4.617
  158SAPE  C31817651   3.000   5.518   4.563
  158SAPE  H18X17652   3.015   5.579   4.471
  158SAPE  H18Y17653   2.947   5.565   4.648
  158SAPE  H18Z17654   2.944   5.432   4.519
  159SAPE     N17655   5.516   3.201   2.385
  159SAPE   HN117656   5.546   3.182   2.288
  159SAPE   HN217657   5.412   3.190   2.388
  159SAPE   HN317658   5.550   3.299   2.395
  159SAPE   C1217659   5.576   3.111   2.483
  159SAPE  H12A17660   5.545   3.136   2.587
  159SAPE  H12B17661   5.684   3.135   2.486
  159SAPE   C1117662   5.558   2.955   2.461
  159SAPE  H11A17663   5.451   2.930   2.473
  159SAPE  H11B17664   5.606   2.903   2.547
  159SAPE     P17665   5.770   2.905   2.310
  159SAPE   O1317666   5.799   2.772   2.255
  159SAPE   O1417667   5.811   3.014   2.218
  159SAPE   O1217668   5.615   2.905   2.339
  159SAPE   O1117669   5.837   2.918   2.450
  159SAPE    C117670   5.930   2.829   2.509
  159SAPE    HA17671   5.870   2.740   2.538
  159SAPE    HB17672   6.002   2.801   2.429
  159SAPE    C217673   6.020   2.901   2.611
  159SAPE    HS17674   6.103   2.839   2.652
  159SAPE   O2117675   5.936   2.955   2.725
  159SAPE   C2117676   5.917   2.859   2.814
  159SAPE   O2217677   5.956   2.743   2.803
  159SAPE   C2217678   5.814   2.914   2.918
  159SAPE   H2R17679   5.855   3.005   2.967
  159SAPE   H2S17680   5.727   2.962   2.867
  159SAPE    C317681   6.087   3.025   2.545
  159SAPE    HX17682   6.014   3.102   2.514
  159SAPE    HY17683   6.152   2.993   2.461
  159SAPE   O3117684   6.182   3.062   2.649
  159SAPE   C3117685   6.194   3.189   2.673
  159SAPE   O3217686   6.120   3.278   2.634
  159SAPE   C3217687   6.330   3.213   2.746
  159SAPE   H2X17688   6.378   3.306   2.708
  159SAPE   H2Y17689   6.406   3.137   2.718
  159SAPE   C2317690   5.776   2.805   3.017
  159SAPE   H3R17691   5.870   2.769   3.063
  159SAPE   H3S17692   5.725   2.719   2.967
  159SAPE   C2417693   5.679   2.852   3.128
  159SAPE   H4R17694   5.737   2.910   3.203
  159SAPE   H4S17695   5.646   2.759   3.179
  159SAPE   C2517696   5.564   2.942   3.075
  159SAPE   H5R17697   5.500   2.907   2.992
  159SAPE   C2617698   5.536   3.063   3.121
  159SAPE   H6R17699   5.466   3.127   3.067
  159SAPE   C2717700   5.593   3.144   3.232
  159SAPE   H7R17701   5.657   3.080   3.295
  159SAPE   H7S17702   5.513   3.171   3.304
  159SAPE   C2817703   5.678   3.269   3.212
  159SAPE   H8R17704   5.721   3.285   3.112
  159SAPE   C2917705   5.705   3.362   3.304
  159SAPE   H9R17706   5.783   3.438   3.285
  159SAPE  C21017707   5.664   3.367   3.448
  159SAPE  H10R17708   5.637   3.262   3.476
  159SAPE  H10S17709   5.566   3.419   3.448
  159SAPE  C21117710   5.745   3.436   3.557
  159SAPE  H11R17711   5.690   3.509   3.618
  159SAPE  C21217712   5.863   3.381   3.594
  159SAPE  H12R17713   5.911   3.427   3.682
  159SAPE  C21317714   5.940   3.265   3.535
  159SAPE  H13R17715   6.010   3.313   3.463
  159SAPE  H13S17716   5.871   3.197   3.481
  159SAPE  C21417717   6.015   3.169   3.624
  159SAPE  H14R17718   6.124   3.181   3.625
  159SAPE  C21517719   5.957   3.087   3.714
  159SAPE  H15R17720   6.018   3.016   3.773
  159SAPE  C21617721   5.809   3.061   3.729
  159SAPE  H16R17722   5.747   3.152   3.745
  159SAPE  H16S17723   5.795   3.001   3.822
  159SAPE  C21717724   5.749   2.979   3.616
  159SAPE  H17R17725   5.754   3.017   3.511
  159SAPE  H17S17726   5.644   2.955   3.642
  159SAPE  C21817727   5.821   2.840   3.598
  159SAPE  H18R17728   5.839   2.800   3.700
  159SAPE  H18S17729   5.918   2.873   3.555
  159SAPE  C21917730   5.747   2.751   3.498
  159SAPE  H19R17731   5.802   2.657   3.477
  159SAPE  H19S17732   5.728   2.800   3.400
  159SAPE  C22017733   5.613   2.695   3.553
  159SAPE  H20R17734   5.576   2.624   3.476
  159SAPE  H20S17735   5.547   2.784   3.558
  159SAPE  H20T17736   5.629   2.636   3.645
  159SAPE   C3317737   6.316   3.231   2.901
  159SAPE   H3X17738   6.249   3.315   2.931
  159SAPE   H3Y17739   6.418   3.255   2.937
  159SAPE   C3417740   6.266   3.100   2.964
  159SAPE   H4X17741   6.334   3.016   2.939
  159SAPE   H4Y17742   6.164   3.082   2.922
  159SAPE   C3517743   6.254   3.113   3.120
  159SAPE   H5X17744   6.187   3.199   3.143
  159SAPE   H5Y17745   6.346   3.154   3.168
  159SAPE   C3617746   6.214   2.983   3.190
  159SAPE   H6X17747   6.288   2.906   3.156
  159SAPE   H6Y17748   6.111   2.943   3.177
  159SAPE   C3717749   6.225   2.993   3.346
  159SAPE   H7X17750   6.159   3.071   3.392
  159SAPE   H7Y17751   6.321   3.039   3.378
  159SAPE   C3817752   6.209   2.861   3.412
  159SAPE   H8X17753   6.263   2.778   3.361
  159SAPE   H8Y17754   6.102   2.831   3.415
  159SAPE   C3917755   6.263   2.856   3.554
  159SAPE   H9X17756   6.237   2.950   3.608
  159SAPE   H9Y17757   6.374   2.862   3.554
  159SAPE  C31017758   6.217   2.730   3.632
  159SAPE  H10X17759   6.243   2.639   3.574
  159SAPE  H10Y17760   6.107   2.725   3.642
  159SAPE  C31117761   6.281   2.722   3.765
  159SAPE  H11X17762   6.390   2.742   3.756
  159SAPE  H11Y17763   6.257   2.627   3.818
  159SAPE  C31217764   6.246   2.832   3.864
  159SAPE  H12X17765   6.138   2.853   3.876
  159SAPE  H12Y17766   6.291   2.926   3.825
  159SAPE  C31317767   6.325   2.818   3.999
  159SAPE  H13X17768   6.430   2.832   3.966
  159SAPE  H13Y17769   6.310   2.714   4.035
  159SAPE  C31417770   6.278   2.919   4.105
  159SAPE  H14X17771   6.173   2.902   4.135
  159SAPE  H14Y17772   6.284   3.022   4.063
  159SAPE  C31517773   6.368   2.926   4.228
  159SAPE  H15X17774   6.462   2.979   4.201
  159SAPE  H15Y17775   6.393   2.826   4.268
  159SAPE  C31617776   6.290   2.997   4.339
  159SAPE  H16X17777   6.203   2.932   4.363
  159SAPE  H16Y17778   6.252   3.095   4.303
  159SAPE  C31717779   6.375   3.042   4.454
  159SAPE  H17X17780   6.452   3.102   4.401
  159SAPE  H17Y17781   6.419   2.951   4.499
  159SAPE  C31817782   6.300   3.127   4.558
  159SAPE  H18X17783   6.361   3.187   4.629
  159SAPE  H18Y17784   6.236   3.071   4.629
  159SAPE  H18Z17785   6.223   3.195   4.516
  160SAPE     N17786   5.729   2.129   2.432
  160SAPE   HN117787   5.725   2.188   2.518
  160SAPE   HN217788   5.723   2.030   2.462
  160SAPE   HN317789   5.827   2.143   2.398
  160SAPE   C1217790   5.628   2.162   2.323
  160SAPE  H12A17791   5.624   2.090   2.238
  160SAPE  H12B17792   5.660   2.261   2.283
  160SAPE   C1117793   5.485   2.165   2.392
  160SAPE  H11A17794   5.415   2.200   2.312
  160SAPE  H11B17795   5.479   2.234   2.479
  160SAPE     P17796   5.333   1.945   2.413
  160SAPE   O1317797   5.211   2.019   2.463
  160SAPE   O1417798   5.328   1.884   2.278
  160SAPE   O1217799   5.460   2.032   2.436
  160SAPE   O1117800   5.362   1.835   2.518
  160SAPE    C117801   5.397   1.862   2.652
  160SAPE    HA17802   5.501   1.828   2.671
  160SAPE    HB17803   5.389   1.970   2.675
  160SAPE    C217804   5.307   1.787   2.753
  160SAPE    HS17805   5.303   1.845   2.847
  160SAPE   O2117806   5.362   1.653   2.780
  160SAPE   C2117807   5.468   1.655   2.859
  160SAPE   O2217808   5.503   1.746   2.935
  160SAPE   C2217809   5.544   1.525   2.835
  160SAPE   H2R17810   5.501   1.464   2.753
  160SAPE   H2S17811   5.647   1.553   2.804
  160SAPE    C317812   5.164   1.772   2.694
  160SAPE    HX17813   5.168   1.691   2.617
  160SAPE    HY17814   5.147   1.867   2.639
  160SAPE   O3117815   5.063   1.746   2.797
  160SAPE   C3117816   5.052   1.611   2.830
  160SAPE   O3217817   5.088   1.516   2.766
  160SAPE   C3217818   5.001   1.592   2.978
  160SAPE   H2X17819   4.910   1.652   2.999
  160SAPE   H2Y17820   5.081   1.647   3.033
  160SAPE   C2317821   5.561   1.432   2.964
  160SAPE   H3R17822   5.626   1.477   3.043
  160SAPE   H3S17823   5.623   1.345   2.934
  160SAPE   C2417824   5.423   1.381   3.026
  160SAPE   H4R17825   5.445   1.285   3.077
  160SAPE   H4S17826   5.347   1.362   2.947
  160SAPE   C2517827   5.366   1.486   3.119
  160SAPE   H5R17828   5.334   1.579   3.069
  160SAPE   C2617829   5.326   1.468   3.246
  160SAPE   H6R17830   5.305   1.558   3.306
  160SAPE   C2717831   5.336   1.348   3.335
  160SAPE   H7R17832   5.337   1.255   3.274
  160SAPE   H7S17833   5.241   1.337   3.391
  160SAPE   C2817834   5.452   1.345   3.430
  160SAPE   H8R17835   5.544   1.360   3.371
  160SAPE   C2917836   5.448   1.331   3.564
  160SAPE   H9R17837   5.536   1.312   3.627
  160SAPE  C21017838   5.328   1.292   3.647
  160SAPE  H10R17839   5.353   1.195   3.695
  160SAPE  H10S17840   5.238   1.265   3.588
  160SAPE  C21117841   5.291   1.394   3.750
  160SAPE  H11R17842   5.207   1.459   3.718
  160SAPE  C21217843   5.348   1.416   3.868
  160SAPE  H12R17844   5.297   1.493   3.928
  160SAPE  C21317845   5.470   1.344   3.920
  160SAPE  H13R17846   5.556   1.414   3.917
  160SAPE  H13S17847   5.498   1.264   3.848
  160SAPE  C21417848   5.457   1.274   4.050
  160SAPE  H14R17849   5.354   1.241   4.069
  160SAPE  C21517850   5.558   1.261   4.141
  160SAPE  H15R17851   5.533   1.193   4.223
  160SAPE  C21617852   5.700   1.314   4.139
  160SAPE  H16R17853   5.704   1.417   4.181
  160SAPE  H16S17854   5.740   1.323   4.036
  160SAPE  C21717855   5.805   1.231   4.228
  160SAPE  H17R17856   5.814   1.145   4.157
  160SAPE  H17S17857   5.756   1.202   4.323
  160SAPE  C21817858   5.938   1.298   4.246
  160SAPE  H18R17859   5.932   1.409   4.255
  160SAPE  H18S17860   5.993   1.272   4.153
  160SAPE  C21917861   6.020   1.239   4.367
  160SAPE  H19R17862   6.049   1.133   4.349
  160SAPE  H19S17863   5.961   1.240   4.462
  160SAPE  C22017864   6.156   1.307   4.400
  160SAPE  H20R17865   6.221   1.258   4.475
  160SAPE  H20S17866   6.131   1.406   4.445
  160SAPE  H20T17867   6.212   1.302   4.304
  160SAPE   C3317868   4.985   1.441   3.007
  160SAPE   H3X17869   5.075   1.378   2.992
  160SAPE   H3Y17870   4.900   1.406   2.945
  160SAPE   C3417871   4.932   1.420   3.151
  160SAPE   H4X17872   4.850   1.494   3.157
  160SAPE   H4Y17873   5.019   1.460   3.209
  160SAPE   C3517874   4.878   1.280   3.186
  160SAPE   H5X17875   4.929   1.205   3.122
  160SAPE   H5Y17876   4.774   1.288   3.148
  160SAPE   C3617877   4.878   1.242   3.334
  160SAPE   H6X17878   4.984   1.213   3.353
  160SAPE   H6Y17879   4.809   1.163   3.369
  160SAPE   C3717880   4.859   1.358   3.439
  160SAPE   H7X17881   4.754   1.391   3.428
  160SAPE   H7Y17882   4.915   1.450   3.412
  160SAPE   C3817883   4.914   1.337   3.577
  160SAPE   H8X17884   4.886   1.430   3.630
  160SAPE   H8Y17885   5.024   1.318   3.580
  160SAPE   C3917886   4.838   1.237   3.666
  160SAPE   H9X17887   4.847   1.133   3.627
  160SAPE   H9Y17888   4.729   1.259   3.662
  160SAPE  C31017889   4.899   1.227   3.806
  160SAPE  H10X17890   4.896   1.331   3.845
  160SAPE  H10Y17891   5.005   1.198   3.788
  160SAPE  C31117892   4.836   1.116   3.898
  160SAPE  H11X17893   4.847   1.023   3.839
  160SAPE  H11Y17894   4.726   1.123   3.911
  160SAPE  C31217895   4.891   1.102   4.039
  160SAPE  H12X17896   4.864   1.011   4.096
  160SAPE  H12Y17897   4.864   1.194   4.096
  160SAPE  C31317898   5.043   1.099   4.046
  160SAPE  H13X17899   5.086   1.199   4.021
  160SAPE  H13Y17900   5.087   1.021   3.981
  160SAPE  C31417901   5.111   1.068   4.185
  160SAPE  H14X17902   5.040   1.113   4.258
  160SAPE  H14Y17903   5.198   1.131   4.213
  160SAPE  C31517904   5.137   0.923   4.200
  160SAPE  H15X17905   5.193   0.891   4.109
  160SAPE  H15Y17906   5.042   0.865   4.198
  160SAPE  C31617907   5.208   0.885   4.322
  160SAPE  H16X17908   5.241   0.780   4.308
  160SAPE  H16Y17909   5.128   0.885   4.399
  160SAPE  C31717910   5.335   0.966   4.357
  160SAPE  H17X17911   5.300   1.070   4.373
  160SAPE  H17Y17912   5.400   0.989   4.269
  160SAPE  C31817913   5.422   0.910   4.472
  160SAPE  H18X17914   5.498   0.981   4.512
  160SAPE  H18Y17915   5.473   0.818   4.437
  160SAPE  H18Z17916   5.368   0.867   4.558
  161SAPE     N17917   2.431   4.064   1.779
  161SAPE   HN117918   2.377   4.062   1.690
  161SAPE   HN217919   2.486   3.976   1.777
  161SAPE   HN317920   2.373   4.087   1.861
  161SAPE   C1217921   2.529   4.177   1.773
  161SAPE  H12A17922   2.466   4.269   1.773
  161SAPE  H12B17923   2.587   4.174   1.679
  161SAPE   C1117924   2.617   4.192   1.893
  161SAPE  H11A17925   2.551   4.221   1.978
  161SAPE  H11B17926   2.691   4.273   1.875
  161SAPE     P17927   2.817   4.029   1.851
  161SAPE   O1317928   2.794   3.980   1.714
  161SAPE   O1417929   2.913   4.144   1.872
  161SAPE   O1217930   2.679   4.064   1.917
  161SAPE   O1117931   2.861   3.903   1.933
  161SAPE    C117932   2.772   3.830   2.017
  161SAPE    HA17933   2.673   3.809   1.971
  161SAPE    HB17934   2.812   3.728   2.037
  161SAPE    C217935   2.751   3.888   2.164
  161SAPE    HS17936   2.690   3.979   2.144
  161SAPE   O2117937   2.879   3.924   2.217
  161SAPE   C2117938   2.864   4.010   2.320
  161SAPE   O2217939   2.760   4.057   2.358
  161SAPE   C2217940   3.006   4.029   2.376
  161SAPE   H2R17941   3.034   3.932   2.423
  161SAPE   H2S17942   3.068   4.065   2.292
  161SAPE    C317943   2.665   3.788   2.251
  161SAPE    HX17944   2.725   3.700   2.284
  161SAPE    HY17945   2.591   3.735   2.187
  161SAPE   O3117946   2.615   3.847   2.368
  161SAPE   C3117947   2.500   3.903   2.356
  161SAPE   O3217948   2.431   3.910   2.253
  161SAPE   C3217949   2.454   3.953   2.495
  161SAPE   H2X17950   2.345   3.939   2.483
  161SAPE   H2Y17951   2.497   4.056   2.503
  161SAPE   C2317952   3.014   4.127   2.493
  161SAPE   H3R17953   2.963   4.224   2.476
  161SAPE   H3S17954   3.115   4.174   2.491
  161SAPE   C2417955   2.991   4.077   2.631
  161SAPE   H4R17956   2.966   4.164   2.695
  161SAPE   H4S17957   3.085   4.033   2.670
  161SAPE   C2517958   2.872   3.985   2.655
  161SAPE   H5R17959   2.772   4.027   2.641
  161SAPE   C2617960   2.868   3.864   2.711
  161SAPE   H6R17961   2.769   3.817   2.720
  161SAPE   C2717962   2.989   3.788   2.746
  161SAPE   H7R17963   3.063   3.789   2.663
  161SAPE   H7S17964   2.968   3.679   2.755
  161SAPE   C2817965   3.040   3.841   2.880
  161SAPE   H8R17966   3.096   3.935   2.866
  161SAPE   C2917967   3.005   3.807   3.009
  161SAPE   H9R17968   3.046   3.873   3.086
  161SAPE  C21017969   2.921   3.689   3.045
  161SAPE  H10R17970   2.945   3.653   3.147
  161SAPE  H10S17971   2.947   3.604   2.977
  161SAPE  C21117972   2.775   3.715   3.030
  161SAPE  H11R17973   2.738   3.768   2.941
  161SAPE  C21217974   2.680   3.680   3.115
  161SAPE  H12R17975   2.577   3.708   3.086
  161SAPE  C21317976   2.689   3.618   3.250
  161SAPE  H13R17977   2.789   3.587   3.287
  161SAPE  H13S17978   2.617   3.534   3.239
  161SAPE  C21417979   2.611   3.707   3.346
  161SAPE  H14R17980   2.502   3.698   3.353
  161SAPE  C21517981   2.668   3.783   3.442
  161SAPE  H15R17982   2.608   3.836   3.519
  161SAPE  C21617983   2.818   3.814   3.455
  161SAPE  H16R17984   2.834   3.915   3.497
  161SAPE  H16S17985   2.857   3.806   3.351
  161SAPE  C21717986   2.903   3.731   3.539
  161SAPE  H17R17987   3.004   3.773   3.518
  161SAPE  H17S17988   2.900   3.625   3.508
  161SAPE  C21817989   2.887   3.754   3.693
  161SAPE  H18R17990   2.782   3.731   3.722
  161SAPE  H18S17991   2.904   3.860   3.721
  161SAPE  C21917992   2.976   3.661   3.770
  161SAPE  H19R17993   3.081   3.666   3.734
  161SAPE  H19S17994   2.952   3.555   3.749
  161SAPE  C22017995   2.967   3.670   3.924
  161SAPE  H20R17996   2.860   3.676   3.956
  161SAPE  H20S17997   3.019   3.766   3.943
  161SAPE  H20T17998   3.015   3.586   3.978
  161SAPE   C3317999   2.494   3.878   2.630
  161SAPE   H3X18000   2.602   3.888   2.652
  161SAPE   H3Y18001   2.469   3.770   2.631
  161SAPE   C3418002   2.427   3.948   2.756
  161SAPE   H4X18003   2.318   3.925   2.762
  161SAPE   H4Y18004   2.435   4.058   2.743
  161SAPE   C3518005   2.491   3.910   2.893
  161SAPE   H5X18006   2.593   3.951   2.878
  161SAPE   H5Y18007   2.493   3.799   2.894
  161SAPE   C3618008   2.418   3.972   3.011
  161SAPE   H6X18009   2.362   3.897   3.070
  161SAPE   H6Y18010   2.341   4.049   2.989
  161SAPE   C3718011   2.520   4.043   3.101
  161SAPE   H7X18012   2.575   4.115   3.036
  161SAPE   H7Y18013   2.596   3.976   3.146
  161SAPE   C3818014   2.453   4.104   3.225
  161SAPE   H8X18015   2.414   4.023   3.290
  161SAPE   H8Y18016   2.363   4.157   3.188
  161SAPE   C3918017   2.535   4.195   3.310
  161SAPE   H9X18018   2.559   4.291   3.259
  161SAPE   H9Y18019   2.632   4.153   3.345
  161SAPE  C31018020   2.470   4.222   3.448
  161SAPE  H10X18021   2.383   4.158   3.477
  161SAPE  H10Y18022   2.426   4.323   3.436
  161SAPE  C31118023   2.567   4.220   3.561
  161SAPE  H11X18024   2.629   4.311   3.549
  161SAPE  H11Y18025   2.638   4.135   3.555
  161SAPE  C31218026   2.492   4.201   3.694
  161SAPE  H12X18027   2.457   4.096   3.687
  161SAPE  H12Y18028   2.400   4.262   3.701
  161SAPE  C31318029   2.591   4.221   3.813
  161SAPE  H13X18030   2.629   4.325   3.819
  161SAPE  H13Y18031   2.688   4.166   3.809
  161SAPE  C31418032   2.526   4.198   3.951
  161SAPE  H14X18033   2.429   4.147   3.933
  161SAPE  H14Y18034   2.499   4.289   4.009
  161SAPE  C31518035   2.608   4.100   4.034
  161SAPE  H15X18036   2.702   4.143   4.075
  161SAPE  H15Y18037   2.651   4.010   3.984
  161SAPE  C31618038   2.518   4.045   4.143
  161SAPE  H16X18039   2.559   3.950   4.184
  161SAPE  H16Y18040   2.420   4.015   4.099
  161SAPE  C31718041   2.491   4.143   4.253
  161SAPE  H17X18042   2.455   4.243   4.224
  161SAPE  H17Y18043   2.587   4.165   4.305
  161SAPE  C31818044   2.395   4.081   4.356
  161SAPE  H18X18045   2.379   4.144   4.446
  161SAPE  H18Y18046   2.438   3.986   4.393
  161SAPE  H18Z18047   2.293   4.053   4.321
  162SAPE     N18048   3.028   6.672   1.534
  162SAPE   HN118049   3.121   6.704   1.569
  162SAPE   HN218050   3.035   6.569   1.552
  162SAPE   HN318051   3.008   6.680   1.432
  162SAPE   C1218052   2.908   6.731   1.604
  162SAPE  H12A18053   2.892   0.031   1.561
  162SAPE  H12B18054   2.937   6.756   1.709
  162SAPE   C1118055   2.790   6.631   1.605
  162SAPE  H11A18056   2.743   6.610   1.507
  162SAPE  H11B18057   2.704   6.686   1.650
  162SAPE     P18058   2.796   6.504   1.843
  162SAPE   O1318059   2.659   6.546   1.890
  162SAPE   O1418060   2.833   6.369   1.887
  162SAPE   O1218061   2.807   6.509   1.681
  162SAPE   O1118062   2.901   6.610   1.884
  162SAPE    C118063   3.037   6.577   1.908
  162SAPE    HA18064   3.078   6.525   1.819
  162SAPE    HB18065   3.098   6.669   1.924
  162SAPE    C218066   3.065   6.483   2.035
  162SAPE    HS18067   3.039   6.382   1.999
  162SAPE   O2118068   2.979   6.506   2.148
  162SAPE   C2118069   2.948   6.404   2.219
  162SAPE   O2218070   2.985   6.291   2.206
  162SAPE   C2218071   2.855   6.450   2.327
  162SAPE   H2R18072   2.854   6.381   2.413
  162SAPE   H2S18073   2.894   6.544   2.373
  162SAPE    C318074   3.215   6.486   2.079
  162SAPE    HX18075   3.231   6.592   2.110
  162SAPE    HY18076   3.290   6.469   1.998
  162SAPE   O3118077   3.245   6.406   2.197
  162SAPE   C3118078   3.319   6.299   2.184
  162SAPE   O3218079   3.358   6.253   2.075
  162SAPE   C3218080   3.342   6.230   2.311
  162SAPE   H2X18081   3.381   6.128   2.291
  162SAPE   H2Y18082   3.247   6.217   2.366
  162SAPE   C2318083   2.714   6.472   2.265
  162SAPE   H3R18084   2.683   6.405   2.182
  162SAPE   H3S18085   2.715   6.570   2.211
  162SAPE   C2418086   2.607   6.482   2.384
  162SAPE   H4R18087   2.616   6.390   2.444
  162SAPE   H4S18088   2.507   6.486   2.335
  162SAPE   C2518089   2.611   6.605   2.473
  162SAPE   H5R18090   2.592   6.699   2.419
  162SAPE   C2618091   2.613   6.605   2.610
  162SAPE   H6R18092   2.615   6.702   2.660
  162SAPE   C2718093   2.623   6.483   2.697
  162SAPE   H7R18094   2.695   6.503   2.780
  162SAPE   H7S18095   2.645   6.394   2.634
  162SAPE   C2818096   2.489   6.449   2.759
  162SAPE   H8R18097   2.401   6.460   2.693
  162SAPE   C2918098   2.452   6.405   2.882
  162SAPE   H9R18099   2.343   6.404   2.894
  162SAPE  C21018100   2.535   6.368   3.004
  162SAPE  H10R18101   2.496   6.426   3.090
  162SAPE  H10S18102   2.641   6.399   2.996
  162SAPE  C21118103   2.522   6.216   3.015
  162SAPE  H11R18104   2.561   6.167   2.924
  162SAPE  C21218105   2.470   6.140   3.109
  162SAPE  H12R18106   2.466   6.030   3.103
  162SAPE  C21318107   2.399   6.214   3.221
  162SAPE  H13R18108   2.346   6.303   3.182
  162SAPE  H13S18109   2.473   6.245   3.298
  162SAPE  C21418110   2.287   6.141   3.300
  162SAPE  H14R18111   2.187   6.186   3.298
  162SAPE  C21518112   2.298   6.043   3.388
  162SAPE  H15R18113   2.200   6.011   3.428
  162SAPE  C21618114   2.422   5.966   3.422
  162SAPE  H16R18115   2.506   6.018   3.371
  162SAPE  H16S18116   2.411   5.856   3.409
  162SAPE  C21718117   2.440   5.979   3.576
  162SAPE  H17R18118   2.531   5.920   3.601
  162SAPE  H17S18119   2.357   5.928   3.630
  162SAPE  C21818120   2.460   6.119   3.631
  162SAPE  H18R18121   2.364   6.173   3.624
  162SAPE  H18S18122   2.525   6.178   3.563
  162SAPE  C21918123   2.519   6.122   3.778
  162SAPE  H19R18124   2.466   6.062   3.855
  162SAPE  H19S18125   2.502   6.227   3.810
  162SAPE  C22018126   2.665   6.091   3.787
  162SAPE  H20R18127   2.694   6.081   3.893
  162SAPE  H20S18128   2.725   6.182   3.765
  162SAPE  H20T18129   2.700   6.006   3.726
  162SAPE   C3318130   3.441   6.307   2.407
  162SAPE   H3X18131   3.411   6.413   2.401
  162SAPE   H3Y18132   3.548   6.302   2.377
  162SAPE   C3418133   3.427   6.274   2.558
  162SAPE   H4X18134   3.451   6.166   2.569
  162SAPE   H4Y18135   3.327   6.292   2.601
  162SAPE   C3518136   3.523   6.368   2.630
  162SAPE   H5X18137   3.487   6.472   2.614
  162SAPE   H5Y18138   3.625   6.361   2.588
  162SAPE   C3618139   3.561   6.330   2.771
  162SAPE   H6X18140   3.628   6.406   2.817
  162SAPE   H6Y18141   3.610   6.231   2.784
  162SAPE   C3718142   3.447   6.329   2.876
  162SAPE   H7X18143   3.380   6.246   2.843
  162SAPE   H7Y18144   3.394   6.427   2.872
  162SAPE   C3818145   3.502   6.306   3.018
  162SAPE   H8X18146   3.580   6.377   3.053
  162SAPE   H8Y18147   3.540   6.202   3.009
  162SAPE   C3918148   3.388   6.308   3.124
  162SAPE   H9X18149   3.310   6.235   3.094
  162SAPE   H9Y18150   3.336   6.406   3.115
  162SAPE  C31018151   3.438   6.259   3.262
  162SAPE  H10X18152   3.520   6.327   3.292
  162SAPE  H10Y18153   3.486   6.160   3.263
  162SAPE  C31118154   3.321   6.263   3.355
  162SAPE  H11X18155   3.240   6.198   3.317
  162SAPE  H11Y18156   3.278   6.365   3.365
  162SAPE  C31218157   3.355   6.216   3.498
  162SAPE  H12X18158   3.435   6.275   3.547
  162SAPE  H12Y18159   3.401   6.115   3.494
  162SAPE  C31318160   3.239   6.191   3.597
  162SAPE  H13X18161   3.159   6.128   3.552
  162SAPE  H13Y18162   3.195   6.293   3.607
  162SAPE  C31418163   3.288   6.133   3.732
  162SAPE  H14X18164   3.224   6.169   3.816
  162SAPE  H14Y18165   3.392   6.165   3.753
  162SAPE  C31518166   3.282   5.980   3.739
  162SAPE  H15X18167   3.342   5.937   3.655
  162SAPE  H15Y18168   3.181   5.947   3.707
  162SAPE  C31618169   3.328   5.913   3.873
  162SAPE  H16X18170   3.439   5.903   3.875
  162SAPE  H16Y18171   3.287   5.810   3.873
  162SAPE  C31718172   3.270   5.984   3.996
  162SAPE  H17X18173   3.159   5.989   3.993
  162SAPE  H17Y18174   3.296   6.092   4.001
  162SAPE  C31818175   3.314   5.912   4.123
  162SAPE  H18X18176   3.421   5.931   4.144
  162SAPE  H18Y18177   3.301   5.802   4.114
  162SAPE  H18Z18178   3.260   5.952   4.211
  163SAPE     N18179   0.817   3.194   2.175
  163SAPE   HN118180   0.847   3.151   2.265
  163SAPE   HN218181   0.726   3.236   2.202
  163SAPE   HN318182   0.808   3.111   2.112
  163SAPE   C1218183   0.924   3.290   2.121
  163SAPE  H12A18184   0.893   3.324   2.021
  163SAPE  H12B18185   1.005   3.217   2.098
  163SAPE   C1118186   0.945   3.404   2.219
  163SAPE  H11A18187   0.870   3.487   2.218
  163SAPE  H11B18188   1.040   3.461   2.214
  163SAPE     P18189   1.019   3.439   2.474
  163SAPE   O1318190   0.925   3.554   2.490
  163SAPE   O1418191   1.056   3.355   2.592
  163SAPE   O1218192   0.957   3.350   2.348
  163SAPE   O1118193   1.157   3.488   2.418
  163SAPE    C118194   1.255   3.393   2.372
  163SAPE    HA18195   1.215   3.296   2.335
  163SAPE    HB18196   1.300   3.438   2.281
  163SAPE    C218197   1.370   3.380   2.474
  163SAPE    HS18198   1.332   3.339   2.570
  163SAPE   O2118199   1.425   3.513   2.499
  163SAPE   C2118200   1.440   3.545   2.630
  163SAPE   O2218201   1.409   3.471   2.720
  163SAPE   C2218202   1.517   3.681   2.655
  163SAPE   H2R18203   1.624   3.664   2.677
  163SAPE   H2S18204   1.511   3.738   2.560
  163SAPE    C318205   1.484   3.285   2.433
  163SAPE    HX18206   1.540   3.336   2.352
  163SAPE    HY18207   1.437   3.194   2.390
  163SAPE   O3118208   1.565   3.246   2.543
  163SAPE   C3118209   1.681   3.323   2.560
  163SAPE   O3218210   1.727   3.399   2.478
  163SAPE   C3218211   1.733   3.297   2.704
  163SAPE   H2X18212   1.803   3.211   2.695
  163SAPE   H2Y18213   1.655   3.274   2.779
  163SAPE   C2318214   1.463   3.753   2.779
  163SAPE   H3R18215   1.450   3.693   2.872
  163SAPE   H3S18216   1.363   3.785   2.741
  163SAPE   C2418217   1.553   3.872   2.824
  163SAPE   H4R18218   1.575   3.930   2.731
  163SAPE   H4S18219   1.654   3.833   2.848
  163SAPE   C2518220   1.501   3.946   2.938
  163SAPE   H5R18221   1.425   4.012   2.893
  163SAPE   C2618222   1.510   3.905   3.064
  163SAPE   H6R18223   1.455   3.964   3.139
  163SAPE   C2718224   1.603   3.791   3.109
  163SAPE   H7R18225   1.706   3.827   3.132
  163SAPE   H7S18226   1.612   3.725   3.020
  163SAPE   C2818227   1.533   3.721   3.218
  163SAPE   H8R18228   1.452   3.666   3.169
  163SAPE   C2918229   1.561   3.727   3.352
  163SAPE   H9R18230   1.506   3.657   3.418
  163SAPE  C21018231   1.674   3.810   3.409
  163SAPE  H10R18232   1.623   3.895   3.461
  163SAPE  H10S18233   1.738   3.859   3.332
  163SAPE  C21118234   1.758   3.722   3.496
  163SAPE  H11R18235   1.820   3.653   3.437
  163SAPE  C21218236   1.743   3.707   3.627
  163SAPE  H12R18237   1.806   3.632   3.677
  163SAPE  C21318238   1.639   3.781   3.707
  163SAPE  H13R18239   1.609   3.709   3.786
  163SAPE  H13S18240   1.543   3.791   3.651
  163SAPE  C21418241   1.698   3.907   3.760
  163SAPE  H14R18242   1.731   3.976   3.681
  163SAPE  C21518243   1.701   3.946   3.889
  163SAPE  H15R18244   1.723   4.052   3.907
  163SAPE  C21618245   1.660   3.874   4.011
  163SAPE  H16R18246   1.574   3.807   3.991
  163SAPE  H16S18247   1.628   3.939   4.096
  163SAPE  C21718248   1.774   3.782   4.065
  163SAPE  H17R18249   1.859   3.845   4.100
  163SAPE  H17S18250   1.806   3.714   3.983
  163SAPE  C21818251   1.716   3.687   4.172
  163SAPE  H18R18252   1.640   3.631   4.113
  163SAPE  H18S18253   1.669   3.754   4.247
  163SAPE  C21918254   1.806   3.595   4.246
  163SAPE  H19R18255   1.886   3.663   4.279
  163SAPE  H19S18256   1.847   3.512   4.184
  163SAPE  C22018257   1.734   3.536   4.372
  163SAPE  H20R18258   1.628   3.518   4.343
  163SAPE  H20S18259   1.743   3.603   4.459
  163SAPE  H20T18260   1.763   3.444   4.428
  163SAPE   C3318261   1.826   3.418   2.757
  163SAPE   H3X18262   1.778   3.517   2.742
  163SAPE   H3Y18263   1.911   3.422   2.685
  163SAPE   C3418264   1.891   3.406   2.892
  163SAPE   H4X18265   1.964   3.486   2.917
  163SAPE   H4Y18266   1.949   3.311   2.887
  163SAPE   C3518267   1.791   3.390   3.011
  163SAPE   H5X18268   1.740   3.294   2.991
  163SAPE   H5Y18269   1.714   3.470   3.013
  163SAPE   C3618270   1.853   3.380   3.151
  163SAPE   H6X18271   1.925   3.461   3.176
  163SAPE   H6Y18272   1.918   3.291   3.156
  163SAPE   C3718273   1.742   3.355   3.264
  163SAPE   H7X18274   1.661   3.297   3.216
  163SAPE   H7Y18275   1.694   3.454   3.282
  163SAPE   C3818276   1.795   3.294   3.386
  163SAPE   H8X18277   1.886   3.350   3.416
  163SAPE   H8Y18278   1.825   3.187   3.372
  163SAPE   C3918279   1.699   3.297   3.501
  163SAPE   H9X18280   1.618   3.224   3.482
  163SAPE   H9Y18281   1.649   3.395   3.510
  163SAPE  C31018282   1.761   3.276   3.639
  163SAPE  H10X18283   1.859   3.325   3.651
  163SAPE  H10Y18284   1.780   3.167   3.651
  163SAPE  C31118285   1.663   3.329   3.752
  163SAPE  H11X18286   1.562   3.296   3.721
  163SAPE  H11Y18287   1.654   3.440   3.760
  163SAPE  C31218288   1.710   3.280   3.885
  163SAPE  H12X18289   1.797   3.339   3.920
  163SAPE  H12Y18290   1.742   3.174   3.873
  163SAPE  C31318291   1.590   3.275   3.983
  163SAPE  H13X18292   1.520   3.195   3.949
  163SAPE  H13Y18293   1.536   3.371   3.974
  163SAPE  C31418294   1.643   3.256   4.130
  163SAPE  H14X18295   1.730   3.323   4.148
  163SAPE  H14Y18296   1.690   3.156   4.124
  163SAPE  C31518297   1.527   3.279   4.232
  163SAPE  H15X18298   1.451   3.349   4.194
  163SAPE  H15Y18299   1.568   3.312   4.330
  163SAPE  C31618300   1.444   3.151   4.264
  163SAPE  H16X18301   1.515   3.077   4.307
  163SAPE  H16Y18302   1.406   3.121   4.164
  163SAPE  C31718303   1.329   3.166   4.371
  163SAPE  H17X18304   1.253   3.238   4.335
  163SAPE  H17Y18305   1.372   3.211   4.462
  163SAPE  C31818306   1.245   3.037   4.387
  163SAPE  H18X18307   1.310   2.954   4.425
  163SAPE  H18Y18308   1.199   2.999   4.293
  163SAPE  H18Z18309   1.182   3.051   4.477
  164SAPE     N18310   0.083   3.809   2.420
  164SAPE   HN118311   0.051   3.712   2.401
  164SAPE   HN218312   0.171   3.801   2.474
  164SAPE   HN318313   0.011   3.857   2.477
  164SAPE   C1218314   0.096   3.874   2.286
  164SAPE  H12A18315   0.021   3.829   2.218
  164SAPE  H12B18316   0.203   3.863   2.255
  164SAPE   C1118317   0.063   4.026   2.297
  164SAPE  H11A18318   0.074   4.074   2.197
  164SAPE  H11B18319   0.147   4.073   2.353
  164SAPE     P18320   6.670   4.206   2.358
  164SAPE   O1318321   6.774   4.303   2.366
  164SAPE   O1418322   6.574   4.215   2.248
  164SAPE   O1218323   6.731   4.061   2.352
  164SAPE   O1118324   6.601   4.191   2.498
  164SAPE    C118325   6.525   4.285   2.567
  164SAPE    HA18326   6.476   4.358   2.498
  164SAPE    HB18327   6.451   4.229   2.627
  164SAPE    C218328   6.619   4.373   2.660
  164SAPE    HS18329   6.692   4.411   2.585
  164SAPE   O2118330   6.687   4.286   2.750
  164SAPE   C2118331   6.776   4.345   2.823
  164SAPE   O2218332   0.032   4.448   2.802
  164SAPE   C2218333   6.780   4.277   2.955
  164SAPE   H2R18334   6.696   4.205   2.957
  164SAPE   H2S18335   0.070   4.212   2.959
  164SAPE    C318336   6.535   4.479   2.735
  164SAPE    HX18337   6.479   4.536   2.657
  164SAPE    HY18338   6.605   4.553   2.779
  164SAPE   O3118339   6.451   4.428   2.840
  164SAPE   C3118340   6.329   4.428   2.829
  164SAPE   O3218341   6.267   4.456   2.726
  164SAPE   C3218342   6.275   4.357   2.960
  164SAPE   H2X18343   6.276   4.248   2.941
  164SAPE   H2Y18344   6.165   4.375   2.967
  164SAPE   C2318345   6.773   4.373   3.078
  164SAPE   H3R18346   6.696   4.453   3.071
  164SAPE   H3S18347   0.074   4.417   3.076
  164SAPE   C2418348   6.744   4.300   3.209
  164SAPE   H4R18349   0.016   4.216   3.208
  164SAPE   H4S18350   6.638   4.266   3.206
  164SAPE   C2518351   6.759   4.388   3.337
  164SAPE   H5R18352   6.793   4.492   3.321
  164SAPE   C2618353   6.749   4.336   3.461
  164SAPE   H6R18354   6.749   4.410   3.542
  164SAPE   C2718355   6.700   4.198   3.494
  164SAPE   H7R18356   6.735   4.121   3.422
  164SAPE   H7S18357   6.590   4.192   3.493
  164SAPE   C2818358   6.768   4.152   3.630
  164SAPE   H8R18359   0.060   4.092   3.626
  164SAPE   C2918360   6.714   4.183   3.750
  164SAPE   H9R18361   6.767   4.150   3.840
  164SAPE  C21018362   6.583   4.257   3.772
  164SAPE  H10R18363   6.501   4.202   3.722
  164SAPE  H10S18364   6.595   4.360   3.733
  164SAPE  C21118365   6.515   4.260   3.909
  164SAPE  H11R18366   6.426   4.195   3.912
  164SAPE  C21218367   6.553   4.317   4.028
  164SAPE  H12R18368   6.481   4.325   4.111
  164SAPE  C21318369   6.673   4.398   4.060
  164SAPE  H13R18370   6.749   4.370   3.984
  164SAPE  H13S18371   6.692   4.379   4.168
  164SAPE  C21418372   6.637   4.546   4.042
  164SAPE  H14R18373   6.586   4.582   3.952
  164SAPE  C21518374   6.662   4.638   4.139
  164SAPE  H15R18375   6.628   4.740   4.116
  164SAPE  C21618376   6.734   4.622   4.273
  164SAPE  H16R18377   0.001   4.710   4.280
  164SAPE  H16S18378   6.797   4.531   4.280
  164SAPE  C21718379   6.636   4.623   4.391
  164SAPE  H17R18380   6.564   4.705   4.372
  164SAPE  H17S18381   6.683   4.654   4.487
  164SAPE  C21818382   6.568   4.490   4.419
  164SAPE  H18R18383   6.643   4.410   4.405
  164SAPE  H18S18384   6.494   4.458   4.344
  164SAPE  C21918385   6.503   4.470   4.556
  164SAPE  H19R18386   6.395   4.488   4.543
  164SAPE  H19S18387   6.537   4.545   4.630
  164SAPE  C22018388   6.531   4.331   4.613
  164SAPE  H20R18389   6.501   4.339   4.720
  164SAPE  H20S18390   6.640   4.310   4.605
  164SAPE  H20T18391   6.473   4.249   4.567
  164SAPE   C3318392   6.329   4.404   3.089
  164SAPE   H3X18393   6.296   4.508   3.107
  164SAPE   H3Y18394   6.438   4.417   3.074
  164SAPE   C3418395   6.290   4.313   3.199
  164SAPE   H4X18396   6.352   4.220   3.196
  164SAPE   H4Y18397   6.184   4.280   3.190
  164SAPE   C3518398   6.310   4.383   3.332
  164SAPE   H5X18399   6.246   4.474   3.332
  164SAPE   H5Y18400   6.413   4.422   3.342
  164SAPE   C3618401   6.272   4.313   3.471
  164SAPE   H6X18402   6.343   4.230   3.488
  164SAPE   H6Y18403   6.171   4.270   3.456
  164SAPE   C3718404   6.258   4.415   3.585
  164SAPE   H7X18405   6.196   4.506   3.569
  164SAPE   H7Y18406   6.359   4.461   3.591
  164SAPE   C3818407   6.221   4.355   3.719
  164SAPE   H8X18408   6.298   4.278   3.740
  164SAPE   H8Y18409   6.121   4.305   3.718
  164SAPE   C3918410   6.218   4.467   3.819
  164SAPE   H9X18411   6.159   4.551   3.777
  164SAPE   H9Y18412   6.313   4.526   3.821
  164SAPE  C31018413   6.181   4.432   3.965
  164SAPE  H10X18414   6.259   4.365   4.006
  164SAPE  H10Y18415   6.099   4.358   3.954
  164SAPE  C31118416   6.142   4.549   4.054
  164SAPE  H11X18417   6.040   4.583   4.026
  164SAPE  H11Y18418   6.214   4.627   4.021
  164SAPE  C31218419   6.165   4.527   4.208
  164SAPE  H12X18420   6.116   4.611   4.261
  164SAPE  H12Y18421   6.276   4.525   4.211
  164SAPE  C31318422   6.121   4.394   4.271
  164SAPE  H13X18423   6.196   4.318   4.240
  164SAPE  H13Y18424   6.026   4.349   4.235
  164SAPE  C31418425   6.124   4.410   4.420
  164SAPE  H14X18426   6.043   4.482   4.445
  164SAPE  H14Y18427   6.216   4.467   4.447
  164SAPE  C31518428   6.124   4.276   4.502
  164SAPE  H15X18429   6.210   4.212   4.471
  164SAPE  H15Y18430   6.030   4.224   4.473
  164SAPE  C31618431   6.119   4.300   4.651
  164SAPE  H16X18432   6.021   4.347   4.671
  164SAPE  H16Y18433   6.195   4.373   4.687
  164SAPE  C31718434   6.130   4.172   4.733
  164SAPE  H17X18435   6.232   4.128   4.722
  164SAPE  H17Y18436   6.052   4.100   4.702
  164SAPE  C31818437   6.096   4.197   4.881
  164SAPE  H18X18438   6.176   4.264   4.919
  164SAPE  H18Y18439   6.107   4.102   4.940
  164SAPE  H18Z18440   5.993   4.233   4.902
  165SAPE     N18441   5.809   0.661   2.513
  165SAPE   HN118442   5.713   0.643   2.547
  165SAPE   HN218443   5.852   0.571   2.544
  165SAPE   HN318444   5.849   0.743   2.562
  165SAPE   C1218445   5.816   0.670   2.361
  165SAPE  H12A18446   5.921   0.661   2.327
  165SAPE  H12B18447   5.769   0.768   2.335
  165SAPE   C1118448   5.732   0.562   2.297
  165SAPE  H11A18449   5.788   0.466   2.305
  165SAPE  H11B18450   5.714   0.583   2.189
  165SAPE     P18451   5.499   0.443   2.295
  165SAPE   O1318452   5.374   0.516   2.264
  165SAPE   O1418453   5.570   0.375   2.187
  165SAPE   O1218454   5.605   0.546   2.360
  165SAPE   O1118455   5.476   0.334   2.407
  165SAPE    C118456   5.379   0.344   2.510
  165SAPE    HA18457   5.287   0.403   2.489
  165SAPE    HB18458   5.353   0.239   2.537
  165SAPE    C218459   5.447   0.402   2.637
  165SAPE    HS18460   5.484   0.502   2.606
  165SAPE   O2118461   5.561   0.323   2.658
  165SAPE   C2118462   5.667   0.386   2.712
  165SAPE   O2218463   5.685   0.502   2.716
  165SAPE   C2218464   5.761   0.273   2.762
  165SAPE   H2R18465   5.709   0.177   2.778
  165SAPE   H2S18466   5.826   0.265   2.673
  165SAPE    C318467   5.353   0.405   2.758
  165SAPE    HX18468   5.264   0.463   2.727
  165SAPE    HY18469   5.398   0.466   2.839
  165SAPE   O3118470   5.315   0.272   2.811
  165SAPE   C3118471   5.414   0.227   2.896
  165SAPE   O3218472   5.499   0.297   2.950
  165SAPE   C3218473   5.414   0.073   2.898
  165SAPE   H2X18474   5.515   0.036   2.926
  165SAPE   H2Y18475   5.378   0.021   2.807
  165SAPE   C2318476   5.846   0.326   2.878
  165SAPE   H3R18477   5.786   0.330   2.972
  165SAPE   H3S18478   5.876   0.426   2.840
  165SAPE   C2418479   5.976   0.241   2.903
  165SAPE   H4R18480   6.048   0.297   2.966
  165SAPE   H4S18481   6.042   0.232   2.814
  165SAPE   C2518482   5.950   0.104   2.963
  165SAPE   H5R18483   5.928   0.030   2.885
  165SAPE   C2618484   5.960   0.073   3.090
  165SAPE   H6R18485   5.930   6.772   3.119
  165SAPE   C2718486   5.997   0.163   3.205
  165SAPE   H7R18487   5.987   0.272   3.185
  165SAPE   H7S18488   6.104   0.140   3.224
  165SAPE   C2818489   5.910   0.134   3.326
  165SAPE   H8R18490   5.804   0.114   3.309
  165SAPE   C2918491   5.952   0.113   3.454
  165SAPE   H9R18492   5.873   0.101   3.530
  165SAPE  C21018493   6.097   0.127   3.507
  165SAPE  H10R18494   6.163   0.126   3.417
  165SAPE  H10S18495   6.125   0.035   3.563
  165SAPE  C21118496   6.109   0.252   3.588
  165SAPE  H11R18497   6.100   0.345   3.531
  165SAPE  C21218498   6.119   0.261   3.722
  165SAPE  H12R18499   6.134   0.360   3.769
  165SAPE  C21318500   6.146   0.143   3.811
  165SAPE  H13R18501   6.123   0.046   3.763
  165SAPE  H13S18502   6.091   0.164   3.905
  165SAPE  C21418503   6.295   0.125   3.845
  165SAPE  H14R18504   6.356   0.208   3.806
  165SAPE  C21518505   6.350   0.024   3.909
  165SAPE  H15R18506   6.458   0.033   3.928
  165SAPE  C21618507   6.286   6.699   3.956
  165SAPE  H16R18508   6.358   6.614   3.956
  165SAPE  H16S18509   6.202   6.663   3.891
  165SAPE  C21718510   6.232   6.700   4.099
  165SAPE  H17R18511   6.226   6.593   4.128
  165SAPE  H17S18512   6.130   6.743   4.104
  165SAPE  C21818513   6.333   6.759   4.207
  165SAPE  H18R18514   6.319   0.069   4.204
  165SAPE  H18S18515   6.441   6.750   4.184
  165SAPE  C21918516   6.302   6.695   4.343
  165SAPE  H19R18517   6.195   6.669   4.355
  165SAPE  H19S18518   6.328   6.779   4.412
  165SAPE  C22018519   6.387   6.572   4.376
  165SAPE  H20R18520   6.343   6.526   4.467
  165SAPE  H20S18521   6.495   6.596   4.387
  165SAPE  H20T18522   6.382   6.501   4.291
  165SAPE   C3318523   5.306   0.019   3.005
  165SAPE   H3X18524   5.297   6.710   2.988
  165SAPE   H3Y18525   5.211   0.071   2.983
  165SAPE   C3418526   5.351   0.057   3.150
  165SAPE   H4X18527   5.263   0.034   3.214
  165SAPE   H4Y18528   5.370   0.165   3.167
  165SAPE   C3518529   5.461   6.766   3.207
  165SAPE   H5X18530   5.558   6.791   3.158
  165SAPE   H5Y18531   5.450   6.659   3.181
  165SAPE   C3618532   5.478   6.781   3.358
  165SAPE   H6X18533   5.375   6.774   3.399
  165SAPE   H6Y18534   5.499   0.086   3.385
  165SAPE   C3718535   5.573   6.682   3.415
  165SAPE   H7X18536   5.670   6.697   3.363
  165SAPE   H7Y18537   5.532   6.581   3.392
  165SAPE   C3818538   5.598   6.697   3.566
  165SAPE   H8X18539   5.505   6.676   3.622
  165SAPE   H8Y18540   5.613   0.004   3.588
  165SAPE   C3918541   5.718   6.612   3.609
  165SAPE   H9X18542   5.811   6.662   3.575
  165SAPE   H9Y18543   5.723   6.519   3.549
  165SAPE  C31018544   5.725   6.578   3.749
  165SAPE  H10X18545   5.786   6.488   3.773
  165SAPE  H10Y18546   5.624   6.553   3.789
  165SAPE  C31118547   5.777   6.699   3.834
  165SAPE  H11X18548   5.727   6.781   3.779
  165SAPE  H11Y18549   5.888   6.696   3.827
  165SAPE  C31218550   5.737   6.684   3.975
  165SAPE  H12X18551   5.626   6.685   3.984
  165SAPE  H12Y18552   5.783   6.768   4.031
  165SAPE  C31318553   5.777   6.548   4.040
  165SAPE  H13X18554   5.886   6.542   4.018
  165SAPE  H13Y18555   5.719   6.466   3.993
  165SAPE  C31418556   5.756   6.541   4.190
  165SAPE  H14X18557   5.811   6.449   4.220
  165SAPE  H14Y18558   5.648   6.524   4.210
  165SAPE  C31518559   5.813   6.659   4.273
  165SAPE  H15X18560   5.791   6.762   4.236
  165SAPE  H15Y18561   5.923   6.661   4.257
  165SAPE  C31618562   5.773   6.652   4.424
  165SAPE  H16X18563   5.664   6.635   4.432
  165SAPE  H16Y18564   5.810   6.739   4.481
  165SAPE  C31718565   5.843   6.524   4.486
  165SAPE  H17X18566   5.953   6.520   4.467
  165SAPE  H17Y18567   5.801   6.432   4.440
  165SAPE  C31818568   5.824   6.509   4.633
  165SAPE  H18X18569   5.858   6.603   4.682
  165SAPE  H18Y18570   5.875   6.420   4.676
  165SAPE  H18Z18571   5.717   6.505   4.659
  166SAPE     N18572   0.578   5.181   2.413
  166SAPE   HN118573   0.675   5.170   2.378
  166SAPE   HN218574   0.566   5.114   2.491
  166SAPE   HN318575   0.507   5.168   2.338
  166SAPE   C1218576   0.562   5.326   2.461
  166SAPE  H12A18577   0.620   5.351   2.553
  166SAPE  H12B18578   0.461   5.340   2.506
  166SAPE   C1118579   0.600   5.415   2.348
  166SAPE  H11A18580   0.695   5.389   2.297
  166SAPE  H11B18581   0.622   5.516   2.388
  166SAPE     P18582   0.418   5.545   2.220
  166SAPE   O1318583   0.522   5.638   2.160
  166SAPE   O1418584   0.299   5.513   2.138
  166SAPE   O1218585   0.484   5.410   2.260
  166SAPE   O1118586   0.368   5.597   2.362
  166SAPE    C118587   0.253   5.541   2.429
  166SAPE    HA18588   0.213   5.446   2.388
  166SAPE    HB18589   0.286   5.514   2.531
  166SAPE    C218590   0.134   5.643   2.419
  166SAPE    HS18591   0.118   5.674   2.314
  166SAPE   O2118592   0.156   5.750   2.514
  166SAPE   C2118593   0.184   5.872   2.461
  166SAPE   O2218594   0.208   5.892   2.341
  166SAPE   C2218595   0.182   5.979   2.567
  166SAPE   H2R18596   0.251   5.956   2.651
  166SAPE   H2S18597   0.234   6.066   2.522
  166SAPE    C318598   0.001   5.571   2.456
  166SAPE    HX18599   6.793   5.485   2.386
  166SAPE    HY18600   6.724   5.647   2.433
  166SAPE   O3118601   0.003   5.524   2.593
  166SAPE   C3118602   6.681   5.481   2.622
  166SAPE   O3218603   6.576   5.513   2.563
  166SAPE   C3218604   6.688   5.384   2.741
  166SAPE   H2X18605   6.744   5.294   2.708
  166SAPE   H2Y18606   6.583   5.363   2.771
  166SAPE   C2318607   0.042   6.014   2.617
  166SAPE   H3R18608   6.772   6.010   2.532
  166SAPE   H3S18609   0.034   6.123   2.638
  166SAPE   C2418610   6.796   5.938   2.741
  166SAPE   H4R18611   0.001   5.832   2.710
  166SAPE   H4S18612   6.687   5.948   2.755
  166SAPE   C2518613   0.067   5.967   2.869
  166SAPE   H5R18614   0.045   6.062   2.921
  166SAPE   C2618615   0.145   5.882   2.944
  166SAPE   H6R18616   0.206   5.929   3.022
  166SAPE   C2718617   0.193   5.743   2.903
  166SAPE   H7R18618   0.110   5.687   2.856
  166SAPE   H7S18619   0.220   5.692   2.998
  166SAPE   C2818620   0.321   5.741   2.821
  166SAPE   H8R18621   0.306   5.755   2.713
  166SAPE   C2918622   0.448   5.720   2.863
  166SAPE   H9R18623   0.526   5.716   2.786
  166SAPE  C21018624   0.491   5.711   3.003
  166SAPE  H10R18625   0.407   5.748   3.066
  166SAPE  H10S18626   0.571   5.787   3.017
  166SAPE  C21118627   0.537   5.571   3.042
  166SAPE  H11R18628   0.605   5.516   2.975
  166SAPE  C21218629   0.522   5.522   3.159
  166SAPE  H12R18630   0.545   5.415   3.166
  166SAPE  C21318631   0.446   5.580   3.275
  166SAPE  H13R18632   0.493   5.680   3.285
  166SAPE  H13S18633   0.478   5.532   3.370
  166SAPE  C21418634   0.297   5.589   3.260
  166SAPE  H14R18635   0.241   5.531   3.185
  166SAPE  C21518636   0.223   5.661   3.349
  166SAPE  H15R18637   0.115   5.638   3.347
  166SAPE  C21618638   0.258   5.743   3.465
  166SAPE  H16R18639   0.254   5.848   3.429
  166SAPE  H16S18640   0.365   5.735   3.494
  166SAPE  C21718641   0.173   5.714   3.583
  166SAPE  H17R18642   0.198   5.784   3.666
  166SAPE  H17S18643   0.193   5.610   3.618
  166SAPE  C21818644   0.029   5.755   3.550
  166SAPE  H18R18645   6.760   5.671   3.525
  166SAPE  H18S18646   0.027   5.815   3.456
  166SAPE  C21918647   6.757   5.824   3.670
  166SAPE  H19R18648   0.022   5.903   3.713
  166SAPE  H19S18649   6.757   5.752   3.755
  166SAPE  C22018650   6.614   5.860   3.651
  166SAPE  H20R18651   6.586   5.955   3.601
  166SAPE  H20S18652   6.552   5.872   3.743
  166SAPE  H20T18653   6.554   5.792   3.587
  166SAPE   C3318654   6.759   5.441   2.865
  166SAPE   H3X18655   0.062   5.474   2.842
  166SAPE   H3Y18656   6.775   5.357   2.937
  166SAPE   C3418657   6.671   5.544   2.935
  166SAPE   H4X18658   6.570   5.506   2.957
  166SAPE   H4Y18659   6.657   5.631   2.867
  166SAPE   C3518660   6.734   5.600   3.068
  166SAPE   H5X18661   6.763   5.707   3.057
  166SAPE   H5Y18662   0.031   5.548   3.074
  166SAPE   C3618663   6.638   5.596   3.187
  166SAPE   H6X18664   6.549   5.661   3.166
  166SAPE   H6Y18665   6.682   5.652   3.272
  166SAPE   C3718666   6.589   5.461   3.236
  166SAPE   H7X18667   6.664   5.379   3.236
  166SAPE   H7Y18668   6.508   5.432   3.166
  166SAPE   C3818669   6.537   5.474   3.385
  166SAPE   H8X18670   6.427   5.482   3.374
  166SAPE   H8Y18671   6.580   5.563   3.434
  166SAPE   C3918672   6.563   5.341   3.465
  166SAPE   H9X18673   6.672   5.322   3.478
  166SAPE   H9Y18674   6.509   5.257   3.415
  166SAPE  C31018675   6.513   5.329   3.611
  166SAPE  H10X18676   6.559   5.240   3.658
  166SAPE  H10Y18677   6.402   5.324   3.613
  166SAPE  C31118678   6.544   5.447   3.705
  166SAPE  H11X18679   6.477   5.535   3.691
  166SAPE  H11Y18680   6.651   5.467   3.683
  166SAPE  C31218681   6.518   5.403   3.850
  166SAPE  H12X18682   6.568   5.307   3.873
  166SAPE  H12Y18683   6.410   5.380   3.850
  166SAPE  C31318684   6.560   5.523   3.938
  166SAPE  H13X18685   6.527   5.621   3.896
  166SAPE  H13Y18686   6.669   5.543   3.923
  166SAPE  C31418687   6.527   5.498   4.083
  166SAPE  H14X18688   6.590   5.413   4.117
  166SAPE  H14Y18689   6.418   5.484   4.097
  166SAPE  C31518690   6.559   5.610   4.182
  166SAPE  H15X18691   6.481   5.687   4.165
  166SAPE  H15Y18692   6.659   5.651   4.157
  166SAPE  C31618693   6.541   5.579   4.326
  166SAPE  H16X18694   6.599   5.488   4.355
  166SAPE  H16Y18695   6.436   5.547   4.344
  166SAPE  C31718696   6.584   5.702   4.407
  166SAPE  H17X18697   6.531   5.793   4.370
  166SAPE  H17Y18698   6.691   5.725   4.392
  166SAPE  C31818699   6.553   5.695   4.560
  166SAPE  H18X18700   6.554   5.591   4.599
  166SAPE  H18Y18701   6.454   5.745   4.572
  166SAPE  H18Z18702   6.628   5.757   4.614
  167SAPE     N18703   6.354   3.713   2.494
  167SAPE   HN118704   6.271   3.776   2.496
  167SAPE   HN218705   6.395   3.721   2.590
  167SAPE   HN318706   6.433   3.748   2.436
  167SAPE   C1218707   6.332   3.564   2.470
  167SAPE  H12A18708   6.309   3.551   2.362
  167SAPE  H12B18709   6.242   3.523   2.522
  167SAPE   C1118710   6.459   3.498   2.512
  167SAPE  H11A18711   6.448   3.390   2.490
  167SAPE  H11B18712   6.458   3.493   2.623
  167SAPE     P18713   6.703   3.470   2.422
  167SAPE   O1318714   6.659   3.367   2.328
  167SAPE   O1418715   0.019   3.555   2.392
  167SAPE   O1218716   6.579   3.560   2.458
  167SAPE   O1118717   6.731   3.384   2.548
  167SAPE    C118718   0.024   3.430   2.647
  167SAPE    HA18719   0.085   3.348   2.690
  167SAPE    HB18720   0.106   3.494   2.606
  167SAPE    C218721   6.762   3.505   2.765
  167SAPE    HS18722   6.701   3.593   2.735
  167SAPE   O2118723   0.063   3.541   2.853
  167SAPE   C2118724   0.029   3.636   2.948
  167SAPE   O2218725   6.719   3.683   2.952
  167SAPE   C2218726   0.148   3.648   3.051
  167SAPE   H2R18727   0.184   3.545   3.068
  167SAPE   H2S18728   0.230   3.704   3.001
  167SAPE    C318729   6.663   3.394   2.834
  167SAPE    HX18730   6.599   3.361   2.750
  167SAPE    HY18731   6.603   3.456   2.903
  167SAPE   O3118732   6.737   3.279   2.892
  167SAPE   C3118733   6.752   3.272   3.026
  167SAPE   O3218734   6.715   3.362   3.102
  167SAPE   C3218735   0.032   3.145   3.058
  167SAPE   H2X18736   0.101   3.160   3.144
  167SAPE   H2Y18737   0.098   3.117   2.973
  167SAPE   C2318738   0.108   3.709   3.195
  167SAPE   H3R18739   0.189   3.696   3.270
  167SAPE   H3S18740   0.019   3.660   3.240
  167SAPE   C2418741   0.091   3.857   3.184
  167SAPE   H4R18742   0.075   3.899   3.285
  167SAPE   H4S18743   0.008   3.878   3.114
  167SAPE   C2518744   0.214   3.936   3.135
  167SAPE   H5R18745   0.237   3.925   3.028
  167SAPE   C2618746   0.288   4.033   3.191
  167SAPE   H6R18747   0.358   4.091   3.129
  167SAPE   C2718748   0.272   4.089   3.331
  167SAPE   H7R18749   0.177   4.043   3.365
  167SAPE   H7S18750   0.248   4.197   3.317
  167SAPE   C2818751   0.390   4.053   3.418
  167SAPE   H8R18752   0.481   4.107   3.391
  167SAPE   C2918753   0.388   3.976   3.532
  167SAPE   H9R18754   0.482   3.954   3.584
  167SAPE  C21018755   0.269   3.891   3.575
  167SAPE  H10R18756   0.223   3.848   3.484
  167SAPE  H10S18757   0.192   3.959   3.617
  167SAPE  C21118758   0.296   3.779   3.674
  167SAPE  H11R18759   0.379   3.788   3.747
  167SAPE  C21218760   0.237   3.655   3.672
  167SAPE  H12R18761   0.279   3.574   3.733
  167SAPE  C21318762   0.134   3.625   3.571
  167SAPE  H13R18763   0.161   3.591   3.468
  167SAPE  H13S18764   0.073   3.717   3.567
  167SAPE  C21418765   0.047   3.524   3.644
  167SAPE  H14R18766   0.070   3.424   3.607
  167SAPE  C21518767   6.745   3.542   3.731
  167SAPE  H15R18768   6.707   3.452   3.782
  167SAPE  C21618769   6.685   3.673   3.789
  167SAPE  H16R18770   6.575   3.661   3.775
  167SAPE  H16S18771   6.711   3.769   3.740
  167SAPE  C21718772   6.699   3.690   3.942
  167SAPE  H17R18773   6.660   3.793   3.959
  167SAPE  H17S18774   6.798   3.687   3.992
  167SAPE  C21818775   6.609   3.587   4.015
  167SAPE  H18R18776   6.596   3.486   3.970
  167SAPE  H18S18777   6.509   3.635   4.008
  167SAPE  C21918778   6.634   3.565   4.169
  167SAPE  H19R18779   6.619   3.665   4.215
  167SAPE  H19S18780   6.738   3.534   4.194
  167SAPE  C22018781   6.558   3.455   4.244
  167SAPE  H20R18782   6.572   3.455   4.355
  167SAPE  H20S18783   6.578   3.354   4.204
  167SAPE  H20T18784   6.451   3.471   4.223
  167SAPE   C3318785   6.732   3.028   3.084
  167SAPE   H3X18786   6.779   2.928   3.094
  167SAPE   H3Y18787   6.680   3.027   2.985
  167SAPE   C3418788   6.633   3.060   3.195
  167SAPE   H4X18789   6.558   2.977   3.190
  167SAPE   H4Y18790   6.581   3.156   3.177
  167SAPE   C3518791   6.706   3.050   3.330
  167SAPE   H5X18792   6.769   3.141   3.343
  167SAPE   H5Y18793   6.773   2.961   3.326
  167SAPE   C3618794   6.613   3.053   3.459
  167SAPE   H6X18795   6.521   2.992   3.448
  167SAPE   H6Y18796   6.589   3.161   3.469
  167SAPE   C3718797   6.682   3.009   3.596
  167SAPE   H7X18798   6.756   2.929   3.573
  167SAPE   H7Y18799   6.604   2.957   3.656
  167SAPE   C3818800   6.755   3.125   3.670
  167SAPE   H8X18801   6.672   3.193   3.698
  167SAPE   H8Y18802   0.027   3.166   3.596
  167SAPE   C3918803   0.038   3.089   3.796
  167SAPE   H9X18804   0.105   3.176   3.815
  167SAPE   H9Y18805   0.097   3.000   3.767
  167SAPE  C31018806   6.761   3.072   3.923
  167SAPE  H10X18807   6.693   2.985   3.918
  167SAPE  H10Y18808   6.689   3.156   3.934
  167SAPE  C31118809   0.063   3.070   4.036
  167SAPE  H11X18810   0.116   3.168   4.039
  167SAPE  H11Y18811   0.137   2.992   4.008
  167SAPE  C31218812   6.794   3.050   4.176
  167SAPE  H12X18813   6.761   2.944   4.174
  167SAPE  H12Y18814   6.705   3.115   4.191
  167SAPE  C31318815   0.100   3.071   4.289
  167SAPE  H13X18816   0.044   3.038   4.379
  167SAPE  H13Y18817   0.117   3.179   4.308
  167SAPE  C31418818   0.231   2.995   4.285
  167SAPE  H14X18819   0.287   2.991   4.381
  167SAPE  H14Y18820   0.297   3.040   4.207
  167SAPE  C31518821   0.199   2.845   4.259
  167SAPE  H15X18822   0.139   2.839   4.166
  167SAPE  H15Y18823   0.136   2.817   4.346
  167SAPE  C31618824   0.330   2.762   4.252
  167SAPE  H16X18825   0.369   2.754   4.355
  167SAPE  H16Y18826   0.398   2.826   4.191
  167SAPE  C31718827   0.306   2.619   4.206
  167SAPE  H17X18828   0.262   2.629   4.105
  167SAPE  H17Y18829   0.231   2.572   4.274
  167SAPE  C31818830   0.441   2.544   4.206
  167SAPE  H18X18831   0.506   2.552   4.296
  167SAPE  H18Y18832   0.506   2.584   4.125
  167SAPE  H18Z18833   0.419   2.438   4.180
  168SAPE     N18834   2.041   5.792   2.338
  168SAPE   HN118835   2.056   5.798   2.441
  168SAPE   HN218836   2.007   5.888   2.314
  168SAPE   HN318837   1.971   5.719   2.315
  168SAPE   C1218838   2.161   5.761   2.256
  168SAPE  H12A18839   2.197   5.857   2.212
  168SAPE  H12B18840   2.120   5.714   2.164
  168SAPE   C1118841   2.270   5.682   2.317
  168SAPE  H11A18842   2.303   5.730   2.412
  168SAPE  H11B18843   2.354   5.685   2.245
  168SAPE     P18844   2.325   5.426   2.315
  168SAPE   O1318845   2.258   5.300   2.349
  168SAPE   O1418846   2.369   5.447   2.174
  168SAPE   O1218847   2.232   5.549   2.364
  168SAPE   O1118848   2.450   5.443   2.419
  168SAPE    C118849   2.423   5.476   2.558
  168SAPE    HA18850   2.456   5.580   2.574
  168SAPE    HB18851   2.317   5.474   2.591
  168SAPE    C218852   2.507   5.400   2.663
  168SAPE    HS18853   2.526   5.464   2.751
  168SAPE   O2118854   2.622   5.354   2.598
  168SAPE   C2118855   2.734   5.343   2.671
  168SAPE   O2218856   2.747   5.408   2.773
  168SAPE   C2218857   2.831   5.256   2.591
  168SAPE   H2R18858   2.777   5.163   2.563
  168SAPE   H2S18859   2.852   5.323   2.504
  168SAPE    C318860   2.429   5.278   2.718
  168SAPE    HX18861   2.416   5.206   2.634
  168SAPE    HY18862   2.331   5.316   2.755
  168SAPE   O3118863   2.498   5.207   2.825
  168SAPE   C3118864   2.497   5.269   2.946
  168SAPE   O3218865   2.416   5.357   2.975
  168SAPE   C3218866   2.597   5.207   3.040
  168SAPE   H2X18867   2.686   5.272   3.049
  168SAPE   H2Y18868   2.622   5.108   2.995
  168SAPE   C2318869   2.974   5.242   2.655
  168SAPE   H3R18870   3.013   5.342   2.684
  168SAPE   H3S18871   3.040   5.199   2.577
  168SAPE   C2418872   2.972   5.140   2.770
  168SAPE   H4R18873   2.961   5.038   2.727
  168SAPE   H4S18874   2.887   5.157   2.840
  168SAPE   C2518875   3.110   5.127   2.832
  168SAPE   H5R18876   3.186   5.066   2.782
  168SAPE   C2618877   3.145   5.193   2.944
  168SAPE   H6R18878   3.246   5.178   2.983
  168SAPE   C2718879   3.059   5.288   3.026
  168SAPE   H7R18880   2.968   5.321   2.973
  168SAPE   H7S18881   3.109   5.384   3.050
  168SAPE   C2818882   3.022   5.213   3.146
  168SAPE   H8R18883   3.004   5.105   3.132
  168SAPE   C2918884   3.016   5.270   3.273
  168SAPE   H9R18885   2.980   5.203   3.352
  168SAPE  C21018886   3.058   5.416   3.310
  168SAPE  H10R18887   2.962   5.468   3.327
  168SAPE  H10S18888   3.122   5.462   3.232
  168SAPE  C21118889   3.117   5.430   3.448
  168SAPE  H11R18890   3.076   5.356   3.518
  168SAPE  C21218891   3.209   5.521   3.493
  168SAPE  H12R18892   3.224   5.527   3.602
  168SAPE  C21318893   3.280   5.616   3.402
  168SAPE  H13R18894   3.282   5.571   3.300
  168SAPE  H13S18895   3.388   5.617   3.428
  168SAPE  C21418896   3.224   5.759   3.397
  168SAPE  H14R18897   3.115   5.763   3.407
  168SAPE  C21518898   3.299   5.854   3.354
  168SAPE  H15R18899   3.255   5.954   3.343
  168SAPE  C21618900   3.443   5.858   3.310
  168SAPE  H16R18901   3.492   5.767   3.350
  168SAPE  H16S18902   3.503   5.940   3.355
  168SAPE  C21718903   3.470   5.856   3.160
  168SAPE  H17R18904   3.581   5.847   3.155
  168SAPE  H17S18905   3.438   5.948   3.106
  168SAPE  C21818906   3.415   5.729   3.097
  168SAPE  H18R18907   3.306   5.737   3.079
  168SAPE  H18S18908   3.452   5.643   3.157
  168SAPE  C21918909   3.462   5.720   2.948
  168SAPE  H19R18910   3.567   5.688   2.960
  168SAPE  H19S18911   3.455   5.821   2.902
  168SAPE  C22018912   3.405   5.615   2.858
  168SAPE  H20R18913   3.297   5.639   2.848
  168SAPE  H20S18914   3.423   5.513   2.897
  168SAPE  H20T18915   3.447   5.621   2.755
  168SAPE   C3318916   2.532   5.179   3.184
  168SAPE   H3X18917   2.429   5.140   3.193
  168SAPE   H3Y18918   2.524   5.279   3.232
  168SAPE   C3418919   2.615   5.080   3.266
  168SAPE   H4X18920   2.722   5.110   3.262
  168SAPE   H4Y18921   2.608   4.986   3.208
  168SAPE   C3518922   2.557   5.060   3.408
  168SAPE   H5X18923   2.554   4.953   3.435
  168SAPE   H5Y18924   2.453   5.100   3.414
  168SAPE   C3618925   2.656   5.122   3.505
  168SAPE   H6X18926   2.678   5.224   3.466
  168SAPE   H6Y18927   2.743   5.053   3.494
  168SAPE   C3718928   2.623   5.126   3.655
  168SAPE   H7X18929   2.596   5.028   3.700
  168SAPE   H7Y18930   2.526   5.181   3.660
  168SAPE   C3818931   2.722   5.203   3.746
  168SAPE   H8X18932   2.734   5.305   3.703
  168SAPE   H8Y18933   2.818   5.147   3.741
  168SAPE   C3918934   2.689   5.203   3.896
  168SAPE   H9X18935   2.776   5.241   3.954
  168SAPE   H9Y18936   2.641   5.108   3.926
  168SAPE  C31018937   2.575   5.306   3.935
  168SAPE  H10X18938   2.479   5.275   3.887
  168SAPE  H10Y18939   2.587   5.406   3.888
  168SAPE  C31118940   2.552   5.324   4.086
  168SAPE  H11X18941   2.652   5.326   4.136
  168SAPE  H11Y18942   2.499   5.234   4.126
  168SAPE  C31218943   2.477   5.448   4.124
  168SAPE  H12X18944   2.381   5.454   4.069
  168SAPE  H12Y18945   2.541   5.535   4.095
  168SAPE  C31318946   2.432   5.444   4.271
  168SAPE  H13X18947   2.518   5.397   4.322
  168SAPE  H13Y18948   2.346   5.375   4.285
  168SAPE  C31418949   2.404   5.584   4.325
  168SAPE  H14X18950   2.488   5.654   4.307
  168SAPE  H14Y18951   2.395   5.572   4.435
  168SAPE  C31518952   2.273   5.646   4.267
  168SAPE  H15X18953   2.191   5.572   4.279
  168SAPE  H15Y18954   2.285   5.655   4.157
  168SAPE  C31618955   2.236   5.778   4.327
  168SAPE  H16X18956   2.216   5.759   4.435
  168SAPE  H16Y18957   2.142   5.818   4.284
  168SAPE  C31718958   2.344   5.884   4.312
  168SAPE  H17X18959   2.338   5.934   4.213
  168SAPE  H17Y18960   2.450   5.852   4.323
  168SAPE  C31818961   2.330   5.996   4.420
  168SAPE  H18X18962   2.384   6.089   4.393
  168SAPE  H18Y18963   2.367   5.959   4.518
  168SAPE  H18Z18964   2.223   6.026   4.430
  169SAPE     N18965   6.542   3.284   2.109
  169SAPE   HN118966   6.583   3.347   2.037
  169SAPE   HN218967   6.450   3.322   2.140
  169SAPE   HN318968   6.605   3.299   2.191
  169SAPE   C1218969   6.527   3.141   2.070
  169SAPE  H12A18970   6.530   3.132   1.959
  169SAPE  H12B18971   6.427   3.118   2.112
  169SAPE   C1118972   6.619   3.039   2.143
  169SAPE  H11A18973   6.617   3.040   2.254
  169SAPE  H11B18974   6.719   3.077   2.112
  169SAPE     P18975   6.465   2.828   2.145
  169SAPE   O1318976   6.411   2.899   2.263
  169SAPE   O1418977   6.377   2.817   2.029
  169SAPE   O1218978   6.596   2.905   2.087
  169SAPE   O1118979   6.515   2.685   2.186
  169SAPE    C118980   6.636   2.677   2.255
  169SAPE    HA18981   6.697   2.600   2.202
  169SAPE    HB18982   6.695   2.771   2.258
  169SAPE    C218983   6.616   2.616   2.399
  169SAPE    HS18984   6.548   2.530   2.383
  169SAPE   O2118985   6.567   2.715   2.488
  169SAPE   C2118986   6.445   2.707   2.507
  169SAPE   O2218987   6.361   2.643   2.445
  169SAPE   C2218988   6.400   2.799   2.617
  169SAPE   H2R18989   6.483   2.855   2.665
  169SAPE   H2S18990   6.324   2.876   2.592
  169SAPE    C318991   6.747   2.545   2.449
  169SAPE    HX18992   0.028   2.619   2.458
  169SAPE    HY18993   6.765   2.463   2.376
  169SAPE   O3118994   6.716   2.489   2.578
  169SAPE   C3118995   0.010   2.404   2.620
  169SAPE   O3218996   0.106   2.367   2.550
  169SAPE   C3218997   6.786   2.355   2.762
  169SAPE   H2X18998   6.794   2.245   2.766
  169SAPE   H2Y18999   6.679   2.376   2.782
  169SAPE   C2319000   6.330   2.715   2.726
  169SAPE   H3R19001   6.254   2.641   2.695
  169SAPE   H3S19002   6.276   2.776   2.802
  169SAPE   C2419003   6.432   2.643   2.821
  169SAPE   H4R19004   6.491   2.571   2.761
  169SAPE   H4S19005   6.359   2.581   2.878
  169SAPE   C2519006   6.528   2.724   2.913
  169SAPE   H5R19007   6.579   2.803   2.855
  169SAPE   C2619008   6.539   2.719   3.048
  169SAPE   H6R19009   6.602   2.792   3.101
  169SAPE   C2719010   6.473   2.625   3.139
  169SAPE   H7R19011   6.405   2.552   3.089
  169SAPE   H7S19012   6.404   2.677   3.209
  169SAPE   C2819013   6.575   2.535   3.209
  169SAPE   H8R19014   6.616   2.457   3.143
  169SAPE   C2919015   6.622   2.543   3.335
  169SAPE   H9R19016   6.686   2.462   3.373
  169SAPE  C21019017   6.570   2.639   3.442
  169SAPE  H10R19018   6.473   2.685   3.414
  169SAPE  H10S19019   6.653   2.708   3.467
  169SAPE  C21119020   6.534   2.554   3.557
  169SAPE  H11R19021   6.439   2.499   3.563
  169SAPE  C21219022   6.608   2.531   3.671
  169SAPE  H12R19023   6.571   2.465   3.751
  169SAPE  C21319024   6.749   2.575   3.690
  169SAPE  H13R19025   6.771   2.654   3.614
  169SAPE  H13S19026   0.018   2.490   3.672
  169SAPE  C21419027   6.791   2.632   3.818
  169SAPE  H14R19028   6.768   2.739   3.822
  169SAPE  C21519029   0.018   2.565   3.931
  169SAPE  H15R19030   0.051   2.607   4.027
  169SAPE  C21619031   0.034   2.416   3.937
  169SAPE  H16R19032   0.142   2.402   3.914
  169SAPE  H16S19033   6.783   2.350   3.864
  169SAPE  C21719034   0.031   2.342   4.074
  169SAPE  H17R19035   0.121   2.373   4.131
  169SAPE  H17S19036   0.042   2.234   4.050
  169SAPE  C21819037   6.709   2.387   4.153
  169SAPE  H18R19038   6.611   2.373   4.103
  169SAPE  H18S19039   6.713   2.496   4.175
  169SAPE  C21919040   6.681   2.320   4.293
  169SAPE  H19R19041   6.739   2.370   4.374
  169SAPE  H19S19042   6.703   2.212   4.296
  169SAPE  C22019043   6.530   2.331   4.334
  169SAPE  H20R19044   6.462   2.301   4.251
  169SAPE  H20S19045   6.497   2.434   4.361
  169SAPE  H20T19046   6.510   2.266   4.421
  169SAPE   C3319047   0.097   2.424   2.855
  169SAPE   H3X19048   0.076   2.533   2.856
  169SAPE   H3Y19049   0.201   2.407   2.822
  169SAPE   C3419050   0.093   2.367   2.999
  169SAPE   H4X19051   0.121   2.260   2.985
  169SAPE   H4Y19052   6.785   2.380   3.019
  169SAPE   C3519053   0.178   2.442   3.094
  169SAPE   H5X19054   0.148   2.549   3.087
  169SAPE   H5Y19055   0.286   2.446   3.068
  169SAPE   C3619056   0.167   2.397   3.241
  169SAPE   H6X19057   0.064   2.433   3.264
  169SAPE   H6Y19058   0.238   2.451   3.307
  169SAPE   C3719059   0.171   2.249   3.259
  169SAPE   H7X19060   0.264   2.204   3.218
  169SAPE   H7Y19061   0.081   2.202   3.213
  169SAPE   C3819062   0.173   2.202   3.402
  169SAPE   H8X19063   0.258   2.232   3.467
  169SAPE   H8Y19064   0.181   2.093   3.379
  169SAPE   C3919065   0.051   2.239   3.480
  169SAPE   H9X19066   6.764   2.213   3.416
  169SAPE   H9Y19067   0.053   2.349   3.493
  169SAPE  C31019068   0.027   2.158   3.611
  169SAPE  H10X19069   6.784   2.061   3.579
  169SAPE  H10Y19070   6.743   2.202   3.668
  169SAPE  C31119071   0.152   2.137   3.697
  169SAPE  H11X19072   0.189   2.236   3.729
  169SAPE  H11Y19073   0.232   2.086   3.639
  169SAPE  C31219074   0.130   2.054   3.829
  169SAPE  H12X19075   0.123   1.950   3.792
  169SAPE  H12Y19076   0.037   2.096   3.873
  169SAPE  C31319077   0.250   2.085   3.923
  169SAPE  H13X19078   0.247   2.185   3.971
  169SAPE  H13Y19079   0.340   2.099   3.859
  169SAPE  C31419080   0.295   1.981   4.023
  169SAPE  H14X19081   0.331   1.899   3.957
  169SAPE  H14Y19082   0.216   1.925   4.078
  169SAPE  C31519083   0.398   2.033   4.125
  169SAPE  H15X19084   0.478   2.089   4.071
  169SAPE  H15Y19085   0.441   1.945   4.177
  169SAPE  C31619086   0.319   2.115   4.224
  169SAPE  H16X19087   0.218   2.069   4.233
  169SAPE  H16Y19088   0.297   2.211   4.172
  169SAPE  C31719089   0.399   2.131   4.349
  169SAPE  H17X19090   0.506   2.148   4.323
  169SAPE  H17Y19091   0.390   2.036   4.407
  169SAPE  C31819092   0.351   2.233   4.448
  169SAPE  H18X19093   0.356   2.336   4.405
  169SAPE  H18Y19094   0.423   2.232   4.533
  169SAPE  H18Z19095   0.250   2.211   4.489
  170SAPE     N19096   0.586   4.340   2.275
  170SAPE   HN119097   0.586   4.434   2.317
  170SAPE   HN219098   0.686   4.312   2.285
  170SAPE   HN319099   0.560   4.337   2.174
  170SAPE   C1219100   0.490   4.245   2.344
  170SAPE  H12A19101   0.388   4.288   2.332
  170SAPE  H12B19102   0.500   4.244   2.455
  170SAPE   C1119103   0.495   4.104   2.289
  170SAPE  H11A19104   0.463   4.108   2.183
  170SAPE  H11B19105   0.423   4.046   2.351
  170SAPE     P19106   0.625   3.876   2.283
  170SAPE   O1319107   0.507   3.836   2.202
  170SAPE   O1419108   0.755   3.835   2.227
  170SAPE   O1219109   0.620   4.037   2.301
  170SAPE   O1119110   0.631   3.803   2.424
  170SAPE    C119111   0.600   3.882   2.534
  170SAPE    HA19112   0.672   3.967   2.539
  170SAPE    HB19113   0.496   3.921   2.527
  170SAPE    C219114   0.605   3.798   2.660
  170SAPE    HS19115   0.714   3.791   2.682
  170SAPE   O2119116   0.550   3.666   2.636
  170SAPE   C2119117   0.620   3.573   2.700
  170SAPE   O2219118   0.720   3.581   2.766
  170SAPE   C2219119   0.547   3.444   2.700
  170SAPE   H2R19120   0.521   3.414   2.596
  170SAPE   H2S19121   0.619   3.367   2.733
  170SAPE    C319122   0.541   3.880   2.784
  170SAPE    HX19123   0.442   3.894   2.735
  170SAPE    HY19124   0.590   3.977   2.806
  170SAPE   O3119125   0.523   3.796   2.898
  170SAPE   C3119126   0.611   3.807   2.995
  170SAPE   O3219127   0.704   3.884   3.000
  170SAPE   C3219128   0.572   3.719   3.117
  170SAPE   H2X19129   0.498   3.647   3.076
  170SAPE   H2Y19130   0.531   3.785   3.197
  170SAPE   C2319131   0.415   3.455   2.791
  170SAPE   H3R19132   0.332   3.498   2.731
  170SAPE   H3S19133   0.434   3.533   2.868
  170SAPE   C2419134   0.373   3.316   2.852
  170SAPE   H4R19135   0.347   3.252   2.765
  170SAPE   H4S19136   0.287   3.331   2.921
  170SAPE   C2519137   0.486   3.269   2.935
  170SAPE   H5R19138   0.583   3.272   2.884
  170SAPE   C2619139   0.474   3.244   3.067
  170SAPE   H6R19140   0.574   3.233   3.112
  170SAPE   C2719141   0.368   3.250   3.174
  170SAPE   H7R19142   0.362   3.153   3.227
  170SAPE   H7S19143   0.270   3.259   3.122
  170SAPE   C2819144   0.395   3.372   3.259
  170SAPE   H8R19145   0.363   3.466   3.213
  170SAPE   C2919146   0.474   3.362   3.368
  170SAPE   H9R19147   0.496   3.451   3.429
  170SAPE  C21019148   0.535   3.244   3.430
  170SAPE  H10R19149   0.596   3.270   3.518
  170SAPE  H10S19150   0.607   3.195   3.361
  170SAPE  C21119151   0.461   3.128   3.488
  170SAPE  H11R19152   0.412   3.054   3.423
  170SAPE  C21219153   0.462   3.089   3.616
  170SAPE  H12R19154   0.399   3.002   3.641
  170SAPE  C21319155   0.530   3.152   3.729
  170SAPE  H13R19156   0.633   3.172   3.693
  170SAPE  H13S19157   0.549   3.084   3.814
  170SAPE  C21419158   0.464   3.287   3.766
  170SAPE  H14R19159   0.438   3.358   3.686
  170SAPE  C21519160   0.420   3.328   3.886
  170SAPE  H15R19161   0.394   3.435   3.897
  170SAPE  C21619162   0.421   3.250   4.019
  170SAPE  H16R19163   0.439   3.144   3.992
  170SAPE  H16S19164   0.326   3.237   4.074
  170SAPE  C21719165   0.536   3.285   4.118
  170SAPE  H17R19166   0.513   3.390   4.143
  170SAPE  H17S19167   0.642   3.281   4.083
  170SAPE  C21819168   0.523   3.204   4.243
  170SAPE  H18R19169   0.547   3.097   4.222
  170SAPE  H18S19170   0.425   3.215   4.293
  170SAPE  C21919171   0.612   3.264   4.354
  170SAPE  H19R19172   0.586   3.372   4.355
  170SAPE  H19S19173   0.717   3.251   4.321
  170SAPE  C22019174   0.583   3.209   4.493
  170SAPE  H20R19175   0.475   3.224   4.511
  170SAPE  H20S19176   0.641   3.253   4.577
  170SAPE  H20T19177   0.595   3.099   4.494
  170SAPE   C3319178   0.696   3.636   3.165
  170SAPE   H3X19179   0.761   3.620   3.076
  170SAPE   H3Y19180   0.653   3.536   3.187
  170SAPE   C3419181   0.776   3.678   3.291
  170SAPE   H4X19182   0.804   3.785   3.278
  170SAPE   H4Y19183   0.865   3.611   3.295
  170SAPE   C3519184   0.698   3.666   3.421
  170SAPE   H5X19185   0.674   3.559   3.441
  170SAPE   H5Y19186   0.602   3.719   3.406
  170SAPE   C3619187   0.788   3.733   3.533
  170SAPE   H6X19188   0.799   3.842   3.513
  170SAPE   H6Y19189   0.890   3.688   3.538
  170SAPE   C3719190   0.724   3.714   3.671
  170SAPE   H7X19191   0.697   3.607   3.686
  170SAPE   H7Y19192   0.625   3.764   3.663
  170SAPE   C3819193   0.808   3.749   3.796
  170SAPE   H8X19194   0.811   3.860   3.799
  170SAPE   H8Y19195   0.907   3.707   3.767
  170SAPE   C3919196   0.745   3.688   3.924
  170SAPE   H9X19197   0.810   3.658   4.009
  170SAPE   H9Y19198   0.696   3.591   3.899
  170SAPE  C31019199   0.630   3.773   3.986
  170SAPE  H10X19200   0.570   3.833   3.914
  170SAPE  H10Y19201   0.682   3.846   4.052
  170SAPE  C31119202   0.531   3.680   4.070
  170SAPE  H11X19203   0.572   3.672   4.173
  170SAPE  H11Y19204   0.515   3.584   4.017
  170SAPE  C31219205   0.394   3.745   4.082
  170SAPE  H12X19206   0.368   3.800   3.990
  170SAPE  H12Y19207   0.389   3.826   4.158
  170SAPE  C31319208   0.283   3.641   4.123
  170SAPE  H13X19209   0.268   3.559   4.050
  170SAPE  H13Y19210   0.188   3.698   4.131
  170SAPE  C31419211   0.305   3.582   4.265
  170SAPE  H14X19212   0.399   3.525   4.252
  170SAPE  H14Y19213   0.223   3.510   4.287
  170SAPE  C31519214   0.319   3.687   4.376
  170SAPE  H15X19215   0.249   3.772   4.358
  170SAPE  H15Y19216   0.421   3.731   4.365
  170SAPE  C31619217   0.313   3.634   4.518
  170SAPE  H16X19218   0.381   3.546   4.522
  170SAPE  H16Y19219   0.214   3.585   4.532
  170SAPE  C31719220   0.340   3.728   4.634
  170SAPE  H17X19221   0.328   3.673   4.730
  170SAPE  H17Y19222   0.266   3.810   4.628
  170SAPE  C31819223   0.488   3.773   4.626
  170SAPE  H18X19224   0.517   3.830   4.717
  170SAPE  H18Y19225   0.512   3.824   4.530
  170SAPE  H18Z19226   0.557   3.687   4.616
  171SAPE     N19227   1.009   2.484   2.094
  171SAPE   HN119228   0.989   2.383   2.078
  171SAPE   HN219229   1.110   2.497   2.077
  171SAPE   HN319230   0.975   2.516   2.187
  171SAPE   C1219231   0.928   2.557   1.990
  171SAPE  H12A19232   0.962   2.531   1.887
  171SAPE  H12B19233   0.937   2.667   2.006
  171SAPE   C1119234   0.781   2.518   2.002
  171SAPE  H11A19235   0.773   2.408   1.987
  171SAPE  H11B19236   0.722   2.564   1.920
  171SAPE     P19237   0.576   2.539   2.162
  171SAPE   O1319238   0.518   2.674   2.160
  171SAPE   O1419239   0.512   2.444   2.070
  171SAPE   O1219240   0.735   2.549   2.134
  171SAPE   O1119241   0.564   2.485   2.310
  171SAPE    C119242   0.631   2.550   2.420
  171SAPE    HA19243   0.721   2.498   2.459
  171SAPE    HB19244   0.660   2.655   2.397
  171SAPE    C219245   0.526   2.557   2.533
  171SAPE    HS19246   0.578   2.593   2.624
  171SAPE   O2119247   0.453   2.434   2.546
  171SAPE   C2119248   0.515   2.354   2.640
  171SAPE   O2219249   0.615   2.387   2.698
  171SAPE   C2219250   0.431   2.230   2.668
  171SAPE   H2R19251   0.324   2.259   2.672
  171SAPE   H2S19252   0.449   2.168   2.578
  171SAPE    C319253   0.416   2.655   2.486
  171SAPE    HX19254   0.357   2.602   2.408
  171SAPE    HY19255   0.451   2.748   2.437
  171SAPE   O3119256   0.334   2.689   2.596
  171SAPE   C3119257   0.357   2.810   2.645
  171SAPE   O3219258   0.442   2.887   2.612
  171SAPE   C3219259   0.265   2.829   2.765
  171SAPE   H2X19260   0.174   2.766   2.759
  171SAPE   H2Y19261   0.222   2.931   2.751
  171SAPE   C2319262   0.485   2.166   2.795
  171SAPE   H3R19263   0.502   2.250   2.865
  171SAPE   H3S19264   0.576   2.105   2.776
  171SAPE   C2419265   0.367   2.072   2.849
  171SAPE   H4R19266   0.298   2.156   2.870
  171SAPE   H4S19267   0.399   2.027   2.945
  171SAPE   C2519268   0.303   1.975   2.762
  171SAPE   H5R19269   0.330   1.969   2.655
  171SAPE   C2619270   0.202   1.898   2.796
  171SAPE   H6R19271   0.160   1.833   2.718
  171SAPE   C2719272   0.131   1.883   2.926
  171SAPE   H7R19273   0.020   1.887   2.923
  171SAPE   H7S19274   0.166   1.959   2.999
  171SAPE   C2819275   0.158   1.748   2.984
  171SAPE   H8R19276   0.141   1.658   2.922
  171SAPE   C2919277   0.209   1.714   3.105
  171SAPE   H9R19278   0.204   1.607   3.129
  171SAPE  C21019279   0.252   1.807   3.212
  171SAPE  H10R19280   0.276   1.909   3.174
  171SAPE  H10S19281   0.353   1.779   3.249
  171SAPE  C21119282   0.158   1.831   3.324
  171SAPE  H11R19283   0.072   1.886   3.282
  171SAPE  C21219284   0.172   1.802   3.457
  171SAPE  H12R19285   0.101   1.846   3.528
  171SAPE  C21319286   0.303   1.740   3.514
  171SAPE  H13R19287   0.389   1.809   3.497
  171SAPE  H13S19288   0.333   1.647   3.461
  171SAPE  C21419289   0.298   1.716   3.662
  171SAPE  H14R19290   0.205   1.738   3.717
  171SAPE  C21519291   0.404   1.653   3.722
  171SAPE  H15R19292   0.396   1.634   3.830
  171SAPE  C21619293   0.531   1.598   3.665
  171SAPE  H16R19294   0.545   1.631   3.560
  171SAPE  H16S19295   0.547   1.488   3.669
  171SAPE  C21719296   0.659   1.660   3.729
  171SAPE  H17R19297   0.642   1.769   3.741
  171SAPE  H17S19298   0.736   1.641   3.652
  171SAPE  C21819299   0.697   1.624   3.871
  171SAPE  H18R19300   0.704   1.513   3.878
  171SAPE  H18S19301   0.627   1.652   3.951
  171SAPE  C21919302   0.838   1.680   3.908
  171SAPE  H19R19303   0.828   1.788   3.885
  171SAPE  H19S19304   0.913   1.640   3.837
  171SAPE  C22019305   0.876   1.665   4.055
  171SAPE  H20R19306   0.821   1.744   4.110
  171SAPE  H20S19307   0.983   1.694   4.069
  171SAPE  H20T19308   0.854   1.566   4.100
  171SAPE   C3319309   0.341   2.810   2.893
  171SAPE   H3X19310   0.445   2.848   2.884
  171SAPE   H3Y19311   0.356   2.700   2.900
  171SAPE   C3419312   0.290   2.882   3.015
  171SAPE   H4X19313   0.180   2.864   3.020
  171SAPE   H4Y19314   0.301   2.990   2.991
  171SAPE   C3519315   0.363   2.832   3.147
  171SAPE   H5X19316   0.458   2.889   3.152
  171SAPE   H5Y19317   0.393   2.726   3.134
  171SAPE   C3619318   0.280   2.834   3.278
  171SAPE   H6X19319   0.185   2.780   3.258
  171SAPE   H6Y19320   0.253   2.939   3.300
  171SAPE   C3719321   0.340   2.769   3.406
  171SAPE   H7X19322   0.432   2.822   3.439
  171SAPE   H7Y19323   0.360   2.662   3.386
  171SAPE   C3819324   0.254   2.764   3.525
  171SAPE   H8X19325   0.171   2.694   3.500
  171SAPE   H8Y19326   0.206   2.862   3.545
  171SAPE   C3919327   0.319   2.725   3.663
  171SAPE   H9X19328   0.253   2.741   3.751
  171SAPE   H9Y19329   0.407   2.792   3.665
  171SAPE  C31019330   0.375   2.582   3.661
  171SAPE  H10X19331   0.447   2.573   3.576
  171SAPE  H10Y19332   0.295   2.505   3.655
  171SAPE  C31119333   0.444   2.539   3.796
  171SAPE  H11X19334   0.374   2.562   3.879
  171SAPE  H11Y19335   0.531   2.604   3.819
  171SAPE  C31219336   0.477   2.384   3.792
  171SAPE  H12X19337   0.395   2.323   3.746
  171SAPE  H12Y19338   0.486   2.344   3.895
  171SAPE  C31319339   0.614   2.356   3.727
  171SAPE  H13X19340   0.689   2.402   3.795
  171SAPE  H13Y19341   0.616   2.404   3.627
  171SAPE  C31419342   0.634   2.205   3.724
  171SAPE  H14X19343   0.563   2.166   3.647
  171SAPE  H14Y19344   0.600   2.157   3.818
  171SAPE  C31519345   0.781   2.175   3.678
  171SAPE  H15X19346   0.851   2.209   3.757
  171SAPE  H15Y19347   0.798   2.233   3.585
  171SAPE  C31619348   0.812   2.026   3.649
  171SAPE  H16X19349   0.748   1.994   3.564
  171SAPE  H16Y19350   0.789   1.965   3.738
  171SAPE  C31719351   0.957   2.011   3.596
  171SAPE  H17X19352   1.034   2.054   3.664
  171SAPE  H17Y19353   0.969   2.068   3.501
  171SAPE  C31819354   1.002   1.862   3.561
  171SAPE  H18X19355   1.107   1.855   3.523
  171SAPE  H18Y19356   0.943   1.816   3.479
  171SAPE  H18Z19357   0.976   1.797   3.646
  172SAPE     N19358   1.045   4.591   2.737
  172SAPE   HN119359   1.074   4.594   2.637
  172SAPE   HN219360   1.130   4.602   2.795
  172SAPE   HN319361   1.012   4.493   2.751
  172SAPE   C1219362   0.941   4.690   2.773
  172SAPE  H12A19363   0.986   4.791   2.778
  172SAPE  H12B19364   0.899   4.666   2.873
  172SAPE   C1119365   0.818   4.676   2.681
  172SAPE  H11A19366   0.770   4.581   2.712
  172SAPE  H11B19367   0.860   4.671   2.578
  172SAPE     P19368   0.658   4.847   2.566
  172SAPE   O1319369   0.741   4.832   2.444
  172SAPE   O1419370   0.522   4.791   2.562
  172SAPE   O1219371   0.725   4.784   2.699
  172SAPE   O1119372   0.663   4.998   2.589
  172SAPE    C119373   0.774   5.063   2.651
  172SAPE    HA19374   0.869   5.020   2.615
  172SAPE    HB19375   0.771   5.172   2.627
  172SAPE    C219376   0.796   5.048   2.812
  172SAPE    HS19377   0.854   4.954   2.815
  172SAPE   O2119378   0.674   5.036   2.882
  172SAPE   C2119379   0.589   5.135   2.879
  172SAPE   O2219380   0.600   5.241   2.814
  172SAPE   C2219381   0.472   5.105   2.978
  172SAPE   H2R19382   0.434   5.005   2.949
  172SAPE   H2S19383   0.518   5.100   3.079
  172SAPE    C319384   0.882   5.160   2.878
  172SAPE    HX19385   0.857   5.262   2.842
  172SAPE    HY19386   0.987   5.137   2.849
  172SAPE   O3119387   0.865   5.145   3.022
  172SAPE   C3119388   0.912   5.040   3.087
  172SAPE   O3219389   0.985   4.954   3.046
  172SAPE   C3219390   0.859   5.031   3.233
  172SAPE   H2X19391   0.943   4.995   3.297
  172SAPE   H2Y19392   0.774   4.959   3.232
  172SAPE   C2319393   0.356   5.209   2.998
  172SAPE   H3R19394   0.308   5.225   2.899
  172SAPE   H3S19395   0.396   5.301   3.046
  172SAPE   C2419396   0.267   5.138   3.105
  172SAPE   H4R19397   0.321   5.104   3.196
  172SAPE   H4S19398   0.233   5.040   3.064
  172SAPE   C2519399   0.158   5.227   3.153
  172SAPE   H5R19400   0.079   5.250   3.080
  172SAPE   C2619401   0.149   5.282   3.281
  172SAPE   H6R19402   0.058   5.342   3.298
  172SAPE   C2719403   0.255   5.276   3.393
  172SAPE   H7R19404   0.248   5.364   3.460
  172SAPE   H7S19405   0.356   5.284   3.348
  172SAPE   C2819406   0.227   5.140   3.465
  172SAPE   H8R19407   0.219   5.062   3.388
  172SAPE   C2919408   0.232   5.121   3.599
  172SAPE   H9R19409   0.192   5.026   3.638
  172SAPE  C21019410   0.258   5.236   3.698
  172SAPE  H10R19411   0.333   5.308   3.660
  172SAPE  H10S19412   0.290   5.198   3.797
  172SAPE  C21119413   0.131   5.305   3.732
  172SAPE  H11R19414   0.041   5.256   3.693
  172SAPE  C21219415   0.118   5.423   3.804
  172SAPE  H12R19416   0.017   5.467   3.802
  172SAPE  C21319417   0.217   5.498   3.890
  172SAPE  H13R19418   0.317   5.493   3.840
  172SAPE  H13S19419   0.238   5.440   3.983
  172SAPE  C21419420   0.179   5.640   3.935
  172SAPE  H14R19421   0.173   5.718   3.857
  172SAPE  C21519422   0.152   5.675   4.059
  172SAPE  H15R19423   0.143   5.782   4.084
  172SAPE  C21619424   0.150   5.591   4.185
  172SAPE  H16R19425   0.135   5.482   4.172
  172SAPE  H16S19426   0.070   5.625   4.255
  172SAPE  C21719427   0.285   5.622   4.251
  172SAPE  H17R19428   0.286   5.726   4.291
  172SAPE  H17S19429   0.369   5.592   4.185
  172SAPE  C21819430   0.293   5.522   4.371
  172SAPE  H18R19431   0.305   5.417   4.336
  172SAPE  H18S19432   0.198   5.522   4.428
  172SAPE  C21919433   0.409   5.562   4.468
  172SAPE  H19R19434   0.388   5.510   4.564
  172SAPE  H19S19435   0.395   5.671   4.486
  172SAPE  C22019436   0.550   5.518   4.417
  172SAPE  H20R19437   0.637   5.539   4.483
  172SAPE  H20S19438   0.566   5.565   4.317
  172SAPE  H20T19439   0.552   5.410   4.391
  172SAPE   C3319440   0.805   5.169   3.276
  172SAPE   H3X19441   0.736   5.201   3.195
  172SAPE   H3Y19442   0.890   5.240   3.276
  172SAPE   C3419443   0.723   5.170   3.410
  172SAPE   H4X19444   0.753   5.083   3.471
  172SAPE   H4Y19445   0.619   5.175   3.370
  172SAPE   C3519446   0.751   5.294   3.496
  172SAPE   H5X19447   0.718   5.382   3.437
  172SAPE   H5Y19448   0.858   5.305   3.525
  172SAPE   C3619449   0.667   5.303   3.620
  172SAPE   H6X19450   0.561   5.292   3.588
  172SAPE   H6Y19451   0.686   5.406   3.657
  172SAPE   C3719452   0.713   5.199   3.724
  172SAPE   H7X19453   0.821   5.215   3.740
  172SAPE   H7Y19454   0.703   5.098   3.681
  172SAPE   C3819455   0.623   5.213   3.847
  172SAPE   H8X19456   0.518   5.210   3.813
  172SAPE   H8Y19457   0.639   5.316   3.885
  172SAPE   C3919458   0.658   5.117   3.958
  172SAPE   H9X19459   0.768   5.116   3.975
  172SAPE   H9Y19460   0.636   5.012   3.928
  172SAPE  C31019461   0.579   5.152   4.085
  172SAPE  H10X19462   0.474   5.183   4.065
  172SAPE  H10Y19463   0.623   5.239   4.138
  172SAPE  C31119464   0.589   5.030   4.186
  172SAPE  H11X19465   0.689   4.982   4.176
  172SAPE  H11Y19466   0.524   4.944   4.158
  172SAPE  C31219467   0.602   5.060   4.336
  172SAPE  H12X19468   0.688   5.127   4.358
  172SAPE  H12Y19469   0.616   4.963   4.388
  172SAPE  C31319470   0.473   5.112   4.398
  172SAPE  H13X19471   0.389   5.065   4.343
  172SAPE  H13Y19472   0.464   5.220   4.375
  172SAPE  C31419473   0.472   5.094   4.548
  172SAPE  H14X19474   0.565   5.139   4.590
  172SAPE  H14Y19475   0.485   4.987   4.573
  172SAPE  C31519476   0.340   5.151   4.613
  172SAPE  H15X19477   0.260   5.110   4.548
  172SAPE  H15Y19478   0.347   5.260   4.592
  172SAPE  C31619479   0.333   5.110   4.768
  172SAPE  H16X19480   0.424   5.154   4.813
  172SAPE  H16Y19481   0.326   4.999   4.761
  172SAPE  C31719482   0.210   5.162   4.836
  172SAPE  H17X19483   0.119   5.148   4.773
  172SAPE  H17Y19484   0.234   5.266   4.867
  172SAPE  C31819485   0.187   5.084   4.964
  172SAPE  H18X19486   0.110   5.140   5.022
  172SAPE  H18Y19487   0.283   5.071   5.018
  172SAPE  H18Z19488   0.144   4.986   4.937
  173SLPC     N19489   6.087   6.519   6.972
  173SLPC   C1319490   5.973   6.515   7.071
  173SLPC  H13A19491   5.925   6.611   7.063
  173SLPC  H13B19492   5.906   6.433   7.049
  173SLPC  H13C19493   6.012   6.512   7.172
  173SLPC   C1419494   6.029   6.505   6.830
  173SLPC  H14A19495   5.969   6.415   6.825
  173SLPC  H14B19496   5.973   6.598   6.828
  173SLPC  H14C19497   6.112   6.507   6.761
  173SLPC   C1519498   6.186   6.408   6.997
  173SLPC  H15A19499   6.270   6.408   6.929
  173SLPC  H15B19500   6.219   6.403   7.100
  173SLPC  H15C19501   6.141   6.311   6.980
  173SLPC   C1219502   6.161   6.647   6.977
  173SLPC  H12A19503   6.237   6.638   6.900
  173SLPC  H12B19504   6.218   6.660   7.068
  173SLPC   C1119505   6.083   6.782   6.955
  173SLPC  H11A19506   6.158   0.063   6.964
  173SLPC  H11B19507   6.022   0.002   7.045
  173SLPC     P19508   5.986   0.111   6.753
  173SLPC   O1319509   5.890   0.087   6.645
  173SLPC   O1419510   5.959   0.224   6.847
  173SLPC   O1219511   6.008   6.780   6.835
  173SLPC   O1119512   6.127   0.138   6.686
  173SLPC    C119513   6.192   0.027   6.622
  173SLPC    HA19514   6.300   0.033   6.648
  173SLPC    HB19515   6.160   6.728   6.659
  173SLPC    C219516   6.171   0.036   6.468
  173SLPC    HS19517   6.064   0.018   6.443
  173SLPC   O2119518   6.255   6.751   6.396
  173SLPC   C2119519   6.230   6.618   6.408
  173SLPC   O2219520   6.134   6.569   6.471
  173SLPC   C2219521   6.322   6.541   6.322
  173SLPC   H2R19522   6.413   6.601   6.303
  173SLPC   H2S19523   6.354   6.446   6.371
  173SLPC    C319524   6.193   0.186   6.431
  173SLPC    HX19525   6.285   0.224   6.481
  173SLPC    HY19526   6.110   0.251   6.466
  173SLPC   O3119527   6.216   0.206   6.287
  173SLPC   C3119528   6.119   0.174   6.208
  173SLPC   O3219529   6.007   0.143   6.244
  173SLPC   C3219530   6.155   0.196   6.060
  173SLPC   H2X19531   6.091   0.277   6.020
  173SLPC   H2Y19532   6.127   0.099   6.012
  173SLPC   C2319533   6.257   6.515   6.184
  173SLPC   H3R19534   6.160   6.462   6.193
  173SLPC   H3S19535   6.326   6.451   6.126
  173SLPC   C2419536   6.235   6.643   6.098
  173SLPC   H4R19537   6.319   6.712   6.120
  173SLPC   H4S19538   6.150   6.701   6.142
  173SLPC   C2519539   6.219   6.606   5.948
  173SLPC   H5R19540   6.309   6.545   5.926
  173SLPC   H5S19541   6.232   6.694   5.882
  173SLPC   C2619542   6.102   6.510   5.926
  173SLPC   H6R19543   6.014   6.552   5.977
  173SLPC   H6S19544   6.134   6.417   5.977
  173SLPC   C2719545   6.069   6.480   5.781
  173SLPC   H7R19546   6.167   6.450   5.738
  173SLPC   H7S19547   6.049   6.569   5.718
  173SLPC   C2819548   5.965   6.371   5.761
  173SLPC   H8R19549   5.999   6.272   5.796
  173SLPC   H8S19550   5.940   6.349   5.655
  173SLPC   C2919551   5.836   6.399   5.829
  173SLPC   H9R19552   5.841   6.464   5.917
  173SLPC  C21019553   5.712   6.372   5.786
  173SLPC  H10R19554   5.633   6.407   5.854
  173SLPC  C21119555   5.675   6.306   5.664
  173SLPC  H11R19556   5.590   6.242   5.695
  173SLPC  H11S19557   5.755   6.235   5.636
  173SLPC  C21219558   5.643   6.398   5.553
  173SLPC  H12R19559   5.565   6.468   5.586
  173SLPC  C21319560   5.661   6.377   5.423
  173SLPC  H13R19561   5.632   6.456   5.352
  173SLPC  C21419562   5.738   6.254   5.368
  173SLPC  H14R19563   5.670   6.166   5.370
  173SLPC  H14S19564   5.827   6.235   5.431
  173SLPC  C21519565   5.778   6.273   5.226
  173SLPC  H15R19566   5.675   6.284   5.184
  173SLPC  H15S19567   5.803   6.171   5.189
  173SLPC  C21619568   5.883   6.379   5.212
  173SLPC  H16R19569   5.967   6.351   5.279
  173SLPC  H16S19570   5.833   6.471   5.249
  173SLPC  C21719571   5.927   6.412   5.074
  173SLPC  H17R19572   6.020   6.474   5.072
  173SLPC  H17S19573   5.852   6.474   5.020
  173SLPC  C21819574   5.961   6.288   4.988
  173SLPC  H18R19575   5.874   6.247   4.933
  173SLPC  H18S19576   5.993   6.203   5.053
  173SLPC  H18T19577   6.057   6.300   4.934
  173SLPC   C3319578   6.308   0.211   6.041
  173SLPC   H3X19579   6.363   0.139   6.104
  173SLPC   H3Y19580   6.328   0.318   6.064
  173SLPC   C3419581   6.351   0.183   5.894
  173SLPC   H4X19582   6.333   0.076   5.872
  173SLPC   H4Y19583   6.458   0.213   5.881
  173SLPC   C3519584   6.271   0.265   5.789
  173SLPC   H5X19585   6.311   0.369   5.791
  173SLPC   H5Y19586   6.162   0.263   5.809
  173SLPC   C3619587   6.301   0.227   5.642
  173SLPC   H6X19588   6.397   0.270   5.606
  173SLPC   H6Y19589   6.238   0.297   5.583
  173SLPC   C3719590   6.273   0.080   5.612
  173SLPC   H7X19591   6.173   0.050   5.651
  173SLPC   H7Y19592   6.355   0.016   5.652
  173SLPC   C3819593   6.279   0.033   5.469
  173SLPC   H8X19594   6.383   0.054   5.436
  173SLPC   H8Y19595   6.206   0.093   5.411
  173SLPC   C3919596   6.249   6.686   5.448
  173SLPC   H9X19597   6.141   6.666   5.462
  173SLPC   H9Y19598   6.295   6.636   5.535
  173SLPC  C31019599   6.292   6.620   5.317
  173SLPC  H10X19600   6.284   6.510   5.328
  173SLPC  H10Y19601   6.402   6.632   5.311
  173SLPC  C31119602   6.225   6.670   5.194
  173SLPC  H11X19603   6.231   6.780   5.181
  173SLPC  H11Y19604   6.119   6.640   5.206
  173SLPC  C31219605   6.280   6.602   5.064
  173SLPC  H12X19606   6.261   6.494   5.085
  173SLPC  H12Y19607   6.390   6.618   5.056
  173SLPC  C31319608   6.208   6.642   4.941
  173SLPC  H13X19609   6.098   6.631   4.953
  173SLPC  H13Y19610   6.237   6.576   4.856
  173SLPC  C31419611   6.226   6.794   4.905
  173SLPC  H14X19612   6.194   0.053   4.993
  173SLPC  H14Y19613   6.154   0.026   4.827
  173SLPC  C31519614   6.361   0.044   4.856
  173SLPC  H15X19615   6.418   6.769   4.797
  173SLPC  H15Y19616   6.424   0.076   4.942
  173SLPC  C31619617   6.351   0.165   4.764
  173SLPC  H16X19618   6.284   0.234   4.819
  173SLPC  H16Y19619   6.291   0.142   4.673
  173SLPC  C31719620   6.472   0.243   4.723
  173SLPC  H17X19621   6.536   0.250   4.813
  173SLPC  H17Y19622   6.429   0.343   4.697
  173SLPC  C31819623   6.553   0.182   4.611
  173SLPC  H18X19624   6.609   0.097   4.655
  173SLPC  H18Y19625   6.624   0.250   4.560
  173SLPC  H18Z19626   6.480   0.133   4.543
  174SLPC     N19627   2.874   1.759   6.716
  174SLPC   C1319628   2.738   1.816   6.668
  174SLPC  H13A19629   2.722   1.913   6.711
  174SLPC  H13B19630   2.742   1.822   6.560
  174SLPC  H13C19631   2.651   1.758   6.696
  174SLPC   C1419632   2.843   1.717   6.852
  174SLPC  H14A19633   2.771   1.637   6.856
  174SLPC  H14B19634   2.937   1.691   6.899
  174SLPC  H14C19635   2.793   1.792   6.911
  174SLPC   C1519636   2.971   1.869   6.714
  174SLPC  H15A19637   2.975   1.906   6.613
  174SLPC  H15B19638   2.950   1.946   6.787
  174SLPC  H15C19639   3.064   1.826   6.747
  174SLPC   C1219640   2.920   1.650   6.622
  174SLPC  H12A19641   2.920   1.699   6.525
  174SLPC  H12B19642   2.853   1.565   6.621
  174SLPC   C1119643   3.061   1.590   6.649
  174SLPC  H11A19644   3.068   1.502   6.583
  174SLPC  H11B19645   3.059   1.549   6.753
  174SLPC     P19646   3.229   1.728   6.496
  174SLPC   O1319647   3.358   1.662   6.471
  174SLPC   O1419648   3.123   1.720   6.391
  174SLPC   O1219649   3.173   1.685   6.635
  174SLPC   O1119650   3.269   1.878   6.535
  174SLPC    C119651   3.223   1.978   6.444
  174SLPC    HA19652   3.112   1.971   6.435
  174SLPC    HB19653   3.236   2.074   6.500
  174SLPC    C219654   3.310   2.008   6.320
  174SLPC    HS19655   3.310   2.117   6.296
  174SLPC   O2119656   3.264   1.928   6.209
  174SLPC   C2119657   3.166   1.983   6.149
  174SLPC   O2219658   3.126   2.100   6.171
  174SLPC   C2219659   3.104   1.882   6.046
  174SLPC   H2R19660   3.148   1.781   6.064
  174SLPC   H2S19661   2.995   1.868   6.066
  174SLPC    C319662   3.464   1.980   6.339
  174SLPC    HX19663   3.480   1.872   6.360
  174SLPC    HY19664   3.500   2.026   6.433
  174SLPC   O3119665   3.542   2.002   6.221
  174SLPC   C3119666   3.574   2.127   6.201
  174SLPC   O3219667   3.534   2.221   6.273
  174SLPC   C3219668   3.669   2.148   6.080
  174SLPC   H2X19669   3.772   2.129   6.120
  174SLPC   H2Y19670   3.665   2.255   6.052
  174SLPC   C2319671   3.119   1.928   5.901
  174SLPC   H3R19672   3.226   1.937   5.872
  174SLPC   H3S19673   3.075   2.027   5.875
  174SLPC   C2419674   3.066   1.824   5.794
  174SLPC   H4R19675   2.955   1.823   5.795
  174SLPC   H4S19676   3.100   1.724   5.827
  174SLPC   C2519677   3.112   1.857   5.650
  174SLPC   H5R19678   3.223   1.855   5.638
  174SLPC   H5S19679   3.073   1.960   5.643
  174SLPC   C2619680   3.043   1.778   5.539
  174SLPC   H6R19681   2.936   1.769   5.568
  174SLPC   H6S19682   3.099   1.682   5.547
  174SLPC   C2719683   3.037   1.838   5.396
  174SLPC   H7R19684   3.134   1.890   5.381
  174SLPC   H7S19685   2.966   1.923   5.398
  174SLPC   C2819686   3.013   1.741   5.280
  174SLPC   H8R19687   3.082   1.655   5.289
  174SLPC   H8S19688   3.054   1.787   5.188
  174SLPC   C2919689   2.872   1.687   5.279
  174SLPC   H9R19690   2.825   1.699   5.377
  174SLPC  C21019691   2.804   1.635   5.172
  174SLPC  H10R19692   2.697   1.609   5.179
  174SLPC  C21119693   2.851   1.630   5.035
  174SLPC  H11R19694   2.769   1.586   4.974
  174SLPC  H11S19695   2.939   1.562   5.040
  174SLPC  C21219696   2.887   1.758   4.960
  174SLPC  H12R19697   2.882   1.847   5.024
  174SLPC  C21319698   2.932   1.768   4.834
  174SLPC  H13R19699   2.958   1.870   4.803
  174SLPC  C21419700   2.972   1.662   4.737
  174SLPC  H14R19701   2.976   1.563   4.788
  174SLPC  H14S19702   3.077   1.682   4.707
  174SLPC  C21519703   2.894   1.662   4.603
  174SLPC  H15R19704   2.907   1.764   4.561
  174SLPC  H15S19705   2.785   1.650   4.622
  174SLPC  C21619706   2.954   1.567   4.505
  174SLPC  H16R19707   2.947   1.465   4.548
  174SLPC  H16S19708   3.063   1.584   4.502
  174SLPC  C21719709   2.885   1.579   4.366
  174SLPC  H17R19710   2.886   1.686   4.336
  174SLPC  H17S19711   2.778   1.551   4.374
  174SLPC  C21819712   2.942   1.501   4.251
  174SLPC  H18R19713   2.947   1.395   4.284
  174SLPC  H18S19714   3.046   1.534   4.228
  174SLPC  H18T19715   2.884   1.507   4.157
  174SLPC   C3319716   3.639   2.062   5.959
  174SLPC   H3X19717   3.655   1.956   5.991
  174SLPC   H3Y19718   3.704   2.091   5.873
  174SLPC   C3419719   3.504   2.066   5.905
  174SLPC   H4X19720   3.443   2.155   5.930
  174SLPC   H4Y19721   3.450   1.981   5.953
  174SLPC   C3519722   3.494   2.018   5.759
  174SLPC   H5X19723   3.386   1.992   5.745
  174SLPC   H5Y19724   3.565   1.934   5.743
  174SLPC   C3619725   3.521   2.134   5.655
  174SLPC   H6X19726   3.612   2.185   5.693
  174SLPC   H6Y19727   3.437   2.206   5.644
  174SLPC   C3719728   3.552   2.077   5.514
  174SLPC   H7X19729   3.471   2.004   5.490
  174SLPC   H7Y19730   3.641   2.011   5.513
  174SLPC   C3819731   3.549   2.173   5.394
  174SLPC   H8X19732   3.636   2.237   5.421
  174SLPC   H8Y19733   3.459   2.237   5.406
  174SLPC   C3919734   3.570   2.111   5.262
  174SLPC   H9X19735   3.581   2.189   5.183
  174SLPC   H9Y19736   3.483   2.047   5.236
  174SLPC  C31019737   3.698   2.026   5.258
  174SLPC  H10X19738   3.681   1.939   5.326
  174SLPC  H10Y19739   3.786   2.080   5.299
  174SLPC  C31119740   3.720   1.962   5.118
  174SLPC  H11X19741   3.641   1.888   5.093
  174SLPC  H11Y19742   3.811   1.901   5.136
  174SLPC  C31219743   3.753   2.058   5.004
  174SLPC  H12X19744   3.853   2.101   5.028
  174SLPC  H12Y19745   3.685   2.146   4.995
  174SLPC  C31319746   3.750   1.982   4.868
  174SLPC  H13X19747   3.643   1.970   4.841
  174SLPC  H13Y19748   3.790   1.881   4.891
  174SLPC  C31419749   3.835   2.054   4.759
  174SLPC  H14X19750   3.935   2.058   4.806
  174SLPC  H14Y19751   3.798   2.156   4.736
  174SLPC  C31519752   3.844   1.974   4.635
  174SLPC  H15X19753   3.742   1.964   4.593
  174SLPC  H15Y19754   3.865   1.866   4.656
  174SLPC  C31619755   3.930   2.030   4.519
  174SLPC  H16X19756   4.035   2.035   4.553
  174SLPC  H16Y19757   3.894   2.134   4.508
  174SLPC  C31719758   3.913   1.949   4.394
  174SLPC  H17X19759   3.808   1.955   4.357
  174SLPC  H17Y19760   3.928   1.843   4.424
  174SLPC  C31819761   4.003   1.985   4.276
  174SLPC  H18X19762   3.998   1.914   4.190
  174SLPC  H18Y19763   4.109   1.995   4.310
  174SLPC  H18Z19764   3.964   2.080   4.233
  175SLPC     N19765   6.381   2.453   6.802
  175SLPC   C1319766   6.237   2.426   6.787
  175SLPC  H13A19767   6.217   2.327   6.750
  175SLPC  H13B19768   6.191   2.424   6.885
  175SLPC  H13C19769   6.197   2.504   6.723
  175SLPC   C1419770   6.447   2.334   6.852
  175SLPC  H14A19771   6.435   2.256   6.778
  175SLPC  H14B19772   6.552   2.355   6.866
  175SLPC  H14C19773   6.412   2.297   6.948
  175SLPC   C1519774   6.409   2.568   6.893
  175SLPC  H15A19775   6.514   2.592   6.895
  175SLPC  H15B19776   6.359   2.661   6.866
  175SLPC  H15C19777   6.375   2.553   6.994
  175SLPC   C1219778   6.438   2.491   6.665
  175SLPC  H12A19779   6.448   2.405   6.600
  175SLPC  H12B19780   6.541   2.520   6.675
  175SLPC   C1119781   6.372   2.601   6.579
  175SLPC  H11A19782   6.276   2.557   6.547
  175SLPC  H11B19783   6.434   2.613   6.488
  175SLPC     P19784   6.243   2.815   6.650
  175SLPC   O1319785   6.124   2.730   6.676
  175SLPC   O1419786   6.272   2.926   6.751
  175SLPC   O1219787   6.369   2.727   6.646
  175SLPC   O1119788   6.232   2.868   6.505
  175SLPC    C119789   6.171   2.995   6.477
  175SLPC    HA19790   6.080   3.013   6.538
  175SLPC    HB19791   6.252   3.069   6.493
  175SLPC    C219792   6.124   2.992   6.328
  175SLPC    HS19793   6.070   2.897   6.304
  175SLPC   O2119794   6.240   3.003   6.250
  175SLPC   C2119795   6.303   2.894   6.231
  175SLPC   O2219796   6.281   2.783   6.273
  175SLPC   C2219797   6.402   2.917   6.122
  175SLPC   H2R19798   6.421   3.026   6.129
  175SLPC   H2S19799   6.497   2.862   6.139
  175SLPC    C319800   6.025   3.110   6.299
  175SLPC    HX19801   6.077   3.207   6.288
  175SLPC    HY19802   5.948   3.100   6.380
  175SLPC   O3119803   5.952   3.094   6.178
  175SLPC   C3119804   5.849   3.179   6.160
  175SLPC   O3219805   5.840   3.285   6.225
  175SLPC   C3219806   5.752   3.129   6.050
  175SLPC   H2X19807   5.671   3.205   6.054
  175SLPC   H2Y19808   5.701   3.038   6.088
  175SLPC   C2319809   6.340   2.871   5.987
  175SLPC   H3R19810   6.238   2.915   5.978
  175SLPC   H3S19811   6.345   2.760   5.985
  175SLPC   C2419812   6.424   2.917   5.867
  175SLPC   H4R19813   6.398   2.850   5.783
  175SLPC   H4S19814   6.529   2.885   5.886
  175SLPC   C2519815   6.426   3.069   5.829
  175SLPC   H5R19816   6.453   3.127   5.920
  175SLPC   H5S19817   6.324   3.086   5.787
  175SLPC   C2619818   6.520   3.095   5.720
  175SLPC   H6R19819   6.627   3.080   5.743
  175SLPC   H6S19820   6.498   3.201   5.696
  175SLPC   C2719821   6.479   3.019   5.595
  175SLPC   H7R19822   6.368   3.018   5.587
  175SLPC   H7S19823   6.515   2.916   5.615
  175SLPC   C2819824   6.544   3.076   5.472
  175SLPC   H8R19825   6.558   2.987   5.407
  175SLPC   H8S19826   6.648   3.108   5.492
  175SLPC   C2919827   6.453   3.169   5.397
  175SLPC   H9R19828   6.419   3.253   5.459
  175SLPC  C21019829   6.413   3.173   5.271
  175SLPC  H10R19830   6.356   3.263   5.244
  175SLPC  C21119831   6.464   3.085   5.161
  175SLPC  H11R19832   6.392   3.009   5.124
  175SLPC  H11S19833   6.544   3.022   5.205
  175SLPC  C21219834   6.533   3.158   5.046
  175SLPC  H12R19835   6.569   3.260   5.068
  175SLPC  C21319836   6.541   3.104   4.926
  175SLPC  H13R19837   6.603   3.167   4.859
  175SLPC  C21419838   6.496   2.973   4.870
  175SLPC  H14R19839   6.394   2.987   4.829
  175SLPC  H14S19840   6.483   2.900   4.952
  175SLPC  C21519841   6.597   2.903   4.779
  175SLPC  H15R19842   6.686   2.893   4.845
  175SLPC  H15S19843   6.626   2.965   4.691
  175SLPC  C21619844   6.569   2.750   4.739
  175SLPC  H16R19845   6.476   2.760   4.680
  175SLPC  H16S19846   6.560   2.677   4.822
  175SLPC  C21719847   6.688   2.699   4.646
  175SLPC  H17R19848   6.774   2.687   4.716
  175SLPC  H17S19849   6.706   2.781   4.574
  175SLPC  C21819850   6.657   2.560   4.580
  175SLPC  H18R19851   6.746   2.520   4.527
  175SLPC  H18S19852   6.566   2.574   4.518
  175SLPC  H18T19853   6.628   2.487   4.658
  175SLPC   C3319854   5.807   3.108   5.899
  175SLPC   H3X19855   5.898   3.044   5.896
  175SLPC   H3Y19856   5.837   3.207   5.858
  175SLPC   C3419857   5.700   3.047   5.808
  175SLPC   H4X19858   5.611   3.113   5.823
  175SLPC   H4Y19859   5.679   2.945   5.847
  175SLPC   C3519860   5.737   3.063   5.656
  175SLPC   H5X19861   5.771   3.167   5.637
  175SLPC   H5Y19862   5.646   3.057   5.593
  175SLPC   C3619863   5.841   2.952   5.617
  175SLPC   H6X19864   5.798   2.849   5.623
  175SLPC   H6Y19865   5.923   2.952   5.691
  175SLPC   C3719866   5.901   2.979   5.480
  175SLPC   H7X19867   5.892   3.087   5.458
  175SLPC   H7Y19868   5.832   2.929   5.409
  175SLPC   C3819869   6.047   2.930   5.481
  175SLPC   H8X19870   6.048   2.824   5.514
  175SLPC   H8Y19871   6.114   2.985   5.550
  175SLPC   C3919872   6.117   2.943   5.348
  175SLPC   H9X19873   6.223   2.914   5.362
  175SLPC   H9Y19874   6.117   3.049   5.315
  175SLPC  C31019875   6.047   2.860   5.248
  175SLPC  H10X19876   5.967   2.925   5.206
  175SLPC  H10Y19877   6.004   2.766   5.288
  175SLPC  C31119878   6.134   2.823   5.129
  175SLPC  H11X19879   6.218   2.767   5.175
  175SLPC  H11Y19880   6.185   2.906   5.076
  175SLPC  C31219881   6.078   2.738   5.013
  175SLPC  H12X19882   6.020   2.806   4.947
  175SLPC  H12Y19883   6.005   2.662   5.049
  175SLPC  C31319884   6.187   2.664   4.939
  175SLPC  H13X19885   6.241   2.602   5.013
  175SLPC  H13Y19886   6.258   2.730   4.885
  175SLPC  C31419887   6.144   2.568   4.835
  175SLPC  H14X19888   6.079   2.625   4.765
  175SLPC  H14Y19889   6.084   2.491   4.886
  175SLPC  C31519890   6.258   2.503   4.760
  175SLPC  H15X19891   6.328   2.450   4.827
  175SLPC  H15Y19892   6.319   2.585   4.715
  175SLPC  C31619893   6.220   2.407   4.647
  175SLPC  H16X19894   6.110   2.399   4.658
  175SLPC  H16Y19895   6.248   2.305   4.681
  175SLPC  C31719896   6.253   2.456   4.509
  175SLPC  H17X19897   6.222   2.380   4.434
  175SLPC  H17Y19898   6.363   2.459   4.500
  175SLPC  C31819899   6.195   2.594   4.474
  175SLPC  H18X19900   6.144   2.574   4.377
  175SLPC  H18Y19901   6.276   2.668   4.456
  175SLPC  H18Z19902   6.114   2.632   4.539
  176SLPC     N19903   5.157   0.597   6.747
  176SLPC   C1319904   5.148   0.539   6.880
  176SLPC  H13A19905   5.052   0.556   6.928
  176SLPC  H13B19906   5.164   0.433   6.886
  176SLPC  H13C19907   5.223   0.584   6.943
  176SLPC   C1419908   5.122   0.742   6.756
  176SLPC  H14A19909   5.128   0.789   6.659
  176SLPC  H14B19910   5.031   0.760   6.812
  176SLPC  H14C19911   5.192   0.800   6.814
  176SLPC   C1519912   5.055   0.541   6.661
  176SLPC  H15A19913   5.029   0.619   6.591
  176SLPC  H15B19914   5.081   0.446   6.616
  176SLPC  H15C19915   4.960   0.524   6.711
  176SLPC   C1219916   5.298   0.581   6.683
  176SLPC  H12A19917   5.317   0.475   6.682
  176SLPC  H12B19918   5.365   0.631   6.751
  176SLPC   C1119919   5.327   0.642   6.547
  176SLPC  H11A19920   5.256   0.619   6.465
  176SLPC  H11B19921   5.411   0.597   6.490
  176SLPC     P19922   5.463   0.858   6.622
  176SLPC   O1319923   5.463   0.996   6.579
  176SLPC   O1419924   5.469   0.840   6.768
  176SLPC   O1219925   5.342   0.788   6.543
  176SLPC   O1119926   5.588   0.786   6.564
  176SLPC    C119927   5.675   0.830   6.459
  176SLPC    HA19928   5.660   0.936   6.429
  176SLPC    HB19929   5.781   0.835   6.494
  176SLPC    C219930   5.669   0.742   6.328
  176SLPC    HS19931   5.740   0.786   6.255
  176SLPC   O2119932   5.540   0.734   6.275
  176SLPC   C2119933   5.511   0.845   6.206
  176SLPC   O2219934   5.588   0.943   6.195
  176SLPC   C2219935   5.362   0.829   6.157
  176SLPC   H2R19936   5.343   0.728   6.115
  176SLPC   H2S19937   5.298   0.838   6.246
  176SLPC    C319938   5.734   0.608   6.354
  176SLPC    HX19939   5.685   0.567   6.445
  176SLPC    HY19940   5.834   0.631   6.399
  176SLPC   O3119941   5.738   0.526   6.236
  176SLPC   C3119942   5.649   0.429   6.239
  176SLPC   O3219943   5.557   0.410   6.320
  176SLPC   C3219944   5.669   0.334   6.120
  176SLPC   H2X19945   5.737   0.250   6.143
  176SLPC   H2Y19946   5.723   0.397   6.046
  176SLPC   C2319947   5.349   0.938   6.048
  176SLPC   H3R19948   5.396   1.036   6.071
  176SLPC   H3S19949   5.242   0.967   6.042
  176SLPC   C2419950   5.406   0.890   5.916
  176SLPC   H4R19951   5.362   0.794   5.882
  176SLPC   H4S19952   5.513   0.863   5.924
  176SLPC   C2519953   5.373   0.993   5.812
  176SLPC   H5R19954   5.399   1.095   5.848
  176SLPC   H5S19955   5.264   0.983   5.792
  176SLPC   C2619956   5.463   0.977   5.685
  176SLPC   H6R19957   5.418   1.042   5.607
  176SLPC   H6S19958   5.442   0.872   5.656
  176SLPC   C2719959   5.621   0.999   5.707
  176SLPC   H7R19960   5.655   0.906   5.759
  176SLPC   H7S19961   5.642   1.088   5.769
  176SLPC   C2819962   5.712   1.015   5.579
  176SLPC   H8R19963   5.671   0.935   5.515
  176SLPC   H8S19964   5.820   0.997   5.598
  176SLPC   C2919965   5.691   1.147   5.513
  176SLPC   H9R19966   5.658   1.233   5.574
  176SLPC  C21019967   5.679   1.155   5.375
  176SLPC  H10R19968   5.662   1.248   5.318
  176SLPC  C21119969   5.694   1.039   5.275
  176SLPC  H11R19970   5.748   0.949   5.312
  176SLPC  H11S19971   5.771   1.079   5.205
  176SLPC  C21219972   5.570   0.991   5.205
  176SLPC  H12R19973   5.472   1.014   5.250
  176SLPC  C21319974   5.575   0.897   5.106
  176SLPC  H13R19975   5.481   0.859   5.063
  176SLPC  C21419976   5.692   0.851   5.027
  176SLPC  H14R19977   5.708   0.744   5.049
  176SLPC  H14S19978   5.779   0.916   5.050
  176SLPC  C21519979   5.654   0.855   4.869
  176SLPC  H15R19980   5.750   0.845   4.814
  176SLPC  H15S19981   5.627   0.958   4.837
  176SLPC  C21619982   5.560   0.749   4.820
  176SLPC  H16R19983   5.464   0.796   4.788
  176SLPC  H16S19984   5.526   0.683   4.902
  176SLPC  C21719985   5.619   0.658   4.710
  176SLPC  H17R19986   5.649   0.731   4.632
  176SLPC  H17S19987   5.539   0.596   4.664
  176SLPC  C21819988   5.738   0.577   4.742
  176SLPC  H18R19989   5.821   0.634   4.789
  176SLPC  H18S19990   5.775   0.517   4.656
  176SLPC  H18T19991   5.720   0.495   4.814
  176SLPC   C3319992   5.532   0.276   6.071
  176SLPC   H3X19993   5.485   0.226   6.158
  176SLPC   H3Y19994   5.542   0.196   5.995
  176SLPC   C3419995   5.434   0.375   6.015
  176SLPC   H4X19996   5.438   0.471   6.071
  176SLPC   H4Y19997   5.331   0.351   6.048
  176SLPC   C3519998   5.443   0.396   5.863
  176SLPC   H5X19999   5.472   0.296   5.824
  176SLPC   H5Y20000   5.527   0.466   5.841
  176SLPC   C3620001   5.301   0.437   5.802
  176SLPC   H6X20002   5.277   0.542   5.828
  176SLPC   H6Y20003   5.218   0.379   5.848
  176SLPC   C3720004   5.300   0.427   5.652
  176SLPC   H7X20005   5.329   0.326   5.616
  176SLPC   H7Y20006   5.363   0.507   5.608
  176SLPC   C3820007   5.164   0.468   5.591
  176SLPC   H8X20008   5.173   0.533   5.502
  176SLPC   H8Y20009   5.116   0.528   5.671
  176SLPC   C3920010   5.063   0.354   5.558
  176SLPC   H9X20011   5.011   0.320   5.650
  176SLPC   H9Y20012   5.122   0.267   5.524
  176SLPC  C31020013   4.960   0.388   5.455
  176SLPC  H10X20014   5.010   0.409   5.358
  176SLPC  H10Y20015   4.915   0.483   5.492
  176SLPC  C31120016   4.846   0.287   5.426
  176SLPC  H11X20017   4.774   0.342   5.360
  176SLPC  H11Y20018   4.803   0.252   5.522
  176SLPC  C31220019   4.898   0.165   5.336
  176SLPC  H12X20020   4.999   0.143   5.375
  176SLPC  H12Y20021   4.887   0.203   5.231
  176SLPC  C31320022   4.805   0.046   5.362
  176SLPC  H13X20023   4.819   0.006   5.465
  176SLPC  H13Y20024   4.840   6.769   5.291
  176SLPC  C31420025   4.663   0.055   5.314
  176SLPC  H14X20026   4.615   0.138   5.370
  176SLPC  H14Y20027   4.609   6.760   5.334
  176SLPC  C31520028   4.642   0.089   5.167
  176SLPC  H15X20029   4.704   0.170   5.123
  176SLPC  H15Y20030   4.535   0.114   5.147
  176SLPC  C31620031   4.674   6.766   5.075
  176SLPC  H16X20032   4.589   6.695   5.062
  176SLPC  H16Y20033   4.770   6.718   5.101
  176SLPC  C31720034   4.685   0.019   4.930
  176SLPC  H17X20035   4.776   0.082   4.931
  176SLPC  H17Y20036   4.598   0.086   4.911
  176SLPC  C31820037   4.691   6.721   4.815
  176SLPC  H18X20038   4.688   6.767   4.714
  176SLPC  H18Y20039   4.601   6.655   4.815
  176SLPC  H18Z20040   4.784   6.661   4.808
  177SLPC     N20041   5.294   1.214   6.791
  177SLPC   C1320042   5.217   1.098   6.747
  177SLPC  H13A20043   5.127   1.130   6.694
  177SLPC  H13B20044   5.283   1.031   6.694
  177SLPC  H13C20045   5.179   1.038   6.827
  177SLPC   C1420046   5.424   1.170   6.857
  177SLPC  H14A20047   5.400   1.133   6.956
  177SLPC  H14B20048   5.468   1.091   6.798
  177SLPC  H14C20049   5.497   1.248   6.873
  177SLPC   C1520050   5.224   1.305   6.887
  177SLPC  H15A20051   5.138   1.356   6.846
  177SLPC  H15B20052   5.194   1.245   6.972
  177SLPC  H15C20053   5.297   1.378   6.920
  177SLPC   C1220054   5.335   1.285   6.660
  177SLPC  H12A20055   5.240   1.311   6.617
  177SLPC  H12B20056   5.375   1.198   6.610
  177SLPC   C1120057   5.439   1.397   6.648
  177SLPC  H11A20058   5.468   1.416   6.542
  177SLPC  H11B20059   5.532   1.358   6.694
  177SLPC     P20060   5.279   1.607   6.652
  177SLPC   O1320061   5.179   1.523   6.588
  177SLPC   O1420062   5.236   1.704   6.750
  177SLPC   O1220063   5.393   1.521   6.713
  177SLPC   O1120064   5.351   1.682   6.535
  177SLPC    C120065   5.499   1.710   6.540
  177SLPC    HA20066   5.513   1.805   6.596
  177SLPC    HB20067   5.554   1.627   6.589
  177SLPC    C220068   5.557   1.738   6.399
  177SLPC    HS20069   5.503   1.827   6.361
  177SLPC   O2120070   5.534   1.618   6.322
  177SLPC   C2120071   5.422   1.611   6.256
  177SLPC   O2220072   5.335   1.697   6.251
  177SLPC   C2220073   5.410   1.469   6.205
  177SLPC   H2R20074   5.506   1.436   6.160
  177SLPC   H2S20075   5.391   1.384   6.274
  177SLPC    C320076   5.709   1.785   6.396
  177SLPC    HX20077   5.766   1.695   6.430
  177SLPC    HY20078   5.712   1.867   6.471
  177SLPC   O3120079   5.756   1.820   6.263
  177SLPC   C3120080   5.757   1.943   6.240
  177SLPC   O3220081   5.739   2.035   6.318
  177SLPC   C3220082   5.796   1.962   6.097
  177SLPC   H2X20083   5.729   1.896   6.037
  177SLPC   H2Y20084   5.898   1.920   6.086
  177SLPC   C2320085   5.310   1.457   6.089
  177SLPC   H3R20086   5.330   1.536   6.014
  177SLPC   H3S20087   5.206   1.469   6.126
  177SLPC   C2420088   5.293   1.316   6.034
  177SLPC   H4R20089   5.288   1.243   6.117
  177SLPC   H4S20090   5.391   1.292   5.987
  177SLPC   C2520091   5.175   1.307   5.935
  177SLPC   H5R20092   5.092   1.370   5.973
  177SLPC   H5S20093   5.141   1.201   5.941
  177SLPC   C2620094   5.214   1.354   5.797
  177SLPC   H6R20095   5.316   1.317   5.773
  177SLPC   H6S20096   5.240   1.462   5.804
  177SLPC   C2720097   5.119   1.319   5.680
  177SLPC   H7R20098   5.015   1.354   5.701
  177SLPC   H7S20099   5.112   1.208   5.670
  177SLPC   C2820100   5.164   1.393   5.551
  177SLPC   H8R20101   5.145   1.502   5.569
  177SLPC   H8S20102   5.092   1.366   5.471
  177SLPC   C2920103   5.305   1.345   5.518
  177SLPC   H9R20104   5.333   1.251   5.567
  177SLPC  C21020105   5.392   1.401   5.433
  177SLPC  H10R20106   5.486   1.346   5.419
  177SLPC  C21120107   5.370   1.521   5.351
  177SLPC  H11R20108   5.460   1.585   5.346
  177SLPC  H11S20109   5.288   1.589   5.384
  177SLPC  C21220110   5.337   1.486   5.208
  177SLPC  H12R20111   5.255   1.414   5.194
  177SLPC  C21320112   5.405   1.528   5.095
  177SLPC  H13R20113   5.384   1.488   4.995
  177SLPC  C21420114   5.516   1.621   5.091
  177SLPC  H14R20115   5.616   1.577   5.070
  177SLPC  H14S20116   5.535   1.661   5.193
  177SLPC  C21520117   5.496   1.731   4.987
  177SLPC  H15R20118   5.564   1.816   5.006
  177SLPC  H15S20119   5.389   1.759   4.991
  177SLPC  C21620120   5.537   1.675   4.849
  177SLPC  H16R20121   5.501   1.571   4.831
  177SLPC  H16S20122   5.645   1.678   4.825
  177SLPC  C21720123   5.488   1.760   4.739
  177SLPC  H17R20124   5.377   1.768   4.745
  177SLPC  H17S20125   5.520   1.702   4.650
  177SLPC  C21820126   5.566   1.892   4.717
  177SLPC  H18R20127   5.562   1.966   4.800
  177SLPC  H18S20128   5.537   1.945   4.624
  177SLPC  H18T20129   5.670   1.859   4.701
  177SLPC   C3320130   5.777   2.107   6.037
  177SLPC   H3X20131   5.836   2.188   6.086
  177SLPC   H3Y20132   5.670   2.136   6.053
  177SLPC   C3420133   5.805   2.123   5.885
  177SLPC   H4X20134   5.779   2.228   5.856
  177SLPC   H4Y20135   5.740   2.059   5.822
  177SLPC   C3520136   5.950   2.094   5.858
  177SLPC   H5X20137   5.964   1.985   5.872
  177SLPC   H5Y20138   6.009   2.148   5.936
  177SLPC   C3620139   6.009   2.131   5.720
  177SLPC   H6X20140   6.021   2.241   5.710
  177SLPC   H6Y20141   5.947   2.096   5.635
  177SLPC   C3720142   6.158   2.088   5.684
  177SLPC   H7X20143   6.142   1.982   5.654
  177SLPC   H7Y20144   6.214   2.092   5.779
  177SLPC   C3820145   6.224   2.171   5.567
  177SLPC   H8X20146   6.331   2.141   5.555
  177SLPC   H8Y20147   6.229   2.274   5.607
  177SLPC   C3920148   6.143   2.169   5.441
  177SLPC   H9X20149   6.054   2.234   5.455
  177SLPC   H9Y20150   6.096   2.072   5.415
  177SLPC  C31020151   6.217   2.231   5.325
  177SLPC  H10X20152   6.319   2.187   5.319
  177SLPC  H10Y20153   6.215   2.342   5.322
  177SLPC  C31120154   6.164   2.194   5.182
  177SLPC  H11X20155   6.066   2.247   5.182
  177SLPC  H11Y20156   6.146   2.085   5.174
  177SLPC  C31220157   6.251   2.237   5.063
  177SLPC  H12X20158   6.280   2.343   5.082
  177SLPC  H12Y20159   6.197   2.241   4.966
  177SLPC  C31320160   6.369   2.134   5.046
  177SLPC  H13X20161   6.338   2.028   5.046
  177SLPC  H13Y20162   6.443   2.157   5.126
  177SLPC  C31420163   6.446   2.154   4.912
  177SLPC  H14X20164   6.482   2.259   4.906
  177SLPC  H14Y20165   6.376   2.135   4.828
  177SLPC  C31520166   6.564   2.059   4.904
  177SLPC  H15X20167   6.513   1.961   4.917
  177SLPC  H15Y20168   6.615   2.062   5.003
  177SLPC  C31620169   6.661   2.067   4.790
  177SLPC  H16X20170   6.743   1.992   4.798
  177SLPC  H16Y20171   6.706   2.168   4.793
  177SLPC  C31720172   6.607   2.044   4.651
  177SLPC  H17X20173   6.540   2.129   4.625
  177SLPC  H17Y20174   6.547   1.953   4.634
  177SLPC  C31820175   6.724   2.042   4.547
  177SLPC  H18X20176   6.694   2.048   4.440
  177SLPC  H18Y20177   6.767   1.941   4.560
  177SLPC  H18Z20178   0.003   2.116   4.572
  178SLPC     N20179   2.239   6.284   6.956
  178SLPC   C1320180   2.323   6.172   7.007
  178SLPC  H13A20181   2.329   6.096   6.931
  178SLPC  H13B20182   2.424   6.202   7.034
  178SLPC  H13C20183   2.285   6.130   7.098
  178SLPC   C1420184   2.092   6.251   6.991
  178SLPC  H14A20185   2.043   6.347   6.981
  178SLPC  H14B20186   2.056   6.184   6.915
  178SLPC  H14C20187   2.068   6.217   7.091
  178SLPC   C1520188   2.254   6.279   6.808
  178SLPC  H15A20189   2.209   6.184   6.782
  178SLPC  H15B20190   2.198   6.355   6.756
  178SLPC  H15C20191   2.358   6.289   6.781
  178SLPC   C1220192   2.286   6.406   7.027
  178SLPC  H12A20193   2.276   6.393   7.134
  178SLPC  H12B20194   2.214   6.483   7.004
  178SLPC   C1120195   2.427   6.471   7.010
  178SLPC  H11A20196   2.427   6.567   7.067
  178SLPC  H11B20197   2.441   6.488   6.902
  178SLPC     P20198   2.684   6.408   7.019
  178SLPC   O1320199   2.732   6.545   7.053
  178SLPC   O1420200   2.758   6.293   7.079
  178SLPC   O1220201   2.530   6.392   7.066
  178SLPC   O1120202   2.663   6.391   6.862
  178SLPC    C120203   2.652   6.255   6.806
  178SLPC    HA20204   2.746   6.200   6.828
  178SLPC    HB20205   2.574   6.206   6.867
  178SLPC    C220206   2.623   6.265   6.651
  178SLPC    HS20207   2.706   6.325   6.608
  178SLPC   O2120208   2.497   6.335   6.632
  178SLPC   C2120209   2.500   6.424   6.534
  178SLPC   O2220210   2.602   6.463   6.476
  178SLPC   C2220211   2.364   6.484   6.518
  178SLPC   H2R20212   2.286   6.435   6.579
  178SLPC   H2S20213   2.369   6.591   6.549
  178SLPC    C320214   2.617   6.131   6.572
  178SLPC    HX20215   2.523   6.072   6.579
  178SLPC    HY20216   2.695   6.057   6.601
  178SLPC   O3120217   2.623   6.168   6.430
  178SLPC   C3120218   2.744   6.207   6.386
  178SLPC   O3220219   2.846   6.203   6.451
  178SLPC   C3220220   2.730   6.249   6.241
  178SLPC   H2X20221   2.653   6.328   6.227
  178SLPC   H2Y20222   2.691   6.162   6.184
  178SLPC   C2320223   2.323   6.478   6.369
  178SLPC   H3R20224   2.219   6.516   6.369
  178SLPC   H3S20225   2.317   6.375   6.328
  178SLPC   C2420226   2.409   6.565   6.276
  178SLPC   H4R20227   2.501   6.514   6.241
  178SLPC   H4S20228   2.450   6.654   6.329
  178SLPC   C2520229   2.340   6.601   6.145
  178SLPC   H5R20230   2.343   6.712   6.138
  178SLPC   H5S20231   2.235   6.564   6.151
  178SLPC   C2620232   2.417   6.542   6.015
  178SLPC   H6R20233   2.428   6.432   6.015
  178SLPC   H6S20234   2.520   6.582   6.028
  178SLPC   C2720235   2.353   6.603   5.879
  178SLPC   H7R20236   2.321   6.708   5.893
  178SLPC   H7S20237   2.259   6.544   5.875
  178SLPC   C2820238   2.437   6.583   5.748
  178SLPC   H8R20239   2.367   6.574   5.662
  178SLPC   H8S20240   2.488   6.487   5.768
  178SLPC   C2920241   2.543   6.691   5.736
  178SLPC   H9R20242   2.583   6.734   5.830
  178SLPC  C21020243   2.580   6.750   5.614
  178SLPC  H10R20244   2.654   0.031   5.606
  178SLPC  C21120245   2.533   6.708   5.483
  178SLPC  H11R20246   2.442   6.645   5.490
  178SLPC  H11S20247   2.616   6.646   5.443
  178SLPC  C21220248   2.495   0.010   5.382
  178SLPC  H12R20249   2.463   0.109   5.417
  178SLPC  C21320250   2.458   6.778   5.255
  178SLPC  H13R20251   2.425   0.060   5.190
  178SLPC  C21420252   2.458   6.647   5.193
  178SLPC  H14R20253   2.351   6.630   5.169
  178SLPC  H14S20254   2.494   6.567   5.261
  178SLPC  C21520255   2.545   6.638   5.057
  178SLPC  H15R20256   2.559   6.529   5.046
  178SLPC  H15S20257   2.643   6.689   5.072
  178SLPC  C21620258   2.462   6.686   4.942
  178SLPC  H16R20259   2.411   6.783   4.961
  178SLPC  H16S20260   2.380   6.612   4.938
  178SLPC  C21720261   2.537   6.701   4.807
  178SLPC  H17R20262   2.456   6.684   4.733
  178SLPC  H17S20263   2.606   6.616   4.790
  178SLPC  C21820264   2.612   0.031   4.782
  178SLPC  H18R20265   2.542   0.117   4.778
  178SLPC  H18S20266   2.667   0.011   4.688
  178SLPC  H18T20267   2.686   0.042   4.865
  178SLPC   C3320268   2.864   6.278   6.177
  178SLPC   H3X20269   2.924   6.185   6.177
  178SLPC   H3Y20270   2.912   6.345   6.252
  178SLPC   C3420271   2.856   6.332   6.036
  178SLPC   H4X20272   2.793   6.271   5.968
  178SLPC   H4Y20273   2.958   6.334   5.990
  178SLPC   C3520274   2.814   6.480   6.032
  178SLPC   H5X20275   2.891   6.532   6.093
  178SLPC   H5Y20276   2.711   6.481   6.075
  178SLPC   C3620277   2.813   6.547   5.889
  178SLPC   H6X20278   2.778   6.651   5.908
  178SLPC   H6Y20279   2.740   6.492   5.826
  178SLPC   C3720280   2.949   6.560   5.809
  178SLPC   H7X20281   2.994   6.461   5.789
  178SLPC   H7Y20282   3.026   6.627   5.853
  178SLPC   C3820283   2.933   6.620   5.671
  178SLPC   H8X20284   2.881   6.716   5.688
  178SLPC   H8Y20285   2.871   6.557   5.604
  178SLPC   C3920286   3.062   6.644   5.600
  178SLPC   H9X20287   3.108   6.552   5.558
  178SLPC   H9Y20288   3.143   6.679   5.668
  178SLPC  C31020289   3.054   6.749   5.492
  178SLPC  H10X20290   3.155   6.779   5.459
  178SLPC  H10Y20291   3.022   0.045   5.537
  178SLPC  C31120292   2.977   6.702   5.376
  178SLPC  H11X20293   2.952   6.796   5.321
  178SLPC  H11Y20294   2.887   6.652   5.417
  178SLPC  C31220295   3.039   6.602   5.280
  178SLPC  H12X20296   3.110   6.538   5.335
  178SLPC  H12Y20297   3.110   6.657   5.215
  178SLPC  C31320298   2.938   6.502   5.206
  178SLPC  H13X20299   2.882   6.571   5.140
  178SLPC  H13Y20300   2.870   6.460   5.283
  178SLPC  C31420301   2.994   6.393   5.111
  178SLPC  H14X20302   3.000   6.288   5.149
  178SLPC  H14Y20303   3.099   6.424   5.096
  178SLPC  C31520304   2.918   6.388   4.977
  178SLPC  H15X20305   2.885   6.490   4.950
  178SLPC  H15Y20306   2.820   6.335   4.979
  178SLPC  C31620307   3.007   6.330   4.863
  178SLPC  H16X20308   3.021   6.226   4.899
  178SLPC  H16Y20309   3.104   6.383   4.850
  178SLPC  C31720310   2.927   6.340   4.729
  178SLPC  H17X20311   2.829   6.290   4.747
  178SLPC  H17Y20312   2.980   6.278   4.654
  178SLPC  C31820313   2.914   6.479   4.673
  178SLPC  H18X20314   3.013   6.511   4.632
  178SLPC  H18Y20315   2.882   6.562   4.739
  178SLPC  H18Z20316   2.835   6.474   4.595
  179SLPC     N20317   4.356   1.453   2.189
  179SLPC   C1320318   4.471   1.488   2.101
  179SLPC  H13A20319   4.461   1.592   2.072
  179SLPC  H13B20320   4.566   1.469   2.149
  179SLPC  H13C20321   4.461   1.426   2.012
  179SLPC   C1420322   4.233   1.472   2.108
  179SLPC  H14A20323   4.224   1.403   2.026
  179SLPC  H14B20324   4.148   1.459   2.174
  179SLPC  H14C20325   4.224   1.570   2.064
  179SLPC   C1520326   4.354   1.548   2.299
  179SLPC  H15A20327   4.446   1.561   2.354
  179SLPC  H15B20328   4.318   1.641   2.258
  179SLPC  H15C20329   4.285   1.515   2.374
  179SLPC   C1220330   4.360   1.309   2.241
  179SLPC  H12A20331   4.461   1.281   2.266
  179SLPC  H12B20332   4.326   1.248   2.160
  179SLPC   C1120333   4.264   1.261   2.360
  179SLPC  H11A20334   4.293   1.307   2.457
  179SLPC  H11B20335   4.294   1.154   2.351
  179SLPC     P20336   4.022   1.177   2.293
  179SLPC   O1320337   3.888   1.221   2.334
  179SLPC   O1420338   4.044   1.141   2.154
  179SLPC   O1220339   4.131   1.294   2.334
  179SLPC   O1120340   4.081   1.053   2.378
  179SLPC    C120341   4.003   0.940   2.408
  179SLPC    HA20342   3.904   0.927   2.358
  179SLPC    HB20343   4.054   0.845   2.386
  179SLPC    C220344   3.969   0.933   2.557
  179SLPC    HS20345   3.932   0.831   2.581
  179SLPC   O2120346   3.866   1.021   2.591
  179SLPC   C2120347   3.739   0.976   2.560
  179SLPC   O2220348   3.714   0.873   2.507
  179SLPC   C2220349   3.637   1.087   2.579
  179SLPC   H2R20350   3.685   1.174   2.530
  179SLPC   H2S20351   3.559   1.065   2.502
  179SLPC    C320352   4.096   0.961   2.648
  179SLPC    HX20353   4.136   1.061   2.620
  179SLPC    HY20354   4.183   0.896   2.624
  179SLPC   O3120355   4.069   0.971   2.792
  179SLPC   C3120356   4.063   0.858   2.855
  179SLPC   O3220357   4.053   0.748   2.803
  179SLPC   C3220358   4.063   0.877   3.005
  179SLPC   H2X20359   4.033   0.781   3.052
  179SLPC   H2Y20360   3.990   0.957   3.031
  179SLPC   C2320361   3.602   1.119   2.724
  179SLPC   H3R20362   3.513   1.184   2.713
  179SLPC   H3S20363   3.686   1.169   2.778
  179SLPC   C2420364   3.566   0.993   2.808
  179SLPC   H4R20365   3.651   0.922   2.807
  179SLPC   H4S20366   3.483   0.952   2.746
  179SLPC   C2520367   3.512   1.024   2.957
  179SLPC   H5R20368   3.415   1.078   2.961
  179SLPC   H5S20369   3.590   1.074   3.019
  179SLPC   C2620370   3.503   0.894   3.041
  179SLPC   H6R20371   3.601   0.848   3.064
  179SLPC   H6S20372   3.448   0.824   2.975
  179SLPC   C2720373   3.436   0.911   3.177
  179SLPC   H7R20374   3.330   0.938   3.157
  179SLPC   H7S20375   3.495   0.986   3.235
  179SLPC   C2820376   3.438   0.784   3.264
  179SLPC   H8R20377   3.542   0.745   3.260
  179SLPC   H8S20378   3.386   0.704   3.209
  179SLPC   C2920379   3.372   0.801   3.404
  179SLPC   H9R20380   3.263   0.794   3.413
  179SLPC  C21020381   3.437   0.834   3.518
  179SLPC  H10R20382   3.382   0.835   3.614
  179SLPC  C21120383   3.590   0.831   3.538
  179SLPC  H11R20384   3.621   0.926   3.586
  179SLPC  H11S20385   3.639   0.832   3.438
  179SLPC  C21220386   3.633   0.714   3.622
  179SLPC  H12R20387   3.673   0.630   3.564
  179SLPC  C21320388   3.649   0.710   3.751
  179SLPC  H13R20389   3.683   0.618   3.801
  179SLPC  C21420390   3.630   0.827   3.847
  179SLPC  H14R20391   3.615   0.921   3.789
  179SLPC  H14S20392   3.726   0.837   3.902
  179SLPC  C21520393   3.519   0.815   3.952
  179SLPC  H15R20394   3.510   0.708   3.981
  179SLPC  H15S20395   3.423   0.854   3.913
  179SLPC  C21620396   3.551   0.901   4.080
  179SLPC  H16R20397   3.550   1.005   4.042
  179SLPC  H16S20398   3.652   0.877   4.119
  179SLPC  C21720399   3.451   0.883   4.196
  179SLPC  H17R20400   3.453   0.779   4.235
  179SLPC  H17S20401   3.346   0.901   4.163
  179SLPC  C21820402   3.476   0.978   4.313
  179SLPC  H18R20403   3.557   0.946   4.382
  179SLPC  H18S20404   3.384   0.987   4.375
  179SLPC  H18T20405   3.501   1.081   4.279
  179SLPC   C3320406   4.196   0.924   3.066
  179SLPC   H3X20407   4.210   1.026   3.023
  179SLPC   H3Y20408   4.290   0.873   3.036
  179SLPC   C3420409   4.203   0.931   3.218
  179SLPC   H4X20410   4.187   0.833   3.268
  179SLPC   H4Y20411   4.125   1.000   3.256
  179SLPC   C3520412   4.337   0.979   3.254
  179SLPC   H5X20413   4.413   0.899   3.245
  179SLPC   H5Y20414   4.363   1.066   3.189
  179SLPC   C3620415   4.346   1.023   3.408
  179SLPC   H6X20416   4.304   0.939   3.468
  179SLPC   H6Y20417   4.294   1.120   3.423
  179SLPC   C3720418   4.493   1.037   3.464
  179SLPC   H7X20419   4.532   1.130   3.419
  179SLPC   H7Y20420   4.557   0.951   3.432
  179SLPC   C3820421   4.502   1.033   3.617
  179SLPC   H8X20422   4.610   1.049   3.638
  179SLPC   H8Y20423   4.475   0.932   3.654
  179SLPC   C3920424   4.414   1.138   3.688
  179SLPC   H9X20425   4.308   1.105   3.680
  179SLPC   H9Y20426   4.424   1.228   3.624
  179SLPC  C31020427   4.458   1.186   3.830
  179SLPC  H10X20428   4.385   1.264   3.862
  179SLPC  H10Y20429   4.564   1.217   3.823
  179SLPC  C31120430   4.457   1.089   3.956
  179SLPC  H11X20431   4.539   1.015   3.950
  179SLPC  H11Y20432   4.369   1.022   3.941
  179SLPC  C31220433   4.454   1.174   4.081
  179SLPC  H12X20434   4.349   1.203   4.104
  179SLPC  H12Y20435   4.503   1.270   4.053
  179SLPC  C31320436   4.518   1.117   4.207
  179SLPC  H13X20437   4.610   1.061   4.181
  179SLPC  H13Y20438   4.437   1.050   4.243
  179SLPC  C31420439   4.544   1.212   4.327
  179SLPC  H14X20440   4.448   1.262   4.351
  179SLPC  H14Y20441   4.607   1.298   4.295
  179SLPC  C31520442   4.601   1.136   4.448
  179SLPC  H15X20443   4.699   1.086   4.432
  179SLPC  H15Y20444   4.536   1.049   4.471
  179SLPC  C31620445   4.594   1.226   4.574
  179SLPC  H16X20446   4.492   1.247   4.613
  179SLPC  H16Y20447   4.625   1.326   4.539
  179SLPC  C31720448   4.674   1.165   4.687
  179SLPC  H17X20449   4.774   1.168   4.638
  179SLPC  H17Y20450   4.637   1.061   4.703
  179SLPC  C31820451   4.673   1.227   4.818
  179SLPC  H18X20452   4.732   1.166   4.890
  179SLPC  H18Y20453   4.571   1.225   4.861
  179SLPC  H18Z20454   4.717   1.329   4.817
  180SLPC     N20455   2.282   0.934   1.983
  180SLPC   C1320456   2.414   0.869   1.979
  180SLPC  H13A20457   2.406   0.763   1.999
  180SLPC  H13B20458   2.451   0.877   1.878
  180SLPC  H13C20459   2.483   0.911   2.051
  180SLPC   C1420460   2.189   0.864   1.882
  180SLPC  H14A20461   2.101   0.925   1.873
  180SLPC  H14B20462   2.222   0.851   1.780
  180SLPC  H14C20463   2.156   0.769   1.921
  180SLPC   C1520464   2.294   1.072   1.932
  180SLPC  H15A20465   2.352   1.133   2.000
  180SLPC  H15B20466   2.339   1.083   1.834
  180SLPC  H15C20467   2.200   1.125   1.935
  180SLPC   C1220468   2.219   0.927   2.122
  180SLPC  H12A20469   2.207   0.824   2.152
  180SLPC  H12B20470   2.116   0.961   2.130
  180SLPC   C1120471   2.294   1.001   2.239
  180SLPC  H11A20472   2.398   0.965   2.251
  180SLPC  H11B20473   2.243   0.981   2.336
  180SLPC     P20474   2.157   1.217   2.221
  180SLPC   O1320475   2.164   1.357   2.167
  180SLPC   O1420476   2.047   1.138   2.162
  180SLPC   O1220477   2.295   1.142   2.207
  180SLPC   O1120478   2.136   1.243   2.379
  180SLPC    C120479   2.204   1.342   2.459
  180SLPC    HA20480   2.176   1.441   2.417
  180SLPC    HB20481   2.172   1.331   2.565
  180SLPC    C220482   2.362   1.326   2.460
  180SLPC    HS20483   2.398   1.323   2.355
  180SLPC   O2120484   2.403   1.202   2.529
  180SLPC   C2120485   2.512   1.150   2.480
  180SLPC   O2220486   2.589   1.208   2.403
  180SLPC   C2220487   2.543   1.010   2.535
  180SLPC   H2R20488   2.451   0.949   2.532
  180SLPC   H2S20489   2.623   0.958   2.477
  180SLPC    C320490   2.444   1.442   2.539
  180SLPC    HX20491   2.403   1.537   2.500
  180SLPC    HY20492   2.552   1.437   2.513
  180SLPC   O3120493   2.411   1.435   2.684
  180SLPC   C3120494   2.503   1.370   2.751
  180SLPC   O3220495   2.604   1.316   2.711
  180SLPC   C3220496   2.484   1.383   2.902
  180SLPC   H2X20497   2.404   1.308   2.917
  180SLPC   H2Y20498   2.448   1.484   2.928
  180SLPC   C2320499   2.583   1.016   2.689
  180SLPC   H3R20500   2.499   1.067   2.740
  180SLPC   H3S20501   2.681   1.067   2.700
  180SLPC   C2420502   2.610   0.884   2.742
  180SLPC   H4R20503   2.689   0.827   2.688
  180SLPC   H4S20504   2.524   0.816   2.729
  180SLPC   C2520505   2.648   0.877   2.895
  180SLPC   H5R20506   2.719   0.961   2.908
  180SLPC   H5S20507   2.690   0.776   2.915
  180SLPC   C2620508   2.520   0.900   2.979
  180SLPC   H6R20509   2.448   0.818   2.956
  180SLPC   H6S20510   2.464   0.992   2.952
  180SLPC   C2720511   2.559   0.908   3.129
  180SLPC   H7R20512   2.618   1.001   3.143
  180SLPC   H7S20513   2.631   0.827   3.153
  180SLPC   C2820514   2.444   0.900   3.228
  180SLPC   H8R20515   2.359   0.965   3.197
  180SLPC   H8S20516   2.485   0.947   3.320
  180SLPC   C2920517   2.398   0.758   3.246
  180SLPC   H9R20518   2.344   0.718   3.159
  180SLPC  C21020519   2.424   0.679   3.350
  180SLPC  H10R20520   2.407   0.571   3.354
  180SLPC  C21120521   2.510   0.724   3.470
  180SLPC  H11R20522   2.475   0.825   3.499
  180SLPC  H11S20523   2.612   0.745   3.430
  180SLPC  C21220524   2.513   0.642   3.591
  180SLPC  H12R20525   2.595   0.570   3.578
  180SLPC  C21320526   2.413   0.627   3.685
  180SLPC  H13R20527   2.426   0.543   3.755
  180SLPC  C21420528   2.295   0.714   3.698
  180SLPC  H14R20529   2.212   0.664   3.644
  180SLPC  H14S20530   2.307   0.811   3.645
  180SLPC  C21520531   2.272   0.738   3.850
  180SLPC  H15R20532   2.198   0.818   3.869
  180SLPC  H15S20533   2.375   0.760   3.886
  180SLPC  C21620534   2.232   0.605   3.923
  180SLPC  H16R20535   2.323   0.544   3.941
  180SLPC  H16S20536   2.158   0.552   3.859
  180SLPC  C21720537   2.191   0.644   4.067
  180SLPC  H17R20538   2.149   0.559   4.125
  180SLPC  H17S20539   2.102   0.707   4.049
  180SLPC  C21820540   2.289   0.712   4.161
  180SLPC  H18R20541   2.233   0.744   4.252
  180SLPC  H18S20542   2.335   0.793   4.101
  180SLPC  H18T20543   2.365   0.636   4.189
  180SLPC   C3320544   2.608   1.344   2.975
  180SLPC   H3X20545   2.696   1.402   2.938
  180SLPC   H3Y20546   2.632   1.237   2.960
  180SLPC   C3420547   2.593   1.380   3.124
  180SLPC   H4X20548   2.563   1.486   3.139
  180SLPC   H4Y20549   2.696   1.384   3.167
  180SLPC   C3520550   2.508   1.290   3.204
  180SLPC   H5X20551   2.523   1.186   3.168
  180SLPC   H5Y20552   2.400   1.311   3.189
  180SLPC   C3620553   2.526   1.316   3.352
  180SLPC   H6X20554   2.536   1.426   3.365
  180SLPC   H6Y20555   2.627   1.274   3.372
  180SLPC   C3720556   2.420   1.253   3.434
  180SLPC   H7X20557   2.396   1.149   3.402
  180SLPC   H7Y20558   2.322   1.305   3.436
  180SLPC   C3820559   2.467   1.254   3.582
  180SLPC   H8X20560   2.449   1.354   3.626
  180SLPC   H8Y20561   2.574   1.226   3.574
  180SLPC   C3920562   2.400   1.141   3.666
  180SLPC   H9X20563   2.465   1.110   3.750
  180SLPC   H9Y20564   2.369   1.050   3.610
  180SLPC  C31020565   2.273   1.193   3.751
  180SLPC  H10X20566   2.201   1.223   3.671
  180SLPC  H10Y20567   2.296   1.284   3.810
  180SLPC  C31120568   2.205   1.087   3.830
  180SLPC  H11X20569   2.287   1.045   3.893
  180SLPC  H11Y20570   2.173   1.007   3.760
  180SLPC  C31220571   2.086   1.142   3.916
  180SLPC  H12X20572   2.057   1.053   3.975
  180SLPC  H12Y20573   2.005   1.169   3.845
  180SLPC  C31320574   2.116   1.263   4.007
  180SLPC  H13X20575   2.156   1.351   3.951
  180SLPC  H13Y20576   2.196   1.251   4.082
  180SLPC  C31420577   1.991   1.293   4.094
  180SLPC  H14X20578   2.008   1.376   4.166
  180SLPC  H14Y20579   1.952   1.207   4.151
  180SLPC  C31520580   1.875   1.346   4.010
  180SLPC  H15X20581   1.823   1.259   3.966
  180SLPC  H15Y20582   1.909   1.414   3.928
  180SLPC  C31620583   1.771   1.447   4.083
  180SLPC  H16X20584   1.697   1.475   4.005
  180SLPC  H16Y20585   1.820   1.541   4.117
  180SLPC  C31720586   1.707   1.381   4.206
  180SLPC  H17X20587   1.783   1.348   4.280
  180SLPC  H17Y20588   1.662   1.286   4.171
  180SLPC  C31820589   1.603   1.469   4.268
  180SLPC  H18X20590   1.545   1.421   4.349
  180SLPC  H18Y20591   1.524   1.497   4.194
  180SLPC  H18Z20592   1.653   1.559   4.310
  181SLPC     N20593   1.642   6.528   1.939
  181SLPC   C1320594   1.646   6.640   1.840
  181SLPC  H13A20595   1.562   6.702   1.869
  181SLPC  H13B20596   1.737   6.699   1.846
  181SLPC  H13C20597   1.631   6.624   1.735
  181SLPC   C1420598   1.776   6.458   1.931
  181SLPC  H14A20599   1.802   6.389   2.010
  181SLPC  H14B20600   1.785   6.405   1.837
  181SLPC  H14C20601   1.855   6.531   1.938
  181SLPC   C1520602   1.520   6.444   1.904
  181SLPC  H15A20603   1.540   6.374   1.825
  181SLPC  H15B20604   1.503   6.380   1.990
  181SLPC  H15C20605   1.431   6.502   1.883
  181SLPC   C1220606   1.634   6.590   2.082
  181SLPC  H12A20607   1.547   6.654   2.085
  181SLPC  H12B20608   1.713   6.664   2.080
  181SLPC   C1120609   1.646   6.507   2.205
  181SLPC  H11A20610   1.624   6.581   2.285
  181SLPC  H11B20611   1.752   6.475   2.216
  181SLPC     P20612   1.592   6.254   2.210
  181SLPC   O1320613   1.476   6.170   2.181
  181SLPC   O1420614   1.714   6.215   2.129
  181SLPC   O1220615   1.549   6.405   2.194
  181SLPC   O1120616   1.639   6.236   2.361
  181SLPC    C120617   1.580   6.302   2.472
  181SLPC    HA20618   1.526   6.391   2.436
  181SLPC    HB20619   1.507   6.233   2.520
  181SLPC    C220620   1.692   6.346   2.569
  181SLPC    HS20621   1.748   6.257   2.606
  181SLPC   O2120622   1.629   6.418   2.677
  181SLPC   C2120623   1.557   6.363   2.774
  181SLPC   O2220624   1.514   6.250   2.778
  181SLPC   C2220625   1.516   6.477   2.870
  181SLPC   H2R20626   1.613   6.526   2.894
  181SLPC   H2S20627   1.449   6.540   2.808
  181SLPC    C320628   1.787   6.445   2.506
  181SLPC    HX20629   1.738   6.542   2.480
  181SLPC    HY20630   1.835   6.403   2.415
  181SLPC   O3120631   1.897   6.466   2.595
  181SLPC   C3120632   1.931   6.586   2.634
  181SLPC   O3220633   1.887   6.693   2.593
  181SLPC   C3220634   2.047   6.587   2.744
  181SLPC   H2X20635   2.133   6.544   2.688
  181SLPC   H2Y20636   2.024   6.520   2.829
  181SLPC   C2320637   1.442   6.414   2.992
  181SLPC   H3R20638   1.510   6.337   3.034
  181SLPC   H3S20639   1.366   6.339   2.962
  181SLPC   C2420640   1.408   6.515   3.105
  181SLPC   H4R20641   1.351   6.603   3.068
  181SLPC   H4S20642   1.505   6.561   3.132
  181SLPC   C2520643   1.345   6.449   3.230
  181SLPC   H5R20644   1.396   6.353   3.254
  181SLPC   H5S20645   1.235   6.433   3.227
  181SLPC   C2620646   1.365   6.541   3.351
  181SLPC   H6R20647   1.290   6.624   3.348
  181SLPC   H6S20648   1.459   6.599   3.340
  181SLPC   C2720649   1.337   6.467   3.486
  181SLPC   H7R20650   1.424   6.401   3.509
  181SLPC   H7S20651   1.254   6.398   3.458
  181SLPC   C2820652   1.301   6.553   3.604
  181SLPC   H8R20653   1.209   6.602   3.564
  181SLPC   H8S20654   1.378   6.632   3.605
  181SLPC   C2920655   1.285   6.492   3.741
  181SLPC   H9R20656   1.182   6.461   3.767
  181SLPC  C21020657   1.386   6.480   3.833
  181SLPC  H10R20658   1.354   6.435   3.927
  181SLPC  C21120659   1.530   6.519   3.814
  181SLPC  H11R20660   1.553   6.581   3.725
  181SLPC  H11S20661   1.592   6.427   3.817
  181SLPC  C21220662   1.567   6.602   3.938
  181SLPC  H12R20663   1.524   6.703   3.936
  181SLPC  C21320664   1.648   6.570   4.035
  181SLPC  H13R20665   1.658   6.640   4.119
  181SLPC  C21420666   1.735   6.441   4.033
  181SLPC  H14R20667   1.827   6.458   4.093
  181SLPC  H14S20668   1.760   6.408   3.930
  181SLPC  C21520669   1.659   6.319   4.090
  181SLPC  H15R20670   1.739   6.243   4.077
  181SLPC  H15S20671   1.568   6.311   4.027
  181SLPC  C21620672   1.623   6.341   4.233
  181SLPC  H16R20673   1.541   6.413   4.254
  181SLPC  H16S20674   1.710   6.375   4.293
  181SLPC  C21720675   1.574   6.218   4.307
  181SLPC  H17R20676   1.475   6.188   4.267
  181SLPC  H17S20677   1.567   6.244   4.415
  181SLPC  C21820678   1.663   6.097   4.299
  181SLPC  H18R20679   1.707   6.076   4.199
  181SLPC  H18S20680   1.618   6.003   4.336
  181SLPC  H18T20681   1.760   6.111   4.352
  181SLPC   C3320682   2.078   6.728   2.810
  181SLPC   H3X20683   1.990   6.785   2.848
  181SLPC   H3Y20684   2.109   6.787   2.722
  181SLPC   C3420685   2.199   6.737   2.899
  181SLPC   H4X20686   2.249   0.036   2.901
  181SLPC   H4Y20687   2.281   6.672   2.861
  181SLPC   C3520688   2.158   6.699   3.042
  181SLPC   H5X20689   2.089   6.613   3.035
  181SLPC   H5Y20690   2.085   6.772   3.084
  181SLPC   C3620691   2.278   6.661   3.118
  181SLPC   H6X20692   2.354   6.743   3.119
  181SLPC   H6Y20693   2.329   6.576   3.069
  181SLPC   C3720694   2.238   6.612   3.257
  181SLPC   H7X20695   2.183   6.520   3.226
  181SLPC   H7Y20696   2.162   6.683   3.295
  181SLPC   C3820697   2.364   6.590   3.356
  181SLPC   H8X20698   2.422   6.684   3.346
  181SLPC   H8Y20699   2.422   6.511   3.304
  181SLPC   C3920700   2.327   6.556   3.487
  181SLPC   H9X20701   2.251   6.474   3.482
  181SLPC   H9Y20702   2.279   6.645   3.534
  181SLPC  C31020703   2.443   6.516   3.579
  181SLPC  H10X20704   2.530   6.578   3.548
  181SLPC  H10Y20705   2.477   6.412   3.559
  181SLPC  C31120706   2.412   6.555   3.726
  181SLPC  H11X20707   2.333   6.486   3.763
  181SLPC  H11Y20708   2.369   6.657   3.731
  181SLPC  C31220709   2.536   6.546   3.822
  181SLPC  H12X20710   2.603   6.629   3.790
  181SLPC  H12Y20711   2.586   6.448   3.805
  181SLPC  C31320712   2.522   6.551   3.974
  181SLPC  H13X20713   2.440   6.620   4.003
  181SLPC  H13Y20714   2.619   6.589   4.013
  181SLPC  C31420715   2.496   6.419   4.044
  181SLPC  H14X20716   2.558   6.338   4.000
  181SLPC  H14Y20717   2.391   6.388   4.025
  181SLPC  C31520718   2.530   6.418   4.194
  181SLPC  H15X20719   2.641   6.411   4.196
  181SLPC  H15Y20720   2.492   6.327   4.245
  181SLPC  C31620721   2.491   6.550   4.257
  181SLPC  H16X20722   2.386   6.569   4.225
  181SLPC  H16Y20723   2.552   6.635   4.219
  181SLPC  C31720724   2.505   6.560   4.408
  181SLPC  H17X20725   2.484   6.664   4.439
  181SLPC  H17Y20726   2.610   6.550   4.443
  181SLPC  C31820727   2.400   6.476   4.482
  181SLPC  H18X20728   2.427   6.371   4.455
  181SLPC  H18Y20729   2.294   6.493   4.453
  181SLPC  H18Z20730   2.397   6.486   4.592
  182SLPC     N20731   2.375   6.096   1.602
  182SLPC   C1320732   2.387   5.951   1.619
  182SLPC  H13A20733   2.303   5.904   1.570
  182SLPC  H13B20734   2.479   5.911   1.580
  182SLPC  H13C20735   2.386   5.932   1.725
  182SLPC   C1420736   2.248   6.147   1.658
  182SLPC  H14A20737   2.232   6.252   1.639
  182SLPC  H14B20738   2.164   6.085   1.629
  182SLPC  H14C20739   2.249   6.150   1.766
  182SLPC   C1520740   2.373   6.130   1.455
  182SLPC  H15A20741   2.468   6.102   1.411
  182SLPC  H15B20742   2.286   6.083   1.411
  182SLPC  H15C20743   2.371   6.237   1.437
  182SLPC   C1220744   2.490   6.166   1.669
  182SLPC  H12A20745   2.505   6.269   1.639
  182SLPC  H12B20746   2.577   6.113   1.632
  182SLPC   C1120747   2.492   6.160   1.825
  182SLPC  H11A20748   2.404   6.223   1.852
  182SLPC  H11B20749   2.582   6.214   1.861
  182SLPC     P20750   2.380   5.995   1.998
  182SLPC   O1320751   2.250   5.963   1.941
  182SLPC   O1420752   2.442   5.886   2.079
  182SLPC   O1220753   2.474   6.033   1.884
  182SLPC   O1120754   2.367   6.125   2.088
  182SLPC    C120755   2.475   6.147   2.180
  182SLPC    HA20756   2.572   6.111   2.138
  182SLPC    HB20757   2.497   6.254   2.200
  182SLPC    C220758   2.454   6.098   2.322
  182SLPC    HS20759   2.420   5.993   2.318
  182SLPC   O2120760   2.362   6.196   2.392
  182SLPC   C2120761   2.254   6.140   2.444
  182SLPC   O2220762   2.214   6.031   2.418
  182SLPC   C2220763   2.190   6.236   2.540
  182SLPC   H2R20764   2.273   6.296   2.585
  182SLPC   H2S20765   2.123   6.306   2.485
  182SLPC    C320766   2.588   6.088   2.399
  182SLPC    HX20767   2.649   6.180   2.387
  182SLPC    HY20768   2.648   6.006   2.353
  182SLPC   O3120769   2.582   6.065   2.540
  182SLPC   C3120770   2.574   5.939   2.583
  182SLPC   O3220771   2.569   5.844   2.507
  182SLPC   C3220772   2.581   5.932   2.741
  182SLPC   H2X20773   2.500   6.003   2.768
  182SLPC   H2Y20774   2.681   5.974   2.762
  182SLPC   C2320775   2.107   6.163   2.649
  182SLPC   H3R20776   2.147   6.060   2.657
  182SLPC   H3S20777   2.001   6.155   2.618
  182SLPC   C2420778   2.103   6.243   2.780
  182SLPC   H4R20779   2.129   6.349   2.759
  182SLPC   H4S20780   2.182   6.199   2.845
  182SLPC   C2520781   1.971   6.237   2.849
  182SLPC   H5R20782   1.928   6.134   2.847
  182SLPC   H5S20783   1.902   6.306   2.798
  182SLPC   C2620784   1.995   6.288   2.998
  182SLPC   H6R20785   2.046   6.386   3.002
  182SLPC   H6S20786   2.054   6.214   3.057
  182SLPC   C2720787   1.867   6.299   3.080
  182SLPC   H7R20788   1.857   6.193   3.113
  182SLPC   H7S20789   1.779   6.330   3.020
  182SLPC   C2820790   1.875   6.396   3.204
  182SLPC   H8R20791   1.871   6.499   3.161
  182SLPC   H8S20792   1.973   6.391   3.254
  182SLPC   C2920793   1.770   6.383   3.310
  182SLPC   H9R20794   1.673   6.367   3.261
  182SLPC  C21020795   1.794   6.366   3.442
  182SLPC  H10R20796   1.707   6.337   3.502
  182SLPC  C21120797   1.917   6.373   3.527
  182SLPC  H11R20798   1.878   6.417   3.621
  182SLPC  H11S20799   1.988   6.444   3.479
  182SLPC  C21220800   1.981   6.236   3.550
  182SLPC  H12R20801   1.967   6.159   3.473
  182SLPC  C21320802   2.059   6.194   3.656
  182SLPC  H13R20803   2.108   6.096   3.649
  182SLPC  C21420804   2.089   6.262   3.786
  182SLPC  H14R20805   2.038   6.361   3.792
  182SLPC  H14S20806   2.199   6.266   3.800
  182SLPC  C21520807   2.033   6.179   3.906
  182SLPC  H15R20808   2.063   6.072   3.903
  182SLPC  H15S20809   1.923   6.176   3.894
  182SLPC  C21620810   2.058   6.248   4.040
  182SLPC  H16R20811   2.017   6.351   4.040
  182SLPC  H16S20812   2.169   6.259   4.047
  182SLPC  C21720813   2.014   6.166   4.166
  182SLPC  H17R20814   2.055   6.063   4.165
  182SLPC  H17S20815   1.904   6.158   4.168
  182SLPC  C21820816   2.065   6.236   4.296
  182SLPC  H18R20817   2.175   6.236   4.288
  182SLPC  H18S20818   2.036   6.171   4.381
  182SLPC  H18T20819   2.016   6.335   4.306
  182SLPC   C3320820   2.578   5.792   2.799
  182SLPC   H3X20821   2.662   5.738   2.750
  182SLPC   H3Y20822   2.477   5.755   2.773
  182SLPC   C3420823   2.602   5.798   2.953
  182SLPC   H4X20824   2.521   5.849   3.008
  182SLPC   H4Y20825   2.698   5.852   2.968
  182SLPC   C3520826   2.616   5.655   3.014
  182SLPC   H5X20827   2.696   5.588   2.977
  182SLPC   H5Y20828   2.518   5.610   2.987
  182SLPC   C3620829   2.622   5.672   3.161
  182SLPC   H6X20830   2.532   5.734   3.181
  182SLPC   H6Y20831   2.716   5.728   3.180
  182SLPC   C3720832   2.610   5.544   3.249
  182SLPC   H7X20833   2.710   5.498   3.268
  182SLPC   H7Y20834   2.539   5.477   3.196
  182SLPC   C3820835   2.539   5.564   3.379
  182SLPC   H8X20836   2.510   5.476   3.440
  182SLPC   H8Y20837   2.443   5.612   3.348
  182SLPC   C3920838   2.610   5.664   3.471
  182SLPC   H9X20839   2.543   5.688   3.556
  182SLPC   H9Y20840   2.631   5.763   3.424
  182SLPC  C31020841   2.739   5.602   3.527
  182SLPC  H10X20842   2.817   5.604   3.448
  182SLPC  H10Y20843   2.730   5.494   3.548
  182SLPC  C31120844   2.776   5.661   3.663
  182SLPC  H11X20845   2.698   5.630   3.736
  182SLPC  H11Y20846   2.779   5.772   3.667
  182SLPC  C31220847   2.918   5.619   3.717
  182SLPC  H12X20848   3.000   5.631   3.643
  182SLPC  H12Y20849   2.918   5.509   3.733
  182SLPC  C31320850   2.966   5.697   3.840
  182SLPC  H13X20851   2.928   5.802   3.834
  182SLPC  H13Y20852   3.076   5.700   3.850
  182SLPC  C31420853   2.932   5.631   3.980
  182SLPC  H14X20854   2.970   5.527   3.975
  182SLPC  H14Y20855   2.823   5.618   3.997
  182SLPC  C31520856   3.008   5.689   4.103
  182SLPC  H15X20857   3.000   5.795   4.070
  182SLPC  H15Y20858   3.118   5.676   4.102
  182SLPC  C31620859   2.941   5.670   4.240
  182SLPC  H16X20860   3.013   5.714   4.313
  182SLPC  H16Y20861   2.938   5.562   4.263
  182SLPC  C31720862   2.803   5.733   4.247
  182SLPC  H17X20863   2.729   5.670   4.192
  182SLPC  H17Y20864   2.817   5.825   4.187
  182SLPC  C31820865   2.754   5.744   4.391
  182SLPC  H18X20866   2.659   5.799   4.408
  182SLPC  H18Y20867   2.827   5.795   4.458
  182SLPC  H18Z20868   2.736   5.650   4.446
  183SLPC     N20869   6.328   2.322   2.084
  183SLPC   C1320870   6.211   2.231   2.077
  183SLPC  H13A20871   6.122   2.275   2.034
  183SLPC  H13B20872   6.234   2.146   2.013
  183SLPC  H13C20873   6.190   2.189   2.174
  183SLPC   C1420874   6.324   2.405   1.960
  183SLPC  H14A20875   6.417   2.459   1.964
  183SLPC  H14B20876   6.319   2.355   1.865
  183SLPC  H14C20877   6.248   2.482   1.966
  183SLPC   C1520878   6.449   2.228   2.089
  183SLPC  H15A20879   6.466   2.181   2.184
  183SLPC  H15B20880   6.431   2.141   2.027
  183SLPC  H15C20881   6.538   2.277   2.052
  183SLPC   C1220882   6.327   2.401   2.216
  183SLPC  H12A20883   6.240   2.463   2.228
  183SLPC  H12B20884   6.412   2.468   2.215
  183SLPC   C1120885   6.330   2.311   2.338
  183SLPC  H11A20886   6.355   2.383   2.419
  183SLPC  H11B20887   6.425   2.255   2.346
  183SLPC     P20888   6.085   2.302   2.420
  183SLPC   O1320889   6.052   2.431   2.358
  183SLPC   O1420890   5.975   2.202   2.419
  183SLPC   O1220891   6.212   2.229   2.363
  183SLPC   O1120892   6.133   2.329   2.566
  183SLPC    C120893   6.094   2.233   2.667
  183SLPC    HA20894   5.995   2.249   2.715
  183SLPC    HB20895   6.099   2.127   2.633
  183SLPC    C220896   6.198   2.233   2.785
  183SLPC    HS20897   6.192   2.143   2.850
  183SLPC   O2120898   6.176   2.351   2.860
  183SLPC   C2120899   6.176   2.345   2.991
  183SLPC   O2220900   6.203   2.241   3.053
  183SLPC   C2220901   6.107   2.473   3.049
  183SLPC   H2R20902   6.152   2.561   2.998
  183SLPC   H2S20903   6.001   2.481   3.017
  183SLPC    C320904   6.337   2.244   2.733
  183SLPC    HX20905   6.323   2.335   2.671
  183SLPC    HY20906   6.359   2.151   2.676
  183SLPC   O3120907   6.438   2.256   2.838
  183SLPC   C3120908   6.463   2.142   2.903
  183SLPC   O3220909   6.410   2.033   2.888
  183SLPC   C3220910   6.571   2.176   3.006
  183SLPC   H2X20911   6.581   2.285   3.026
  183SLPC   H2Y20912   6.663   2.154   2.948
  183SLPC   C2320913   6.117   2.488   3.205
  183SLPC   H3R20914   6.099   2.594   3.236
  183SLPC   H3S20915   6.222   2.466   3.235
  183SLPC   C2420916   6.024   2.407   3.287
  183SLPC   H4R20917   6.043   2.298   3.273
  183SLPC   H4S20918   5.923   2.424   3.244
  183SLPC   C2520919   6.033   2.446   3.436
  183SLPC   H5R20920   6.008   2.554   3.430
  183SLPC   H5S20921   6.135   2.452   3.479
  183SLPC   C2620922   5.939   2.364   3.523
  183SLPC   H6R20923   5.976   2.259   3.525
  183SLPC   H6S20924   5.844   2.360   3.466
  183SLPC   C2720925   5.907   2.430   3.656
  183SLPC   H7R20926   5.879   2.537   3.645
  183SLPC   H7S20927   6.001   2.434   3.715
  183SLPC   C2820928   5.785   2.364   3.722
  183SLPC   H8R20929   5.699   2.357   3.652
  183SLPC   H8S20930   5.759   2.433   3.805
  183SLPC   C2920931   5.832   2.227   3.763
  183SLPC   H9R20932   5.911   2.175   3.706
  183SLPC  C21020933   5.790   2.153   3.864
  183SLPC  H10R20934   5.837   2.055   3.880
  183SLPC  C21120935   5.676   2.189   3.963
  183SLPC  H11R20936   5.599   2.112   3.980
  183SLPC  H11S20937   5.616   2.278   3.933
  183SLPC  C21220938   5.733   2.231   4.098
  183SLPC  H12R20939   5.744   2.339   4.109
  183SLPC  C21320940   5.757   2.153   4.210
  183SLPC  H13R20941   5.816   2.218   4.276
  183SLPC  C21420942   5.755   2.002   4.216
  183SLPC  H14R20943   5.785   1.948   4.124
  183SLPC  H14S20944   5.649   1.976   4.237
  183SLPC  C21520945   5.842   1.945   4.330
  183SLPC  H15R20946   5.810   2.001   4.420
  183SLPC  H15S20947   5.947   1.965   4.301
  183SLPC  C21620948   5.817   1.800   4.357
  183SLPC  H16R20949   5.825   1.732   4.270
  183SLPC  H16S20950   5.712   1.791   4.392
  183SLPC  C21720951   5.879   1.752   4.487
  183SLPC  H17R20952   5.850   1.809   4.578
  183SLPC  H17S20953   5.987   1.728   4.474
  183SLPC  C21820954   5.838   1.600   4.525
  183SLPC  H18R20955   5.893   1.571   4.617
  183SLPC  H18S20956   5.864   1.529   4.444
  183SLPC  H18T20957   5.730   1.583   4.548
  183SLPC   C3320958   6.568   2.092   3.139
  183SLPC   H3X20959   6.668   2.105   3.186
  183SLPC   H3Y20960   6.563   1.983   3.117
  183SLPC   C3420961   6.464   2.144   3.239
  183SLPC   H4X20962   6.357   2.132   3.213
  183SLPC   H4Y20963   6.473   2.252   3.264
  183SLPC   C3520964   6.475   2.087   3.382
  183SLPC   H5X20965   6.582   2.083   3.413
  183SLPC   H5Y20966   6.445   1.981   3.395
  183SLPC   C3620967   6.395   2.177   3.471
  183SLPC   H6X20968   6.289   2.172   3.436
  183SLPC   H6Y20969   6.430   2.283   3.469
  183SLPC   C3720970   6.416   2.130   3.617
  183SLPC   H7X20971   6.520   2.136   3.658
  183SLPC   H7Y20972   6.386   2.023   3.621
  183SLPC   C3820973   6.329   2.223   3.704
  183SLPC   H8X20974   6.239   2.259   3.650
  183SLPC   H8Y20975   6.389   2.313   3.727
  183SLPC   C3920976   6.267   2.150   3.832
  183SLPC   H9X20977   6.355   2.124   3.894
  183SLPC   H9Y20978   6.235   2.048   3.802
  183SLPC  C31020979   6.168   2.221   3.917
  183SLPC  H10X20980   6.126   2.157   3.998
  183SLPC  H10Y20981   6.082   2.249   3.854
  183SLPC  C31120982   6.224   2.339   3.986
  183SLPC  H11X20983   6.239   2.425   3.918
  183SLPC  H11Y20984   6.323   2.313   4.030
  183SLPC  C31220985   6.141   2.390   4.101
  183SLPC  H12X20986   6.199   2.464   4.160
  183SLPC  H12Y20987   6.098   2.313   4.168
  183SLPC  C31320988   6.022   2.467   4.040
  183SLPC  H13X20989   5.953   2.393   3.994
  183SLPC  H13Y20990   6.056   2.535   3.959
  183SLPC  C31420991   5.943   2.545   4.143
  183SLPC  H14X20992   6.012   2.599   4.210
  183SLPC  H14Y20993   5.879   2.472   4.198
  183SLPC  C31520994   5.844   2.642   4.085
  183SLPC  H15X20995   5.757   2.589   4.040
  183SLPC  H15Y20996   5.887   2.693   3.996
  183SLPC  C31620997   5.794   2.747   4.191
  183SLPC  H16X20998   5.759   2.690   4.280
  183SLPC  H16Y20999   5.698   2.775   4.141
  183SLPC  C31721000   5.884   2.857   4.220
  183SLPC  H17X21001   5.893   2.915   4.125
  183SLPC  H17Y21002   5.980   2.829   4.268
  183SLPC  C31821003   5.825   2.954   4.326
  183SLPC  H18X21004   5.904   3.023   4.362
  183SLPC  H18Y21005   5.800   2.895   4.417
  183SLPC  H18Z21006   5.746   3.016   4.279
  184SLPC     N21007   0.045   1.467   1.764
  184SLPC   C1321008   0.198   1.480   1.736
  184SLPC  H13A21009   0.247   1.384   1.745
  184SLPC  H13B21010   0.210   1.532   1.642
  184SLPC  H13C21011   0.241   1.537   1.816
  184SLPC   C1421012   6.783   1.402   1.652
  184SLPC  H14A21013   6.776   1.467   1.567
  184SLPC  H14B21014   0.035   1.312   1.624
  184SLPC  H14C21015   6.684   1.373   1.684
  184SLPC   C1521016   6.789   1.604   1.793
  184SLPC  H15A21017   0.005   1.679   1.717
  184SLPC  H15B21018   6.683   1.596   1.810
  184SLPC  H15C21019   0.025   1.634   1.890
  184SLPC   C1221020   0.024   1.370   1.882
  184SLPC  H12A21021   0.038   1.266   1.858
  184SLPC  H12B21022   6.718   1.375   1.903
  184SLPC   C1121023   0.085   1.412   2.016
  184SLPC  H11A21024   0.195   1.427   2.021
  184SLPC  H11B21025   0.046   1.337   2.088
  184SLPC     P21026   6.703   1.563   2.131
  184SLPC   O1321027   6.659   1.706   2.124
  184SLPC   O1421028   6.609   1.462   2.074
  184SLPC   O1221029   0.047   1.546   2.062
  184SLPC   O1121030   6.740   1.532   2.275
  184SLPC    C121031   0.058   1.595   2.330
  184SLPC    HA21032   0.143   1.528   2.303
  184SLPC    HB21033   0.078   1.694   2.285
  184SLPC    C221034   0.037   1.620   2.486
  184SLPC    HS21035   0.133   1.652   2.532
  184SLPC   O2121036   6.797   1.496   2.541
  184SLPC   C2121037   0.081   1.404   2.564
  184SLPC   O2221038   0.203   1.407   2.539
  184SLPC   C2221039   0.019   1.295   2.641
  184SLPC   H2R21040   6.717   1.315   2.677
  184SLPC   H2S21041   0.021   1.200   2.583
  184SLPC    C321042   6.725   1.730   2.505
  184SLPC    HX21043   6.637   1.706   2.441
  184SLPC    HY21044   6.767   1.825   2.468
  184SLPC   O3121045   6.696   1.746   2.650
  184SLPC   C3121046   6.578   1.692   2.680
  184SLPC   O3221047   6.498   1.641   2.602
  184SLPC   C3221048   6.567   1.673   2.828
  184SLPC   H2X21049   6.521   1.769   2.861
  184SLPC   H2Y21050   6.674   1.671   2.860
  184SLPC   C2321051   0.095   1.247   2.766
  184SLPC   H3R21052   0.202   1.263   2.739
  184SLPC   H3S21053   0.075   1.137   2.772
  184SLPC   C2421054   0.044   1.322   2.889
  184SLPC   H4R21055   6.747   1.284   2.927
  184SLPC   H4S21056   0.029   1.431   2.876
  184SLPC   C2521057   0.145   1.312   3.001
  184SLPC   H5R21058   0.228   1.385   2.995
  184SLPC   H5S21059   0.199   1.216   3.015
  184SLPC   C2621060   0.083   1.333   3.144
  184SLPC   H6R21061   6.794   1.269   3.160
  184SLPC   H6S21062   0.046   1.437   3.152
  184SLPC   C2721063   0.181   1.301   3.260
  184SLPC   H7R21064   0.289   1.322   3.243
  184SLPC   H7S21065   0.188   1.192   3.275
  184SLPC   C2821066   0.145   1.365   3.388
  184SLPC   H8R21067   0.112   1.471   3.377
  184SLPC   H8S21068   0.230   1.364   3.459
  184SLPC   C2921069   0.036   1.293   3.461
  184SLPC   H9R21070   6.750   1.267   3.399
  184SLPC  C21021071   0.024   1.270   3.595
  184SLPC  H10R21072   6.743   1.203   3.627
  184SLPC  C21121073   0.120   1.329   3.704
  184SLPC  H11R21074   0.214   1.372   3.663
  184SLPC  H11S21075   0.147   1.241   3.765
  184SLPC  C21221076   0.058   1.441   3.789
  184SLPC  H12R21077   0.122   1.530   3.779
  184SLPC  C21321078   6.745   1.436   3.860
  184SLPC  H13R21079   6.723   1.528   3.916
  184SLPC  C21421080   6.652   1.318   3.886
  184SLPC  H14R21081   6.717   1.229   3.899
  184SLPC  H14S21082   6.589   1.317   3.795
  184SLPC  C21521083   6.572   1.322   4.019
  184SLPC  H15R21084   6.515   1.227   4.029
  184SLPC  H15S21085   6.505   1.411   4.017
  184SLPC  C21621086   6.672   1.327   4.139
  184SLPC  H16R21087   6.717   1.428   4.150
  184SLPC  H16S21088   6.748   1.253   4.107
  184SLPC  C21721089   6.608   1.280   4.273
  184SLPC  H17R21090   6.554   1.183   4.263
  184SLPC  H17S21091   6.521   1.345   4.297
  184SLPC  C21821092   6.712   1.273   4.387
  184SLPC  H18R21093   6.659   1.236   4.477
  184SLPC  H18S21094   6.762   1.370   4.408
  184SLPC  H18T21095   6.783   1.193   4.356
  184SLPC   C3321096   6.488   1.552   2.878
  184SLPC   H3X21097   6.557   1.469   2.853
  184SLPC   H3Y21098   6.405   1.525   2.809
  184SLPC   C3421099   6.440   1.570   3.018
  184SLPC   H4X21100   6.407   1.465   3.037
  184SLPC   H4Y21101   6.362   1.645   3.043
  184SLPC   C3521102   6.561   1.595   3.115
  184SLPC   H5X21103   6.588   1.702   3.098
  184SLPC   H5Y21104   6.645   1.533   3.077
  184SLPC   C3621105   6.528   1.569   3.262
  184SLPC   H6X21106   6.522   1.459   3.272
  184SLPC   H6Y21107   6.440   1.634   3.283
  184SLPC   C3721108   6.651   1.621   3.348
  184SLPC   H7X21109   6.672   1.724   3.312
  184SLPC   H7Y21110   6.743   1.561   3.328
  184SLPC   C3821111   6.637   1.620   3.504
  184SLPC   H8X21112   6.708   1.694   3.547
  184SLPC   H8Y21113   6.667   1.522   3.546
  184SLPC   C3921114   6.491   1.664   3.554
  184SLPC   H9X21115   6.410   1.595   3.522
  184SLPC   H9Y21116   6.469   1.768   3.524
  184SLPC  C31021117   6.480   1.660   3.707
  184SLPC  H10X21118   6.507   1.558   3.742
  184SLPC  H10Y21119   6.378   1.693   3.735
  184SLPC  C31121120   6.577   1.753   3.769
  184SLPC  H11X21121   6.578   1.850   3.715
  184SLPC  H11Y21122   6.676   1.705   3.752
  184SLPC  C31221123   6.552   1.786   3.919
  184SLPC  H12X21124   6.556   1.687   3.971
  184SLPC  H12Y21125   6.450   1.829   3.929
  184SLPC  C31321126   6.655   1.884   3.981
  184SLPC  H13X21127   6.664   1.973   3.915
  184SLPC  H13Y21128   6.754   1.835   3.991
  184SLPC  C31421129   6.617   1.935   4.124
  184SLPC  H14X21130   6.700   1.987   4.177
  184SLPC  H14Y21131   6.609   1.840   4.182
  184SLPC  C31521132   6.483   2.007   4.141
  184SLPC  H15X21133   6.406   1.965   4.073
  184SLPC  H15Y21134   6.507   2.112   4.115
  184SLPC  C31621135   6.420   1.992   4.280
  184SLPC  H16X21136   6.480   2.052   4.351
  184SLPC  H16Y21137   6.428   1.891   4.326
  184SLPC  C31721138   6.267   2.024   4.285
  184SLPC  H17X21139   6.209   1.933   4.260
  184SLPC  H17Y21140   6.241   2.110   4.220
  184SLPC  C31821141   6.234   2.061   4.435
  184SLPC  H18X21142   6.300   2.141   4.475
  184SLPC  H18Y21143   6.247   1.967   4.494
  184SLPC  H18Z21144   6.128   2.094   4.432
  185POPC     N21145   1.313   5.177   6.765
  185POPC   C1221146   1.461   5.202   6.754
  185POPC  H12A21147   1.510   5.118   6.706
  185POPC  H12B21148   1.501   5.209   6.854
  185POPC   C1321149   1.260   5.295   6.829
  185POPC  H13A21150   1.302   5.291   6.929
  185POPC  H13B21151   1.290   5.385   6.777
  185POPC  H13C21152   1.153   5.290   6.829
  185POPC   C1421153   1.263   5.143   6.628
  185POPC  H14A21154   1.329   5.068   6.587
  185POPC  H14B21155   1.162   5.107   6.641
  185POPC  H14C21156   1.263   5.233   6.569
  185POPC   C1521157   1.282   5.055   6.851
  185POPC  H15A21158   1.176   5.044   6.873
  185POPC  H15B21159   1.337   5.055   6.944
  185POPC  H15C21160   1.302   4.961   6.802
  185POPC   C1121161   1.514   5.314   6.662
  185POPC  H11A21162   1.486   5.297   6.556
  185POPC  H11B21163   1.623   5.293   6.662
  185POPC     P21164   1.564   5.515   6.801
  185POPC   O1321165   1.601   5.430   6.914
  185POPC   O1421166   1.503   5.639   6.837
  185POPC   O1221167   1.474   5.442   6.701
  185POPC   O1121168   1.691   5.544   6.715
  185POPC    C121169   1.733   5.676   6.685
  185POPC    HA21170   1.841   5.666   6.664
  185POPC    HB21171   1.715   5.747   6.768
  185POPC    C221172   1.667   5.737   6.556
  185POPC    HS21173   1.560   5.742   6.588
  185POPC   O2121174   1.686   5.636   6.448
  185POPC   C2121175   1.573   5.602   6.386
  185POPC   O2221176   1.466   5.653   6.407
  185POPC   C2221177   1.604   5.521   6.261
  185POPC   H2R21178   1.515   5.531   6.194
  185POPC   H2S21179   1.630   5.415   6.283
  185POPC    C321180   1.716   5.879   6.523
  185POPC    HX21181   1.826   5.878   6.536
  185POPC    HY21182   1.685   5.936   6.613
  185POPC   O3121183   1.676   5.940   6.395
  185POPC   C3121184   1.561   6.000   6.396
  185POPC   O3221185   1.505   6.043   6.498
  185POPC   C3221186   1.509   6.035   6.256
  185POPC   H2X21187   1.479   6.142   6.254
  185POPC   H2Y21188   1.419   5.981   6.219
  185POPC   C2321189   1.740   5.583   6.201
  185POPC   H3R21190   1.823   5.524   6.245
  185POPC   H3S21191   1.750   5.692   6.222
  185POPC   C2421192   1.732   5.565   6.050
  185POPC   H4R21193   1.636   5.605   6.013
  185POPC   H4S21194   1.741   5.457   6.026
  185POPC   C2521195   1.835   5.647   5.970
  185POPC   H5R21196   1.936   5.617   6.007
  185POPC   H5S21197   1.814   5.756   5.976
  185POPC   C2621198   1.843   5.616   5.815
  185POPC   H6R21199   1.748   5.651   5.771
  185POPC   H6S21200   1.841   5.505   5.803
  185POPC   C2721201   1.959   5.675   5.751
  185POPC   H7R21202   2.047   5.607   5.760
  185POPC   H7S21203   1.985   5.766   5.809
  185POPC   C2821204   1.935   5.724   5.604
  185POPC   H8R21205   2.007   5.794   5.556
  185POPC   H8S21206   1.839   5.780   5.605
  185POPC   C2921207   1.913   5.606   5.511
  185POPC   H9121208   1.810   5.569   5.521
  185POPC  C21021209   2.003   5.541   5.440
  185POPC  H10121210   1.959   5.461   5.379
  185POPC  C21121211   2.141   5.566   5.413
  185POPC  H11R21212   2.195   5.478   5.456
  185POPC  H11S21213   2.181   5.657   5.462
  185POPC  C21221214   2.166   5.572   5.262
  185POPC  H12R21215   2.176   5.477   5.207
  185POPC  H12S21216   2.264   5.622   5.243
  185POPC  C21321217   2.058   5.656   5.192
  185POPC  H13R21218   2.025   5.738   5.259
  185POPC  H13S21219   1.973   5.587   5.174
  185POPC  C21421220   2.083   5.720   5.061
  185POPC  H14R21221   2.179   5.775   5.053
  185POPC  H14S21222   2.006   5.798   5.039
  185POPC  C21521223   2.092   5.618   4.954
  185POPC  H15R21224   2.034   5.526   4.976
  185POPC  H15S21225   2.198   5.586   4.947
  185POPC  C21621226   2.043   5.666   4.817
  185POPC  H16R21227   1.937   5.700   4.819
  185POPC  H16S21228   2.063   5.576   4.754
  185POPC  C21721229   2.112   5.785   4.753
  185POPC  H17R21230   2.090   5.873   4.817
  185POPC  H17S21231   2.078   5.808   4.650
  185POPC  C21821232   2.268   5.766   4.748
  185POPC  H18R21233   2.299   5.721   4.651
  185POPC  H18S21234   2.323   5.724   4.835
  185POPC  H18T21235   2.318   5.864   4.733
  185POPC   C3321236   1.615   6.026   6.142
  185POPC   H3X21237   1.652   5.922   6.128
  185POPC   H3Y21238   1.704   6.089   6.166
  185POPC   C3421239   1.555   6.073   6.007
  185POPC   H4X21240   1.494   6.163   6.033
  185POPC   H4Y21241   1.481   5.994   5.980
  185POPC   C3521242   1.656   6.101   5.903
  185POPC   H5X21243   1.710   6.005   5.885
  185POPC   H5Y21244   1.727   6.174   5.946
  185POPC   C3621245   1.603   6.144   5.767
  185POPC   H6X21246   1.523   6.217   5.790
  185POPC   H6Y21247   1.562   6.050   5.724
  185POPC   C3721248   1.702   6.207   5.671
  185POPC   H7X21249   1.788   6.139   5.656
  185POPC   H7Y21250   1.741   6.300   5.718
  185POPC   C3821251   1.647   6.250   5.526
  185POPC   H8X21252   1.567   6.328   5.527
  185POPC   H8Y21253   1.606   6.154   5.489
  185POPC   C3921254   1.753   6.299   5.426
  185POPC   H9X21255   1.832   6.224   5.444
  185POPC   H9Y21256   1.792   6.400   5.453
  185POPC  C31021257   1.700   6.298   5.280
  185POPC  H10X21258   1.609   6.360   5.271
  185POPC  H10Y21259   1.669   6.192   5.271
  185POPC  C31121260   1.800   6.323   5.167
  185POPC  H11X21261   1.868   6.236   5.178
  185POPC  H11Y21262   1.848   6.419   5.197
  185POPC  C31221263   1.737   6.340   5.026
  185POPC  H12X21264   1.688   6.440   5.017
  185POPC  H12Y21265   1.663   6.262   4.998
  185POPC  C31321266   1.848   6.344   4.921
  185POPC  H13X21267   1.901   6.248   4.907
  185POPC  H13Y21268   1.925   6.418   4.949
  185POPC  C31421269   1.786   6.398   4.787
  185POPC  H14X21270   1.735   6.496   4.801
  185POPC  H14Y21271   1.712   6.328   4.745
  185POPC  C31521272   1.902   6.421   4.683
  185POPC  H15X21273   1.958   6.327   4.665
  185POPC  H15Y21274   1.971   6.498   4.725
  185POPC  C31621275   1.859   6.486   4.550
  185POPC  H16X21276   1.769   6.433   4.514
  185POPC  H16Y21277   1.939   6.486   4.473
  185POPC  H16Z21278   1.819   6.586   4.577
  186POPC     N21279   3.378   5.395   6.763
  186POPC   C1221280   3.457   5.265   6.790
  186POPC  H12A21281   3.530   5.248   6.712
  186POPC  H12B21282   3.388   5.182   6.787
  186POPC   C1321283   3.470   5.513   6.743
  186POPC  H13A21284   3.520   5.508   6.647
  186POPC  H13B21285   3.417   5.606   6.749
  186POPC  H13C21286   3.551   5.514   6.814
  186POPC   C1421287   3.292   5.371   6.636
  186POPC  H14A21288   3.248   5.466   6.611
  186POPC  H14B21289   3.345   5.318   6.559
  186POPC  H14C21290   3.209   5.305   6.658
  186POPC   C1521291   3.287   5.418   6.876
  186POPC  H15A21292   3.216   5.338   6.881
  186POPC  H15B21293   3.230   5.510   6.873
  186POPC  H15C21294   3.350   5.422   6.964
  186POPC   C1121295   3.530   5.255   6.919
  186POPC  H11A21296   3.571   5.152   6.923
  186POPC  H11B21297   3.456   5.281   6.998
  186POPC     P21298   3.779   5.320   6.891
  186POPC   O1321299   3.822   5.184   6.925
  186POPC   O1421300   3.862   5.426   6.949
  186POPC   O1221301   3.633   5.344   6.934
  186POPC   O1121302   3.767   5.326   6.732
  186POPC    C121303   3.894   5.358   6.670
  186POPC    HA21304   3.962   5.270   6.669
  186POPC    HB21305   3.952   5.441   6.715
  186POPC    C221306   3.870   5.398   6.525
  186POPC    HS21307   3.789   5.474   6.532
  186POPC   O2121308   3.837   5.282   6.449
  186POPC   C2121309   3.721   5.293   6.383
  186POPC   O2221310   3.660   5.395   6.365
  186POPC   C2221311   3.684   5.153   6.330
  186POPC   H2R21312   3.658   5.087   6.415
  186POPC   H2S21313   3.781   5.116   6.290
  186POPC    C321314   3.990   5.472   6.459
  186POPC    HX21315   4.072   5.397   6.461
  186POPC    HY21316   4.028   5.567   6.504
  186POPC   O3121317   3.958   5.491   6.320
  186POPC   C3121318   3.893   5.607   6.297
  186POPC   O3221319   3.883   5.702   6.373
  186POPC   C3221320   3.833   5.617   6.151
  186POPC   H2X21321   3.744   5.550   6.156
  186POPC   H2Y21322   3.907   5.579   6.078
  186POPC   C2321323   3.578   5.161   6.216
  186POPC   H3R21324   3.495   5.222   6.257
  186POPC   H3S21325   3.535   5.059   6.208
  186POPC   C2421326   3.632   5.225   6.090
  186POPC   H4R21327   3.723   5.173   6.054
  186POPC   H4S21328   3.663   5.332   6.100
  186POPC   C2521329   3.530   5.222   5.976
  186POPC   H5R21330   3.454   5.301   5.995
  186POPC   H5S21331   3.475   5.125   5.970
  186POPC   C2621332   3.596   5.248   5.837
  186POPC   H6R21333   3.685   5.189   5.807
  186POPC   H6S21334   3.622   5.356   5.842
  186POPC   C2721335   3.493   5.230   5.721
  186POPC   H7R21336   3.409   5.302   5.734
  186POPC   H7S21337   3.450   5.128   5.712
  186POPC   C2821338   3.558   5.279   5.592
  186POPC   H8R21339   3.492   5.249   5.508
  186POPC   H8S21340   3.651   5.222   5.570
  186POPC   C2921341   3.592   5.426   5.595
  186POPC   H9121342   3.644   5.459   5.686
  186POPC  C21021343   3.568   5.510   5.490
  186POPC  H10121344   3.574   5.619   5.500
  186POPC  C21121345   3.506   5.481   5.356
  186POPC  H11R21346   3.401   5.513   5.372
  186POPC  H11S21347   3.507   5.373   5.329
  186POPC  C21221348   3.580   5.559   5.248
  186POPC  H12R21349   3.682   5.514   5.237
  186POPC  H12S21350   3.599   5.664   5.276
  186POPC  C21321351   3.508   5.563   5.114
  186POPC  H13R21352   3.401   5.573   5.144
  186POPC  H13S21353   3.531   5.465   5.067
  186POPC  C21421354   3.555   5.668   5.019
  186POPC  H14R21355   3.666   5.670   5.031
  186POPC  H14S21356   3.498   5.746   5.074
  186POPC  C21521357   3.513   5.629   4.875
  186POPC  H15R21358   3.405   5.613   4.853
  186POPC  H15S21359   3.550   5.527   4.853
  186POPC  C21621360   3.549   5.731   4.765
  186POPC  H16R21361   3.641   5.788   4.792
  186POPC  H16S21362   3.458   5.794   4.764
  186POPC  C21721363   3.566   5.654   4.634
  186POPC  H17R21364   3.468   5.609   4.610
  186POPC  H17S21365   3.640   5.572   4.632
  186POPC  C21821366   3.600   5.734   4.516
  186POPC  H18R21367   3.590   5.671   4.425
  186POPC  H18S21368   3.702   5.779   4.523
  186POPC  H18T21369   3.532   5.822   4.515
  186POPC   C3321370   3.784   5.760   6.117
  186POPC   H3X21371   3.858   5.830   6.163
  186POPC   H3Y21372   3.692   5.771   6.179
  186POPC   C3421373   3.744   5.803   5.972
  186POPC   H4X21374   3.719   5.911   5.967
  186POPC   H4Y21375   3.661   5.733   5.949
  186POPC   C3521376   3.840   5.778   5.863
  186POPC   H5X21377   3.885   5.676   5.868
  186POPC   H5Y21378   3.919   5.853   5.880
  186POPC   C3621379   3.781   5.792   5.721
  186POPC   H6X21380   3.752   5.899   5.724
  186POPC   H6Y21381   3.689   5.732   5.706
  186POPC   C3721382   3.886   5.766   5.616
  186POPC   H7X21383   3.917   5.660   5.615
  186POPC   H7Y21384   3.970   5.833   5.645
  186POPC   C3821385   3.855   5.808   5.478
  186POPC   H8X21386   3.834   5.917   5.474
  186POPC   H8Y21387   3.765   5.759   5.433
  186POPC   C3921388   3.969   5.774   5.388
  186POPC   H9X21389   4.000   5.668   5.397
  186POPC   H9Y21390   4.060   5.836   5.407
  186POPC  C31021391   3.942   5.814   5.240
  186POPC  H10X21392   3.904   5.919   5.242
  186POPC  H10Y21393   3.859   5.757   5.193
  186POPC  C31121394   4.058   5.797   5.139
  186POPC  H11X21395   4.070   5.691   5.108
  186POPC  H11Y21396   4.150   5.836   5.187
  186POPC  C31221397   4.030   5.876   5.010
  186POPC  H12X21398   4.047   5.983   5.032
  186POPC  H12Y21399   3.920   5.871   4.994
  186POPC  C31321400   4.117   5.832   4.896
  186POPC  H13X21401   4.103   5.729   4.857
  186POPC  H13Y21402   4.223   5.831   4.928
  186POPC  C31421403   4.118   5.938   4.777
  186POPC  H14X21404   4.191   5.920   4.694
  186POPC  H14Y21405   4.153   6.033   4.823
  186POPC  C31521406   3.982   5.962   4.708
  186POPC  H15X21407   3.985   6.033   4.623
  186POPC  H15Y21408   3.908   6.009   4.777
  186POPC  C31621409   3.924   5.824   4.675
  186POPC  H16X21410   3.989   5.765   4.607
  186POPC  H16Y21411   3.829   5.855   4.627
  186POPC  H16Z21412   3.899   5.775   4.771
  187POPC     N21413   6.607   4.657   2.285
  187POPC   C1221414   6.626   4.799   2.227
  187POPC  H12A21415   6.542   4.816   2.160
  187POPC  H12B21416   6.717   4.795   2.168
  187POPC   C1321417   6.466   4.642   2.344
  187POPC  H13A21418   6.397   4.640   2.261
  187POPC  H13B21419   6.464   4.547   2.397
  187POPC  H13C21420   6.441   4.719   2.415
  187POPC   C1421421   6.610   4.554   2.169
  187POPC  H14A21422   6.710   4.563   2.129
  187POPC  H14B21423   6.588   4.455   2.207
  187POPC  H14C21424   6.547   4.567   2.083
  187POPC   C1521425   6.709   4.624   2.390
  187POPC  H15A21426   0.009   4.635   2.353
  187POPC  H15B21427   6.701   4.522   2.425
  187POPC  H15C21428   6.683   4.687   2.474
  187POPC   C1121429   6.627   4.919   2.319
  187POPC  H11A21430   6.651   5.013   2.264
  187POPC  H11B21431   6.716   4.910   2.384
  187POPC     P21432   6.384   5.016   2.309
  187POPC   O1321433   6.264   4.928   2.310
  187POPC   O1421434   6.444   5.047   2.180
  187POPC   O1221435   6.502   4.935   2.387
  187POPC   O1121436   6.359   5.153   2.386
  187POPC    C121437   6.414   5.177   2.517
  187POPC    HA21438   6.453   5.281   2.520
  187POPC    HB21439   6.504   5.121   2.548
  187POPC    C221440   6.320   5.159   2.635
  187POPC    HS21441   6.374   5.197   2.724
  187POPC   O2121442   6.286   5.019   2.647
  187POPC   C2121443   6.268   4.969   2.772
  187POPC   O2221444   6.282   5.029   2.872
  187POPC   C2221445   6.259   4.814   2.763
  187POPC   H2R21446   6.359   4.778   2.796
  187POPC   H2S21447   6.257   4.791   2.654
  187POPC    C321448   6.191   5.240   2.627
  187POPC    HX21449   6.109   5.190   2.570
  187POPC    HY21450   6.196   5.344   2.589
  187POPC   O3121451   6.120   5.244   2.762
  187POPC   C3121452   6.184   5.323   2.845
  187POPC   O3221453   6.282   5.392   2.821
  187POPC   C3221454   6.114   5.314   2.984
  187POPC   H2X21455   6.076   5.210   2.998
  187POPC   H2Y21456   6.017   5.367   2.975
  187POPC   C2321457   6.141   4.752   2.835
  187POPC   H3R21458   6.128   4.650   2.791
  187POPC   H3S21459   6.048   4.810   2.822
  187POPC   C2421460   6.166   4.728   2.984
  187POPC   H4R21461   6.192   4.832   3.015
  187POPC   H4S21462   6.256   4.663   2.995
  187POPC   C2521463   6.042   4.673   3.057
  187POPC   H5R21464   6.029   4.572   3.012
  187POPC   H5S21465   5.957   4.734   3.020
  187POPC   C2621466   6.050   4.666   3.207
  187POPC   H6R21467   6.146   4.612   3.222
  187POPC   H6S21468   5.959   4.606   3.231
  187POPC   C2721469   6.049   4.804   3.278
  187POPC   H7R21470   5.950   4.853   3.266
  187POPC   H7S21471   6.120   4.874   3.229
  187POPC   C2821472   6.090   4.794   3.427
  187POPC   H8R21473   6.102   4.898   3.463
  187POPC   H8S21474   6.194   4.756   3.426
  187POPC   C2921475   5.999   4.710   3.508
  187POPC   H9121476   6.023   4.605   3.484
  187POPC  C21021477   5.901   4.735   3.596
  187POPC  H10121478   5.864   4.648   3.652
  187POPC  C21121479   5.864   4.880   3.629
  187POPC  H11R21480   5.755   4.888   3.607
  187POPC  H11S21481   5.923   4.957   3.574
  187POPC  C21221482   5.879   4.915   3.781
  187POPC  H12R21483   5.848   5.020   3.802
  187POPC  H12S21484   5.987   4.899   3.799
  187POPC  C21321485   5.825   4.823   3.886
  187POPC  H13R21486   5.848   4.715   3.870
  187POPC  H13S21487   5.715   4.838   3.882
  187POPC  C21421488   5.863   4.857   4.026
  187POPC  H14R21489   5.847   4.963   4.057
  187POPC  H14S21490   5.972   4.842   4.041
  187POPC  C21521491   5.771   4.776   4.121
  187POPC  H15R21492   5.774   4.668   4.096
  187POPC  H15S21493   5.665   4.807   4.119
  187POPC  C21621494   5.828   4.788   4.262
  187POPC  H16R21495   5.809   4.889   4.303
  187POPC  H16S21496   5.939   4.794   4.250
  187POPC  C21721497   5.781   4.683   4.365
  187POPC  H17R21498   5.821   4.584   4.333
  187POPC  H17S21499   5.670   4.684   4.357
  187POPC  C21821500   5.814   4.704   4.513
  187POPC  H18R21501   5.766   4.627   4.577
  187POPC  H18S21502   5.787   4.806   4.549
  187POPC  H18T21503   5.924   4.689   4.517
  187POPC   C3321504   6.205   5.359   3.108
  187POPC   H3X21505   6.247   5.459   3.083
  187POPC   H3Y21506   6.288   5.286   3.112
  187POPC   C3421507   6.124   5.378   3.234
  187POPC   H4X21508   6.021   5.413   3.209
  187POPC   H4Y21509   6.177   5.448   3.302
  187POPC   C3521510   6.116   5.239   3.310
  187POPC   H5X21511   6.213   5.201   3.348
  187POPC   H5Y21512   6.071   5.172   3.233
  187POPC   C3621513   6.022   5.252   3.425
  187POPC   H6X21514   5.956   5.163   3.436
  187POPC   H6Y21515   5.948   5.333   3.403
  187POPC   C3721516   6.087   5.257   3.564
  187POPC   H7X21517   6.166   5.333   3.579
  187POPC   H7Y21518   6.137   5.158   3.565
  187POPC   C3821519   5.982   5.284   3.665
  187POPC   H8X21520   5.893   5.220   3.645
  187POPC   H8Y21521   5.950   5.390   3.658
  187POPC   C3921522   6.036   5.252   3.805
  187POPC   H9X21523   6.122   5.312   3.839
  187POPC   H9Y21524   6.060   5.143   3.800
  187POPC  C31021525   5.931   5.268   3.922
  187POPC  H10X21526   5.842   5.205   3.902
  187POPC  H10Y21527   5.906   5.376   3.919
  187POPC  C31121528   5.976   5.227   4.065
  187POPC  H11X21529   6.074   5.278   4.079
  187POPC  H11Y21530   5.998   5.118   4.064
  187POPC  C31221531   5.852   5.249   4.159
  187POPC  H12X21532   5.775   5.172   4.136
  187POPC  H12Y21533   5.822   5.350   4.122
  187POPC  C31321534   5.894   5.251   4.305
  187POPC  H13X21535   5.986   5.312   4.316
  187POPC  H13Y21536   5.920   5.146   4.332
  187POPC  C31421537   5.776   5.304   4.393
  187POPC  H14X21538   5.676   5.263   4.365
  187POPC  H14Y21539   5.775   5.410   4.359
  187POPC  C31521540   5.794   5.281   4.544
  187POPC  H15X21541   5.713   5.335   4.597
  187POPC  H15Y21542   5.885   5.334   4.579
  187POPC  C31621543   5.791   5.140   4.601
  187POPC  H16X21544   5.697   5.095   4.564
  187POPC  H16Y21545   5.789   5.155   4.711
  187POPC  H16Z21546   5.884   5.089   4.567
  188POPC     N21547   5.303   4.549   1.629
  188POPC   C1221548   5.290   4.506   1.770
  188POPC  H12A21549   5.330   4.406   1.776
  188POPC  H12B21550   5.189   4.496   1.808
  188POPC   C1321551   5.273   4.697   1.614
  188POPC  H13A21552   5.346   4.756   1.667
  188POPC  H13B21553   5.278   4.717   1.508
  188POPC  H13C21554   5.173   4.718   1.647
  188POPC   C1421555   5.450   4.530   1.583
  188POPC  H14A21556   5.472   4.426   1.603
  188POPC  H14B21557   5.462   4.537   1.476
  188POPC  H14C21558   5.525   4.589   1.633
  188POPC   C1521559   5.226   4.473   1.535
  188POPC  H15A21560   5.262   4.372   1.522
  188POPC  H15B21561   5.229   4.516   1.436
  188POPC  H15C21562   5.121   4.464   1.558
  188POPC   C1121563   5.368   4.593   1.879
  188POPC  H11A21564   5.472   4.586   1.842
  188POPC  H11B21565   5.378   4.536   1.974
  188POPC     P21566   5.417   4.826   1.982
  188POPC   O1321567   5.341   4.944   2.024
  188POPC   O1421568   5.544   4.843   1.911
  188POPC   O1221569   5.325   4.724   1.903
  188POPC   O1121570   5.440   4.747   2.114
  188POPC    C121571   5.342   4.691   2.204
  188POPC    HA21572   5.355   4.581   2.210
  188POPC    HB21573   5.237   4.713   2.175
  188POPC    C221574   5.370   4.738   2.348
  188POPC    HS21575   5.336   4.843   2.354
  188POPC   O2121576   5.510   4.735   2.381
  188POPC   C2121577   5.550   4.838   2.456
  188POPC   O2221578   5.478   4.925   2.508
  188POPC   C2221579   5.696   4.828   2.473
  188POPC   H2R21580   5.738   4.927   2.501
  188POPC   H2S21581   5.742   4.800   2.376
  188POPC    C321582   5.276   4.658   2.449
  188POPC    HX21583   5.307   4.552   2.435
  188POPC    HY21584   5.171   4.670   2.416
  188POPC   O3121585   5.282   4.684   2.586
  188POPC   C3121586   5.205   4.781   2.633
  188POPC   O3221587   5.133   4.857   2.573
  188POPC   C3221588   5.235   4.804   2.780
  188POPC   H2X21589   5.343   4.830   2.786
  188POPC   H2Y21590   5.216   4.708   2.832
  188POPC   C2321591   5.729   4.724   2.588
  188POPC   H3R21592   5.839   4.717   2.587
  188POPC   H3S21593   5.684   4.627   2.557
  188POPC   C2421594   5.687   4.762   2.732
  188POPC   H4R21595   5.578   4.784   2.730
  188POPC   H4S21596   5.745   4.853   2.758
  188POPC   C2521597   5.724   4.649   2.826
  188POPC   H5R21598   5.834   4.637   2.817
  188POPC   H5S21599   5.679   4.553   2.795
  188POPC   C2621600   5.687   4.674   2.974
  188POPC   H6R21601   5.736   4.770   3.003
  188POPC   H6S21602   5.744   4.591   3.022
  188POPC   C2721603   5.542   4.672   2.999
  188POPC   H7R21604   5.509   4.577   2.951
  188POPC   H7S21605   5.484   4.747   2.942
  188POPC   C2821606   5.500   4.667   3.141
  188POPC   H8R21607   5.507   4.562   3.177
  188POPC   H8S21608   5.391   4.687   3.150
  188POPC   C2921609   5.587   4.752   3.227
  188POPC   H9121610   5.638   4.829   3.167
  188POPC  C21021611   5.598   4.756   3.360
  188POPC  H10121612   5.684   4.809   3.403
  188POPC  C21121613   5.534   4.669   3.469
  188POPC  H11R21614   5.600   4.590   3.509
  188POPC  H11S21615   5.442   4.623   3.426
  188POPC  C21221616   5.484   4.751   3.602
  188POPC  H12R21617   5.391   4.808   3.581
  188POPC  H12S21618   5.540   4.842   3.630
  188POPC  C21321619   5.453   4.656   3.721
  188POPC  H13R21620   5.545   4.598   3.744
  188POPC  H13S21621   5.378   4.586   3.678
  188POPC  C21421622   5.398   4.736   3.846
  188POPC  H14R21623   5.304   4.791   3.823
  188POPC  H14S21624   5.478   4.811   3.864
  188POPC  C21521625   5.369   4.651   3.962
  188POPC  H15R21626   5.465   4.603   3.989
  188POPC  H15S21627   5.295   4.571   3.941
  188POPC  C21621628   5.306   4.728   4.085
  188POPC  H16R21629   5.222   4.796   4.058
  188POPC  H16S21630   5.385   4.793   4.129
  188POPC  C21721631   5.265   4.629   4.186
  188POPC  H17R21632   5.346   4.553   4.195
  188POPC  H17S21633   5.173   4.574   4.155
  188POPC  C21821634   5.245   4.674   4.324
  188POPC  H18R21635   5.178   4.762   4.326
  188POPC  H18S21636   5.342   4.715   4.359
  188POPC  H18T21637   5.204   4.595   4.391
  188POPC   C3321638   5.157   4.924   2.850
  188POPC   H3X21639   5.049   4.900   2.841
  188POPC   H3Y21640   5.178   5.022   2.802
  188POPC   C3421641   5.188   4.933   2.995
  188POPC   H4X21642   5.289   4.893   3.018
  188POPC   H4Y21643   5.117   4.870   3.053
  188POPC   C3521644   5.196   5.085   3.037
  188POPC   H5X21645   5.095   5.133   3.037
  188POPC   H5Y21646   5.263   5.136   2.965
  188POPC   C3621647   5.237   5.095   3.181
  188POPC   H6X21648   5.289   5.193   3.189
  188POPC   H6Y21649   5.317   5.023   3.208
  188POPC   C3721650   5.122   5.082   3.279
  188POPC   H7X21651   5.060   4.993   3.253
  188POPC   H7Y21652   5.051   5.167   3.275
  188POPC   C3821653   5.169   5.074   3.430
  188POPC   H8X21654   5.224   5.165   3.459
  188POPC   H8Y21655   5.228   4.980   3.440
  188POPC   C3921656   5.049   5.060   3.524
  188POPC   H9X21657   5.017   4.955   3.505
  188POPC   H9Y21658   4.976   5.135   3.486
  188POPC  C31021659   5.068   5.074   3.670
  188POPC  H10X21660   5.112   5.174   3.692
  188POPC  H10Y21661   5.142   5.004   3.714
  188POPC  C31121662   4.932   5.065   3.749
  188POPC  H11X21663   4.875   4.972   3.726
  188POPC  H11Y21664   4.870   5.152   3.719
  188POPC  C31221665   4.951   5.065   3.903
  188POPC  H12X21666   4.995   5.159   3.941
  188POPC  H12Y21667   5.023   4.986   3.934
  188POPC  C31321668   4.821   5.037   3.976
  188POPC  H13X21669   4.773   4.946   3.934
  188POPC  H13Y21670   4.745   5.117   3.968
  188POPC  C31421671   4.845   4.996   4.122
  188POPC  H14X21672   4.936   5.053   4.151
  188POPC  H14Y21673   4.875   4.889   4.126
  188POPC  C31521674   4.731   5.032   4.212
  188POPC  H15X21675   4.650   4.956   4.205
  188POPC  H15Y21676   4.690   5.128   4.174
  188POPC  C31621677   4.775   5.043   4.359
  188POPC  H16X21678   4.852   5.124   4.364
  188POPC  H16Y21679   4.817   4.943   4.384
  188POPC  H16Z21680   4.692   5.077   4.425
  189SAPI   C1221681   2.034   4.519   7.008
  189SAPI    H221682   2.069   4.538   6.904
  189SAPI    O221683   1.977   4.642   7.051
  189SAPI   HO221684   2.057   4.682   7.086
  189SAPI   C1321685   1.933   4.402   7.005
  189SAPI    H321686   1.989   4.312   6.970
  189SAPI    O321687   1.842   4.426   6.901
  189SAPI   HO321688   1.789   4.505   6.916
  189SAPI   C1421689   1.877   4.365   7.142
  189SAPI    H421690   1.797   4.441   7.156
  189SAPI    O421691   1.805   4.238   7.139
  189SAPI   HO421692   1.740   4.239   7.210
  189SAPI   C1521693   1.978   4.361   7.253
  189SAPI    H521694   2.021   4.260   7.237
  189SAPI    O521695   1.903   4.370   7.378
  189SAPI   HO521696   1.908   4.278   7.406
  189SAPI   C1621697   2.106   4.442   7.246
  189SAPI    H621698   2.085   4.532   7.308
  189SAPI    O621699   2.219   4.381   7.306
  189SAPI   HO621700   2.288   4.448   7.313
  189SAPI   C1121701   2.150   4.489   7.102
  189SAPI    H121702   2.199   4.400   7.058
  189SAPI     P21703   2.361   4.611   7.006
  189SAPI   O1321704   2.411   4.478   6.969
  189SAPI   O1421705   2.472   4.700   7.053
  189SAPI   O1221706   2.240   4.601   7.112
  189SAPI   O1121707   2.284   4.672   6.876
  189SAPI    C121708   2.244   4.811   6.885
  189SAPI    HA21709   2.141   4.808   6.927
  189SAPI    HB21710   2.309   4.871   6.951
  189SAPI    C221711   2.251   4.898   6.756
  189SAPI    HS21712   2.219   5.001   6.781
  189SAPI   O2121713   2.156   4.844   6.655
  189SAPI   C2121714   2.026   4.866   6.674
  189SAPI   O2221715   1.984   4.911   6.779
  189SAPI   C2221716   1.938   4.820   6.562
  189SAPI   H2R21717   1.954   4.710   6.553
  189SAPI   H2S21718   1.830   4.835   6.585
  189SAPI    C321719   2.399   4.903   6.701
  189SAPI    HX21720   2.430   4.797   6.688
  189SAPI    HY21721   2.472   4.939   6.777
  189SAPI   O3121722   2.405   4.985   6.576
  189SAPI   C3121723   2.406   5.119   6.601
  189SAPI   O3221724   2.428   5.163   6.711
  189SAPI   C3221725   2.378   5.204   6.465
  189SAPI   H2X21726   2.475   5.253   6.442
  189SAPI   H2Y21727   2.311   5.288   6.494
  189SAPI   C2321728   1.965   4.880   6.423
  189SAPI   H3R21729   1.912   4.817   6.348
  189SAPI   H3S21730   2.075   4.874   6.410
  189SAPI   C2421731   1.920   5.030   6.399
  189SAPI   H4R21732   1.973   5.055   6.305
  189SAPI   H4S21733   1.954   5.111   6.466
  189SAPI   C2521734   1.770   5.043   6.379
  189SAPI   H5R21735   1.715   5.026   6.473
  189SAPI   C2621736   1.707   5.047   6.262
  189SAPI   H6R21737   1.598   5.037   6.267
  189SAPI   C2721738   1.777   5.061   6.129
  189SAPI   H7R21739   1.702   5.061   6.046
  189SAPI   H7S21740   1.837   4.971   6.107
  189SAPI   C2821741   1.857   5.189   6.108
  189SAPI   H8R21742   1.802   5.276   6.148
  189SAPI   C2921743   1.957   5.206   6.017
  189SAPI   H9R21744   1.998   5.308   6.008
  189SAPI  C21021745   2.026   5.105   5.939
  189SAPI  H10R21746   2.006   5.003   5.978
  189SAPI  H10S21747   2.137   5.103   5.946
  189SAPI  C21121748   1.988   5.128   5.791
  189SAPI  H11R21749   1.880   5.131   5.776
  189SAPI  C21221750   2.070   5.122   5.683
  189SAPI  H12R21751   2.024   5.128   5.583
  189SAPI  C21321752   2.216   5.092   5.685
  189SAPI  H13R21753   2.229   5.006   5.616
  189SAPI  H13S21754   2.260   5.060   5.782
  189SAPI  C21421755   2.290   5.210   5.635
  189SAPI  H14R21756   2.289   5.297   5.702
  189SAPI  C21521757   2.346   5.223   5.512
  189SAPI  H15R21758   2.396   5.317   5.485
  189SAPI  C21621759   2.367   5.131   5.395
  189SAPI  H16R21760   2.354   5.027   5.431
  189SAPI  H16S21761   2.467   5.137   5.349
  189SAPI  C21721762   2.273   5.162   5.279
  189SAPI  H17R21763   2.286   5.268   5.248
  189SAPI  H17S21764   2.168   5.144   5.310
  189SAPI  C21821765   2.286   5.064   5.161
  189SAPI  H18R21766   2.276   4.957   5.188
  189SAPI  H18S21767   2.387   5.074   5.116
  189SAPI  C21921768   2.171   5.100   5.062
  189SAPI  H19R21769   2.199   5.088   4.955
  189SAPI  H19S21770   2.158   5.209   5.077
  189SAPI  C22021771   2.035   5.030   5.080
  189SAPI  H20R21772   1.978   5.067   4.992
  189SAPI  H20S21773   1.988   5.059   5.176
  189SAPI  H20T21774   2.051   4.920   5.075
  189SAPI   C3321775   2.322   5.120   6.344
  189SAPI   H3X21776   2.253   5.039   6.376
  189SAPI   H3Y21777   2.408   5.072   6.293
  189SAPI   C3421778   2.251   5.207   6.236
  189SAPI   H4X21779   2.160   5.246   6.286
  189SAPI   H4Y21780   2.230   5.145   6.147
  189SAPI   C3521781   2.331   5.329   6.185
  189SAPI   H5X21782   2.431   5.289   6.159
  189SAPI   H5Y21783   2.340   5.397   6.273
  189SAPI   C3621784   2.269   5.398   6.064
  189SAPI   H6X21785   2.181   5.455   6.100
  189SAPI   H6Y21786   2.249   5.314   5.993
  189SAPI   C3721787   2.375   5.478   6.007
  189SAPI   H7X21788   2.453   5.411   5.966
  189SAPI   H7Y21789   2.416   5.549   6.082
  189SAPI   C3821790   2.329   5.567   5.887
  189SAPI   H8X21791   2.265   5.646   5.930
  189SAPI   H8Y21792   2.253   5.515   5.824
  189SAPI   C3921793   2.441   5.618   5.799
  189SAPI   H9X21794   2.510   5.537   5.767
  189SAPI   H9Y21795   2.497   5.699   5.849
  189SAPI  C31021796   2.400   5.675   5.665
  189SAPI  H10X21797   2.304   5.732   5.665
  189SAPI  H10Y21798   2.369   5.584   5.609
  189SAPI  C31121799   2.506   5.754   5.593
  189SAPI  H11X21800   2.604   5.708   5.616
  189SAPI  H11Y21801   2.506   5.861   5.623
  189SAPI  C31221802   2.481   5.750   5.444
  189SAPI  H12X21803   2.375   5.782   5.428
  189SAPI  H12Y21804   2.494   5.651   5.395
  189SAPI  C31321805   2.570   5.845   5.367
  189SAPI  H13X21806   2.678   5.819   5.374
  189SAPI  H13Y21807   2.555   5.953   5.391
  189SAPI  C31421808   2.548   5.826   5.216
  189SAPI  H14X21809   2.439   5.833   5.194
  189SAPI  H14Y21810   2.592   5.731   5.179
  189SAPI  C31521811   2.620   5.932   5.137
  189SAPI  H15X21812   2.730   5.915   5.143
  189SAPI  H15Y21813   2.592   6.032   5.175
  189SAPI  C31621814   2.585   5.928   4.988
  189SAPI  H16X21815   2.475   5.926   4.972
  189SAPI  H16Y21816   2.620   5.833   4.943
  189SAPI  C31721817   2.650   6.038   4.905
  189SAPI  H17X21818   2.759   6.041   4.926
  189SAPI  H17Y21819   2.595   6.134   4.919
  189SAPI  C31821820   2.633   6.006   4.753
  189SAPI  H18X21821   2.652   6.094   4.688
  189SAPI  H18Y21822   2.531   5.967   4.730
  189SAPI  H18Z21823   2.709   5.931   4.722
  190SAPI   C1221824   1.093   3.011   6.744
  190SAPI    H221825   1.048   3.031   6.644
  190SAPI    O221826   1.146   2.882   6.739
  190SAPI   HO221827   1.210   2.885   6.667
  190SAPI   C1321828   1.204   3.104   6.767
  190SAPI    H321829   1.173   3.210   6.770
  190SAPI    O321830   1.297   3.097   6.655
  190SAPI   HO321831   1.386   3.121   6.682
  190SAPI   C1421832   1.279   3.067   6.901
  190SAPI    H421833   1.336   2.974   6.884
  190SAPI    O421834   1.386   3.156   6.927
  190SAPI   HO421835   1.465   3.136   6.876
  190SAPI   C1521836   1.194   3.035   7.025
  190SAPI    H521837   1.172   3.139   7.060
  190SAPI    O521838   1.268   2.966   7.129
  190SAPI   HO521839   1.338   3.022   7.163
  190SAPI   C1621840   1.060   2.983   6.999
  190SAPI    H621841   1.071   2.872   6.995
  190SAPI    O621842   0.967   3.002   7.108
  190SAPI   HO621843   0.937   3.093   7.105
  190SAPI   C1121844   0.998   3.021   6.863
  190SAPI    H121845   0.973   3.129   6.863
  190SAPI     P21846   0.736   3.007   6.784
  190SAPI   O1321847   0.724   3.151   6.823
  190SAPI   O1421848   0.616   2.926   6.826
  190SAPI   O1221849   0.881   2.939   6.840
  190SAPI   O1121850   0.752   3.007   6.624
  190SAPI    C121851   0.730   2.887   6.547
  190SAPI    HA21852   0.698   2.804   6.614
  190SAPI    HB21853   0.647   2.899   6.474
  190SAPI    C221854   0.853   2.840   6.470
  190SAPI    HS21855   0.931   2.804   6.540
  190SAPI   O2121856   0.902   2.962   6.411
  190SAPI   C2121857   1.030   2.964   6.372
  190SAPI   O2221858   1.117   2.883   6.404
  190SAPI   C2221859   1.059   3.104   6.311
  190SAPI   H2R21860   1.040   3.176   6.393
  190SAPI   H2S21861   1.167   3.117   6.291
  190SAPI    C321862   0.818   2.734   6.359
  190SAPI    HX21863   0.735   2.790   6.310
  190SAPI    HY21864   0.776   2.637   6.393
  190SAPI   O3121865   0.916   2.721   6.257
  190SAPI   C3121866   0.874   2.644   6.166
  190SAPI   O3221867   0.766   2.588   6.153
  190SAPI   C3221868   0.988   2.613   6.064
  190SAPI   H2X21869   0.985   2.502   6.075
  190SAPI   H2Y21870   1.078   2.659   6.109
  190SAPI   C2321871   0.960   3.124   6.189
  190SAPI   H3R21872   0.913   3.224   6.194
  190SAPI   H3S21873   0.881   3.046   6.187
  190SAPI   C2421874   1.021   3.117   6.050
  190SAPI   H4R21875   1.081   3.209   6.029
  190SAPI   H4S21876   0.932   3.124   5.984
  190SAPI   C2521877   1.103   2.988   6.022
  190SAPI   H5R21878   1.158   2.946   6.107
  190SAPI   C2621879   1.138   2.947   5.903
  190SAPI   H6R21880   1.206   2.861   5.896
  190SAPI   C2721881   1.100   3.006   5.771
  190SAPI   H7R21882   1.031   3.091   5.791
  190SAPI   H7S21883   1.037   2.935   5.713
  190SAPI   C2821884   1.220   3.057   5.693
  190SAPI   H8R21885   1.241   3.165   5.697
  190SAPI   C2921886   1.296   2.995   5.604
  190SAPI   H9R21887   1.391   3.040   5.572
  190SAPI  C21021888   1.272   2.848   5.574
  190SAPI  H10R21889   1.191   2.837   5.498
  190SAPI  H10S21890   1.226   2.813   5.668
  190SAPI  C21121891   1.392   2.771   5.539
  190SAPI  H11R21892   1.424   2.714   5.628
  190SAPI  C21221893   1.444   2.745   5.416
  190SAPI  H12R21894   1.533   2.680   5.410
  190SAPI  C21321895   1.387   2.791   5.288
  190SAPI  H13R21896   1.458   2.849   5.225
  190SAPI  H13S21897   1.311   2.872   5.303
  190SAPI  C21421898   1.318   2.682   5.204
  190SAPI  H14R21899   1.242   2.616   5.248
  190SAPI  C21521900   1.332   2.674   5.071
  190SAPI  H15R21901   1.293   2.590   5.012
  190SAPI  C21621902   1.410   2.759   4.974
  190SAPI  H16R21903   1.479   2.686   4.927
  190SAPI  H16S21904   1.463   2.837   5.033
  190SAPI  C21721905   1.316   2.825   4.877
  190SAPI  H17R21906   1.255   2.885   4.949
  190SAPI  H17S21907   1.252   2.742   4.839
  190SAPI  C21821908   1.388   2.903   4.765
  190SAPI  H18R21909   1.439   2.989   4.813
  190SAPI  H18S21910   1.308   2.942   4.699
  190SAPI  C21921911   1.490   2.816   4.687
  190SAPI  H19R21912   1.567   2.758   4.742
  190SAPI  H19S21913   1.550   2.884   4.623
  190SAPI  C22021914   1.424   2.714   4.597
  190SAPI  H20R21915   1.381   2.770   4.510
  190SAPI  H20S21916   1.350   2.656   4.655
  190SAPI  H20T21917   1.503   2.652   4.549
  190SAPI   C3321918   0.934   2.647   5.927
  190SAPI   H3X21919   0.935   2.758   5.922
  190SAPI   H3Y21920   0.827   2.619   5.919
  190SAPI   C3421921   1.016   2.593   5.806
  190SAPI   H4X21922   1.124   2.615   5.820
  190SAPI   H4Y21923   0.989   2.642   5.710
  190SAPI   C3521924   1.005   2.441   5.786
  190SAPI   H5X21925   0.897   2.418   5.790
  190SAPI   H5Y21926   1.060   2.396   5.871
  190SAPI   C3621927   1.038   2.400   5.641
  190SAPI   H6X21928   1.133   2.448   5.610
  190SAPI   H6Y21929   0.958   2.429   5.569
  190SAPI   C3721930   1.049   2.254   5.628
  190SAPI   H7X21931   0.952   2.203   5.646
  190SAPI   H7Y21932   1.120   2.206   5.699
  190SAPI   C3821933   1.089   2.202   5.492
  190SAPI   H8X21934   1.094   2.091   5.497
  190SAPI   H8Y21935   1.187   2.235   5.451
  190SAPI   C3921936   0.987   2.231   5.380
  190SAPI   H9X21937   0.990   2.340   5.360
  190SAPI   H9Y21938   0.885   2.211   5.420
  190SAPI  C31021939   1.022   2.143   5.254
  190SAPI  H10X21940   1.021   2.036   5.284
  190SAPI  H10Y21941   1.125   2.173   5.226
  190SAPI  C31121942   0.919   2.173   5.139
  190SAPI  H11X21943   0.921   2.282   5.114
  190SAPI  H11Y21944   0.818   2.157   5.182
  190SAPI  C31221945   0.935   2.108   5.003
  190SAPI  H12X21946   1.021   2.143   4.942
  190SAPI  H12Y21947   0.851   2.136   4.935
  190SAPI  C31321948   0.949   1.953   5.005
  190SAPI  H13X21949   0.886   1.903   5.082
  190SAPI  H13Y21950   1.048   1.928   5.050
  190SAPI  C31421951   0.928   1.875   4.881
  190SAPI  H14X21952   0.821   1.884   4.854
  190SAPI  H14Y21953   0.932   1.766   4.905
  190SAPI  C31521954   1.015   1.922   4.763
  190SAPI  H15X21955   1.119   1.906   4.799
  190SAPI  H15Y21956   1.010   2.031   4.743
  190SAPI  C31621957   0.985   1.844   4.637
  190SAPI  H16X21958   0.944   1.743   4.657
  190SAPI  H16Y21959   1.077   1.823   4.579
  190SAPI  C31721960   0.891   1.905   4.530
  190SAPI  H17X21961   0.787   1.909   4.569
  190SAPI  H17Y21962   0.899   1.837   4.443
  190SAPI  C31821963   0.949   2.036   4.482
  190SAPI  H18X21964   0.917   2.115   4.554
  190SAPI  H18Y21965   0.903   2.054   4.383
  190SAPI  H18Z21966   1.054   2.030   4.447
  191SAPI   C1221967   5.095   4.246   2.295
  191SAPI    H221968   5.101   4.185   2.387
  191SAPI    O221969   5.142   4.380   2.328
  191SAPI   HO221970   5.087   4.426   2.392
  191SAPI   C1321971   5.169   4.198   2.180
  191SAPI    H321972   5.117   4.105   2.148
  191SAPI    O321973   5.301   4.163   2.218
  191SAPI   HO321974   5.347   4.240   2.252
  191SAPI   C1421975   5.172   4.289   2.058
  191SAPI    H421976   5.248   4.370   2.063
  191SAPI    O421977   5.205   4.209   1.947
  191SAPI   HO421978   5.301   4.207   1.941
  191SAPI   C1521979   5.046   4.357   2.032
  191SAPI    H521980   4.995   4.304   1.948
  191SAPI    O521981   5.053   4.487   1.976
  191SAPI   HO521982   5.017   4.552   2.036
  191SAPI   C1621983   4.926   4.347   2.133
  191SAPI    H621984   4.929   4.448   2.177
  191SAPI    O621985   4.799   4.341   2.081
  191SAPI   HO621986   4.735   4.301   2.141
  191SAPI   C1121987   4.944   4.261   2.257
  191SAPI    H121988   4.910   4.160   2.224
  191SAPI     P21989   4.765   4.196   2.455
  191SAPI   O1321990   4.672   4.132   2.357
  191SAPI   O1421991   4.701   4.279   2.556
  191SAPI   O1221992   4.869   4.294   2.370
  191SAPI   O1121993   4.863   4.090   2.519
  191SAPI    C121994   4.926   4.112   2.645
  191SAPI    HA21995   4.985   4.206   2.645
  191SAPI    HB21996   4.850   4.117   2.725
  191SAPI    C221997   5.019   3.995   2.685
  191SAPI    HS21998   5.063   3.967   2.587
  191SAPI   O2121999   4.947   3.894   2.744
  191SAPI   C2122000   4.877   3.809   2.665
  191SAPI   O2222001   4.888   3.798   2.546
  191SAPI   C2222002   4.763   3.735   2.743
  191SAPI   H2R22003   4.746   3.635   2.697
  191SAPI   H2S22004   4.803   3.714   2.844
  191SAPI    C322005   5.132   4.045   2.779
  191SAPI    HX22006   5.164   4.143   2.736
  191SAPI    HY22007   5.219   3.978   2.770
  191SAPI   O3122008   5.078   4.061   2.910
  191SAPI   C3122009   5.097   3.954   2.995
  191SAPI   O3222010   5.144   3.848   2.954
  191SAPI   C3222011   5.033   3.983   3.126
  191SAPI   H2X22012   4.922   3.982   3.119
  191SAPI   H2Y22013   5.062   4.087   3.151
  191SAPI   C2322014   4.634   3.824   2.760
  191SAPI   H3R22015   4.593   3.860   2.663
  191SAPI   H3S22016   4.673   3.909   2.820
  191SAPI   C2422017   4.524   3.752   2.837
  191SAPI   H4R22018   4.554   3.645   2.837
  191SAPI   H4S22019   4.435   3.767   2.772
  191SAPI   C2522020   4.506   3.794   2.980
  191SAPI   H5R22021   4.460   3.893   2.991
  191SAPI   C2622022   4.561   3.720   3.085
  191SAPI   H6R22023   4.543   3.754   3.188
  191SAPI   C2722024   4.650   3.601   3.088
  191SAPI   H7R22025   4.670   3.564   2.985
  191SAPI   H7S22026   4.606   3.511   3.138
  191SAPI   C2822027   4.782   3.649   3.139
  191SAPI   H8R22028   4.866   3.672   3.071
  191SAPI   C2922029   4.812   3.653   3.267
  191SAPI   H9R22030   4.911   3.688   3.298
  191SAPI  C21022031   4.718   3.621   3.386
  191SAPI  H10R22032   4.720   3.514   3.414
  191SAPI  H10S22033   4.614   3.638   3.351
  191SAPI  C21122034   4.757   3.697   3.503
  191SAPI  H11R22035   4.700   3.791   3.509
  191SAPI  C21222036   4.858   3.668   3.588
  191SAPI  H12R22037   4.858   3.740   3.671
  191SAPI  C21322038   4.942   3.543   3.598
  191SAPI  H13R22039   4.932   3.493   3.499
  191SAPI  H13S22040   4.903   3.463   3.664
  191SAPI  C21422041   5.078   3.588   3.639
  191SAPI  H14R22042   5.147   3.611   3.556
  191SAPI  C21522043   5.123   3.591   3.767
  191SAPI  H15R22044   5.220   3.640   3.781
  191SAPI  C21622045   5.037   3.563   3.893
  191SAPI  H16R22046   5.063   3.464   3.936
  191SAPI  H16S22047   4.929   3.564   3.868
  191SAPI  C21722048   5.053   3.672   3.994
  191SAPI  H17R22049   5.013   3.636   4.092
  191SAPI  H17S22050   4.997   3.762   3.961
  191SAPI  C21822051   5.198   3.724   4.005
  191SAPI  H18R22052   5.213   3.794   3.920
  191SAPI  H18S22053   5.278   3.649   3.990
  191SAPI  C21922054   5.215   3.804   4.138
  191SAPI  H19R22055   5.182   3.747   4.228
  191SAPI  H19S22056   5.138   3.884   4.146
  191SAPI  C22022057   5.362   3.847   4.151
  191SAPI  H20R22058   5.407   3.871   4.052
  191SAPI  H20S22059   5.422   3.770   4.204
  191SAPI  H20T22060   5.379   3.944   4.203
  191SAPI   C3322061   5.074   3.894   3.250
  191SAPI   H3X22062   5.182   3.914   3.267
  191SAPI   H3Y22063   5.053   3.795   3.206
  191SAPI   C3422064   4.990   3.916   3.376
  191SAPI   H4X22065   5.000   3.830   3.446
  191SAPI   H4Y22066   4.888   3.923   3.333
  191SAPI   C3522067   5.025   4.058   3.437
  191SAPI   H5X22068   5.012   4.141   3.364
  191SAPI   H5Y22069   5.134   4.047   3.457
  191SAPI   C3622070   4.947   4.082   3.567
  191SAPI   H6X22071   4.839   4.063   3.546
  191SAPI   H6Y22072   4.944   4.192   3.585
  191SAPI   C3722073   4.991   4.007   3.691
  191SAPI   H7X22074   5.095   4.044   3.701
  191SAPI   H7Y22075   4.992   3.897   3.679
  191SAPI   C3822076   4.920   4.048   3.821
  191SAPI   H8X22077   4.935   4.158   3.830
  191SAPI   H8Y22078   4.980   3.998   3.901
  191SAPI   C3922079   4.778   4.000   3.846
  191SAPI   H9X22080   4.771   3.895   3.810
  191SAPI   H9Y22081   4.717   4.069   3.784
  191SAPI  C31022082   4.727   4.004   3.989
  191SAPI  H10X22083   4.644   3.931   4.005
  191SAPI  H10Y22084   4.682   4.104   4.005
  191SAPI  C31122085   4.819   3.969   4.110
  191SAPI  H11X22086   4.905   4.040   4.119
  191SAPI  H11Y22087   4.854   3.865   4.095
  191SAPI  C31222088   4.763   3.978   4.247
  191SAPI  H12X22089   4.684   3.901   4.257
  191SAPI  H12Y22090   4.721   4.080   4.259
  191SAPI  C31322091   4.858   3.947   4.366
  191SAPI  H13X22092   4.960   3.986   4.344
  191SAPI  H13Y22093   4.865   3.836   4.374
  191SAPI  C31422094   4.817   4.008   4.498
  191SAPI  H14X22095   4.727   3.959   4.540
  191SAPI  H14Y22096   4.783   4.113   4.484
  191SAPI  C31522097   4.927   4.004   4.603
  191SAPI  H15X22098   5.010   4.071   4.570
  191SAPI  H15Y22099   4.962   3.899   4.610
  191SAPI  C31622100   4.878   4.047   4.739
  191SAPI  H16X22101   4.829   4.146   4.739
  191SAPI  H16Y22102   4.970   4.064   4.798
  191SAPI  C31722103   4.794   3.938   4.812
  191SAPI  H17X22104   4.854   3.846   4.800
  191SAPI  H17Y22105   4.696   3.936   4.761
  191SAPI  C31822106   4.763   3.975   4.956
  191SAPI  H18X22107   4.855   4.011   5.008
  191SAPI  H18Y22108   4.713   3.895   5.015
  191SAPI  H18Z22109   4.697   4.063   4.973
  192SAPI   C1222110   0.638   6.449   1.449
  192SAPI    H222111   0.660   6.351   1.497
  192SAPI    O222112   0.726   6.458   1.339
  192SAPI   HO222113   0.755   6.370   1.315
  192SAPI   C1322114   0.503   6.447   1.390
  192SAPI    H322115   0.435   6.421   1.474
  192SAPI    O322116   0.484   6.347   1.287
  192SAPI   HO322117   0.559   6.353   1.227
  192SAPI   C1422118   0.450   6.582   1.348
  192SAPI    H422119   0.505   6.605   1.254
  192SAPI    O422120   0.306   6.580   1.318
  192SAPI   HO422121   0.266   6.517   1.378
  192SAPI   C1522122   0.487   6.698   1.442
  192SAPI    H522123   0.411   6.696   1.523
  192SAPI    O522124   0.467   0.029   1.378
  192SAPI   HO522125   0.461   0.099   1.443
  192SAPI   C1622126   0.622   6.694   1.500
  192SAPI    H622127   0.681   6.713   1.407
  192SAPI    O622128   0.639   6.799   1.588
  192SAPI   HO622129   0.622   6.765   1.676
  192SAPI   C1122130   0.661   6.563   1.558
  192SAPI    H122131   0.592   6.549   1.644
  192SAPI     P22132   0.866   6.462   1.713
  192SAPI   O1322133   1.005   6.508   1.756
  192SAPI   O1422134   0.852   6.324   1.650
  192SAPI   O1222135   0.798   6.566   1.604
  192SAPI   O1122136   0.762   6.468   1.838
  192SAPI    C122137   0.756   6.349   1.916
  192SAPI    HA22138   0.724   6.261   1.856
  192SAPI    HB22139   0.854   6.339   1.969
  192SAPI    C222140   0.642   6.352   2.034
  192SAPI    HS22141   0.556   6.334   1.966
  192SAPI   O2122142   0.631   6.483   2.091
  192SAPI   C2122143   0.521   6.503   2.159
  192SAPI   O2222144   0.425   6.430   2.179
  192SAPI   C2222145   0.539   6.636   2.245
  192SAPI   H2R22146   0.554   6.717   2.170
  192SAPI   H2S22147   0.447   6.653   2.305
  192SAPI    C322148   0.669   6.242   2.143
  192SAPI    HX22149   0.664   6.145   2.089
  192SAPI    HY22150   0.597   6.245   2.228
  192SAPI   O3122151   0.801   6.265   2.191
  192SAPI   C3122152   0.836   6.224   2.312
  192SAPI   O3222153   0.755   6.169   2.391
  192SAPI   C3222154   0.970   6.266   2.347
  192SAPI   H2X22155   0.966   6.375   2.369
  192SAPI   H2Y22156   1.033   6.250   2.257
  192SAPI   C2322157   0.651   6.641   2.350
  192SAPI   H3R22158   0.659   6.742   2.394
  192SAPI   H3S22159   0.744   6.626   2.291
  192SAPI   C2422160   0.630   6.535   2.458
  192SAPI   H4R22161   0.608   6.431   2.427
  192SAPI   H4S22162   0.541   6.552   2.521
  192SAPI   C2522163   0.751   6.549   2.552
  192SAPI   H5R22164   0.839   6.594   2.505
  192SAPI   C2622165   0.758   6.494   2.675
  192SAPI   H6R22166   0.855   6.516   2.721
  192SAPI   C2722167   0.652   6.425   2.755
  192SAPI   H7R22168   0.567   6.494   2.776
  192SAPI   H7S22169   0.701   6.399   2.852
  192SAPI   C2822170   0.594   6.301   2.694
  192SAPI   H8R22171   0.661   6.258   2.618
  192SAPI   C2922172   0.481   6.231   2.722
  192SAPI   H9R22173   0.473   6.132   2.675
  192SAPI  C21022174   0.385   6.268   2.836
  192SAPI  H10R22175   0.432   6.293   2.934
  192SAPI  H10S22176   0.342   6.168   2.858
  192SAPI  C21122177   0.275   6.365   2.801
  192SAPI  H11R22178   0.246   6.366   2.695
  192SAPI  C21222179   0.221   6.451   2.893
  192SAPI  H12R22180   0.160   6.539   2.867
  192SAPI  C21322181   0.247   6.455   3.044
  192SAPI  H13R22182   0.272   6.359   3.093
  192SAPI  H13S22183   0.156   6.488   3.100
  192SAPI  C21422184   0.347   6.562   3.067
  192SAPI  H14R22185   0.393   6.616   2.982
  192SAPI  C21522186   0.394   6.605   3.186
  192SAPI  H15R22187   0.477   6.677   3.193
  192SAPI  C21622188   0.351   6.540   3.313
  192SAPI  H16R22189   0.332   6.431   3.296
  192SAPI  H16S22190   0.263   6.592   3.356
  192SAPI  C21722191   0.455   6.571   3.428
  192SAPI  H17R22192   0.498   6.672   3.447
  192SAPI  H17S22193   0.543   6.507   3.406
  192SAPI  C21822194   0.411   6.522   3.568
  192SAPI  H18R22195   0.403   6.412   3.572
  192SAPI  H18S22196   0.315   6.573   3.591
  192SAPI  C21922197   0.516   6.559   3.672
  192SAPI  H19R22198   0.538   6.668   3.675
  192SAPI  H19S22199   0.615   6.511   3.653
  192SAPI  C22022200   0.483   6.512   3.814
  192SAPI  H20R22201   0.396   6.575   3.843
  192SAPI  H20S22202   0.562   6.538   3.887
  192SAPI  H20T22203   0.444   6.408   3.827
  192SAPI   C3322204   1.052   6.187   2.451
  192SAPI   H3X22205   1.077   6.091   2.400
  192SAPI   H3Y22206   0.988   6.175   2.540
  192SAPI   C3422207   1.187   6.255   2.484
  192SAPI   H4X22208   1.245   6.265   2.390
  192SAPI   H4Y22209   1.238   6.176   2.544
  192SAPI   C3522210   1.169   6.377   2.577
  192SAPI   H5X22211   1.110   6.452   2.520
  192SAPI   H5Y22212   1.275   6.408   2.588
  192SAPI   C3622213   1.119   6.361   2.720
  192SAPI   H6X22214   1.179   6.287   2.777
  192SAPI   H6Y22215   1.019   6.314   2.707
  192SAPI   C3722216   1.115   6.481   2.812
  192SAPI   H7X22217   1.048   6.561   2.774
  192SAPI   H7Y22218   1.216   6.527   2.820
  192SAPI   C3822219   1.040   6.447   2.933
  192SAPI   H8X22220   1.097   6.362   2.976
  192SAPI   H8Y22221   0.947   6.393   2.904
  192SAPI   C3922222   1.001   6.564   3.023
  192SAPI   H9X22223   0.916   6.620   2.978
  192SAPI   H9Y22224   1.093   6.620   3.051
  192SAPI  C31022225   0.938   6.506   3.151
  192SAPI  H10X22226   1.009   6.436   3.200
  192SAPI  H10Y22227   0.845   6.450   3.128
  192SAPI  C31122228   0.896   6.606   3.266
  192SAPI  H11X22229   0.794   6.635   3.233
  192SAPI  H11Y22230   0.966   6.692   3.267
  192SAPI  C31222231   0.877   6.549   3.404
  192SAPI  H12X22232   0.975   6.506   3.434
  192SAPI  H12Y22233   0.790   6.480   3.409
  192SAPI  C31322234   0.842   6.646   3.516
  192SAPI  H13X22235   0.731   6.653   3.510
  192SAPI  H13Y22236   0.903   6.736   3.491
  192SAPI  C31422237   0.886   6.594   3.659
  192SAPI  H14X22238   0.995   6.573   3.661
  192SAPI  H14Y22239   0.844   6.492   3.669
  192SAPI  C31522240   0.854   6.676   3.785
  192SAPI  H15X22241   0.884   6.612   3.870
  192SAPI  H15Y22242   0.746   6.699   3.801
  192SAPI  C31622243   0.939   0.002   3.789
  192SAPI  H16X22244   0.919   0.051   3.691
  192SAPI  H16Y22245   1.048   6.783   3.793
  192SAPI  C31722246   0.898   0.107   3.891
  192SAPI  H17X22247   0.798   0.141   3.857
  192SAPI  H17Y22248   0.969   0.193   3.895
  192SAPI  C31822249   0.884   0.064   4.039
  192SAPI  H18X22250   0.842   0.151   4.093
  192SAPI  H18Y22251   0.982   0.039   4.085
  192SAPI  H18Z22252   0.821   6.772   4.042
  193SOD    SOD22253   2.330   5.775   1.107
  194SOD    SOD22254   2.128   3.555   1.512
  195SOD    SOD22255   5.317   5.365   8.734
  196SOD    SOD22256   3.946   4.337   8.801
  197SOD    SOD22257   3.746   0.344   6.374
  198SOD    SOD22258   2.001   1.450   8.545
  199SOD    SOD22259   0.683   4.716   0.288
  200SOD    SOD22260   4.666   3.613   0.454
  201SOD    SOD22261   6.627   5.458   2.006
  202SOD    SOD22262   6.581   3.178   1.501
  203SOD    SOD22263   3.488   2.344   1.710
  204SOD    SOD22264   0.033   6.650   0.817
  205SOD    SOD22265   6.516   6.397   2.172
  206SOD    SOD22266   5.090   1.118   1.313
  207SOD    SOD22267   0.583   2.711   8.674
  208SOD    SOD22268   3.615   0.759   6.877
  209SOD    SOD22269   4.302   0.718   0.104
  210SOD    SOD22270   6.436   5.447   7.571
  211SOD    SOD22271   4.921   2.485   0.117
  212SOD    SOD22272   2.232   2.764   8.013
  213SOD    SOD22273   0.614   3.423   1.170
  214SOD    SOD22274   1.115   6.154   7.028
  215SOD    SOD22275   6.278   3.344   6.865
  216SOD    SOD22276   1.734   4.198   6.885
  217SOD    SOD22277   3.689   0.200   8.124
  218SOD    SOD22278   5.532   3.571   8.760
  219SOD    SOD22279   4.031   3.700   6.902
  220SOD    SOD22280   3.969   4.106   7.028
  221SOD    SOD22281   5.795   1.451   6.924
  222SOD    SOD22282   0.613   5.589   0.838
  223SOD    SOD22283   5.106   5.085   2.470
  224SOD    SOD22284   5.195   4.323   7.186
  225SOD    SOD22285   6.183   6.187   6.667
  226SOD    SOD22286   5.104   3.372   1.769
  227SOD    SOD22287   6.022   1.226   7.699
  228SOD    SOD22288   5.112   5.271   1.291
  229SOD    SOD22289   4.423   0.661   6.806
  230SOD    SOD22290   4.771   5.900   1.864
  231SOD    SOD22291   6.765   3.003   6.812
  232SOD    SOD22292   2.570   6.229   8.816
  233SOD    SOD22293   2.947   1.486   2.337
  234CLA    CLA22294   0.538   5.166   0.653
  235CLA    CLA22295   0.055   4.069   8.164
  236CLA    CLA22296   4.638   0.510   8.668
  237CLA    CLA22297   5.124   4.065   8.156
  238CLA    CLA22298   5.637   0.726   8.262
  239CLA    CLA22299   0.493   6.433   7.778
  240CLA    CLA22300   4.948   4.466   7.533
  241CLA    CLA22301   4.494   4.106   0.246
  242CLA    CLA22302   3.568   1.130   0.126
  243CLA    CLA22303   2.494   3.075   0.753
  244CLA    CLA22304   6.033   6.485   1.763
  245CLA    CLA22305   3.594   0.417   0.218
  246CLA    CLA22306   0.763   3.018   1.121
  247CLA    CLA22307   3.838   1.581   7.950
  248CLA    CLA22308   6.649   6.514   0.446
  249CLA    CLA22309   1.673   1.369   0.053
  250CLA    CLA22310   0.217   3.275   0.675
  251TIP3   OH222311   3.474   3.381   1.808
  251TIP3    H122312   3.500   3.467   1.773
  251TIP3    H222313   3.419   3.402   1.883
  252TIP3   OH222314   4.139   1.260   1.156
  252TIP3    H122315   4.217   1.246   1.102
  252TIP3    H222316   4.169   1.245   1.246
  253TIP3   OH222317   4.127   6.779   8.159
  253TIP3    H122318   4.178   0.059   8.150
  253TIP3    H222319   4.193   6.709   8.158
  254TIP3   OH222320   4.180   6.318   8.260
  254TIP3    H122321   4.108   6.259   8.240
  254TIP3    H222322   4.195   6.308   8.354
  255TIP3   OH222323   1.611   6.304   8.267
  255TIP3    H122324   1.685   6.307   8.328
  255TIP3    H222325   1.652   6.288   8.182
  256TIP3   OH222326   3.257   4.234   2.116
  256TIP3    H122327   3.240   4.326   2.139
  256TIP3    H222328   3.345   4.217   2.150
  257TIP3   OH222329   0.874   2.848   8.019
  257TIP3    H122330   0.866   2.795   7.939
  257TIP3    H222331   0.967   2.843   8.041
  258TIP3   OH222332   3.104   2.660   8.567
  258TIP3    H122333   3.198   2.644   8.572
  258TIP3    H222334   3.066   2.604   8.635
  259TIP3   OH222335   0.280   2.373   2.279
  259TIP3    H122336   0.272   2.376   2.374
  259TIP3    H222337   0.373   2.388   2.262
  260TIP3   OH222338   3.580   5.544   7.125
  260TIP3    H122339   3.567   5.489   7.202
  260TIP3    H222340   3.600   5.482   7.055
  261TIP3   OH222341   3.870   0.287   0.695
  261TIP3    H122342   3.852   0.355   0.629
  261TIP3    H222343   3.938   0.233   0.656
  262TIP3   OH222344   1.719   4.788   0.136
  262TIP3    H122345   1.711   4.693   0.137
  262TIP3    H222346   1.773   4.809   0.212
  263TIP3   OH222347   6.388   2.996   0.632
  263TIP3    H122348   6.471   2.972   0.673
  263TIP3    H222349   6.344   2.913   0.615
  264TIP3   OH222350   6.173   3.560   8.090
  264TIP3    H122351   6.137   3.644   8.061
  264TIP3    H222352   6.160   3.501   8.015
  265TIP3   OH222353   2.707   3.476   2.020
  265TIP3    H122354   2.756   3.443   2.095
  265TIP3    H222355   2.695   3.400   1.963
  266TIP3   OH222356   0.639   4.926   0.216
  266TIP3    H122357   0.715   4.984   0.221
  266TIP3    H222358   0.601   4.942   0.130
  267TIP3   OH222359   3.220   6.367   0.591
  267TIP3    H122360   3.189   6.355   0.502
  267TIP3    H222361   3.316   6.371   0.583
  268TIP3   OH222362   0.917   3.495   1.424
  268TIP3    H122363   0.972   3.475   1.349
  268TIP3    H222364   0.978   3.505   1.497
  269TIP3   OH222365   5.126   5.797   0.402
  269TIP3    H122366   5.187   5.829   0.468
  269TIP3    H222367   5.114   5.871   0.343
  270TIP3   OH222368   2.648   1.520   8.046
  270TIP3    H122369   2.701   1.492   7.972
  270TIP3    H222370   2.707   1.571   8.101
  271TIP3   OH222371   0.063   6.748   8.059
  271TIP3    H122372   6.781   6.713   8.027
  271TIP3    H222373   0.123   6.673   8.059
  272TIP3   OH222374   2.743   0.092   7.229
  272TIP3    H122375   2.700   0.068   7.147
  272TIP3    H222376   2.830   0.122   7.202
  273TIP3   OH222377   0.813   1.478   0.808
  273TIP3    H122378   0.862   1.397   0.819
  273TIP3    H222379   0.727   1.450   0.776
  274TIP3   OH222380   0.492   3.325   8.467
  274TIP3    H122381   0.483   3.360   8.555
  274TIP3    H222382   0.416   3.360   8.419
  275TIP3   OH222383   5.963   1.924   1.775
  275TIP3    H122384   6.046   1.909   1.820
  275TIP3    H222385   5.897   1.881   1.831
  276TIP3   OH222386   3.038   2.195   1.466
  276TIP3    H122387   3.007   2.175   1.554
  276TIP3    H222388   3.056   2.110   1.427
  277TIP3   OH222389   1.684   0.891   1.067
  277TIP3    H122390   1.762   0.895   1.013
  277TIP3    H222391   1.716   0.880   1.156
  278TIP3   OH222392   5.380   3.008   1.779
  278TIP3    H122393   5.364   2.994   1.873
  278TIP3    H222394   5.341   3.094   1.761
  279TIP3   OH222395   3.135   3.765   7.172
  279TIP3    H122396   3.095   3.695   7.120
  279TIP3    H222397   3.176   3.720   7.246
  280TIP3   OH222398   1.586   1.069   6.666
  280TIP3    H122399   1.549   1.134   6.725
  280TIP3    H222400   1.612   0.996   6.723
  281TIP3   OH222401   1.832   2.565   1.028
  281TIP3    H122402   1.840   2.486   0.974
  281TIP3    H222403   1.913   2.567   1.079
  282TIP3   OH222404   3.882   2.796   8.305
  282TIP3    H122405   3.829   2.731   8.259
  282TIP3    H222406   3.885   2.764   8.396
  283TIP3   OH222407   3.638   2.735   0.567
  283TIP3    H122408   3.679   2.649   0.558
  283TIP3    H222409   3.649   2.757   0.659
  284TIP3   OH222410   1.739   0.193   7.586
  284TIP3    H122411   1.833   0.193   7.570
  284TIP3    H222412   1.714   0.286   7.580
  285TIP3   OH222413   6.075   4.051   8.045
  285TIP3    H122414   6.080   3.956   8.032
  285TIP3    H222415   6.039   4.084   7.963
  286TIP3   OH222416   6.574   1.277   7.717
  286TIP3    H122417   6.545   1.328   7.792
  286TIP3    H222418   6.508   1.292   7.650
  287TIP3   OH222419   1.825   3.025   1.470
  287TIP3    H122420   1.900   2.983   1.429
  287TIP3    H222421   1.801   2.967   1.542
  288TIP3   OH222422   4.309   2.681   0.327
  288TIP3    H122423   4.247   2.683   0.253
  288TIP3    H222424   4.363   2.759   0.314
  289TIP3   OH222425   5.347   1.574   0.627
  289TIP3    H122426   5.413   1.511   0.596
  289TIP3    H222427   5.397   1.640   0.675
  290TIP3   OH222428   5.664   2.356   1.767
  290TIP3    H122429   5.673   2.442   1.725
  290TIP3    H222430   5.742   2.308   1.740
  291TIP3   OH222431   3.060   2.415   8.122
  291TIP3    H122432   2.989   2.356   8.147
  291TIP3    H222433   3.076   2.468   8.200
  292TIP3   OH222434   5.042   1.084   8.286
  292TIP3    H122435   5.090   1.166   8.279
  292TIP3    H222436   5.061   1.038   8.205
  293TIP3   OH222437   2.626   0.102   2.241
  293TIP3    H122438   2.570   0.042   2.193
  293TIP3    H222439   2.565   0.159   2.288
  294TIP3   OH222440   5.375   0.459   0.057
  294TIP3    H122441   5.459   0.419   0.035
  294TIP3    H222442   5.321   0.443   8.840
  295TIP3   OH222443   0.749   0.797   7.194
  295TIP3    H122444   0.791   0.868   7.146
  295TIP3    H222445   0.657   0.823   7.199
  296TIP3   OH222446   4.770   2.303   0.023
  296TIP3    H122447   4.723   2.224   0.052
  296TIP3    H222448   4.809   2.278   8.800
  297TIP3   OH222449   4.456   1.919   2.386
  297TIP3    H122450   4.505   1.844   2.420
  297TIP3    H222451   4.387   1.933   2.451
  298TIP3   OH222452   0.075   2.582   8.684
  298TIP3    H122453   0.100   2.525   8.757
  298TIP3    H222454   6.792   2.620   8.710
  299TIP3   OH222455   5.467   1.195   7.599
  299TIP3    H122456   5.497   1.109   7.627
  299TIP3    H222457   5.446   1.240   7.681
  300TIP3   OH222458   2.124   2.396   6.644
  300TIP3    H122459   2.073   2.358   6.572
  300TIP3    H222460   2.212   2.362   6.632
  301TIP3   OH222461   1.038   3.457   0.947
  301TIP3    H122462   1.053   3.521   0.877
  301TIP3    H222463   1.027   3.374   0.900
  302TIP3   OH222464   2.030   4.253   7.682
  302TIP3    H122465   2.078   4.230   7.762
  302TIP3    H222466   1.938   4.236   7.704
  303TIP3   OH222467   4.598   6.666   7.991
  303TIP3    H122468   4.525   6.605   7.983
  303TIP3    H222469   4.663   6.636   7.928
  304TIP3   OH222470   3.531   0.981   7.960
  304TIP3    H122471   3.569   0.937   7.884
  304TIP3    H222472   3.604   1.028   8.000
  305TIP3   OH222473   4.429   2.339   0.829
  305TIP3    H122474   4.355   2.287   0.859
  305TIP3    H222475   4.389   2.407   0.774
  306TIP3   OH222476   0.491   5.449   0.305
  306TIP3    H122477   0.514   5.535   0.340
  306TIP3    H222478   0.397   5.455   0.287
  307TIP3   OH222479   3.157   3.793   1.579
  307TIP3    H122480   3.206   3.713   1.595
  307TIP3    H222481   3.065   3.766   1.585
  308TIP3   OH222482   3.216   3.560   1.676
  308TIP3    H122483   3.246   3.503   1.606
  308TIP3    H222484   3.198   3.501   1.749
  309TIP3   OH222485   6.058   3.953   0.982
  309TIP3    H122486   6.027   3.973   1.070
  309TIP3    H222487   6.053   4.036   0.935
  310TIP3   OH222488   2.852   1.962   8.519
  310TIP3    H122489   2.925   1.960   8.457
  310TIP3    H222490   2.891   1.991   8.602
  311TIP3   OH222491   3.654   2.287   6.833
  311TIP3    H122492   3.748   2.279   6.815
  311TIP3    H222493   3.619   2.200   6.817
  312TIP3   OH222494   5.188   5.668   7.337
  312TIP3    H122495   5.186   5.747   7.392
  312TIP3    H222496   5.280   5.641   7.337
  313TIP3   OH222497   1.381   3.059   0.539
  313TIP3    H122498   1.368   2.987   0.477
  313TIP3    H222499   1.361   3.020   0.625
  314TIP3   OH222500   4.375   3.124   1.260
  314TIP3    H122501   4.409   3.109   1.349
  314TIP3    H222502   4.343   3.214   1.261
  315TIP3   OH222503   1.119   6.389   0.278
  315TIP3    H122504   1.159   6.303   0.264
  315TIP3    H222505   1.114   6.427   0.191
  316TIP3   OH222506   1.302   3.915   1.242
  316TIP3    H122507   1.292   3.826   1.209
  316TIP3    H222508   1.340   3.964   1.168
  317TIP3   OH222509   5.112   4.116   7.859
  317TIP3    H122510   5.145   4.109   7.948
  317TIP3    H222511   5.021   4.141   7.868
  318TIP3   OH222512   4.876   0.270   2.229
  318TIP3    H122513   4.894   0.232   2.315
  318TIP3    H222514   4.829   0.352   2.249
  319TIP3   OH222515   0.866   4.963   8.827
  319TIP3    H122516   0.939   4.993   0.020
  319TIP3    H222517   0.892   4.877   8.795
  320TIP3   OH222518   1.658   4.930   0.393
  320TIP3    H122519   1.728   4.945   0.457
  320TIP3    H222520   1.672   4.997   0.326
  321TIP3   OH222521   2.661   1.902   1.037
  321TIP3    H122522   2.591   1.937   1.093
  321TIP3    H222523   2.738   1.954   1.059
  322TIP3   OH222524   2.640   0.769   8.360
  322TIP3    H122525   2.618   0.755   8.452
  322TIP3    H222526   2.602   0.693   8.315
  323TIP3   OH222527   6.535   0.586   1.877
  323TIP3    H122528   6.509   0.527   1.947
  323TIP3    H222529   6.526   0.534   1.797
  324TIP3   OH222530   2.410   5.308   8.351
  324TIP3    H122531   2.479   5.372   8.337
  324TIP3    H222532   2.336   5.341   8.300
  325TIP3   OH222533   1.728   3.111   0.952
  325TIP3    H122534   1.656   3.111   0.889
  325TIP3    H222535   1.743   3.019   0.972
  326TIP3   OH222536   0.403   5.778   0.261
  326TIP3    H122537   0.385   5.865   0.296
  326TIP3    H222538   0.449   5.793   0.179
  327TIP3   OH222539   3.156   0.010   0.662
  327TIP3    H122540   3.205   0.035   0.741
  327TIP3    H222541   3.103   0.086   0.642
  328TIP3   OH222542   5.206   0.333   8.292
  328TIP3    H122543   5.277   0.269   8.294
  328TIP3    H222544   5.141   0.300   8.355
  329TIP3   OH222545   0.663   3.135   8.389
  329TIP3    H122546   0.593   3.192   8.421
  329TIP3    H222547   0.648   3.129   8.295
  330TIP3   OH222548   5.029   0.914   1.386
  330TIP3    H122549   4.952   0.861   1.407
  330TIP3    H222550   5.102   0.852   1.390
  331TIP3   OH222551   5.022   3.025   0.362
  331TIP3    H122552   5.077   2.949   0.376
  331TIP3    H222553   5.081   3.091   0.325
  332TIP3   OH222554   5.893   3.429   0.966
  332TIP3    H122555   5.881   3.387   0.881
  332TIP3    H222556   5.984   3.459   0.965
  333TIP3   OH222557   2.107   3.136   7.225
  333TIP3    H122558   2.069   3.223   7.241
  333TIP3    H222559   2.035   3.075   7.242
  334TIP3   OH222560   4.548   0.196   7.134
  334TIP3    H122561   4.499   0.202   7.052
  334TIP3    H222562   4.631   0.241   7.116
  335TIP3   OH222563   6.230   6.303   0.144
  335TIP3    H122564   6.255   6.380   0.195
  335TIP3    H222565   6.147   6.275   0.182
  336TIP3   OH222566   1.341   5.930   7.359
  336TIP3    H122567   1.354   5.957   7.268
  336TIP3    H222568   1.334   5.835   7.355
  337TIP3   OH222569   1.799   6.315   0.954
  337TIP3    H122570   1.733   6.383   0.968
  337TIP3    H222571   1.866   6.333   1.020
  338TIP3   OH222572   0.567   5.693   0.012
  338TIP3    H122573   0.612   5.765   0.059
  338TIP3    H222574   0.626   5.672   8.800
  339TIP3   OH222575   3.832   0.424   0.427
  339TIP3    H122576   3.757   0.423   0.367
  339TIP3    H222577   3.804   0.480   0.499
  340TIP3   OH222578   3.392   5.376   7.967
  340TIP3    H122579   3.418   5.330   8.047
  340TIP3    H222580   3.345   5.311   7.916
  341TIP3   OH222581   6.308   6.247   7.290
  341TIP3    H122582   6.222   6.289   7.294
  341TIP3    H222583   6.322   6.212   7.377
  342TIP3   OH222584   1.286   4.824   8.664
  342TIP3    H122585   1.255   4.880   8.593
  342TIP3    H222586   1.366   4.865   8.695
  343TIP3   OH222587   1.210   5.222   8.448
  343TIP3    H122588   1.159   5.146   8.474
  343TIP3    H222589   1.232   5.206   8.356
  344TIP3   OH222590   4.135   5.863   1.043
  344TIP3    H122591   4.157   5.902   1.127
  344TIP3    H222592   4.219   5.832   1.008
  345TIP3   OH222593   3.328   3.975   0.083
  345TIP3    H122594   3.271   4.006   0.154
  345TIP3    H222595   3.413   3.962   0.124
  346TIP3   OH222596   6.709   0.687   0.917
  346TIP3    H122597   6.738   0.770   0.879
  346TIP3    H222598   6.636   0.660   0.860
  347TIP3   OH222599   0.780   2.743   7.762
  347TIP3    H122600   0.763   2.705   7.675
  347TIP3    H222601   0.694   2.748   7.803
  348TIP3   OH222602   2.487   5.209   8.066
  348TIP3    H122603   2.524   5.194   7.979
  348TIP3    H222604   2.393   5.198   8.054
  349TIP3   OH222605   5.380   3.186   0.704
  349TIP3    H122606   5.301   3.228   0.738
  349TIP3    H222607   5.434   3.170   0.781
  350TIP3   OH222608   0.461   2.464   0.520
  350TIP3    H122609   0.379   2.488   0.564
  350TIP3    H222610   0.527   2.521   0.558
  351TIP3   OH222611   5.572   3.961   1.845
  351TIP3    H122612   5.569   4.004   1.931
  351TIP3    H222613   5.657   3.917   1.843
  352TIP3   OH222614   4.424   0.436   7.568
  352TIP3    H122615   4.435   0.420   7.474
  352TIP3    H222616   4.342   0.484   7.575
  353TIP3   OH222617   1.972   2.312   0.036
  353TIP3    H122618   1.972   2.407   0.041
  353TIP3    H222619   1.885   2.289   0.002
  354TIP3   OH222620   4.002   1.154   8.726
  354TIP3    H122621   3.916   1.112   8.722
  354TIP3    H222622   4.024   1.155   8.819
  355TIP3   OH222623   0.287   3.155   8.160
  355TIP3    H122624   0.303   3.184   8.250
  355TIP3    H222625   0.354   3.200   8.108
  356TIP3   OH222626   2.357   4.363   2.164
  356TIP3    H122627   2.449   4.340   2.177
  356TIP3    H222628   2.341   4.434   2.225
  357TIP3   OH222629   1.322   2.948   0.774
  357TIP3    H122630   1.327   2.863   0.819
  357TIP3    H222631   1.245   2.990   0.812
  358TIP3   OH222632   0.897   3.392   2.822
  358TIP3    H122633   0.965   3.395   2.754
  358TIP3    H222634   0.848   3.473   2.810
  359TIP3   OH222635   6.038   6.335   6.558
  359TIP3    H122636   5.944   6.341   6.542
  359TIP3    H222637   6.071   6.423   6.541
  360TIP3   OH222638   3.074   5.237   1.883
  360TIP3    H122639   3.058   5.230   1.977
  360TIP3    H222640   3.022   5.312   1.855
  361TIP3   OH222641   6.326   5.594   8.264
  361TIP3    H122642   6.316   5.572   8.172
  361TIP3    H222643   6.398   5.658   8.266
  362TIP3   OH222644   5.158   2.145   6.763
  362TIP3    H122645   5.087   2.081   6.758
  362TIP3    H222646   5.218   2.119   6.693
  363TIP3   OH222647   1.896   0.220   0.180
  363TIP3    H122648   1.964   0.226   0.247
  363TIP3    H222649   1.825   0.275   0.213
  364TIP3   OH222650   6.015   1.954   2.372
  364TIP3    H122651   6.010   2.049   2.373
  364TIP3    H222652   6.039   1.930   2.461
  365TIP3   OH222653   3.045   2.478   0.262
  365TIP3    H122654   3.136   2.506   0.271
  365TIP3    H222655   2.993   2.553   0.293
  366TIP3   OH222656   3.674   5.385   0.143
  366TIP3    H122657   3.764   5.354   0.144
  366TIP3    H222658   3.627   5.322   0.090
  367TIP3   OH222659   2.294   0.832   7.777
  367TIP3    H122660   2.258   0.783   7.851
  367TIP3    H222661   2.331   0.911   7.817
  368TIP3   OH222662   0.201   3.529   6.840
  368TIP3    H122663   0.131   3.530   6.905
  368TIP3    H222664   0.217   3.436   6.824
  369TIP3   OH222665   3.053   0.322   7.349
  369TIP3    H122666   3.009   0.365   7.275
  369TIP3    H222667   3.013   0.362   7.426
  370TIP3   OH222668   4.164   5.620   7.691
  370TIP3    H122669   4.139   5.544   7.637
  370TIP3    H222670   4.165   5.586   7.780
  371TIP3   OH222671   1.067   1.604   1.369
  371TIP3    H122672   0.980   1.565   1.373
  371TIP3    H222673   1.123   1.534   1.336
  372TIP3   OH222674   6.047   4.503   6.965
  372TIP3    H122675   6.130   4.550   6.954
  372TIP3    H222676   5.988   4.568   7.004
  373TIP3   OH222677   2.655   0.973   6.675
  373TIP3    H122678   2.732   0.929   6.712
  373TIP3    H222679   2.582   0.914   6.694
  374TIP3   OH222680   5.897   2.287   0.311
  374TIP3    H122681   5.835   2.352   0.344
  374TIP3    H222682   5.974   2.297   0.368
  375TIP3   OH222683   5.009   5.556   2.412
  375TIP3    H122684   5.000   5.647   2.385
  375TIP3    H222685   5.103   5.544   2.426
  376TIP3   OH222686   2.907   4.778   7.080
  376TIP3    H122687   2.955   4.835   7.019
  376TIP3    H222688   2.891   4.699   7.029
  377TIP3   OH222689   5.351   3.988   2.032
  377TIP3    H122690   5.391   4.057   2.085
  377TIP3    H222691   5.275   4.029   1.991
  378TIP3   OH222692   2.848   1.597   0.699
  378TIP3    H122693   2.789   1.668   0.726
  378TIP3    H222694   2.849   1.602   0.604
  379TIP3   OH222695   5.244   1.647   1.864
  379TIP3    H122696   5.311   1.709   1.896
  379TIP3    H222697   5.172   1.703   1.836
  380TIP3   OH222698   6.625   4.067   1.504
  380TIP3    H122699   6.589   4.155   1.517
  380TIP3    H222700   6.589   4.016   1.577
  381TIP3   OH222701   1.300   5.764   7.760
  381TIP3    H122702   1.393   5.784   7.757
  381TIP3    H222703   1.266   5.798   7.677
  382TIP3   OH222704   2.925   3.923   7.126
  382TIP3    H122705   2.943   3.940   7.033
  382TIP3    H222706   3.000   3.872   7.156
  383TIP3   OH222707   5.432   2.532   7.331
  383TIP3    H122708   5.440   2.563   7.421
  383TIP3    H222709   5.523   2.521   7.301
  384TIP3   OH222710   4.422   5.892   7.017
  384TIP3    H122711   4.498   5.836   7.002
  384TIP3    H222712   4.348   5.831   7.021
  385TIP3   OH222713   2.648   4.641   6.655
  385TIP3    H122714   2.662   4.697   6.731
  385TIP3    H222715   2.573   4.586   6.678
  386TIP3   OH222716   5.355   0.095   7.931
  386TIP3    H122717   5.340   0.001   7.938
  386TIP3    H222718   5.443   0.103   7.894
  387TIP3   OH222719   4.707   4.328   1.658
  387TIP3    H122720   4.754   4.256   1.617
  387TIP3    H222721   4.677   4.293   1.742
  388TIP3   OH222722   1.285   5.983   7.012
  388TIP3    H122723   1.255   5.895   7.032
  388TIP3    H222724   1.366   5.970   6.962
  389TIP3   OH222725   6.101   6.228   1.952
  389TIP3    H122726   6.030   6.235   2.016
  389TIP3    H222727   6.085   6.299   1.890
  390TIP3   OH222728   2.151   0.250   2.438
  390TIP3    H122729   2.244   0.269   2.450
  390TIP3    H222730   2.119   0.323   2.385
  391TIP3   OH222731   2.884   4.268   0.920
  391TIP3    H122732   2.887   4.188   0.972
  391TIP3    H222733   2.892   4.339   0.984
  392TIP3   OH222734   0.985   1.252   6.436
  392TIP3    H122735   0.961   1.172   6.483
  392TIP3    H222736   1.081   1.254   6.441
  393TIP3   OH222737   1.339   4.349   7.622
  393TIP3    H122738   1.356   4.429   7.671
  393TIP3    H222739   1.412   4.342   7.561
  394TIP3   OH222740   5.398   0.355   6.859
  394TIP3    H122741   5.393   0.274   6.809
  394TIP3    H222742   5.393   0.327   6.950
  395TIP3   OH222743   0.420   3.325   0.298
  395TIP3    H122744   0.329   3.355   0.294
  395TIP3    H222745   0.445   3.336   0.390
  396TIP3   OH222746   1.147   5.205   1.895
  396TIP3    H122747   1.078   5.191   1.830
  396TIP3    H222748   1.139   5.131   1.955
  397TIP3   OH222749   3.470   4.945   0.561
  397TIP3    H122750   3.376   4.961   0.569
  397TIP3    H222751   3.494   4.988   0.479
  398TIP3   OH222752   3.432   3.964   6.225
  398TIP3    H122753   3.501   3.964   6.159
  398TIP3    H222754   3.418   3.871   6.245
  399TIP3   OH222755   2.674   0.225   7.996
  399TIP3    H122756   2.668   0.252   8.087
  399TIP3    H222757   2.632   0.295   7.947
  400TIP3   OH222758   3.808   2.203   0.573
  400TIP3    H122759   3.782   2.289   0.539
  400TIP3    H222760   3.740   2.144   0.542
  401TIP3   OH222761   2.381   3.981   8.386
  401TIP3    H122762   2.385   4.040   8.311
  401TIP3    H222763   2.401   4.036   8.462
  402TIP3   OH222764   4.460   3.166   2.118
  402TIP3    H122765   4.418   3.162   2.032
  402TIP3    H222766   4.476   3.075   2.141
  403TIP3   OH222767   3.404   2.047   1.418
  403TIP3    H122768   3.476   2.035   1.357
  403TIP3    H222769   3.413   1.975   1.481
  404TIP3   OH222770   4.454   2.413   2.139
  404TIP3    H122771   4.440   2.338   2.082
  404TIP3    H222772   4.538   2.450   2.110
  405TIP3   OH222773   1.973   4.592   1.983
  405TIP3    H122774   1.989   4.665   2.042
  405TIP3    H222775   2.059   4.550   1.973
  406TIP3   OH222776   5.917   2.564   0.133
  406TIP3    H122777   5.839   2.575   0.079
  406TIP3    H222778   5.934   2.652   0.168
  407TIP3   OH222779   3.241   0.138   1.156
  407TIP3    H122780   3.290   0.219   1.150
  407TIP3    H222781   3.300   0.077   1.200
  408TIP3   OH222782   0.186   5.529   7.984
  408TIP3    H122783   0.223   5.611   7.951
  408TIP3    H222784   0.145   5.552   8.067
  409TIP3   OH222785   3.998   0.960   8.424
  409TIP3    H122786   4.034   0.871   8.423
  409TIP3    H222787   3.903   0.947   8.412
  410TIP3   OH222788   3.791   5.170   0.529
  410TIP3    H122789   3.728   5.242   0.531
  410TIP3    H222790   3.739   5.094   0.502
  411TIP3   OH222791   1.400   6.705   7.739
  411TIP3    H122792   1.413   6.795   7.709
  411TIP3    H222793   1.487   6.678   7.770
  412TIP3   OH222794   6.538   4.487   0.049
  412TIP3    H122795   6.605   4.463   0.114
  412TIP3    H222796   6.572   4.567   0.009
  413TIP3   OH222797   5.909   5.060   8.618
  413TIP3    H122798   5.873   5.144   8.649
  413TIP3    H222799   5.865   5.044   8.535
  414TIP3   OH222800   1.931   5.870   0.776
  414TIP3    H122801   1.977   5.795   0.739
  414TIP3    H222802   1.987   5.945   0.756
  415TIP3   OH222803   1.682   3.850   8.598
  415TIP3    H122804   1.634   3.928   8.570
  415TIP3    H222805   1.667   3.845   8.693
  416TIP3   OH222806   2.220   0.909   8.307
  416TIP3    H122807   2.182   0.976   8.250
  416TIP3    H222808   2.296   0.951   8.348
  417TIP3   OH222809   4.149   2.465   7.636
  417TIP3    H122810   4.221   2.522   7.665
  417TIP3    H222811   4.190   2.379   7.624
  418TIP3   OH222812   1.299   1.059   6.682
  418TIP3    H122813   1.211   1.073   6.718
  418TIP3    H222814   1.329   1.146   6.657
  419TIP3   OH222815   5.177   6.085   1.090
  419TIP3    H122816   5.108   6.144   1.060
  419TIP3    H222817   5.177   6.013   1.026
  420TIP3   OH222818   2.834   3.122   7.761
  420TIP3    H122819   2.778   3.116   7.839
  420TIP3    H222820   2.860   3.214   7.758
  421TIP3   OH222821   1.423   0.870   1.025
  421TIP3    H122822   1.508   0.895   1.063
  421TIP3    H222823   1.363   0.938   1.053
  422TIP3   OH222824   0.535   0.747   8.016
  422TIP3    H122825   0.508   0.836   7.994
  422TIP3    H222826   0.603   0.758   8.082
  423TIP3   OH222827   1.012   0.058   7.522
  423TIP3    H122828   1.016   0.066   7.617
  423TIP3    H222829   1.015   6.764   7.505
  424TIP3   OH222830   1.121   6.774   1.122
  424TIP3    H122831   1.131   6.700   1.062
  424TIP3    H222832   1.155   6.741   1.206
  425TIP3   OH222833   3.520   4.548   8.255
  425TIP3    H122834   3.587   4.600   8.211
  425TIP3    H222835   3.532   4.567   8.348
  426TIP3   OH222836   0.203   4.648   2.270
  426TIP3    H122837   0.226   4.698   2.348
  426TIP3    H222838   0.286   4.638   2.223
  427TIP3   OH222839   4.026   2.921   0.537
  427TIP3    H122840   4.089   2.966   0.592
  427TIP3    H222841   3.944   2.967   0.551
  428TIP3   OH222842   4.914   5.327   7.553
  428TIP3    H122843   4.913   5.400   7.616
  428TIP3    H222844   4.924   5.249   7.608
  429TIP3   OH222845   0.272   2.310   7.136
  429TIP3    H122846   0.296   2.383   7.080
  429TIP3    H222847   0.241   2.351   7.217
  430TIP3   OH222848   6.625   5.544   7.474
  430TIP3    H122849   6.707   5.537   7.523
  430TIP3    H222850   6.642   5.496   7.393
  431TIP3   OH222851   4.050   3.914   7.860
  431TIP3    H122852   4.141   3.932   7.838
  431TIP3    H222853   4.001   3.937   7.780
  432TIP3   OH222854   6.049   4.019   0.003
  432TIP3    H122855   6.100   3.941   0.026
  432TIP3    H222856   5.959   3.997   0.027
  433TIP3   OH222857   4.718   6.779   2.265
  433TIP3    H122858   4.802   0.002   2.227
  433TIP3    H222859   4.729   6.688   2.293
  434TIP3   OH222860   1.654   5.948   0.688
  434TIP3    H122861   1.749   5.948   0.703
  434TIP3    H222862   1.618   5.990   0.766
  435TIP3   OH222863   0.576   2.398   1.026
  435TIP3    H122864   0.610   2.413   1.114
  435TIP3    H222865   0.620   2.464   0.972
  436TIP3   OH222866   2.593   6.314   7.949
  436TIP3    H122867   2.508   6.336   7.988
  436TIP3    H222868   2.629   6.398   7.920
  437TIP3   OH222869   4.801   5.797   1.646
  437TIP3    H122870   4.789   5.809   1.552
  437TIP3    H222871   4.893   5.773   1.656
  438TIP3   OH222872   5.847   0.354   7.589
  438TIP3    H122873   5.897   0.313   7.518
  438TIP3    H222874   5.858   0.294   7.663
  439TIP3   OH222875   6.186   3.741   8.784
  439TIP3    H122876   6.196   3.652   8.818
  439TIP3    H222877   6.274   3.765   8.754
  440TIP3   OH222878   1.401   6.088   7.919
  440TIP3    H122879   1.388   6.138   7.838
  440TIP3    H222880   1.491   6.056   7.913
  441TIP3   OH222881   0.854   2.082   5.912
  441TIP3    H122882   0.834   2.176   5.915
  441TIP3    H222883   0.775   2.040   5.944
  442TIP3   OH222884   3.243   1.085   7.025
  442TIP3    H122885   3.301   1.149   6.983
  442TIP3    H222886   3.198   1.135   7.093
  443TIP3   OH222887   2.836   1.056   0.947
  443TIP3    H122888   2.874   0.978   0.908
  443TIP3    H222889   2.911   1.108   0.976
  444TIP3   OH222890   5.494   5.673   7.581
  444TIP3    H122891   5.434   5.728   7.631
  444TIP3    H222892   5.454   5.586   7.584
  445TIP3   OH222893   3.427   0.344   1.056
  445TIP3    H122894   3.477   0.413   1.099
  445TIP3    H222895   3.469   0.332   0.971
  446TIP3   OH222896   3.222   1.572   0.308
  446TIP3    H122897   3.277   1.548   0.382
  446TIP3    H222898   3.207   1.666   0.319
  447TIP3   OH222899   1.237   6.355   2.154
  447TIP3    H122900   1.302   6.287   2.172
  447TIP3    H222901   1.212   6.387   2.241
  448TIP3   OH222902   2.751   6.380   0.000
  448TIP3    H122903   2.740   6.449   0.066
  448TIP3    H222904   2.839   6.345   0.016
  449TIP3   OH222905   4.495   0.024   2.092
  449TIP3    H122906   4.436   0.058   2.159
  449TIP3    H222907   4.559   6.772   2.140
  450TIP3   OH222908   0.313   0.110   8.496
  450TIP3    H122909   0.406   0.123   8.476
  450TIP3    H222910   0.313   0.070   8.583
  451TIP3   OH222911   5.484   1.166   0.717
  451TIP3    H122912   5.497   1.074   0.694
  451TIP3    H222913   5.467   1.165   0.811
  452TIP3   OH222914   1.122   2.360   6.817
  452TIP3    H122915   1.140   2.310   6.896
  452TIP3    H222916   1.178   2.321   6.750
  453TIP3   OH222917   3.047   4.923   7.296
  453TIP3    H122918   3.004   4.912   7.381
  453TIP3    H222919   3.040   4.837   7.255
  454TIP3   OH222920   5.263   0.268   6.327
  454TIP3    H122921   5.337   0.310   6.371
  454TIP3    H222922   5.207   0.340   6.298
  455TIP3   OH222923   6.166   0.598   1.636
  455TIP3    H122924   6.224   0.598   1.560
  455TIP3    H222925   6.101   0.531   1.615
  456TIP3   OH222926   1.464   5.382   7.808
  456TIP3    H122927   1.527   5.438   7.853
  456TIP3    H222928   1.460   5.303   7.861
  457TIP3   OH222929   0.957   2.964   7.741
  457TIP3    H122930   0.888   2.917   7.694
  457TIP3    H222931   0.961   2.922   7.827
  458TIP3   OH222932   6.348   5.612   2.670
  458TIP3    H122933   6.330   5.523   2.701
  458TIP3    H222934   6.410   5.600   2.598
  459TIP3   OH222935   6.187   5.540   6.731
  459TIP3    H122936   6.273   5.536   6.773
  459TIP3    H222937   6.136   5.600   6.785
  460TIP3   OH222938   5.827   6.463   7.499
  460TIP3    H122939   5.781   6.497   7.423
  460TIP3    H222940   5.863   6.540   7.542
  461TIP3   OH222941   3.902   2.416   0.050
  461TIP3    H122942   3.858   2.337   0.019
  461TIP3    H222943   3.956   2.444   8.837
  462TIP3   OH222944   5.030   3.420   0.097
  462TIP3    H122945   5.111   3.453   0.137
  462TIP3    H222946   5.017   3.334   0.138
  463TIP3   OH222947   6.145   3.432   0.206
  463TIP3    H122948   6.208   3.431   0.134
  463TIP3    H222949   6.188   3.381   0.275
  464TIP3   OH222950   2.294   4.198   8.217
  464TIP3    H122951   2.236   4.210   8.291
  464TIP3    H222952   2.321   4.286   8.192
  465TIP3   OH222953   5.536   2.220   7.701
  465TIP3    H122954   5.521   2.126   7.696
  465TIP3    H222955   5.598   2.239   7.631
  466TIP3   OH222956   0.979   5.609   0.528
  466TIP3    H122957   0.916   5.676   0.501
  466TIP3    H222958   1.044   5.607   0.458
  467TIP3   OH222959   6.059   5.551   2.573
  467TIP3    H122960   6.132   5.573   2.631
  467TIP3    H222961   5.994   5.620   2.588
  468TIP3   OH222962   3.010   5.610   7.908
  468TIP3    H122963   3.091   5.651   7.938
  468TIP3    H222964   2.986   5.659   7.830
  469TIP3   OH222965   5.966   4.091   1.941
  469TIP3    H122966   5.900   4.029   1.972
  469TIP3    H222967   6.037   4.084   2.004
  470TIP3   OH222968   1.086   2.370   1.703
  470TIP3    H122969   1.018   2.379   1.636
  470TIP3    H222970   1.164   2.342   1.654
  471TIP3   OH222971   4.717   5.101   0.737
  471TIP3    H122972   4.673   5.019   0.760
  471TIP3    H222973   4.753   5.086   0.649
  472TIP3   OH222974   2.359   1.059   1.272
  472TIP3    H122975   2.268   1.075   1.245
  472TIP3    H222976   2.376   1.125   1.339
  473TIP3   OH222977   3.431   6.435   1.069
  473TIP3    H122978   3.350   6.444   1.019
  473TIP3    H222979   3.435   6.342   1.091
  474TIP3   OH222980   0.689   0.406   8.046
  474TIP3    H122981   0.638   0.389   8.126
  474TIP3    H222982   0.700   0.320   8.006
  475TIP3   OH222983   5.620   0.546   6.686
  475TIP3    H122984   5.713   0.553   6.665
  475TIP3    H222985   5.581   0.625   6.649
  476TIP3   OH222986   0.093   2.551   1.475
  476TIP3    H122987   0.062   2.607   1.546
  476TIP3    H222988   0.139   2.610   1.415
  477TIP3   OH222989   5.207   2.502   2.236
  477TIP3    H122990   5.156   2.421   2.243
  477TIP3    H222991   5.262   2.502   2.314
  478TIP3   OH222992   6.300   6.180   6.438
  478TIP3    H122993   6.323   6.126   6.363
  478TIP3    H222994   6.383   6.221   6.464
  479TIP3   OH222995   1.021   5.554   6.558
  479TIP3    H122996   1.021   5.560   6.463
  479TIP3    H222997   1.113   5.567   6.583
  480TIP3   OH222998   6.221   0.466   1.939
  480TIP3    H122999   6.156   0.537   1.930
  480TIP3    H223000   6.297   0.509   1.978
  481TIP3   OH223001   3.940   0.931   0.602
  481TIP3    H123002   3.936   0.851   0.550
  481TIP3    H223003   4.023   0.924   0.649
  482TIP3   OH223004   1.028   1.336   0.650
  482TIP3    H123005   1.061   1.418   0.687
  482TIP3    H223006   0.967   1.364   0.582
  483TIP3   OH223007   1.451   1.816   8.253
  483TIP3    H123008   1.517   1.773   8.308
  483TIP3    H223009   1.502   1.857   8.183
  484TIP3   OH223010   1.709   5.377   0.499
  484TIP3    H123011   1.708   5.430   0.578
  484TIP3    H223012   1.794   5.332   0.501
  485TIP3   OH223013   2.209   2.813   6.574
  485TIP3    H123014   2.190   2.798   6.482
  485TIP3    H223015   2.147   2.882   6.600
  486TIP3   OH223016   2.868   0.743   2.070
  486TIP3    H123017   2.859   0.819   2.127
  486TIP3    H223018   2.962   0.722   2.072
  487TIP3   OH223019   5.793   5.647   7.629
  487TIP3    H123020   5.707   5.687   7.641
  487TIP3    H223021   5.846   5.715   7.588
  488TIP3   OH223022   2.350   5.227   8.615
  488TIP3    H123023   2.362   5.284   8.540
  488TIP3    H223024   2.386   5.143   8.588
  489TIP3   OH223025   2.130   0.735   0.305
  489TIP3    H123026   2.111   0.675   0.377
  489TIP3    H223027   2.144   0.678   0.230
  490TIP3   OH223028   4.197   1.143   8.523
  490TIP3    H123029   4.145   1.155   8.603
  490TIP3    H223030   4.135   1.107   8.459
  491TIP3   OH223031   5.593   3.887   1.117
  491TIP3    H123032   5.577   3.823   1.048
  491TIP3    H223033   5.670   3.855   1.163
  492TIP3   OH223034   2.848   2.416   1.270
  492TIP3    H123035   2.941   2.412   1.292
  492TIP3    H223036   2.839   2.360   1.193
  493TIP3   OH223037   6.638   2.684   1.384
  493TIP3    H123038   6.711   2.622   1.377
  493TIP3    H223039   6.598   2.664   1.469
  494TIP3   OH223040   1.823   1.080   0.242
  494TIP3    H123041   1.876   1.021   0.189
  494TIP3    H223042   1.756   1.113   0.182
  495TIP3   OH223043   6.500   2.383   6.363
  495TIP3    H123044   6.464   2.323   6.299
  495TIP3    H223045   6.495   2.469   6.321
  496TIP3   OH223046   2.135   1.052   8.091
  496TIP3    H123047   2.132   1.109   8.015
  496TIP3    H223048   2.227   1.026   8.099
  497TIP3   OH223049   0.488   3.570   1.952
  497TIP3    H123050   0.406   3.578   2.000
  497TIP3    H223051   0.514   3.479   1.963
  498TIP3   OH223052   4.988   5.213   2.326
  498TIP3    H123053   4.908   5.251   2.363
  498TIP3    H223054   4.995   5.252   2.239
  499TIP3   OH223055   3.068   6.687   7.126
  499TIP3    H123056   3.044   6.702   7.218
  499TIP3    H223057   3.088   6.774   7.092
  500TIP3   OH223058   5.048   0.700   0.548
  500TIP3    H123059   4.987   0.731   0.614
  500TIP3    H223060   5.132   0.695   0.593
  501TIP3   OH223061   1.461   6.535   7.515
  501TIP3    H123062   1.503   6.620   7.504
  501TIP3    H223063   1.425   6.537   7.604
  502TIP3   OH223064   5.892   2.316   1.562
  502TIP3    H123065   5.895   2.361   1.478
  502TIP3    H223066   5.892   2.223   1.539
  503TIP3   OH223067   2.679   0.649   8.632
  503TIP3    H123068   2.644   0.564   8.608
  503TIP3    H223069   2.645   0.665   8.720
  504TIP3   OH223070   4.678   3.592   6.439
  504TIP3    H123071   4.712   3.505   6.419
  504TIP3    H223072   4.705   3.646   6.365
  505TIP3   OH223073   4.519   6.742   7.260
  505TIP3    H123074   4.524   0.015   7.198
  505TIP3    H223075   4.426   6.721   7.264
  506TIP3   OH223076   2.274   0.458   7.286
  506TIP3    H123077   2.259   0.364   7.275
  506TIP3    H223078   2.369   0.468   7.281
  507TIP3   OH223079   2.888   5.880   0.470
  507TIP3    H123080   2.921   5.791   0.478
  507TIP3    H223081   2.965   5.933   0.452
  508TIP3   OH223082   1.938   5.083   7.889
  508TIP3    H123083   1.852   5.106   7.924
  508TIP3    H223084   1.919   5.043   7.805
  509TIP3   OH223085   1.555   1.459   0.899
  509TIP3    H123086   1.561   1.366   0.919
  509TIP3    H223087   1.490   1.493   0.961
  510TIP3   OH223088   3.759   6.720   8.466
  510TIP3    H123089   3.706   6.791   8.430
  510TIP3    H223090   3.834   6.713   8.406
  511TIP3   OH223091   5.274   5.512   8.157
  511TIP3    H123092   5.230   5.428   8.149
  511TIP3    H223093   5.265   5.552   8.071
  512TIP3   OH223094   2.116   3.315   1.478
  512TIP3    H123095   2.032   3.293   1.517
  512TIP3    H223096   2.165   3.232   1.479
  513TIP3   OH223097   1.503   2.521   1.276
  513TIP3    H123098   1.486   2.584   1.206
  513TIP3    H223099   1.582   2.553   1.319
  514TIP3   OH223100   5.253   0.131   1.691
  514TIP3    H123101   5.300   0.184   1.627
  514TIP3    H223102   5.321   0.091   1.745
  515TIP3   OH223103   5.292   3.342   1.646
  515TIP3    H123104   5.300   3.410   1.579
  515TIP3    H223105   5.382   3.319   1.667
  516TIP3   OH223106   0.761   5.116   8.115
  516TIP3    H123107   0.743   5.022   8.109
  516TIP3    H223108   0.841   5.127   8.064
  517TIP3   OH223109   3.415   5.857   0.620
  517TIP3    H123110   3.509   5.860   0.631
  517TIP3    H223111   3.379   5.893   0.701
  518TIP3   OH223112   1.067   5.773   1.389
  518TIP3    H123113   1.093   5.681   1.390
  518TIP3    H223114   1.038   5.791   1.478
  519TIP3   OH223115   4.886   3.257   7.579
  519TIP3    H123116   4.950   3.224   7.515
  519TIP3    H223117   4.804   3.214   7.555
  520TIP3   OH223118   2.446   1.972   1.188
  520TIP3    H123119   2.430   1.884   1.221
  520TIP3    H223120   2.394   2.029   1.246
  521TIP3   OH223121   2.172   6.079   7.929
  521TIP3    H123122   2.261   6.045   7.943
  521TIP3    H223123   2.118   6.001   7.917
  522TIP3   OH223124   6.262   1.394   1.470
  522TIP3    H123125   6.202   1.346   1.413
  522TIP3    H223126   6.333   1.332   1.488
  523TIP3   OH223127   5.951   5.798   7.486
  523TIP3    H123128   6.038   5.836   7.471
  523TIP3    H223129   5.959   5.707   7.455
  524TIP3   OH223130   2.490   0.550   7.945
  524TIP3    H123131   2.533   0.483   7.893
  524TIP3    H223132   2.402   0.556   7.909
  525TIP3   OH223133   4.272   6.005   1.285
  525TIP3    H123134   4.298   5.926   1.331
  525TIP3    H223135   4.351   6.033   1.238
  526TIP3   OH223136   1.987   0.441   2.245
  526TIP3    H123137   1.997   0.359   2.196
  526TIP3    H223138   1.977   0.508   2.178
  527TIP3   OH223139   2.481   4.681   0.560
  527TIP3    H123140   2.503   4.593   0.529
  527TIP3    H223141   2.500   4.679   0.653
  528TIP3   OH223142   2.136   4.766   8.078
  528TIP3    H123143   2.117   4.684   8.032
  528TIP3    H223144   2.214   4.747   8.130
  529TIP3   OH223145   0.948   0.623   8.296
  529TIP3    H123146   1.023   0.652   8.243
  529TIP3    H223147   0.979   0.544   8.340
  530TIP3   OH223148   6.795   2.900   2.502
  530TIP3    H123149   6.726   2.838   2.477
  530TIP3    H223150   6.749   2.982   2.517
  531TIP3   OH223151   3.891   5.006   0.894
  531TIP3    H123152   3.807   5.053   0.898
  531TIP3    H223153   3.941   5.041   0.968
  532TIP3   OH223154   3.468   0.506   8.111
  532TIP3    H123155   3.494   0.597   8.128
  532TIP3    H223156   3.468   0.498   8.016
  533TIP3   OH223157   1.206   5.703   8.016
  533TIP3    H123158   1.231   5.733   7.928
  533TIP3    H223159   1.257   5.758   8.075
  534TIP3   OH223160   6.465   1.783   6.897
  534TIP3    H123161   6.370   1.793   6.906
  534TIP3    H223162   6.484   1.812   6.808
  535TIP3   OH223163   5.833   4.659   8.650
  535TIP3    H123164   5.784   4.635   8.728
  535TIP3    H223165   5.917   4.613   8.659
  536TIP3   OH223166   3.423   2.351   1.945
  536TIP3    H123167   3.417   2.445   1.962
  536TIP3    H223168   3.332   2.325   1.927
  537TIP3   OH223169   4.206   3.248   0.256
  537TIP3    H123170   4.233   3.264   0.346
  537TIP3    H223171   4.137   3.311   0.239
  538TIP3   OH223172   5.507   3.121   0.325
  538TIP3    H123173   5.592   3.119   0.283
  538TIP3    H223174   5.445   3.098   0.256
  539TIP3   OH223175   5.298   3.453   8.354
  539TIP3    H123176   5.215   3.411   8.376
  539TIP3    H223177   5.295   3.536   8.402
  540TIP3   OH223178   2.975   6.130   6.699
  540TIP3    H123179   3.013   6.216   6.715
  540TIP3    H223180   2.923   6.140   6.620
  541TIP3   OH223181   1.801   0.882   6.464
  541TIP3    H123182   1.812   0.792   6.494
  541TIP3    H223183   1.715   0.908   6.497
  542TIP3   OH223184   0.475   4.758   7.686
  542TIP3    H123185   0.400   4.704   7.659
  542TIP3    H223186   0.547   4.726   7.631
  543TIP3   OH223187   0.552   6.217   8.411
  543TIP3    H123188   0.618   6.165   8.365
  543TIP3    H223189   0.528   6.286   8.349
  544TIP3   OH223190   2.313   0.329   0.189
  544TIP3    H123191   2.283   0.240   0.170
  544TIP3    H223192   2.386   0.318   0.249
  545TIP3   OH223193   0.873   4.108   0.892
  545TIP3    H123194   0.873   4.100   0.987
  545TIP3    H223195   0.961   4.082   0.865
  546TIP3   OH223196   5.617   6.591   7.313
  546TIP3    H123197   5.527   6.624   7.313
  546TIP3    H223198   5.636   6.575   7.221
  547TIP3   OH223199   2.583   1.097   1.739
  547TIP3    H123200   2.577   1.001   1.740
  547TIP3    H223201   2.661   1.115   1.792
  548TIP3   OH223202   4.366   6.602   7.031
  548TIP3    H123203   4.349   6.646   7.115
  548TIP3    H223204   4.301   6.532   7.028
  549TIP3   OH223205   1.100   5.319   7.213
  549TIP3    H123206   1.045   5.391   7.182
  549TIP3    H223207   1.048   5.240   7.198
  550TIP3   OH223208   2.153   0.999   7.385
  550TIP3    H123209   2.244   1.017   7.409
  550TIP3    H223210   2.104   1.074   7.420
  551TIP3   OH223211   6.004   4.416   8.770
  551TIP3    H123212   5.988   4.336   8.721
  551TIP3    H223213   5.933   4.419   8.835
  552TIP3   OH223214   1.919   4.544   0.759
  552TIP3    H123215   1.878   4.562   0.675
  552TIP3    H223216   2.012   4.534   0.738
  553TIP3   OH223217   6.077   1.769   6.222
  553TIP3    H123218   6.025   1.691   6.242
  553TIP3    H223219   6.127   1.745   6.145
  554TIP3   OH223220   2.324   6.576   8.517
  554TIP3    H123221   2.389   6.621   8.571
  554TIP3    H223222   2.355   6.486   8.512
  555TIP3   OH223223   2.412   2.031   1.565
  555TIP3    H123224   2.369   2.002   1.645
  555TIP3    H223225   2.376   1.976   1.496
  556TIP3   OH223226   5.585   4.166   7.726
  556TIP3    H123227   5.556   4.252   7.756
  556TIP3    H223228   5.549   4.105   7.791
  557TIP3   OH223229   5.875   3.026   7.763
  557TIP3    H123230   5.846   3.106   7.718
  557TIP3    H223231   5.802   3.002   7.820
  558TIP3   OH223232   6.094   2.668   1.573
  558TIP3    H123233   6.035   2.717   1.515
  558TIP3    H223234   6.046   2.661   1.656
  559TIP3   OH223235   6.034   3.389   8.636
  559TIP3    H123236   6.125   3.400   8.608
  559TIP3    H223237   5.984   3.447   8.578
  560TIP3   OH223238   2.345   3.375   0.238
  560TIP3    H123239   2.435   3.391   0.265
  560TIP3    H223240   2.299   3.456   0.258
  561TIP3   OH223241   0.826   3.234   7.036
  561TIP3    H123242   0.842   3.323   7.004
  561TIP3    H223243   0.774   3.193   6.967
  562TIP3   OH223244   6.453   1.056   1.745
  562TIP3    H123245   6.424   0.966   1.759
  562TIP3    H223246   6.449   1.097   1.832
  563TIP3   OH223247   5.953   6.232   7.600
  563TIP3    H123248   5.967   6.319   7.638
  563TIP3    H223249   5.858   6.222   7.598
  564TIP3   OH223250   5.350   2.696   1.644
  564TIP3    H123251   5.264   2.736   1.634
  564TIP3    H223252   5.412   2.765   1.621
  565TIP3   OH223253   5.042   4.225   8.609
  565TIP3    H123254   5.131   4.196   8.588
  565TIP3    H223255   4.987   4.186   8.542
  566TIP3   OH223256   5.774   6.733   8.107
  566TIP3    H123257   5.758   6.697   8.020
  566TIP3    H223258   5.840   6.676   8.145
  567TIP3   OH223259   6.308   4.248   2.040
  567TIP3    H123260   6.288   4.306   2.113
  567TIP3    H223261   6.242   4.179   2.045
  568TIP3   OH223262   1.212   2.487   1.406
  568TIP3    H123263   1.128   2.518   1.373
  568TIP3    H223264   1.240   2.421   1.343
  569TIP3   OH223265   2.225   2.485   0.184
  569TIP3    H123266   2.159   2.480   0.115
  569TIP3    H223267   2.183   2.536   0.254
  570TIP3   OH223268   1.589   1.228   1.384
  570TIP3    H123269   1.659   1.206   1.446
  570TIP3    H223270   1.618   1.311   1.346
  571TIP3   OH223271   3.791   3.882   7.724
  571TIP3    H123272   3.810   3.797   7.685
  571TIP3    H223273   3.744   3.930   7.656
  572TIP3   OH223274   5.951   5.860   0.989
  572TIP3    H123275   6.004   5.912   1.050
  572TIP3    H223276   6.014   5.830   0.923
  573TIP3   OH223277   5.994   2.435   7.235
  573TIP3    H123278   5.950   2.351   7.225
  573TIP3    H223279   6.028   2.434   7.325
  574TIP3   OH223280   0.590   3.279   2.305
  574TIP3    H123281   0.594   3.368   2.341
  574TIP3    H223282   0.542   3.229   2.371
  575TIP3   OH223283   3.421   0.074   6.513
  575TIP3    H123284   3.380   0.011   6.453
  575TIP3    H223285   3.436   0.023   6.593
  576TIP3   OH223286   6.137   3.880   0.644
  576TIP3    H123287   6.079   3.818   0.688
  576TIP3    H223288   6.219   3.831   0.632
  577TIP3   OH223289   4.846   4.568   8.408
  577TIP3    H123290   4.801   4.495   8.365
  577TIP3    H223291   4.912   4.596   8.346
  578TIP3   OH223292   1.768   6.081   8.697
  578TIP3    H123293   1.762   6.168   8.657
  578TIP3    H223294   1.687   6.073   8.747
  579TIP3   OH223295   2.387   0.084   8.718
  579TIP3    H123296   2.391   0.179   8.710
  579TIP3    H223297   2.294   0.062   8.710
  580TIP3   OH223298   4.223   5.092   7.631
  580TIP3    H123299   4.212   5.072   7.538
  580TIP3    H223300   4.227   5.007   7.674
  581TIP3   OH223301   4.611   3.743   0.054
  581TIP3    H123302   4.585   3.671   8.857
  581TIP3    H223303   4.603   3.821   8.859
  582TIP3   OH223304   6.330   6.167   7.551
  582TIP3    H123305   6.307   6.254   7.584
  582TIP3    H223306   6.405   6.141   7.605
  583TIP3   OH223307   2.531   5.160   2.423
  583TIP3    H123308   2.522   5.165   2.328
  583TIP3    H223309   2.502   5.246   2.455
  584TIP3   OH223310   3.039   1.378   0.299
  584TIP3    H123311   3.108   1.445   0.301
  584TIP3    H223312   3.032   1.354   0.207
  585TIP3   OH223313   2.980   5.558   1.160
  585TIP3    H123314   3.026   5.589   1.238
  585TIP3    H223315   3.049   5.522   1.104
  586TIP3   OH223316   5.795   3.931   1.421
  586TIP3    H123317   5.781   4.021   1.450
  586TIP3    H223318   5.725   3.881   1.462
  587TIP3   OH223319   5.591   6.014   2.638
  587TIP3    H123320   5.675   6.040   2.601
  587TIP3    H223321   5.559   5.946   2.579
  588TIP3   OH223322   6.479   4.608   1.688
  588TIP3    H123323   6.407   4.585   1.630
  588TIP3    H223324   6.443   4.598   1.776
  589TIP3   OH223325   0.712   3.247   7.847
  589TIP3    H123326   0.801   3.253   7.811
  589TIP3    H223327   0.661   3.205   7.778
  590TIP3   OH223328   6.657   6.345   0.192
  590TIP3    H123329   6.727   6.353   0.127
  590TIP3    H223330   6.686   6.399   0.265
  591TIP3   OH223331   5.203   3.666   7.593
  591TIP3    H123332   5.110   3.656   7.613
  591TIP3    H223333   5.236   3.727   7.659
  592TIP3   OH223334   5.547   4.576   0.344
  592TIP3    H123335   5.462   4.620   0.349
  592TIP3    H223336   5.582   4.581   0.434
  593TIP3   OH223337   1.283   6.269   1.897
  593TIP3    H123338   1.230   6.209   1.843
  593TIP3    H223339   1.238   6.272   1.981
  594TIP3   OH223340   0.489   4.863   0.739
  594TIP3    H123341   0.418   4.906   0.785
  594TIP3    H223342   0.546   4.934   0.709
  595TIP3   OH223343   4.130   5.709   0.254
  595TIP3    H123344   4.210   5.705   0.307
  595TIP3    H223345   4.131   5.628   0.204
  596TIP3   OH223346   2.910   0.908   1.687
  596TIP3    H123347   2.950   0.954   1.613
  596TIP3    H223348   2.872   0.977   1.742
  597TIP3   OH223349   2.136   3.895   8.044
  597TIP3    H123350   2.168   3.981   8.016
  597TIP3    H223351   2.045   3.893   8.015
  598TIP3   OH223352   4.053   1.166   7.498
  598TIP3    H123353   4.041   1.148   7.591
  598TIP3    H223354   4.136   1.214   7.493
  599TIP3   OH223355   1.362   2.712   8.664
  599TIP3    H123356   1.414   2.706   8.584
  599TIP3    H223357   1.274   2.731   8.634
  600TIP3   OH223358   5.865   4.755   6.868
  600TIP3    H123359   5.811   4.744   6.789
  600TIP3    H223360   5.803   4.747   6.941
  601TIP3   OH223361   0.105   1.627   8.745
  601TIP3    H123362   0.187   1.676   8.751
  601TIP3    H223363   0.124   1.555   8.686
  602TIP3   OH223364   6.699   2.128   0.715
  602TIP3    H123365   6.757   2.053   0.704
  602TIP3    H223366   6.623   2.109   0.659
  603TIP3   OH223367   2.936   0.694   0.055
  603TIP3    H123368   2.920   0.749   8.838
  603TIP3    H223369   2.861   0.712   0.112
  604TIP3   OH223370   4.323   4.472   8.854
  604TIP3    H123371   4.279   4.545   8.809
  604TIP3    H223372   4.396   4.450   8.796
  605TIP3   OH223373   2.237   1.818   7.396
  605TIP3    H123374   2.152   1.834   7.354
  605TIP3    H223375   2.264   1.732   7.362
  606TIP3   OH223376   6.540   1.394   6.968
  606TIP3    H123377   6.534   1.339   6.890
  606TIP3    H223378   6.463   1.371   7.020
  607TIP3   OH223379   1.221   5.088   7.541
  607TIP3    H123380   1.220   5.008   7.489
  607TIP3    H223381   1.292   5.140   7.504
  608TIP3   OH223382   4.215   4.500   1.872
  608TIP3    H123383   4.245   4.494   1.963
  608TIP3    H223384   4.281   4.452   1.822
  609TIP3   OH223385   2.714   5.796   8.584
  609TIP3    H123386   2.765   5.736   8.531
  609TIP3    H223387   2.697   5.749   8.665
  610TIP3   OH223388   4.194   2.265   8.292
  610TIP3    H123389   4.159   2.354   8.290
  610TIP3    H223390   4.283   2.274   8.256
  611TIP3   OH223391   1.290   1.822   6.946
  611TIP3    H123392   1.326   1.896   6.995
  611TIP3    H223393   1.348   1.812   6.870
  612TIP3   OH223394   0.544   2.650   6.496
  612TIP3    H123395   0.466   2.704   6.508
  612TIP3    H223396   0.553   2.601   6.578
  613TIP3   OH223397   6.460   0.956   0.245
  613TIP3    H123398   6.507   0.877   0.217
  613TIP3    H223399   6.376   0.952   0.200
  614TIP3   OH223400   0.359   4.747   8.589
  614TIP3    H123401   0.365   4.677   8.525
  614TIP3    H223402   0.449   4.763   8.616
  615TIP3   OH223403   4.274   1.369   0.039
  615TIP3    H123404   4.351   1.368   0.096
  615TIP3    H223405   4.207   1.320   0.088
  616TIP3   OH223406   4.518   0.527   8.201
  616TIP3    H123407   4.600   0.575   8.212
  616TIP3    H223408   4.540   0.436   8.225
  617TIP3   OH223409   1.430   0.445   7.383
  617TIP3    H123410   1.384   0.517   7.341
  617TIP3    H223411   1.475   0.400   7.311
  618TIP3   OH223412   3.999   5.201   7.737
  618TIP3    H123413   3.952   5.118   7.730
  618TIP3    H223414   4.077   5.189   7.683
  619TIP3   OH223415   1.024   0.958   8.733
  619TIP3    H123416   1.105   0.968   8.783
  619TIP3    H223417   1.052   0.955   8.642
  620TIP3   OH223418   3.564   1.449   0.764
  620TIP3    H123419   3.583   1.373   0.819
  620TIP3    H223420   3.649   1.491   0.751
  621TIP3   OH223421   1.525   6.252   1.133
  621TIP3    H123422   1.565   6.320   1.079
  621TIP3    H223423   1.517   6.292   1.219
  622TIP3   OH223424   2.059   1.992   1.195
  622TIP3    H123425   2.005   2.001   1.274
  622TIP3    H223426   2.064   1.897   1.181
  623TIP3   OH223427   0.494   6.153   0.105
  623TIP3    H123428   0.428   6.127   0.040
  623TIP3    H223429   0.505   6.247   0.091
  624TIP3   OH223430   2.659   3.785   7.128
  624TIP3    H123431   2.713   3.862   7.112
  624TIP3    H223432   2.576   3.820   7.160
  625TIP3   OH223433   5.295   2.002   7.613
  625TIP3    H123434   5.378   1.982   7.656
  625TIP3    H223435   5.230   1.996   7.682
  626TIP3   OH223436   2.756   4.521   7.939
  626TIP3    H123437   2.705   4.455   7.891
  626TIP3    H223438   2.773   4.480   8.024
  627TIP3   OH223439   1.603   5.363   8.202
  627TIP3    H123440   1.517   5.358   8.160
  627TIP3    H223441   1.611   5.279   8.248
  628TIP3   OH223442   2.742   4.718   1.323
  628TIP3    H123443   2.748   4.740   1.230
  628TIP3    H223444   2.648   4.726   1.343
  629TIP3   OH223445   1.002   3.373   7.389
  629TIP3    H123446   1.058   3.295   7.385
  629TIP3    H223447   1.049   3.433   7.448
  630TIP3   OH223448   3.271   5.826   8.276
  630TIP3    H123449   3.338   5.759   8.290
  630TIP3    H223450   3.247   5.854   8.365
  631TIP3   OH223451   2.900   0.526   6.049
  631TIP3    H123452   2.979   0.558   6.094
  631TIP3    H223453   2.892   0.435   6.077
  632TIP3   OH223454   0.144   2.598   7.145
  632TIP3    H123455   0.067   2.577   7.199
  632TIP3    H223456   0.115   2.582   7.055
  633TIP3   OH223457   2.017   4.570   8.526
  633TIP3    H123458   2.064   4.493   8.557
  633TIP3    H223459   2.056   4.643   8.575
  634TIP3   OH223460   3.275   4.566   0.851
  634TIP3    H123461   3.332   4.643   0.850
  634TIP3    H223462   3.333   4.492   0.866
  635TIP3   OH223463   0.286   4.760   1.828
  635TIP3    H123464   0.276   4.681   1.882
  635TIP3    H223465   0.374   4.752   1.791
  636TIP3   OH223466   2.665   6.096   1.187
  636TIP3    H123467   2.602   6.030   1.160
  636TIP3    H223468   2.630   6.178   1.152
  637TIP3   OH223469   2.519   0.470   1.196
  637TIP3    H123470   2.455   0.399   1.198
  637TIP3    H223471   2.575   0.453   1.271
  638TIP3   OH223472   3.344   4.861   1.747
  638TIP3    H123473   3.327   4.953   1.724
  638TIP3    H223474   3.264   4.815   1.719
  639TIP3   OH223475   3.288   4.977   0.246
  639TIP3    H123476   3.252   5.006   0.162
  639TIP3    H223477   3.383   4.980   0.234
  640TIP3   OH223478   0.928   3.045   1.398
  640TIP3    H123479   0.897   3.048   1.308
  640TIP3    H223480   0.946   2.952   1.415
  641TIP3   OH223481   6.763   4.571   6.726
  641TIP3    H123482   6.731   4.494   6.774
  641TIP3    H223483   0.056   4.573   6.744
  642TIP3   OH223484   3.508   6.524   1.765
  642TIP3    H123485   3.441   6.462   1.795
  642TIP3    H223486   3.580   6.468   1.736
  643TIP3   OH223487   3.854   3.569   6.220
  643TIP3    H123488   3.871   3.475   6.224
  643TIP3    H223489   3.907   3.600   6.147
  644TIP3   OH223490   6.212   1.551   7.892
  644TIP3    H123491   6.279   1.490   7.924
  644TIP3    H223492   6.239   1.636   7.925
  645TIP3   OH223493   4.293   5.546   6.683
  645TIP3    H123494   4.373   5.597   6.693
  645TIP3    H223495   4.322   5.464   6.642
  646TIP3   OH223496   2.251   6.776   7.313
  646TIP3    H123497   2.343   6.753   7.329
  646TIP3    H223498   2.225   0.026   7.391
  647TIP3   OH223499   2.358   2.533   1.307
  647TIP3    H123500   2.438   2.583   1.293
  647TIP3    H223501   2.372   2.451   1.260
  648TIP3   OH223502   4.732   0.427   7.503
  648TIP3    H123503   4.757   0.510   7.462
  648TIP3    H223504   4.647   0.444   7.543
  649TIP3   OH223505   1.720   0.256   8.029
  649TIP3    H123506   1.691   0.347   8.019
  649TIP3    H223507   1.813   0.258   8.008
  650TIP3   OH223508   3.891   4.037   1.491
  650TIP3    H123509   3.896   4.099   1.564
  650TIP3    H223510   3.980   4.004   1.481
  651TIP3   OH223511   5.853   3.477   2.040
  651TIP3    H123512   5.883   3.559   2.080
  651TIP3    H223513   5.884   3.482   1.949
  652TIP3   OH223514   4.872   2.118   2.195
  652TIP3    H123515   4.832   2.204   2.208
  652TIP3    H223516   4.798   2.059   2.181
  653TIP3   OH223517   0.789   4.428   8.688
  653TIP3    H123518   0.837   4.458   8.610
  653TIP3    H223519   0.701   4.410   8.656
  654TIP3   OH223520   2.042   1.846   1.849
  654TIP3    H123521   2.024   1.926   1.899
  654TIP3    H223522   1.972   1.786   1.874
  655TIP3   OH223523   3.836   6.095   0.794
  655TIP3    H123524   3.884   6.165   0.838
  655TIP3    H223525   3.877   6.088   0.708
  656TIP3   OH223526   1.354   2.521   7.558
  656TIP3    H123527   1.336   2.495   7.649
  656TIP3    H223528   1.313   2.607   7.549
  657TIP3   OH223529   0.665   4.606   7.810
  657TIP3    H123530   0.687   4.584   7.719
  657TIP3    H223531   0.594   4.670   7.802
  658TIP3   OH223532   5.687   5.940   1.315
  658TIP3    H123533   5.609   5.940   1.370
  658TIP3    H223534   5.654   5.924   1.226
  659TIP3   OH223535   6.708   4.659   8.775
  659TIP3    H123536   6.724   4.598   8.703
  659TIP3    H223537   6.791   4.664   8.821
  660TIP3   OH223538   2.251   2.854   6.109
  660TIP3    H123539   2.205   2.932   6.078
  660TIP3    H223540   2.338   2.860   6.070
  661TIP3   OH223541   6.179   0.019   0.156
  661TIP3    H123542   6.185   0.000   0.249
  661TIP3    H223543   6.101   0.074   0.148
  662TIP3   OH223544   0.603   5.022   8.810
  662TIP3    H123545   0.693   5.051   8.800
  662TIP3    H223546   0.559   5.093   8.857
  663TIP3   OH223547   6.149   2.927   2.228
  663TIP3    H123548   6.150   2.832   2.239
  663TIP3    H223549   6.240   2.953   2.239
  664TIP3   OH223550   6.523   4.068   2.801
  664TIP3    H123551   6.564   4.134   2.747
  664TIP3    H223552   6.495   4.115   2.880
  665TIP3   OH223553   1.384   0.416   1.887
  665TIP3    H123554   1.462   0.366   1.911
  665TIP3    H223555   1.339   0.433   1.969
  666TIP3   OH223556   6.261   1.538   0.200
  666TIP3    H123557   6.191   1.603   0.193
  666TIP3    H223558   6.265   1.497   0.114
  667TIP3   OH223559   4.557   1.080   6.868
  667TIP3    H123560   4.521   1.135   6.798
  667TIP3    H223561   4.638   1.046   6.831
  668TIP3   OH223562   5.493   2.527   1.081
  668TIP3    H123563   5.469   2.518   1.173
  668TIP3    H223564   5.417   2.570   1.041
  669TIP3   OH223565   6.703   1.278   1.375
  669TIP3    H123566   6.627   1.263   1.431
  669TIP3    H223567   6.731   1.190   1.349
  670TIP3   OH223568   1.763   2.532   6.631
  670TIP3    H123569   1.830   2.593   6.602
  670TIP3    H223570   1.681   2.570   6.598
  671TIP3   OH223571   1.566   6.400   7.127
  671TIP3    H123572   1.575   6.494   7.108
  671TIP3    H223573   1.625   6.358   7.064
  672TIP3   OH223574   4.890   3.572   7.646
  672TIP3    H123575   4.803   3.532   7.642
  672TIP3    H223576   4.913   3.569   7.739
  673TIP3   OH223577   3.982   4.831   1.245
  673TIP3    H123578   3.905   4.806   1.297
  673TIP3    H223579   3.986   4.767   1.175
  674TIP3   OH223580   4.665   5.741   7.912
  674TIP3    H123581   4.634   5.760   7.823
  674TIP3    H223582   4.753   5.705   7.899
  675TIP3   OH223583   5.522   1.947   7.748
  675TIP3    H123584   5.558   1.967   7.834
  675TIP3    H223585   5.583   1.883   7.711
  676TIP3   OH223586   5.853   0.250   0.355
  676TIP3    H123587   5.851   0.337   0.396
  676TIP3    H223588   5.876   0.190   0.427
  677TIP3   OH223589   2.141   6.312   8.285
  677TIP3    H123590   2.058   6.303   8.332
  677TIP3    H223591   2.208   6.286   8.348
  678TIP3   OH223592   3.376   0.489   8.445
  678TIP3    H123593   3.395   0.533   8.363
  678TIP3    H223594   3.324   0.552   8.495
  679TIP3   OH223595   4.346   0.890   6.791
  679TIP3    H123596   4.327   0.927   6.705
  679TIP3    H223597   4.436   0.916   6.810
  680TIP3   OH223598   0.061   2.592   7.744
  680TIP3    H123599   0.001   2.536   7.794
  680TIP3    H223600   0.144   2.545   7.746
  681TIP3   OH223601   5.344   4.410   7.893
  681TIP3    H123602   5.292   4.425   7.972
  681TIP3    H223603   5.278   4.403   7.823
  682TIP3   OH223604   3.473   0.960   8.450
  682TIP3    H123605   3.413   0.931   8.519
  682TIP3    H223606   3.527   1.028   8.492
  683TIP3   OH223607   0.281   3.012   1.267
  683TIP3    H123608   0.299   2.986   1.357
  683TIP3    H223609   0.295   2.933   1.215
  684TIP3   OH223610   2.273   1.677   1.851
  684TIP3    H123611   2.248   1.592   1.887
  684TIP3    H223612   2.196   1.732   1.865
  685TIP3   OH223613   3.920   3.171   0.613
  685TIP3    H123614   3.834   3.213   0.620
  685TIP3    H223615   3.941   3.145   0.702
  686TIP3   OH223616   2.324   3.901   6.661
  686TIP3    H123617   2.382   3.961   6.708
  686TIP3    H223618   2.237   3.916   6.700
  687TIP3   OH223619   1.062   2.307   7.857
  687TIP3    H123620   1.148   2.280   7.825
  687TIP3    H223621   1.003   2.238   7.826
  688TIP3   OH223622   6.049   2.768   8.698
  688TIP3    H123623   6.089   2.705   8.757
  688TIP3    H223624   5.954   2.756   8.710
  689TIP3   OH223625   0.490   2.088   8.278
  689TIP3    H123626   0.527   2.124   8.197
  689TIP3    H223627   0.548   2.015   8.300
  690TIP3   OH223628   5.445   4.028   1.290
  690TIP3    H123629   5.490   3.979   1.222
  690TIP3    H223630   5.405   3.961   1.345
  691TIP3   OH223631   2.436   1.061   7.873
  691TIP3    H123632   2.507   1.002   7.898
  691TIP3    H223633   2.480   1.136   7.833
  692TIP3   OH223634   0.285   0.720   7.733
  692TIP3    H123635   0.228   0.643   7.732
  692TIP3    H223636   0.366   0.690   7.773
  693TIP3   OH223637   6.607   0.389   7.506
  693TIP3    H123638   6.673   0.339   7.459
  693TIP3    H223639   6.557   0.433   7.438
  694TIP3   OH223640   2.452   6.609   0.926
  694TIP3    H123641   2.368   6.613   0.973
  694TIP3    H223642   2.428   6.622   0.834
  695TIP3   OH223643   1.981   3.508   0.550
  695TIP3    H123644   2.071   3.526   0.579
  695TIP3    H223645   1.927   3.522   0.627
  696TIP3   OH223646   5.215   4.049   6.703
  696TIP3    H123647   5.252   3.962   6.687
  696TIP3    H223648   5.120   4.036   6.695
  697TIP3   OH223649   1.995   1.208   7.502
  697TIP3    H123650   1.900   1.203   7.495
  697TIP3    H223651   2.012   1.275   7.568
  698TIP3   OH223652   5.921   3.500   1.775
  698TIP3    H123653   5.880   3.548   1.703
  698TIP3    H223654   6.013   3.527   1.773
  699TIP3   OH223655   0.849   1.990   8.495
  699TIP3    H123656   0.810   2.026   8.574
  699TIP3    H223657   0.780   1.938   8.455
  700TIP3   OH223658   2.959   0.242   7.903
  700TIP3    H123659   2.869   0.221   7.929
  700TIP3    H223660   2.972   0.196   7.820
  701TIP3   OH223661   1.255   5.987   1.495
  701TIP3    H123662   1.236   5.969   1.587
  701TIP3    H223663   1.196   5.929   1.447
  702TIP3   OH223664   4.882   2.322   0.308
  702TIP3    H123665   4.827   2.348   0.382
  702TIP3    H223666   4.859   2.231   0.292
  703TIP3   OH223667   2.229   4.147   7.504
  703TIP3    H123668   2.193   4.235   7.495
  703TIP3    H223669   2.241   4.135   7.598
  704TIP3   OH223670   2.151   3.346   1.187
  704TIP3    H123671   2.056   3.339   1.188
  704TIP3    H223672   2.181   3.257   1.168
  705TIP3   OH223673   3.992   4.175   7.589
  705TIP3    H123674   3.925   4.124   7.544
  705TIP3    H223675   3.957   4.187   7.678
  706TIP3   OH223676   5.947   1.360   2.062
  706TIP3    H123677   5.908   1.273   2.053
  706TIP3    H223678   6.036   1.350   2.028
  707TIP3   OH223679   0.878   2.732   1.126
  707TIP3    H123680   0.819   2.669   1.168
  707TIP3    H223681   0.842   2.818   1.148
  708TIP3   OH223682   3.686   3.083   7.147
  708TIP3    H123683   3.697   3.058   7.055
  708TIP3    H223684   3.754   3.033   7.193
  709TIP3   OH223685   0.184   1.987   0.975
  709TIP3    H123686   0.126   2.055   1.011
  709TIP3    H223687   0.187   1.920   1.044
  710TIP3   OH223688   1.659   6.085   0.926
  710TIP3    H123689   1.709   6.166   0.929
  710TIP3    H223690   1.664   6.051   1.016
  711TIP3   OH223691   5.123   3.473   2.607
  711TIP3    H123692   5.088   3.409   2.670
  711TIP3    H223693   5.152   3.546   2.662
  712TIP3   OH223694   6.158   1.566   8.276
  712TIP3    H123695   6.080   1.614   8.302
  712TIP3    H223696   6.224   1.634   8.261
  713TIP3   OH223697   6.156   5.134   0.149
  713TIP3    H123698   6.098   5.113   0.222
  713TIP3    H223699   6.244   5.129   0.186
  714TIP3   OH223700   6.529   4.058   0.212
  714TIP3    H123701   6.438   4.081   0.196
  714TIP3    H223702   6.579   4.134   0.183
  715TIP3   OH223703   2.453   4.965   7.124
  715TIP3    H123704   2.484   5.015   7.049
  715TIP3    H223705   2.484   4.876   7.107
  716TIP3   OH223706   6.196   4.421   2.201
  716TIP3    H123707   6.191   4.515   2.183
  716TIP3    H223708   6.177   4.414   2.295
  717TIP3   OH223709   2.095   4.961   8.266
  717TIP3    H123710   2.110   4.904   8.191
  717TIP3    H223711   2.182   4.973   8.305
  718TIP3   OH223712   3.711   0.404   7.155
  718TIP3    H123713   3.686   0.321   7.195
  718TIP3    H223714   3.804   0.413   7.174
  719TIP3   OH223715   4.089   3.425   2.062
  719TIP3    H123716   4.092   3.441   2.156
  719TIP3    H223717   4.119   3.507   2.023
  720TIP3   OH223718   3.426   5.530   1.443
  720TIP3    H123719   3.479   5.579   1.506
  720TIP3    H223720   3.432   5.439   1.473
  721TIP3   OH223721   4.933   0.539   0.913
  721TIP3    H123722   4.956   0.629   0.934
  721TIP3    H223723   4.966   0.488   0.987
  722TIP3   OH223724   4.969   3.308   2.751
  722TIP3    H123725   4.878   3.291   2.774
  722TIP3    H223726   5.014   3.225   2.768
  723TIP3   OH223727   2.273   5.023   0.972
  723TIP3    H123728   2.347   5.053   1.024
  723TIP3    H223729   2.223   4.967   1.031
  724TIP3   OH223730   1.872   5.155   6.813
  724TIP3    H123731   1.893   5.185   6.725
  724TIP3    H223732   1.924   5.075   6.824
  725TIP3   OH223733   0.034   1.596   7.270
  725TIP3    H123734   0.124   1.565   7.259
  725TIP3    H223735   6.793   1.580   7.185
  726TIP3   OH223736   5.542   6.681   8.251
  726TIP3    H123737   5.555   6.712   8.341
  726TIP3    H223738   5.606   6.730   8.199
  727TIP3   OH223739   4.784   3.280   7.839
  727TIP3    H123740   4.829   3.287   7.754
  727TIP3    H223741   4.844   3.229   7.893
  728TIP3   OH223742   6.211   6.416   1.271
  728TIP3    H123743   6.181   6.503   1.246
  728TIP3    H223744   6.151   6.389   1.340
  729TIP3   OH223745   6.043   2.109   1.224
  729TIP3    H123746   6.088   2.083   1.304
  729TIP3    H223747   6.019   2.201   1.239
  730TIP3   OH223748   4.736   6.713   7.427
  730TIP3    H123749   4.762   6.795   7.468
  730TIP3    H223750   4.648   6.728   7.393
  731TIP3   OH223751   2.827   0.706   0.520
  731TIP3    H123752   2.893   0.637   0.523
  731TIP3    H223753   2.846   0.762   0.595
  732TIP3   OH223754   6.541   5.090   8.735
  732TIP3    H123755   6.538   5.149   8.811
  732TIP3    H223756   6.460   5.108   8.688
  733TIP3   OH223757   1.484   3.854   1.647
  733TIP3    H123758   1.410   3.914   1.640
  733TIP3    H223759   1.545   3.898   1.707
  734TIP3   OH223760   3.916   6.327   1.200
  734TIP3    H123761   3.949   6.252   1.249
  734TIP3    H223762   3.958   6.403   1.242
  735TIP3   OH223763   1.693   4.199   8.501
  735TIP3    H123764   1.717   4.115   8.464
  735TIP3    H223765   1.734   4.199   8.588
  736TIP3   OH223766   4.654   6.081   0.287
  736TIP3    H123767   4.567   6.094   0.250
  736TIP3    H223768   4.688   6.169   0.301
  737TIP3   OH223769   1.724   5.690   8.515
  737TIP3    H123770   1.665   5.765   8.521
  737TIP3    H223771   1.810   5.728   8.496
  738TIP3   OH223772   0.911   2.157   7.684
  738TIP3    H123773   0.980   2.128   7.624
  738TIP3    H223774   0.886   2.078   7.731
  739TIP3   OH223775   6.735   5.117   7.926
  739TIP3    H123776   6.646   5.090   7.902
  739TIP3    H223777   6.724   5.204   7.965
  740TIP3   OH223778   4.401   4.689   8.469
  740TIP3    H123779   4.393   4.730   8.382
  740TIP3    H223780   4.488   4.714   8.499
  741TIP3   OH223781   0.741   2.306   8.172
  741TIP3    H123782   0.691   2.301   8.091
  741TIP3    H223783   0.827   2.340   8.145
  742TIP3   OH223784   1.454   6.777   0.402
  742TIP3    H123785   1.362   6.757   0.386
  742TIP3    H223786   1.463   6.772   0.497
  743TIP3   OH223787   4.230   5.928   7.974
  743TIP3    H123788   4.206   5.854   8.031
  743TIP3    H223789   4.154   5.940   7.917
  744TIP3   OH223790   3.788   3.010   6.903
  744TIP3    H123791   3.720   3.027   6.838
  744TIP3    H223792   3.870   3.013   6.852
  745TIP3   OH223793   4.797   2.541   1.162
  745TIP3    H123794   4.852   2.612   1.132
  745TIP3    H223795   4.842   2.506   1.238
  746TIP3   OH223796   2.908   5.655   8.335
  746TIP3    H123797   2.858   5.579   8.365
  746TIP3    H223798   2.992   5.620   8.307
  747TIP3   OH223799   6.356   3.705   0.901
  747TIP3    H123800   6.363   3.784   0.954
  747TIP3    H223801   6.435   3.655   0.922
  748TIP3   OH223802   5.678   1.173   6.546
  748TIP3    H123803   5.606   1.112   6.560
  748TIP3    H223804   5.757   1.118   6.550
  749TIP3   OH223805   6.478   1.731   0.705
  749TIP3    H123806   6.426   1.662   0.664
  749TIP3    H223807   6.522   1.774   0.632
  750TIP3   OH223808   5.011   2.508   8.474
  750TIP3    H123809   5.067   2.434   8.499
  750TIP3    H223810   4.929   2.467   8.446
  751TIP3   OH223811   4.544   0.682   7.218
  751TIP3    H123812   4.476   0.748   7.206
  751TIP3    H223813   4.542   0.663   7.312
  752TIP3   OH223814   0.934   6.333   7.969
  752TIP3    H123815   0.940   6.323   7.874
  752TIP3    H223816   0.840   6.342   7.987
  753TIP3   OH223817   0.038   3.666   7.203
  753TIP3    H123818   0.132   3.675   7.220
  753TIP3    H223819   0.033   3.606   7.128
  754TIP3   OH223820   6.642   1.453   6.406
  754TIP3    H123821   6.713   1.408   6.452
  754TIP3    H223822   6.642   1.415   6.318
  755TIP3   OH223823   6.659   5.090   0.995
  755TIP3    H123824   6.631   5.006   1.030
  755TIP3    H223825   6.728   5.069   0.933
  756TIP3   OH223826   4.660   4.371   7.639
  756TIP3    H123827   4.591   4.410   7.585
  756TIP3    H223828   4.741   4.389   7.592
  757TIP3   OH223829   3.883   6.209   7.279
  757TIP3    H123830   3.804   6.254   7.308
  757TIP3    H223831   3.952   6.274   7.290
  758TIP3   OH223832   5.623   5.782   8.214
  758TIP3    H123833   5.572   5.814   8.288
  758TIP3    H223834   5.704   5.748   8.253
  759TIP3   OH223835   3.775   0.302   1.022
  759TIP3    H123836   3.722   0.381   1.035
  759TIP3    H223837   3.851   0.332   0.973
  760TIP3   OH223838   5.671   4.256   7.342
  760TIP3    H123839   5.766   4.265   7.339
  760TIP3    H223840   5.648   4.212   7.260
  761TIP3   OH223841   5.704   0.328   0.624
  761TIP3    H123842   5.680   0.353   0.535
  761TIP3    H223843   5.621   0.334   0.673
  762TIP3   OH223844   5.294   1.700   1.340
  762TIP3    H123845   5.249   1.735   1.416
  762TIP3    H223846   5.316   1.777   1.287
  763TIP3   OH223847   0.690   2.973   2.586
  763TIP3    H123848   0.607   2.942   2.621
  763TIP3    H223849   0.724   3.032   2.654
  764TIP3   OH223850   5.004   0.503   1.208
  764TIP3    H123851   5.043   0.528   1.292
  764TIP3    H223852   4.921   0.551   1.205
  765TIP3   OH223853   4.023   6.031   8.434
  765TIP3    H123854   3.970   6.067   8.362
  765TIP3    H223855   4.061   5.951   8.398
  766TIP3   OH223856   4.385   1.002   0.067
  766TIP3    H123857   4.375   0.997   8.833
  766TIP3    H223858   4.313   1.057   0.097
  767TIP3   OH223859   1.363   6.268   7.719
  767TIP3    H123860   1.304   6.319   7.774
  767TIP3    H223861   1.306   6.226   7.655
  768TIP3   OH223862   6.277   1.651   1.570
  768TIP3    H123863   6.190   1.671   1.604
  768TIP3    H223864   6.267   1.565   1.530
  769TIP3   OH223865   4.853   2.403   7.823
  769TIP3    H123866   4.896   2.417   7.739
  769TIP3    H223867   4.871   2.312   7.844
  770TIP3   OH223868   2.095   5.228   7.054
  770TIP3    H123869   2.063   5.149   7.097
  770TIP3    H223870   2.178   5.247   7.096
  771TIP3   OH223871   5.447   6.358   7.794
  771TIP3    H123872   5.505   6.347   7.868
  771TIP3    H223873   5.502   6.395   7.725
  772TIP3   OH223874   3.564   6.534   2.071
  772TIP3    H123875   3.564   6.511   1.979
  772TIP3    H223876   3.534   6.625   2.073
  773TIP3   OH223877   1.222   1.086   8.211
  773TIP3    H123878   1.243   1.169   8.254
  773TIP3    H223879   1.304   1.037   8.211
  774TIP3   OH223880   5.502   4.642   7.835
  774TIP3    H123881   5.597   4.629   7.833
  774TIP3    H223882   5.465   4.554   7.842
  775TIP3   OH223883   0.837   3.669   0.543
  775TIP3    H123884   0.818   3.607   0.613
  775TIP3    H223885   0.799   3.630   0.465
  776TIP3   OH223886   1.194   0.646   8.186
  776TIP3    H123887   1.285   0.670   8.204
  776TIP3    H223888   1.168   0.705   8.115
  777TIP3   OH223889   6.777   2.314   6.178
  777TIP3    H123890   6.716   2.373   6.223
  777TIP3    H223891   0.042   2.373   6.139
  778TIP3   OH223892   3.953   5.579   7.933
  778TIP3    H123893   3.868   5.621   7.942
  778TIP3    H223894   3.969   5.575   7.839
  779TIP3   OH223895   3.661   5.823   7.121
  779TIP3    H123896   3.728   5.809   7.055
  779TIP3    H223897   3.638   5.735   7.151
  780TIP3   OH223898   2.410   4.742   8.150
  780TIP3    H123899   2.466   4.748   8.228
  780TIP3    H223900   2.470   4.755   8.077
  781TIP3   OH223901   1.005   5.125   7.972
  781TIP3    H123902   1.018   5.030   7.970
  781TIP3    H223903   0.977   5.147   7.883
  782TIP3   OH223904   3.635   0.552   7.388
  782TIP3    H123905   3.547   0.546   7.426
  782TIP3    H223906   3.633   0.492   7.313
  783TIP3   OH223907   0.973   1.140   8.452
  783TIP3    H123908   0.882   1.138   8.425
  783TIP3    H223909   1.010   1.057   8.421
  784TIP3   OH223910   6.144   3.741   7.662
  784TIP3    H123911   6.203   3.713   7.592
  784TIP3    H223912   6.189   3.815   7.702
  785TIP3   OH223913   4.236   0.292   1.857
  785TIP3    H123914   4.288   0.367   1.884
  785TIP3    H223915   4.154   0.329   1.824
  786TIP3   OH223916   0.635   4.797   8.664
  786TIP3    H123917   0.686   4.743   8.725
  786TIP3    H223918   0.610   4.874   8.716
  787TIP3   OH223919   3.425   0.583   7.551
  787TIP3    H123920   3.358   0.638   7.590
  787TIP3    H223921   3.377   0.512   7.508
  788TIP3   OH223922   4.900   1.134   8.697
  788TIP3    H123923   4.814   1.171   8.716
  788TIP3    H223924   4.929   1.095   8.779
  789TIP3   OH223925   2.178   6.492   0.244
  789TIP3    H123926   2.151   6.583   0.238
  789TIP3    H223927   2.106   6.448   0.289
  790TIP3   OH223928   2.125   1.451   0.577
  790TIP3    H123929   2.204   1.455   0.524
  790TIP3    H223930   2.077   1.531   0.555
  791TIP3   OH223931   2.404   3.018   8.716
  791TIP3    H123932   2.442   2.944   8.670
  791TIP3    H223933   2.461   3.092   8.694
  792TIP3   OH223934   4.677   6.112   7.791
  792TIP3    H123935   4.598   6.063   7.811
  792TIP3    H223936   4.646   6.195   7.755
  793TIP3   OH223937   5.632   1.690   8.591
  793TIP3    H123938   5.680   1.770   8.615
  793TIP3    H223939   5.559   1.687   8.653
  794TIP3   OH223940   5.891   3.031   8.136
  794TIP3    H123941   5.845   3.006   8.216
  794TIP3    H223942   5.826   3.021   8.067
  795TIP3   OH223943   6.511   6.419   8.806
  795TIP3    H123944   6.580   6.366   8.844
  795TIP3    H223945   6.510   6.499   8.859
  796TIP3   OH223946   4.363   0.875   7.344
  796TIP3    H123947   4.306   0.947   7.317
  796TIP3    H223948   4.365   0.881   7.440
  797TIP3   OH223949   2.635   6.691   8.231
  797TIP3    H123950   2.603   6.764   8.283
  797TIP3    H223951   2.602   6.709   8.142
  798TIP3   OH223952   1.717   3.480   2.217
  798TIP3    H123953   1.707   3.483   2.312
  798TIP3    H223954   1.628   3.479   2.183
  799TIP3   OH223955   5.162   3.603   1.820
  799TIP3    H123956   5.195   3.693   1.819
  799TIP3    H223957   5.123   3.592   1.906
  800TIP3   OH223958   6.449   0.307   1.326
  800TIP3    H123959   6.502   0.242   1.281
  800TIP3    H223960   6.442   0.275   1.416
  801TIP3   OH223961   0.456   3.385   7.792
  801TIP3    H123962   0.521   3.452   7.811
  801TIP3    H223963   0.500   3.324   7.733
  802TIP3   OH223964   0.736   0.784   8.200
  802TIP3    H123965   0.754   0.877   8.214
  802TIP3    H223966   0.820   0.740   8.214
  803TIP3   OH223967   2.707   2.822   7.796
  803TIP3    H123968   2.669   2.756   7.853
  803TIP3    H223969   2.632   2.875   7.768
  804TIP3   OH223970   6.296   5.493   7.995
  804TIP3    H123971   6.303   5.397   7.994
  804TIP3    H223972   6.321   5.519   7.906
  805TIP3   OH223973   2.744   4.857   7.294
  805TIP3    H123974   2.810   4.804   7.250
  805TIP3    H223975   2.678   4.875   7.226
  806TIP3   OH223976   4.912   0.729   7.417
  806TIP3    H123977   4.892   0.647   7.371
  806TIP3    H223978   4.959   0.781   7.353
  807TIP3   OH223979   5.696   2.483   0.394
  807TIP3    H123980   5.610   2.506   0.431
  807TIP3    H223981   5.743   2.566   0.392
  808TIP3   OH223982   0.906   6.709   7.803
  808TIP3    H123983   0.941   6.627   7.838
  808TIP3    H223984   0.949   6.778   7.854
  809TIP3   OH223985   4.291   3.667   7.258
  809TIP3    H123986   4.357   3.608   7.294
  809TIP3    H223987   4.341   3.743   7.229
  810TIP3   OH223988   3.228   0.310   1.937
  810TIP3    H123989   3.273   0.359   1.869
  810TIP3    H223990   3.135   0.327   1.922
  811TIP3   OH223991   5.207   5.630   0.637
  811TIP3    H123992   5.231   5.603   0.548
  811TIP3    H223993   5.134   5.691   0.624
  812TIP3   OH223994   2.570   3.558   1.506
  812TIP3    H123995   2.657   3.542   1.541
  812TIP3    H223996   2.576   3.532   1.414
  813TIP3   OH223997   2.514   3.971   1.121
  813TIP3    H123998   2.555   4.050   1.157
  813TIP3    H223999   2.482   3.923   1.197
  814TIP3   OH224000   0.170   0.723   0.713
  814TIP3    H124001   0.252   0.771   0.726
  814TIP3    H224002   0.117   0.781   0.658
  815TIP3   OH224003   2.279   1.099   8.764
  815TIP3    H124004   2.253   1.059   8.847
  815TIP3    H224005   2.364   1.139   8.783
  816TIP3   OH224006   5.654   4.991   8.718
  816TIP3    H124007   5.650   5.083   8.743
  816TIP3    H224008   5.746   4.976   8.695
  817TIP3   OH224009   1.191   6.393   7.919
  817TIP3    H124010   1.223   6.424   8.003
  817TIP3    H224011   1.100   6.369   7.934
  818TIP3   OH224012   0.491   2.197   0.762
  818TIP3    H124013   0.458   2.223   0.848
  818TIP3    H224014   0.586   2.204   0.769
  819TIP3   OH224015   0.171   2.255   2.058
  819TIP3    H124016   0.221   2.301   2.126
  819TIP3    H224017   0.227   2.260   1.980
  820TIP3   OH224018   5.533   4.568   0.632
  820TIP3    H124019   5.507   4.656   0.658
  820TIP3    H224020   5.452   4.517   0.635
  821TIP3   OH224021   0.748   0.171   1.061
  821TIP3    H124022   0.729   0.222   1.140
  821TIP3    H224023   0.791   0.233   1.002
  822TIP3   OH224024   5.083   0.518   7.828
  822TIP3    H124025   5.057   0.457   7.897
  822TIP3    H224026   5.175   0.498   7.812
  823TIP3   OH224027   2.758   4.007   8.359
  823TIP3    H124028   2.841   4.038   8.322
  823TIP3    H224029   2.764   3.911   8.354
  824TIP3   OH224030   6.358   1.238   0.688
  824TIP3    H124031   6.358   1.273   0.777
  824TIP3    H224032   6.450   1.226   0.667
  825TIP3   OH224033   3.334   1.728   8.018
  825TIP3    H124034   3.396   1.718   7.946
  825TIP3    H224035   3.353   1.654   8.076
  826TIP3   OH224036   6.066   3.059   7.334
  826TIP3    H124037   6.080   2.965   7.340
  826TIP3    H224038   6.009   3.069   7.258
  827TIP3   OH224039   4.900   0.664   7.018
  827TIP3    H124040   4.895   0.615   7.100
  827TIP3    H224041   4.857   0.608   6.954
  828TIP3   OH224042   2.377   6.771   0.337
  828TIP3    H124043   2.435   0.006   0.269
  828TIP3    H224044   2.319   0.043   0.359
  829TIP3   OH224045   4.713   3.369   6.924
  829TIP3    H124046   4.722   3.390   7.017
  829TIP3    H224047   4.767   3.434   6.879
  830TIP3   OH224048   2.490   5.321   0.819
  830TIP3    H124049   2.403   5.296   0.851
  830TIP3    H224050   2.494   5.416   0.833
  831TIP3   OH224051   3.960   1.586   2.075
  831TIP3    H124052   4.018   1.662   2.063
  831TIP3    H224053   3.891   1.598   2.010
  832TIP3   OH224054   0.904   3.061   2.406
  832TIP3    H124055   0.930   3.117   2.479
  832TIP3    H224056   0.822   3.020   2.434
  833TIP3   OH224057   0.028   1.900   0.004
  833TIP3    H124058   6.763   1.847   8.819
  833TIP3    H224059   0.049   1.849   0.083
  834TIP3   OH224060   1.261   1.164   7.879
  834TIP3    H124061   1.207   1.230   7.924
  834TIP3    H224062   1.198   1.103   7.841
  835TIP3   OH224063   0.222   0.760   7.057
  835TIP3    H124064   0.251   0.754   6.966
  835TIP3    H224065   0.186   0.673   7.076
  836TIP3   OH224066   5.887   6.379   0.073
  836TIP3    H124067   5.881   6.299   0.126
  836TIP3    H224068   5.801   6.419   0.082
  837TIP3   OH224069   6.772   4.108   0.779
  837TIP3    H124070   6.774   4.094   0.684
  837TIP3    H224071   6.800   4.024   0.816
  838TIP3   OH224072   6.087   6.027   0.786
  838TIP3    H124073   6.162   6.068   0.830
  838TIP3    H224074   6.011   6.076   0.816
  839TIP3   OH224075   4.253   1.233   0.460
  839TIP3    H124076   4.171   1.185   0.452
  839TIP3    H224077   4.234   1.319   0.421
  840TIP3   OH224078   3.596   2.581   0.052
  840TIP3    H124079   3.602   2.502   8.858
  840TIP3    H224080   3.614   2.550   0.141
  841TIP3   OH224081   2.771   4.696   1.767
  841TIP3    H124082   2.815   4.713   1.850
  841TIP3    H224083   2.830   4.734   1.701
  842TIP3   OH224084   4.342   0.961   1.010
  842TIP3    H124085   4.263   0.965   1.064
  842TIP3    H224086   4.351   1.049   0.974
  843TIP3   OH224087   6.108   6.027   7.711
  843TIP3    H124088   6.168   6.078   7.658
  843TIP3    H224089   6.030   6.082   7.719
  844TIP3   OH224090   1.937   6.597   0.648
  844TIP3    H124091   1.927   6.502   0.644
  844TIP3    H224092   1.849   6.629   0.670
  845TIP3   OH224093   2.752   4.865   2.237
  845TIP3    H124094   2.782   4.940   2.185
  845TIP3    H224095   2.659   4.858   2.216
  846TIP3   OH224096   1.075   1.858   1.942
  846TIP3    H124097   1.142   1.814   1.995
  846TIP3    H224098   1.022   1.906   2.006
  847TIP3   OH224099   1.080   2.090   1.724
  847TIP3    H124100   1.002   2.052   1.765
  847TIP3    H224101   1.078   2.182   1.749
  848TIP3   OH224102   1.684   0.051   6.898
  848TIP3    H124103   1.703   0.145   6.893
  848TIP3    H224104   1.597   0.043   6.858
  849TIP3   OH224105   5.021   2.362   6.863
  849TIP3    H124106   4.972   2.334   6.940
  849TIP3    H224107   5.063   2.282   6.830
  850TIP3   OH224108   4.688   2.282   6.215
  850TIP3    H124109   4.699   2.362   6.266
  850TIP3    H224110   4.721   2.305   6.128
  851TIP3   OH224111   1.697   5.166   7.202
  851TIP3    H124112   1.643   5.097   7.164
  851TIP3    H224113   1.741   5.206   7.127
  852TIP3   OH224114   0.439   2.388   8.380
  852TIP3    H124115   0.360   2.424   8.339
  852TIP3    H224116   0.443   2.298   8.348
  853TIP3   OH224117   0.293   6.263   7.129
  853TIP3    H124118   0.340   6.333   7.082
  853TIP3    H224119   0.293   6.292   7.220
  854TIP3   OH224120   3.046   0.470   1.071
  854TIP3    H124121   2.979   0.457   1.139
  854TIP3    H224122   3.033   0.560   1.042
  855TIP3   OH224123   5.521   6.149   8.571
  855TIP3    H124124   5.551   6.212   8.505
  855TIP3    H224125   5.480   6.203   8.638
  856TIP3   OH224126   1.322   2.476   0.384
  856TIP3    H124127   1.332   2.383   0.364
  856TIP3    H224128   1.395   2.497   0.441
  857TIP3   OH224129   5.518   5.416   7.799
  857TIP3    H124130   5.551   5.501   7.826
  857TIP3    H224131   5.458   5.435   7.726
  858TIP3   OH224132   2.914   6.309   1.404
  858TIP3    H124133   2.963   6.325   1.484
  858TIP3    H224134   2.893   6.216   1.406
  859TIP3   OH224135   3.242   2.334   8.407
  859TIP3    H124136   3.150   2.314   8.422
  859TIP3    H224137   3.266   2.394   8.479
  860TIP3   OH224138   6.410   4.691   7.825
  860TIP3    H124139   6.367   4.776   7.810
  860TIP3    H224140   6.385   4.667   7.914
  861TIP3   OH224141   3.660   6.143   8.787
  861TIP3    H124142   3.717   6.079   8.745
  861TIP3    H224143   3.720   6.203   8.831
  862TIP3   OH224144   3.476   1.837   1.115
  862TIP3    H124145   3.401   1.866   1.063
  862TIP3    H224146   3.525   1.917   1.134
  863TIP3   OH224147   0.181   5.003   1.663
  863TIP3    H124148   0.142   4.955   1.736
  863TIP3    H224149   0.275   4.998   1.680
  864TIP3   OH224150   4.469   5.692   1.697
  864TIP3    H124151   4.508   5.648   1.621
  864TIP3    H224152   4.530   5.762   1.719
  865TIP3   OH224153   5.025   1.559   2.406
  865TIP3    H124154   5.118   1.562   2.427
  865TIP3    H224155   5.013   1.473   2.365
  866TIP3   OH224156   1.141   5.033   0.080
  866TIP3    H124157   1.233   5.058   0.073
  866TIP3    H224158   1.094   5.117   0.082
  867TIP3   OH224159   2.911   1.134   6.766
  867TIP3    H124160   2.960   1.122   6.685
  867TIP3    H224161   2.824   1.101   6.747
  868TIP3   OH224162   2.099   5.134   2.520
  868TIP3    H124163   2.148   5.206   2.482
  868TIP3    H224164   2.058   5.090   2.446
  869TIP3   OH224165   6.007   5.531   7.736
  869TIP3    H124166   6.071   5.600   7.722
  869TIP3    H224167   5.927   5.563   7.696
  870TIP3   OH224168   4.001   0.416   1.795
  870TIP3    H124169   3.908   0.437   1.793
  870TIP3    H224170   4.044   0.499   1.776
  871TIP3   OH224171   4.956   4.617   0.564
  871TIP3    H124172   4.942   4.523   0.564
  871TIP3    H224173   5.013   4.633   0.639
  872TIP3   OH224174   4.654   4.588   1.565
  872TIP3    H124175   4.685   4.505   1.601
  872TIP3    H224176   4.650   4.647   1.641
  873TIP3   OH224177   2.105   4.064   6.475
  873TIP3    H124178   2.169   4.089   6.408
  873TIP3    H224179   2.142   4.095   6.557
  874TIP3   OH224180   5.914   0.412   8.281
  874TIP3    H124181   5.891   0.323   8.255
  874TIP3    H224182   5.830   0.458   8.290
  875TIP3   OH224183   6.531   5.426   0.279
  875TIP3    H124184   6.502   5.508   0.240
  875TIP3    H224185   6.499   5.429   0.369
  876TIP3   OH224186   0.793   1.142   7.215
  876TIP3    H124187   0.757   1.068   7.166
  876TIP3    H224188   0.724   1.208   7.213
  877TIP3   OH224189   6.775   2.749   0.131
  877TIP3    H124190   0.054   2.786   0.096
  877TIP3    H224191   6.727   2.823   0.169
  878TIP3   OH224192   1.283   5.472   8.846
  878TIP3    H124193   1.207   5.443   0.036
  878TIP3    H224194   1.252   5.548   8.798
  879TIP3   OH224195   2.272   3.090   1.056
  879TIP3    H124196   2.310   3.002   1.060
  879TIP3    H224197   2.265   3.108   0.962
  880TIP3   OH224198   5.182   0.005   6.383
  880TIP3    H124199   5.198   0.096   6.356
  880TIP3    H224200   5.101   6.782   6.337
  881TIP3   OH224201   1.511   6.143   1.851
  881TIP3    H124202   1.556   6.168   1.931
  881TIP3    H224203   1.429   6.192   1.853
  882TIP3   OH224204   3.404   5.612   2.069
  882TIP3    H124205   3.331   5.578   2.017
  882TIP3    H224206   3.433   5.537   2.122
  883TIP3   OH224207   2.892   1.937   7.979
  883TIP3    H124208   2.827   1.946   8.049
  883TIP3    H224209   2.943   2.018   7.983
  884TIP3   OH224210   3.271   5.361   8.573
  884TIP3    H124211   3.251   5.396   8.486
  884TIP3    H224212   3.364   5.337   8.569
  885TIP3   OH224213   4.751   3.656   2.217
  885TIP3    H124214   4.696   3.638   2.293
  885TIP3    H224215   4.830   3.696   2.254
  886TIP3   OH224216   1.104   5.011   2.104
  886TIP3    H124217   1.044   4.939   2.088
  886TIP3    H224218   1.092   5.032   2.197
  887TIP3   OH224219   3.178   1.005   7.455
  887TIP3    H124220   3.104   0.944   7.459
  887TIP3    H224221   3.205   1.015   7.546
  888TIP3   OH224222   0.631   6.691   0.045
  888TIP3    H124223   0.643   6.778   0.084
  888TIP3    H224224   0.602   6.709   8.816
  889TIP3   OH224225   0.159   2.345   1.628
  889TIP3    H124226   0.123   2.377   1.711
  889TIP3    H224227   0.137   2.412   1.564
  890TIP3   OH224228   0.476   6.611   6.792
  890TIP3    H124229   0.547   6.549   6.776
  890TIP3    H224230   0.518   6.684   6.838
  891TIP3   OH224231   5.327   4.758   8.609
  891TIP3    H124232   5.235   4.760   8.585
  891TIP3    H224233   5.371   4.807   8.540
  892TIP3   OH224234   2.727   5.201   0.722
  892TIP3    H124235   2.716   5.206   0.627
  892TIP3    H224236   2.659   5.258   0.758
  893TIP3   OH224237   5.744   1.327   1.614
  893TIP3    H124238   5.669   1.373   1.653
  893TIP3    H224239   5.788   1.286   1.688
  894TIP3   OH224240   0.157   0.031   7.567
  894TIP3    H124241   0.172   0.124   7.555
  894TIP3    H224242   0.231   6.800   7.618
  895TIP3   OH224243   6.430   3.768   8.667
  895TIP3    H124244   6.504   3.827   8.653
  895TIP3    H224245   6.455   3.687   8.622
  896TIP3   OH224246   2.817   5.131   0.132
  896TIP3    H124247   2.812   5.210   0.078
  896TIP3    H224248   2.783   5.158   0.217
  897TIP3   OH224249   3.983   3.421   1.415
  897TIP3    H124250   3.897   3.450   1.385
  897TIP3    H224251   4.032   3.503   1.428
  898TIP3   OH224252   3.924   2.347   6.747
  898TIP3    H124253   4.012   2.310   6.755
  898TIP3    H224254   3.938   2.435   6.712
  899TIP3   OH224255   2.656   1.949   0.143
  899TIP3    H124256   2.572   1.919   0.109
  899TIP3    H224257   2.636   2.031   0.188
  900TIP3   OH224258   6.666   5.983   1.683
  900TIP3    H124259   6.724   5.941   1.747
  900TIP3    H224260   6.635   6.062   1.727
  901TIP3   OH224261   3.734   4.269   0.267
  901TIP3    H124262   3.780   4.205   0.213
  901TIP3    H224263   3.779   4.266   0.351
  902TIP3   OH224264   3.486   5.362   2.130
  902TIP3    H124265   3.574   5.368   2.167
  902TIP3    H224266   3.452   5.278   2.161
  903TIP3   OH224267   4.337   5.177   0.242
  903TIP3    H124268   4.393   5.202   0.315
  903TIP3    H224269   4.313   5.086   0.259
  904TIP3   OH224270   0.716   6.570   6.997
  904TIP3    H124271   0.728   6.525   6.913
  904TIP3    H224272   0.726   6.501   7.062
  905TIP3   OH224273   1.303   0.648   0.498
  905TIP3    H124274   1.365   0.577   0.514
  905TIP3    H224275   1.257   0.659   0.582
  906TIP3   OH224276   5.630   0.120   6.692
  906TIP3    H124277   5.599   0.164   6.613
  906TIP3    H224278   5.723   0.102   6.675
  907TIP3   OH224279   0.154   1.297   0.807
  907TIP3    H124280   0.144   1.222   0.865
  907TIP3    H224281   0.067   1.312   0.771
  908TIP3   OH224282   5.959   4.908   0.937
  908TIP3    H124283   5.917   4.968   0.999
  908TIP3    H224284   5.900   4.906   0.862
  909TIP3   OH224285   0.670   0.244   0.468
  909TIP3    H124286   0.611   0.194   0.412
  909TIP3    H224287   0.675   0.331   0.427
  910TIP3   OH224288   0.502   0.777   0.189
  910TIP3    H124289   0.431   0.721   0.220
  910TIP3    H224290   0.498   0.854   0.246
  911TIP3   OH224291   1.903   4.992   8.496
  911TIP3    H124292   1.971   5.043   8.541
  911TIP3    H224293   1.947   4.955   8.420
  912TIP3   OH224294   6.632   5.138   7.372
  912TIP3    H124295   6.604   5.065   7.427
  912TIP3    H224296   6.593   5.119   7.286
  913TIP3   OH224297   4.843   5.630   7.655
  913TIP3    H124298   4.860   5.685   7.578
  913TIP3    H224299   4.749   5.612   7.652
  914TIP3   OH224300   0.357   6.627   0.340
  914TIP3    H124301   0.346   6.536   0.314
  914TIP3    H224302   0.301   6.677   0.281
  915TIP3   OH224303   1.576   3.432   1.602
  915TIP3    H124304   1.524   3.354   1.586
  915TIP3    H224305   1.631   3.410   1.677
  916TIP3   OH224306   3.100   0.751   7.115
  916TIP3    H124307   3.058   0.836   7.125
  916TIP3    H224308   3.133   0.751   7.025
  917TIP3   OH224309   0.575   4.402   8.213
  917TIP3    H124310   0.577   4.309   8.233
  917TIP3    H224311   0.484   4.420   8.189
  918TIP3   OH224312   5.796   2.658   0.662
  918TIP3    H124313   5.744   2.710   0.600
  918TIP3    H224314   5.873   2.632   0.613
  919TIP3   OH224315   3.609   0.872   1.197
  919TIP3    H124316   3.622   0.808   1.268
  919TIP3    H224317   3.670   0.943   1.218
  920TIP3   OH224318   2.863   6.417   0.858
  920TIP3    H124319   2.925   6.462   0.800
  920TIP3    H224320   2.866   6.468   0.939
  921TIP3   OH224321   3.756   3.248   2.125
  921TIP3    H124322   3.792   3.200   2.199
  921TIP3    H224323   3.667   3.271   2.153
  922TIP3   OH224324   3.142   4.975   8.570
  922TIP3    H124325   3.187   5.041   8.517
  922TIP3    H224326   3.074   5.024   8.616
  923TIP3   OH224327   1.789   3.563   7.263
  923TIP3    H124328   1.706   3.553   7.309
  923TIP3    H224329   1.770   3.623   7.191
  924TIP3   OH224330   6.234   6.781   0.423
  924TIP3    H124331   6.323   0.003   0.451
  924TIP3    H224332   6.226   6.687   0.441
  925TIP3   OH224333   2.555   2.869   2.039
  925TIP3    H124334   2.477   2.816   2.025
  925TIP3    H224335   2.606   2.819   2.103
  926TIP3   OH224336   4.961   6.237   0.945
  926TIP3    H124337   4.954   6.201   0.856
  926TIP3    H224338   5.023   6.309   0.936
  927TIP3   OH224339   6.274   0.001   7.882
  927TIP3    H124340   6.293   6.792   7.976
  927TIP3    H224341   6.359   6.795   7.840
  928TIP3   OH224342   6.636   2.911   7.412
  928TIP3    H124343   6.730   2.920   7.432
  928TIP3    H224344   6.597   2.882   7.495
  929TIP3   OH224345   5.665   2.301   0.024
  929TIP3    H124346   5.755   2.301   8.852
  929TIP3    H224347   5.611   2.304   8.807
  930TIP3   OH224348   5.571   1.673   7.981
  930TIP3    H124349   5.634   1.697   7.913
  930TIP3    H224350   5.574   1.746   8.043
  931TIP3   OH224351   1.236   3.089   1.535
  931TIP3    H124352   1.164   3.140   1.574
  931TIP3    H224353   1.205   2.999   1.538
  932TIP3   OH224354   6.376   1.637   8.459
  932TIP3    H124355   6.339   1.554   8.489
  932TIP3    H224356   6.311   1.702   8.483
  933TIP3   OH224357   6.603   4.870   1.653
  933TIP3    H124358   6.689   4.858   1.692
  933TIP3    H224359   6.560   4.785   1.663
  934TIP3   OH224360   5.052   0.589   1.482
  934TIP3    H124361   4.958   0.573   1.488
  934TIP3    H224362   5.085   0.569   1.569
  935TIP3   OH224363   0.997   4.382   7.247
  935TIP3    H124364   1.009   4.397   7.153
  935TIP3    H224365   0.941   4.455   7.276
  936TIP3   OH224366   0.557   5.696   7.713
  936TIP3    H124367   0.599   5.609   7.713
  936TIP3    H224368   0.559   5.723   7.804
  937TIP3   OH224369   3.456   2.102   8.735
  937TIP3    H124370   3.372   2.096   8.781
  937TIP3    H224371   3.461   2.022   8.683
  938TIP3   OH224372   1.193   0.346   8.852
  938TIP3    H124373   1.212   0.338   8.759
  938TIP3    H224374   1.248   0.417   0.022
  939TIP3   OH224375   2.909   1.222   7.629
  939TIP3    H124376   2.895   1.269   7.546
  939TIP3    H224377   2.958   1.283   7.683
  940TIP3   OH224378   6.451   3.469   6.778
  940TIP3    H124379   6.537   3.445   6.745
  940TIP3    H224380   6.463   3.556   6.815
  941TIP3   OH224381   5.769   2.754   0.409
  941TIP3    H124382   5.698   2.817   0.415
  941TIP3    H224383   5.833   2.796   0.350
  942TIP3   OH224384   2.657   1.586   1.536
  942TIP3    H124385   2.714   1.536   1.595
  942TIP3    H224386   2.604   1.519   1.493
  943TIP3   OH224387   5.308   3.936   8.372
  943TIP3    H124388   5.398   3.969   8.367
  943TIP3    H224389   5.266   3.969   8.292
  944TIP3   OH224390   0.393   5.171   0.980
  944TIP3    H124391   0.448   5.169   0.902
  944TIP3    H224392   0.344   5.252   0.973
  945TIP3   OH224393   3.347   4.396   1.681
  945TIP3    H124394   3.355   4.300   1.676
  945TIP3    H224395   3.286   4.419   1.611
  946TIP3   OH224396   6.594   0.314   8.044
  946TIP3    H124397   6.686   0.287   8.045
  946TIP3    H224398   6.570   0.311   7.951
  947TIP3   OH224399   5.176   2.473   0.566
  947TIP3    H124400   5.115   2.516   0.507
  947TIP3    H224401   5.193   2.538   0.635
  948TIP3   OH224402   4.169   2.388   0.632
  948TIP3    H124403   4.096   2.434   0.672
  948TIP3    H224404   4.238   2.454   0.626
  949TIP3   OH224405   4.266   3.917   0.088
  949TIP3    H124406   4.291   3.846   0.028
  949TIP3    H224407   4.348   3.962   0.106
  950TIP3   OH224408   2.692   5.377   0.274
  950TIP3    H124409   2.704   5.466   0.306
  950TIP3    H224410   2.705   5.322   0.351
  951TIP3   OH224411   1.011   0.065   6.530
  951TIP3    H124412   1.101   0.044   6.504
  951TIP3    H224413   0.956   0.009   6.475
  952TIP3   OH224414   0.488   1.976   0.936
  952TIP3    H124415   0.537   1.980   0.854
  952TIP3    H224416   0.406   2.022   0.918
  953TIP3   OH224417   0.523   0.330   8.259
  953TIP3    H124418   0.561   0.389   8.323
  953TIP3    H224419   0.431   0.355   8.254
  954TIP3   OH224420   1.221   3.440   1.561
  954TIP3    H124421   1.194   3.350   1.581
  954TIP3    H224422   1.186   3.456   1.473
  955TIP3   OH224423   5.742   6.552   1.833
  955TIP3    H124424   5.824   6.518   1.797
  955TIP3    H224425   5.753   6.544   1.928
  956TIP3   OH224426   5.261   6.464   2.023
  956TIP3    H124427   5.236   6.510   2.103
  956TIP3    H224428   5.229   6.519   1.952
  957TIP3   OH224429   1.830   5.010   1.529
  957TIP3    H124430   1.885   4.986   1.604
  957TIP3    H224431   1.872   4.969   1.454
  958TIP3   OH224432   4.218   4.027   1.073
  958TIP3    H124433   4.278   4.093   1.106
  958TIP3    H224434   4.210   4.047   0.980
  959TIP3   OH224435   0.330   5.443   1.588
  959TIP3    H124436   0.241   5.476   1.573
  959TIP3    H224437   0.361   5.490   1.664
  960TIP3   OH224438   6.196   0.834   7.356
  960TIP3    H124439   6.141   0.912   7.341
  960TIP3    H224440   6.136   0.771   7.396
  961TIP3   OH224441   4.751   2.965   8.698
  961TIP3    H124442   4.712   2.899   8.641
  961TIP3    H224443   4.697   3.043   8.686
  962TIP3   OH224444   5.617   2.613   0.088
  962TIP3    H124445   5.600   2.600   8.855
  962TIP3    H224446   5.605   2.526   0.126
  963TIP3   OH224447   5.112   1.772   8.196
  963TIP3    H124448   5.022   1.791   8.220
  963TIP3    H224449   5.128   1.684   8.231
  964TIP3   OH224450   1.427   5.374   8.609
  964TIP3    H124451   1.390   5.369   8.697
  964TIP3    H224452   1.363   5.331   8.553
  965TIP3   OH224453   6.733   2.374   2.109
  965TIP3    H124454   0.014   2.337   2.074
  965TIP3    H224455   6.708   2.314   2.179
  966TIP3   OH224456   2.899   0.826   8.678
  966TIP3    H124457   2.909   0.920   8.663
  966TIP3    H224458   2.822   0.801   8.628
  967TIP3   OH224459   2.299   2.466   0.579
  967TIP3    H124460   2.288   2.542   0.522
  967TIP3    H224461   2.320   2.502   0.665
  968TIP3   OH224462   5.837   1.551   1.865
  968TIP3    H124463   5.745   1.579   1.869
  968TIP3    H224464   5.855   1.516   1.952
  969TIP3   OH224465   6.162   6.651   1.163
  969TIP3    H124466   6.199   6.731   1.200
  969TIP3    H224467   6.071   6.675   1.141
  970TIP3   OH224468   6.603   2.072   0.268
  970TIP3    H124469   6.572   2.033   0.186
  970TIP3    H224470   6.691   2.104   0.247
  971TIP3   OH224471   5.773   4.738   7.540
  971TIP3    H124472   5.752   4.825   7.508
  971TIP3    H224473   5.734   4.678   7.475
  972TIP3   OH224474   4.847   6.337   2.457
  972TIP3    H124475   4.935   6.340   2.419
  972TIP3    H224476   4.809   6.423   2.438
  973TIP3   OH224477   0.686   3.217   0.087
  973TIP3    H124478   0.641   3.224   0.171
  973TIP3    H224479   0.744   3.292   0.084
  974TIP3   OH224480   1.589   1.631   0.182
  974TIP3    H124481   1.557   1.693   0.116
  974TIP3    H224482   1.609   1.552   0.132
  975TIP3   OH224483   3.101   3.177   8.177
  975TIP3    H124484   3.103   3.170   8.272
  975TIP3    H224485   3.113   3.087   8.146
  976TIP3   OH224486   2.085   5.748   8.705
  976TIP3    H124487   2.080   5.836   8.741
  976TIP3    H224488   2.046   5.756   8.618
  977TIP3   OH224489   1.251   2.231   1.273
  977TIP3    H124490   1.195   2.197   1.343
  977TIP3    H224491   1.225   2.181   1.196
  978TIP3   OH224492   2.437   2.766   1.585
  978TIP3    H124493   2.514   2.803   1.542
  978TIP3    H224494   2.472   2.710   1.654
  979TIP3   OH224495   3.177   1.724   8.608
  979TIP3    H124496   3.218   1.803   8.574
  979TIP3    H224497   3.225   1.652   8.566
  980TIP3   OH224498   6.424   3.566   1.507
  980TIP3    H124499   6.376   3.623   1.447
  980TIP3    H224500   6.424   3.480   1.463
  981TIP3   OH224501   0.234   4.140   8.411
  981TIP3    H124502   0.170   4.101   8.351
  981TIP3    H224503   0.221   4.234   8.402
  982TIP3   OH224504   1.070   6.209   1.415
  982TIP3    H124505   1.060   6.243   1.504
  982TIP3    H224506   1.129   6.133   1.425
  983TIP3   OH224507   5.340   6.370   1.404
  983TIP3    H124508   5.375   6.441   1.458
  983TIP3    H224509   5.388   6.377   1.321
  984TIP3   OH224510   0.420   5.470   0.769
  984TIP3    H124511   0.433   5.399   0.706
  984TIP3    H224512   0.325   5.474   0.780
  985TIP3   OH224513   2.700   5.430   7.783
  985TIP3    H124514   2.610   5.406   7.808
  985TIP3    H224515   2.689   5.477   7.701
  986TIP3   OH224516   0.655   0.014   7.704
  986TIP3    H124517   0.689   0.093   7.661
  986TIP3    H224518   0.728   6.783   7.758
  987TIP3   OH224519   6.712   4.894   1.965
  987TIP3    H124520   6.754   4.979   1.976
  987TIP3    H224521   6.781   4.830   1.982
  988TIP3   OH224522   1.155   1.622   7.915
  988TIP3    H124523   1.119   1.703   7.950
  988TIP3    H224524   1.232   1.604   7.969
  989TIP3   OH224525   4.966   3.564   2.415
  989TIP3    H124526   5.020   3.522   2.483
  989TIP3    H224527   4.924   3.637   2.461
  990TIP3   OH224528   2.828   5.917   8.835
  990TIP3    H124529   2.825   5.867   8.753
  990TIP3    H224530   2.871   5.858   0.037
  991TIP3   OH224531   3.751   4.644   8.680
  991TIP3    H124532   3.715   4.644   8.768
  991TIP3    H224533   3.843   4.622   8.692
  992TIP3   OH224534   4.012   5.070   0.656
  992TIP3    H124535   3.943   5.108   0.602
  992TIP3    H224536   3.966   5.019   0.722
  993TIP3   OH224537   1.609   1.972   7.178
  993TIP3    H124538   1.520   1.999   7.159
  993TIP3    H224539   1.643   1.940   7.095
  994TIP3   OH224540   2.421   0.542   2.082
  994TIP3    H124541   2.512   0.552   2.054
  994TIP3    H224542   2.423   0.555   2.177
  995TIP3   OH224543   6.779   1.981   1.326
  995TIP3    H124544   0.036   1.905   1.314
  995TIP3    H224545   0.018   2.029   1.399
  996TIP3   OH224546   6.553   2.591   7.618
  996TIP3    H124547   6.556   2.683   7.644
  996TIP3    H224548   6.500   2.549   7.685
  997TIP3   OH224549   3.838   2.222   7.401
  997TIP3    H124550   3.902   2.206   7.332
  997TIP3    H224551   3.887   2.264   7.471
  998TIP3   OH224552   2.252   0.309   8.078
  998TIP3    H124553   2.329   0.315   8.021
  998TIP3    H224554   2.272   0.238   8.139
  999TIP3   OH224555   0.557   3.226   1.289
  999TIP3    H124556   0.495   3.185   1.228
  999TIP3    H224557   0.529   3.197   1.375
 1000TIP3   OH224558   0.362   2.734   8.716
 1000TIP3    H124559   0.295   2.705   8.653
 1000TIP3    H224560   0.312   2.759   8.794
 1001TIP3   OH224561   4.576   1.642   0.249
 1001TIP3    H124562   4.560   1.703   0.177
 1001TIP3    H224563   4.555   1.693   0.328
 1002TIP3   OH224564   6.508   2.035   6.632
 1002TIP3    H124565   6.550   2.105   6.581
 1002TIP3    H224566   6.580   1.980   6.661
 1003TIP3   OH224567   0.986   5.744   0.987
 1003TIP3    H124568   0.902   5.702   1.009
 1003TIP3    H224569   1.022   5.690   0.916
 1004TIP3   OH224570   3.679   5.716   7.720
 1004TIP3    H124571   3.623   5.666   7.660
 1004TIP3    H224572   3.725   5.778   7.665
 1005TIP3   OH224573   0.880   2.561   0.032
 1005TIP3    H124574   0.913   2.558   0.122
 1005TIP3    H224575   0.940   2.621   8.847
 1006TIP3   OH224576   4.176   0.546   1.240
 1006TIP3    H124577   4.086   0.513   1.242
 1006TIP3    H224578   4.204   0.546   1.331
 1007TIP3   OH224579   5.488   2.820   1.341
 1007TIP3    H124580   5.554   2.795   1.277
 1007TIP3    H224581   5.534   2.821   1.425
 1008TIP3   OH224582   1.028   1.364   7.873
 1008TIP3    H124583   1.061   1.452   7.891
 1008TIP3    H224584   0.941   1.378   7.836
 1009TIP3   OH224585   2.502   6.770   6.765
 1009TIP3    H124586   2.516   0.055   6.726
 1009TIP3    H224587   2.408   6.756   6.761
 1010TIP3   OH224588   5.665   6.608   2.902
 1010TIP3    H124589   5.718   6.664   2.845
 1010TIP3    H224590   5.575   6.628   2.879
 1011TIP3   OH224591   2.397   6.102   0.851
 1011TIP3    H124592   2.439   6.187   0.864
 1011TIP3    H224593   2.381   6.097   0.757
 1012TIP3   OH224594   2.024   0.188   7.961
 1012TIP3    H124595   2.066   0.146   8.036
 1012TIP3    H224596   2.038   0.282   7.975
 1013TIP3   OH224597   1.314   1.660   0.283
 1013TIP3    H124598   1.397   1.692   0.247
 1013TIP3    H224599   1.249   1.724   0.254
 1014TIP3   OH224600   4.835   5.170   1.641
 1014TIP3    H124601   4.742   5.188   1.626
 1014TIP3    H224602   4.880   5.248   1.610
 1015TIP3   OH224603   5.568   1.206   0.223
 1015TIP3    H124604   5.504   1.181   0.290
 1015TIP3    H224605   5.590   1.123   0.180
 1016TIP3   OH224606   4.771   4.645   1.030
 1016TIP3    H124607   4.784   4.649   0.936
 1016TIP3    H224608   4.779   4.552   1.052
 1017TIP3   OH224609   4.890   3.951   0.668
 1017TIP3    H124610   4.911   4.045   0.673
 1017TIP3    H224611   4.874   3.925   0.759
 1018TIP3   OH224612   3.389   2.226   2.189
 1018TIP3    H124613   3.462   2.167   2.211
 1018TIP3    H224614   3.388   2.227   2.093
 1019TIP3   OH224615   5.748   1.605   0.200
 1019TIP3    H124616   5.676   1.667   0.216
 1019TIP3    H224617   5.793   1.599   0.284
 1020TIP3   OH224618   1.742   4.010   8.293
 1020TIP3    H124619   1.781   4.083   8.244
 1020TIP3    H224620   1.680   3.971   8.232
 1021TIP3   OH224621   4.479   6.415   8.017
 1021TIP3    H124622   4.536   6.353   8.062
 1021TIP3    H224623   4.482   6.388   7.925
 1022TIP3   OH224624   5.160   5.230   8.215
 1022TIP3    H124625   5.124   5.201   8.131
 1022TIP3    H224626   5.211   5.156   8.247
 1023TIP3   OH224627   1.886   1.844   7.990
 1023TIP3    H124628   1.864   1.857   7.898
 1023TIP3    H224629   1.853   1.757   8.010
 1024TIP3   OH224630   3.149   0.302   1.582
 1024TIP3    H124631   3.112   0.234   1.526
 1024TIP3    H224632   3.097   0.298   1.663
 1025TIP3   OH224633   1.288   1.633   7.430
 1025TIP3    H124634   1.357   1.640   7.364
 1025TIP3    H224635   1.283   1.540   7.450
 1026TIP3   OH224636   4.160   2.583   7.309
 1026TIP3    H124637   4.175   2.530   7.388
 1026TIP3    H224638   4.122   2.664   7.341
 1027TIP3   OH224639   1.158   2.856   7.607
 1027TIP3    H124640   1.153   2.862   7.512
 1027TIP3    H224641   1.076   2.895   7.638
 1028TIP3   OH224642   5.577   5.918   1.061
 1028TIP3    H124643   5.510   5.872   1.010
 1028TIP3    H224644   5.582   6.004   1.019
 1029TIP3   OH224645   3.485   5.571   7.582
 1029TIP3    H124646   3.396   5.555   7.616
 1029TIP3    H224647   3.522   5.484   7.569
 1030TIP3   OH224648   5.893   2.766   1.373
 1030TIP3    H124649   5.806   2.751   1.337
 1030TIP3    H224650   5.951   2.710   1.322
 1031TIP3   OH224651   1.272   6.791   6.468
 1031TIP3    H124652   1.354   0.015   6.512
 1031TIP3    H224653   1.263   6.698   6.486
 1032TIP3   OH224654   0.836   0.601   1.641
 1032TIP3    H124655   0.765   0.544   1.670
 1032TIP3    H224656   0.864   0.564   1.557
 1033TIP3   OH224657   0.776   4.572   6.580
 1033TIP3    H124658   0.738   4.618   6.505
 1033TIP3    H224659   0.774   4.636   6.651
 1034TIP3   OH224660   2.767   0.327   0.750
 1034TIP3    H124661   2.763   0.350   0.843
 1034TIP3    H224662   2.737   0.237   0.746
 1035TIP3   OH224663   4.901   3.571   1.282
 1035TIP3    H124664   4.899   3.554   1.188
 1035TIP3    H224665   4.810   3.561   1.310
 1036TIP3   OH224666   0.272   5.459   8.557
 1036TIP3    H124667   0.287   5.545   8.598
 1036TIP3    H224668   0.281   5.397   8.629
 1037TIP3   OH224669   6.105   0.518   6.713
 1037TIP3    H124670   6.074   0.432   6.741
 1037TIP3    H224671   6.196   0.522   6.743
 1038TIP3   OH224672   3.849   1.748   1.270
 1038TIP3    H124673   3.842   1.736   1.175
 1038TIP3    H224674   3.759   1.744   1.301
 1039TIP3   OH224675   3.179   3.347   7.982
 1039TIP3    H124676   3.156   3.296   7.905
 1039TIP3    H224677   3.153   3.291   8.056
 1040TIP3   OH224678   5.295   5.398   1.392
 1040TIP3    H124679   5.219   5.402   1.451
 1040TIP3    H224680   5.344   5.478   1.412
 1041TIP3   OH224681   3.681   0.836   7.746
 1041TIP3    H124682   3.769   0.848   7.784
 1041TIP3    H224683   3.682   0.747   7.712
 1042TIP3   OH224684   5.068   3.213   1.391
 1042TIP3    H124685   5.058   3.253   1.477
 1042TIP3    H224686   5.029   3.126   1.400
 1043TIP3   OH224687   0.818   1.858   7.095
 1043TIP3    H124688   0.890   1.902   7.050
 1043TIP3    H224689   0.739   1.899   7.059
 1044TIP3   OH224690   5.785   2.356   7.608
 1044TIP3    H124691   5.857   2.392   7.556
 1044TIP3    H224692   5.721   2.427   7.613
 1045TIP3   OH224693   0.020   2.698   8.223
 1045TIP3    H124694   6.794   2.729   8.136
 1045TIP3    H224695   0.067   2.771   8.262
 1046TIP3   OH224696   4.225   1.570   7.422
 1046TIP3    H124697   4.221   1.524   7.506
 1046TIP3    H224698   4.249   1.502   7.359
 1047TIP3   OH224699   0.132   2.911   0.974
 1047TIP3    H124700   0.139   2.836   0.915
 1047TIP3    H224701   0.209   2.965   0.954
 1048TIP3   OH224702   0.478   3.829   1.827
 1048TIP3    H124703   0.556   3.856   1.777
 1048TIP3    H224704   0.502   3.744   1.865
 1049TIP3   OH224705   2.454   3.565   1.888
 1049TIP3    H124706   2.507   3.526   1.958
 1049TIP3    H224707   2.506   3.640   1.859
 1050TIP3   OH224708   0.178   1.781   7.532
 1050TIP3    H124709   0.209   1.812   7.447
 1050TIP3    H224710   0.175   1.686   7.524
 1051TIP3   OH224711   1.781   0.220   1.136
 1051TIP3    H124712   1.841   0.281   1.093
 1051TIP3    H224713   1.701   0.271   1.150
 1052TIP3   OH224714   0.143   5.736   1.525
 1052TIP3    H124715   0.070   5.795   1.504
 1052TIP3    H224716   0.212   5.762   1.464
 1053TIP3   OH224717   1.757   3.218   7.236
 1053TIP3    H124718   1.779   3.144   7.179
 1053TIP3    H224719   1.840   3.262   7.252
 1054TIP3   OH224720   2.642   3.925   1.523
 1054TIP3    H124721   2.658   3.987   1.452
 1054TIP3    H224722   2.711   3.945   1.587
 1055TIP3   OH224723   3.365   3.749   6.990
 1055TIP3    H124724   3.292   3.783   7.043
 1055TIP3    H224725   3.372   3.657   7.015
 1056TIP3   OH224726   6.281   2.473   7.185
 1056TIP3    H124727   6.358   2.421   7.164
 1056TIP3    H224728   6.243   2.431   7.262
 1057TIP3   OH224729   2.896   4.509   1.381
 1057TIP3    H124730   2.834   4.582   1.376
 1057TIP3    H224731   2.856   4.447   1.442
 1058TIP3   OH224732   6.257   5.230   0.540
 1058TIP3    H124733   6.214   5.290   0.601
 1058TIP3    H224734   6.199   5.154   0.536
 1059TIP3   OH224735   3.127   5.346   1.519
 1059TIP3    H124736   3.212   5.350   1.476
 1059TIP3    H224737   3.075   5.287   1.464
 1060TIP3   OH224738   5.517   1.413   8.609
 1060TIP3    H124739   5.461   1.459   8.671
 1060TIP3    H224740   5.531   1.327   8.648
 1061TIP3   OH224741   6.287   0.678   0.149
 1061TIP3    H124742   6.370   0.674   0.196
 1061TIP3    H224743   6.309   0.715   0.063
 1062TIP3   OH224744   3.944   3.451   8.494
 1062TIP3    H124745   3.892   3.458   8.574
 1062TIP3    H224746   3.954   3.357   8.480
 1063TIP3   OH224747   4.368   5.168   7.865
 1063TIP3    H124748   4.424   5.091   7.873
 1063TIP3    H224749   4.327   5.159   7.779
 1064TIP3   OH224750   5.298   3.871   1.794
 1064TIP3    H124751   5.337   3.861   1.708
 1064TIP3    H224752   5.370   3.900   1.850
 1065TIP3   OH224753   4.816   1.761   2.339
 1065TIP3    H124754   4.888   1.698   2.343
 1065TIP3    H224755   4.852   1.841   2.377
 1066TIP3   OH224756   3.156   3.840   0.663
 1066TIP3    H124757   3.135   3.837   0.569
 1066TIP3    H224758   3.160   3.748   0.689
 1067TIP3   OH224759   3.195   5.542   7.638
 1067TIP3    H124760   3.170   5.458   7.676
 1067TIP3    H224761   3.202   5.601   7.712
 1068TIP3   OH224762   5.192   1.639   7.593
 1068TIP3    H124763   5.145   1.622   7.512
 1068TIP3    H224764   5.128   1.621   7.662
 1069TIP3   OH224765   5.364   2.233   7.935
 1069TIP3    H124766   5.438   2.207   7.880
 1069TIP3    H224767   5.327   2.310   7.891
 1070TIP3   OH224768   4.816   1.879   7.321
 1070TIP3    H124769   4.901   1.900   7.359
 1070TIP3    H224770   4.822   1.909   7.230
 1071TIP3   OH224771   4.632   2.838   6.933
 1071TIP3    H124772   4.632   2.902   6.862
 1071TIP3    H224773   4.544   2.800   6.931
 1072TIP3   OH224774   0.500   0.070   6.648
 1072TIP3    H124775   0.452   0.096   6.569
 1072TIP3    H224776   0.592   0.086   6.627
 1073TIP3   OH224777   6.775   0.529   0.678
 1073TIP3    H124778   0.026   0.574   0.744
 1073TIP3    H224779   6.692   0.575   0.676
 1074TIP3   OH224780   2.965   5.171   7.941
 1074TIP3    H124781   2.939   5.100   8.000
 1074TIP3    H224782   2.912   5.246   7.968
 1075TIP3   OH224783   6.338   5.636   7.476
 1075TIP3    H124784   6.249   5.671   7.477
 1075TIP3    H224785   6.394   5.713   7.484
 1076TIP3   OH224786   4.605   3.566   1.068
 1076TIP3    H124787   4.512   3.574   1.092
 1076TIP3    H224788   4.648   3.536   1.148
 1077TIP3   OH224789   0.173   5.817   0.573
 1077TIP3    H124790   0.129   5.767   0.642
 1077TIP3    H224791   0.255   5.770   0.558
 1078TIP3   OH224792   3.153   3.996   7.620
 1078TIP3    H124793   3.072   3.992   7.570
 1078TIP3    H224794   3.175   3.905   7.637
 1079TIP3   OH224795   3.965   6.653   7.518
 1079TIP3    H124796   3.876   6.648   7.482
 1079TIP3    H224797   4.006   6.571   7.491
 1080TIP3   OH224798   5.246   0.591   8.081
 1080TIP3    H124799   5.285   0.505   8.066
 1080TIP3    H224800   5.266   0.641   8.002
 1081TIP3   OH224801   2.541   4.333   7.310
 1081TIP3    H124802   2.505   4.268   7.250
 1081TIP3    H224803   2.623   4.361   7.268
 1082TIP3   OH224804   4.602   2.237   7.576
 1082TIP3    H124805   4.512   2.207   7.560
 1082TIP3    H224806   4.645   2.161   7.616
 1083TIP3   OH224807   1.910   2.235   1.203
 1083TIP3    H124808   1.970   2.178   1.156
 1083TIP3    H224809   1.944   2.239   1.292
 1084TIP3   OH224810   4.850   0.739   1.723
 1084TIP3    H124811   4.871   0.762   1.814
 1084TIP3    H224812   4.839   0.822   1.678
 1085TIP3   OH224813   4.216   5.851   0.708
 1085TIP3    H124814   4.294   5.807   0.672
 1085TIP3    H224815   4.168   5.782   0.753
 1086TIP3   OH224816   4.773   1.196   8.275
 1086TIP3    H124817   4.854   1.152   8.300
 1086TIP3    H224818   4.713   1.179   8.347
 1087TIP3   OH224819   1.117   2.016   8.417
 1087TIP3    H124820   1.154   2.100   8.444
 1087TIP3    H224821   1.027   2.018   8.449
 1088TIP3   OH224822   0.625   2.938   1.405
 1088TIP3    H124823   0.712   2.942   1.445
 1088TIP3    H224824   0.633   2.988   1.324
 1089TIP3   OH224825   3.758   4.687   0.581
 1089TIP3    H124826   3.825   4.746   0.545
 1089TIP3    H224827   3.762   4.699   0.675
 1090TIP3   OH224828   0.174   1.925   6.229
 1090TIP3    H124829   0.213   2.001   6.185
 1090TIP3    H224830   0.107   1.894   6.169
 1091TIP3   OH224831   1.654   3.014   1.975
 1091TIP3    H124832   1.630   2.991   1.885
 1091TIP3    H224833   1.708   2.942   2.006
 1092TIP3   OH224834   1.298   4.743   0.998
 1092TIP3    H124835   1.367   4.752   1.064
 1092TIP3    H224836   1.311   4.655   0.962
 1093TIP3   OH224837   5.561   5.274   0.584
 1093TIP3    H124838   5.632   5.337   0.579
 1093TIP3    H224839   5.595   5.196   0.541
 1094TIP3   OH224840   4.089   4.025   1.782
 1094TIP3    H124841   4.149   3.979   1.841
 1094TIP3    H224842   4.006   3.979   1.791
 1095TIP3   OH224843   4.572   0.961   1.410
 1095TIP3    H124844   4.542   1.048   1.383
 1095TIP3    H224845   4.507   0.932   1.474
 1096TIP3   OH224846   4.938   0.375   1.762
 1096TIP3    H124847   5.000   0.448   1.753
 1096TIP3    H224848   4.863   0.401   1.707
 1097TIP3   OH224849   5.725   4.322   7.940
 1097TIP3    H124850   5.703   4.354   8.027
 1097TIP3    H224851   5.724   4.400   7.885
 1098TIP3   OH224852   5.082   4.134   1.649
 1098TIP3    H124853   5.170   4.129   1.612
 1098TIP3    H224854   5.079   4.218   1.694
 1099TIP3   OH224855   3.747   3.753   1.517
 1099TIP3    H124856   3.687   3.813   1.562
 1099TIP3    H224857   3.821   3.744   1.578
 1100TIP3   OH224858   3.741   3.977   6.649
 1100TIP3    H124859   3.825   4.016   6.622
 1100TIP3    H224860   3.706   3.939   6.568
 1101TIP3   OH224861   2.909   6.731   0.173
 1101TIP3    H124862   2.965   6.745   0.097
 1101TIP3    H224863   2.964   6.686   0.236
 1102TIP3   OH224864   2.564   3.373   7.374
 1102TIP3    H124865   2.496   3.315   7.339
 1102TIP3    H224866   2.583   3.434   7.302
 1103TIP3   OH224867   3.896   6.574   2.761
 1103TIP3    H124868   3.860   6.524   2.688
 1103TIP3    H224869   3.822   6.624   2.796
 1104TIP3   OH224870   4.773   1.590   7.497
 1104TIP3    H124871   4.734   1.505   7.515
 1104TIP3    H224872   4.825   1.610   7.575
 1105TIP3   OH224873   5.863   5.499   2.219
 1105TIP3    H124874   5.776   5.533   2.240
 1105TIP3    H224875   5.860   5.407   2.248
 1106TIP3   OH224876   0.125   6.575   1.028
 1106TIP3    H124877   0.183   6.618   1.090
 1106TIP3    H224878   0.154   6.484   1.026
 1107TIP3   OH224879   0.069   6.488   6.879
 1107TIP3    H124880   0.017   6.540   6.940
 1107TIP3    H224881   0.141   6.453   6.931
 1108TIP3   OH224882   3.494   3.054   0.174
 1108TIP3    H124883   3.540   3.030   0.255
 1108TIP3    H224884   3.564   3.067   0.110
 1109TIP3   OH224885   4.245   5.755   1.547
 1109TIP3    H124886   4.298   5.834   1.557
 1109TIP3    H224887   4.288   5.689   1.601
 1110TIP3   OH224888   2.440   1.330   8.064
 1110TIP3    H124889   2.423   1.312   7.971
 1110TIP3    H224890   2.524   1.376   8.065
 1111TIP3   OH224891   3.994   1.029   1.148
 1111TIP3    H124892   4.029   1.118   1.156
 1111TIP3    H224893   4.054   0.975   1.199
 1112TIP3   OH224894   6.662   4.621   7.477
 1112TIP3    H124895   6.653   4.575   7.560
 1112TIP3    H224896   6.571   4.633   7.447
 1113TIP3   OH224897   4.721   4.125   8.230
 1113TIP3    H124898   4.700   4.208   8.273
 1113TIP3    H224899   4.637   4.081   8.219
 1114TIP3   OH224900   2.076   2.313   0.725
 1114TIP3    H124901   2.109   2.377   0.787
 1114TIP3    H224902   2.077   2.358   0.640
 1115TIP3   OH224903   1.558   4.186   0.749
 1115TIP3    H124904   1.470   4.221   0.760
 1115TIP3    H224905   1.616   4.254   0.785
 1116TIP3   OH224906   1.382   5.357   1.499
 1116TIP3    H124907   1.469   5.356   1.540
 1116TIP3    H224908   1.345   5.271   1.517
 1117TIP3   OH224909   5.106   4.678   0.220
 1117TIP3    H124910   5.130   4.723   0.139
 1117TIP3    H224911   5.060   4.599   0.192
 1118TIP3   OH224912   6.427   2.021   7.033
 1118TIP3    H124913   6.457   1.934   7.010
 1118TIP3    H224914   6.467   2.038   7.118
 1119TIP3   OH224915   4.628   5.155   7.504
 1119TIP3    H124916   4.692   5.199   7.560
 1119TIP3    H224917   4.579   5.226   7.462
 1120TIP3   OH224918   6.054   3.137   8.494
 1120TIP3    H124919   6.023   3.214   8.541
 1120TIP3    H224920   6.093   3.172   8.414
 1121TIP3   OH224921   5.282   2.517   7.886
 1121TIP3    H124922   5.214   2.578   7.915
 1121TIP3    H224923   5.353   2.573   7.854
 1122TIP3   OH224924   3.939   0.856   7.797
 1122TIP3    H124925   4.026   0.835   7.831
 1122TIP3    H224926   3.949   0.855   7.702
 1123TIP3   OH224927   3.212   6.319   0.322
 1123TIP3    H124928   3.180   6.239   0.281
 1123TIP3    H224929   3.273   6.357   0.259
 1124TIP3   OH224930   4.627   4.313   7.928
 1124TIP3    H124931   4.646   4.318   7.835
 1124TIP3    H224932   4.648   4.401   7.962
 1125TIP3   OH224933   3.498   3.001   0.661
 1125TIP3    H124934   3.469   3.063   0.728
 1125TIP3    H224935   3.506   2.917   0.707
 1126TIP3   OH224936   1.791   0.535   8.059
 1126TIP3    H124937   1.767   0.603   8.122
 1126TIP3    H224938   1.882   0.555   8.036
 1127TIP3   OH224939   6.177   3.340   6.642
 1127TIP3    H124940   6.140   3.403   6.579
 1127TIP3    H224941   6.103   3.287   6.669
 1128TIP3   OH224942   5.789   5.299   8.026
 1128TIP3    H124943   5.709   5.341   8.058
 1128TIP3    H224944   5.766   5.264   7.941
 1129TIP3   OH224945   6.594   1.166   1.075
 1129TIP3    H124946   6.642   1.222   1.136
 1129TIP3    H224947   6.524   1.221   1.041
 1130TIP3   OH224948   2.438   5.408   7.809
 1130TIP3    H124949   2.393   5.477   7.760
 1130TIP3    H224950   2.382   5.331   7.799
 1131TIP3   OH224951   2.071   0.147   7.483
 1131TIP3    H124952   2.066   0.093   7.562
 1131TIP3    H224953   2.155   0.193   7.492
 1132TIP3   OH224954   6.012   0.371   1.210
 1132TIP3    H124955   5.924   0.400   1.236
 1132TIP3    H224956   6.018   0.281   1.241
 1133TIP3   OH224957   2.548   5.697   7.973
 1133TIP3    H124958   2.570   5.610   7.939
 1133TIP3    H224959   2.624   5.723   8.025
 1134TIP3   OH224960   0.446   5.959   7.257
 1134TIP3    H124961   0.424   6.035   7.311
 1134TIP3    H224962   0.386   5.890   7.287
 1135TIP3   OH224963   4.332   4.386   2.084
 1135TIP3    H124964   4.348   4.300   2.046
 1135TIP3    H224965   4.256   4.373   2.142
 1136TIP3   OH224966   5.127   5.055   1.372
 1136TIP3    H124967   5.204   5.010   1.404
 1136TIP3    H224968   5.077   4.988   1.325
 1137TIP3   OH224969   6.339   4.923   8.315
 1137TIP3    H124970   6.251   4.913   8.279
 1137TIP3    H224971   6.337   4.873   8.397
 1138TIP3   OH224972   1.187   4.385   2.843
 1138TIP3    H124973   1.207   4.318   2.909
 1138TIP3    H224974   1.244   4.458   2.865
 1139TIP3   OH224975   1.101   1.064   7.130
 1139TIP3    H124976   1.030   1.068   7.194
 1139TIP3    H224977   1.103   1.152   7.091
 1140TIP3   OH224978   2.209   4.163   1.266
 1140TIP3    H124979   2.271   4.212   1.212
 1140TIP3    H224980   2.142   4.227   1.289
 1141TIP3   OH224981   6.017   4.461   7.337
 1141TIP3    H124982   5.981   4.478   7.424
 1141TIP3    H224983   5.986   4.535   7.284
 1142TIP3   OH224984   5.038   5.060   6.602
 1142TIP3    H124985   5.071   5.109   6.527
 1142TIP3    H224986   5.109   5.063   6.666
 1143TIP3   OH224987   4.571   2.462   1.587
 1143TIP3    H124988   4.554   2.441   1.496
 1143TIP3    H224989   4.601   2.553   1.585
 1144TIP3   OH224990   2.066   6.305   8.026
 1144TIP3    H124991   2.096   6.302   8.116
 1144TIP3    H224992   2.101   6.225   7.986
 1145TIP3   OH224993   3.875   4.377   0.824
 1145TIP3    H124994   3.867   4.321   0.901
 1145TIP3    H224995   3.879   4.466   0.858
 1146TIP3   OH224996   5.748   6.684   7.855
 1146TIP3    H124997   5.780   6.763   7.810
 1146TIP3    H224998   5.656   6.678   7.831
 1147TIP3   OH224999   5.323   5.459   7.620
 1147TIP3    H125000   5.297   5.371   7.596
 1147TIP3    H225001   5.245   5.512   7.608
 1148TIP3   OH225002   3.657   2.692   1.176
 1148TIP3    H125003   3.703   2.772   1.200
 1148TIP3    H225004   3.599   2.719   1.104
 1149TIP3   OH225005   3.341   6.058   1.882
 1149TIP3    H125006   3.344   6.133   1.943
 1149TIP3    H225007   3.331   5.982   1.939
 1150TIP3   OH225008   4.521   4.336   1.053
 1150TIP3    H125009   4.580   4.284   0.998
 1150TIP3    H225010   4.468   4.272   1.099
 1151TIP3   OH225011   5.492   6.096   1.812
 1151TIP3    H125012   5.502   6.179   1.860
 1151TIP3    H225013   5.530   6.030   1.870
 1152TIP3   OH225014   6.650   3.208   0.306
 1152TIP3    H125015   6.586   3.271   0.340
 1152TIP3    H225016   6.734   3.238   0.341
 1153TIP3   OH225017   2.223   0.586   0.105
 1153TIP3    H125018   2.234   0.494   0.128
 1153TIP3    H225019   2.311   0.617   0.085
 1154TIP3   OH225020   0.831   5.044   1.613
 1154TIP3    H125021   0.754   5.055   1.557
 1154TIP3    H225022   0.812   4.964   1.663
 1155TIP3   OH225023   3.343   0.392   7.380
 1155TIP3    H125024   3.251   0.368   7.372
 1155TIP3    H225025   3.391   0.310   7.367
 1156TIP3   OH225026   0.477   1.657   7.398
 1156TIP3    H125027   0.407   1.655   7.333
 1156TIP3    H225028   0.528   1.578   7.380
 1157TIP3   OH225029   6.192   5.611   0.596
 1157TIP3    H125030   6.168   5.518   0.602
 1157TIP3    H225031   6.287   5.612   0.603
 1158TIP3   OH225032   5.920   3.258   1.721
 1158TIP3    H125033   5.910   3.340   1.768
 1158TIP3    H225034   5.982   3.207   1.774
 1159TIP3   OH225035   1.306   2.281   8.796
 1159TIP3    H125036   1.284   2.362   8.844
 1159TIP3    H225037   1.325   2.218   0.005
 1160TIP3   OH225038   5.569   0.639   7.202
 1160TIP3    H125039   5.583   0.588   7.123
 1160TIP3    H225040   5.615   0.590   7.271
 1161TIP3   OH225041   2.077   4.325   2.120
 1161TIP3    H125042   2.168   4.333   2.149
 1161TIP3    H225043   2.075   4.244   2.069
 1162TIP3   OH225044   0.633   2.992   7.402
 1162TIP3    H125045   0.540   3.013   7.397
 1162TIP3    H225046   0.638   2.898   7.385
 1163TIP3   OH225047   0.738   0.401   7.161
 1163TIP3    H125048   0.724   0.307   7.151
 1163TIP3    H225049   0.826   0.417   7.128
 1164TIP3   OH225050   4.259   4.826   2.198
 1164TIP3    H125051   4.217   4.907   2.228
 1164TIP3    H225052   4.321   4.804   2.268
 1165TIP3   OH225053   2.067   6.123   0.807
 1165TIP3    H125054   2.110   6.145   0.724
 1165TIP3    H225055   2.133   6.139   0.874
 1166TIP3   OH225056   6.407   5.039   0.789
 1166TIP3    H125057   6.372   4.986   0.718
 1166TIP3    H225058   6.428   4.977   0.858
 1167TIP3   OH225059   5.133   1.223   6.367
 1167TIP3    H125060   5.213   1.248   6.413
 1167TIP3    H225061   5.131   1.127   6.374
 1168TIP3   OH225062   4.326   3.694   7.649
 1168TIP3    H125063   4.401   3.644   7.681
 1168TIP3    H225064   4.342   3.784   7.678
 1169TIP3   OH225065   2.514   3.293   7.632
 1169TIP3    H125066   2.530   3.328   7.544
 1169TIP3    H225067   2.524   3.199   7.623
 1170TIP3   OH225068   6.713   5.556   8.432
 1170TIP3    H125069   6.780   5.569   8.499
 1170TIP3    H225070   6.663   5.480   8.462
 1171TIP3   OH225071   4.137   2.927   7.129
 1171TIP3    H125072   4.218   2.883   7.154
 1171TIP3    H225073   4.133   3.005   7.185
 1172TIP3   OH225074   3.537   4.314   1.275
 1172TIP3    H125075   3.558   4.233   1.322
 1172TIP3    H225076   3.444   4.330   1.295
 1173TIP3   OH225077   6.782   5.645   8.700
 1173TIP3    H125078   0.052   5.631   8.763
 1173TIP3    H225079   6.713   5.688   8.750
 1174TIP3   OH225080   4.619   2.664   7.354
 1174TIP3    H125081   4.618   2.620   7.439
 1174TIP3    H225082   4.616   2.592   7.291
 1175TIP3   OH225083   3.276   4.763   2.015
 1175TIP3    H125084   3.339   4.798   1.951
 1175TIP3    H225085   3.268   4.832   2.080
 1176TIP3   OH225086   2.048   1.922   2.217
 1176TIP3    H125087   2.046   1.826   2.219
 1176TIP3    H225088   2.139   1.944   2.202
 1177TIP3   OH225089   5.721   5.909   0.316
 1177TIP3    H125090   5.776   5.837   0.346
 1177TIP3    H225091   5.757   5.986   0.359
 1178TIP3   OH225092   4.010   5.997   0.614
 1178TIP3    H125093   3.948   5.930   0.587
 1178TIP3    H225094   4.074   5.950   0.668
 1179TIP3   OH225095   5.597   0.940   2.185
 1179TIP3    H125096   5.621   0.883   2.111
 1179TIP3    H225097   5.678   0.985   2.208
 1180TIP3   OH225098   0.801   3.490   0.038
 1180TIP3    H125099   0.767   3.566   8.853
 1180TIP3    H225100   0.893   3.512   0.057
 1181TIP3   OH225101   2.065   0.989   8.539
 1181TIP3    H125102   2.160   0.976   8.538
 1181TIP3    H225103   2.033   0.922   8.599
 1182TIP3   OH225104   1.974   0.798   8.059
 1182TIP3    H125105   2.035   0.872   8.059
 1182TIP3    H225106   1.921   0.811   8.137
 1183TIP3   OH225107   2.503   3.588   8.231
 1183TIP3    H125108   2.477   3.516   8.174
 1183TIP3    H225109   2.431   3.651   8.226
 1184TIP3   OH225110   0.342   4.959   2.027
 1184TIP3    H125111   0.278   4.906   1.981
 1184TIP3    H225112   0.406   4.896   2.061
 1185TIP3   OH225113   0.368   2.592   0.827
 1185TIP3    H125114   0.335   2.546   0.751
 1185TIP3    H225115   0.290   2.618   0.876
 1186TIP3   OH225116   2.610   2.276   8.787
 1186TIP3    H125117   2.538   2.227   8.746
 1186TIP3    H225118   2.649   2.214   8.848
 1187TIP3   OH225119   2.398   1.663   0.015
 1187TIP3    H125120   2.429   1.583   0.057
 1187TIP3    H225121   2.388   1.725   0.086
 1188TIP3   OH225122   2.618   5.893   0.204
 1188TIP3    H125123   2.701   5.924   0.169
 1188TIP3    H225124   2.585   5.832   0.137
 1189TIP3   OH225125   6.091   1.755   7.225
 1189TIP3    H125126   6.068   1.737   7.316
 1189TIP3    H225127   6.096   1.668   7.184
 1190TIP3   OH225128   0.465   1.057   1.497
 1190TIP3    H125129   0.469   1.146   1.461
 1190TIP3    H225130   0.401   1.063   1.569
 1191TIP3   OH225131   1.779   5.602   8.239
 1191TIP3    H125132   1.765   5.622   8.332
 1191TIP3    H225133   1.723   5.527   8.221
 1192TIP3   OH225134   3.947   1.470   1.293
 1192TIP3    H125135   4.029   1.496   1.251
 1192TIP3    H225136   3.918   1.548   1.341
 1193TIP3   OH225137   0.590   4.029   7.871
 1193TIP3    H125138   0.578   4.116   7.909
 1193TIP3    H225139   0.593   3.970   7.946
 1194TIP3   OH225140   3.713   2.751   7.879
 1194TIP3    H125141   3.701   2.656   7.877
 1194TIP3    H225142   3.654   2.781   7.947
 1195TIP3   OH225143   0.706   4.146   0.501
 1195TIP3    H125144   0.661   4.170   0.582
 1195TIP3    H225145   0.643   4.095   0.452
 1196TIP3   OH225146   5.287   1.367   2.657
 1196TIP3    H125147   5.291   1.432   2.587
 1196TIP3    H225148   5.217   1.396   2.714
 1197TIP3   OH225149   2.695   5.696   2.309
 1197TIP3    H125150   2.625   5.730   2.365
 1197TIP3    H225151   2.694   5.754   2.233
 1198TIP3   OH225152   0.716   6.336   8.710
 1198TIP3    H125153   0.682   6.330   8.799
 1198TIP3    H225154   0.775   6.261   8.702
 1199TIP3   OH225155   3.998   1.636   0.076
 1199TIP3    H125156   3.945   1.706   0.114
 1199TIP3    H225157   3.945   1.602   0.004
 1200TIP3   OH225158   6.383   0.444   6.744
 1200TIP3    H125159   6.454   0.505   6.728
 1200TIP3    H225160   6.425   0.358   6.751
 1201TIP3   OH225161   5.976   0.322   8.659
 1201TIP3    H125162   6.063   0.293   8.629
 1201TIP3    H225163   5.991   0.409   8.695
 1202TIP3   OH225164   6.618   3.833   0.768
 1202TIP3    H125165   6.607   3.755   0.824
 1202TIP3    H225166   6.673   3.802   0.696
 1203TIP3   OH225167   4.828   1.868   7.917
 1203TIP3    H125168   4.748   1.815   7.908
 1203TIP3    H225169   4.828   1.896   8.009
 1204TIP3   OH225170   0.531   1.847   8.630
 1204TIP3    H125171   0.522   1.831   8.536
 1204TIP3    H225172   0.533   1.943   8.637
 1205TIP3   OH225173   6.047   6.348   1.477
 1205TIP3    H125174   6.033   6.374   1.568
 1205TIP3    H225175   5.977   6.285   1.458
 1206TIP3   OH225176   3.884   2.574   1.006
 1206TIP3    H125177   3.963   2.538   1.047
 1206TIP3    H225178   3.825   2.592   1.080
 1207TIP3   OH225179   0.881   6.490   7.277
 1207TIP3    H125180   0.920   6.477   7.363
 1207TIP3    H225181   0.820   6.563   7.289
 1208TIP3   OH225182   5.937   0.751   7.841
 1208TIP3    H125183   5.951   0.710   7.927
 1208TIP3    H225184   6.015   0.729   7.792
 1209TIP3   OH225185   4.232   3.777   1.224
 1209TIP3    H125186   4.253   3.862   1.263
 1209TIP3    H225187   4.154   3.794   1.172
 1210TIP3   OH225188   1.002   2.106   0.146
 1210TIP3    H125189   1.019   2.126   0.239
 1210TIP3    H225190   1.084   2.070   0.114
 1211TIP3   OH225191   3.058   4.496   8.354
 1211TIP3    H125192   3.150   4.479   8.371
 1211TIP3    H225193   3.031   4.426   8.294
 1212TIP3   OH225194   3.625   0.713   1.417
 1212TIP3    H125195   3.582   0.701   1.502
 1212TIP3    H225196   3.637   0.625   1.383
 1213TIP3   OH225197   0.840   3.147   2.706
 1213TIP3    H125198   0.930   3.116   2.692
 1213TIP3    H225199   0.851   3.239   2.731
 1214TIP3   OH225200   6.261   2.672   1.001
 1214TIP3    H125201   6.255   2.588   0.956
 1214TIP3    H225202   6.352   2.677   1.029
 1215TIP3   OH225203   5.203   6.719   8.525
 1215TIP3    H125204   5.123   6.760   8.493
 1215TIP3    H225205   5.230   6.661   8.454
 1216TIP3   OH225206   3.049   3.686   1.283
 1216TIP3    H125207   3.016   3.714   1.197
 1216TIP3    H225208   2.999   3.607   1.303
 1217TIP3   OH225209   2.277   4.502   1.936
 1217TIP3    H125210   2.341   4.573   1.931
 1217TIP3    H225211   2.304   4.451   2.012
 1218TIP3   OH225212   5.587   5.377   1.991
 1218TIP3    H125213   5.590   5.330   2.074
 1218TIP3    H225214   5.574   5.468   2.015
 1219TIP3   OH225215   4.873   5.549   0.813
 1219TIP3    H125216   4.880   5.476   0.876
 1219TIP3    H225217   4.864   5.506   0.728
 1220TIP3   OH225218   2.802   6.027   7.085
 1220TIP3    H125219   2.803   6.121   7.065
 1220TIP3    H225220   2.893   6.007   7.104
 1221TIP3   OH225221   0.835   3.337   1.143
 1221TIP3    H125222   0.907   3.370   1.090
 1221TIP3    H225223   0.833   3.243   1.127
 1222TIP3   OH225224   3.388   2.247   1.071
 1222TIP3    H125225   3.363   2.292   0.990
 1222TIP3    H225226   3.477   2.278   1.089
 1223TIP3   OH225227   1.727   5.670   0.914
 1223TIP3    H125228   1.731   5.750   0.861
 1223TIP3    H225229   1.816   5.656   0.943
 1224TIP3   OH225230   6.100   5.732   6.205
 1224TIP3    H125231   6.005   5.732   6.211
 1224TIP3    H225232   6.129   5.702   6.291
 1225TIP3   OH225233   3.204   1.700   6.921
 1225TIP3    H125234   3.286   1.750   6.921
 1225TIP3    H225235   3.174   1.703   6.831
 1226TIP3   OH225236   5.031   4.827   1.257
 1226TIP3    H125237   5.018   4.853   1.165
 1226TIP3    H225238   4.947   4.788   1.283
 1227TIP3   OH225239   5.753   1.112   0.758
 1227TIP3    H125240   5.666   1.132   0.724
 1227TIP3    H225241   5.811   1.175   0.716
 1228TIP3   OH225242   5.954   0.171   0.097
 1228TIP3    H125243   5.938   0.231   0.025
 1228TIP3    H225244   5.893   0.197   0.165
 1229TIP3   OH225245   4.477   3.346   0.855
 1229TIP3    H125246   4.392   3.302   0.841
 1229TIP3    H225247   4.456   3.439   0.853
 1230TIP3   OH225248   4.775   3.233   1.274
 1230TIP3    H125249   4.732   3.243   1.190
 1230TIP3    H225250   4.851   3.291   1.270
 1231TIP3   OH225251   2.212   3.273   6.931
 1231TIP3    H125252   2.133   3.220   6.928
 1231TIP3    H225253   2.187   3.350   6.984
 1232TIP3   OH225254   4.277   1.758   8.644
 1232TIP3    H125255   4.215   1.831   8.645
 1232TIP3    H225256   4.256   1.708   8.722
 1233TIP3   OH225257   4.796   0.528   1.546
 1233TIP3    H125258   4.827   0.587   1.615
 1233TIP3    H225259   4.755   0.587   1.482
 1234TIP3   OH225260   5.856   4.643   0.390
 1234TIP3    H125261   5.935   4.619   0.342
 1234TIP3    H225262   5.842   4.570   0.450
 1235TIP3   OH225263   5.862   4.909   7.773
 1235TIP3    H125264   5.880   4.871   7.687
 1235TIP3    H225265   5.766   4.905   7.781
 1236TIP3   OH225266   1.965   5.781   8.468
 1236TIP3    H125267   2.001   5.709   8.416
 1236TIP3    H225268   1.958   5.854   8.406
 1237TIP3   OH225269   2.055   2.554   6.848
 1237TIP3    H125270   1.974   2.521   6.885
 1237TIP3    H225271   2.070   2.501   6.770
 1238TIP3   OH225272   1.385   6.119   8.843
 1238TIP3    H125273   1.439   6.041   8.858
 1238TIP3    H225274   1.447   6.185   8.812
 1239TIP3   OH225275   0.233   4.829   2.458
 1239TIP3    H125276   0.223   4.756   2.519
 1239TIP3    H225277   0.327   4.844   2.455
 1240TIP3   OH225278   4.347   3.451   1.914
 1240TIP3    H125279   4.319   3.361   1.895
 1240TIP3    H225280   4.286   3.506   1.864
 1241TIP3   OH225281   4.744   4.641   0.771
 1241TIP3    H125282   4.681   4.570   0.774
 1241TIP3    H225283   4.765   4.651   0.678
 1242TIP3   OH225284   4.936   0.497   8.554
 1242TIP3    H125285   4.901   0.483   8.642
 1242TIP3    H225286   4.865   0.471   8.496
 1243TIP3   OH225287   0.246   5.076   0.676
 1243TIP3    H125288   0.330   5.120   0.664
 1243TIP3    H225289   0.217   5.054   0.588
 1244TIP3   OH225290   0.540   2.876   2.000
 1244TIP3    H125291   0.452   2.914   2.004
 1244TIP3    H225292   0.528   2.787   2.034
 1245TIP3   OH225293   0.332   2.269   1.086
 1245TIP3    H125294   0.282   2.295   1.008
 1245TIP3    H225295   0.413   2.320   1.080
 1246TIP3   OH225296   1.357   5.300   7.124
 1246TIP3    H125297   1.390   5.375   7.173
 1246TIP3    H225298   1.270   5.285   7.160
 1247TIP3   OH225299   5.373   0.969   8.410
 1247TIP3    H125300   5.335   0.885   8.384
 1247TIP3    H225301   5.441   0.946   8.473
 1248TIP3   OH225302   0.140   6.438   6.610
 1248TIP3    H125303   0.082   6.461   6.683
 1248TIP3    H225304   0.114   6.349   6.587
 1249TIP3   OH225305   5.477   5.686   1.189
 1249TIP3    H125306   5.531   5.612   1.215
 1249TIP3    H225307   5.537   5.760   1.184
 1250TIP3   OH225308   4.103   1.841   1.520
 1250TIP3    H125309   4.035   1.775   1.532
 1250TIP3    H225310   4.071   1.918   1.566
 1251TIP3   OH225311   5.950   0.021   0.471
 1251TIP3    H125312   5.933   6.736   0.430
 1251TIP3    H225313   6.045   0.025   0.478
 1252TIP3   OH225314   0.482   5.163   7.216
 1252TIP3    H125315   0.449   5.075   7.200
 1252TIP3    H225316   0.461   5.180   7.308
 1253TIP3   OH225317   1.557   0.544   8.688
 1253TIP3    H125318   1.603   0.499   8.617
 1253TIP3    H225319   1.563   0.484   8.762
 1254TIP3   OH225320   1.517   3.198   0.778
 1254TIP3    H125321   1.492   3.130   0.715
 1254TIP3    H225322   1.443   3.203   0.838
 1255TIP3   OH225323   1.669   2.678   6.932
 1255TIP3    H125324   1.684   2.585   6.948
 1255TIP3    H225325   1.747   2.707   6.885
 1256TIP3   OH225326   3.379   6.760   8.353
 1256TIP3    H125327   3.335   0.044   8.341
 1256TIP3    H225328   3.308   6.696   8.354
 1257TIP3   OH225329   2.389   1.942   1.834
 1257TIP3    H125330   2.325   1.872   1.817
 1257TIP3    H225331   2.448   1.905   1.899
 1258TIP3   OH225332   4.266   4.654   7.946
 1258TIP3    H125333   4.226   4.569   7.961
 1258TIP3    H225334   4.349   4.635   7.902
 1259TIP3   OH225335   4.874   3.472   1.795
 1259TIP3    H125336   4.789   3.431   1.814
 1259TIP3    H225337   4.856   3.566   1.797
 1260TIP3   OH225338   5.209   2.039   8.387
 1260TIP3    H125339   5.283   2.037   8.327
 1260TIP3    H225340   5.222   1.963   8.444
 1261TIP3   OH225341   0.867   5.976   1.895
 1261TIP3    H125342   0.789   6.000   1.844
 1261TIP3    H225343   0.834   5.956   1.982
 1262TIP3   OH225344   1.783   1.605   8.045
 1262TIP3    H125345   1.845   1.593   8.118
 1262TIP3    H225346   1.751   1.517   8.027
 1263TIP3   OH225347   5.662   5.481   1.218
 1263TIP3    H125348   5.723   5.466   1.290
 1263TIP3    H225349   5.714   5.527   1.152
 1264TIP3   OH225350   6.693   2.249   1.745
 1264TIP3    H125351   6.600   2.245   1.725
 1264TIP3    H225352   6.728   2.314   1.685
 1265TIP3   OH225353   1.334   5.634   1.936
 1265TIP3    H125354   1.313   5.663   2.024
 1265TIP3    H225355   1.365   5.713   1.891
 1266TIP3   OH225356   2.099   0.524   8.070
 1266TIP3    H125357   2.128   0.556   7.985
 1266TIP3    H225358   2.153   0.447   8.087
 1267TIP3   OH225359   4.778   1.152   7.683
 1267TIP3    H125360   4.741   1.239   7.699
 1267TIP3    H225361   4.784   1.145   7.588
 1268TIP3   OH225362   6.583   1.905   2.287
 1268TIP3    H125363   6.603   1.834   2.226
 1268TIP3    H225364   6.493   1.931   2.266
 1269TIP3   OH225365   5.796   2.677   7.987
 1269TIP3    H125366   5.780   2.768   7.963
 1269TIP3    H225367   5.865   2.681   8.053
 1270TIP3   OH225368   1.179   3.956   2.499
 1270TIP3    H125369   1.105   3.905   2.466
 1270TIP3    H225370   1.163   3.962   2.593
 1271TIP3   OH225371   1.868   6.274   8.405
 1271TIP3    H125372   1.857   6.181   8.421
 1271TIP3    H225373   1.887   6.312   8.491
 1272TIP3   OH225374   5.861   2.014   1.512
 1272TIP3    H125375   5.915   1.961   1.453
 1272TIP3    H225376   5.896   1.997   1.599
 1273TIP3   OH225377   2.052   4.117   8.725
 1273TIP3    H125378   2.143   4.092   8.742
 1273TIP3    H225379   2.033   4.079   8.639
 1274TIP3   OH225380   6.567   5.749   8.295
 1274TIP3    H125381   6.617   5.694   8.356
 1274TIP3    H225382   6.616   5.831   8.291
 1275TIP3   OH225383   0.124   2.701   7.502
 1275TIP3    H125384   0.185   2.637   7.465
 1275TIP3    H225385   0.090   2.659   7.581
 1276TIP3   OH225386   3.399   4.362   7.251
 1276TIP3    H125387   3.473   4.305   7.271
 1276TIP3    H225388   3.321   4.308   7.265
 1277TIP3   OH225389   3.311   2.436   7.488
 1277TIP3    H125390   3.280   2.471   7.405
 1277TIP3    H225391   3.292   2.505   7.552
 1278TIP3   OH225392   6.102   1.880   0.759
 1278TIP3    H125393   6.132   1.825   0.687
 1278TIP3    H225394   6.034   1.935   0.720
 1279TIP3   OH225395   4.844   4.149   1.506
 1279TIP3    H125396   4.929   4.143   1.549
 1279TIP3    H225397   4.838   4.240   1.477
 1280TIP3   OH225398   2.225   6.152   7.313
 1280TIP3    H125399   2.154   6.205   7.350
 1280TIP3    H225400   2.222   6.070   7.362
 1281TIP3   OH225401   3.052   2.472   1.572
 1281TIP3    H125402   3.069   2.394   1.520
 1281TIP3    H225403   3.019   2.439   1.655
 1282TIP3   OH225404   0.685   0.149   7.969
 1282TIP3    H125405   0.780   0.140   7.959
 1282TIP3    H225406   0.649   0.072   7.925
 1283TIP3   OH225407   6.580   3.842   2.329
 1283TIP3    H125408   6.522   3.863   2.257
 1283TIP3    H225409   6.639   3.917   2.336
 1284TIP3   OH225410   4.369   4.114   2.022
 1284TIP3    H125411   4.446   4.068   2.056
 1284TIP3    H225412   4.305   4.045   2.006
 1285TIP3   OH225413   0.171   6.651   2.045
 1285TIP3    H125414   0.153   6.675   2.136
 1285TIP3    H225415   0.239   6.713   2.017
 1286TIP3   OH225416   4.140   0.447   8.286
 1286TIP3    H125417   4.102   0.492   8.362
 1286TIP3    H225418   4.201   0.384   8.324
 1287TIP3   OH225419   0.132   2.097   2.362
 1287TIP3    H125420   0.176   2.155   2.300
 1287TIP3    H225421   0.150   2.135   2.448
 1288TIP3   OH225422   3.229   2.358   1.285
 1288TIP3    H125423   3.177   2.284   1.317
 1288TIP3    H225424   3.285   2.321   1.217
 1289TIP3   OH225425   0.615   3.909   8.385
 1289TIP3    H125426   0.653   3.984   8.430
 1289TIP3    H225427   0.602   3.939   8.295
 1290TIP3   OH225428   4.742   3.011   7.702
 1290TIP3    H125429   4.720   3.033   7.611
 1290TIP3    H225430   4.830   2.975   7.697
 1291TIP3   OH225431   3.425   3.499   7.973
 1291TIP3    H125432   3.344   3.449   7.981
 1291TIP3    H225433   3.477   3.473   8.049
 1292TIP3   OH225434   3.828   1.510   0.727
 1292TIP3    H125435   3.856   1.486   0.639
 1292TIP3    H225436   3.891   1.467   0.785
 1293TIP3   OH225437   1.683   0.778   8.699
 1293TIP3    H125438   1.756   0.768   8.639
 1293TIP3    H225439   1.624   0.707   8.677
 1294TIP3   OH225440   4.232   1.499   0.342
 1294TIP3    H125441   4.234   1.537   0.429
 1294TIP3    H225442   4.193   1.566   0.287
 1295TIP3   OH225443   5.842   3.108   0.903
 1295TIP3    H125444   5.847   3.140   0.993
 1295TIP3    H225445   5.898   3.031   0.901
 1296TIP3   OH225446   1.367   1.366   7.208
 1296TIP3    H125447   1.364   1.286   7.260
 1296TIP3    H225448   1.314   1.347   7.130
 1297TIP3   OH225449   2.185   3.569   0.705
 1297TIP3    H125450   2.267   3.521   0.715
 1297TIP3    H225451   2.212   3.660   0.690
 1298TIP3   OH225452   6.108   3.859   8.366
 1298TIP3    H125453   6.151   3.774   8.372
 1298TIP3    H225454   6.179   3.922   8.367
 1299TIP3   OH225455   4.673   0.148   8.221
 1299TIP3    H125456   4.632   0.091   8.287
 1299TIP3    H225457   4.646   0.236   8.245
 1300TIP3   OH225458   3.771   1.548   1.852
 1300TIP3    H125459   3.707   1.616   1.829
 1300TIP3    H225460   3.756   1.478   1.789
 1301TIP3   OH225461   2.952   4.970   1.861
 1301TIP3    H125462   2.892   4.988   1.788
 1301TIP3    H225463   3.004   5.049   1.870
 1302TIP3   OH225464   2.877   5.689   0.152
 1302TIP3    H125465   2.965   5.717   0.179
 1302TIP3    H225466   2.880   5.594   0.158
 1303TIP3   OH225467   4.045   3.020   0.271
 1303TIP3    H125468   4.056   2.957   0.343
 1303TIP3    H225469   4.110   3.088   0.289
 1304TIP3   OH225470   4.859   2.055   6.216
 1304TIP3    H125471   4.919   2.100   6.276
 1304TIP3    H225472   4.780   2.108   6.217
 1305TIP3   OH225473   2.162   5.705   1.877
 1305TIP3    H125474   2.091   5.703   1.941
 1305TIP3    H225475   2.200   5.793   1.886
 1306TIP3   OH225476   4.792   1.585   1.305
 1306TIP3    H125477   4.835   1.668   1.326
 1306TIP3    H225478   4.818   1.566   1.215
 1307TIP3   OH225479   0.304   5.175   7.723
 1307TIP3    H125480   0.302   5.236   7.797
 1307TIP3    H225481   0.265   5.095   7.757
 1308TIP3   OH225482   0.124   2.891   1.883
 1308TIP3    H125483   0.170   2.945   1.819
 1308TIP3    H225484   0.155   2.924   1.968
 1309TIP3   OH225485   4.936   1.397   7.953
 1309TIP3    H125486   4.892   1.313   7.944
 1309TIP3    H225487   4.914   1.427   8.041
 1310TIP3   OH225488   1.562   3.185   0.028
 1310TIP3    H125489   1.623   3.206   0.099
 1310TIP3    H225490   1.586   3.097   0.001
 1311TIP3   OH225491   1.055   5.027   8.557
 1311TIP3    H125492   1.034   4.974   8.480
 1311TIP3    H225493   1.010   4.982   8.629
 1312TIP3   OH225494   1.122   5.947   6.454
 1312TIP3    H125495   1.118   5.979   6.364
 1312TIP3    H225496   1.154   6.022   6.504
 1313TIP3   OH225497   3.034   1.301   8.108
 1313TIP3    H125498   2.939   1.296   8.110
 1313TIP3    H225499   3.060   1.292   8.200
 1314TIP3   OH225500   4.759   1.943   1.037
 1314TIP3    H125501   4.715   2.007   0.981
 1314TIP3    H225502   4.846   1.934   0.999
 1315TIP3   OH225503   5.081   5.453   8.380
 1315TIP3    H125504   5.091   5.384   8.314
 1315TIP3    H225505   5.008   5.423   8.434
 1316TIP3   OH225506   0.981   1.264   0.904
 1316TIP3    H125507   0.919   1.192   0.909
 1316TIP3    H225508   1.025   1.253   0.820
 1317TIP3   OH225509   4.564   1.814   8.138
 1317TIP3    H125510   4.569   1.719   8.133
 1317TIP3    H225511   4.494   1.831   8.202
 1318TIP3   OH225512   4.889   2.271   8.643
 1318TIP3    H125513   4.865   2.223   8.564
 1318TIP3    H225514   4.975   2.238   8.667
 1319TIP3   OH225515   5.919   6.689   0.060
 1319TIP3    H125516   5.976   6.631   0.010
 1319TIP3    H225517   5.971   6.768   0.075
 1320TIP3   OH225518   1.852   0.058   7.341
 1320TIP3    H125519   1.850   0.135   7.284
 1320TIP3    H225520   1.932   0.068   7.392
 1321TIP3   OH225521   0.438   4.229   7.979
 1321TIP3    H125522   0.385   4.294   8.025
 1321TIP3    H225523   0.401   4.226   7.890
 1322TIP3   OH225524   1.919   1.890   7.011
 1322TIP3    H125525   1.933   1.804   6.971
 1322TIP3    H225526   1.835   1.920   6.976
 1323TIP3   OH225527   6.059   0.054   8.237
 1323TIP3    H125528   5.977   0.096   8.213
 1323TIP3    H225529   6.048   6.763   8.210
 1324TIP3   OH225530   0.445   4.621   2.156
 1324TIP3    H125531   0.485   4.566   2.089
 1324TIP3    H225532   0.507   4.693   2.168
 1325TIP3   OH225533   4.229   0.618   0.516
 1325TIP3    H125534   4.320   0.647   0.520
 1325TIP3    H225535   4.208   0.621   0.422
 1326TIP3   OH225536   6.232   0.769   8.538
 1326TIP3    H125537   6.221   0.675   8.522
 1326TIP3    H225538   6.194   0.811   8.460
 1327TIP3   OH225539   3.855   4.263   8.601
 1327TIP3    H125540   3.840   4.342   8.549
 1327TIP3    H225541   3.775   4.212   8.592
 1328TIP3   OH225542   1.740   4.380   0.868
 1328TIP3    H125543   1.802   4.352   0.936
 1328TIP3    H225544   1.796   4.414   0.798
 1329TIP3   OH225545   4.033   4.753   8.043
 1329TIP3    H125546   4.106   4.736   7.983
 1329TIP3    H225547   3.958   4.770   7.986
 1330TIP3   OH225548   1.870   5.833   7.707
 1330TIP3    H125549   1.939   5.826   7.773
 1330TIP3    H225550   1.860   5.743   7.674
 1331TIP3   OH225551   5.796   4.329   1.189
 1331TIP3    H125552   5.890   4.321   1.168
 1331TIP3    H225553   5.753   4.270   1.127
 1332TIP3   OH225554   3.907   6.247   0.480
 1332TIP3    H125555   3.957   6.171   0.508
 1332TIP3    H225556   3.815   6.223   0.495
 1333TIP3   OH225557   3.386   1.933   8.281
 1333TIP3    H125558   3.333   1.891   8.214
 1333TIP3    H225559   3.466   1.959   8.235
 1334TIP3   OH225560   0.916   6.285   8.259
 1334TIP3    H125561   0.871   6.361   8.295
 1334TIP3    H225562   0.958   6.318   8.179
 1335TIP3   OH225563   1.295   0.661   6.970
 1335TIP3    H125564   1.226   0.611   7.014
 1335TIP3    H225565   1.345   0.701   7.041
 1336TIP3   OH225566   2.095   2.302   8.178
 1336TIP3    H125567   2.168   2.342   8.226
 1336TIP3    H225568   2.126   2.214   8.158
 1337TIP3   OH225569   6.589   3.607   0.961
 1337TIP3    H125570   6.641   3.536   0.921
 1337TIP3    H225571   6.654   3.663   1.003
 1338TIP3   OH225572   5.199   6.501   0.536
 1338TIP3    H125573   5.144   6.483   0.612
 1338TIP3    H225574   5.153   6.569   0.488
 1339TIP3   OH225575   5.357   0.688   8.609
 1339TIP3    H125576   5.360   0.671   8.515
 1339TIP3    H225577   5.266   0.672   8.634
 1340TIP3   OH225578   5.491   0.832   0.332
 1340TIP3    H125579   5.547   0.768   0.375
 1340TIP3    H225580   5.479   0.902   0.397
 1341TIP3   OH225581   5.274   5.200   7.546
 1341TIP3    H125582   5.339   5.131   7.532
 1341TIP3    H225583   5.191   5.154   7.557
 1342TIP3   OH225584   4.765   3.574   8.100
 1342TIP3    H125585   4.719   3.553   8.019
 1342TIP3    H225586   4.808   3.657   8.083
 1343TIP3   OH225587   6.063   2.037   7.286
 1343TIP3    H125588   6.029   2.096   7.218
 1343TIP3    H225589   6.054   1.950   7.249
 1344TIP3   OH225590   3.729   6.042   6.542
 1344TIP3    H125591   3.643   6.038   6.583
 1344TIP3    H225592   3.714   6.008   6.453
 1345TIP3   OH225593   2.370   2.122   0.362
 1345TIP3    H125594   2.381   2.186   0.291
 1345TIP3    H225595   2.457   2.110   0.398
 1346TIP3   OH225596   6.120   6.771   1.658
 1346TIP3    H125597   6.095   6.681   1.677
 1346TIP3    H225598   6.110   0.017   1.741
 1347TIP3   OH225599   3.639   2.257   1.005
 1347TIP3    H125600   3.642   2.332   1.064
 1347TIP3    H225601   3.728   2.250   0.970
 1348TIP3   OH225602   1.133   6.293   0.564
 1348TIP3    H125603   1.161   6.307   0.473
 1348TIP3    H225604   1.193   6.227   0.598
 1349TIP3   OH225605   5.748   2.406   7.978
 1349TIP3    H125606   5.779   2.495   7.965
 1349TIP3    H225607   5.653   2.415   7.990
 1350TIP3   OH225608   6.636   3.782   7.666
 1350TIP3    H125609   6.658   3.785   7.573
 1350TIP3    H225610   6.658   3.869   7.699
 1351TIP3   OH225611   5.000   6.367   0.066
 1351TIP3    H125612   4.922   6.381   0.014
 1351TIP3    H225613   5.072   6.396   0.010
 1352TIP3   OH225614   3.640   2.309   2.384
 1352TIP3    H125615   3.631   2.390   2.334
 1352TIP3    H225616   3.615   2.240   2.323
 1353TIP3   OH225617   2.857   2.124   7.648
 1353TIP3    H125618   2.926   2.188   7.667
 1353TIP3    H225619   2.902   2.040   7.645
 1354TIP3   OH225620   1.206   5.618   0.349
 1354TIP3    H125621   1.294   5.597   0.381
 1354TIP3    H225622   1.187   5.551   0.283
 1355TIP3   OH225623   2.795   4.372   0.557
 1355TIP3    H125624   2.788   4.282   0.590
 1355TIP3    H225625   2.868   4.410   0.607
 1356TIP3   OH225626   4.709   5.762   0.548
 1356TIP3    H125627   4.679   5.682   0.505
 1356TIP3    H225628   4.631   5.799   0.589
 1357TIP3   OH225629   5.768   3.555   8.085
 1357TIP3    H125630   5.728   3.571   8.171
 1357TIP3    H225631   5.822   3.477   8.098
 1358TIP3   OH225632   6.167   0.493   2.312
 1358TIP3    H125633   6.175   0.454   2.224
 1358TIP3    H225634   6.253   0.531   2.328
 1359TIP3   OH225635   3.271   5.788   7.791
 1359TIP3    H125636   3.355   5.830   7.773
 1359TIP3    H225637   3.286   5.739   7.872
 1360TIP3   OH225638   1.006   1.568   2.512
 1360TIP3    H125639   0.951   1.522   2.576
 1360TIP3    H225640   1.018   1.655   2.550
 1361TIP3   OH225641   1.520   4.404   2.132
 1361TIP3    H125642   1.572   4.472   2.175
 1361TIP3    H225643   1.584   4.346   2.092
 1362TIP3   OH225644   0.266   4.596   6.805
 1362TIP3    H125645   0.304   4.662   6.746
 1362TIP3    H225646   0.240   4.646   6.882
 1363TIP3   OH225647   4.308   1.257   1.781
 1363TIP3    H125648   4.222   1.220   1.760
 1363TIP3    H225649   4.338   1.208   1.857
 1364TIP3   OH225650   6.182   0.473   8.491
 1364TIP3    H125651   6.087   0.461   8.502
 1364TIP3    H225652   6.192   0.494   8.398
 1365TIP3   OH225653   6.464   4.307   8.744
 1365TIP3    H125654   6.452   4.368   8.817
 1365TIP3    H225655   6.377   4.268   8.732
 1366TIP3   OH225656   5.807   0.015   1.920
 1366TIP3    H125657   5.865   0.082   1.956
 1366TIP3    H225658   5.857   6.735   1.927
 1367TIP3   OH225659   0.320   1.382   8.848
 1367TIP3    H125660   0.299   1.329   8.770
 1367TIP3    H225661   0.335   1.470   8.813
 1368TIP3   OH225662   2.501   3.118   1.262
 1368TIP3    H125663   2.571   3.151   1.206
 1368TIP3    H225664   2.427   3.108   1.202
 1369TIP3   OH225665   0.413   0.990   7.928
 1369TIP3    H125666   0.378   1.030   8.008
 1369TIP3    H225667   0.344   1.003   7.863
 1370TIP3   OH225668   6.723   4.544   6.468
 1370TIP3    H125669   6.743   4.564   6.559
 1370TIP3    H225670   6.738   4.450   6.460
 1371TIP3   OH225671   0.657   0.733   8.545
 1371TIP3    H125672   0.692   0.776   8.623
 1371TIP3    H225673   0.689   0.786   8.472
 1372TIP3   OH225674   6.594   4.854   0.054
 1372TIP3    H125675   6.502   4.855   0.027
 1372TIP3    H225676   6.634   4.788   8.859
 1373TIP3   OH225677   1.854   4.213   6.356
 1373TIP3    H125678   1.868   4.183   6.266
 1373TIP3    H225679   1.909   4.155   6.409
 1374TIP3   OH225680   1.961   0.185   6.783
 1374TIP3    H125681   1.882   0.238   6.785
 1374TIP3    H225682   2.032   0.247   6.766
 1375TIP3   OH225683   1.932   5.958   1.522
 1375TIP3    H125684   1.870   6.029   1.504
 1375TIP3    H225685   1.896   5.914   1.599
 1376TIP3   OH225686   3.625   2.030   0.487
 1376TIP3    H125687   3.628   2.060   0.396
 1376TIP3    H225688   3.640   1.936   0.482
 1377TIP3   OH225689   2.774   2.774   2.603
 1377TIP3    H125690   2.745   2.694   2.559
 1377TIP3    H225691   2.805   2.744   2.689
 1378TIP3   OH225692   1.629   2.051   0.152
 1378TIP3    H125693   1.653   2.106   0.077
 1378TIP3    H225694   1.711   2.009   0.178
 1379TIP3   OH225695   2.099   1.334   7.248
 1379TIP3    H125696   2.013   1.358   7.212
 1379TIP3    H225697   2.080   1.302   7.336
 1380TIP3   OH225698   5.664   0.710   1.190
 1380TIP3    H125699   5.712   0.710   1.273
 1380TIP3    H225700   5.732   0.717   1.123
 1381TIP3   OH225701   5.383   0.487   1.695
 1381TIP3    H125702   5.432   0.479   1.613
 1381TIP3    H225703   5.442   0.535   1.753
 1382TIP3   OH225704   2.502   3.099   6.943
 1382TIP3    H125705   2.433   3.032   6.942
 1382TIP3    H225706   2.470   3.166   7.004
 1383TIP3   OH225707   2.664   3.463   0.853
 1383TIP3    H125708   2.703   3.399   0.793
 1383TIP3    H225709   2.573   3.434   0.864
 1384TIP3   OH225710   3.572   5.992   0.233
 1384TIP3    H125711   3.527   6.049   0.295
 1384TIP3    H225712   3.661   6.029   0.227
 1385TIP3   OH225713   0.869   3.315   6.681
 1385TIP3    H125714   0.890   3.381   6.747
 1385TIP3    H225715   0.826   3.245   6.730
 1386TIP3   OH225716   0.819   5.443   1.395
 1386TIP3    H125717   0.812   5.414   1.486
 1386TIP3    H225718   0.912   5.458   1.381
 1387TIP3   OH225719   6.518   0.615   8.309
 1387TIP3    H125720   6.567   0.544   8.349
 1387TIP3    H225721   6.452   0.572   8.254
 1388TIP3   OH225722   6.139   0.668   7.626
 1388TIP3    H125723   6.228   0.702   7.617
 1388TIP3    H225724   6.151   0.575   7.648
 1389TIP3   OH225725   2.930   0.218   0.553
 1389TIP3    H125726   2.875   0.232   0.630
 1389TIP3    H225727   2.932   0.303   0.509
 1390TIP3   OH225728   4.142   4.351   6.855
 1390TIP3    H125729   4.125   4.443   6.837
 1390TIP3    H225730   4.110   4.337   6.944
 1391TIP3   OH225731   1.015   2.784   0.407
 1391TIP3    H125732   0.969   2.865   0.383
 1391TIP3    H225733   1.050   2.752   0.324
 1392TIP3   OH225734   6.187   0.196   0.989
 1392TIP3    H125735   6.129   0.229   1.058
 1392TIP3    H225736   6.131   0.139   0.936
 1393TIP3   OH225737   6.609   3.390   7.517
 1393TIP3    H125738   6.521   3.381   7.554
 1393TIP3    H225739   6.629   3.303   7.482
 1394TIP3   OH225740   5.977   3.500   0.503
 1394TIP3    H125741   5.918   3.548   0.443
 1394TIP3    H225742   5.922   3.480   0.578
 1395TIP3   OH225743   1.971   3.992   8.492
 1395TIP3    H125744   2.010   3.906   8.481
 1395TIP3    H225745   1.886   3.986   8.449
 1396TIP3   OH225746   3.666   6.309   7.805
 1396TIP3    H125747   3.581   6.280   7.838
 1396TIP3    H225748   3.664   6.405   7.815
 1397TIP3   OH225749   0.183   5.008   8.195
 1397TIP3    H125750   0.161   4.995   8.287
 1397TIP3    H225751   0.177   5.103   8.182
 1398TIP3   OH225752   3.805   4.760   0.833
 1398TIP3    H125753   3.819   4.855   0.836
 1398TIP3    H225754   3.865   4.724   0.898
 1399TIP3   OH225755   6.681   2.408   0.848
 1399TIP3    H125756   6.655   2.500   0.845
 1399TIP3    H225757   6.684   2.380   0.757
 1400TIP3   OH225758   4.283   0.182   7.997
 1400TIP3    H125759   4.365   0.223   7.969
 1400TIP3    H225760   4.219   0.252   7.994
 1401TIP3   OH225761   3.399   6.262   7.715
 1401TIP3    H125762   3.360   6.275   7.801
 1401TIP3    H225763   3.353   6.186   7.680
 1402TIP3   OH225764   2.842   6.155   0.297
 1402TIP3    H125765   2.753   6.154   0.262
 1402TIP3    H225766   2.895   6.195   0.228
 1403TIP3   OH225767   3.836   3.400   0.169
 1403TIP3    H125768   3.744   3.400   0.195
 1403TIP3    H225769   3.883   3.383   0.251
 1404TIP3   OH225770   2.178   0.693   7.393
 1404TIP3    H125771   2.240   0.747   7.345
 1404TIP3    H225772   2.181   0.608   7.350
 1405TIP3   OH225773   5.281   4.637   0.417
 1405TIP3    H125774   5.233   4.611   0.495
 1405TIP3    H225775   5.213   4.658   0.353
 1406TIP3   OH225776   0.062   4.208   1.474
 1406TIP3    H125777   6.777   4.172   1.496
 1406TIP3    H225778   0.072   4.192   1.380
 1407TIP3   OH225779   0.091   5.305   8.173
 1407TIP3    H125780   0.004   5.308   8.212
 1407TIP3    H225781   0.132   5.387   8.202
 1408TIP3   OH225782   1.418   1.719   1.278
 1408TIP3    H125783   1.358   1.690   1.347
 1408TIP3    H225784   1.505   1.703   1.314
 1409TIP3   OH225785   4.558   6.437   2.841
 1409TIP3    H125786   4.477   6.402   2.805
 1409TIP3    H225787   4.615   6.361   2.851
 1410TIP3   OH225788   0.337   0.841   8.220
 1410TIP3    H125789   0.327   0.771   8.156
 1410TIP3    H225790   0.264   0.901   8.202
 1411TIP3   OH225791   4.050   0.369   8.043
 1411TIP3    H125792   4.068   0.411   8.127
 1411TIP3    H225793   4.000   0.434   7.994
 1412TIP3   OH225794   4.004   1.073   6.897
 1412TIP3    H125795   4.048   1.092   6.815
 1412TIP3    H225796   3.967   1.157   6.925
 1413TIP3   OH225797   1.515   0.955   6.934
 1413TIP3    H125798   1.480   1.039   6.964
 1413TIP3    H225799   1.546   0.912   7.013
 1414TIP3   OH225800   2.835   6.153   0.910
 1414TIP3    H125801   2.833   6.248   0.901
 1414TIP3    H225802   2.826   6.138   1.004
 1415TIP3   OH225803   4.182   2.258   0.940
 1415TIP3    H125804   4.147   2.183   0.988
 1415TIP3    H225805   4.141   2.254   0.854
 1416TIP3   OH225806   4.756   5.437   2.087
 1416TIP3    H125807   4.756   5.526   2.120
 1416TIP3    H225808   4.849   5.417   2.071
 1417TIP3   OH225809   5.378   6.132   1.536
 1417TIP3    H125810   5.393   6.161   1.626
 1417TIP3    H225811   5.382   6.213   1.484
 1418TIP3   OH225812   3.045   1.192   1.080
 1418TIP3    H125813   3.062   1.200   1.174
 1418TIP3    H225814   3.104   1.123   1.050
 1419TIP3   OH225815   4.506   4.642   7.802
 1419TIP3    H125816   4.586   4.668   7.755
 1419TIP3    H225817   4.538   4.588   7.874
 1420TIP3   OH225818   4.793   6.486   7.906
 1420TIP3    H125819   4.780   6.409   7.961
 1420TIP3    H225820   4.841   6.453   7.829
 1421TIP3   OH225821   4.421   1.886   8.393
 1421TIP3    H125822   4.383   1.973   8.377
 1421TIP3    H225823   4.372   1.852   8.468
 1422TIP3   OH225824   0.015   4.313   0.972
 1422TIP3    H125825   6.763   4.259   0.913
 1422TIP3    H225826   0.009   4.402   0.937
 1423TIP3   OH225827   3.585   1.442   1.390
 1423TIP3    H125828   3.603   1.393   1.310
 1423TIP3    H225829   3.574   1.533   1.360
 1424TIP3   OH225830   5.625   0.421   7.420
 1424TIP3    H125831   5.693   0.399   7.484
 1424TIP3    H225832   5.620   0.345   7.362
 1425TIP3   OH225833   3.849   4.135   0.058
 1425TIP3    H125834   3.906   4.062   0.082
 1425TIP3    H225835   3.790   4.098   8.853
 1426TIP3   OH225836   2.055   1.148   6.338
 1426TIP3    H125837   2.076   1.225   6.390
 1426TIP3    H225838   2.123   1.146   6.270
 1427TIP3   OH225839   2.409   1.356   8.365
 1427TIP3    H125840   2.488   1.358   8.419
 1427TIP3    H225841   2.442   1.338   8.276
 1428TIP3   OH225842   1.799   2.351   0.873
 1428TIP3    H125843   1.776   2.356   0.780
 1428TIP3    H225844   1.780   2.260   0.897
 1429TIP3   OH225845   6.608   5.447   7.224
 1429TIP3    H125846   6.680   5.388   7.203
 1429TIP3    H225847   6.610   5.514   7.155
 1430TIP3   OH225848   6.646   1.004   1.294
 1430TIP3    H125849   6.621   1.052   1.215
 1430TIP3    H225850   6.596   0.923   1.290
 1431TIP3   OH225851   0.740   1.606   1.458
 1431TIP3    H125852   0.645   1.602   1.468
 1431TIP3    H225853   0.762   1.697   1.475
 1432TIP3   OH225854   3.527   3.375   2.152
 1432TIP3    H125855   3.580   3.454   2.143
 1432TIP3    H225856   3.451   3.391   2.096
 1433TIP3   OH225857   1.133   3.026   8.176
 1433TIP3    H125858   1.110   3.010   8.268
 1433TIP3    H225859   1.188   2.951   8.153
 1434TIP3   OH225860   5.150   0.941   6.428
 1434TIP3    H125861   5.070   0.898   6.456
 1434TIP3    H225862   5.221   0.887   6.463
 1435TIP3   OH225863   4.390   3.421   2.171
 1435TIP3    H125864   4.340   3.437   2.091
 1435TIP3    H225865   4.407   3.327   2.170
 1436TIP3   OH225866   5.944   6.145   0.232
 1436TIP3    H125867   5.868   6.087   0.242
 1436TIP3    H225868   5.968   6.168   0.321
 1437TIP3   OH225869   2.875   0.775   1.142
 1437TIP3    H125870   2.918   0.695   1.174
 1437TIP3    H225871   2.853   0.755   1.051
 1438TIP3   OH225872   3.127   4.155   7.002
 1438TIP3    H125873   3.066   4.096   6.957
 1438TIP3    H225874   3.210   4.145   6.954
 1439TIP3   OH225875   2.812   3.049   2.594
 1439TIP3    H125876   2.904   3.041   2.567
 1439TIP3    H225877   2.781   2.959   2.600
 1440TIP3   OH225878   4.897   6.797   6.468
 1440TIP3    H125879   4.921   0.068   6.408
 1440TIP3    H225880   4.875   6.724   6.410
 1441TIP3   OH225881   2.913   3.338   1.204
 1441TIP3    H125882   2.938   3.251   1.235
 1441TIP3    H225883   2.922   3.333   1.109
 1442TIP3   OH225884   1.616   0.089   1.707
 1442TIP3    H125885   1.624   0.130   1.793
 1442TIP3    H225886   1.564   0.151   1.656
 1443TIP3   OH225887   4.169   2.818   7.681
 1443TIP3    H125888   4.078   2.829   7.708
 1443TIP3    H225889   4.210   2.772   7.754
 1444TIP3   OH225890   6.328   1.902   0.919
 1444TIP3    H125891   6.384   1.851   0.862
 1444TIP3    H225892   6.243   1.904   0.874
 1445TIP3   OH225893   0.390   3.065   0.513
 1445TIP3    H125894   0.316   3.118   0.542
 1445TIP3    H225895   0.459   3.084   0.577
 1446TIP3   OH225896   0.014   3.364   0.456
 1446TIP3    H125897   6.760   3.413   0.518
 1446TIP3    H225898   0.100   3.360   0.497
 1447TIP3   OH225899   4.951   2.519   1.376
 1447TIP3    H125900   4.959   2.435   1.420
 1447TIP3    H225901   5.034   2.531   1.331
 1448TIP3   OH225902   0.835   4.753   0.951
 1448TIP3    H125903   0.806   4.843   0.966
 1448TIP3    H225904   0.757   4.706   0.923
 1449TIP3   OH225905   5.188   2.563   8.260
 1449TIP3    H125906   5.256   2.496   8.247
 1449TIP3    H225907   5.134   2.530   8.332
 1450TIP3   OH225908   3.441   0.368   1.632
 1450TIP3    H125909   3.452   0.461   1.651
 1450TIP3    H225910   3.350   0.360   1.604
 1451TIP3   OH225911   5.347   4.257   6.818
 1451TIP3    H125912   5.292   4.189   6.780
 1451TIP3    H225913   5.435   4.220   6.817
 1452TIP3   OH225914   4.371   4.700   7.332
 1452TIP3    H125915   4.362   4.678   7.239
 1452TIP3    H225916   4.414   4.786   7.333
 1453TIP3   OH225917   5.628   6.103   8.173
 1453TIP3    H125918   5.719   6.088   8.197
 1453TIP3    H225919   5.577   6.068   8.246
 1454TIP3   OH225920   6.065   3.776   7.971
 1454TIP3    H125921   6.108   3.765   7.886
 1454TIP3    H225922   5.972   3.781   7.949
 1455TIP3   OH225923   5.107   3.947   1.382
 1455TIP3    H125924   5.106   3.901   1.298
 1455TIP3    H225925   5.053   3.893   1.440
 1456TIP3   OH225926   1.998   1.713   1.192
 1456TIP3    H125927   2.055   1.676   1.124
 1456TIP3    H225928   1.915   1.667   1.182
 1457TIP3   OH225929   2.354   5.307   7.502
 1457TIP3    H125930   2.357   5.402   7.508
 1457TIP3    H225931   2.402   5.287   7.421
 1458TIP3   OH225932   4.209   4.795   1.724
 1458TIP3    H125933   4.234   4.720   1.778
 1458TIP3    H225934   4.278   4.801   1.658
 1459TIP3   OH225935   3.671   1.978   7.146
 1459TIP3    H125936   3.601   1.973   7.080
 1459TIP3    H225937   3.659   2.064   7.187
 1460TIP3   OH225938   0.196   0.182   6.778
 1460TIP3    H125939   0.221   0.144   6.694
 1460TIP3    H225940   0.220   0.275   6.770
 1461TIP3   OH225941   5.469   5.948   8.363
 1461TIP3    H125942   5.513   5.982   8.441
 1461TIP3    H225943   5.393   5.901   8.397
 1462TIP3   OH225944   2.879   6.058   8.082
 1462TIP3    H125945   2.970   6.049   8.111
 1462TIP3    H225946   2.846   6.135   8.128
 1463TIP3   OH225947   4.270   3.304   0.518
 1463TIP3    H125948   4.282   3.244   0.592
 1463TIP3    H225949   4.194   3.357   0.542
 1464TIP3   OH225950   2.802   0.254   6.678
 1464TIP3    H125951   2.715   0.235   6.641
 1464TIP3    H225952   2.852   0.290   6.605
 1465TIP3   OH225953   5.241   6.191   2.096
 1465TIP3    H125954   5.167   6.189   2.158
 1465TIP3    H225955   5.243   6.280   2.063
 1466TIP3   OH225956   0.625   4.434   7.014
 1466TIP3    H125957   0.656   4.346   7.035
 1466TIP3    H225958   0.530   4.425   7.008
 1467TIP3   OH225959   0.201   0.496   0.538
 1467TIP3    H125960   0.108   0.502   0.563
 1467TIP3    H225961   0.248   0.531   0.614
 1468TIP3   OH225962   5.335   5.583   0.318
 1468TIP3    H125963   5.413   5.635   0.335
 1468TIP3    H225964   5.262   5.642   0.338
 1469TIP3   OH225965   6.058   3.593   1.497
 1469TIP3    H125966   6.048   3.688   1.488
 1469TIP3    H225967   6.146   3.583   1.534
 1470TIP3   OH225968   6.136   3.172   0.951
 1470TIP3    H125969   6.092   3.092   0.922
 1470TIP3    H225970   6.075   3.213   1.011
 1471TIP3   OH225971   0.946   0.953   7.358
 1471TIP3    H125972   0.926   0.932   7.449
 1471TIP3    H225973   0.873   1.009   7.330
 1472TIP3   OH225974   5.909   3.575   8.450
 1472TIP3    H125975   5.943   3.640   8.389
 1472TIP3    H225976   5.896   3.497   8.397
 1473TIP3   OH225977   4.771   2.164   0.590
 1473TIP3    H125978   4.863   2.191   0.579
 1473TIP3    H225979   4.720   2.240   0.562
 1474TIP3   OH225980   0.948   3.264   0.767
 1474TIP3    H125981   1.006   3.251   0.692
 1474TIP3    H225982   0.908   3.178   0.781
 1475TIP3   OH225983   1.092   1.001   7.749
 1475TIP3    H125984   1.159   0.981   7.683
 1475TIP3    H225985   1.009   0.998   7.700
 1476TIP3   OH225986   5.425   1.768   2.047
 1476TIP3    H125987   5.395   1.771   2.138
 1476TIP3    H225988   5.456   1.857   2.030
 1477TIP3   OH225989   3.824   5.485   1.690
 1477TIP3    H125990   3.822   5.487   1.785
 1477TIP3    H225991   3.783   5.402   1.666
 1478TIP3   OH225992   5.849   4.734   1.142
 1478TIP3    H125993   5.792   4.675   1.092
 1478TIP3    H225994   5.888   4.791   1.076
 1479TIP3   OH225995   4.395   0.290   0.484
 1479TIP3    H125996   4.313   0.328   0.453
 1479TIP3    H225997   4.463   0.349   0.454
 1480TIP3   OH225998   1.735   3.838   0.954
 1480TIP3    H125999   1.654   3.888   0.939
 1480TIP3    H226000   1.719   3.792   1.037
 1481TIP3   OH226001   3.045   4.858   1.284
 1481TIP3    H126002   3.018   4.766   1.276
 1481TIP3    H226003   3.048   4.890   1.194
 1482TIP3   OH226004   6.559   6.073   7.671
 1482TIP3    H126005   6.643   6.104   7.636
 1482TIP3    H226006   6.549   6.120   7.754
 1483TIP3   OH226007   3.701   3.207   1.847
 1483TIP3    H126008   3.713   3.233   1.938
 1483TIP3    H226009   3.616   3.246   1.823
 1484TIP3   OH226010   0.545   6.714   8.640
 1484TIP3    H126011   0.569   6.798   8.601
 1484TIP3    H226012   0.592   6.649   8.588
 1485TIP3   OH226013   4.724   4.965   1.074
 1485TIP3    H126014   4.672   4.971   0.994
 1485TIP3    H226015   4.800   4.913   1.049
 1486TIP3   OH226016   2.223   5.160   7.707
 1486TIP3    H126017   2.159   5.099   7.670
 1486TIP3    H226018   2.291   5.166   7.640
 1487TIP3   OH226019   3.364   6.493   8.583
 1487TIP3    H126020   3.273   6.498   8.611
 1487TIP3    H226021   3.384   6.399   8.584
 1488TIP3   OH226022   1.600   6.575   6.828
 1488TIP3    H126023   1.583   6.591   6.921
 1488TIP3    H226024   1.515   6.550   6.793
 1489TIP3   OH226025   5.935   2.034   8.343
 1489TIP3    H126026   5.942   1.949   8.388
 1489TIP3    H226027   5.995   2.091   8.390
 1490TIP3   OH226028   3.476   6.040   6.684
 1490TIP3    H126029   3.410   6.107   6.667
 1490TIP3    H226030   3.471   6.025   6.778
 1491TIP3   OH226031   4.291   6.419   0.015
 1491TIP3    H126032   4.313   6.327   0.033
 1491TIP3    H226033   4.225   6.414   8.807
 1492TIP3   OH226034   0.788   0.356   0.853
 1492TIP3    H126035   0.779   0.382   0.762
 1492TIP3    H226036   0.838   0.426   0.894
 1493TIP3   OH226037   3.091   4.006   8.712
 1493TIP3    H126038   3.074   4.084   8.659
 1493TIP3    H226039   3.141   4.039   8.787
 1494TIP3   OH226040   4.074   5.505   1.586
 1494TIP3    H126041   3.986   5.529   1.614
 1494TIP3    H226042   4.108   5.583   1.542
 1495TIP3   OH226043   3.126   6.511   0.113
 1495TIP3    H126044   3.171   6.547   0.190
 1495TIP3    H226045   3.122   6.584   0.051
 1496TIP3   OH226046   2.545   3.261   8.659
 1496TIP3    H126047   2.524   3.347   8.697
 1496TIP3    H226048   2.551   3.277   8.565
 1497TIP3   OH226049   6.172   4.500   2.458
 1497TIP3    H126050   6.182   4.477   2.550
 1497TIP3    H226051   6.144   4.591   2.459
 1498TIP3   OH226052   3.704   1.375   1.652
 1498TIP3    H126053   3.778   1.318   1.631
 1498TIP3    H226054   3.651   1.375   1.573
 1499TIP3   OH226055   3.420   3.486   7.042
 1499TIP3    H126056   3.376   3.405   7.018
 1499TIP3    H226057   3.508   3.477   7.005
 1500TIP3   OH226058   1.491   4.706   0.388
 1500TIP3    H126059   1.559   4.773   0.397
 1500TIP3    H226060   1.411   4.756   0.370
 1501TIP3   OH226061   0.504   1.133   0.821
 1501TIP3    H126062   0.555   1.175   0.751
 1501TIP3    H226063   0.500   1.199   0.890
 1502TIP3   OH226064   1.520   0.996   8.700
 1502TIP3    H126065   1.537   1.078   8.655
 1502TIP3    H226066   1.590   0.937   8.671
 1503TIP3   OH226067   4.590   6.653   6.891
 1503TIP3    H126068   4.652   6.618   6.955
 1503TIP3    H226069   4.504   6.631   6.926
 1504TIP3   OH226070   0.186   4.624   2.617
 1504TIP3    H126071   0.200   4.531   2.598
 1504TIP3    H226072   0.131   4.625   2.696
 1505TIP3   OH226073   4.510   6.703   8.531
 1505TIP3    H126074   4.505   6.700   8.627
 1505TIP3    H226075   4.459   6.628   8.502
 1506TIP3   OH226076   5.938   1.697   8.351
 1506TIP3    H126077   5.853   1.652   8.347
 1506TIP3    H226078   5.934   1.748   8.432
 1507TIP3   OH226079   1.234   2.363   7.285
 1507TIP3    H126080   1.295   2.389   7.354
 1507TIP3    H226081   1.152   2.408   7.307
 1508TIP3   OH226082   0.867   0.643   7.385
 1508TIP3    H126083   0.820   0.699   7.323
 1508TIP3    H226084   0.878   0.697   7.463
 1509TIP3   OH226085   4.887   5.885   6.707
 1509TIP3    H126086   4.850   5.926   6.629
 1509TIP3    H226087   4.828   5.912   6.778
 1510TIP3   OH226088   3.997   3.864   8.114
 1510TIP3    H126089   4.021   3.875   8.022
 1510TIP3    H226090   3.907   3.833   8.113
 1511TIP3   OH226091   2.606   3.058   7.524
 1511TIP3    H126092   2.690   3.015   7.507
 1511TIP3    H226093   2.587   3.037   7.615
 1512TIP3   OH226094   3.263   2.561   8.031
 1512TIP3    H126095   3.316   2.543   8.109
 1512TIP3    H226096   3.183   2.510   8.044
 1513TIP3   OH226097   3.641   2.518   1.718
 1513TIP3    H126098   3.703   2.569   1.666
 1513TIP3    H226099   3.621   2.575   1.793
 1514TIP3   OH226100   3.830   1.807   0.197
 1514TIP3    H126101   3.867   1.886   0.236
 1514TIP3    H226102   3.747   1.795   0.242
 1515TIP3   OH226103   1.293   0.393   7.628
 1515TIP3    H126104   1.334   0.408   7.543
 1515TIP3    H226105   1.309   0.473   7.677
 1516TIP3   OH226106   5.172   0.033   1.330
 1516TIP3    H126107   5.154   6.771   1.260
 1516TIP3    H226108   5.128   6.796   1.407
 1517TIP3   OH226109   3.505   5.358   7.306
 1517TIP3    H126110   3.545   5.333   7.389
 1517TIP3    H226111   3.525   5.285   7.247
 1518TIP3   OH226112   1.414   0.053   6.832
 1518TIP3    H126113   1.343   0.117   6.825
 1518TIP3    H226114   1.385   6.779   6.780
 1519TIP3   OH226115   1.267   1.599   1.708
 1519TIP3    H126116   1.189   1.646   1.679
 1519TIP3    H226117   1.280   1.627   1.798
 1520TIP3   OH226118   1.834   1.942   1.352
 1520TIP3    H126119   1.855   1.865   1.405
 1520TIP3    H226120   1.767   1.988   1.402
 1521TIP3   OH226121   1.302   1.414   8.265
 1521TIP3    H126122   1.300   1.374   8.352
 1521TIP3    H226123   1.215   1.397   8.228
 1522TIP3   OH226124   0.740   6.089   7.709
 1522TIP3    H126125   0.648   6.062   7.700
 1522TIP3    H226126   0.740   6.181   7.685
 1523TIP3   OH226127   3.694   5.056   7.272
 1523TIP3    H126128   3.714   5.036   7.180
 1523TIP3    H226129   3.603   5.031   7.283
 1524TIP3   OH226130   1.140   1.402   0.220
 1524TIP3    H126131   1.218   1.350   0.205
 1524TIP3    H226132   1.071   1.338   0.236
 1525TIP3   OH226133   1.064   3.981   0.283
 1525TIP3    H126134   1.084   3.888   0.282
 1525TIP3    H226135   1.128   4.020   0.223
 1526TIP3   OH226136   1.324   3.186   0.997
 1526TIP3    H126137   1.245   3.132   1.008
 1526TIP3    H226138   1.394   3.134   1.036
 1527TIP3   OH226139   1.945   3.006   2.567
 1527TIP3    H126140   1.853   3.018   2.591
 1527TIP3    H226141   1.947   3.021   2.472
 1528TIP3   OH226142   2.361   3.647   7.289
 1528TIP3    H126143   2.392   3.737   7.298
 1528TIP3    H226144   2.325   3.625   7.375
 1529TIP3   OH226145   0.569   1.022   2.153
 1529TIP3    H126146   0.549   0.935   2.187
 1529TIP3    H226147   0.504   1.036   2.084
 1530TIP3   OH226148   0.761   3.791   0.105
 1530TIP3    H126149   0.727   3.781   0.016
 1530TIP3    H226150   0.855   3.776   0.096
 1531TIP3   OH226151   5.668   0.918   0.564
 1531TIP3    H126152   5.650   0.824   0.553
 1531TIP3    H226153   5.721   0.941   0.488
 1532TIP3   OH226154   1.271   4.335   7.261
 1532TIP3    H126155   1.278   4.293   7.175
 1532TIP3    H226156   1.177   4.348   7.274
 1533TIP3   OH226157   6.363   0.890   0.972
 1533TIP3    H126158   6.320   0.824   1.026
 1533TIP3    H226159   6.292   0.934   0.926
 1534TIP3   OH226160   1.985   1.237   8.352
 1534TIP3    H126161   2.048   1.258   8.284
 1534TIP3    H226162   2.026   1.167   8.403
 1535TIP3   OH226163   5.256   5.995   8.745
 1535TIP3    H126164   5.228   6.043   8.668
 1535TIP3    H226165   5.174   5.963   8.785
 1536TIP3   OH226166   2.808   0.608   7.061
 1536TIP3    H126167   2.752   0.685   7.070
 1536TIP3    H226168   2.813   0.592   6.967
 1537TIP3   OH226169   4.419   5.215   2.355
 1537TIP3    H126170   4.345   5.161   2.328
 1537TIP3    H226171   4.493   5.154   2.356
 1538TIP3   OH226172   3.059   5.886   1.332
 1538TIP3    H126173   3.085   5.800   1.363
 1538TIP3    H226174   3.082   5.887   1.239
 1539TIP3   OH226175   5.813   1.887   8.167
 1539TIP3    H126176   5.861   1.811   8.201
 1539TIP3    H226177   5.854   1.962   8.208
 1540TIP3   OH226178   2.823   1.539   0.394
 1540TIP3    H126179   2.890   1.476   0.365
 1540TIP3    H226180   2.818   1.603   0.323
 1541TIP3   OH226181   5.874   6.142   1.461
 1541TIP3    H126182   5.824   6.078   1.411
 1541TIP3    H226183   5.812   6.174   1.527
 1542TIP3   OH226184   4.133   3.557   0.920
 1542TIP3    H126185   4.111   3.636   0.969
 1542TIP3    H226186   4.052   3.532   0.876
 1543TIP3   OH226187   4.908   2.155   7.934
 1543TIP3    H126188   4.952   2.141   8.018
 1543TIP3    H226189   4.927   2.076   7.883
 1544TIP3   OH226190   2.128   6.282   0.061
 1544TIP3    H126191   2.144   6.306   0.152
 1544TIP3    H226192   2.137   6.364   0.012
 1545TIP3   OH226193   5.400   2.079   8.177
 1545TIP3    H126194   5.459   2.005   8.191
 1545TIP3    H226195   5.392   2.086   8.082
 1546TIP3   OH226196   4.872   2.147   8.403
 1546TIP3    H126197   4.819   2.068   8.410
 1546TIP3    H226198   4.927   2.131   8.326
 1547TIP3   OH226199   2.963   5.173   1.409
 1547TIP3    H126200   2.986   5.081   1.419
 1547TIP3    H226201   2.970   5.189   1.314
 1548TIP3   OH226202   0.195   6.390   7.936
 1548TIP3    H126203   0.254   6.464   7.947
 1548TIP3    H226204   0.200   6.368   7.843
 1549TIP3   OH226205   3.326   3.578   0.768
 1549TIP3    H126206   3.356   3.525   0.841
 1549TIP3    H226207   3.370   3.541   0.691
 1550TIP3   OH226208   3.613   2.499   7.933
 1550TIP3    H126209   3.573   2.502   7.846
 1550TIP3    H226210   3.540   2.480   7.992
 1551TIP3   OH226211   5.040   5.059   0.740
 1551TIP3    H126212   5.004   5.089   0.656
 1551TIP3    H226213   5.131   5.090   0.739
 1552TIP3   OH226214   5.635   1.846   7.087
 1552TIP3    H126215   5.599   1.832   6.999
 1552TIP3    H226216   5.664   1.938   7.087
 1553TIP3   OH226217   1.083   5.578   0.780
 1553TIP3    H126218   1.041   5.595   0.695
 1553TIP3    H226219   1.077   5.483   0.791
 1554TIP3   OH226220   5.018   0.137   8.686
 1554TIP3    H126221   4.989   0.226   8.709
 1554TIP3    H226222   4.955   0.108   8.620
 1555TIP3   OH226223   3.477   6.710   1.176
 1555TIP3    H126224   3.559   6.757   1.162
 1555TIP3    H226225   3.477   6.642   1.109
 1556TIP3   OH226226   4.108   1.424   8.669
 1556TIP3    H126227   4.040   1.357   8.669
 1556TIP3    H226228   4.149   1.417   8.756
 1557TIP3   OH226229   6.797   6.157   7.564
 1557TIP3    H126230   0.060   6.086   7.563
 1557TIP3    H226231   0.048   6.235   7.585
 1558TIP3   OH226232   6.723   3.401   6.718
 1558TIP3    H126233   6.769   3.317   6.718
 1558TIP3    H226234   6.727   3.431   6.627
 1559TIP3   OH226235   5.907   3.180   1.156
 1559TIP3    H126236   5.911   3.268   1.195
 1559TIP3    H226237   5.924   3.121   1.229
 1560TIP3   OH226238   3.235   0.707   7.666
 1560TIP3    H126239   3.233   0.749   7.752
 1560TIP3    H226240   3.157   0.740   7.621
 1561TIP3   OH226241   0.560   1.673   6.940
 1561TIP3    H126242   0.556   1.628   6.855
 1561TIP3    H226243   0.485   1.732   6.939
 1562TIP3   OH226244   5.691   4.808   1.365
 1562TIP3    H126245   5.710   4.885   1.418
 1562TIP3    H226246   5.743   4.820   1.285
 1563TIP3   OH226247   0.510   5.226   1.489
 1563TIP3    H126248   0.508   5.208   1.395
 1563TIP3    H226249   0.445   5.295   1.502
 1564TIP3   OH226250   1.565   1.479   7.373
 1564TIP3    H126251   1.577   1.574   7.373
 1564TIP3    H226252   1.499   1.463   7.306
 1565TIP3   OH226253   2.450   3.826   1.339
 1565TIP3    H126254   2.509   3.826   1.415
 1565TIP3    H226255   2.421   3.735   1.333
 1566TIP3   OH226256   5.805   5.816   1.659
 1566TIP3    H126257   5.865   5.776   1.596
 1566TIP3    H226258   5.845   5.901   1.679
 1567TIP3   OH226259   5.179   6.570   7.248
 1567TIP3    H126260   5.175   6.660   7.216
 1567TIP3    H226261   5.202   6.518   7.171
 1568TIP3   OH226262   0.185   5.571   8.302
 1568TIP3    H126263   0.154   5.660   8.321
 1568TIP3    H226264   0.223   5.540   8.384
 1569TIP3   OH226265   3.435   4.256   6.217
 1569TIP3    H126266   3.388   4.174   6.204
 1569TIP3    H226267   3.371   4.316   6.256
 1570TIP3   OH226268   6.654   4.261   1.205
 1570TIP3    H126269   6.707   4.266   1.126
 1570TIP3    H226270   6.573   4.218   1.177
 1571TIP3   OH226271   4.140   5.049   7.359
 1571TIP3    H126272   4.101   4.964   7.378
 1571TIP3    H226273   4.077   5.093   7.304
 1572TIP3   OH226274   6.498   1.970   1.409
 1572TIP3    H126275   6.449   1.958   1.328
 1572TIP3    H226276   6.589   1.979   1.381
 1573TIP3   OH226277   5.579   1.711   0.685
 1573TIP3    H126278   5.559   1.796   0.645
 1573TIP3    H226279   5.572   1.726   0.779
 1574TIP3   OH226280   5.556   2.473   2.189
 1574TIP3    H126281   5.502   2.541   2.231
 1574TIP3    H226282   5.644   2.488   2.223
 1575TIP3   OH226283   5.191   3.755   1.170
 1575TIP3    H126284   5.156   3.725   1.086
 1575TIP3    H226285   5.196   3.676   1.224
 1576TIP3   OH226286   5.241   2.769   1.258
 1576TIP3    H126287   5.245   2.674   1.258
 1576TIP3    H226288   5.328   2.797   1.287
 1577TIP3   OH226289   0.375   1.997   6.990
 1577TIP3    H126290   0.368   2.053   6.913
 1577TIP3    H226291   0.354   2.054   7.064
 1578TIP3   OH226292   5.107   0.183   7.756
 1578TIP3    H126293   5.176   0.164   7.819
 1578TIP3    H226294   5.027   0.190   7.808
 1579TIP3   OH226295   6.676   6.632   7.632
 1579TIP3    H126296   6.659   6.594   7.718
 1579TIP3    H226297   6.729   6.710   7.649
 1580TIP3   OH226298   3.869   0.978   0.882
 1580TIP3    H126299   3.870   0.987   0.978
 1580TIP3    H226300   3.946   0.924   0.863
 1581TIP3   OH226301   0.325   1.186   8.122
 1581TIP3    H126302   0.345   1.256   8.060
 1581TIP3    H226303   0.325   1.230   8.207
 1582TIP3   OH226304   3.326   0.588   7.171
 1582TIP3    H126305   3.248   0.643   7.169
 1582TIP3    H226306   3.331   0.558   7.261
 1583TIP3   OH226307   6.236   4.189   0.164
 1583TIP3    H126308   6.158   4.182   0.218
 1583TIP3    H226309   6.204   4.184   0.074
 1584TIP3   OH226310   5.862   1.622   0.472
 1584TIP3    H126311   5.821   1.708   0.464
 1584TIP3    H226312   5.842   1.593   0.561
 1585TIP3   OH226313   1.217   4.802   0.640
 1585TIP3    H126314   1.168   4.883   0.647
 1585TIP3    H226315   1.275   4.802   0.717
 1586TIP3   OH226316   3.053   6.420   7.174
 1586TIP3    H126317   3.059   6.509   7.139
 1586TIP3    H226318   2.964   6.393   7.153
 1587TIP3   OH226319   2.740   2.381   0.468
 1587TIP3    H126320   2.665   2.437   0.449
 1587TIP3    H226321   2.774   2.413   0.551
 1588TIP3   OH226322   6.280   2.739   7.911
 1588TIP3    H126323   6.197   2.779   7.938
 1588TIP3    H226324   6.264   2.711   7.821
 1589TIP3   OH226325   1.105   6.269   7.238
 1589TIP3    H126326   1.030   6.297   7.292
 1589TIP3    H226327   1.171   6.337   7.252
 1590TIP3   OH226328   6.179   4.231   0.967
 1590TIP3    H126329   6.146   4.190   0.887
 1590TIP3    H226330   6.146   4.321   0.962
 1591TIP3   OH226331   4.182   1.819   7.664
 1591TIP3    H126332   4.117   1.748   7.669
 1591TIP3    H226333   4.151   1.884   7.727
 1592TIP3   OH226334   6.517   5.905   2.401
 1592TIP3    H126335   6.494   5.896   2.493
 1592TIP3    H226336   6.437   5.939   2.360
 1593TIP3   OH226337   6.192   5.719   1.087
 1593TIP3    H126338   6.150   5.633   1.097
 1593TIP3    H226339   6.279   5.707   1.126
 1594TIP3   OH226340   3.139   5.053   7.594
 1594TIP3    H126341   3.194   4.976   7.580
 1594TIP3    H226342   3.065   5.041   7.534
 1595TIP3   OH226343   2.521   3.476   7.913
 1595TIP3    H126344   2.507   3.480   7.819
 1595TIP3    H226345   2.445   3.521   7.950
 1596TIP3   OH226346   5.791   5.084   8.357
 1596TIP3    H126347   5.859   5.103   8.293
 1596TIP3    H226348   5.727   5.155   8.346
 1597TIP3   OH226349   2.960   4.593   7.293
 1597TIP3    H126350   2.906   4.582   7.215
 1597TIP3    H226351   2.918   4.537   7.359
 1598TIP3   OH226352   6.231   0.722   1.118
 1598TIP3    H126353   6.299   0.656   1.131
 1598TIP3    H226354   6.161   0.675   1.073
 1599TIP3   OH226355   1.713   1.791   1.754
 1599TIP3    H126356   1.796   1.766   1.793
 1599TIP3    H226357   1.683   1.865   1.807
 1600TIP3   OH226358   6.411   4.193   1.106
 1600TIP3    H126359   6.447   4.181   1.019
 1600TIP3    H226360   6.324   4.231   1.091
 1601TIP3   OH226361   4.860   4.164   7.648
 1601TIP3    H126362   4.796   4.165   7.719
 1601TIP3    H226363   4.876   4.256   7.628
 1602TIP3   OH226364   4.252   6.118   0.454
 1602TIP3    H126365   4.224   6.056   0.387
 1602TIP3    H226366   4.227   6.076   0.537
 1603TIP3   OH226367   6.698   5.420   1.799
 1603TIP3    H126368   6.758   5.361   1.754
 1603TIP3    H226369   6.623   5.427   1.740
 1604TIP3   OH226370   1.102   6.467   1.355
 1604TIP3    H126371   1.080   6.375   1.340
 1604TIP3    H226372   1.157   6.466   1.434
 1605TIP3   OH226373   1.892   0.304   7.213
 1605TIP3    H126374   1.872   0.386   7.167
 1605TIP3    H226375   1.986   0.292   7.200
 1606TIP3   OH226376   1.054   5.766   0.078
 1606TIP3    H126377   1.063   5.798   0.168
 1606TIP3    H226378   1.020   5.677   0.087
 1607TIP3   OH226379   4.268   3.956   7.357
 1607TIP3    H126380   4.289   4.023   7.292
 1607TIP3    H226381   4.354   3.922   7.384
 1608TIP3   OH226382   3.361   5.997   7.219
 1608TIP3    H126383   3.418   6.041   7.282
 1608TIP3    H226384   3.396   5.908   7.214
 1609TIP3   OH226385   3.718   5.829   6.832
 1609TIP3    H126386   3.772   5.821   6.754
 1609TIP3    H226387   3.629   5.844   6.798
 1610TIP3   OH226388   1.812   2.350   8.203
 1610TIP3    H126389   1.778   2.378   8.289
 1610TIP3    H226390   1.902   2.323   8.221
 1611TIP3   OH226391   6.216   3.343   0.485
 1611TIP3    H126392   6.131   3.381   0.506
 1611TIP3    H226393   6.246   3.304   0.567
 1612TIP3   OH226394   0.453   0.601   1.298
 1612TIP3    H126395   0.409   0.522   1.266
 1612TIP3    H226396   0.524   0.568   1.352
 1613TIP3   OH226397   6.072   1.654   6.588
 1613TIP3    H126398   6.073   1.729   6.529
 1613TIP3    H226399   6.154   1.659   6.636
 1614TIP3   OH226400   5.278   0.952   7.478
 1614TIP3    H126401   5.266   1.043   7.505
 1614TIP3    H226402   5.344   0.917   7.539
 1615TIP3   OH226403   1.103   2.675   2.303
 1615TIP3    H126404   1.184   2.633   2.273
 1615TIP3    H226405   1.130   2.763   2.329
 1616TIP3   OH226406   2.881   3.978   7.541
 1616TIP3    H126407   2.849   4.006   7.455
 1616TIP3    H226408   2.850   3.888   7.550
 1617TIP3   OH226409   0.146   5.258   1.745
 1617TIP3    H126410   0.155   5.318   1.671
 1617TIP3    H226411   0.131   5.172   1.705
 1618TIP3   OH226412   5.940   5.188   0.551
 1618TIP3    H126413   5.937   5.124   0.480
 1618TIP3    H226414   5.992   5.260   0.516
 1619TIP3   OH226415   0.569   6.003   1.875
 1619TIP3    H126416   0.493   6.058   1.892
 1619TIP3    H226417   0.603   6.035   1.791
 1620TIP3   OH226418   5.902   4.157   7.818
 1620TIP3    H126419   5.846   4.097   7.770
 1620TIP3    H226420   5.842   4.212   7.867
 1621TIP3   OH226421   3.881   1.849   8.689
 1621TIP3    H126422   3.872   1.756   8.707
 1621TIP3    H226423   3.825   1.864   8.612
 1622TIP3   OH226424   4.785   6.104   2.319
 1622TIP3    H126425   4.871   6.083   2.283
 1622TIP3    H226426   4.801   6.178   2.377
 1623TIP3   OH226427   1.651   3.405   8.424
 1623TIP3    H126428   1.647   3.412   8.328
 1623TIP3    H226429   1.566   3.437   8.454
 1624TIP3   OH226430   2.922   0.959   7.969
 1624TIP3    H126431   2.992   0.944   8.033
 1624TIP3    H226432   2.930   0.886   7.907
 1625TIP3   OH226433   0.005   0.128   7.790
 1625TIP3    H126434   0.076   0.089   7.739
 1625TIP3    H226435   0.050   0.174   7.861
 1626TIP3   OH226436   4.638   1.135   1.859
 1626TIP3    H126437   4.646   1.186   1.779
 1626TIP3    H226438   4.700   1.175   1.920
 1627TIP3   OH226439   1.289   5.203   0.302
 1627TIP3    H126440   1.298   5.221   0.209
 1627TIP3    H226441   1.348   5.266   0.344
 1628TIP3   OH226442   1.602   5.584   7.984
 1628TIP3    H126443   1.660   5.644   7.937
 1628TIP3    H226444   1.611   5.610   8.076
 1629TIP3   OH226445   2.192   3.165   7.615
 1629TIP3    H126446   2.212   3.071   7.624
 1629TIP3    H226447   2.269   3.202   7.572
 1630TIP3   OH226448   6.424   0.621   2.274
 1630TIP3    H126449   6.492   0.581   2.220
 1630TIP3    H226450   6.472   0.658   2.348
 1631TIP3   OH226451   1.423   0.403   6.742
 1631TIP3    H126452   1.491   0.468   6.762
 1631TIP3    H226453   1.462   0.349   6.673
 1632TIP3   OH226454   1.822   4.456   6.480
 1632TIP3    H126455   1.882   4.516   6.435
 1632TIP3    H226456   1.832   4.373   6.433
 1633TIP3   OH226457   4.485   4.352   7.047
 1633TIP3    H126458   4.570   4.394   7.038
 1633TIP3    H226459   4.484   4.285   6.979
 1634TIP3   OH226460   3.736   2.762   0.847
 1634TIP3    H126461   3.808   2.821   0.870
 1634TIP3    H226462   3.760   2.678   0.886
 1635TIP3   OH226463   1.286   4.913   0.369
 1635TIP3    H126464   1.248   4.910   0.457
 1635TIP3    H226465   1.315   5.003   0.359
 1636TIP3   OH226466   2.988   2.543   8.350
 1636TIP3    H126467   3.047   2.582   8.415
 1636TIP3    H226468   2.902   2.548   8.390
 1637TIP3   OH226469   4.905   6.301   1.298
 1637TIP3    H126470   4.988   6.336   1.264
 1637TIP3    H226471   4.926   6.212   1.324
 1638TIP3   OH226472   2.051   6.510   6.681
 1638TIP3    H126473   2.010   6.456   6.614
 1638TIP3    H226474   1.982   6.527   6.745
 1639TIP3   OH226475   3.901   4.565   1.023
 1639TIP3    H126476   3.829   4.567   1.086
 1639TIP3    H226477   3.972   4.521   1.070
 1640TIP3   OH226478   5.653   1.255   7.364
 1640TIP3    H126479   5.670   1.170   7.406
 1640TIP3    H226480   5.617   1.309   7.434
 1641TIP3   OH226481   1.534   5.722   1.573
 1641TIP3    H126482   1.562   5.635   1.543
 1641TIP3    H226483   1.553   5.779   1.499
 1642TIP3   OH226484   5.263   0.159   7.369
 1642TIP3    H126485   5.191   0.115   7.415
 1642TIP3    H226486   5.280   0.237   7.422
 1643TIP3   OH226487   0.512   6.047   2.384
 1643TIP3    H126488   0.509   5.961   2.427
 1643TIP3    H226489   0.597   6.082   2.407
 1644TIP3   OH226490   4.898   2.444   8.104
 1644TIP3    H126491   4.975   2.498   8.085
 1644TIP3    H226492   4.889   2.387   8.027
 1645TIP3   OH226493   3.085   5.595   7.351
 1645TIP3    H126494   3.065   5.543   7.429
 1645TIP3    H226495   3.155   5.547   7.307
 1646TIP3   OH226496   6.398   4.670   1.241
 1646TIP3    H126497   6.332   4.602   1.228
 1646TIP3    H226498   6.478   4.623   1.263
 1647TIP3   OH226499   5.899   4.837   8.313
 1647TIP3    H126500   5.838   4.906   8.337
 1647TIP3    H226501   5.862   4.757   8.352
 1648TIP3   OH226502   3.842   3.364   1.123
 1648TIP3    H126503   3.849   3.459   1.123
 1648TIP3    H226504   3.933   3.333   1.129
 1649TIP3   OH226505   2.375   2.548   7.279
 1649TIP3    H126506   2.328   2.568   7.198
 1649TIP3    H226507   2.374   2.452   7.284
 1650TIP3   OH226508   1.313   6.540   2.335
 1650TIP3    H126509   1.394   6.538   2.283
 1650TIP3    H226510   1.342   6.555   2.425
 1651TIP3   OH226511   1.425   5.864   8.139
 1651TIP3    H126512   1.503   5.878   8.085
 1651TIP3    H226513   1.392   5.953   8.156
 1652TIP3   OH226514   5.882   0.959   8.276
 1652TIP3    H126515   5.815   0.891   8.268
 1652TIP3    H226516   5.965   0.911   8.277
 1653TIP3   OH226517   4.039   1.578   1.753
 1653TIP3    H126518   3.959   1.544   1.794
 1653TIP3    H226519   4.012   1.604   1.666
 1654TIP3   OH226520   4.986   5.850   1.230
 1654TIP3    H126521   5.052   5.792   1.191
 1654TIP3    H226522   5.028   5.883   1.310
 1655TIP3   OH226523   5.216   2.496   1.239
 1655TIP3    H126524   5.224   2.484   1.145
 1655TIP3    H226525   5.262   2.421   1.277
 1656TIP3   OH226526   1.870   4.656   7.837
 1656TIP3    H126527   1.810   4.646   7.911
 1656TIP3    H226528   1.942   4.596   7.857
 1657TIP3   OH226529   6.701   1.628   7.802
 1657TIP3    H126530   6.670   1.696   7.742
 1657TIP3    H226531   6.654   1.646   7.884
 1658TIP3   OH226532   0.222   5.560   0.297
 1658TIP3    H126533   0.134   5.586   0.270
 1658TIP3    H226534   0.280   5.612   0.241
 1659TIP3   OH226535   4.573   2.128   0.208
 1659TIP3    H126536   4.659   2.100   0.240
 1659TIP3    H226537   4.511   2.077   0.259
 1660TIP3   OH226538   2.820   4.407   7.575
 1660TIP3    H126539   2.894   4.416   7.636
 1660TIP3    H226540   2.785   4.496   7.567
 1661TIP3   OH226541   6.057   6.344   7.356
 1661TIP3    H126542   6.099   6.419   7.398
 1661TIP3    H226543   6.000   6.308   7.423
 1662TIP3   OH226544   4.073   0.054   1.733
 1662TIP3    H126545   4.127   0.133   1.730
 1662TIP3    H226546   4.135   6.782   1.737
 1663TIP3   OH226547   1.674   3.604   0.155
 1663TIP3    H126548   1.677   3.595   0.250
 1663TIP3    H226549   1.753   3.653   0.133
 1664TIP3   OH226550   3.809   1.475   7.658
 1664TIP3    H126551   3.781   1.489   7.748
 1664TIP3    H226552   3.905   1.478   7.662
 1665TIP3   OH226553   6.155   0.978   0.825
 1665TIP3    H126554   6.148   1.073   0.836
 1665TIP3    H226555   6.088   0.957   0.760
 1666TIP3   OH226556   0.973   2.397   8.526
 1666TIP3    H126557   0.974   2.388   8.621
 1666TIP3    H226558   0.881   2.409   8.504
 1667TIP3   OH226559   6.468   3.776   0.152
 1667TIP3    H126560   6.507   3.859   0.126
 1667TIP3    H226561   6.429   3.793   0.237
 1668TIP3   OH226562   0.619   2.136   6.663
 1668TIP3    H126563   0.669   2.099   6.590
 1668TIP3    H226564   0.673   2.208   6.694
 1669TIP3   OH226565   1.416   3.928   6.663
 1669TIP3    H126566   1.394   3.855   6.720
 1669TIP3    H226567   1.417   3.891   6.575
 1670TIP3   OH226568   1.037   1.951   6.951
 1670TIP3    H126569   1.063   2.025   7.006
 1670TIP3    H226570   1.115   1.895   6.949
 1671TIP3   OH226571   1.158   2.875   2.493
 1671TIP3    H126572   1.157   2.959   2.539
 1671TIP3    H226573   1.095   2.821   2.541
 1672TIP3   OH226574   5.849   5.742   2.644
 1672TIP3    H126575   5.856   5.828   2.686
 1672TIP3    H226576   5.809   5.686   2.710
 1673TIP3   OH226577   5.172   6.669   1.125
 1673TIP3    H126578   5.128   6.599   1.173
 1673TIP3    H226579   5.163   6.644   1.033
 1674TIP3   OH226580   5.953   2.400   0.954
 1674TIP3    H126581   5.931   2.467   1.019
 1674TIP3    H226582   6.048   2.405   0.945
 1675TIP3   OH226583   0.278   3.916   8.596
 1675TIP3    H126584   0.344   3.981   8.621
 1675TIP3    H226585   0.251   3.943   8.508
 1676TIP3   OH226586   1.153   4.976   2.586
 1676TIP3    H126587   1.127   4.885   2.594
 1676TIP3    H226588   1.128   5.001   2.497
 1677TIP3   OH226589   5.596   0.334   8.045
 1677TIP3    H126590   5.554   0.419   8.033
 1677TIP3    H226591   5.614   0.329   8.139
 1678TIP3   OH226592   0.250   2.694   6.287
 1678TIP3    H126593   0.263   2.778   6.244
 1678TIP3    H226594   0.252   2.714   6.381
 1679TIP3   OH226595   6.752   5.605   0.246
 1679TIP3    H126596   6.698   5.526   0.244
 1679TIP3    H226597   6.698   5.672   0.206
 1680TIP3   OH226598   4.961   1.434   0.666
 1680TIP3    H126599   5.035   1.434   0.726
 1680TIP3    H226600   4.956   1.344   0.633
 1681TIP3   OH226601   2.374   5.598   7.601
 1681TIP3    H126602   2.309   5.627   7.536
 1681TIP3    H226603   2.450   5.572   7.548
 1682TIP3   OH226604   0.223   2.349   0.292
 1682TIP3    H126605   0.281   2.338   0.368
 1682TIP3    H226606   0.169   2.425   0.315
 1683TIP3   OH226607   3.281   2.442   2.333
 1683TIP3    H126608   3.188   2.442   2.355
 1683TIP3    H226609   3.295   2.356   2.294
 1684TIP3   OH226610   4.139   0.641   0.243
 1684TIP3    H126611   4.110   0.551   0.224
 1684TIP3    H226612   4.060   0.694   0.233
 1685TIP3   OH226613   0.556   4.544   2.452
 1685TIP3    H126614   0.524   4.616   2.507
 1685TIP3    H226615   0.627   4.505   2.501
 1686TIP3   OH226616   2.733   2.869   1.157
 1686TIP3    H126617   2.722   2.947   1.102
 1686TIP3    H226618   2.678   2.885   1.233
 1687TIP3   OH226619   4.126   0.841   8.835
 1687TIP3    H126620   4.042   0.801   8.815
 1687TIP3    H226621   4.168   0.854   8.750
 1688TIP3   OH226622   5.814   3.709   1.055
 1688TIP3    H126623   5.855   3.629   1.023
 1688TIP3    H226624   5.884   3.774   1.054
 1689TIP3   OH226625   2.187   5.950   1.121
 1689TIP3    H126626   2.093   5.953   1.136
 1689TIP3    H226627   2.216   6.041   1.130
 1690TIP3   OH226628   1.692   5.168   0.188
 1690TIP3    H126629   1.698   5.168   0.093
 1690TIP3    H226630   1.626   5.234   0.208
 1691TIP3   OH226631   0.548   2.636   8.456
 1691TIP3    H126632   0.602   2.686   8.395
 1691TIP3    H226633   0.500   2.574   8.401
 1692TIP3   OH226634   2.607   0.404   0.550
 1692TIP3    H126635   2.670   0.399   0.621
 1692TIP3    H226636   2.521   0.401   0.593
 1693TIP3   OH226637   4.192   0.636   6.806
 1693TIP3    H126638   4.120   0.582   6.774
 1693TIP3    H226639   4.176   0.645   6.899
 1694TIP3   OH226640   1.023   1.878   7.971
 1694TIP3    H126641   1.084   1.916   7.907
 1694TIP3    H226642   1.005   1.950   8.033
 1695TIP3   OH226643   2.554   1.183   8.727
 1695TIP3    H126644   2.548   1.228   8.642
 1695TIP3    H226645   2.624   1.229   8.773
 1696TIP3   OH226646   0.445   3.218   1.606
 1696TIP3    H126647   0.452   3.313   1.597
 1696TIP3    H226648   0.351   3.201   1.614
 1697TIP3   OH226649   1.402   3.860   7.940
 1697TIP3    H126650   1.361   3.774   7.925
 1697TIP3    H226651   1.328   3.920   7.950
 1698TIP3   OH226652   5.227   1.793   8.516
 1698TIP3    H126653   5.275   1.722   8.473
 1698TIP3    H226654   5.149   1.751   8.552
 1699TIP3   OH226655   2.753   4.604   2.108
 1699TIP3    H126656   2.770   4.682   2.161
 1699TIP3    H226657   2.830   4.596   2.052
 1700TIP3   OH226658   3.873   4.981   6.704
 1700TIP3    H126659   3.944   4.934   6.749
 1700TIP3    H226660   3.874   5.069   6.741
 1701TIP3   OH226661   2.215   3.307   8.615
 1701TIP3    H126662   2.126   3.314   8.651
 1701TIP3    H226663   2.264   3.260   8.683
 1702TIP3   OH226664   1.803   6.173   7.159
 1702TIP3    H126665   1.727   6.167   7.102
 1702TIP3    H226666   1.862   6.104   7.128
 1703TIP3   OH226667   2.765   1.499   8.776
 1703TIP3    H126668   2.856   1.525   8.791
 1703TIP3    H226669   2.755   1.417   8.823
 1704TIP3   OH226670   5.874   4.368   0.863
 1704TIP3    H126671   5.843   4.289   0.819
 1704TIP3    H226672   5.795   4.411   0.894
 1705TIP3   OH226673   3.322   5.329   1.286
 1705TIP3    H126674   3.345   5.409   1.334
 1705TIP3    H226675   3.403   5.278   1.284
 1706TIP3   OH226676   1.611   4.480   7.842
 1706TIP3    H126677   1.609   4.465   7.936
 1706TIP3    H226678   1.635   4.395   7.804
 1707TIP3   OH226679   3.535   5.361   1.867
 1707TIP3    H126680   3.512   5.361   1.959
 1707TIP3    H226681   3.558   5.452   1.848
 1708TIP3   OH226682   0.030   2.887   7.747
 1708TIP3    H126683   0.112   2.935   7.744
 1708TIP3    H226684   0.044   2.811   7.690
 1709TIP3   OH226685   0.042   4.964   0.821
 1709TIP3    H126686   0.100   4.908   0.873
 1709TIP3    H226687   0.100   5.028   0.781
 1710TIP3   OH226688   1.842   2.593   8.658
 1710TIP3    H126689   1.816   2.679   8.626
 1710TIP3    H226690   1.893   2.612   8.737
 1711TIP3   OH226691   2.071   5.380   6.783
 1711TIP3    H126692   2.006   5.338   6.726
 1711TIP3    H226693   2.062   5.335   6.867
 1712TIP3   OH226694   3.439   1.869   0.759
 1712TIP3    H126695   3.396   1.890   0.842
 1712TIP3    H226696   3.533   1.875   0.778
 1713TIP3   OH226697   3.199   5.066   8.060
 1713TIP3    H126698   3.166   5.138   8.006
 1713TIP3    H226699   3.211   4.993   7.998
 1714TIP3   OH226700   6.283   2.735   7.341
 1714TIP3    H126701   6.261   2.645   7.316
 1714TIP3    H226702   6.335   2.769   7.269
 1715TIP3   OH226703   0.495   5.895   6.981
 1715TIP3    H126704   0.434   5.827   6.951
 1715TIP3    H226705   0.464   5.918   7.068
 1716TIP3   OH226706   3.212   4.851   6.544
 1716TIP3    H126707   3.181   4.895   6.464
 1716TIP3    H226708   3.216   4.921   6.609
 1717TIP3   OH226709   5.795   5.002   0.706
 1717TIP3    H126710   5.858   5.070   0.682
 1717TIP3    H226711   5.773   4.960   0.623
 1718TIP3   OH226712   2.881   4.855   1.539
 1718TIP3    H126713   2.846   4.822   1.456
 1718TIP3    H226714   2.814   4.915   1.572
 1719TIP3   OH226715   2.285   1.759   8.376
 1719TIP3    H126716   2.233   1.815   8.318
 1719TIP3    H226717   2.298   1.812   8.455
 1720TIP3   OH226718   3.446   0.238   8.113
 1720TIP3    H126719   3.359   0.208   8.089
 1720TIP3    H226720   3.440   0.334   8.110
 1721TIP3   OH226721   5.876   2.651   6.663
 1721TIP3    H126722   5.880   2.704   6.584
 1721TIP3    H226723   5.952   2.677   6.714
 1722TIP3   OH226724   3.474   5.319   1.601
 1722TIP3    H126725   3.558   5.302   1.559
 1722TIP3    H226726   3.497   5.339   1.692
 1723TIP3   OH226727   2.572   2.908   0.482
 1723TIP3    H126728   2.510   2.947   0.420
 1723TIP3    H226729   2.542   2.938   0.568
 1724TIP3   OH226730   0.649   0.885   1.888
 1724TIP3    H126731   0.585   0.948   1.921
 1724TIP3    H226732   0.601   0.832   1.825
 1725TIP3   OH226733   0.287   3.751   7.949
 1725TIP3    H126734   0.196   3.776   7.930
 1725TIP3    H226735   0.316   3.703   7.872
 1726TIP3   OH226736   4.828   1.122   7.410
 1726TIP3    H126737   4.801   1.052   7.351
 1726TIP3    H226738   4.911   1.154   7.374
 1727TIP3   OH226739   2.796   2.708   1.755
 1727TIP3    H126740   2.764   2.631   1.801
 1727TIP3    H226741   2.795   2.684   1.663
 1728TIP3   OH226742   3.479   2.699   7.536
 1728TIP3    H126743   3.513   2.788   7.537
 1728TIP3    H226744   3.412   2.698   7.605
 1729TIP3   OH226745   3.369   3.356   0.535
 1729TIP3    H126746   3.314   3.302   0.478
 1729TIP3    H226747   3.325   3.353   0.620
 1730TIP3   OH226748   3.702   5.031   1.377
 1730TIP3    H126749   3.653   4.966   1.326
 1730TIP3    H226750   3.788   5.035   1.334
 1731TIP3   OH226751   0.340   4.148   2.613
 1731TIP3    H126752   0.416   4.185   2.659
 1731TIP3    H226753   0.272   4.142   2.681
 1732TIP3   OH226754   5.226   3.902   2.285
 1732TIP3    H126755   5.261   3.877   2.371
 1732TIP3    H226756   5.272   3.983   2.263
 1733TIP3   OH226757   6.115   0.340   7.029
 1733TIP3    H126758   6.082   0.287   6.957
 1733TIP3    H226759   6.037   0.381   7.067
 1734TIP3   OH226760   6.741   4.312   8.301
 1734TIP3    H126761   6.783   4.241   8.254
 1734TIP3    H226762   6.679   4.269   8.360
 1735TIP3   OH226763   3.458   0.262   7.707
 1735TIP3    H126764   3.379   0.298   7.747
 1735TIP3    H226765   3.430   0.180   7.667
 1736TIP3   OH226766   3.631   5.638   1.602
 1736TIP3    H126767   3.597   5.660   1.689
 1736TIP3    H226768   3.704   5.578   1.619
 1737TIP3   OH226769   0.068   1.238   8.005
 1737TIP3    H126770   0.058   1.214   7.913
 1737TIP3    H226771   0.161   1.227   8.023
 1738TIP3   OH226772   0.959   1.175   8.077
 1738TIP3    H126773   1.042   1.129   8.066
 1738TIP3    H226774   0.961   1.243   8.009
 1739TIP3   OH226775   5.948   2.748   7.435
 1739TIP3    H126776   5.941   2.770   7.342
 1739TIP3    H226777   5.868   2.782   7.474
 1740TIP3   OH226778   2.567   4.264   7.566
 1740TIP3    H126779   2.649   4.312   7.576
 1740TIP3    H226780   2.546   4.271   7.473
 1741TIP3   OH226781   6.663   2.233   6.544
 1741TIP3    H126782   6.589   2.275   6.502
 1741TIP3    H226783   6.712   2.305   6.585
 1742TIP3   OH226784   3.362   2.875   8.639
 1742TIP3    H126785   3.425   2.936   8.601
 1742TIP3    H226786   3.305   2.931   8.692
 1743TIP3   OH226787   1.633   3.983   6.823
 1743TIP3    H126788   1.698   3.959   6.758
 1743TIP3    H226789   1.550   3.979   6.777
 1744TIP3   OH226790   2.873   4.989   8.128
 1744TIP3    H126791   2.783   4.958   8.136
 1744TIP3    H226792   2.926   4.909   8.126
 1745TIP3   OH226793   5.669   4.141   0.999
 1745TIP3    H126794   5.657   4.068   1.060
 1745TIP3    H226795   5.636   4.108   0.916
 1746TIP3   OH226796   4.521   2.492   8.458
 1746TIP3    H126797   4.607   2.464   8.424
 1746TIP3    H226798   4.531   2.585   8.474
 1747TIP3   OH226799   6.740   4.296   7.789
 1747TIP3    H126800   6.797   4.292   7.866
 1747TIP3    H226801   6.721   4.205   7.768
 1748TIP3   OH226802   1.718   4.045   2.562
 1748TIP3    H126803   1.726   4.100   2.484
 1748TIP3    H226804   1.713   3.955   2.527
 1749TIP3   OH226805   4.604   4.070   7.165
 1749TIP3    H126806   4.569   4.131   7.099
 1749TIP3    H226807   4.599   4.118   7.247
 1750TIP3   OH226808   1.623   6.136   1.596
 1750TIP3    H126809   1.610   6.103   1.684
 1750TIP3    H226810   1.708   6.180   1.599
 1751TIP3   OH226811   4.739   6.624   7.139
 1751TIP3    H126812   4.651   6.647   7.169
 1751TIP3    H226813   4.792   6.623   7.219
 1752TIP3   OH226814   4.418   0.427   6.318
 1752TIP3    H126815   4.331   0.432   6.277
 1752TIP3    H226816   4.418   0.343   6.363
 1753TIP3   OH226817   5.099   3.905   8.761
 1753TIP3    H126818   5.126   3.813   8.767
 1753TIP3    H226819   5.134   3.946   8.840
 1754TIP3   OH226820   0.745   3.275   0.521
 1754TIP3    H126821   0.742   3.180   0.511
 1754TIP3    H226822   0.731   3.290   0.615
 1755TIP3   OH226823   0.737   4.492   0.337
 1755TIP3    H126824   0.653   4.455   0.363
 1755TIP3    H226825   0.756   4.451   0.253
 1756TIP3   OH226826   5.568   0.101   2.491
 1756TIP3    H126827   5.629   0.123   2.421
 1756TIP3    H226828   5.520   0.183   2.506
 1757TIP3   OH226829   1.468   6.636   2.538
 1757TIP3    H126830   1.552   6.602   2.568
 1757TIP3    H226831   1.490   6.717   2.491
 1758TIP3   OH226832   4.372   1.989   7.922
 1758TIP3    H126833   4.421   1.939   7.856
 1758TIP3    H226834   4.439   2.043   7.965
 1759TIP3   OH226835   4.594   0.058   1.426
 1759TIP3    H126836   4.635   6.785   1.380
 1759TIP3    H226837   4.659   0.127   1.423
 1760TIP3   OH226838   4.003   4.532   8.644
 1760TIP3    H126839   3.968   4.510   8.558
 1760TIP3    H226840   4.093   4.559   8.627
 1761TIP3   OH226841   2.215   3.947   6.226
 1761TIP3    H126842   2.151   3.896   6.275
 1761TIP3    H226843   2.299   3.905   6.245
 1762TIP3   OH226844   2.450   6.648   0.641
 1762TIP3    H126845   2.403   6.701   0.577
 1762TIP3    H226846   2.518   6.604   0.590
 1763TIP3   OH226847   3.064   5.504   1.748
 1763TIP3    H126848   3.074   5.451   1.669
 1763TIP3    H226849   2.972   5.532   1.747
 1764TIP3   OH226850   6.613   4.862   1.137
 1764TIP3    H126851   6.571   4.776   1.130
 1764TIP3    H226852   6.618   4.880   1.231
 1765TIP3   OH226853   0.384   3.521   0.735
 1765TIP3    H126854   0.320   3.453   0.715
 1765TIP3    H226855   0.456   3.506   0.673
 1766TIP3   OH226856   3.829   4.060   7.366
 1766TIP3    H126857   3.765   3.991   7.348
 1766TIP3    H226858   3.894   4.050   7.297
 1767TIP3   OH226859   2.325   2.464   8.310
 1767TIP3    H126860   2.379   2.390   8.280
 1767TIP3    H226861   2.359   2.539   8.262
 1768TIP3   OH226862   2.524   3.748   0.341
 1768TIP3    H126863   2.441   3.737   0.295
 1768TIP3    H226864   2.510   3.708   0.426
 1769TIP3   OH226865   4.065   5.517   2.143
 1769TIP3    H126866   4.152   5.550   2.121
 1769TIP3    H226867   4.071   5.422   2.131
 1770TIP3   OH226868   3.745   4.762   7.339
 1770TIP3    H126869   3.698   4.683   7.367
 1770TIP3    H226870   3.689   4.834   7.366
 1771TIP3   OH226871   5.982   0.837   2.080
 1771TIP3    H126872   6.028   0.918   2.099
 1771TIP3    H226873   6.047   0.782   2.036
 1772TIP3   OH226874   1.779   0.610   0.838
 1772TIP3    H126875   1.691   0.639   0.813
 1772TIP3    H226876   1.834   0.633   0.763
 1773TIP3   OH226877   1.598   6.315   8.773
 1773TIP3    H126878   1.572   6.397   8.732
 1773TIP3    H226879   1.678   6.336   8.821
 1774TIP3   OH226880   0.620   0.226   8.715
 1774TIP3    H126881   0.608   0.310   8.759
 1774TIP3    H226882   0.715   0.217   8.706
 1775TIP3   OH226883   4.353   1.325   7.335
 1775TIP3    H126884   4.355   1.243   7.287
 1775TIP3    H226885   4.339   1.300   7.426
 1776TIP3   OH226886   0.386   2.430   8.716
 1776TIP3    H126887   0.468   2.478   8.727
 1776TIP3    H226888   0.365   2.438   8.623
 1777TIP3   OH226889   5.566   4.220   1.656
 1777TIP3    H126890   5.533   4.191   1.741
 1777TIP3    H226891   5.624   4.150   1.627
 1778TIP3   OH226892   4.999   4.960   6.991
 1778TIP3    H126893   5.083   4.938   7.032
 1778TIP3    H226894   5.015   5.042   6.946
 1779TIP3   OH226895   3.526   6.430   0.303
 1779TIP3    H126896   3.509   6.404   0.394
 1779TIP3    H226897   3.491   6.518   0.296
 1780TIP3   OH226898   1.080   2.363   0.741
 1780TIP3    H126899   1.054   2.391   0.654
 1780TIP3    H226900   1.075   2.267   0.738
 1781TIP3   OH226901   3.076   2.795   8.847
 1781TIP3    H126902   3.126   2.875   0.002
 1781TIP3    H226903   3.141   2.725   8.851
 1782TIP3   OH226904   2.070   3.294   7.828
 1782TIP3    H126905   2.058   3.389   7.832
 1782TIP3    H226906   2.136   3.281   7.759
 1783TIP3   OH226907   3.844   1.709   1.573
 1783TIP3    H126908   3.763   1.659   1.573
 1783TIP3    H226909   3.823   1.788   1.623
 1784TIP3   OH226910   5.544   3.389   7.371
 1784TIP3    H126911   5.584   3.437   7.299
 1784TIP3    H226912   5.483   3.452   7.411
 1785TIP3   OH226913   3.775   6.748   7.727
 1785TIP3    H126914   3.755   6.696   7.648
 1785TIP3    H226915   3.832   0.018   7.696
 1786TIP3   OH226916   4.941   5.574   0.400
 1786TIP3    H126917   4.955   5.548   0.309
 1786TIP3    H226918   4.994   5.653   0.411
 1787TIP3   OH226919   2.690   3.071   7.192
 1787TIP3    H126920   2.610   3.018   7.192
 1787TIP3    H226921   2.673   3.140   7.256
 1788TIP3   OH226922   1.655   6.016   1.192
 1788TIP3    H126923   1.586   6.082   1.183
 1788TIP3    H226924   1.631   5.967   1.271
 1789TIP3   OH226925   5.433   5.120   8.216
 1789TIP3    H126926   5.515   5.081   8.189
 1789TIP3    H226927   5.439   5.211   8.186
 1790TIP3   OH226928   0.996   3.842   1.212
 1790TIP3    H126929   1.087   3.872   1.206
 1790TIP3    H226930   0.979   3.836   1.306
 1791TIP3   OH226931   3.481   0.812   8.190
 1791TIP3    H126932   3.494   0.820   8.285
 1791TIP3    H226933   3.469   0.901   8.160
 1792TIP3   OH226934   3.880   6.575   0.532
 1792TIP3    H126935   3.794   6.600   0.499
 1792TIP3    H226936   3.863   6.499   0.589
 1793TIP3   OH226937   5.850   5.645   0.409
 1793TIP3    H126938   5.839   5.556   0.442
 1793TIP3    H226939   5.939   5.669   0.434
 1794TIP3   OH226940   3.839   4.275   6.529
 1794TIP3    H126941   3.899   4.343   6.498
 1794TIP3    H226942   3.789   4.251   6.452
 1795TIP3   OH226943   4.807   0.523   7.789
 1795TIP3    H126944   4.806   0.597   7.850
 1795TIP3    H226945   4.899   0.506   7.773
 1796TIP3   OH226946   3.746   6.372   1.673
 1796TIP3    H126947   3.792   6.294   1.640
 1796TIP3    H226948   3.778   6.442   1.616
 1797TIP3   OH226949   6.301   3.260   0.743
 1797TIP3    H126950   6.335   3.176   0.713
 1797TIP3    H226951   6.246   3.238   0.818
 1798TIP3   OH226952   6.155   5.138   0.869
 1798TIP3    H126953   6.249   5.122   0.876
 1798TIP3    H226954   6.116   5.050   0.872
 1799TIP3   OH226955   2.629   1.732   0.802
 1799TIP3    H126956   2.620   1.782   0.884
 1799TIP3    H226957   2.556   1.670   0.804
 1800TIP3   OH226958   4.553   1.298   8.505
 1800TIP3    H126959   4.474   1.350   8.520
 1800TIP3    H226960   4.611   1.320   8.577
 1801TIP3   OH226961   5.840   4.631   1.543
 1801TIP3    H126962   5.896   4.690   1.493
 1801TIP3    H226963   5.788   4.690   1.599
 1802TIP3   OH226964   6.125   1.119   8.437
 1802TIP3    H126965   6.037   1.085   8.453
 1802TIP3    H226966   6.173   1.044   8.401
 1803TIP3   OH226967   1.450   2.394   0.622
 1803TIP3    H126968   1.449   2.418   0.715
 1803TIP3    H226969   1.543   2.388   0.600
 1804TIP3   OH226970   6.791   1.366   7.067
 1804TIP3    H126971   0.049   1.414   7.008
 1804TIP3    H226972   6.705   1.371   7.025
 1805TIP3   OH226973   0.077   0.239   8.037
 1805TIP3    H126974   0.090   0.144   8.030
 1805TIP3    H226975   0.151   0.270   8.089
 1806TIP3   OH226976   1.897   1.569   0.459
 1806TIP3    H126977   1.930   1.566   0.369
 1806TIP3    H226978   1.815   1.520   0.457
 1807TIP3   OH226979   5.215   1.361   1.900
 1807TIP3    H126980   5.238   1.449   1.872
 1807TIP3    H226981   5.230   1.307   1.822
 1808TIP3   OH226982   5.956   2.833   0.184
 1808TIP3    H126983   6.034   2.885   0.206
 1808TIP3    H226984   5.900   2.894   0.135
 1809TIP3   OH226985   3.037   3.126   8.446
 1809TIP3    H126986   3.099   3.191   8.480
 1809TIP3    H226987   2.954   3.149   8.487
 1810TIP3   OH226988   3.570   0.618   7.052
 1810TIP3    H126989   3.640   0.564   7.088
 1810TIP3    H226990   3.495   0.603   7.110
 1811TIP3   OH226991   1.410   3.837   6.402
 1811TIP3    H126992   1.321   3.846   6.369
 1811TIP3    H226993   1.446   3.761   6.356
 1812TIP3   OH226994   0.729   2.316   1.688
 1812TIP3    H126995   0.703   2.258   1.759
 1812TIP3    H226996   0.649   2.361   1.662
 1813TIP3   OH226997   3.142   4.435   7.070
 1813TIP3    H126998   3.050   4.448   7.095
 1813TIP3    H226999   3.146   4.344   7.039
 1814TIP3   OH227000   3.421   4.811   8.395
 1814TIP3    H127001   3.434   4.753   8.470
 1814TIP3    H227002   3.499   4.799   8.341
 1815TIP3   OH227003   4.163   4.263   1.642
 1815TIP3    H127004   4.119   4.194   1.691
 1815TIP3    H227005   4.243   4.281   1.692
 1816TIP3   OH227006   0.291   5.307   8.797
 1816TIP3    H127007   0.212   5.266   8.832
 1816TIP3    H227008   0.363   5.260   8.839
 1817TIP3   OH227009   0.240   5.855   2.067
 1817TIP3    H127010   0.317   5.904   2.098
 1817TIP3    H227011   0.214   5.802   2.143
 1818TIP3   OH227012   5.400   5.900   8.055
 1818TIP3    H127013   5.486   5.911   8.014
 1818TIP3    H227014   5.418   5.857   8.138
 1819TIP3   OH227015   6.230   5.357   7.626
 1819TIP3    H127016   6.206   5.306   7.703
 1819TIP3    H227017   6.163   5.424   7.619
 1820TIP3   OH227018   0.335   4.538   8.105
 1820TIP3    H127019   0.289   4.572   8.182
 1820TIP3    H227020   0.297   4.586   8.031
 1821TIP3   OH227021   4.345   5.479   2.235
 1821TIP3    H127022   4.362   5.523   2.319
 1821TIP3    H227023   4.360   5.386   2.253
 1822TIP3   OH227024   4.394   2.640   7.707
 1822TIP3    H127025   4.475   2.593   7.689
 1822TIP3    H227026   4.422   2.732   7.716
 1823TIP3   OH227027   5.940   1.239   7.901
 1823TIP3    H127028   5.953   1.233   7.996
 1823TIP3    H227029   5.884   1.315   7.889
 1824TIP3   OH227030   2.410   4.639   1.402
 1824TIP3    H127031   2.429   4.546   1.411
 1824TIP3    H227032   2.415   4.656   1.308
 1825TIP3   OH227033   5.265   4.336   0.284
 1825TIP3    H127034   5.247   4.347   0.190
 1825TIP3    H227035   5.305   4.419   0.310
 1826TIP3   OH227036   3.393   4.869   8.710
 1826TIP3    H127037   3.303   4.847   8.735
 1826TIP3    H227038   3.384   4.918   8.628
 1827TIP3   OH227039   1.107   6.052   0.878
 1827TIP3    H127040   1.023   6.023   0.914
 1827TIP3    H227041   1.157   6.082   0.954
 1828TIP3   OH227042   2.909   4.305   7.304
 1828TIP3    H127043   2.868   4.295   7.390
 1828TIP3    H227044   2.838   4.331   7.246
 1829TIP3   OH227045   5.722   0.114   0.810
 1829TIP3    H127046   5.792   0.169   0.775
 1829TIP3    H227047   5.651   0.174   0.830
 1830TIP3   OH227048   0.083   2.118   0.200
 1830TIP3    H127049   0.138   2.195   0.217
 1830TIP3    H227050   0.142   2.044   0.211
 1831TIP3   OH227051   5.433   6.174   1.173
 1831TIP3    H127052   5.438   6.103   1.237
 1831TIP3    H227053   5.344   6.170   1.139
 1832TIP3   OH227054   1.136   3.293   1.845
 1832TIP3    H127055   1.083   3.255   1.775
 1832TIP3    H227056   1.191   3.221   1.876
 1833TIP3   OH227057   6.722   6.683   0.205
 1833TIP3    H127058   6.644   6.721   0.165
 1833TIP3    H227059   6.689   6.635   0.281
 1834TIP3   OH227060   5.076   1.255   7.303
 1834TIP3    H127061   5.140   1.204   7.255
 1834TIP3    H227062   5.108   1.255   7.393
 1835TIP3   OH227063   3.945   4.848   0.243
 1835TIP3    H127064   3.856   4.815   0.235
 1835TIP3    H227065   3.973   4.863   0.153
 1836TIP3   OH227066   6.056   1.254   6.622
 1836TIP3    H127067   6.004   1.183   6.660
 1836TIP3    H227068   6.147   1.224   6.630
 1837TIP3   OH227069   1.041   1.406   1.989
 1837TIP3    H127070   1.095   1.371   1.918
 1837TIP3    H227071   1.100   1.415   2.063
 1838TIP3   OH227072   2.566   0.193   1.847
 1838TIP3    H127073   2.615   0.270   1.816
 1838TIP3    H227074   2.633   0.136   1.886
 1839TIP3   OH227075   0.068   3.394   7.891
 1839TIP3    H127076   0.031   3.459   7.951
 1839TIP3    H227077   0.054   3.431   7.804
 1840TIP3   OH227078   4.767   2.901   0.630
 1840TIP3    H127079   4.786   2.929   0.540
 1840TIP3    H227080   4.676   2.925   0.644
 1841TIP3   OH227081   0.914   5.237   0.082
 1841TIP3    H127082   0.960   5.255   0.000
 1841TIP3    H227083   0.830   5.283   0.073
 1842TIP3   OH227084   2.539   3.980   7.589
 1842TIP3    H127085   2.549   4.074   7.573
 1842TIP3    H227086   2.611   3.940   7.540
 1843TIP3   OH227087   0.498   1.736   0.733
 1843TIP3    H127088   0.425   1.699   0.684
 1843TIP3    H227089   0.469   1.735   0.824
 1844TIP3   OH227090   1.324   6.301   7.004
 1844TIP3    H127091   1.415   6.282   7.029
 1844TIP3    H227092   1.329   6.318   6.910
 1845TIP3   OH227093   6.251   2.871   0.333
 1845TIP3    H127094   6.327   2.822   0.302
 1845TIP3    H227095   6.237   2.939   0.266
 1846TIP3   OH227096   4.423   6.386   0.483
 1846TIP3    H127097   4.358   6.339   0.534
 1846TIP3    H227098   4.374   6.429   0.413
 1847TIP3   OH227099   4.681   4.787   8.262
 1847TIP3    H127100   4.652   4.778   8.352
 1847TIP3    H227101   4.600   4.799   8.212
 1848TIP3   OH227102   6.032   4.743   1.341
 1848TIP3    H127103   6.105   4.782   1.294
 1848TIP3    H227104   5.966   4.725   1.274
 1849TIP3   OH227105   1.144   2.670   1.122
 1849TIP3    H127106   1.050   2.688   1.114
 1849TIP3    H227107   1.161   2.671   1.216
 1850TIP3   OH227108   1.918   4.001   7.870
 1850TIP3    H127109   1.884   4.077   7.823
 1850TIP3    H227110   1.849   3.934   7.861
 1851TIP3   OH227111   1.275   4.505   0.162
 1851TIP3    H127112   1.233   4.448   0.097
 1851TIP3    H227113   1.228   4.588   0.156
 1852TIP3   OH227114   6.191   4.888   7.804
 1852TIP3    H127115   6.225   4.943   7.734
 1852TIP3    H227116   6.150   4.949   7.865
 1853TIP3   OH227117   2.521   6.342   1.053
 1853TIP3    H127118   2.548   6.417   1.104
 1853TIP3    H227119   2.511   6.375   0.964
 1854TIP3   OH227120   2.252   1.477   7.434
 1854TIP3    H127121   2.250   1.445   7.344
 1854TIP3    H227122   2.330   1.533   7.438
 1855TIP3   OH227123   2.158   0.556   6.993
 1855TIP3    H127124   2.224   0.500   7.035
 1855TIP3    H227125   2.195   0.644   6.998
 1856TIP3   OH227126   2.162   6.515   8.739
 1856TIP3    H127127   2.183   6.547   8.651
 1856TIP3    H227128   2.121   6.590   8.782
 1857TIP3   OH227129   3.765   2.490   0.519
 1857TIP3    H127130   3.849   2.534   0.507
 1857TIP3    H227131   3.747   2.448   0.435
 1858TIP3   OH227132   3.724   6.311   8.254
 1858TIP3    H127133   3.713   6.344   8.165
 1858TIP3    H227134   3.696   6.384   8.310
 1859TIP3   OH227135   4.001   4.583   7.194
 1859TIP3    H127136   4.032   4.663   7.151
 1859TIP3    H227137   3.907   4.597   7.206
 1860TIP3   OH227138   2.395   4.546   7.502
 1860TIP3    H127139   2.431   4.462   7.531
 1860TIP3    H227140   2.456   4.576   7.434
 1861TIP3   OH227141   0.551   6.001   8.591
 1861TIP3    H127142   0.484   6.015   8.658
 1861TIP3    H227143   0.521   6.053   8.517
 1862TIP3   OH227144   1.592   2.342   0.212
 1862TIP3    H127145   1.581   2.255   0.250
 1862TIP3    H227146   1.633   2.394   0.281
 1863TIP3   OH227147   2.023   2.828   1.505
 1863TIP3    H127148   2.102   2.804   1.457
 1863TIP3    H227149   1.958   2.763   1.478
 1864TIP3   OH227150   2.587   4.487   1.740
 1864TIP3    H127151   2.656   4.547   1.765
 1864TIP3    H227152   2.507   4.526   1.773
 1865TIP3   OH227153   2.205   1.556   7.962
 1865TIP3    H127154   2.276   1.562   8.026
 1865TIP3    H227155   2.246   1.580   7.879
 1866TIP3   OH227156   4.764   4.613   1.873
 1866TIP3    H127157   4.813   4.632   1.953
 1866TIP3    H227158   4.682   4.574   1.903
 1867TIP3   OH227159   4.490   2.581   2.442
 1867TIP3    H127160   4.564   2.545   2.490
 1867TIP3    H227161   4.519   2.582   2.351
 1868TIP3   OH227162   2.289   0.829   6.892
 1868TIP3    H127163   2.288   0.762   6.824
 1868TIP3    H227164   2.292   0.912   6.843
 1869TIP3   OH227165   1.672   3.294   8.165
 1869TIP3    H127166   1.580   3.289   8.192
 1869TIP3    H227167   1.692   3.205   8.134
 1870TIP3   OH227168   4.116   3.610   7.912
 1870TIP3    H127169   4.080   3.698   7.901
 1870TIP3    H227170   4.093   3.565   7.831
 1871TIP3   OH227171   6.390   1.476   1.923
 1871TIP3    H127172   6.471   1.462   1.971
 1871TIP3    H227173   6.353   1.555   1.962
 1872TIP3   OH227174   5.290   4.379   0.610
 1872TIP3    H127175   5.356   4.309   0.612
 1872TIP3    H227176   5.254   4.376   0.522
 1873TIP3   OH227177   5.891   3.589   0.251
 1873TIP3    H127178   5.870   3.653   0.184
 1873TIP3    H227179   5.977   3.556   0.227
 1874TIP3   OH227180   0.245   4.455   0.004
 1874TIP3    H127181   0.195   4.383   0.043
 1874TIP3    H227182   0.334   4.419   8.855
 1875TIP3   OH227183   6.227   2.209   7.731
 1875TIP3    H127184   6.145   2.202   7.780
 1875TIP3    H227185   6.201   2.246   7.646
 1876TIP3   OH227186   4.326   2.131   6.920
 1876TIP3    H127187   4.355   2.044   6.894
 1876TIP3    H227188   4.255   2.152   6.860
 1877TIP3   OH227189   5.987   1.352   1.754
 1877TIP3    H127190   5.942   1.431   1.786
 1877TIP3    H227191   5.979   1.357   1.659
 1878TIP3   OH227192   5.980   0.251   2.220
 1878TIP3    H127193   6.075   0.240   2.232
 1878TIP3    H227194   5.972   0.320   2.155
 1879TIP3   OH227195   3.591   1.740   1.696
 1879TIP3    H127196   3.513   1.720   1.645
 1879TIP3    H227197   3.565   1.812   1.753
 1880TIP3   OH227198   2.824   3.792   8.028
 1880TIP3    H127199   2.919   3.800   8.041
 1880TIP3    H227200   2.789   3.774   8.115
 1881TIP3   OH227201   5.751   1.881   2.522
 1881TIP3    H127202   5.838   1.847   2.539
 1881TIP3    H227203   5.702   1.806   2.490
 1882TIP3   OH227204   3.841   4.356   0.552
 1882TIP3    H127205   3.848   4.327   0.643
 1882TIP3    H227206   3.828   4.451   0.558
 1883TIP3   OH227207   3.249   0.161   0.129
 1883TIP3    H127208   3.232   0.191   0.218
 1883TIP3    H227209   3.332   0.114   0.134
 1884TIP3   OH227210   6.786   2.844   1.207
 1884TIP3    H127211   0.041   2.881   1.138
 1884TIP3    H227212   0.031   2.764   1.233
 1885TIP3   OH227213   2.190   3.875   7.488
 1885TIP3    H127214   2.230   3.854   7.572
 1885TIP3    H227215   2.195   3.970   7.482
 1886TIP3   OH227216   4.528   1.462   1.064
 1886TIP3    H127217   4.511   1.504   1.149
 1886TIP3    H227218   4.553   1.534   1.007
 1887TIP3   OH227219   2.553   3.811   0.746
 1887TIP3    H127220   2.609   3.773   0.814
 1887TIP3    H227221   2.520   3.892   0.785
 1888TIP3   OH227222   0.536   6.786   1.096
 1888TIP3    H127223   0.525   0.027   1.182
 1888TIP3    H227224   0.630   6.794   1.078
 1889TIP3   OH227225   4.178   5.392   6.935
 1889TIP3    H127226   4.220   5.457   6.879
 1889TIP3    H227227   4.086   5.395   6.910
 1890TIP3   OH227228   4.927   4.762   8.174
 1890TIP3    H127229   4.841   4.774   8.216
 1890TIP3    H227230   4.917   4.800   8.087
 1891TIP3   OH227231   6.174   5.587   1.668
 1891TIP3    H127232   6.096   5.536   1.646
 1891TIP3    H227233   6.173   5.593   1.764
 1892TIP3   OH227234   1.501   2.906   1.756
 1892TIP3    H127235   1.473   2.828   1.805
 1892TIP3    H227236   1.567   2.873   1.695
 1893TIP3   OH227237   3.875   2.229   0.881
 1893TIP3    H127238   3.829   2.175   0.817
 1893TIP3    H227239   3.900   2.308   0.832
 1894TIP3   OH227240   4.094   3.672   1.491
 1894TIP3    H127241   4.093   3.712   1.404
 1894TIP3    H227242   4.067   3.743   1.550
 1895TIP3   OH227243   0.126   4.282   6.723
 1895TIP3    H127244   0.221   4.282   6.730
 1895TIP3    H227245   0.095   4.268   6.813
 1896TIP3   OH227246   0.891   1.391   1.416
 1896TIP3    H127247   0.821   1.455   1.425
 1896TIP3    H227248   0.943   1.400   1.496
 1897TIP3   OH227249   5.541   1.834   7.341
 1897TIP3    H127250   5.512   1.923   7.361
 1897TIP3    H227251   5.588   1.842   7.258
 1898TIP3   OH227252   4.385   2.231   0.037
 1898TIP3    H127253   4.442   2.204   0.109
 1898TIP3    H227254   4.442   2.238   8.822
 1899TIP3   OH227255   5.312   3.797   6.701
 1899TIP3    H127256   5.299   3.702   6.705
 1899TIP3    H227257   5.395   3.811   6.746
 1900TIP3   OH227258   5.441   2.994   0.069
 1900TIP3    H127259   5.511   3.025   0.012
 1900TIP3    H227260   5.360   3.014   0.021
 1901TIP3   OH227261   6.350   0.511   7.003
 1901TIP3    H127262   6.276   0.458   7.032
 1901TIP3    H227263   6.364   0.484   6.912
 1902TIP3   OH227264   3.876   3.901   6.067
 1902TIP3    H127265   3.941   3.838   6.038
 1902TIP3    H227266   3.894   3.912   6.161
 1903TIP3   OH227267   5.360   4.491   7.100
 1903TIP3    H127268   5.326   4.580   7.092
 1903TIP3    H227269   5.448   4.495   7.063
 1904TIP3   OH227270   5.573   3.864   1.606
 1904TIP3    H127271   5.483   3.874   1.573
 1904TIP3    H227272   5.572   3.913   1.689
 1905TIP3   OH227273   5.594   5.852   1.866
 1905TIP3    H127274   5.674   5.841   1.814
 1905TIP3    H227275   5.595   5.779   1.928
 1906TIP3   OH227276   5.472   2.221   1.578
 1906TIP3    H127277   5.423   2.246   1.656
 1906TIP3    H227278   5.523   2.144   1.605
 1907TIP3   OH227279   5.943   2.250   7.837
 1907TIP3    H127280   5.912   2.259   7.747
 1907TIP3    H227281   5.869   2.278   7.891
 1908TIP3   OH227282   5.013   5.459   0.143
 1908TIP3    H127283   5.062   5.453   0.061
 1908TIP3    H227284   5.051   5.391   0.199
 1909TIP3   OH227285   5.737   6.444   1.176
 1909TIP3    H127286   5.736   6.516   1.113
 1909TIP3    H227287   5.803   6.383   1.143
 1910TIP3   OH227288   5.510   1.833   8.228
 1910TIP3    H127289   5.501   1.753   8.280
 1910TIP3    H227290   5.605   1.847   8.221
 1911TIP3   OH227291   2.110   6.786   8.825
 1911TIP3    H127292   2.015   6.796   8.816
 1911TIP3    H227293   2.128   6.800   0.057
 1912TIP3   OH227294   0.703   2.654   7.509
 1912TIP3    H127295   0.715   2.562   7.535
 1912TIP3    H227296   0.747   2.661   7.425
 1913TIP3   OH227297   2.217   6.641   8.259
 1913TIP3    H127298   2.240   6.616   8.348
 1913TIP3    H227299   2.259   6.576   8.203
 1914TIP3   OH227300   1.462   6.750   8.297
 1914TIP3    H127301   1.461   6.729   8.390
 1914TIP3    H227302   1.468   6.666   8.253
 1915TIP3   OH227303   4.626   5.089   8.684
 1915TIP3    H127304   4.544   5.127   8.717
 1915TIP3    H227305   4.621   5.100   8.589
 1916TIP3   OH227306   0.809   6.589   8.076
 1916TIP3    H127307   0.886   6.639   8.046
 1916TIP3    H227308   0.813   6.594   8.171
 1917TIP3   OH227309   2.004   6.020   0.207
 1917TIP3    H127310   2.052   5.953   0.159
 1917TIP3    H227311   1.919   5.980   0.226
 1918TIP3   OH227312   1.715   3.969   7.548
 1918TIP3    H127313   1.633   3.941   7.589
 1918TIP3    H227314   1.734   3.902   7.483
 1919TIP3   OH227315   0.887   1.740   8.209
 1919TIP3    H127316   0.918   1.814   8.155
 1919TIP3    H227317   0.957   1.725   8.272
 1920TIP3   OH227318   4.468   3.934   1.320
 1920TIP3    H127319   4.543   3.892   1.277
 1920TIP3    H227320   4.461   3.887   1.404
 1921TIP3   OH227321   0.494   5.805   7.967
 1921TIP3    H127322   0.550   5.880   7.988
 1921TIP3    H227323   0.476   5.765   8.052
 1922TIP3   OH227324   1.376   3.134   7.569
 1922TIP3    H127325   1.471   3.140   7.561
 1922TIP3    H227326   1.361   3.078   7.645
 1923TIP3   OH227327   2.003   1.104   0.704
 1923TIP3    H127328   2.075   1.167   0.710
 1923TIP3    H227329   1.993   1.088   0.610
 1924TIP3   OH227330   4.160   5.707   8.114
 1924TIP3    H127331   4.134   5.680   8.026
 1924TIP3    H227332   4.184   5.625   8.158
 1925TIP3   OH227333   0.927   0.854   0.751
 1925TIP3    H127334   0.960   0.894   0.671
 1925TIP3    H227335   0.927   0.760   0.732
 1926TIP3   OH227336   3.510   5.939   7.813
 1926TIP3    H127337   3.598   5.925   7.778
 1926TIP3    H227338   3.479   6.019   7.769
 1927TIP3   OH227339   3.926   6.052   8.777
 1927TIP3    H127340   3.966   6.010   8.701
 1927TIP3    H227341   3.948   5.995   8.851
 1928TIP3   OH227342   5.902   3.381   7.875
 1928TIP3    H127343   5.882   3.470   7.848
 1928TIP3    H227344   5.816   3.341   7.892
 1929TIP3   OH227345   6.132   1.868   6.460
 1929TIP3    H127346   6.140   1.834   6.371
 1929TIP3    H227347   6.095   1.956   6.449
 1930TIP3   OH227348   2.015   2.093   1.965
 1930TIP3    H127349   1.960   2.096   2.044
 1930TIP3    H227350   2.095   2.139   1.990
 1931TIP3   OH227351   2.273   0.627   8.343
 1931TIP3    H127352   2.252   0.720   8.342
 1931TIP3    H227353   2.189   0.584   8.361
 1932TIP3   OH227354   1.224   5.133   1.516
 1932TIP3    H127355   1.169   5.086   1.453
 1932TIP3    H227356   1.285   5.067   1.549
 1933TIP3   OH227357   4.737   3.106   1.634
 1933TIP3    H127358   4.664   3.063   1.680
 1933TIP3    H227359   4.694   3.165   1.572
 1934TIP3   OH227360   0.701   3.639   0.311
 1934TIP3    H127361   0.731   3.569   0.254
 1934TIP3    H227362   0.698   3.716   0.255
 1935TIP3   OH227363   2.652   5.822   1.398
 1935TIP3    H127364   2.696   5.899   1.432
 1935TIP3    H227365   2.694   5.806   1.313
 1936TIP3   OH227366   6.063   4.634   7.829
 1936TIP3    H127367   6.088   4.606   7.917
 1936TIP3    H227368   6.103   4.721   7.820
 1937TIP3   OH227369   5.192   5.706   1.138
 1937TIP3    H127370   5.280   5.717   1.174
 1937TIP3    H227371   5.206   5.667   1.052
 1938TIP3   OH227372   1.084   3.665   8.318
 1938TIP3    H127373   1.170   3.627   8.301
 1938TIP3    H227374   1.051   3.690   8.232
 1939TIP3   OH227375   5.370   2.313   7.056
 1939TIP3    H127376   5.431   2.334   6.985
 1939TIP3    H227377   5.361   2.218   7.051
 1940TIP3   OH227378   0.046   2.132   8.283
 1940TIP3    H127379   6.795   2.138   8.363
 1940TIP3    H227380   0.020   2.209   8.232
 1941TIP3   OH227381   2.638   1.259   8.483
 1941TIP3    H127382   2.665   1.232   8.396
 1941TIP3    H227383   2.715   1.303   8.520
 1942TIP3   OH227384   2.688   4.232   8.722
 1942TIP3    H127385   2.615   4.289   8.747
 1942TIP3    H227386   2.743   4.286   8.665
 1943TIP3   OH227387   6.429   3.724   7.218
 1943TIP3    H127388   6.373   3.717   7.141
 1943TIP3    H227389   6.457   3.815   7.219
 1944TIP3   OH227390   1.003   0.384   0.600
 1944TIP3    H127391   1.030   0.439   0.526
 1944TIP3    H227392   0.980   0.300   0.560
 1945TIP3   OH227393   1.796   1.425   8.651
 1945TIP3    H127394   1.747   1.410   8.732
 1945TIP3    H227395   1.742   1.487   8.602
 1946TIP3   OH227396   4.748   5.859   1.391
 1946TIP3    H127397   4.728   5.952   1.397
 1946TIP3    H227398   4.822   5.854   1.330
 1947TIP3   OH227399   2.753   1.046   0.527
 1947TIP3    H127400   2.690   1.022   0.595
 1947TIP3    H227401   2.781   1.134   0.551
 1948TIP3   OH227402   1.825   0.059   8.817
 1948TIP3    H127403   1.756   6.796   8.836
 1948TIP3    H227404   1.833   0.111   0.036
 1949TIP3   OH227405   3.368   0.968   1.322
 1949TIP3    H127406   3.371   0.873   1.315
 1949TIP3    H227407   3.457   0.993   1.349
 1950TIP3   OH227408   1.118   4.996   7.133
 1950TIP3    H127409   1.139   4.952   7.215
 1950TIP3    H227410   1.068   4.932   7.083
 1951TIP3   OH227411   3.177   1.651   1.391
 1951TIP3    H127412   3.176   1.665   1.296
 1951TIP3    H227413   3.194   1.558   1.401
 1952TIP3   OH227414   0.229   0.821   0.986
 1952TIP3    H127415   0.290   0.825   0.912
 1952TIP3    H227416   0.169   0.751   0.964
 1953TIP3   OH227417   2.846   2.646   8.857
 1953TIP3    H127418   2.928   2.687   8.830
 1953TIP3    H227419   2.838   2.667   0.090
 1954TIP3   OH227420   1.445   1.745   7.830
 1954TIP3    H127421   1.408   1.666   7.792
 1954TIP3    H227422   1.454   1.725   7.923
 1955TIP3   OH227423   6.755   5.218   2.432
 1955TIP3    H127424   0.043   5.199   2.401
 1955TIP3    H227425   6.745   5.165   2.511
 1956TIP3   OH227426   3.079   1.722   8.098
 1956TIP3    H127427   3.025   1.763   8.031
 1956TIP3    H227428   3.166   1.717   8.059
 1957TIP3   OH227429   6.480   2.724   0.260
 1957TIP3    H127430   6.504   2.654   0.200
 1957TIP3    H227431   6.516   2.803   0.221
 1958TIP3   OH227432   2.753   5.473   7.168
 1958TIP3    H127433   2.794   5.555   7.197
 1958TIP3    H227434   2.809   5.443   7.096
 1959TIP3   OH227435   1.827   2.781   6.416
 1959TIP3    H127436   1.890   2.730   6.468
 1959TIP3    H227437   1.880   2.848   6.374
 1960TIP3   OH227438   3.053   0.680   7.383
 1960TIP3    H127439   2.994   0.611   7.354
 1960TIP3    H227440   3.059   0.740   7.309
 1961TIP3   OH227441   4.873   1.138   0.311
 1961TIP3    H127442   4.799   1.107   0.259
 1961TIP3    H227443   4.878   1.232   0.294
 1962TIP3   OH227444   6.306   4.606   6.944
 1962TIP3    H127445   6.378   4.667   6.964
 1962TIP3    H227446   6.349   4.530   6.905
 1963TIP3   OH227447   6.658   4.548   1.261
 1963TIP3    H127448   6.631   4.457   1.275
 1963TIP3    H227449   6.744   4.554   1.303
 1964TIP3   OH227450   5.257   3.069   2.040
 1964TIP3    H127451   5.256   3.014   2.119
 1964TIP3    H227452   5.182   3.039   1.989
 1965TIP3   OH227453   4.138   6.560   8.499
 1965TIP3    H127454   4.230   6.540   8.482
 1965TIP3    H227455   4.098   6.569   8.412
 1966TIP3   OH227456   2.056   3.586   8.211
 1966TIP3    H127457   2.136   3.638   8.210
 1966TIP3    H227458   1.993   3.640   8.258
 1967TIP3   OH227459   4.842   2.042   0.280
 1967TIP3    H127460   4.910   2.038   0.213
 1967TIP3    H227461   4.832   1.951   0.309
 1968TIP3   OH227462   2.165   1.275   6.948
 1968TIP3    H127463   2.206   1.355   6.914
 1968TIP3    H227464   2.071   1.289   6.937
 1969TIP3   OH227465   2.290   1.371   1.167
 1969TIP3    H127466   2.195   1.368   1.168
 1969TIP3    H227467   2.311   1.462   1.143
 1970TIP3   OH227468   0.785   3.493   0.774
 1970TIP3    H127469   0.856   3.430   0.785
 1970TIP3    H227470   0.750   3.506   0.863
 1971TIP3   OH227471   4.673   4.444   1.297
 1971TIP3    H127472   4.615   4.462   1.223
 1971TIP3    H227473   4.621   4.466   1.374
 1972TIP3   OH227474   0.740   3.611   8.412
 1972TIP3    H127475   0.646   3.589   8.405
 1972TIP3    H227476   0.773   3.603   8.322
 1973TIP3   OH227477   0.558   3.494   0.505
 1973TIP3    H127478   0.637   3.441   0.497
 1973TIP3    H227479   0.557   3.548   0.425
 1974TIP3   OH227480   5.613   5.621   0.032
 1974TIP3    H127481   5.628   5.620   8.798
 1974TIP3    H227482   5.535   5.675   0.044
 1975TIP3   OH227483   6.234   3.643   0.551
 1975TIP3    H127484   6.302   3.590   0.593
 1975TIP3    H227485   6.161   3.582   0.537
 1976TIP3   OH227486   2.129   3.789   1.598
 1976TIP3    H127487   2.178   3.863   1.561
 1976TIP3    H227488   2.085   3.826   1.675
 1977TIP3   OH227489   5.904   0.530   0.441
 1977TIP3    H127490   5.959   0.586   0.496
 1977TIP3    H227491   5.943   0.535   0.354
 1978TIP3   OH227492   1.543   0.480   7.928
 1978TIP3    H127493   1.496   0.527   7.858
 1978TIP3    H227494   1.623   0.531   7.941
 1979TIP3   OH227495   0.132   2.305   7.406
 1979TIP3    H127496   0.142   2.231   7.465
 1979TIP3    H227497   0.041   2.332   7.417
 1980TIP3   OH227498   4.930   0.121   8.143
 1980TIP3    H127499   4.979   0.202   8.132
 1980TIP3    H227500   4.840   0.150   8.157
 1981TIP3   OH227501   0.255   5.290   1.986
 1981TIP3    H127502   0.249   5.384   2.001
 1981TIP3    H227503   0.219   5.278   1.898
 1982TIP3   OH227504   0.902   2.031   8.196
 1982TIP3    H127505   0.917   1.983   8.278
 1982TIP3    H227506   0.880   2.120   8.224
 1983TIP3   OH227507   1.359   4.091   8.788
 1983TIP3    H127508   1.379   4.084   8.694
 1983TIP3    H227509   1.356   4.185   8.805
 1984TIP3   OH227510   5.886   1.588   8.785
 1984TIP3    H127511   5.924   1.556   8.703
 1984TIP3    H227512   5.792   1.584   8.772
 1985TIP3   OH227513   1.733   1.884   0.685
 1985TIP3    H127514   1.794   1.954   0.663
 1985TIP3    H227515   1.735   1.826   0.609
 1986TIP3   OH227516   2.511   4.163   0.244
 1986TIP3    H127517   2.543   4.106   0.174
 1986TIP3    H227518   2.554   4.130   0.323
 1987TIP3   OH227519   0.127   4.067   1.231
 1987TIP3    H127520   0.035   4.053   1.212
 1987TIP3    H227521   0.169   4.074   1.145
 1988TIP3   OH227522   2.151   1.843   8.111
 1988TIP3    H127523   2.205   1.835   8.032
 1988TIP3    H227524   2.070   1.884   8.081
 1989TIP3   OH227525   4.137   0.087   0.239
 1989TIP3    H127526   4.143   0.130   0.325
 1989TIP3    H227527   4.067   0.023   0.249
 1990TIP3   OH227528   2.052   2.307   6.353
 1990TIP3    H127529   1.991   2.233   6.356
 1990TIP3    H227530   1.996   2.385   6.360
 1991TIP3   OH227531   2.205   1.805   6.718
 1991TIP3    H127532   2.136   1.739   6.718
 1991TIP3    H227533   2.174   1.871   6.655
 1992TIP3   OH227534   6.315   1.769   8.020
 1992TIP3    H127535   6.410   1.756   8.011
 1992TIP3    H227536   6.304   1.864   8.012
 1993TIP3   OH227537   1.451   0.984   8.378
 1993TIP3    H127538   1.505   1.054   8.343
 1993TIP3    H227539   1.386   1.028   8.433
 1994TIP3   OH227540   0.016   4.717   1.721
 1994TIP3    H127541   0.028   4.624   1.704
 1994TIP3    H227542   0.084   4.738   1.786
 1995TIP3   OH227543   2.988   0.667   0.887
 1995TIP3    H127544   2.930   0.636   0.817
 1995TIP3    H227545   3.010   0.756   0.861
 1996TIP3   OH227546   6.278   3.402   7.495
 1996TIP3    H127547   6.304   3.493   7.477
 1996TIP3    H227548   6.332   3.376   7.569
 1997TIP3   OH227549   4.298   5.904   2.168
 1997TIP3    H127550   4.272   5.854   2.246
 1997TIP3    H227551   4.272   5.849   2.094
 1998TIP3   OH227552   4.301   0.928   1.529
 1998TIP3    H127553   4.209   0.916   1.552
 1998TIP3    H227554   4.338   0.973   1.605
 1999TIP3   OH227555   4.306   4.926   8.846
 1999TIP3    H127556   4.390   4.897   8.810
 1999TIP3    H227557   4.313   5.022   8.846
 2000TIP3   OH227558   4.613   5.765   7.384
 2000TIP3    H127559   4.676   5.837   7.375
 2000TIP3    H227560   4.595   5.738   7.295
 2001TIP3   OH227561   3.740   1.330   1.178
 2001TIP3    H127562   3.777   1.333   1.090
 2001TIP3    H227563   3.809   1.364   1.235
 2002TIP3   OH227564   2.087   0.097   1.113
 2002TIP3    H127565   1.997   0.108   1.143
 2002TIP3    H227566   2.141   0.114   1.190
 2003TIP3   OH227567   0.408   4.808   7.978
 2003TIP3    H127568   0.343   4.759   8.028
 2003TIP3    H227569   0.357   4.859   7.915
 2004TIP3   OH227570   4.199   0.779   8.521
 2004TIP3    H127571   4.257   0.818   8.456
 2004TIP3    H227572   4.243   0.699   8.549
 2005TIP3   OH227573   2.136   1.697   1.435
 2005TIP3    H127574   2.086   1.702   1.353
 2005TIP3    H227575   2.135   1.603   1.457
 2006TIP3   OH227576   0.447   1.028   7.534
 2006TIP3    H127577   0.386   1.077   7.589
 2006TIP3    H227578   0.534   1.059   7.562
 2007TIP3   OH227579   3.822   2.414   8.617
 2007TIP3    H127580   3.913   2.385   8.627
 2007TIP3    H227581   3.827   2.509   8.613
 2008TIP3   OH227582   4.857   5.208   0.194
 2008TIP3    H127583   4.777   5.241   0.234
 2008TIP3    H227584   4.849   5.232   0.102
 2009TIP3   OH227585   0.943   2.400   0.250
 2009TIP3    H127586   1.012   2.415   0.315
 2009TIP3    H227587   0.946   2.306   0.233
 2010TIP3   OH227588   4.832   0.977   2.157
 2010TIP3    H127589   4.867   0.906   2.103
 2010TIP3    H227590   4.829   1.053   2.099
 2011TIP3   OH227591   5.198   5.312   1.061
 2011TIP3    H127592   5.214   5.398   1.022
 2011TIP3    H227593   5.283   5.269   1.060
 2012TIP3   OH227594   0.822   2.737   7.031
 2012TIP3    H127595   0.858   2.826   7.022
 2012TIP3    H227596   0.837   2.697   6.945
 2013TIP3   OH227597   5.089   3.869   7.334
 2013TIP3    H127598   5.175   3.911   7.341
 2013TIP3    H227599   5.026   3.940   7.345
 2014TIP3   OH227600   6.574   4.799   2.624
 2014TIP3    H127601   6.536   4.857   2.558
 2014TIP3    H227602   6.656   4.842   2.648
 2015TIP3   OH227603   3.120   2.351   7.131
 2015TIP3    H127604   3.058   2.356   7.058
 2015TIP3    H227605   3.091   2.419   7.191
 2016TIP3   OH227606   4.416   3.509   6.844
 2016TIP3    H127607   4.333   3.548   6.873
 2016TIP3    H227608   4.480   3.540   6.908
 2017TIP3   OH227609   4.972   1.508   6.884
 2017TIP3    H127610   5.033   1.573   6.917
 2017TIP3    H227611   4.941   1.462   6.962
 2018TIP3   OH227612   1.678   1.300   1.750
 2018TIP3    H127613   1.588   1.327   1.771
 2018TIP3    H227614   1.731   1.377   1.770
 2019TIP3   OH227615   0.403   4.560   7.363
 2019TIP3    H127616   0.498   4.548   7.353
 2019TIP3    H227617   0.378   4.615   7.289
 2020TIP3   OH227618   0.443   1.449   7.634
 2020TIP3    H127619   0.377   1.470   7.568
 2020TIP3    H227620   0.466   1.534   7.672
 2021TIP3   OH227621   4.546   2.838   0.355
 2021TIP3    H127622   4.608   2.910   0.359
 2021TIP3    H227623   4.599   2.761   0.337
 2022TIP3   OH227624   5.494   0.108   7.576
 2022TIP3    H127625   5.511   0.143   7.664
 2022TIP3    H227626   5.419   0.158   7.544
 2023TIP3   OH227627   3.580   2.070   8.130
 2023TIP3    H127628   3.508   2.119   8.091
 2023TIP3    H227629   3.610   2.011   8.061
 2024TIP3   OH227630   3.662   6.074   1.415
 2024TIP3    H127631   3.668   5.979   1.424
 2024TIP3    H227632   3.684   6.107   1.502
 2025TIP3   OH227633   3.309   0.823   7.943
 2025TIP3    H127634   3.264   0.826   8.028
 2025TIP3    H227635   3.395   0.861   7.961
 2026TIP3   OH227636   3.973   5.472   0.358
 2026TIP3    H127637   3.885   5.459   0.392
 2026TIP3    H227638   4.026   5.492   0.436
 2027TIP3   OH227639   1.647   3.501   7.980
 2027TIP3    H127640   1.631   3.422   7.929
 2027TIP3    H227641   1.650   3.472   8.071
 2028TIP3   OH227642   6.768   4.757   7.712
 2028TIP3    H127643   6.717   4.811   7.773
 2028TIP3    H227644   6.744   4.667   7.735
 2029TIP3   OH227645   0.791   5.506   7.714
 2029TIP3    H127646   0.883   5.501   7.742
 2029TIP3    H227647   0.762   5.415   7.712
 2030TIP3   OH227648   5.307   0.803   1.710
 2030TIP3    H127649   5.357   0.853   1.774
 2030TIP3    H227650   5.216   0.810   1.740
 2031TIP3   OH227651   6.011   5.026   1.643
 2031TIP3    H127652   5.941   5.045   1.705
 2031TIP3    H227653   6.049   4.944   1.673
 2032TIP3   OH227654   4.020   3.961   7.218
 2032TIP3    H127655   4.098   3.965   7.274
 2032TIP3    H227656   3.996   3.868   7.217
 2033TIP3   OH227657   4.450   6.764   0.322
 2033TIP3    H127658   4.468   0.020   0.247
 2033TIP3    H227659   4.404   6.689   0.286
 2034TIP3   OH227660   4.141   2.126   0.047
 2034TIP3    H127661   4.157   2.069   0.122
 2034TIP3    H227662   4.223   2.175   0.036
 2035TIP3   OH227663   6.163   6.177   8.076
 2035TIP3    H127664   6.111   6.097   8.077
 2035TIP3    H227665   6.189   6.190   8.167
 2036TIP3   OH227666   2.261   5.769   8.332
 2036TIP3    H127667   2.178   5.722   8.331
 2036TIP3    H227668   2.322   5.711   8.287
 2037TIP3   OH227669   2.368   1.119   7.125
 2037TIP3    H127670   2.312   1.125   7.048
 2037TIP3    H227671   2.451   1.160   7.098
 2038TIP3   OH227672   6.197   0.475   7.949
 2038TIP3    H127673   6.239   0.460   7.865
 2038TIP3    H227674   6.211   0.568   7.966
 2039TIP3   OH227675   6.547   2.398   1.228
 2039TIP3    H127676   6.484   2.330   1.204
 2039TIP3    H227677   6.632   2.363   1.201
 2040TIP3   OH227678   1.049   3.450   6.527
 2040TIP3    H127679   0.993   3.385   6.569
 2040TIP3    H227680   1.063   3.517   6.595
 2041TIP3   OH227681   4.046   1.782   2.415
 2041TIP3    H127682   3.965   1.822   2.446
 2041TIP3    H227683   4.022   1.692   2.394
 2042TIP3   OH227684   2.107   2.059   7.750
 2042TIP3    H127685   2.180   1.997   7.761
 2042TIP3    H227686   2.092   2.062   7.656
 2043TIP3   OH227687   5.399   4.324   7.309
 2043TIP3    H127688   5.491   4.314   7.332
 2043TIP3    H227689   5.392   4.412   7.273
 2044TIP3   OH227690   5.999   4.950   2.610
 2044TIP3    H127691   6.076   5.006   2.603
 2044TIP3    H227692   5.931   5.007   2.647
 2045TIP3   OH227693   5.462   6.729   6.457
 2045TIP3    H127694   5.509   0.013   6.457
 2045TIP3    H227695   5.372   6.752   6.434
 2046TIP3   OH227696   3.396   1.300   6.991
 2046TIP3    H127697   3.477   1.286   6.943
 2046TIP3    H227698   3.423   1.340   7.073
 2047TIP3   OH227699   2.334   3.680   1.102
 2047TIP3    H127700   2.368   3.696   1.014
 2047TIP3    H227701   2.263   3.743   1.112
 2048TIP3   OH227702   3.347   1.936   7.016
 2048TIP3    H127703   3.350   1.955   6.923
 2048TIP3    H227704   3.328   2.020   7.058
 2049TIP3   OH227705   6.058   6.478   8.762
 2049TIP3    H127706   6.135   6.428   8.737
 2049TIP3    H227707   5.997   6.413   8.797
 2050TIP3   OH227708   0.341   1.786   2.357
 2050TIP3    H127709   0.264   1.839   2.339
 2050TIP3    H227710   0.389   1.785   2.274
 2051TIP3   OH227711   5.986   1.023   1.359
 2051TIP3    H127712   6.060   1.038   1.300
 2051TIP3    H227713   6.018   0.958   1.421
 2052TIP3   OH227714   6.263   3.249   8.847
 2052TIP3    H127715   6.215   3.195   8.784
 2052TIP3    H227716   6.270   3.334   8.804
 2053TIP3   OH227717   2.466   5.842   7.315
 2053TIP3    H127718   2.510   5.835   7.230
 2053TIP3    H227719   2.537   5.857   7.378
 2054TIP3   OH227720   1.427   1.958   8.664
 2054TIP3    H127721   1.460   1.905   8.591
 2054TIP3    H227722   1.452   2.048   8.642
 2055TIP3   OH227723   0.855   0.811   2.052
 2055TIP3    H127724   0.857   0.901   2.083
 2055TIP3    H227725   0.782   0.808   1.990
 2056TIP3   OH227726   5.489   1.939   0.583
 2056TIP3    H127727   5.394   1.933   0.576
 2056TIP3    H227728   5.514   1.997   0.511
 2057TIP3   OH227729   4.927   4.394   1.368
 2057TIP3    H127730   4.841   4.431   1.350
 2057TIP3    H227731   4.988   4.464   1.346
 2058TIP3   OH227732   4.817   6.663   1.779
 2058TIP3    H127733   4.850   6.631   1.863
 2058TIP3    H227734   4.842   6.755   1.777
 2059TIP3   OH227735   2.780   0.724   7.821
 2059TIP3    H127736   2.796   0.675   7.902
 2059TIP3    H227737   2.742   0.807   7.851
 2060TIP3   OH227738   0.864   2.391   7.156
 2060TIP3    H127739   0.864   2.382   7.251
 2060TIP3    H227740   0.821   2.476   7.140
 2061TIP3   OH227741   6.531   5.527   2.210
 2061TIP3    H127742   6.517   5.488   2.296
 2061TIP3    H227743   6.493   5.615   2.217
 2062TIP3   OH227744   3.991   3.371   0.401
 2062TIP3    H127745   3.985   3.293   0.456
 2062TIP3    H227746   4.005   3.443   0.462
 2063TIP3   OH227747   2.825   1.375   6.900
 2063TIP3    H127748   2.846   1.303   6.840
 2063TIP3    H227749   2.909   1.399   6.939
 2064TIP3   OH227750   2.807   2.955   8.041
 2064TIP3    H127751   2.772   2.892   8.103
 2064TIP3    H227752   2.808   2.909   7.957
 2065TIP3   OH227753   1.684   4.578   1.890
 2065TIP3    H127754   1.651   4.498   1.930
 2065TIP3    H227755   1.770   4.592   1.931
 2066TIP3   OH227756   4.809   5.236   8.190
 2066TIP3    H127757   4.844   5.280   8.268
 2066TIP3    H227758   4.883   5.230   8.130
 2067TIP3   OH227759   4.639   4.277   0.550
 2067TIP3    H127760   4.603   4.326   0.624
 2067TIP3    H227761   4.567   4.220   0.522
 2068TIP3   OH227762   0.328   2.082   0.566
 2068TIP3    H127763   0.375   2.129   0.496
 2068TIP3    H227764   0.377   2.103   0.645
 2069TIP3   OH227765   4.987   1.873   0.909
 2069TIP3    H127766   5.082   1.864   0.912
 2069TIP3    H227767   4.961   1.821   0.832
 2070TIP3   OH227768   1.286   0.009   1.592
 2070TIP3    H127769   1.293   0.060   1.512
 2070TIP3    H227770   1.248   6.726   1.565
 2071TIP3   OH227771   4.330   3.016   6.907
 2071TIP3    H127772   4.362   2.927   6.891
 2071TIP3    H227773   4.235   3.008   6.909
 2072TIP3   OH227774   5.228   4.328   8.339
 2072TIP3    H127775   5.266   4.277   8.410
 2072TIP3    H227776   5.198   4.263   8.275
 2073TIP3   OH227777   1.074   2.514   0.484
 2073TIP3    H127778   1.167   2.504   0.461
 2073TIP3    H227779   1.058   2.608   0.481
 2074TIP3   OH227780   4.743   6.234   7.174
 2074TIP3    H127781   4.722   6.254   7.083
 2074TIP3    H227782   4.805   6.303   7.200
 2075TIP3   OH227783   6.680   0.766   7.262
 2075TIP3    H127784   6.733   0.835   7.222
 2075TIP3    H227785   6.613   0.745   7.197
 2076TIP3   OH227786   5.926   3.734   2.172
 2076TIP3    H127787   6.022   3.737   2.180
 2076TIP3    H227788   5.897   3.697   2.255
 2077TIP3   OH227789   6.426   3.508   0.707
 2077TIP3    H127790   6.373   3.577   0.749
 2077TIP3    H227791   6.395   3.427   0.747
 2078TIP3   OH227792   5.474   2.966   7.646
 2078TIP3    H127793   5.526   3.046   7.645
 2078TIP3    H227794   5.393   2.990   7.600
 2079TIP3   OH227795   2.924   4.660   8.549
 2079TIP3    H127796   2.980   4.594   8.507
 2079TIP3    H227797   2.965   4.744   8.527
 2080TIP3   OH227798   4.284   4.269   0.531
 2080TIP3    H127799   4.227   4.236   0.461
 2080TIP3    H227800   4.275   4.364   0.527
 2081TIP3   OH227801   5.707   0.889   7.879
 2081TIP3    H127802   5.796   0.854   7.881
 2081TIP3    H227803   5.696   0.932   7.964
 2082TIP3   OH227804   3.533   1.629   8.542
 2082TIP3    H127805   3.445   1.591   8.535
 2082TIP3    H227806   3.592   1.554   8.536
 2083TIP3   OH227807   5.232   0.416   1.106
 2083TIP3    H127808   5.169   0.485   1.127
 2083TIP3    H227809   5.182   0.335   1.112
 2084TIP3   OH227810   6.141   0.664   0.477
 2084TIP3    H127811   6.114   0.740   0.427
 2084TIP3    H227812   6.201   0.698   0.543
 2085TIP3   OH227813   0.696   2.659   0.612
 2085TIP3    H127814   0.734   2.577   0.581
 2085TIP3    H227815   0.763   2.725   0.591
 2086TIP3   OH227816   0.166   4.317   7.982
 2086TIP3    H127817   0.181   4.376   8.056
 2086TIP3    H227818   0.161   4.230   8.020
 2087TIP3   OH227819   4.300   3.691   8.797
 2087TIP3    H127820   4.375   3.633   8.783
 2087TIP3    H227821   4.247   3.679   8.718
 2088TIP3   OH227822   3.858   1.635   8.243
 2088TIP3    H127823   3.949   1.666   8.241
 2088TIP3    H227824   3.842   1.603   8.155
 2089TIP3   OH227825   0.354   4.810   8.859
 2089TIP3    H127826   0.274   4.830   0.048
 2089TIP3    H227827   0.323   4.780   8.774
 2090TIP3   OH227828   5.643   3.109   7.288
 2090TIP3    H127829   5.586   3.033   7.279
 2090TIP3    H227830   5.598   3.165   7.351
 2091TIP3   OH227831   5.554   1.999   0.337
 2091TIP3    H127832   5.495   1.966   0.269
 2091TIP3    H227833   5.557   2.093   0.322
 2092TIP3   OH227834   3.384   3.395   0.953
 2092TIP3    H127835   3.356   3.336   1.023
 2092TIP3    H227836   3.426   3.468   0.999
 2093TIP3   OH227837   5.211   4.613   7.567
 2093TIP3    H127838   5.136   4.563   7.535
 2093TIP3    H227839   5.284   4.582   7.513
 2094TIP3   OH227840   1.708   5.284   7.586
 2094TIP3    H127841   1.716   5.378   7.604
 2094TIP3    H227842   1.766   5.269   7.512
 2095TIP3   OH227843   1.484   4.298   1.642
 2095TIP3    H127844   1.431   4.310   1.722
 2095TIP3    H227845   1.437   4.230   1.593
 2096TIP3   OH227846   3.094   4.278   0.732
 2096TIP3    H127847   3.096   4.371   0.710
 2096TIP3    H227848   3.016   4.268   0.786
 2097TIP3   OH227849   1.002   5.576   8.702
 2097TIP3    H127850   1.060   5.601   8.630
 2097TIP3    H227851   0.920   5.622   8.684
 2098TIP3   OH227852   1.886   2.938   7.290
 2098TIP3    H127853   1.894   2.853   7.247
 2098TIP3    H227854   1.804   2.932   7.339
 2099TIP3   OH227855   4.588   2.936   8.129
 2099TIP3    H127856   4.549   2.942   8.042
 2099TIP3    H227857   4.623   2.847   8.134
 2100TIP3   OH227858   3.370   6.635   0.286
 2100TIP3    H127859   3.359   6.683   0.368
 2100TIP3    H227860   3.402   6.700   0.224
 2101TIP3   OH227861   4.451   6.637   8.809
 2101TIP3    H127862   4.378   6.689   8.843
 2101TIP3    H227863   4.438   6.551   8.848
 2102TIP3   OH227864   6.473   1.187   1.518
 2102TIP3    H127865   6.509   1.125   1.455
 2102TIP3    H227866   6.459   1.135   1.598
 2103TIP3   OH227867   4.184   5.465   8.387
 2103TIP3    H127868   4.168   5.442   8.295
 2103TIP3    H227869   4.100   5.502   8.417
 2104TIP3   OH227870   1.630   5.020   6.917
 2104TIP3    H127871   1.685   4.966   6.972
 2104TIP3    H227872   1.607   4.964   6.843
 2105TIP3   OH227873   0.737   0.981   6.974
 2105TIP3    H127874   0.808   0.949   6.918
 2105TIP3    H227875   0.663   0.924   6.952
 2106TIP3   OH227876   4.731   3.373   6.314
 2106TIP3    H127877   4.672   3.301   6.292
 2106TIP3    H227878   4.811   3.354   6.266
 2107TIP3   OH227879   5.215   2.821   7.184
 2107TIP3    H127880   5.179   2.806   7.272
 2107TIP3    H227881   5.181   2.749   7.131
 2108TIP3   OH227882   0.740   5.788   8.189
 2108TIP3    H127883   0.734   5.693   8.204
 2108TIP3    H227884   0.794   5.797   8.111
 2109TIP3   OH227885   3.127   4.721   1.686
 2109TIP3    H127886   3.080   4.641   1.706
 2109TIP3    H227887   3.061   4.780   1.651
 2110TIP3   OH227888   1.306   3.448   0.999
 2110TIP3    H127889   1.322   3.358   1.025
 2110TIP3    H227890   1.212   3.451   0.979
 2111TIP3   OH227891   1.785   1.029   8.018
 2111TIP3    H127892   1.844   1.011   7.945
 2111TIP3    H227893   1.820   0.977   8.090
 2112TIP3   OH227894   1.506   6.343   6.400
 2112TIP3    H127895   1.461   6.368   6.320
 2112TIP3    H227896   1.440   6.353   6.469
 2113TIP3   OH227897   0.498   5.802   2.507
 2113TIP3    H127898   0.576   5.758   2.542
 2113TIP3    H227899   0.450   5.733   2.461
 2114TIP3   OH227900   2.177   3.218   0.404
 2114TIP3    H127901   2.217   3.280   0.344
 2114TIP3    H227902   2.176   3.264   0.488
 2115TIP3   OH227903   1.840   5.862   7.149
 2115TIP3    H127904   1.887   5.786   7.114
 2115TIP3    H227905   1.759   5.866   7.098
 2116TIP3   OH227906   4.043   6.647   8.750
 2116TIP3    H127907   4.077   6.600   8.673
 2116TIP3    H227908   3.977   6.589   8.786
 2117TIP3   OH227909   4.682   1.953   2.149
 2117TIP3    H127910   4.638   1.912   2.224
 2117TIP3    H227911   4.614   2.006   2.107
 2118TIP3   OH227912   4.197   4.406   8.117
 2118TIP3    H127913   4.154   4.437   8.197
 2118TIP3    H227914   4.279   4.367   8.149
 2119TIP3   OH227915   6.015   6.605   8.172
 2119TIP3    H127916   6.028   6.564   8.257
 2119TIP3    H227917   6.048   6.542   8.109
 2120TIP3   OH227918   4.670   2.393   0.481
 2120TIP3    H127919   4.685   2.487   0.486
 2120TIP3    H227920   4.582   2.385   0.442
 2121TIP3   OH227921   3.817   0.391   8.664
 2121TIP3    H127922   3.734   0.392   8.616
 2121TIP3    H227923   3.835   0.298   8.679
 2122TIP3   OH227924   0.237   6.006   7.463
 2122TIP3    H127925   0.296   6.080   7.481
 2122TIP3    H227926   0.269   5.936   7.520
 2123TIP3   OH227927   5.934   0.382   0.758
 2123TIP3    H127928   6.009   0.342   0.713
 2123TIP3    H227929   5.861   0.370   0.697
 2124TIP3   OH227930   5.648   4.944   8.035
 2124TIP3    H127931   5.620   5.031   8.007
 2124TIP3    H227932   5.567   4.894   8.042
 2125TIP3   OH227933   4.812   4.765   0.150
 2125TIP3    H127934   4.777   4.794   0.234
 2125TIP3    H227935   4.740   4.720   0.107
 2126TIP3   OH227936   1.911   6.477   0.291
 2126TIP3    H127937   1.882   6.547   0.349
 2126TIP3    H227938   1.841   6.470   0.226
 2127TIP3   OH227939   6.424   2.598   8.419
 2127TIP3    H127940   6.380   2.589   8.335
 2127TIP3    H227941   6.387   2.678   8.457
 2128TIP3   OH227942   5.493   1.673   0.386
 2128TIP3    H127943   5.562   1.672   0.452
 2128TIP3    H227944   5.440   1.750   0.408
 2129TIP3   OH227945   2.400   4.089   7.996
 2129TIP3    H127946   2.358   4.109   8.080
 2129TIP3    H227947   2.492   4.077   8.018
 2130TIP3   OH227948   3.324   3.691   2.290
 2130TIP3    H127949   3.311   3.627   2.360
 2130TIP3    H227950   3.260   3.666   2.223
 2131TIP3   OH227951   3.046   2.721   7.899
 2131TIP3    H127952   3.093   2.692   7.977
 2131TIP3    H227953   2.973   2.660   7.890
 2132TIP3   OH227954   5.772   5.332   1.610
 2132TIP3    H127955   5.772   5.407   1.669
 2132TIP3    H227956   5.820   5.363   1.533
 2133TIP3   OH227957   4.860   5.530   1.495
 2133TIP3    H127958   4.796   5.469   1.458
 2133TIP3    H227959   4.837   5.534   1.588
 2134TIP3   OH227960   4.582   0.381   2.219
 2134TIP3    H127961   4.560   0.305   2.274
 2134TIP3    H227962   4.581   0.455   2.280
 2135TIP3   OH227963   5.722   1.863   1.877
 2135TIP3    H127964   5.724   1.959   1.876
 2135TIP3    H227965   5.667   1.840   1.802
 2136TIP3   OH227966   5.223   6.461   7.007
 2136TIP3    H127967   5.302   6.411   6.987
 2136TIP3    H227968   5.177   6.468   6.923
 2137TIP3   OH227969   0.276   2.768   0.483
 2137TIP3    H127970   0.331   2.745   0.408
 2137TIP3    H227971   0.219   2.692   0.496
 2138TIP3   OH227972   4.555   0.717   2.122
 2138TIP3    H127973   4.517   0.803   2.139
 2138TIP3    H227974   4.575   0.682   2.209
 2139TIP3   OH227975   6.518   3.680   6.919
 2139TIP3    H127976   6.566   3.631   6.986
 2139TIP3    H227977   6.500   3.765   6.960
 2140TIP3   OH227978   2.847   2.704   8.187
 2140TIP3    H127979   2.912   2.642   8.157
 2140TIP3    H227980   2.890   2.753   8.258
 2141TIP3   OH227981   0.985   2.787   1.465
 2141TIP3    H127982   1.076   2.770   1.441
 2141TIP3    H227983   0.982   2.777   1.560
 2142TIP3   OH227984   6.321   3.773   1.347
 2142TIP3    H127985   6.347   3.828   1.273
 2142TIP3    H227986   6.269   3.830   1.403
 2143TIP3   OH227987   4.842   0.845   0.114
 2143TIP3    H127988   4.778   0.915   0.121
 2143TIP3    H227989   4.830   0.809   0.026
 2144TIP3   OH227990   0.688   5.060   2.123
 2144TIP3    H127991   0.723   5.125   2.061
 2144TIP3    H227992   0.736   5.076   2.204
 2145TIP3   OH227993   0.188   6.299   1.143
 2145TIP3    H127994   0.186   6.209   1.111
 2145TIP3    H227995   0.281   6.320   1.154
 2146TIP3   OH227996   0.998   5.842   1.639
 2146TIP3    H127997   0.957   5.910   1.694
 2146TIP3    H227998   1.087   5.835   1.673
 2147TIP3   OH227999   0.446   6.073   0.367
 2147TIP3    H128000   0.352   6.076   0.388
 2147TIP3    H228001   0.455   6.128   0.290
 2148TIP3   OH228002   1.828   0.869   8.276
 2148TIP3    H128003   1.887   0.902   8.344
 2148TIP3    H228004   1.747   0.847   8.323
 2149TIP3   OH228005   4.840   4.663   7.118
 2149TIP3    H128006   4.904   4.662   7.048
 2149TIP3    H228007   4.756   4.678   7.074
 2150TIP3   OH228008   5.175   3.923   0.868
 2150TIP3    H128009   5.093   3.924   0.917
 2150TIP3    H228010   5.211   3.835   0.883
 2151TIP3   OH228011   3.905   3.600   1.821
 2151TIP3    H128012   3.923   3.614   1.914
 2151TIP3    H228013   3.880   3.686   1.788
 2152TIP3   OH228014   5.754   2.787   8.652
 2152TIP3    H128015   5.729   2.797   8.560
 2152TIP3    H228016   5.701   2.852   8.698
 2153TIP3   OH228017   5.482   6.434   1.176
 2153TIP3    H128018   5.578   6.428   1.186
 2153TIP3    H228019   5.454   6.345   1.158
 2154TIP3   OH228020   0.314   6.662   6.589
 2154TIP3    H128021   0.259   6.585   6.607
 2154TIP3    H228022   0.365   6.674   6.669
 2155TIP3   OH228023   3.473   0.279   8.793
 2155TIP3    H128024   3.430   0.198   8.822
 2155TIP3    H228025   3.522   0.308   0.009
 2156TIP3   OH228026   5.728   0.134   6.972
 2156TIP3    H128027   5.816   0.163   6.951
 2156TIP3    H228028   5.677   0.150   6.892
 2157TIP3   OH228029   0.731   2.636   1.372
 2157TIP3    H128030   0.784   2.561   1.346
 2157TIP3    H228031   0.790   2.711   1.361
 2158TIP3   OH228032   6.269   6.282   0.817
 2158TIP3    H128033   6.336   6.317   0.876
 2158TIP3    H228034   6.310   6.283   0.730
 2159TIP3   OH228035   6.365   6.498   0.307
 2159TIP3    H128036   6.306   6.487   0.382
 2159TIP3    H228037   6.450   6.519   0.346
 2160TIP3   OH228038   3.380   6.786   7.888
 2160TIP3    H128039   3.371   6.797   7.793
 2160TIP3    H228040   3.452   0.043   7.912
 2161TIP3   OH228041   0.651   2.006   6.904
 2161TIP3    H128042   0.558   2.006   6.928
 2161TIP3    H228043   0.654   2.052   6.821
 2162TIP3   OH228044   3.151   1.130   1.330
 2162TIP3    H128045   3.210   1.054   1.332
 2162TIP3    H228046   3.210   1.206   1.329
 2163TIP3   OH228047   4.008   4.488   1.699
 2163TIP3    H128048   4.071   4.496   1.771
 2163TIP3    H228049   4.030   4.405   1.657
 2164TIP3   OH228050   2.175   1.980   6.985
 2164TIP3    H128051   2.093   1.942   7.016
 2164TIP3    H228052   2.200   1.925   6.910
 2165TIP3   OH228053   5.641   3.329   1.350
 2165TIP3    H128054   5.591   3.309   1.271
 2165TIP3    H228055   5.630   3.423   1.362
 2166TIP3   OH228056   0.847   0.923   0.484
 2166TIP3    H128057   0.800   0.946   0.404
 2166TIP3    H228058   0.907   0.996   0.499
 2167TIP3   OH228059   4.486   4.851   1.284
 2167TIP3    H128060   4.495   4.757   1.268
 2167TIP3    H228061   4.562   4.873   1.338
 2168TIP3   OH228062   3.504   1.247   7.789
 2168TIP3    H128063   3.497   1.166   7.738
 2168TIP3    H228064   3.483   1.221   7.878
 2169TIP3   OH228065   5.519   3.877   7.244
 2169TIP3    H128066   5.503   3.808   7.309
 2169TIP3    H228067   5.457   3.858   7.173
 2170TIP3   OH228068   3.378   3.724   0.401
 2170TIP3    H128069   3.395   3.818   0.404
 2170TIP3    H228070   3.283   3.716   0.396
 2171TIP3   OH228071   0.103   4.209   0.021
 2171TIP3    H128072   0.152   4.127   0.024
 2171TIP3    H228073   0.030   4.192   8.823
 2172TIP3   OH228074   1.582   5.533   0.724
 2172TIP3    H128075   1.628   5.579   0.793
 2172TIP3    H228076   1.489   5.552   0.739
 2173TIP3   OH228077   3.765   4.435   7.105
 2173TIP3    H128078   3.772   4.340   7.089
 2173TIP3    H228079   3.729   4.442   7.193
 2174TIP3   OH228080   4.851   1.003   1.634
 2174TIP3    H128081   4.812   1.075   1.683
 2174TIP3    H228082   4.879   1.043   1.552
 2175TIP3   OH228083   3.123   3.615   6.577
 2175TIP3    H128084   3.161   3.692   6.619
 2175TIP3    H228085   3.184   3.544   6.597
 2176TIP3   OH228086   5.570   6.468   8.534
 2176TIP3    H128087   5.550   6.556   8.503
 2176TIP3    H228088   5.492   6.441   8.582
 2177TIP3   OH228089   5.343   3.237   7.227
 2177TIP3    H128090   5.393   3.157   7.212
 2177TIP3    H228091   5.398   3.289   7.287
 2178TIP3   OH228092   2.653   0.449   1.418
 2178TIP3    H128093   2.567   0.484   1.442
 2178TIP3    H228094   2.715   0.504   1.466
 2179TIP3   OH228095   0.290   6.201   0.662
 2179TIP3    H128096   0.206   6.245   0.648
 2179TIP3    H228097   0.351   6.249   0.606
 2180TIP3   OH228098   0.605   0.448   1.443
 2180TIP3    H128099   0.658   0.369   1.432
 2180TIP3    H228100   0.614   0.470   1.536
 2181TIP3   OH228101   0.230   3.388   8.355
 2181TIP3    H128102   0.217   3.442   8.277
 2181TIP3    H228103   0.144   3.349   8.371
 2182TIP3   OH228104   5.043   0.887   7.233
 2182TIP3    H128105   5.138   0.885   7.230
 2182TIP3    H228106   5.016   0.892   7.141
 2183TIP3   OH228107   0.449   5.189   8.557
 2183TIP3    H128108   0.434   5.100   8.589
 2183TIP3    H228109   0.453   5.180   8.462
 2184TIP3   OH228110   2.192   4.509   0.700
 2184TIP3    H128111   2.220   4.493   0.610
 2184TIP3    H228112   2.212   4.602   0.715
 2185TIP3   OH228113   5.402   5.598   1.785
 2185TIP3    H128114   5.450   5.567   1.708
 2185TIP3    H228115   5.375   5.519   1.830
 2186TIP3   OH228116   0.879   2.240   6.860
 2186TIP3    H128117   0.961   2.287   6.846
 2186TIP3    H228118   0.896   2.151   6.832
 2187TIP3   OH228119   6.594   2.971   0.182
 2187TIP3    H128120   6.547   2.992   0.102
 2187TIP3    H228121   6.613   3.057   0.221
 2188TIP3   OH228122   5.325   6.645   1.496
 2188TIP3    H128123   5.239   6.682   1.518
 2188TIP3    H228124   5.383   6.677   1.566
 2189TIP3   OH228125   5.159   0.258   6.590
 2189TIP3    H128126   5.133   0.175   6.631
 2189TIP3    H228127   5.196   0.233   6.506
 2190TIP3   OH228128   0.899   3.253   8.119
 2190TIP3    H128129   0.939   3.248   8.206
 2190TIP3    H228130   0.953   3.195   8.065
 2191TIP3   OH228131   2.084   2.143   7.456
 2191TIP3    H128132   2.010   2.201   7.474
 2191TIP3    H228133   2.044   2.059   7.436
 2192TIP3   OH228134   2.688   2.978   1.843
 2192TIP3    H128135   2.706   2.896   1.797
 2192TIP3    H228136   2.651   2.952   1.927
 2193TIP3   OH228137   3.586   3.239   1.220
 2193TIP3    H128138   3.678   3.242   1.193
 2193TIP3    H228139   3.585   3.275   1.309
 2194TIP3   OH228140   4.400   2.628   8.106
 2194TIP3    H128141   4.375   2.546   8.150
 2194TIP3    H228142   4.339   2.636   8.033
 2195TIP3   OH228143   5.221   1.388   0.780
 2195TIP3    H128144   5.248   1.441   0.705
 2195TIP3    H228145   5.300   1.340   0.806
 2196TIP3   OH228146   3.068   6.354   8.205
 2196TIP3    H128147   2.980   6.323   8.183
 2196TIP3    H228148   3.062   6.377   8.298
 2197TIP3   OH228149   0.527   0.236   0.853
 2197TIP3    H128150   0.541   0.142   0.848
 2197TIP3    H228151   0.613   0.273   0.871
 2198TIP3   OH228152   2.890   5.724   7.205
 2198TIP3    H128153   2.835   5.768   7.270
 2198TIP3    H228154   2.967   5.696   7.255
 2199TIP3   OH228155   2.505   3.541   8.732
 2199TIP3    H128156   2.417   3.538   8.771
 2199TIP3    H228157   2.494   3.597   8.654
 2200TIP3   OH228158   6.224   4.876   1.192
 2200TIP3    H128159   6.303   4.824   1.208
 2200TIP3    H228160   6.184   4.836   1.115
 2201TIP3   OH228161   3.604   3.416   8.171
 2201TIP3    H128162   3.688   3.392   8.133
 2201TIP3    H228163   3.556   3.334   8.176
 2202TIP3   OH228164   3.028   4.511   0.598
 2202TIP3    H128165   3.021   4.602   0.629
 2202TIP3    H228166   3.107   4.510   0.544
 2203TIP3   OH228167   3.277   5.862   2.088
 2203TIP3    H128168   3.187   5.852   2.120
 2203TIP3    H228169   3.301   5.775   2.058
 2204TIP3   OH228170   2.186   3.896   1.218
 2204TIP3    H128171   2.265   3.873   1.266
 2204TIP3    H228172   2.199   3.987   1.192
 2205TIP3   OH228173   3.324   5.594   0.565
 2205TIP3    H128174   3.228   5.594   0.565
 2205TIP3    H228175   3.348   5.686   0.575
 2206TIP3   OH228176   3.383   3.708   8.811
 2206TIP3    H128177   3.355   3.798   8.827
 2206TIP3    H228178   3.477   3.708   8.827
 2207TIP3   OH228179   5.913   2.103   0.104
 2207TIP3    H128180   6.003   2.074   0.124
 2207TIP3    H228181   5.897   2.175   0.164
 2208TIP3   OH228182   1.417   4.618   1.609
 2208TIP3    H128183   1.483   4.684   1.628
 2208TIP3    H228184   1.460   4.535   1.629
 2209TIP3   OH228185   4.080   3.544   0.608
 2209TIP3    H128186   4.022   3.575   0.677
 2209TIP3    H228187   4.143   3.615   0.596
 2210TIP3   OH228188   5.150   1.692   0.187
 2210TIP3    H128189   5.058   1.676   0.209
 2210TIP3    H228190   5.198   1.622   0.232
 2211TIP3   OH228191   0.660   4.930   1.314
 2211TIP3    H128192   0.580   4.980   1.324
 2211TIP3    H228193   0.713   4.980   1.252
 2212TIP3   OH228194   1.361   3.962   7.364
 2212TIP3    H128195   1.359   3.867   7.380
 2212TIP3    H228196   1.321   4.000   7.442
 2213TIP3   OH228197   4.257   1.643   0.033
 2213TIP3    H128198   4.162   1.645   0.028
 2213TIP3    H228199   4.280   1.551   0.022
 2214TIP3   OH228200   6.047   3.014   1.988
 2214TIP3    H128201   6.049   2.971   2.073
 2214TIP3    H228202   6.114   2.969   1.937
 2215TIP3   OH228203   3.288   1.454   8.574
 2215TIP3    H128204   3.246   1.426   8.655
 2215TIP3    H228205   3.218   1.453   8.509
 2216TIP3   OH228206   2.738   5.313   1.615
 2216TIP3    H128207   2.690   5.389   1.649
 2216TIP3    H228208   2.829   5.341   1.611
 2217TIP3   OH228209   3.057   1.342   0.035
 2217TIP3    H128210   3.148   1.312   0.036
 2217TIP3    H228211   3.061   1.428   8.852
 2218TIP3   OH228212   2.076   5.484   8.839
 2218TIP3    H128213   2.076   5.538   8.760
 2218TIP3    H228214   2.003   5.423   8.827
 2219TIP3   OH228215   6.516   0.113   7.744
 2219TIP3    H128216   6.495   0.201   7.711
 2219TIP3    H228217   6.610   0.114   7.758
 2220TIP3   OH228218   1.028   0.355   8.322
 2220TIP3    H128219   1.021   0.263   8.349
 2220TIP3    H228220   1.122   0.370   8.312
 2221TIP3   OH228221   5.701   2.622   1.653
 2221TIP3    H128222   5.774   2.655   1.704
 2221TIP3    H228223   5.630   2.684   1.670
 2222TIP3   OH228224   1.481   5.831   8.773
 2222TIP3    H128225   1.530   5.757   8.808
 2222TIP3    H228226   1.428   5.794   8.703
 2223TIP3   OH228227   4.037   3.494   8.134
 2223TIP3    H128228   4.065   3.522   8.047
 2223TIP3    H228229   3.941   3.498   8.131
 2224TIP3   OH228230   0.988   2.650   6.747
 2224TIP3    H128231   1.030   2.732   6.773
 2224TIP3    H228232   1.024   2.585   6.807
 2225TIP3   OH228233   2.991   6.346   7.769
 2225TIP3    H128234   3.038   6.266   7.796
 2225TIP3    H228235   3.008   6.408   7.840
 2226TIP3   OH228236   0.950   3.463   8.524
 2226TIP3    H128237   0.869   3.509   8.501
 2226TIP3    H228238   1.014   3.494   8.460
 2227TIP3   OH228239   3.881   2.697   0.144
 2227TIP3    H128240   3.960   2.737   0.107
 2227TIP3    H228241   3.892   2.603   0.127
 2228TIP3   OH228242   4.466   3.829   7.128
 2228TIP3    H128243   4.523   3.906   7.124
 2228TIP3    H228244   4.490   3.778   7.051
 2229TIP3   OH228245   6.774   0.714   8.816
 2229TIP3    H128246   0.061   0.722   8.777
 2229TIP3    H228247   6.717   0.689   8.743
 2230TIP3   OH228248   5.331   1.574   1.598
 2230TIP3    H128249   5.281   1.630   1.656
 2230TIP3    H228250   5.344   1.625   1.518
 2231TIP3   OH228251   1.330   4.135   6.867
 2231TIP3    H128252   1.360   4.077   6.797
 2231TIP3    H228253   1.254   4.180   6.830
 2232TIP3   OH228254   2.638   0.808   7.463
 2232TIP3    H128255   2.550   0.789   7.495
 2232TIP3    H228256   2.634   0.790   7.369
 2233TIP3   OH228257   6.425   3.487   0.096
 2233TIP3    H128258   6.442   3.582   0.093
 2233TIP3    H228259   6.478   3.451   0.026
 2234TIP3   OH228260   2.631   2.656   7.992
 2234TIP3    H128261   2.704   2.631   8.050
 2234TIP3    H228262   2.609   2.575   7.945
 2235TIP3   OH228263   4.671   6.563   2.420
 2235TIP3    H128264   4.652   6.570   2.514
 2235TIP3    H228265   4.587   6.538   2.381
 2236TIP3   OH228266   2.011   1.637   8.667
 2236TIP3    H128267   1.931   1.680   8.696
 2236TIP3    H228268   2.081   1.693   8.701
 2237TIP3   OH228269   2.997   3.914   0.914
 2237TIP3    H128270   2.950   3.832   0.899
 2237TIP3    H228271   3.056   3.922   0.839
 2238TIP3   OH228272   6.005   1.474   8.567
 2238TIP3    H128273   6.094   1.441   8.569
 2238TIP3    H228274   5.982   1.478   8.474
 2239TIP3   OH228275   4.822   2.081   1.538
 2239TIP3    H128276   4.908   2.119   1.555
 2239TIP3    H228277   4.765   2.120   1.604
 2240TIP3   OH228278   1.950   5.324   0.402
 2240TIP3    H128279   1.999   5.362   0.329
 2240TIP3    H228280   1.985   5.236   0.411
 2241TIP3   OH228281   4.934   0.320   0.755
 2241TIP3    H128282   4.942   0.405   0.798
 2241TIP3    H228283   4.843   0.317   0.724
 2242TIP3   OH228284   1.161   6.029   8.064
 2242TIP3    H128285   1.192   6.095   8.127
 2242TIP3    H228286   1.235   6.015   8.005
 2243TIP3   OH228287   4.016   4.679   0.458
 2243TIP3    H128288   4.048   4.597   0.423
 2243TIP3    H228289   4.006   4.736   0.382
 2244TIP3   OH228290   1.507   5.912   2.148
 2244TIP3    H128291   1.488   6.003   2.173
 2244TIP3    H228292   1.448   5.860   2.202
 2245TIP3   OH228293   6.188   1.839   6.983
 2245TIP3    H128294   6.142   1.904   6.929
 2245TIP3    H228295   6.139   1.839   7.065
 2246TIP3   OH228296   2.931   1.683   8.480
 2246TIP3    H128297   2.877   1.759   8.500
 2246TIP3    H228298   3.021   1.712   8.497
 2247TIP3   OH228299   6.378   2.794   8.721
 2247TIP3    H128300   6.288   2.781   8.752
 2247TIP3    H228301   6.408   2.873   8.766
 2248TIP3   OH228302   1.209   3.708   2.264
 2248TIP3    H128303   1.128   3.749   2.294
 2248TIP3    H228304   1.226   3.638   2.327
 2249TIP3   OH228305   2.225   3.619   0.294
 2249TIP3    H128306   2.178   3.680   0.350
 2249TIP3    H228307   2.200   3.643   0.205
 2250TIP3   OH228308   1.358   2.908   7.815
 2250TIP3    H128309   1.288   2.886   7.753
 2250TIP3    H228310   1.320   2.974   7.872
 2251TIP3   OH228311   0.731   3.676   8.700
 2251TIP3    H128312   0.825   3.695   8.705
 2251TIP3    H228313   0.713   3.669   8.606
 2252TIP3   OH228314   6.169   2.627   0.041
 2252TIP3    H128315   6.088   2.579   0.053
 2252TIP3    H228316   6.229   2.590   0.105
 2253TIP3   OH228317   4.581   3.319   1.547
 2253TIP3    H128318   4.486   3.323   1.541
 2253TIP3    H228319   4.601   3.354   1.634
 2254TIP3   OH228320   3.950   1.914   1.856
 2254TIP3    H128321   3.983   1.839   1.905
 2254TIP3    H228322   3.875   1.945   1.908
 2255TIP3   OH228323   2.631   2.809   6.945
 2255TIP3    H128324   2.560   2.873   6.936
 2255TIP3    H228325   2.644   2.800   7.039
 2256TIP3   OH228326   1.259   4.243   0.984
 2256TIP3    H128327   1.180   4.297   0.979
 2256TIP3    H228328   1.242   4.170   0.924
 2257TIP3   OH228329   1.017   1.165   0.183
 2257TIP3    H128330   1.072   1.128   0.114
 2257TIP3    H228331   1.044   1.117   0.262
 2258TIP3   OH228332   1.443   0.233   8.072
 2258TIP3    H128333   1.393   0.300   8.026
 2258TIP3    H228334   1.531   0.238   8.035
 2259TIP3   OH228335   1.455   2.596   8.421
 2259TIP3    H128336   1.458   2.512   8.375
 2259TIP3    H228337   1.502   2.657   8.365
 2260TIP3   OH228338   5.673   3.710   8.293
 2260TIP3    H128339   5.605   3.772   8.266
 2260TIP3    H228340   5.755   3.750   8.262
 2261TIP3   OH228341   3.325   1.996   0.965
 2261TIP3    H128342   3.231   2.006   0.979
 2261TIP3    H228343   3.364   2.075   1.003
 2262TIP3   OH228344   1.163   4.762   0.168
 2262TIP3    H128345   1.213   4.802   0.239
 2262TIP3    H228346   1.146   4.833   0.107
 2263TIP3   OH228347   3.904   0.600   7.982
 2263TIP3    H128348   3.889   0.680   7.930
 2263TIP3    H228349   3.873   0.623   8.069
 2264TIP3   OH228350   5.615   2.938   0.570
 2264TIP3    H128351   5.554   2.920   0.498
 2264TIP3    H228352   5.657   3.020   0.546
 2265TIP3   OH228353   5.003   6.314   6.640
 2265TIP3    H128354   5.084   6.276   6.608
 2265TIP3    H228355   4.943   6.240   6.649
 2266TIP3   OH228356   5.766   3.733   0.712
 2266TIP3    H128357   5.714   3.721   0.791
 2266TIP3    H228358   5.856   3.736   0.742
 2267TIP3   OH228359   3.245   3.048   0.055
 2267TIP3    H128360   3.318   3.018   0.108
 2267TIP3    H228361   3.167   3.026   0.106
 2268TIP3   OH228362   4.632   5.362   0.277
 2268TIP3    H128363   4.672   5.433   0.326
 2268TIP3    H228364   4.578   5.405   0.211
 2269TIP3   OH228365   0.387   0.125   0.023
 2269TIP3    H128366   0.429   0.139   8.799
 2269TIP3    H228367   0.308   0.075   0.003
 2270TIP3   OH228368   4.399   4.204   7.709
 2270TIP3    H128369   4.331   4.237   7.767
 2270TIP3    H228370   4.447   4.282   7.681
 2271TIP3   OH228371   0.064   2.844   6.937
 2271TIP3    H128372   0.148   2.804   6.917
 2271TIP3    H228373   0.003   2.771   6.944
 2272TIP3   OH228374   6.128   4.345   7.856
 2272TIP3    H128375   6.051   4.290   7.849
 2272TIP3    H228376   6.112   4.399   7.934
 2273TIP3   OH228377   3.289   3.832   6.723
 2273TIP3    H128378   3.346   3.788   6.660
 2273TIP3    H228379   3.322   3.806   6.809
 2274TIP3   OH228380   6.180   0.899   8.285
 2274TIP3    H128381   6.195   0.819   8.234
 2274TIP3    H228382   6.180   0.969   8.220
 2275TIP3   OH228383   1.309   3.821   7.655
 2275TIP3    H128384   1.275   3.763   7.723
 2275TIP3    H228385   1.249   3.895   7.654
 2276TIP3   OH228386   4.951   2.581   8.747
 2276TIP3    H128387   4.999   2.664   8.755
 2276TIP3    H228388   4.979   2.545   8.663
 2277TIP3   OH228389   4.957   1.612   7.774
 2277TIP3    H128390   4.888   1.664   7.814
 2277TIP3    H228391   4.960   1.531   7.826
 2278TIP3   OH228392   1.564   0.140   0.653
 2278TIP3    H128393   1.611   0.212   0.695
 2278TIP3    H228394   1.480   0.177   0.628
 2279TIP3   OH228395   0.070   6.192   2.372
 2279TIP3    H128396   0.050   6.119   2.314
 2279TIP3    H228397   0.165   6.204   2.364
 2280TIP3   OH228398   0.675   3.043   8.093
 2280TIP3    H128399   0.748   2.980   8.090
 2280TIP3    H228400   0.689   3.099   8.017
 2281TIP3   OH228401   5.438   6.267   2.744
 2281TIP3    H128402   5.474   6.199   2.687
 2281TIP3    H228403   5.384   6.220   2.807
 2282TIP3   OH228404   4.355   0.564   8.540
 2282TIP3    H128405   4.362   0.509   8.462
 2282TIP3    H228406   4.443   0.565   8.577
 2283TIP3   OH228407   5.741   6.726   1.045
 2283TIP3    H128408   5.653   6.732   1.082
 2283TIP3    H228409   5.732   6.764   0.958
 2284TIP3   OH228410   3.766   5.622   7.408
 2284TIP3    H128411   3.683   5.648   7.448
 2284TIP3    H228412   3.780   5.532   7.438
 2285TIP3   OH228413   2.697   4.023   0.095
 2285TIP3    H128414   2.713   4.051   0.005
 2285TIP3    H228415   2.783   3.997   0.128
 2286TIP3   OH228416   1.971   3.339   8.231
 2286TIP3    H128417   2.006   3.426   8.212
 2286TIP3    H228418   1.877   3.346   8.214
 2287TIP3   OH228419   1.112   4.593   2.325
 2287TIP3    H128420   1.049   4.530   2.363
 2287TIP3    H228421   1.149   4.638   2.401
 2288TIP3   OH228422   5.579   6.358   0.298
 2288TIP3    H128423   5.566   6.405   0.380
 2288TIP3    H228424   5.615   6.422   0.238
 2289TIP3   OH228425   0.250   5.843   8.393
 2289TIP3    H128426   0.216   5.893   8.318
 2289TIP3    H228427   0.345   5.839   8.378
 2290TIP3   OH228428   1.434   1.809   0.026
 2290TIP3    H128429   1.383   1.868   0.082
 2290TIP3    H228430   1.440   1.856   8.803
 2291TIP3   OH228431   3.368   6.093   1.404
 2291TIP3    H128432   3.461   6.078   1.387
 2291TIP3    H228433   3.332   6.117   1.318
 2292TIP3   OH228434   0.457   5.943   7.612
 2292TIP3    H128435   0.493   5.869   7.661
 2292TIP3    H228436   0.435   6.008   7.679
 2293TIP3   OH228437   5.626   0.424   8.302
 2293TIP3    H128438   5.661   0.412   8.391
 2293TIP3    H228439   5.600   0.516   8.299
 2294TIP3   OH228440   6.524   0.871   8.673
 2294TIP3    H128441   6.471   0.829   8.741
 2294TIP3    H228442   6.560   0.797   8.623
 2295TIP3   OH228443   5.943   0.479   2.081
 2295TIP3    H128444   5.867   0.465   2.025
 2295TIP3    H228445   5.998   0.540   2.032
 2296TIP3   OH228446   4.519   2.971   0.763
 2296TIP3    H128447   4.536   2.930   0.848
 2296TIP3    H228448   4.449   2.917   0.725
 2297TIP3   OH228449   1.631   0.772   8.042
 2297TIP3    H128450   1.639   0.780   7.947
 2297TIP3    H228451   1.660   0.857   8.075
 2298TIP3   OH228452   5.115   2.880   1.635
 2298TIP3    H128453   5.052   2.881   1.706
 2298TIP3    H228454   5.182   2.944   1.661
 2299TIP3   OH228455   4.865   3.057   7.165
 2299TIP3    H128456   4.873   3.081   7.073
 2299TIP3    H228457   4.882   2.963   7.168
 2300TIP3   OH228458   4.035   6.603   7.044
 2300TIP3    H128459   4.067   6.513   7.041
 2300TIP3    H228460   4.114   6.656   7.037
 2301TIP3   OH228461   4.046   4.317   7.111
 2301TIP3    H128462   4.131   4.310   7.155
 2301TIP3    H228463   4.017   4.406   7.131
 2302TIP3   OH228464   5.797   1.882   0.440
 2302TIP3    H128465   5.851   1.959   0.457
 2302TIP3    H228466   5.711   1.918   0.417
 2303TIP3   OH228467   6.752   6.258   7.939
 2303TIP3    H128468   6.778   6.166   7.945
 2303TIP3    H228469   0.034   6.307   7.950
 2304TIP3   OH228470   3.329   2.668   0.060
 2304TIP3    H128471   3.408   2.693   0.012
 2304TIP3    H228472   3.362   2.623   0.138
 2305TIP3   OH228473   1.616   5.398   1.633
 2305TIP3    H128474   1.623   5.363   1.722
 2305TIP3    H228475   1.697   5.372   1.590
 2306TIP3   OH228476   1.550   1.559   0.637
 2306TIP3    H128477   1.493   1.495   0.596
 2306TIP3    H228478   1.569   1.523   0.724
 2307TIP3   OH228479   6.565   3.730   6.644
 2307TIP3    H128480   6.576   3.738   6.739
 2307TIP3    H228481   6.520   3.811   6.619
 2308TIP3   OH228482   3.644   4.071   1.324
 2308TIP3    H128483   3.722   4.081   1.378
 2308TIP3    H228484   3.590   4.008   1.370
 2309TIP3   OH228485   4.260   1.957   2.577
 2309TIP3    H128486   4.232   2.048   2.572
 2309TIP3    H228487   4.181   1.906   2.560
 2310TIP3   OH228488   1.235   3.901   1.792
 2310TIP3    H128489   1.221   3.841   1.865
 2310TIP3    H228490   1.221   3.848   1.714
 2311TIP3   OH228491   3.561   5.899   2.141
 2311TIP3    H128492   3.470   5.870   2.132
 2311TIP3    H228493   3.586   5.926   2.052
 2312TIP3   OH228494   2.943   0.252   1.761
 2312TIP3    H128495   2.943   0.326   1.823
 2312TIP3    H228496   2.883   0.188   1.800
 2313TIP3   OH228497   0.372   6.750   7.735
 2313TIP3    H128498   0.379   6.660   7.767
 2313TIP3    H228499   0.463   6.779   7.726
 2314TIP3   OH228500   4.315   3.153   6.232
 2314TIP3    H128501   4.253   3.102   6.180
 2314TIP3    H228502   4.262   3.192   6.301
 2315TIP3   OH228503   0.370   1.783   8.346
 2315TIP3    H128504   0.310   1.843   8.301
 2315TIP3    H228505   0.331   1.697   8.335
 2316TIP3   OH228506   5.359   0.957   0.574
 2316TIP3    H128507   5.263   0.967   0.578
 2316TIP3    H228508   5.373   0.863   0.576
 2317TIP3   OH228509   0.190   2.891   0.007
 2317TIP3    H128510   0.110   2.924   8.826
 2317TIP3    H228511   0.214   2.959   0.070
 2318TIP3   OH228512   4.167   1.912   7.143
 2318TIP3    H128513   4.204   1.855   7.211
 2318TIP3    H228514   4.225   1.900   7.068
 2319TIP3   OH228515   2.540   5.506   7.400
 2319TIP3    H128516   2.593   5.580   7.430
 2319TIP3    H228517   2.599   5.455   7.346
 2320TIP3   OH228518   0.767   2.158   0.515
 2320TIP3    H128519   0.752   2.164   0.609
 2320TIP3    H228520   0.837   2.093   0.506
 2321TIP3   OH228521   0.515   4.099   1.089
 2321TIP3    H128522   0.564   4.021   1.117
 2321TIP3    H228523   0.521   4.159   1.163
 2322TIP3   OH228524   3.961   2.181   7.170
 2322TIP3    H128525   3.936   2.130   7.093
 2322TIP3    H228526   4.020   2.249   7.137
 2323TIP3   OH228527   3.022   5.615   0.559
 2323TIP3    H128528   3.025   5.630   0.653
 2323TIP3    H228529   2.956   5.547   0.548
 2324TIP3   OH228530   2.530   0.860   1.179
 2324TIP3    H128531   2.465   0.918   1.219
 2324TIP3    H228532   2.606   0.916   1.163
 2325TIP3   OH228533   2.153   4.794   0.821
 2325TIP3    H128534   2.152   4.855   0.747
 2325TIP3    H228535   2.222   4.828   0.878
 2326TIP3   OH228536   5.927   6.022   8.686
 2326TIP3    H128537   6.010   5.981   8.712
 2326TIP3    H228538   5.871   6.015   8.764
 2327TIP3   OH228539   4.540   5.953   1.811
 2327TIP3    H128540   4.510   6.035   1.771
 2327TIP3    H228541   4.459   5.912   1.843
 2328TIP3   OH228542   3.465   4.342   7.605
 2328TIP3    H128543   3.488   4.289   7.682
 2328TIP3    H228544   3.432   4.278   7.542
 2329TIP3   OH228545   5.092   3.257   8.700
 2329TIP3    H128546   5.060   3.290   8.784
 2329TIP3    H228547   5.017   3.261   8.642
 2330TIP3   OH228548   2.763   5.050   1.701
 2330TIP3    H128549   2.692   5.063   1.764
 2330TIP3    H228550   2.762   5.130   1.648
 2331TIP3   OH228551   5.255   3.700   8.486
 2331TIP3    H128552   5.298   3.714   8.570
 2331TIP3    H228553   5.279   3.777   8.434
 2332TIP3   OH228554   4.140   4.396   2.279
 2332TIP3    H128555   4.141   4.301   2.289
 2332TIP3    H228556   4.154   4.430   2.368
 2333TIP3   OH228557   1.071   6.429   0.006
 2333TIP3    H128558   1.025   6.509   8.841
 2333TIP3    H228559   1.019   6.358   8.829
 2334TIP3   OH228560   5.450   1.691   7.562
 2334TIP3    H128561   5.355   1.690   7.560
 2334TIP3    H228562   5.475   1.746   7.487
 2335TIP3   OH228563   2.169   2.565   1.781
 2335TIP3    H128564   2.239   2.614   1.826
 2335TIP3    H228565   2.092   2.579   1.836
 2336TIP3   OH228566   1.939   3.761   1.167
 2336TIP3    H128567   2.027   3.799   1.163
 2336TIP3    H228568   1.933   3.708   1.088
 2337TIP3   OH228569   1.917   0.560   0.432
 2337TIP3    H128570   1.846   0.502   0.404
 2337TIP3    H228571   1.997   0.510   0.417
 2338TIP3   OH228572   5.349   6.762   0.719
 2338TIP3    H128573   5.378   0.021   0.650
 2338TIP3    H228574   5.408   6.780   0.792
 2339TIP3   OH228575   3.859   2.982   7.342
 2339TIP3    H128576   3.938   2.935   7.368
 2339TIP3    H228577   3.818   3.007   7.426
 2340TIP3   OH228578   5.146   3.123   8.326
 2340TIP3    H128579   5.111   3.198   8.374
 2340TIP3    H228580   5.080   3.104   8.259
 2341TIP3   OH228581   3.428   5.577   8.257
 2341TIP3    H128582   3.503   5.538   8.214
 2341TIP3    H228583   3.364   5.506   8.264
 2342TIP3   OH228584   2.029   5.987   8.773
 2342TIP3    H128585   1.940   6.003   8.742
 2342TIP3    H228586   2.056   6.069   8.815
 2343TIP3   OH228587   5.800   3.844   7.813
 2343TIP3    H128588   5.832   3.762   7.776
 2343TIP3    H228589   5.741   3.879   7.747
 2344TIP3   OH228590   3.252   2.772   2.251
 2344TIP3    H128591   3.331   2.822   2.231
 2344TIP3    H228592   3.237   2.786   2.344
 2345TIP3   OH228593   1.308   0.877   1.492
 2345TIP3    H128594   1.396   0.847   1.473
 2345TIP3    H228595   1.320   0.945   1.558
 2346TIP3   OH228596   0.441   6.195   7.401
 2346TIP3    H128597   0.485   6.202   7.485
 2346TIP3    H228598   0.430   6.286   7.372
 2347TIP3   OH228599   4.541   0.695   1.684
 2347TIP3    H128600   4.631   0.716   1.707
 2347TIP3    H228601   4.491   0.771   1.712
 2348TIP3   OH228602   0.477   5.981   0.641
 2348TIP3    H128603   0.407   6.035   0.678
 2348TIP3    H228604   0.471   5.996   0.546
 2349TIP3   OH228605   5.933   0.083   1.190
 2349TIP3    H128606   5.863   0.031   1.150
 2349TIP3    H228607   5.895   0.116   1.271
 2350TIP3   OH228608   4.057   2.266   1.397
 2350TIP3    H128609   4.126   2.200   1.404
 2350TIP3    H228610   4.080   2.331   1.463
 2351TIP3   OH228611   3.116   5.505   8.212
 2351TIP3    H128612   3.105   5.470   8.124
 2351TIP3    H228613   3.164   5.587   8.200
 2352TIP3   OH228614   5.409   1.613   8.407
 2352TIP3    H128615   5.492   1.631   8.451
 2352TIP3    H228616   5.380   1.529   8.444
 2353TIP3   OH228617   1.836   6.327   0.072
 2353TIP3    H128618   1.781   6.279   0.134
 2353TIP3    H228619   1.923   6.286   0.081
 2354TIP3   OH228620   0.870   3.482   6.916
 2354TIP3    H128621   0.951   3.531   6.932
 2354TIP3    H228622   0.804   3.549   6.901
 2355TIP3   OH228623   0.565   3.204   7.607
 2355TIP3    H128624   0.623   3.185   7.533
 2355TIP3    H228625   0.509   3.127   7.614
 2356TIP3   OH228626   2.138   0.334   7.738
 2356TIP3    H128627   2.170   0.244   7.748
 2356TIP3    H228628   2.043   0.327   7.749
 2357TIP3   OH228629   3.017   3.401   0.536
 2357TIP3    H128630   2.967   3.326   0.504
 2357TIP3    H228631   3.075   3.364   0.602
 2358TIP3   OH228632   0.518   2.213   0.412
 2358TIP3    H128633   0.604   2.190   0.445
 2358TIP3    H228634   0.498   2.297   0.453
 2359TIP3   OH228635   6.694   6.483   1.973
 2359TIP3    H128636   6.605   6.513   1.954
 2359TIP3    H228637   6.751   6.551   1.937
 2360TIP3   OH228638   5.879   2.345   2.126
 2360TIP3    H128639   5.943   2.362   2.195
 2360TIP3    H228640   5.828   2.425   2.120
 2361TIP3   OH228641   3.849   3.523   8.762
 2361TIP3    H128642   3.833   3.510   8.855
 2361TIP3    H228643   3.762   3.515   8.722
 2362TIP3   OH228644   6.593   3.372   1.362
 2362TIP3    H128645   6.682   3.401   1.378
 2362TIP3    H228646   6.587   3.361   1.267
 2363TIP3   OH228647   3.439   4.813   7.240
 2363TIP3    H128648   3.493   4.738   7.216
 2363TIP3    H228649   3.355   4.775   7.267
 2364TIP3   OH228650   6.399   3.039   1.055
 2364TIP3    H128651   6.367   2.969   1.111
 2364TIP3    H228652   6.325   3.099   1.047
 2365TIP3   OH228653   3.162   0.269   8.102
 2365TIP3    H128654   3.075   0.258   8.063
 2365TIP3    H228655   3.178   0.363   8.098
 2366TIP3   OH228656   0.726   1.854   2.698
 2366TIP3    H128657   0.658   1.871   2.763
 2366TIP3    H228658   0.784   1.931   2.704
 2367TIP3   OH228659   2.398   1.808   0.247
 2367TIP3    H128660   2.375   1.895   0.280
 2367TIP3    H228661   2.443   1.766   0.321
 2368TIP3   OH228662   3.009   6.516   7.973
 2368TIP3    H128663   3.056   6.599   7.973
 2368TIP3    H228664   3.017   6.484   8.063
 2369TIP3   OH228665   6.542   2.806   7.154
 2369TIP3    H128666   6.592   2.872   7.201
 2369TIP3    H228667   6.483   2.855   7.096
 2370TIP3   OH228668   0.587   4.585   1.134
 2370TIP3    H128669   0.581   4.627   1.048
 2370TIP3    H228670   0.637   4.505   1.118
 2371TIP3   OH228671   3.652   3.886   7.263
 2371TIP3    H128672   3.636   3.841   7.180
 2371TIP3    H228673   3.619   3.825   7.329
 2372TIP3   OH228674   3.469   4.754   0.852
 2372TIP3    H128675   3.473   4.799   0.768
 2372TIP3    H228676   3.555   4.767   0.891
 2373TIP3   OH228677   3.568   1.971   6.723
 2373TIP3    H128678   3.476   1.992   6.707
 2373TIP3    H228679   3.578   1.881   6.692
 2374TIP3   OH228680   2.042   5.151   1.048
 2374TIP3    H128681   2.102   5.132   0.976
 2374TIP3    H228682   2.052   5.245   1.064
 2375TIP3   OH228683   2.326   1.693   0.589
 2375TIP3    H128684   2.293   1.774   0.626
 2375TIP3    H228685   2.388   1.660   0.654
 2376TIP3   OH228686   4.075   2.046   1.071
 2376TIP3    H128687   4.106   1.996   1.147
 2376TIP3    H228688   4.031   1.981   1.017
 2377TIP3   OH228689   3.306   1.586   0.041
 2377TIP3    H128690   3.308   1.679   0.019
 2377TIP3    H228691   3.272   1.583   0.130
 2378TIP3   OH228692   3.305   0.272   0.392
 2378TIP3    H128693   3.230   0.330   0.406
 2378TIP3    H228694   3.377   0.332   0.373
 2379TIP3   OH228695   1.790   1.690   1.473
 2379TIP3    H128696   1.711   1.713   1.522
 2379TIP3    H228697   1.847   1.648   1.538
 2380TIP3   OH228698   0.693   5.308   1.725
 2380TIP3    H128699   0.618   5.284   1.780
 2380TIP3    H228700   0.660   5.302   1.635
 2381TIP3   OH228701   3.546   6.135   0.908
 2381TIP3    H128702   3.546   6.127   1.004
 2381TIP3    H228703   3.638   6.140   0.884
 2382TIP3   OH228704   1.310   3.522   0.564
 2382TIP3    H128705   1.259   3.589   0.609
 2382TIP3    H228706   1.390   3.566   0.536
 2383TIP3   OH228707   1.481   5.383   0.173
 2383TIP3    H128708   1.508   5.433   0.250
 2383TIP3    H228709   1.427   5.443   0.123
 2384TIP3   OH228710   3.525   4.823   1.538
 2384TIP3    H128711   3.451   4.845   1.482
 2384TIP3    H228712   3.486   4.802   1.623
 2385TIP3   OH228713   2.063   5.715   6.560
 2385TIP3    H128714   2.072   5.810   6.554
 2385TIP3    H228715   2.075   5.696   6.653
 2386TIP3   OH228716   1.131   5.631   7.273
 2386TIP3    H128717   1.221   5.646   7.302
 2386TIP3    H228718   1.137   5.622   7.178
 2387TIP3   OH228719   1.893   6.355   8.651
 2387TIP3    H128720   1.919   6.354   8.743
 2387TIP3    H228721   1.923   6.439   8.618
 2388TIP3   OH228722   3.456   3.533   8.407
 2388TIP3    H128723   3.522   3.524   8.338
 2388TIP3    H228724   3.411   3.615   8.387
 2389TIP3   OH228725   3.695   0.050   1.065
 2389TIP3    H128726   3.716   0.142   1.053
 2389TIP3    H228727   3.774   0.013   1.106
 2390TIP3   OH228728   0.035   1.510   1.312
 2390TIP3    H128729   0.001   1.420   1.313
 2390TIP3    H228730   6.771   1.560   1.361
 2391TIP3   OH228731   4.340   0.945   0.644
 2391TIP3    H128732   4.415   0.993   0.606
 2391TIP3    H228733   4.354   0.854   0.619
 2392TIP3   OH228734   0.300   4.185   7.313
 2392TIP3    H128735   0.393   4.207   7.305
 2392TIP3    H228736   0.256   4.268   7.330
 2393TIP3   OH228737   2.637   4.002   0.426
 2393TIP3    H128738   2.587   3.940   0.373
 2393TIP3    H228739   2.678   3.949   0.494
 2394TIP3   OH228740   1.548   5.155   0.556
 2394TIP3    H128741   1.608   5.092   0.516
 2394TIP3    H228742   1.578   5.240   0.522
 2395TIP3   OH228743   1.575   3.459   8.823
 2395TIP3    H128744   1.567   3.375   0.008
 2395TIP3    H228745   1.612   3.518   0.027
 2396TIP3   OH228746   4.778   5.656   0.086
 2396TIP3    H128747   4.726   5.599   0.029
 2396TIP3    H228748   4.857   5.605   0.104
 2397TIP3   OH228749   3.516   6.126   8.294
 2397TIP3    H128750   3.436   6.146   8.343
 2397TIP3    H228751   3.579   6.193   8.322
 2398TIP3   OH228752   6.122   2.705   2.013
 2398TIP3    H128753   6.116   2.701   2.109
 2398TIP3    H228754   6.210   2.737   1.996
 2399TIP3   OH228755   6.314   5.318   8.806
 2399TIP3    H128756   6.278   5.265   0.017
 2399TIP3    H228757   6.239   5.337   8.750
 2400TIP3   OH228758   3.047   1.409   7.813
 2400TIP3    H128759   3.124   1.440   7.766
 2400TIP3    H228760   3.075   1.404   7.904
 2401TIP3   OH228761   5.651   5.331   8.348
 2401TIP3    H128762   5.604   5.364   8.271
 2401TIP3    H228763   5.732   5.382   8.350
 2402TIP3   OH228764   2.198   2.933   7.065
 2402TIP3    H128765   2.160   2.860   7.115
 2402TIP3    H228766   2.186   3.009   7.122
 2403TIP3   OH228767   0.296   1.517   7.216
 2403TIP3    H128768   0.300   1.422   7.228
 2403TIP3    H228769   0.315   1.531   7.124
 2404TIP3   OH228770   5.072   1.627   7.334
 2404TIP3    H128771   4.984   1.590   7.332
 2404TIP3    H228772   5.130   1.553   7.314
 2405TIP3   OH228773   3.391   1.874   8.550
 2405TIP3    H128774   3.452   1.802   8.560
 2405TIP3    H228775   3.401   1.901   8.458
 2406TIP3   OH228776   1.555   1.396   7.773
 2406TIP3    H128777   1.596   1.476   7.742
 2406TIP3    H228778   1.606   1.369   7.849
 2407TIP3   OH228779   4.010   3.706   6.677
 2407TIP3    H128780   4.037   3.655   6.600
 2407TIP3    H228781   4.021   3.797   6.649
 2408TIP3   OH228782   1.740   5.307   8.475
 2408TIP3    H128783   1.755   5.236   8.413
 2408TIP3    H228784   1.648   5.332   8.461
 2409TIP3   OH228785   5.562   5.630   0.745
 2409TIP3    H128786   5.621   5.698   0.778
 2409TIP3    H228787   5.518   5.671   0.671
 2410TIP3   OH228788   5.602   4.804   0.061
 2410TIP3    H128789   5.652   4.838   0.136
 2410TIP3    H228790   5.635   4.854   8.847
 2411TIP3   OH228791   5.479   5.757   7.320
 2411TIP3    H128792   5.523   5.839   7.299
 2411TIP3    H228793   5.503   5.739   7.411
 2412TIP3   OH228794   6.546   3.632   7.896
 2412TIP3    H128795   6.611   3.618   7.827
 2412TIP3    H228796   6.508   3.717   7.876
 2413TIP3   OH228797   6.285   0.763   2.073
 2413TIP3    H128798   6.353   0.830   2.064
 2413TIP3    H228799   6.316   0.706   2.143
 2414TIP3   OH228800   1.263   4.285   0.702
 2414TIP3    H128801   1.247   4.367   0.655
 2414TIP3    H228802   1.253   4.217   0.635
 2415TIP3   OH228803   2.210   5.386   8.197
 2415TIP3    H128804   2.192   5.311   8.141
 2415TIP3    H228805   2.282   5.432   8.153
 2416TIP3   OH228806   1.796   4.032   6.613
 2416TIP3    H128807   1.870   4.069   6.661
 2416TIP3    H228808   1.753   4.108   6.572
 2417TIP3   OH228809   6.686   1.668   1.485
 2417TIP3    H128810   6.603   1.643   1.526
 2417TIP3    H228811   6.696   1.761   1.506
 2418TIP3   OH228812   3.093   4.619   1.082
 2418TIP3    H128813   3.182   4.624   1.118
 2418TIP3    H228814   3.104   4.591   0.992
 2419TIP3   OH228815   4.411   3.286   7.211
 2419TIP3    H128816   4.347   3.248   7.151
 2419TIP3    H228817   4.394   3.243   7.295
 2420TIP3   OH228818   6.474   5.574   7.762
 2420TIP3    H128819   6.544   5.520   7.799
 2420TIP3    H228820   6.481   5.657   7.809
 2421TIP3   OH228821   0.963   2.478   1.307
 2421TIP3    H128822   0.948   2.417   1.380
 2421TIP3    H228823   0.966   2.422   1.230
 2422TIP3   OH228824   6.558   0.403   7.781
 2422TIP3    H128825   6.586   0.413   7.690
 2422TIP3    H228826   6.587   0.483   7.825
 2423TIP3   OH228827   6.116   3.153   8.178
 2423TIP3    H128828   6.027   3.123   8.158
 2423TIP3    H228829   6.169   3.074   8.178
 2424TIP3   OH228830   1.727   0.560   1.157
 2424TIP3    H128831   1.755   0.629   1.096
 2424TIP3    H228832   1.679   0.498   1.102
 2425TIP3   OH228833   0.788   6.714   6.675
 2425TIP3    H128834   0.744   6.638   6.714
 2425TIP3    H228835   0.802   6.690   6.584
 2426TIP3   OH228836   2.141   0.247   1.827
 2426TIP3    H128837   2.170   0.335   1.849
 2426TIP3    H228838   2.189   0.190   1.887
 2427TIP3   OH228839   3.186   4.063   0.301
 2427TIP3    H128840   3.229   4.106   0.374
 2427TIP3    H228841   3.094   4.057   0.327
 2428TIP3   OH228842   2.933   4.876   0.452
 2428TIP3    H128843   2.860   4.814   0.448
 2428TIP3    H228844   3.005   4.831   0.409
 2429TIP3   OH228845   6.481   2.455   0.491
 2429TIP3    H128846   6.504   2.548   0.502
 2429TIP3    H228847   6.463   2.446   0.397
 2430TIP3   OH228848   1.861   3.264   1.586
 2430TIP3    H128849   1.797   3.251   1.655
 2430TIP3    H228850   1.843   3.195   1.523
 2431TIP3   OH228851   4.676   4.176   1.891
 2431TIP3    H128852   4.637   4.106   1.942
 2431TIP3    H228853   4.725   4.229   1.955
 2432TIP3   OH228854   4.733   5.015   7.988
 2432TIP3    H128855   4.641   4.994   8.000
 2432TIP3    H228856   4.753   5.080   8.056
 2433TIP3   OH228857   3.365   6.522   7.023
 2433TIP3    H128858   3.356   6.441   7.072
 2433TIP3    H228859   3.351   6.497   6.931
 2434TIP3   OH228860   1.650   5.959   7.980
 2434TIP3    H128861   1.712   5.887   7.991
 2434TIP3    H228862   1.695   6.035   8.014
 2435TIP3   OH228863   1.256   0.182   1.332
 2435TIP3    H128864   1.311   0.182   1.254
 2435TIP3    H228865   1.201   0.260   1.323
 2436TIP3   OH228866   6.575   1.708   8.030
 2436TIP3    H128867   6.607   1.796   8.010
 2436TIP3    H228868   6.634   1.676   8.098
 2437TIP3   OH228869   2.658   6.602   0.172
 2437TIP3    H128870   2.600   6.664   0.129
 2437TIP3    H228871   2.732   6.655   0.203
 2438TIP3   OH228872   2.777   2.996   0.245
 2438TIP3    H128873   2.716   2.982   0.173
 2438TIP3    H228874   2.739   2.949   0.319
 2439TIP3   OH228875   6.638   0.364   8.726
 2439TIP3    H128876   6.551   0.342   8.693
 2439TIP3    H228877   6.627   0.366   8.821
 2440TIP3   OH228878   5.192   6.153   8.548
 2440TIP3    H128879   5.266   6.208   8.572
 2440TIP3    H228880   5.190   6.156   8.452
 2441TIP3   OH228881   5.983   0.404   1.570
 2441TIP3    H128882   6.000   0.331   1.511
 2441TIP3    H228883   5.918   0.370   1.632
 2442TIP3   OH228884   6.736   5.554   8.153
 2442TIP3    H128885   6.754   5.539   8.245
 2442TIP3    H228886   6.663   5.617   8.152
 2443TIP3   OH228887   4.039   5.661   8.837
 2443TIP3    H128888   3.998   5.740   0.012
 2443TIP3    H228889   3.978   5.630   8.770
 2444TIP3   OH228890   4.289   1.844   6.898
 2444TIP3    H128891   4.379   1.870   6.876
 2444TIP3    H228892   4.238   1.868   6.820
 2445TIP3   OH228893   0.168   0.367   0.887
 2445TIP3    H128894   0.239   0.401   0.833
 2445TIP3    H228895   0.100   0.341   0.824
 2446TIP3   OH228896   2.880   4.950   7.497
 2446TIP3    H128897   2.800   4.918   7.455
 2446TIP3    H228898   2.860   4.950   7.590
 2447TIP3   OH228899   6.086   4.748   2.413
 2447TIP3    H128900   6.030   4.803   2.467
 2447TIP3    H228901   6.159   4.805   2.390
 2448TIP3   OH228902   2.674   1.750   7.790
 2448TIP3    H128903   2.737   1.809   7.831
 2448TIP3    H228904   2.706   1.662   7.811
 2449TIP3   OH228905   3.849   4.489   8.420
 2449TIP3    H128906   3.819   4.568   8.376
 2449TIP3    H228907   3.892   4.438   8.351
 2450TIP3   OH228908   5.089   3.847   6.972
 2450TIP3    H128909   5.086   3.798   6.890
 2450TIP3    H228910   5.021   3.914   6.963
 2451TIP3   OH228911   3.615   4.184   6.842
 2451TIP3    H128912   3.615   4.275   6.814
 2451TIP3    H228913   3.651   4.136   6.767
 2452TIP3   OH228914   5.496   3.689   2.406
 2452TIP3    H128915   5.586   3.656   2.404
 2452TIP3    H228916   5.480   3.719   2.316
 2453TIP3   OH228917   4.652   1.662   7.844
 2453TIP3    H128918   4.628   1.569   7.835
 2453TIP3    H228919   4.578   1.709   7.805
 2454TIP3   OH228920   4.340   4.545   0.558
 2454TIP3    H128921   4.338   4.640   0.570
 2454TIP3    H228922   4.362   4.533   0.466
 2455TIP3   OH228923   0.710   1.068   8.070
 2455TIP3    H128924   0.673   1.084   8.157
 2455TIP3    H228925   0.799   1.104   8.074
 2456TIP3   OH228926   2.489   5.976   8.057
 2456TIP3    H128927   2.557   5.998   7.993
 2456TIP3    H228928   2.477   5.881   8.046
 2457TIP3   OH228929   2.201   5.180   7.992
 2457TIP3    H128930   2.116   5.137   7.987
 2457TIP3    H228931   2.230   5.187   7.901
 2458TIP3   OH228932   4.517   5.329   7.341
 2458TIP3    H128933   4.471   5.352   7.260
 2458TIP3    H228934   4.461   5.361   7.411
 2459TIP3   OH228935   3.095   1.825   0.253
 2459TIP3    H128936   3.078   1.867   0.337
 2459TIP3    H228937   3.009   1.797   0.221
 2460TIP3   OH228938   3.166   2.348   0.566
 2460TIP3    H128939   3.110   2.420   0.596
 2460TIP3    H228940   3.121   2.314   0.488
 2461TIP3   OH228941   1.722   1.466   1.332
 2461TIP3    H128942   1.740   1.533   1.397
 2461TIP3    H228943   1.720   1.514   1.249
 2462TIP3   OH228944   3.798   1.574   8.746
 2462TIP3    H128945   3.777   1.523   8.668
 2462TIP3    H228946   3.746   1.532   8.816
 2463TIP3   OH228947   3.405   2.499   8.260
 2463TIP3    H128948   3.336   2.444   8.297
 2463TIP3    H228949   3.484   2.475   8.309
 2464TIP3   OH228950   0.928   0.670   0.403
 2464TIP3    H128951   0.947   0.761   0.425
 2464TIP3    H228952   0.900   0.673   0.312
 2465TIP3   OH228953   1.257   0.912   7.515
 2465TIP3    H128954   1.276   0.866   7.596
 2465TIP3    H228955   1.217   0.846   7.458
 2466TIP3   OH228956   5.431   1.629   8.770
 2466TIP3    H128957   5.452   1.557   8.829
 2466TIP3    H228958   5.343   1.656   8.796
 2467TIP3   OH228959   3.632   2.172   1.757
 2467TIP3    H128960   3.719   2.147   1.725
 2467TIP3    H228961   3.602   2.098   1.809
 2468TIP3   OH228962   2.491   0.661   0.984
 2468TIP3    H128963   2.526   0.715   1.055
 2468TIP3    H228964   2.448   0.588   1.027
 2469TIP3   OH228965   6.435   4.761   0.870
 2469TIP3    H128966   6.456   4.670   0.892
 2469TIP3    H228967   6.343   4.771   0.894
 2470TIP3   OH228968   1.964   4.101   0.446
 2470TIP3    H128969   1.945   4.193   0.428
 2470TIP3    H228970   1.975   4.098   0.541
 2471TIP3   OH228971   2.940   2.206   8.255
 2471TIP3    H128972   2.937   2.111   8.270
 2471TIP3    H228973   2.917   2.244   8.339
 2472TIP3   OH228974   4.534   3.995   0.829
 2472TIP3    H128975   4.611   4.046   0.855
 2472TIP3    H228976   4.531   4.003   0.734
 2473TIP3   OH228977   2.079   3.601   6.202
 2473TIP3    H128978   2.027   3.527   6.234
 2473TIP3    H228979   2.091   3.657   6.279
 2474TIP3   OH228980   1.182   4.530   0.646
 2474TIP3    H128981   1.096   4.497   0.617
 2474TIP3    H228982   1.176   4.625   0.636
 2475TIP3   OH228983   3.756   6.262   0.146
 2475TIP3    H128984   3.821   6.332   0.155
 2475TIP3    H228985   3.690   6.282   0.213
 2476TIP3   OH228986   0.640   1.198   7.829
 2476TIP3    H128987   0.692   1.146   7.891
 2476TIP3    H228988   0.559   1.148   7.818
 2477TIP3   OH228989   2.292   3.129   6.679
 2477TIP3    H128990   2.357   3.197   6.696
 2477TIP3    H228991   2.251   3.112   6.764
 2478TIP3   OH228992   4.690   4.833   1.742
 2478TIP3    H128993   4.636   4.869   1.813
 2478TIP3    H228994   4.738   4.761   1.783
 2479TIP3   OH228995   1.636   2.822   8.687
 2479TIP3    H128996   1.587   2.866   8.617
 2479TIP3    H228997   1.575   2.756   8.720
 2480TIP3   OH228998   0.257   4.767   1.490
 2480TIP3    H128999   0.334   4.745   1.542
 2480TIP3    H229000   0.226   4.850   1.527
 2481TIP3   OH229001   4.193   0.278   7.116
 2481TIP3    H129002   4.211   0.307   7.027
 2481TIP3    H229003   4.155   0.355   7.160
 2482TIP3   OH229004   5.589   4.121   7.121
 2482TIP3    H129005   5.578   4.026   7.131
 2482TIP3    H229006   5.501   4.154   7.102
 2483TIP3   OH229007   4.595   2.429   7.231
 2483TIP3    H129008   4.543   2.351   7.215
 2483TIP3    H229009   4.648   2.408   7.308
 2484TIP3   OH229010   2.395   3.168   7.262
 2484TIP3    H129011   2.299   3.168   7.259
 2484TIP3    H229012   2.418   3.090   7.313
 2485TIP3   OH229013   0.326   2.519   6.906
 2485TIP3    H129014   0.385   2.591   6.929
 2485TIP3    H229015   0.273   2.554   6.834
 2486TIP3   OH229016   5.287   3.524   7.254
 2486TIP3    H129017   5.215   3.461   7.251
 2486TIP3    H229018   5.261   3.593   7.193
 2487TIP3   OH229019   3.039   0.145   7.664
 2487TIP3    H129020   3.051   0.063   7.618
 2487TIP3    H229021   3.127   0.182   7.673
 2488TIP3   OH229022   1.228   2.245   8.523
 2488TIP3    H129023   1.234   2.216   8.614
 2488TIP3    H229024   1.157   2.309   8.522
 2489TIP3   OH229025   5.937   3.422   1.301
 2489TIP3    H129026   5.958   3.450   1.212
 2489TIP3    H229027   5.951   3.501   1.354
 2490TIP3   OH229028   3.323   3.761   7.901
 2490TIP3    H129029   3.258   3.760   7.830
 2490TIP3    H229030   3.358   3.672   7.902
 2491TIP3   OH229031   3.928   3.242   7.828
 2491TIP3    H129032   3.965   3.317   7.782
 2491TIP3    H229033   4.003   3.187   7.848
 2492TIP3   OH229034   3.657   2.069   0.224
 2492TIP3    H129035   3.736   2.105   0.184
 2492TIP3    H229036   3.612   2.025   0.151
 2493TIP3   OH229037   4.281   1.748   6.609
 2493TIP3    H129038   4.286   1.654   6.591
 2493TIP3    H229039   4.373   1.776   6.611
 2494TIP3   OH229040   6.744   1.698   8.460
 2494TIP3    H129041   6.659   1.677   8.499
 2494TIP3    H229042   6.783   1.762   8.519
 2495TIP3   OH229043   2.864   1.936   0.741
 2495TIP3    H129044   2.842   2.003   0.677
 2495TIP3    H229045   2.779   1.907   0.775
 2496TIP3   OH229046   4.235   2.920   0.843
 2496TIP3    H129047   4.223   2.825   0.845
 2496TIP3    H229048   4.245   2.944   0.935
 2497TIP3   OH229049   4.584   5.402   1.876
 2497TIP3    H129050   4.551   5.492   1.871
 2497TIP3    H229051   4.618   5.394   1.965
 2498TIP3   OH229052   3.770   3.519   7.897
 2498TIP3    H129053   3.799   3.431   7.921
 2498TIP3    H229054   3.716   3.506   7.819
 2499TIP3   OH229055   4.864   5.412   0.598
 2499TIP3    H129056   4.843   5.325   0.564
 2499TIP3    H229057   4.893   5.461   0.521
 2500TIP3   OH229058   5.458   6.650   0.962
 2500TIP3    H129059   5.494   6.678   1.046
 2500TIP3    H229060   5.406   6.572   0.983
 2501TIP3   OH229061   6.747   3.011   0.511
 2501TIP3    H129062   6.792   3.056   0.583
 2501TIP3    H229063   6.729   3.081   0.447
 2502TIP3   OH229064   1.791   3.644   0.751
 2502TIP3    H129065   1.721   3.578   0.742
 2502TIP3    H229066   1.760   3.702   0.820
 2503TIP3   OH229067   5.259   1.966   0.992
 2503TIP3    H129068   5.334   2.002   0.944
 2503TIP3    H229069   5.187   2.026   0.970
 2504TIP3   OH229070   4.921   1.865   1.305
 2504TIP3    H129071   4.953   1.869   1.215
 2504TIP3    H229072   4.849   1.928   1.307
 2505TIP3   OH229073   2.561   3.531   7.122
 2505TIP3    H129074   2.584   3.624   7.119
 2505TIP3    H229075   2.465   3.529   7.118
 2506TIP3   OH229076   1.015   0.898   8.209
 2506TIP3    H129077   1.089   0.959   8.214
 2506TIP3    H229078   1.030   0.849   8.128
 2507TIP3   OH229079   5.083   1.210   0.899
 2507TIP3    H129080   5.045   1.145   0.839
 2507TIP3    H229081   5.126   1.273   0.842
 2508TIP3   OH229082   1.889   0.921   1.704
 2508TIP3    H129083   1.877   0.833   1.668
 2508TIP3    H229084   1.914   0.906   1.795
 2509TIP3   OH229085   5.675   2.114   7.098
 2509TIP3    H129086   5.629   2.174   7.039
 2509TIP3    H229087   5.690   2.165   7.177
 2510TIP3   OH229088   0.016   5.916   8.566
 2510TIP3    H129089   0.026   5.846   8.631
 2510TIP3    H229090   0.070   5.887   8.492
 2511TIP3   OH229091   4.170   3.112   7.632
 2511TIP3    H129092   4.182   3.034   7.687
 2511TIP3    H229093   4.189   3.185   7.691
 2512TIP3   OH229094   4.918   6.480   0.604
 2512TIP3    H129095   4.870   6.502   0.683
 2512TIP3    H229096   4.924   6.562   0.555
 2513TIP3   OH229097   0.298   6.609   8.082
 2513TIP3    H129098   0.392   6.621   8.067
 2513TIP3    H229099   0.287   6.621   8.176
 2514TIP3   OH229100   5.684   3.032   8.341
 2514TIP3    H129101   5.598   3.073   8.338
 2514TIP3    H229102   5.667   2.941   8.365
 2515TIP3   OH229103   3.540   1.180   8.585
 2515TIP3    H129104   3.460   1.190   8.636
 2515TIP3    H229105   3.607   1.156   8.650
 2516TIP3   OH229106   6.271   1.363   8.504
 2516TIP3    H129107   6.359   1.326   8.494
 2516TIP3    H229108   6.212   1.287   8.501
 2517TIP3   OH229109   1.913   5.753   2.039
 2517TIP3    H129110   1.863   5.700   2.101
 2517TIP3    H229111   1.855   5.825   2.015
 2518TIP3   OH229112   2.183   4.726   7.447
 2518TIP3    H129113   2.106   4.674   7.468
 2518TIP3    H229114   2.256   4.664   7.453
 2519TIP3   OH229115   4.920   5.809   8.521
 2519TIP3    H129116   4.970   5.762   8.588
 2519TIP3    H229117   4.896   5.891   8.562
 2520TIP3   OH229118   1.721   5.139   8.017
 2520TIP3    H129119   1.630   5.168   8.010
 2520TIP3    H229120   1.719   5.068   8.081
 2521TIP3   OH229121   1.201   6.696   0.389
 2521TIP3    H129122   1.129   6.737   0.341
 2521TIP3    H229123   1.162   6.673   0.474
 2522TIP3   OH229124   3.841   5.766   8.686
 2522TIP3    H129125   3.789   5.846   8.678
 2522TIP3    H229126   3.775   5.696   8.686
 2523TIP3   OH229127   4.986   3.717   6.722
 2523TIP3    H129128   4.898   3.754   6.720
 2523TIP3    H229129   5.017   3.728   6.632
 2524TIP3   OH229130   5.944   0.698   1.411
 2524TIP3    H129131   5.924   0.760   1.341
 2524TIP3    H229132   6.034   0.720   1.437
 2525TIP3   OH229133   0.807   4.470   8.413
 2525TIP3    H129134   0.783   4.421   8.334
 2525TIP3    H229135   0.815   4.560   8.384
 2526TIP3   OH229136   4.031   6.664   0.769
 2526TIP3    H129137   4.000   6.633   0.684
 2526TIP3    H229138   3.956   6.713   0.805
 2527TIP3   OH229139   6.330   5.716   2.261
 2527TIP3    H129140   6.277   5.637   2.263
 2527TIP3    H229141   6.281   5.778   2.315
 2528TIP3   OH229142   4.556   6.043   1.160
 2528TIP3    H129143   4.629   6.061   1.099
 2528TIP3    H229144   4.570   6.105   1.232
 2529TIP3   OH229145   2.386   1.151   0.159
 2529TIP3    H129146   2.473   1.116   0.174
 2529TIP3    H229147   2.327   1.078   0.178
 2530TIP3   OH229148   6.717   5.383   7.915
 2530TIP3    H129149   6.783   5.408   7.850
 2530TIP3    H229150   6.755   5.408   7.999
 2531TIP3   OH229151   5.920   4.533   7.593
 2531TIP3    H129152   5.891   4.620   7.565
 2531TIP3    H229153   5.959   4.547   7.679
 2532TIP3   OH229154   3.351   1.647   7.600
 2532TIP3    H129155   3.415   1.681   7.538
 2532TIP3    H229156   3.357   1.552   7.591
 2533TIP3   OH229157   3.816   0.428   2.093
 2533TIP3    H129158   3.841   0.396   2.179
 2533TIP3    H229159   3.891   0.482   2.065
 2534TIP3   OH229160   2.759   3.770   1.190
 2534TIP3    H129161   2.767   3.818   1.272
 2534TIP3    H229162   2.695   3.701   1.209
 2535TIP3   OH229163   1.469   6.534   8.688
 2535TIP3    H129164   1.384   6.572   8.707
 2535TIP3    H229165   1.450   6.456   8.635
 2536TIP3   OH229166   1.036   6.732   8.051
 2536TIP3    H129167   1.070   6.721   8.140
 2536TIP3    H229168   1.108   6.773   8.003
 2537TIP3   OH229169   6.211   5.206   1.558
 2537TIP3    H129170   6.212   5.199   1.462
 2537TIP3    H229171   6.162   5.129   1.587
 2538TIP3   OH229172   3.829   0.756   2.081
 2538TIP3    H129173   3.884   0.691   2.124
 2538TIP3    H229174   3.769   0.785   2.150
 2539TIP3   OH229175   4.076   1.304   7.097
 2539TIP3    H129176   4.140   1.351   7.044
 2539TIP3    H229177   3.992   1.327   7.058
 2540TIP3   OH229178   1.175   3.389   8.698
 2540TIP3    H129179   1.089   3.410   8.664
 2540TIP3    H229180   1.164   3.387   8.793
 2541TIP3   OH229181   4.449   3.080   8.531
 2541TIP3    H129182   4.414   2.991   8.524
 2541TIP3    H229183   4.371   3.136   8.531
 2542TIP3   OH229184   3.432   0.050   6.973
 2542TIP3    H129185   3.367   0.117   6.993
 2542TIP3    H229186   3.382   6.770   6.965
 2543TIP3   OH229187   2.043   3.109   8.356
 2543TIP3    H129188   2.007   3.193   8.327
 2543TIP3    H229189   1.974   3.072   8.412
 2544TIP3   OH229190   3.404   2.217   7.975
 2544TIP3    H129191   3.413   2.144   7.914
 2544TIP3    H229192   3.404   2.295   7.919
 2545TIP3   OH229193   4.616   3.376   1.809
 2545TIP3    H129194   4.586   3.285   1.804
 2545TIP3    H229195   4.580   3.409   1.891
 2546TIP3   OH229196   4.105   0.864   0.846
 2546TIP3    H129197   4.198   0.888   0.855
 2546TIP3    H229198   4.103   0.769   0.858
 2547TIP3   OH229199   6.350   4.661   8.085
 2547TIP3    H129200   6.415   4.667   8.155
 2547TIP3    H229201   6.271   4.700   8.122
 2548TIP3   OH229202   4.254   1.805   8.097
 2548TIP3    H129203   4.324   1.836   8.040
 2548TIP3    H229204   4.195   1.880   8.106
 2549TIP3   OH229205   2.059   1.744   7.634
 2549TIP3    H129206   2.045   1.649   7.630
 2549TIP3    H229207   2.140   1.758   7.585
 2550TIP3   OH229208   6.198   0.252   0.360
 2550TIP3    H129209   6.104   0.257   0.343
 2550TIP3    H229210   6.238   0.277   0.277
 2551TIP3   OH229211   0.345   4.429   1.254
 2551TIP3    H129212   0.339   4.376   1.175
 2551TIP3    H229213   0.404   4.501   1.230
 2552TIP3   OH229214   2.486   6.414   0.282
 2552TIP3    H129215   2.552   6.473   0.247
 2552TIP3    H229216   2.403   6.458   0.265
 2553TIP3   OH229217   6.158   4.732   0.970
 2553TIP3    H129218   6.133   4.648   0.931
 2553TIP3    H229219   6.085   4.790   0.951
 2554TIP3   OH229220   4.458   6.207   7.366
 2554TIP3    H129221   4.415   6.292   7.378
 2554TIP3    H229222   4.542   6.217   7.409
 2555TIP3   OH229223   0.265   4.248   1.989
 2555TIP3    H129224   0.223   4.267   2.073
 2555TIP3    H229225   0.294   4.157   1.996
 2556TIP3   OH229226   0.413   4.306   0.630
 2556TIP3    H129227   0.329   4.273   0.661
 2556TIP3    H229228   0.477   4.274   0.694
 2557TIP3   OH229229   0.207   3.860   7.583
 2557TIP3    H129230   0.223   3.778   7.630
 2557TIP3    H229231   0.279   3.917   7.609
 2558TIP3   OH229232   0.036   3.841   7.945
 2558TIP3    H129233   6.758   3.796   7.977
 2558TIP3    H229234   0.042   3.919   7.999
 2559TIP3   OH229235   2.959   5.393   7.026
 2559TIP3    H129236   3.035   5.373   7.080
 2559TIP3    H229237   2.961   5.328   6.956
 2560TIP3   OH229238   0.736   6.193   0.383
 2560TIP3    H129239   0.695   6.120   0.335
 2560TIP3    H229240   0.787   6.150   0.451
 2561TIP3   OH229241   4.042   3.469   7.674
 2561TIP3    H129242   4.123   3.476   7.623
 2561TIP3    H229243   3.972   3.487   7.611
 2562TIP3   OH229244   4.876   5.797   7.451
 2562TIP3    H129245   4.885   5.887   7.420
 2562TIP3    H229246   4.841   5.749   7.376
 2563TIP3   OH229247   1.536   2.444   0.872
 2563TIP3    H129248   1.475   2.404   0.934
 2563TIP3    H229249   1.620   2.444   0.918
 2564TIP3   OH229250   5.077   5.562   2.129
 2564TIP3    H129251   5.055   5.473   2.103
 2564TIP3    H229252   5.087   5.558   2.224
 2565TIP3   OH229253   2.217   2.818   0.630
 2565TIP3    H129254   2.168   2.798   0.710
 2565TIP3    H229255   2.290   2.871   0.660
 2566TIP3   OH229256   2.707   0.397   1.007
 2566TIP3    H129257   2.646   0.469   0.991
 2566TIP3    H229258   2.685   0.367   1.095
 2567TIP3   OH229259   6.242   2.554   6.151
 2567TIP3    H129260   6.267   2.635   6.196
 2567TIP3    H229261   6.244   2.487   6.219
 2568TIP3   OH229262   5.353   2.571   2.483
 2568TIP3    H129263   5.321   2.586   2.572
 2568TIP3    H229264   5.448   2.576   2.490
 2569TIP3   OH229265   3.809   4.785   7.843
 2569TIP3    H129266   3.750   4.719   7.807
 2569TIP3    H229267   3.823   4.847   7.771
 2570TIP3   OH229268   4.203   0.612   1.725
 2570TIP3    H129269   4.175   0.698   1.692
 2570TIP3    H229270   4.232   0.630   1.815
 2571TIP3   OH229271   6.594   2.923   8.277
 2571TIP3    H129272   6.646   2.905   8.199
 2571TIP3    H229273   6.613   2.851   8.337
 2572TIP3   OH229274   5.337   2.723   7.549
 2572TIP3    H129275   5.400   2.790   7.574
 2572TIP3    H229276   5.254   2.753   7.587
 2573TIP3   OH229277   2.312   1.467   6.819
 2573TIP3    H129278   2.406   1.458   6.836
 2573TIP3    H229279   2.306   1.483   6.725
 2574TIP3   OH229280   5.053   4.617   6.894
 2574TIP3    H129281   5.122   4.676   6.925
 2574TIP3    H229282   5.051   4.630   6.799
 2575TIP3   OH229283   4.987   4.884   0.964
 2575TIP3    H129284   5.014   4.823   0.894
 2575TIP3    H229285   5.005   4.970   0.928
 2576TIP3   OH229286   2.144   2.673   0.396
 2576TIP3    H129287   2.198   2.723   0.458
 2576TIP3    H229288   2.106   2.739   0.339
 2577TIP3   OH229289   1.796   4.174   8.080
 2577TIP3    H129290   1.870   4.234   8.093
 2577TIP3    H229291   1.822   4.122   8.004
 2578TIP3   OH229292   6.445   2.012   8.266
 2578TIP3    H129293   6.508   2.004   8.194
 2578TIP3    H229294   6.498   2.020   8.345
 2579TIP3   OH229295   6.546   2.883   7.678
 2579TIP3    H129296   6.629   2.924   7.703
 2579TIP3    H229297   6.484   2.910   7.746
 2580TIP3   OH229298   0.850   1.961   1.779
 2580TIP3    H129299   0.890   1.878   1.805
 2580TIP3    H229300   0.759   1.954   1.810
 2581TIP3   OH229301   3.137   4.746   0.274
 2581TIP3    H129302   3.187   4.811   0.224
 2581TIP3    H229303   3.195   4.720   0.345
 2582TIP3   OH229304   1.193   4.058   0.544
 2582TIP3    H129305   1.120   3.999   0.528
 2582TIP3    H229306   1.224   4.082   0.456
 2583TIP3   OH229307   1.869   2.834   1.991
 2583TIP3    H129308   1.867   2.745   2.025
 2583TIP3    H229309   1.957   2.866   2.012
 2584TIP3   OH229310   0.808   6.645   1.142
 2584TIP3    H129311   0.769   6.606   1.220
 2584TIP3    H229312   0.889   6.685   1.172
 2585TIP3   OH229313   2.094   5.047   0.406
 2585TIP3    H129314   2.159   5.071   0.473
 2585TIP3    H229315   2.133   5.078   0.324
 2586TIP3   OH229316   5.967   0.819   0.974
 2586TIP3    H129317   6.030   0.874   0.929
 2586TIP3    H229318   6.006   0.731   0.973
 2587TIP3   OH229319   2.796   3.674   0.286
 2587TIP3    H129320   2.713   3.717   0.307
 2587TIP3    H229321   2.781   3.582   0.308
 2588TIP3   OH229322   3.577   4.964   6.682
 2588TIP3    H129323   3.559   4.889   6.624
 2588TIP3    H229324   3.665   4.947   6.715
 2589TIP3   OH229325   1.741   3.596   0.416
 2589TIP3    H129326   1.677   3.622   0.482
 2589TIP3    H229327   1.822   3.582   0.466
 2590TIP3   OH229328   4.309   0.034   0.548
 2590TIP3    H129329   4.344   6.798   0.466
 2590TIP3    H229330   4.359   0.115   0.561
 2591TIP3   OH229331   2.778   4.456   0.093
 2591TIP3    H129332   2.828   4.533   0.121
 2591TIP3    H229333   2.802   4.388   0.156
 2592TIP3   OH229334   5.239   4.100   7.124
 2592TIP3    H129335   5.231   4.066   7.213
 2592TIP3    H229336   5.212   4.028   7.068
 2593TIP3   OH229337   6.080   2.997   1.396
 2593TIP3    H129338   6.016   2.926   1.392
 2593TIP3    H229339   6.028   3.076   1.410
 2594TIP3   OH229340   4.790   6.100   1.727
 2594TIP3    H129341   4.884   6.120   1.719
 2594TIP3    H229342   4.750   6.184   1.751
 2595TIP3   OH229343   4.841   5.069   7.717
 2595TIP3    H129344   4.818   5.069   7.810
 2595TIP3    H229345   4.779   5.007   7.678
 2596TIP3   OH229346   3.141   3.415   0.272
 2596TIP3    H129347   3.095   3.463   0.341
 2596TIP3    H229348   3.142   3.325   0.302
 2597TIP3   OH229349   0.362   2.728   1.778
 2597TIP3    H129350   0.343   2.738   1.685
 2597TIP3    H229351   0.457   2.738   1.785
 2598TIP3   OH229352   4.141   5.054   6.599
 2598TIP3    H129353   4.096   4.973   6.625
 2598TIP3    H229354   4.104   5.076   6.514
 2599TIP3   OH229355   2.477   4.788   1.182
 2599TIP3    H129356   2.482   4.791   1.087
 2599TIP3    H229357   2.445   4.875   1.207
 2600TIP3   OH229358   2.635   6.776   1.036
 2600TIP3    H129359   2.710   6.739   0.990
 2600TIP3    H229360   2.562   6.718   1.013
 2601TIP3   OH229361   4.660   4.883   1.474
 2601TIP3    H129362   4.657   4.910   1.566
 2601TIP3    H229363   4.751   4.856   1.460
 2602TIP3   OH229364   0.360   6.202   8.160
 2602TIP3    H129365   0.324   6.268   8.101
 2602TIP3    H229366   0.447   6.183   8.125
 2603TIP3   OH229367   0.444   1.223   0.547
 2603TIP3    H129368   0.499   1.235   0.469
 2603TIP3    H229369   0.475   1.290   0.608
 2604TIP3   OH229370   2.158   5.038   0.139
 2604TIP3    H129371   2.092   5.014   0.074
 2604TIP3    H229372   2.229   4.976   0.126
 2605TIP3   OH229373   5.545   2.885   1.602
 2605TIP3    H129374   5.629   2.924   1.625
 2605TIP3    H229375   5.481   2.929   1.659
 2606TIP3   OH229376   3.893   6.305   1.929
 2606TIP3    H129377   3.860   6.307   2.018
 2606TIP3    H229378   3.821   6.338   1.875
 2607TIP3   OH229379   0.477   6.714   7.111
 2607TIP3    H129380   0.492   0.005   7.136
 2607TIP3    H229381   0.558   6.688   7.068
 2608TIP3   OH229382   4.844   3.647   0.324
 2608TIP3    H129383   4.911   3.701   0.365
 2608TIP3    H229384   4.860   3.657   0.230
 2609TIP3   OH229385   2.911   3.116   6.434
 2609TIP3    H129386   2.977   3.182   6.410
 2609TIP3    H229387   2.846   3.165   6.485
 2610TIP3   OH229388   1.794   5.491   0.236
 2610TIP3    H129389   1.754   5.424   0.291
 2610TIP3    H229390   1.861   5.531   0.292
 2611TIP3   OH229391   4.951   3.708   7.888
 2611TIP3    H129392   4.945   3.747   7.801
 2611TIP3    H229393   4.941   3.781   7.948
 2612TIP3   OH229394   3.508   0.991   0.971
 2612TIP3    H129395   3.429   1.042   0.988
 2612TIP3    H229396   3.512   0.929   1.044
 2613TIP3   OH229397   5.795   3.669   1.604
 2613TIP3    H129398   5.723   3.701   1.658
 2613TIP3    H229399   5.855   3.743   1.596
 2614TIP3   OH229400   4.668   2.222   1.707
 2614TIP3    H129401   4.732   2.221   1.778
 2614TIP3    H229402   4.669   2.312   1.675
 2615TIP3   OH229403   5.555   0.797   2.643
 2615TIP3    H129404   5.587   0.887   2.635
 2615TIP3    H229405   5.517   0.793   2.731
 2616TIP3   OH229406   4.815   1.821   8.199
 2616TIP3    H129407   4.730   1.814   8.155
 2616TIP3    H229408   4.794   1.820   8.293
 2617TIP3   OH229409   0.908   6.055   0.167
 2617TIP3    H129410   0.928   6.148   0.164
 2617TIP3    H229411   0.993   6.012   0.181
 2618TIP3   OH229412   1.872   2.694   8.334
 2618TIP3    H129413   1.888   2.751   8.410
 2618TIP3    H229414   1.938   2.625   8.341
 2619TIP3   OH229415   3.152   1.188   7.282
 2619TIP3    H129416   3.238   1.202   7.320
 2619TIP3    H229417   3.117   1.112   7.328
 2620TIP3   OH229418   5.527   3.888   6.940
 2620TIP3    H129419   5.595   3.824   6.917
 2620TIP3    H229420   5.553   3.968   6.896
 2621TIP3   OH229421   5.173   1.297   8.758
 2621TIP3    H129422   5.263   1.295   8.791
 2621TIP3    H229423   5.130   1.224   8.803
 2622TIP3   OH229424   5.115   1.900   7.396
 2622TIP3    H129425   5.106   1.809   7.366
 2622TIP3    H229426   5.182   1.896   7.464
 2623TIP3   OH229427   1.945   5.775   1.037
 2623TIP3    H129428   1.901   5.849   1.080
 2623TIP3    H229429   1.950   5.801   0.945
 2624TIP3   OH229430   0.565   2.468   0.229
 2624TIP3    H129431   0.534   2.378   0.227
 2624TIP3    H229432   0.616   2.475   0.310
 2625TIP3   OH229433   0.658   4.775   2.177
 2625TIP3    H129434   0.690   4.773   2.267
 2625TIP3    H229435   0.673   4.865   2.149
 2626TIP3   OH229436   0.920   3.046   0.329
 2626TIP3    H129437   0.957   3.134   0.339
 2626TIP3    H229438   0.826   3.059   0.338
 2627TIP3   OH229439   0.515   6.316   0.529
 2627TIP3    H129440   0.569   6.379   0.576
 2627TIP3    H229441   0.576   6.269   0.472
 2628TIP3   OH229442   2.686   1.996   1.534
 2628TIP3    H129443   2.718   2.065   1.477
 2628TIP3    H229444   2.597   2.023   1.558
 2629TIP3   OH229445   1.139   4.856   7.937
 2629TIP3    H129446   1.230   4.832   7.954
 2629TIP3    H229447   1.096   4.774   7.914
 2630TIP3   OH229448   1.147   4.024   7.923
 2630TIP3    H129449   1.089   4.025   7.846
 2630TIP3    H229450   1.189   4.110   7.922
 2631TIP3   OH229451   5.313   0.432   8.522
 2631TIP3    H129452   5.346   0.448   8.434
 2631TIP3    H229453   5.220   0.450   8.517
 2632TIP3   OH229454   2.300   3.613   7.967
 2632TIP3    H129455   2.274   3.682   7.906
 2632TIP3    H229456   2.233   3.545   7.955
 2633TIP3   OH229457   6.083   0.157   1.478
 2633TIP3    H129458   6.081   0.072   1.521
 2633TIP3    H229459   6.175   0.182   1.479
 2634TIP3   OH229460   3.844   5.266   7.329
 2634TIP3    H129461   3.921   5.287   7.276
 2634TIP3    H229462   3.819   5.177   7.302
 2635TIP3   OH229463   5.070   1.642   8.789
 2635TIP3    H129464   5.029   1.711   8.738
 2635TIP3    H229465   5.102   1.686   0.007
 2636TIP3   OH229466   0.170   4.891   1.249
 2636TIP3    H129467   0.129   4.843   1.178
 2636TIP3    H229468   0.224   4.825   1.294
 2637TIP3   OH229469   0.458   1.677   1.853
 2637TIP3    H129470   0.493   1.765   1.860
 2637TIP3    H229471   0.373   1.681   1.898
 2638TIP3   OH229472   2.149   6.611   0.810
 2638TIP3    H129473   2.147   6.704   0.832
 2638TIP3    H229474   2.069   6.597   0.760
 2639TIP3   OH229475   2.621   5.921   7.639
 2639TIP3    H129476   2.643   6.003   7.594
 2639TIP3    H229477   2.623   5.943   7.732
 2640TIP3   OH229478   0.548   1.505   1.178
 2640TIP3    H129479   0.539   1.594   1.212
 2640TIP3    H229480   0.642   1.488   1.179
 2641TIP3   OH229481   5.558   1.502   1.319
 2641TIP3    H129482   5.491   1.505   1.251
 2641TIP3    H229483   5.638   1.529   1.275
 2642TIP3   OH229484   4.890   2.468   0.710
 2642TIP3    H129485   4.903   2.373   0.711
 2642TIP3    H229486   4.808   2.482   0.759
 2643TIP3   OH229487   1.265   3.638   7.856
 2643TIP3    H129488   1.178   3.622   7.820
 2643TIP3    H229489   1.305   3.551   7.862
 2644TIP3   OH229490   0.024   6.599   8.661
 2644TIP3    H129491   6.763   6.673   8.664
 2644TIP3    H229492   0.066   6.605   8.576
 2645TIP3   OH229493   4.622   2.119   0.841
 2645TIP3    H129494   4.680   2.139   0.767
 2645TIP3    H229495   4.583   2.203   0.864
 2646TIP3   OH229496   4.450   5.617   2.003
 2646TIP3    H129497   4.364   5.616   1.961
 2646TIP3    H229498   4.435   5.586   2.092
 2647TIP3   OH229499   4.794   4.867   0.486
 2647TIP3    H129500   4.766   4.788   0.441
 2647TIP3    H229501   4.873   4.841   0.532
 2648TIP3   OH229502   3.648   5.782   1.341
 2648TIP3    H129503   3.651   5.712   1.405
 2648TIP3    H229504   3.714   5.758   1.275
 2649TIP3   OH229505   4.860   4.022   7.417
 2649TIP3    H129506   4.841   4.075   7.495
 2649TIP3    H229507   4.776   3.980   7.397
 2650TIP3   OH229508   3.801   0.038   0.814
 2650TIP3    H129509   3.760   0.048   0.899
 2650TIP3    H229510   3.801   0.126   0.776
 2651TIP3   OH229511   4.360   1.543   1.772
 2651TIP3    H129512   4.341   1.449   1.777
 2651TIP3    H229513   4.284   1.585   1.811
 2652TIP3   OH229514   5.044   3.918   1.820
 2652TIP3    H129515   5.024   3.989   1.758
 2652TIP3    H229516   5.140   3.917   1.824
 2653TIP3   OH229517   1.065   6.166   1.707
 2653TIP3    H129518   0.989   6.223   1.691
 2653TIP3    H229519   1.033   6.101   1.769
 2654TIP3   OH229520   0.123   4.296   0.657
 2654TIP3    H129521   0.101   4.240   0.731
 2654TIP3    H229522   0.065   4.371   0.665
 2655TIP3   OH229523   2.115   6.766   2.296
 2655TIP3    H129524   2.127   0.057   2.324
 2655TIP3    H229525   2.158   6.715   2.365
 2656TIP3   OH229526   6.773   1.215   7.505
 2656TIP3    H129527   6.713   1.157   7.552
 2656TIP3    H229528   6.719   1.290   7.480
 2657TIP3   OH229529   1.021   5.316   0.816
 2657TIP3    H129530   1.098   5.281   0.861
 2657TIP3    H229531   0.969   5.238   0.795
 2658TIP3   OH229532   1.661   2.082   0.443
 2658TIP3    H129533   1.741   2.077   0.392
 2658TIP3    H229534   1.651   1.995   0.482
 2659TIP3   OH229535   5.070   6.592   0.284
 2659TIP3    H129536   5.010   6.659   0.317
 2659TIP3    H229537   5.062   6.596   0.189
 2660TIP3   OH229538   5.015   3.139   1.757
 2660TIP3    H129539   4.930   3.133   1.714
 2660TIP3    H229540   5.017   3.065   1.817
 2661TIP3   OH229541   3.000   0.273   6.854
 2661TIP3    H129542   2.934   0.266   6.785
 2661TIP3    H229543   3.075   0.314   6.810
 2662TIP3   OH229544   6.051   0.854   0.312
 2662TIP3    H129545   6.066   0.948   0.307
 2662TIP3    H229546   6.002   0.833   0.232
 2663TIP3   OH229547   6.028   1.695   0.130
 2663TIP3    H129548   5.966   1.650   0.187
 2663TIP3    H229549   6.002   1.670   0.041
 2664TIP3   OH229550   5.530   6.035   0.660
 2664TIP3    H129551   5.579   6.042   0.578
 2664TIP3    H229552   5.598   6.027   0.727
 2665TIP3   OH229553   2.540   3.209   2.090
 2665TIP3    H129554   2.589   3.201   2.172
 2665TIP3    H229555   2.607   3.221   2.023
 2666TIP3   OH229556   6.435   0.748   7.738
 2666TIP3    H129557   6.485   0.829   7.747
 2666TIP3    H229558   6.477   0.702   7.666
 2667TIP3   OH229559   6.166   0.886   1.515
 2667TIP3    H129560   6.243   0.882   1.459
 2667TIP3    H229561   6.198   0.860   1.602
 2668TIP3   OH229562   1.116   2.241   7.077
 2668TIP3    H129563   1.151   2.285   7.153
 2668TIP3    H229564   1.021   2.247   7.087
 2669TIP3   OH229565   5.348   1.184   2.056
 2669TIP3    H129566   5.319   1.261   2.007
 2669TIP3    H229567   5.359   1.116   1.990
 2670TIP3   OH229568   6.274   0.731   7.963
 2670TIP3    H129569   6.317   0.804   8.007
 2670TIP3    H229570   6.311   0.732   7.875
 2671TIP3   OH229571   1.058   2.094   0.722
 2671TIP3    H129572   0.993   2.027   0.744
 2671TIP3    H229573   1.137   2.046   0.700
 2672TIP3   OH229574   0.578   5.008   7.439
 2672TIP3    H129575   0.626   4.929   7.466
 2672TIP3    H229576   0.646   5.070   7.415
 2673TIP3   OH229577   6.501   5.891   1.498
 2673TIP3    H129578   6.554   5.930   1.568
 2673TIP3    H229579   6.463   5.966   1.452
 2674TIP3   OH229580   3.062   1.732   1.953
 2674TIP3    H129581   2.986   1.769   1.908
 2674TIP3    H229582   3.078   1.792   2.027
 2675TIP3   OH229583   3.508   0.025   0.143
 2675TIP3    H129584   3.515   6.781   0.059
 2675TIP3    H229585   3.598   0.049   0.166
 2676TIP3   OH229586   3.732   3.031   7.632
 2676TIP3    H129587   3.703   3.059   7.719
 2676TIP3    H229588   3.651   3.014   7.584
 2677TIP3   OH229589   3.987   3.118   0.020
 2677TIP3    H129590   4.009   3.095   0.111
 2677TIP3    H229591   4.022   3.207   0.009
 2678TIP3   OH229592   5.243   2.647   8.686
 2678TIP3    H129593   5.326   2.650   8.637
 2678TIP3    H229594   5.260   2.699   8.765
 2679TIP3   OH229595   2.460   0.299   2.356
 2679TIP3    H129596   2.455   0.390   2.328
 2679TIP3    H229597   2.397   0.253   2.301
 2680TIP3   OH229598   2.775   5.276   8.681
 2680TIP3    H129599   2.733   5.356   8.712
 2680TIP3    H229600   2.867   5.286   8.706
 2681TIP3   OH229601   3.622   0.115   7.910
 2681TIP3    H129602   3.570   0.158   7.843
 2681TIP3    H229603   3.683   0.059   7.861
 2682TIP3   OH229604   2.036   2.622   0.080
 2682TIP3    H129605   2.058   2.655   8.853
 2682TIP3    H229606   2.021   2.700   0.132
 2683TIP3   OH229607   4.552   5.191   8.433
 2683TIP3    H129608   4.573   5.236   8.351
 2683TIP3    H229609   4.460   5.212   8.450
 2684TIP3   OH229610   3.625   4.738   8.071
 2684TIP3    H129611   3.694   4.783   8.022
 2684TIP3    H229612   3.544   4.763   8.026
 2685TIP3   OH229613   6.420   1.363   1.001
 2685TIP3    H129614   6.468   1.441   0.973
 2685TIP3    H229615   6.338   1.397   1.035
 2686TIP3   OH229616   6.160   0.080   7.615
 2686TIP3    H129617   6.175   0.064   7.709
 2686TIP3    H229618   6.243   0.114   7.582
 2687TIP3   OH229619   4.427   4.386   6.706
 2687TIP3    H129620   4.361   4.391   6.775
 2687TIP3    H229621   4.410   4.303   6.662
 2688TIP3   OH229622   0.712   5.015   7.067
 2688TIP3    H129623   0.617   5.023   7.055
 2688TIP3    H229624   0.735   5.085   7.128
 2689TIP3   OH229625   6.327   0.832   0.647
 2689TIP3    H129626   6.399   0.894   0.635
 2689TIP3    H229627   6.289   0.857   0.731
 2690TIP3   OH229628   0.712   6.440   0.647
 2690TIP3    H129629   0.740   6.443   0.738
 2690TIP3    H229630   0.686   6.530   0.627
 2691TIP3   OH229631   4.453   2.401   0.342
 2691TIP3    H129632   4.418   2.490   0.342
 2691TIP3    H229633   4.382   2.347   0.307
 2692TIP3   OH229634   5.585   0.558   8.745
 2692TIP3    H129635   5.644   0.633   8.757
 2692TIP3    H229636   5.505   0.596   8.710
 2693TIP3   OH229637   1.681   1.592   7.142
 2693TIP3    H129638   1.641   1.642   7.212
 2693TIP3    H229639   1.742   1.653   7.099
 2694TIP3   OH229640   3.312   1.395   2.173
 2694TIP3    H129641   3.364   1.428   2.100
 2694TIP3    H229642   3.284   1.473   2.221
 2695TIP3   OH229643   3.639   5.108   0.972
 2695TIP3    H129644   3.570   5.154   0.922
 2695TIP3    H229645   3.621   5.131   1.063
 2696TIP3   OH229646   1.554   4.883   6.664
 2696TIP3    H129647   1.607   4.806   6.645
 2696TIP3    H229648   1.464   4.854   6.656
 2697TIP3   OH229649   3.996   5.460   7.213
 2697TIP3    H129650   3.978   5.410   7.133
 2697TIP3    H229651   3.919   5.516   7.224
 2698TIP3   OH229652   2.012   3.797   6.420
 2698TIP3    H129653   1.919   3.781   6.404
 2698TIP3    H229654   2.017   3.889   6.446
 2699TIP3   OH229655   5.013   5.039   7.470
 2699TIP3    H129656   5.004   4.971   7.537
 2699TIP3    H229657   4.953   5.013   7.401
 2700TIP3   OH229658   1.429   2.216   8.073
 2700TIP3    H129659   1.369   2.146   8.096
 2700TIP3    H229660   1.515   2.175   8.073
 2701TIP3   OH229661   6.368   5.937   2.073
 2701TIP3    H129662   6.315   5.862   2.100
 2701TIP3    H229663   6.365   5.997   2.147
 2702TIP3   OH229664   2.250   1.021   0.495
 2702TIP3    H129665   2.187   1.078   0.451
 2702TIP3    H229666   2.312   1.081   0.536
 2703TIP3   OH229667   3.347   1.573   1.169
 2703TIP3    H129668   3.342   1.580   1.074
 2703TIP3    H229669   3.407   1.643   1.195
 2704TIP3   OH229670   0.442   2.645   1.309
 2704TIP3    H129671   0.533   2.641   1.338
 2704TIP3    H229672   0.445   2.700   1.230
 2705TIP3   OH229673   1.359   0.857   7.168
 2705TIP3    H129674   1.435   0.888   7.217
 2705TIP3    H229675   1.314   0.936   7.140
 2706TIP3   OH229676   2.221   0.570   7.824
 2706TIP3    H129677   2.213   0.480   7.793
 2706TIP3    H229678   2.138   0.611   7.799
 2707TIP3   OH229679   6.232   5.953   8.319
 2707TIP3    H129680   6.152   5.910   8.351
 2707TIP3    H229681   6.238   5.927   8.227
 2708TIP3   OH229682   5.044   0.468   7.509
 2708TIP3    H129683   5.091   0.387   7.530
 2708TIP3    H229684   4.963   0.462   7.560
 2709TIP3   OH229685   3.425   1.749   7.216
 2709TIP3    H129686   3.400   1.819   7.156
 2709TIP3    H229687   3.402   1.784   7.303
 2710TIP3   OH229688   4.246   3.189   0.776
 2710TIP3    H129689   4.251   3.098   0.805
 2710TIP3    H229690   4.168   3.224   0.819
 2711TIP3   OH229691   3.246   3.240   1.190
 2711TIP3    H129692   3.232   3.302   1.261
 2711TIP3    H229693   3.246   3.154   1.231
 2712TIP3   OH229694   1.503   3.191   2.092
 2712TIP3    H129695   1.422   3.150   2.121
 2712TIP3    H229696   1.543   3.126   2.034
 2713TIP3   OH229697   0.165   0.239   0.382
 2713TIP3    H129698   0.146   0.255   0.290
 2713TIP3    H229699   0.196   0.323   0.416
 2714TIP3   OH229700   3.510   6.249   8.557
 2714TIP3    H129701   3.554   6.205   8.630
 2714TIP3    H229702   3.579   6.301   8.515
 2715TIP3   OH229703   3.235   3.174   0.353
 2715TIP3    H129704   3.170   3.109   0.324
 2715TIP3    H229705   3.313   3.154   0.302
 2716TIP3   OH229706   6.673   5.804   2.196
 2716TIP3    H129707   6.601   5.839   2.248
 2716TIP3    H229708   6.650   5.712   2.182
 2717TIP3   OH229709   6.742   2.163   8.740
 2717TIP3    H129710   6.779   2.251   8.728
 2717TIP3    H229711   0.010   2.115   8.786
 2718TIP3   OH229712   2.666   1.049   0.223
 2718TIP3    H129713   2.674   1.068   0.316
 2718TIP3    H229714   2.632   0.960   0.219
 2719TIP3   OH229715   6.496   6.778   7.467
 2719TIP3    H129716   6.582   6.797   7.429
 2719TIP3    H229717   6.516   6.734   7.550
 2720TIP3   OH229718   5.015   1.023   7.785
 2720TIP3    H129719   5.047   0.960   7.721
 2720TIP3    H229720   4.933   1.056   7.747
 2721TIP3   OH229721   3.918   5.540   8.233
 2721TIP3    H129722   3.899   5.632   8.211
 2721TIP3    H229723   3.961   5.505   8.154
 2722TIP3   OH229724   4.826   6.013   0.482
 2722TIP3    H129725   4.799   5.925   0.506
 2722TIP3    H229726   4.767   6.038   0.411
 2723TIP3   OH229727   2.082   4.979   1.743
 2723TIP3    H129728   2.078   4.890   1.709
 2723TIP3    H229729   2.175   4.999   1.750
 2724TIP3   OH229730   4.176   0.841   1.260
 2724TIP3    H129731   4.190   0.749   1.238
 2724TIP3    H229732   4.097   0.841   1.313
 2725TIP3   OH229733   3.927   1.303   1.947
 2725TIP3    H129734   3.934   1.232   2.011
 2725TIP3    H229735   3.942   1.383   1.998
 2726TIP3   OH229736   4.773   3.879   1.206
 2726TIP3    H129737   4.762   3.971   1.230
 2726TIP3    H229738   4.774   3.832   1.289
 2727TIP3   OH229739   0.290   3.008   7.666
 2727TIP3    H129740   0.277   3.044   7.754
 2727TIP3    H229741   0.368   2.953   7.674
 2728TIP3   OH229742   3.734   3.069   8.662
 2728TIP3    H129743   3.724   3.127   8.737
 2728TIP3    H229744   3.729   2.981   8.700
 2729TIP3   OH229745   3.494   1.468   7.211
 2729TIP3    H129746   3.454   1.550   7.183
 2729TIP3    H229747   3.574   1.461   7.158
 2730TIP3   OH229748   0.691   0.389   6.341
 2730TIP3    H129749   0.633   0.458   6.307
 2730TIP3    H229750   0.775   0.405   6.299
 2731TIP3   OH229751   2.318   0.501   0.627
 2731TIP3    H129752   2.269   0.584   0.631
 2731TIP3    H229753   2.308   0.463   0.714
 2732TIP3   OH229754   2.717   3.253   1.860
 2732TIP3    H129755   2.746   3.285   1.775
 2732TIP3    H229756   2.713   3.158   1.850
 2733TIP3   OH229757   1.706   6.794   1.257
 2733TIP3    H129758   1.753   0.068   1.221
 2733TIP3    H229759   1.640   6.773   1.191
 2734TIP3   OH229760   3.250   5.064   8.328
 2734TIP3    H129761   3.315   4.994   8.339
 2734TIP3    H229762   3.222   5.056   8.237
 2735TIP3   OH229763   2.791   1.459   6.386
 2735TIP3    H129764   2.714   1.499   6.345
 2735TIP3    H229765   2.865   1.505   6.348
 2736TIP3   OH229766   5.774   4.454   0.585
 2736TIP3    H129767   5.687   4.486   0.611
 2736TIP3    H229768   5.785   4.372   0.635
 2737TIP3   OH229769   3.951   0.562   2.470
 2737TIP3    H129770   3.921   0.489   2.417
 2737TIP3    H229771   3.986   0.522   2.549
 2738TIP3   OH229772   3.528   4.599   8.537
 2738TIP3    H129773   3.613   4.614   8.579
 2738TIP3    H229774   3.494   4.521   8.582
 2739TIP3   OH229775   2.723   2.126   7.413
 2739TIP3    H129776   2.686   2.214   7.419
 2739TIP3    H229777   2.773   2.115   7.494
 2740TIP3   OH229778   1.434   0.446   8.423
 2740TIP3    H129779   1.517   0.427   8.467
 2740TIP3    H229780   1.456   0.512   8.357
 2741TIP3   OH229781   4.947   4.502   8.664
 2741TIP3    H129782   4.952   4.409   8.643
 2741TIP3    H229783   4.879   4.536   8.607
 2742TIP3   OH229784   6.430   2.494   8.766
 2742TIP3    H129785   6.457   2.485   8.675
 2742TIP3    H229786   6.420   2.588   8.779
 2743TIP3   OH229787   1.024   3.800   7.658
 2743TIP3    H129788   0.971   3.840   7.589
 2743TIP3    H229789   0.980   3.823   7.740
 2744TIP3   OH229790   5.715   6.411   8.274
 2744TIP3    H129791   5.695   6.504   8.282
 2744TIP3    H229792   5.705   6.376   8.363
 2745TIP3   OH229793   4.045   5.626   0.752
 2745TIP3    H129794   4.095   5.572   0.691
 2745TIP3    H229795   3.954   5.601   0.736
 2746TIP3   OH229796   1.629   6.709   1.526
 2746TIP3    H129797   1.658   6.758   1.449
 2746TIP3    H229798   1.628   6.774   1.596
 2747TIP3   OH229799   2.020   0.515   8.331
 2747TIP3    H129800   1.940   0.469   8.355
 2747TIP3    H229801   2.025   0.509   8.236
 2748TIP3   OH229802   6.717   6.179   8.727
 2748TIP3    H129803   0.001   6.168   8.682
 2748TIP3    H229804   6.656   6.126   8.675
 2749TIP3   OH229805   0.749   3.065   1.947
 2749TIP3    H129806   0.758   3.061   1.852
 2749TIP3    H229807   0.677   3.005   1.966
 2750TIP3   OH229808   3.371   0.997   8.772
 2750TIP3    H129809   3.433   1.039   8.831
 2750TIP3    H229810   3.338   0.922   8.821
 2751TIP3   OH229811   5.558   5.068   0.893
 2751TIP3    H129812   5.613   5.049   0.817
 2751TIP3    H229813   5.592   5.150   0.928
 2752TIP3   OH229814   3.986   4.554   7.488
 2752TIP3    H129815   3.992   4.552   7.393
 2752TIP3    H229816   3.933   4.477   7.510
 2753TIP3   OH229817   3.328   1.530   0.891
 2753TIP3    H129818   3.319   1.435   0.890
 2753TIP3    H229819   3.418   1.547   0.865
 2754TIP3   OH229820   3.119   6.614   7.697
 2754TIP3    H129821   3.079   6.561   7.766
 2754TIP3    H229822   3.118   6.558   7.620
 2755TIP3   OH229823   1.800   5.597   1.771
 2755TIP3    H129824   1.744   5.621   1.845
 2755TIP3    H229825   1.754   5.524   1.729
 2756TIP3   OH229826   0.387   5.403   2.748
 2756TIP3    H129827   0.458   5.344   2.775
 2756TIP3    H229828   0.425   5.491   2.758
 2757TIP3   OH229829   4.424   4.790   1.954
 2757TIP3    H129830   4.369   4.820   2.027
 2757TIP3    H229831   4.479   4.866   1.934
 2758TIP3   OH229832   4.412   6.194   0.224
 2758TIP3    H129833   4.327   6.150   0.228
 2758TIP3    H229834   4.426   6.227   0.313
 2759TIP3   OH229835   6.536   3.141   8.433
 2759TIP3    H129836   6.461   3.198   8.414
 2759TIP3    H229837   6.519   3.062   8.383
 2760TIP3   OH229838   0.726   1.332   5.962
 2760TIP3    H129839   0.691   1.243   5.959
 2760TIP3    H229840   0.749   1.346   6.054
 2761TIP3   OH229841   0.438   3.125   2.458
 2761TIP3    H129842   0.357   3.111   2.409
 2761TIP3    H229843   0.434   3.060   2.528
 2762TIP3   OH229844   4.849   1.112   1.252
 2762TIP3    H129845   4.788   1.120   1.326
 2762TIP3    H229846   4.793   1.122   1.174
 2763TIP3   OH229847   4.389   4.155   6.567
 2763TIP3    H129848   4.476   4.119   6.584
 2763TIP3    H229849   4.329   4.100   6.617
 2764TIP3   OH229850   2.327   4.063   0.460
 2764TIP3    H129851   2.366   4.117   0.392
 2764TIP3    H229852   2.368   4.095   0.541
 2765TIP3   OH229853   6.175   5.799   0.333
 2765TIP3    H129854   6.171   5.743   0.411
 2765TIP3    H229855   6.209   5.882   0.365
 2766TIP3   OH229856   6.423   0.522   7.306
 2766TIP3    H129857   6.334   0.492   7.327
 2766TIP3    H229858   6.445   0.478   7.224
 2767TIP3   OH229859   0.592   2.470   6.686
 2767TIP3    H129860   0.678   2.435   6.665
 2767TIP3    H229861   0.552   2.404   6.742
 2768TIP3   OH229862   6.378   5.088   1.771
 2768TIP3    H129863   6.350   5.122   1.686
 2768TIP3    H229864   6.468   5.057   1.756
 2769TIP3   OH229865   0.882   1.505   7.266
 2769TIP3    H129866   0.915   1.423   7.302
 2769TIP3    H229867   0.788   1.504   7.287
 2770TIP3   OH229868   4.861   1.862   8.836
 2770TIP3    H129869   4.773   1.874   8.801
 2770TIP3    H229870   4.917   1.856   8.758
 2771TIP3   OH229871   1.743   3.485   0.995
 2771TIP3    H129872   1.831   3.498   0.959
 2771TIP3    H229873   1.704   3.418   0.938
 2772TIP3   OH229874   5.116   5.954   1.444
 2772TIP3    H129875   5.133   5.893   1.516
 2772TIP3    H229876   5.127   6.041   1.483
 2773TIP3   OH229877   1.910   1.615   7.398
 2773TIP3    H129878   1.822   1.591   7.426
 2773TIP3    H229879   1.948   1.534   7.365
 2774TIP3   OH229880   0.716   2.301   6.024
 2774TIP3    H129881   0.701   2.392   6.049
 2774TIP3    H229882   0.709   2.252   6.105
 2775TIP3   OH229883   1.736   5.969   2.014
 2775TIP3    H129884   1.648   5.955   2.048
 2775TIP3    H229885   1.761   6.055   2.047
 2776TIP3   OH229886   0.473   0.949   8.429
 2776TIP3    H129887   0.414   0.990   8.493
 2776TIP3    H229888   0.422   0.946   8.349
 2777TIP3   OH229889   3.462   0.523   7.828
 2777TIP3    H129890   3.486   0.454   7.766
 2777TIP3    H229891   3.444   0.600   7.773
 2778TIP3   OH229892   5.141   6.655   1.855
 2778TIP3    H129893   5.075   6.673   1.788
 2778TIP3    H229894   5.190   6.737   1.864
 2779TIP3   OH229895   1.279   1.956   0.625
 2779TIP3    H129896   1.286   1.862   0.641
 2779TIP3    H229897   1.342   1.974   0.556
 2780TIP3   OH229898   0.962   4.287   0.597
 2780TIP3    H129899   0.887   4.245   0.554
 2780TIP3    H229900   0.954   4.262   0.689
 2781TIP3   OH229901   6.277   4.386   1.277
 2781TIP3    H129902   6.359   4.364   1.321
 2781TIP3    H229903   6.211   4.331   1.321
 2782TIP3   OH229904   3.601   3.891   6.982
 2782TIP3    H129905   3.526   3.835   6.959
 2782TIP3    H229906   3.574   3.979   6.956
 2783TIP3   OH229907   5.616   1.847   1.228
 2783TIP3    H129908   5.639   1.792   1.302
 2783TIP3    H229909   5.637   1.936   1.257
 2784TIP3   OH229910   1.273   0.268   6.929
 2784TIP3    H129911   1.218   0.314   6.992
 2784TIP3    H229912   1.300   0.336   6.867
 2785TIP3   OH229913   3.335   0.955   2.305
 2785TIP3    H129914   3.330   0.901   2.226
 2785TIP3    H229915   3.425   0.988   2.307
 2786TIP3   OH229916   1.948   6.224   7.511
 2786TIP3    H129917   1.898   6.192   7.586
 2786TIP3    H229918   1.965   6.146   7.458
 2787TIP3   OH229919   0.412   1.411   7.967
 2787TIP3    H129920   0.335   1.461   7.938
 2787TIP3    H229921   0.474   1.419   7.894
 2788TIP3   OH229922   1.392   6.152   8.184
 2788TIP3    H129923   1.399   6.166   8.090
 2788TIP3    H229924   1.461   6.207   8.222
 2789TIP3   OH229925   2.292   0.143   0.713
 2789TIP3    H129926   2.237   0.084   0.766
 2789TIP3    H229927   2.314   0.214   0.773
 2790TIP3   OH229928   1.114   4.133   1.727
 2790TIP3    H129929   1.180   4.203   1.727
 2790TIP3    H229930   1.163   4.054   1.751
 2791TIP3   OH229931   3.105   0.041   8.550
 2791TIP3    H129932   3.031   0.023   8.492
 2791TIP3    H229933   3.162   0.098   8.499
 2792TIP3   OH229934   1.264   4.454   8.397
 2792TIP3    H129935   1.346   4.429   8.438
 2792TIP3    H229936   1.287   4.528   8.340
 2793TIP3   OH229937   3.033   6.638   1.261
 2793TIP3    H129938   3.106   6.628   1.201
 2793TIP3    H229939   2.959   6.598   1.215
 2794TIP3   OH229940   1.956   1.646   0.750
 2794TIP3    H129941   1.952   1.626   0.657
 2794TIP3    H229942   1.955   1.742   0.754
 2795TIP3   OH229943   4.704   6.274   7.509
 2795TIP3    H129944   4.791   6.302   7.537
 2795TIP3    H229945   4.648   6.349   7.526
 2796TIP3   OH229946   1.564   5.648   1.158
 2796TIP3    H129947   1.532   5.730   1.196
 2796TIP3    H229948   1.588   5.670   1.069
 2797TIP3   OH229949   0.549   4.251   2.730
 2797TIP3    H129950   0.631   4.286   2.698
 2797TIP3    H229951   0.508   4.323   2.778
 2798TIP3   OH229952   4.108   6.052   1.747
 2798TIP3    H129953   4.193   6.095   1.751
 2798TIP3    H229954   4.054   6.111   1.695
 2799TIP3   OH229955   2.637   3.736   6.820
 2799TIP3    H129956   2.681   3.714   6.903
 2799TIP3    H229957   2.552   3.694   6.826
 2800TIP3   OH229958   3.354   5.418   0.765
 2800TIP3    H129959   3.440   5.435   0.805
 2800TIP3    H229960   3.350   5.476   0.690
 2801TIP3   OH229961   2.547   0.726   6.756
 2801TIP3    H129962   2.499   0.703   6.835
 2801TIP3    H229963   2.638   0.702   6.775
 2802TIP3   OH229964   0.318   3.637   2.157
 2802TIP3    H129965   0.282   3.582   2.227
 2802TIP3    H229966   0.400   3.671   2.194
 2803TIP3   OH229967   1.037   5.440   7.875
 2803TIP3    H129968   1.039   5.409   7.965
 2803TIP3    H229969   1.129   5.440   7.847
 2804TIP3   OH229970   0.150   0.525   8.506
 2804TIP3    H129971   0.244   0.543   8.513
 2804TIP3    H229972   0.110   0.611   8.496
 2805TIP3   OH229973   0.270   4.594   0.920
 2805TIP3    H129974   0.248   4.635   1.003
 2805TIP3    H229975   0.294   4.504   0.942
 2806TIP3   OH229976   4.549   3.748   7.843
 2806TIP3    H129977   4.537   3.842   7.855
 2806TIP3    H229978   4.607   3.741   7.767
 2807TIP3   OH229979   0.003   6.407   1.298
 2807TIP3    H129980   0.057   6.349   1.245
 2807TIP3    H229981   0.057   6.425   1.376
 2808TIP3   OH229982   1.740   2.652   1.426
 2808TIP3    H129983   1.818   2.648   1.372
 2808TIP3    H229984   1.770   2.632   1.515
 2809TIP3   OH229985   3.082   4.297   0.108
 2809TIP3    H129986   3.073   4.213   0.151
 2809TIP3    H229987   3.050   4.361   0.173
 2810TIP3   OH229988   2.418   5.576   8.207
 2810TIP3    H129989   2.425   5.643   8.139
 2810TIP3    H229990   2.507   5.541   8.215
 2811TIP3   OH229991   1.432   2.083   0.808
 2811TIP3    H129992   1.375   2.141   0.857
 2811TIP3    H229993   1.374   2.019   0.769
 2812TIP3   OH229994   2.748   2.492   8.487
 2812TIP3    H129995   2.769   2.435   8.560
 2812TIP3    H229996   2.681   2.444   8.438
 2813TIP3   OH229997   4.171   1.748   1.972
 2813TIP3    H129998   4.188   1.791   2.056
 2813TIP3    H229999   4.231   1.791   1.911
 2814TIP3   OH230000   0.513   4.391   8.821
 2814TIP3    H130001   0.528   4.308   0.007
 2814TIP3    H230002   0.529   4.370   8.729
 2815TIP3   OH230003   3.018   1.510   2.119
 2815TIP3    H130004   2.998   1.436   2.061
 2815TIP3    H230005   3.021   1.586   2.062
 2816TIP3   OH230006   4.691   5.972   7.184
 2816TIP3    H130007   4.725   6.060   7.203
 2816TIP3    H230008   4.630   5.984   7.112
 2817TIP3   OH230009   0.638   4.567   1.413
 2817TIP3    H130010   0.601   4.585   1.327
 2817TIP3    H230011   0.718   4.619   1.416
 2818TIP3   OH230012   5.557   0.726   7.504
 2818TIP3    H130013   5.605   0.714   7.422
 2818TIP3    H230014   5.597   0.664   7.565
 2819TIP3   OH230015   0.474   4.124   8.247
 2819TIP3    H130016   0.482   4.064   8.173
 2819TIP3    H230017   0.393   4.098   8.291
 2820TIP3   OH230018   2.363   2.321   0.976
 2820TIP3    H130019   2.367   2.320   0.880
 2820TIP3    H230020   2.276   2.286   0.996
 2821TIP3   OH230021   2.037   4.986   7.577
 2821TIP3    H130022   2.076   4.900   7.594
 2821TIP3    H230023   1.960   4.967   7.523
 2822TIP3   OH230024   3.245   4.324   8.102
 2822TIP3    H130025   3.156   4.288   8.101
 2822TIP3    H230026   3.301   4.249   8.123
 2823TIP3   OH230027   0.980   3.546   7.841
 2823TIP3    H130028   0.929   3.483   7.893
 2823TIP3    H230029   0.954   3.529   7.751
 2824TIP3   OH230030   2.770   3.539   7.641
 2824TIP3    H130031   2.825   3.494   7.705
 2824TIP3    H230032   2.695   3.482   7.628
 2825TIP3   OH230033   1.745   1.331   8.038
 2825TIP3    H130034   1.740   1.239   8.066
 2825TIP3    H230035   1.837   1.344   8.015
 2826TIP3   OH230036   0.266   6.656   0.784
 2826TIP3    H130037   0.344   6.618   0.824
 2826TIP3    H230038   0.300   6.721   0.722
 2827TIP3   OH230039   1.643   3.999   1.818
 2827TIP3    H130040   1.644   3.990   1.914
 2827TIP3    H230041   1.736   4.003   1.794
 2828TIP3   OH230042   0.598   6.302   8.042
 2828TIP3    H130043   0.565   6.363   7.976
 2828TIP3    H230044   0.610   6.356   8.120
 2829TIP3   OH230045   5.852   5.320   0.196
 2829TIP3    H130046   5.835   5.240   0.147
 2829TIP3    H230047   5.765   5.357   0.213
 2830TIP3   OH230048   4.310   6.712   0.799
 2830TIP3    H130049   4.292   6.778   0.733
 2830TIP3    H230050   4.226   6.670   0.815
 2831TIP3   OH230051   3.895   3.952   6.331
 2831TIP3    H130052   3.945   3.880   6.368
 2831TIP3    H230053   3.895   4.019   6.400
 2832TIP3   OH230054   3.063   3.713   0.402
 2832TIP3    H130055   2.995   3.759   0.352
 2832TIP3    H230056   3.016   3.648   0.454
 2833TIP3   OH230057   2.701   5.860   2.097
 2833TIP3    H130058   2.716   5.953   2.077
 2833TIP3    H230059   2.607   5.848   2.083
 2834TIP3   OH230060   5.370   1.913   8.751
 2834TIP3    H130061   5.460   1.923   8.719
 2834TIP3    H230062   5.330   1.849   8.692
 2835TIP3   OH230063   2.881   2.490   7.893
 2835TIP3    H130064   2.788   2.482   7.871
 2835TIP3    H230065   2.892   2.435   7.971
 2836TIP3   OH230066   0.202   6.725   7.194
 2836TIP3    H130067   0.162   6.785   7.131
 2836TIP3    H230068   0.296   6.736   7.181
 2837TIP3   OH230069   1.247   6.495   1.600
 2837TIP3    H130070   1.191   6.503   1.677
 2837TIP3    H230071   1.311   6.428   1.624
 2838TIP3   OH230072   3.122   2.802   7.266
 2838TIP3    H130073   3.049   2.862   7.254
 2838TIP3    H230074   3.186   2.827   7.200
 2839TIP3   OH230075   0.651   2.198   6.268
 2839TIP3    H130076   0.654   2.278   6.320
 2839TIP3    H230077   0.663   2.127   6.331
 2840TIP3   OH230078   3.418   3.061   1.536
 2840TIP3    H130079   3.431   3.019   1.451
 2840TIP3    H230080   3.498   3.111   1.551
 2841TIP3   OH230081   5.905   3.130   7.126
 2841TIP3    H130082   5.928   3.222   7.143
 2841TIP3    H230083   5.814   3.123   7.155
 2842TIP3   OH230084   3.698   1.884   7.971
 2842TIP3    H130085   3.762   1.945   7.934
 2842TIP3    H230086   3.739   1.798   7.963
 2843TIP3   OH230087   3.370   5.805   7.474
 2843TIP3    H130088   3.421   5.734   7.513
 2843TIP3    H230089   3.341   5.770   7.390
 2844TIP3   OH230090   4.018   0.903   8.128
 2844TIP3    H130091   3.956   0.870   8.193
 2844TIP3    H230092   4.082   0.833   8.117
 2845TIP3   OH230093   0.886   2.479   0.955
 2845TIP3    H130094   0.853   2.565   0.928
 2845TIP3    H230095   0.972   2.473   0.913
 2846TIP3   OH230096   1.124   2.004   8.769
 2846TIP3    H130097   1.180   1.955   8.708
 2846TIP3    H230098   1.047   2.027   8.718
 2847TIP3   OH230099   5.069   1.963   7.781
 2847TIP3    H130100   4.990   1.911   7.766
 2847TIP3    H230101   5.110   1.924   7.857
 2848TIP3   OH230102   6.625   4.891   8.282
 2848TIP3    H130103   6.530   4.878   8.285
 2848TIP3    H230104   6.645   4.939   8.362
 2849TIP3   OH230105   6.167   2.265   0.469
 2849TIP3    H130106   6.222   2.229   0.400
 2849TIP3    H230107   6.227   2.275   0.544
 2850TIP3   OH230108   6.235   4.171   8.692
 2850TIP3    H130109   6.175   4.104   8.724
 2850TIP3    H230110   6.191   4.208   8.615
 2851TIP3   OH230111   0.298   5.904   0.961
 2851TIP3    H130112   0.219   5.862   0.994
 2851TIP3    H230113   0.267   5.963   0.892
 2852TIP3   OH230114   5.511   2.687   7.831
 2852TIP3    H130115   5.482   2.752   7.767
 2852TIP3    H230116   5.497   2.729   7.916
 2853TIP3   OH230117   5.234   2.456   0.986
 2853TIP3    H130118   5.165   2.393   0.964
 2853TIP3    H230119   5.314   2.418   0.949
 2854TIP3   OH230120   5.814   1.126   2.182
 2854TIP3    H130121   5.827   1.136   2.277
 2854TIP3    H230122   5.731   1.169   2.164
 2855TIP3   OH230123   6.075   6.398   1.004
 2855TIP3    H130124   6.129   6.328   0.967
 2855TIP3    H230125   6.063   6.373   1.096
 2856TIP3   OH230126   1.673   3.052   5.783
 2856TIP3    H130127   1.604   3.017   5.838
 2856TIP3    H230128   1.693   3.138   5.820
 2857TIP3   OH230129   2.960   2.896   1.629
 2857TIP3    H130130   3.023   2.855   1.571
 2857TIP3    H230131   2.913   2.822   1.669
 2858TIP3   OH230132   3.304   5.057   2.111
 2858TIP3    H130133   3.368   5.080   2.179
 2858TIP3    H230134   3.356   5.047   2.031
 2859TIP3   OH230135   0.883   5.725   6.891
 2859TIP3    H130136   0.861   5.635   6.867
 2859TIP3    H230137   0.965   5.743   6.844
 2860TIP3   OH230138   6.761   3.268   1.173
 2860TIP3    H130139   0.039   3.262   1.119
 2860TIP3    H230140   6.745   3.178   1.202
 2861TIP3   OH230141   2.863   1.384   1.023
 2861TIP3    H130142   2.936   1.322   1.027
 2861TIP3    H230143   2.900   1.461   0.979
 2862TIP3   OH230144   3.028   4.756   8.146
 2862TIP3    H130145   3.107   4.703   8.140
 2862TIP3    H230146   2.956   4.693   8.143
 2863TIP3   OH230147   6.032   2.845   8.429
 2863TIP3    H130148   6.053   2.804   8.513
 2863TIP3    H230149   5.980   2.922   8.453
 2864TIP3   OH230150   3.455   3.942   6.501
 2864TIP3    H130151   3.468   4.023   6.550
 2864TIP3    H230152   3.466   3.966   6.409
 2865TIP3   OH230153   0.129   4.445   7.303
 2865TIP3    H130154   0.209   4.476   7.345
 2865TIP3    H230155   0.127   4.491   7.219
 2866TIP3   OH230156   5.063   1.337   1.140
 2866TIP3    H130157   5.072   1.287   1.058
 2866TIP3    H230158   4.978   1.379   1.132
 2867TIP3   OH230159   1.645   6.622   7.821
 2867TIP3    H130160   1.707   6.617   7.748
 2867TIP3    H230161   1.698   6.652   7.895
 2868TIP3   OH230162   0.207   4.330   0.390
 2868TIP3    H130163   0.268   4.257   0.381
 2868TIP3    H230164   0.200   4.343   0.484
 2869TIP3   OH230165   2.396   2.223   0.701
 2869TIP3    H130166   2.308   2.244   0.671
 2869TIP3    H230167   2.446   2.210   0.620
 2870TIP3   OH230168   0.175   6.417   1.516
 2870TIP3    H130169   0.165   6.446   1.606
 2870TIP3    H230170   0.202   6.325   1.523
 2871TIP3   OH230171   2.280   1.090   6.773
 2871TIP3    H130172   2.369   1.118   6.797
 2871TIP3    H230173   2.224   1.162   6.802
 2872TIP3   OH230174   1.391   3.903   7.056
 2872TIP3    H130175   1.360   3.850   6.983
 2872TIP3    H230176   1.401   3.991   7.019
 2873TIP3   OH230177   1.995   2.780   1.114
 2873TIP3    H130178   2.013   2.727   1.191
 2873TIP3    H230179   2.000   2.870   1.145
 2874TIP3   OH230180   1.088   5.818   6.731
 2874TIP3    H130181   1.096   5.758   6.657
 2874TIP3    H230182   1.085   5.905   6.691
 2875TIP3   OH230183   5.696   2.867   7.072
 2875TIP3    H130184   5.757   2.912   7.013
 2875TIP3    H230185   5.683   2.781   7.031
 2876TIP3   OH230186   1.541   2.304   8.615
 2876TIP3    H130187   1.460   2.276   8.655
 2876TIP3    H230188   1.514   2.363   8.544
 2877TIP3   OH230189   5.263   5.991   1.894
 2877TIP3    H130190   5.330   6.019   1.832
 2877TIP3    H230191   5.271   6.050   1.968
 2878TIP3   OH230192   1.384   5.295   1.986
 2878TIP3    H130193   1.304   5.281   1.936
 2878TIP3    H230194   1.440   5.347   1.929
 2879TIP3   OH230195   2.700   1.065   1.184
 2879TIP3    H130196   2.711   1.154   1.218
 2879TIP3    H230197   2.754   1.063   1.105
 2880TIP3   OH230198   1.303   6.053   8.521
 2880TIP3    H130199   1.231   6.067   8.459
 2880TIP3    H230200   1.261   6.021   8.600
 2881TIP3   OH230201   4.299   5.276   6.609
 2881TIP3    H130202   4.250   5.202   6.647
 2881TIP3    H230203   4.352   5.236   6.540
 2882TIP3   OH230204   2.470   3.051   8.249
 2882TIP3    H130205   2.541   3.009   8.296
 2882TIP3    H230206   2.413   3.087   8.317
 2883TIP3   OH230207   0.923   6.794   0.899
 2883TIP3    H130208   0.996   6.769   0.956
 2883TIP3    H230209   0.855   0.024   0.959
 2884TIP3   OH230210   1.761   4.185   7.697
 2884TIP3    H130211   1.723   4.155   7.614
 2884TIP3    H230212   1.690   4.178   7.760
 2885TIP3   OH230213   4.098   1.935   6.736
 2885TIP3    H130214   4.017   1.919   6.784
 2885TIP3    H230215   4.102   1.864   6.671
 2886TIP3   OH230216   6.469   2.392   7.772
 2886TIP3    H130217   6.391   2.341   7.754
 2886TIP3    H230218   6.542   2.336   7.744
 2887TIP3   OH230219   4.648   3.185   0.628
 2887TIP3    H130220   4.643   3.115   0.693
 2887TIP3    H230221   4.572   3.240   0.647
 2888TIP3   OH230222   0.850   6.023   8.545
 2888TIP3    H130223   0.795   6.042   8.469
 2888TIP3    H230224   0.803   5.955   8.593
 2889TIP3   OH230225   3.859   3.641   1.088
 2889TIP3    H130226   3.925   3.709   1.101
 2889TIP3    H230227   3.824   3.625   1.175
 2890TIP3   OH230228   3.543   1.675   7.819
 2890TIP3    H130229   3.494   1.608   7.771
 2890TIP3    H230230   3.626   1.633   7.840
 2891TIP3   OH230231   3.124   3.298   6.607
 2891TIP3    H130232   3.060   3.322   6.674
 2891TIP3    H230233   3.203   3.276   6.656
 2892TIP3   OH230234   3.069   1.893   8.345
 2892TIP3    H130235   3.046   1.867   8.255
 2892TIP3    H230236   3.161   1.921   8.339
 2893TIP3   OH230237   1.883   2.794   6.806
 2893TIP3    H130238   1.945   2.845   6.753
 2893TIP3    H230239   1.939   2.743   6.864
 2894TIP3   OH230240   1.289   2.545   8.007
 2894TIP3    H130241   1.375   2.525   8.043
 2894TIP3    H230242   1.289   2.504   7.921
 2895TIP3   OH230243   5.709   2.560   7.274
 2895TIP3    H130244   5.742   2.503   7.205
 2895TIP3    H230245   5.761   2.640   7.267
 2896TIP3   OH230246   6.145   1.450   1.050
 2896TIP3    H130247   6.130   1.367   1.004
 2896TIP3    H230248   6.079   1.509   1.015
 2897TIP3   OH230249   4.868   4.236   0.035
 2897TIP3    H130250   4.780   4.206   0.016
 2897TIP3    H230251   4.917   4.220   8.815
 2898TIP3   OH230252   2.092   5.238   1.384
 2898TIP3    H130253   2.090   5.144   1.367
 2898TIP3    H230254   2.121   5.278   1.302
 2899TIP3   OH230255   5.341   0.933   8.750
 2899TIP3    H130256   5.258   0.944   8.704
 2899TIP3    H230257   5.379   0.854   8.712
 2900TIP3   OH230258   5.582   2.556   8.685
 2900TIP3    H130259   5.533   2.548   8.603
 2900TIP3    H230260   5.644   2.628   8.669
 2901TIP3   OH230261   5.415   0.181   1.093
 2901TIP3    H130262   5.353   0.109   1.108
 2901TIP3    H230263   5.443   0.207   1.181
 2902TIP3   OH230264   6.431   5.783   8.679
 2902TIP3    H130265   6.477   5.856   8.720
 2902TIP3    H230266   6.341   5.815   8.668
 2903TIP3   OH230267   2.488   0.871   0.392
 2903TIP3    H130268   2.535   0.894   0.472
 2903TIP3    H230269   2.396   0.886   0.413
 2904TIP3   OH230270   4.803   1.392   0.247
 2904TIP3    H130271   4.842   1.464   0.297
 2904TIP3    H230272   4.816   1.417   0.156
 2905TIP3   OH230273   1.612   0.214   1.432
 2905TIP3    H130274   1.576   0.195   1.345
 2905TIP3    H230275   1.545   0.269   1.473
 2906TIP3   OH230276   2.592   4.777   8.376
 2906TIP3    H130277   2.650   4.734   8.439
 2906TIP3    H230278   2.640   4.855   8.348
 2907TIP3   OH230279   2.365   0.761   8.622
 2907TIP3    H130280   2.372   0.834   8.560
 2907TIP3    H230281   2.354   0.684   8.567
 2908TIP3   OH230282   4.325   1.854   1.753
 2908TIP3    H130283   4.365   1.937   1.727
 2908TIP3    H230284   4.255   1.840   1.690
 2909TIP3   OH230285   6.330   2.292   0.677
 2909TIP3    H130286   6.386   2.357   0.635
 2909TIP3    H230287   6.368   2.208   0.652
 2910TIP3   OH230288   4.240   5.791   8.674
 2910TIP3    H130289   4.311   5.752   8.622
 2910TIP3    H230290   4.191   5.716   8.708
 2911TIP3   OH230291   1.453   1.470   8.716
 2911TIP3    H130292   1.524   1.416   8.752
 2911TIP3    H230293   1.375   1.440   8.762
 2912TIP3   OH230294   3.599   4.709   6.898
 2912TIP3    H130295   3.547   4.634   6.926
 2912TIP3    H230296   3.685   4.673   6.877
 2913TIP3   OH230297   3.940   0.623   8.766
 2913TIP3    H130298   3.989   0.605   8.847
 2913TIP3    H230299   3.915   0.536   8.734
 2914TIP3   OH230300   5.068   6.549   6.789
 2914TIP3    H130301   5.045   6.480   6.727
 2914TIP3    H230302   5.002   6.542   6.858
 2915TIP3   OH230303   3.913   4.255   7.862
 2915TIP3    H130304   3.906   4.340   7.906
 2915TIP3    H230305   3.830   4.212   7.880
 2916TIP3   OH230306   1.391   2.128   1.880
 2916TIP3    H130307   1.358   2.058   1.823
 2916TIP3    H230308   1.332   2.128   1.955
 2917TIP3   OH230309   3.887   5.773   0.429
 2917TIP3    H130310   3.978   5.755   0.407
 2917TIP3    H230311   3.838   5.749   0.350
 2918TIP3   OH230312   4.602   1.539   8.195
 2918TIP3    H130313   4.590   1.567   8.285
 2918TIP3    H230314   4.697   1.537   8.182
 2919TIP3   OH230315   1.168   6.738   8.306
 2919TIP3    H130316   1.261   6.730   8.284
 2919TIP3    H230317   1.164   0.014   8.364
 2920TIP3   OH230318   2.150   2.349   7.075
 2920TIP3    H130319   2.059   2.323   7.085
 2920TIP3    H230320   2.200   2.268   7.085
 2921TIP3   OH230321   3.736   5.983   7.606
 2921TIP3    H130322   3.744   6.071   7.642
 2921TIP3    H230323   3.714   5.996   7.514
 2922TIP3   OH230324   1.724   5.724   0.539
 2922TIP3    H130325   1.798   5.687   0.587
 2922TIP3    H230326   1.679   5.779   0.603
 2923TIP3   OH230327   3.204   2.134   0.032
 2923TIP3    H130328   3.158   2.153   0.113
 2923TIP3    H230329   3.238   2.218   0.003
 2924TIP3   OH230330   1.089   6.111   6.785
 2924TIP3    H130331   1.171   6.125   6.737
 2924TIP3    H230332   1.024   6.161   6.736
 2925TIP3   OH230333   4.243   6.147   0.728
 2925TIP3    H130334   4.223   6.069   0.780
 2925TIP3    H230335   4.311   6.193   0.778
 2926TIP3   OH230336   4.606   1.839   7.483
 2926TIP3    H130337   4.625   1.745   7.483
 2926TIP3    H230338   4.646   1.871   7.402
 2927TIP3   OH230339   4.190   4.040   6.944
 2927TIP3    H130340   4.273   4.078   6.973
 2927TIP3    H230341   4.207   4.008   6.856
 2928TIP3   OH230342   6.644   2.565   7.135
 2928TIP3    H130343   6.610   2.654   7.136
 2928TIP3    H230344   6.683   2.555   7.049
 2929TIP3   OH230345   4.407   5.097   1.406
 2929TIP3    H130346   4.460   5.039   1.352
 2929TIP3    H230347   4.329   5.046   1.428
 2930TIP3   OH230348   4.654   4.662   0.377
 2930TIP3    H130349   4.562   4.687   0.379
 2930TIP3    H230350   4.654   4.574   0.338
 2931TIP3   OH230351   4.843   4.750   7.889
 2931TIP3    H130352   4.860   4.760   7.795
 2931TIP3    H230353   4.817   4.838   7.918
 2932TIP3   OH230354   6.622   2.742   0.516
 2932TIP3    H130355   6.682   2.816   0.523
 2932TIP3    H230356   6.582   2.751   0.430
 2933TIP3   OH230357   5.532   0.308   6.552
 2933TIP3    H130358   5.554   0.317   6.459
 2933TIP3    H230359   5.549   0.394   6.589
 2934TIP3   OH230360   3.536   1.022   7.648
 2934TIP3    H130361   3.604   0.956   7.661
 2934TIP3    H230362   3.465   0.975   7.606
 2935TIP3   OH230363   4.163   1.166   6.672
 2935TIP3    H130364   4.161   1.184   6.578
 2935TIP3    H230365   4.250   1.194   6.700
 2936TIP3   OH230366   2.122   6.789   0.222
 2936TIP3    H130367   2.036   6.797   0.262
 2936TIP3    H230368   2.183   6.791   0.296
 2937TIP3   OH230369   2.960   4.627   6.810
 2937TIP3    H130370   2.920   4.560   6.864
 2937TIP3    H230371   2.905   4.704   6.821
 2938TIP3   OH230372   2.921   1.109   7.050
 2938TIP3    H130373   2.955   1.087   6.963
 2938TIP3    H230374   2.974   1.184   7.077
 2939TIP3   OH230375   5.548   0.943   0.074
 2939TIP3    H130376   5.540   0.920   0.167
 2939TIP3    H230377   5.462   0.923   0.037
 2940TIP3   OH230378   5.709   1.566   7.589
 2940TIP3    H130379   5.627   1.605   7.559
 2940TIP3    H230380   5.721   1.600   7.677
 2941TIP3   OH230381   1.585   0.557   1.588
 2941TIP3    H130382   1.670   0.514   1.586
 2941TIP3    H230383   1.522   0.487   1.573
 2942TIP3   OH230384   1.475   1.517   6.954
 2942TIP3    H130385   1.391   1.563   6.962
 2942TIP3    H230386   1.523   1.540   7.033
 2943TIP3   OH230387   5.480   3.740   2.146
 2943TIP3    H130388   5.421   3.810   2.117
 2943TIP3    H230389   5.465   3.669   2.083
 2944TIP3   OH230390   0.507   4.583   8.410
 2944TIP3    H130391   0.551   4.507   8.373
 2944TIP3    H230392   0.560   4.658   8.381
 2945TIP3   OH230393   4.082   2.449   8.701
 2945TIP3    H130394   4.124   2.495   8.628
 2945TIP3    H230395   4.151   2.442   8.767
 2946TIP3   OH230396   2.988   3.070   6.767
 2946TIP3    H130397   2.919   3.096   6.828
 2946TIP3    H230398   2.964   3.111   6.684
 2947TIP3   OH230399   2.745   4.667   7.524
 2947TIP3    H130400   2.684   4.654   7.451
 2947TIP3    H230401   2.788   4.750   7.505
 2948TIP3   OH230402   0.495   6.575   0.928
 2948TIP3    H130403   0.485   6.626   1.009
 2948TIP3    H230404   0.556   6.626   0.875
 2949TIP3   OH230405   3.979   5.101   7.145
 2949TIP3    H130406   3.954   5.009   7.145
 2949TIP3    H230407   3.928   5.140   7.073
 2950TIP3   OH230408   1.618   4.611   6.915
 2950TIP3    H130409   1.655   4.698   6.933
 2950TIP3    H230410   1.580   4.583   6.998
 2951TIP3   OH230411   1.752   4.647   8.137
 2951TIP3    H130412   1.711   4.560   8.131
 2951TIP3    H230413   1.766   4.660   8.230
 2952TIP3   OH230414   4.364   5.358   7.573
 2952TIP3    H130415   4.288   5.390   7.524
 2952TIP3    H230416   4.350   5.264   7.581
 2953TIP3   OH230417   5.274   4.866   0.904
 2953TIP3    H130418   5.187   4.873   0.943
 2953TIP3    H230419   5.320   4.803   0.960
 2954TIP3   OH230420   2.916   3.393   7.815
 2954TIP3    H130421   3.008   3.372   7.834
 2954TIP3    H230422   2.883   3.429   7.897
 2955TIP3   OH230423   6.056   2.952   0.782
 2955TIP3    H130424   6.029   2.973   0.693
 2955TIP3    H230425   6.146   2.920   0.773
 2956TIP3   OH230426   4.704   1.930   8.449
 2956TIP3    H130427   4.687   1.966   8.537
 2956TIP3    H230428   4.620   1.937   8.404
 2957TIP3   OH230429   3.387   5.314   0.283
 2957TIP3    H130430   3.405   5.382   0.218
 2957TIP3    H230431   3.293   5.317   0.295
 2958TIP3   OH230432   5.693   3.034   7.956
 2958TIP3    H130433   5.607   3.012   7.993
 2958TIP3    H230434   5.696   3.129   7.956
 2959TIP3   OH230435   2.012   0.610   8.757
 2959TIP3    H130436   1.936   0.592   8.812
 2959TIP3    H230437   2.087   0.586   8.811
 2960TIP3   OH230438   0.546   4.706   0.457
 2960TIP3    H130439   0.528   4.672   0.545
 2960TIP3    H230440   0.468   4.758   0.436
 2961TIP3   OH230441   4.901   1.176   0.589
 2961TIP3    H130442   4.824   1.170   0.647
 2961TIP3    H230443   4.864   1.170   0.501
 2962TIP3   OH230444   3.725   1.977   0.806
 2962TIP3    H130445   3.695   2.000   0.718
 2962TIP3    H230446   3.672   2.033   0.864
 2963TIP3   OH230447   3.782   6.751   0.154
 2963TIP3    H130448   3.856   6.745   0.214
 2963TIP3    H230449   3.801   6.685   0.087
 2964TIP3   OH230450   3.355   3.116   1.800
 2964TIP3    H130451   3.367   3.210   1.816
 2964TIP3    H230452   3.387   3.103   1.711
 2965TIP3   OH230453   2.579   1.919   6.985
 2965TIP3    H130454   2.518   1.883   7.049
 2965TIP3    H230455   2.551   1.880   6.901
 2966TIP3   OH230456   2.731   3.731   8.279
 2966TIP3    H130457   2.740   3.730   8.374
 2966TIP3    H230458   2.656   3.674   8.261
 2967TIP3   OH230459   0.428   1.935   6.678
 2967TIP3    H130460   0.487   2.009   6.666
 2967TIP3    H230461   0.461   1.869   6.617
 2968TIP3   OH230462   2.355   0.300   8.419
 2968TIP3    H130463   2.290   0.317   8.486
 2968TIP3    H230464   2.312   0.324   8.337
 2969TIP3   OH230465   3.027   6.259   0.081
 2969TIP3    H130466   3.061   6.346   0.101
 2969TIP3    H230467   3.092   6.199   0.117
 2970TIP3   OH230468   0.788   1.659   0.061
 2970TIP3    H130469   0.771   1.752   0.076
 2970TIP3    H230470   0.866   1.640   0.113
 2971TIP3   OH230471   5.827   6.412   0.542
 2971TIP3    H130472   5.764   6.462   0.594
 2971TIP3    H230473   5.841   6.465   0.463
 2972TIP3   OH230474   0.597   3.567   7.336
 2972TIP3    H130475   0.678   3.599   7.296
 2972TIP3    H230476   0.624   3.489   7.385
 2973TIP3   OH230477   6.715   2.318   6.976
 2973TIP3    H130478   6.792   2.373   6.961
 2973TIP3    H230479   6.746   2.229   6.957
 2974TIP3   OH230480   0.590   4.093   1.944
 2974TIP3    H130481   0.514   4.038   1.962
 2974TIP3    H230482   0.580   4.119   1.853
 2975TIP3   OH230483   1.382   1.524   1.462
 2975TIP3    H130484   1.360   1.568   1.545
 2975TIP3    H230485   1.402   1.434   1.487
 2976TIP3   OH230486   4.574   5.515   7.665
 2976TIP3    H130487   4.510   5.457   7.622
 2976TIP3    H230488   4.532   5.601   7.664
 2977TIP3   OH230489   4.422   2.622   1.392
 2977TIP3    H130490   4.428   2.593   1.301
 2977TIP3    H230491   4.497   2.680   1.404
 2978TIP3   OH230492   3.751   4.155   7.083
 2978TIP3    H130493   3.705   4.169   7.001
 2978TIP3    H230494   3.681   4.153   7.149
 2979TIP3   OH230495   3.057   6.641   6.277
 2979TIP3    H130496   3.081   6.726   6.240
 2979TIP3    H230497   2.968   6.626   6.245
 2980TIP3   OH230498   4.574   0.179   2.401
 2980TIP3    H130499   4.485   0.148   2.387
 2980TIP3    H230500   4.626   0.100   2.407
 2981TIP3   OH230501   3.269   3.336   8.498
 2981TIP3    H130502   3.303   3.269   8.557
 2981TIP3    H230503   3.347   3.380   8.465
 2982TIP3   OH230504   0.646   2.294   7.919
 2982TIP3    H130505   0.566   2.304   7.866
 2982TIP3    H230506   0.690   2.218   7.881
 2983TIP3   OH230507   2.319   3.561   1.647
 2983TIP3    H130508   2.390   3.578   1.585
 2983TIP3    H230509   2.361   3.557   1.732
 2984TIP3   OH230510   0.086   0.535   7.748
 2984TIP3    H130511   6.799   0.554   7.714
 2984TIP3    H230512   0.074   0.527   7.843
 2985TIP3   OH230513   5.230   1.539   8.021
 2985TIP3    H130514   5.149   1.496   7.994
 2985TIP3    H230515   5.298   1.501   7.965
 2986TIP3   OH230516   2.597   2.342   7.147
 2986TIP3    H130517   2.537   2.268   7.160
 2986TIP3    H230518   2.654   2.314   7.076
 2987TIP3   OH230519   5.841   0.797   8.645
 2987TIP3    H130520   5.876   0.723   8.594
 2987TIP3    H230521   5.852   0.873   8.588
 2988TIP3   OH230522   0.886   5.562   0.216
 2988TIP3    H130523   0.849   5.543   0.302
 2988TIP3    H230524   0.816   5.542   0.155
 2989TIP3   OH230525   3.218   0.870   6.857
 2989TIP3    H130526   3.312   0.854   6.854
 2989TIP3    H230527   3.207   0.940   6.921
 2990TIP3   OH230528   2.421   3.057   0.306
 2990TIP3    H130529   2.328   3.058   0.330
 2990TIP3    H230530   2.421   3.049   0.211
 2991TIP3   OH230531   6.068   4.947   0.331
 2991TIP3    H130532   6.145   4.891   0.326
 2991TIP3    H230533   6.000   4.890   0.369
 2992TIP3   OH230534   2.408   4.672   7.748
 2992TIP3    H130535   2.335   4.734   7.754
 2992TIP3    H230536   2.395   4.628   7.664
 2993TIP3   OH230537   0.152   1.123   1.521
 2993TIP3    H130538   0.066   1.109   1.560
 2993TIP3    H230539   0.211   1.136   1.596
 2994TIP3   OH230540   6.481   2.091   0.542
 2994TIP3    H130541   6.515   2.126   0.460
 2994TIP3    H230542   6.412   2.029   0.515
 2995TIP3   OH230543   4.738   3.396   0.052
 2995TIP3    H130544   4.809   3.458   0.032
 2995TIP3    H230545   4.766   3.314   0.012
 2996TIP3   OH230546   1.307   1.184   0.485
 2996TIP3    H130547   1.369   1.138   0.427
 2996TIP3    H230548   1.347   1.177   0.572
 2997TIP3   OH230549   2.904   6.746   0.565
 2997TIP3    H130550   2.959   0.023   0.551
 2997TIP3    H230551   2.963   6.681   0.604
 2998TIP3   OH230552   0.112   2.379   7.982
 2998TIP3    H130553   0.042   2.426   7.935
 2998TIP3    H230554   0.066   2.307   8.026
 2999TIP3   OH230555   1.616   3.174   1.317
 2999TIP3    H130556   1.543   3.165   1.378
 2999TIP3    H230557   1.686   3.122   1.355
 3000TIP3   OH230558   2.811   1.540   2.578
 3000TIP3    H130559   2.731   1.589   2.596
 3000TIP3    H230560   2.808   1.467   2.640
 3001TIP3   OH230561   1.672   4.216   3.011
 3001TIP3    H130562   1.740   4.242   2.949
 3001TIP3    H230563   1.687   4.122   3.024
 3002TIP3   OH230564   0.226   6.139   1.520
 3002TIP3    H130565   0.191   6.150   1.609
 3002TIP3    H230566   0.175   6.067   1.484
 3003TIP3   OH230567   0.388   0.873   0.770
 3003TIP3    H130568   0.423   0.958   0.796
 3003TIP3    H230569   0.455   0.810   0.797
 3004TIP3   OH230570   4.658   2.761   8.482
 3004TIP3    H130571   4.683   2.725   8.396
 3004TIP3    H230572   4.571   2.797   8.468
 3005TIP3   OH230573   4.381   5.655   8.503
 3005TIP3    H130574   4.339   5.569   8.499
 3005TIP3    H230575   4.474   5.636   8.489
 3006TIP3   OH230576   4.200   0.335   6.836
 3006TIP3    H130577   4.233   0.377   6.757
 3006TIP3    H230578   4.109   0.363   6.842
 3007TIP3   OH230579   3.117   1.113   0.408
 3007TIP3    H130580   3.204   1.109   0.367
 3007TIP3    H230581   3.087   1.202   0.393
 3008TIP3   OH230582   2.270   6.232   1.131
 3008TIP3    H130583   2.356   6.270   1.114
 3008TIP3    H230584   2.222   6.245   1.049
 3009TIP3   OH230585   5.690   5.056   7.358
 3009TIP3    H130586   5.772   5.062   7.407
 3009TIP3    H230587   5.692   5.132   7.299
 3010TIP3   OH230588   0.051   0.057   0.890
 3010TIP3    H130589   0.137   0.092   0.911
 3010TIP3    H230590   0.001   0.133   0.860
 3011TIP3   OH230591   4.134   2.801   0.114
 3011TIP3    H130592   4.092   2.884   0.135
 3011TIP3    H230593   4.193   2.822   0.041
 3012TIP3   OH230594   3.649   1.428   0.073
 3012TIP3    H130595   3.632   1.432   0.167
 3012TIP3    H230596   3.639   1.335   0.051
 3013TIP3   OH230597   5.355   6.355   8.688
 3013TIP3    H130598   5.358   6.317   8.776
 3013TIP3    H230599   5.311   6.439   8.699
 3014TIP3   OH230600   2.603   1.842   7.529
 3014TIP3    H130601   2.534   1.908   7.532
 3014TIP3    H230602   2.635   1.837   7.618
 3015TIP3   OH230603   6.499   4.507   0.970
 3015TIP3    H130604   6.488   4.444   1.041
 3015TIP3    H230605   6.533   4.456   0.897
 3016TIP3   OH230606   6.506   6.651   1.648
 3016TIP3    H130607   6.480   6.573   1.600
 3016TIP3    H230608   6.486   6.631   1.740
 3017TIP3   OH230609   5.494   3.433   8.135
 3017TIP3    H130610   5.447   3.498   8.083
 3017TIP3    H230611   5.440   3.419   8.212
 3018TIP3   OH230612   2.830   4.291   8.495
 3018TIP3    H130613   2.854   4.271   8.405
 3018TIP3    H230614   2.912   4.291   8.543
 3019TIP3   OH230615   3.651   0.867   2.249
 3019TIP3    H130616   3.667   0.957   2.221
 3019TIP3    H230617   3.670   0.867   2.343
 3020TIP3   OH230618   3.016   0.167   1.380
 3020TIP3    H130619   2.926   0.152   1.351
 3020TIP3    H230620   3.070   0.133   1.308
 3021TIP3   OH230621   5.288   5.557   0.907
 3021TIP3    H130622   5.275   5.564   0.812
 3021TIP3    H230623   5.372   5.513   0.916
 3022TIP3   OH230624   0.146   3.351   8.809
 3022TIP3    H130625   0.224   3.322   8.856
 3022TIP3    H230626   0.179   3.409   8.741
 3023TIP3   OH230627   1.827   5.348   6.987
 3023TIP3    H130628   1.747   5.379   6.945
 3023TIP3    H230629   1.858   5.277   6.931
 3024TIP3   OH230630   5.036   3.396   8.022
 3024TIP3    H130631   4.954   3.385   8.072
 3024TIP3    H230632   5.071   3.480   8.053
 3025TIP3   OH230633   6.302   1.332   7.144
 3025TIP3    H130634   6.256   1.410   7.177
 3025TIP3    H230635   6.232   1.272   7.118
 3026TIP3   OH230636   4.390   5.829   1.008
 3026TIP3    H130637   4.442   5.838   1.088
 3026TIP3    H230638   4.454   5.836   0.937
 3027TIP3   OH230639   3.169   4.509   1.477
 3027TIP3    H130640   3.077   4.508   1.451
 3027TIP3    H230641   3.183   4.597   1.512
 3028TIP3   OH230642   2.490   4.883   1.548
 3028TIP3    H130643   2.462   4.878   1.639
 3028TIP3    H230644   2.474   4.795   1.512
 3029TIP3   OH230645   5.110   3.456   0.723
 3029TIP3    H130646   5.071   3.375   0.756
 3029TIP3    H230647   5.154   3.429   0.642
 3030TIP3   OH230648   0.807   4.140   0.203
 3030TIP3    H130649   0.893   4.098   0.207
 3030TIP3    H230650   0.770   4.127   0.291
 3031TIP3   OH230651   4.362   3.594   0.796
 3031TIP3    H130652   4.274   3.579   0.830
 3031TIP3    H230653   4.392   3.672   0.842
 3032TIP3   OH230654   5.888   2.358   8.723
 3032TIP3    H130655   5.852   2.277   8.687
 3032TIP3    H230656   5.930   2.401   8.648
 3033TIP3   OH230657   5.665   4.346   0.265
 3033TIP3    H130658   5.602   4.275   0.263
 3033TIP3    H230659   5.612   4.426   0.267
 3034TIP3   OH230660   4.712   5.689   1.930
 3034TIP3    H130661   4.626   5.680   1.970
 3034TIP3    H230662   4.773   5.683   2.003
 3035TIP3   OH230663   1.267   0.670   1.726
 3035TIP3    H130664   1.191   0.639   1.774
 3035TIP3    H230665   1.340   0.616   1.758
 3036TIP3   OH230666   5.625   0.286   0.103
 3036TIP3    H130667   5.629   0.195   0.071
 3036TIP3    H230668   5.559   0.284   0.172
 3037TIP3   OH230669   0.161   2.627   2.237
 3037TIP3    H130670   0.162   2.534   2.258
 3037TIP3    H230671   0.197   2.632   2.148
 3038TIP3   OH230672   5.250   3.884   0.603
 3038TIP3    H130673   5.313   3.951   0.576
 3038TIP3    H230674   5.218   3.914   0.688
 3039TIP3   OH230675   5.090   5.308   8.713
 3039TIP3    H130676   5.115   5.257   8.635
 3039TIP3    H230677   5.001   5.281   8.732
 3040TIP3   OH230678   0.340   5.141   2.632
 3040TIP3    H130679   0.272   5.125   2.566
 3040TIP3    H230680   0.317   5.227   2.668
 3041TIP3   OH230681   0.463   1.314   1.016
 3041TIP3    H130682   0.377   1.357   1.019
 3041TIP3    H230683   0.521   1.372   1.065
 3042TIP3   OH230684   0.868   4.720   1.371
 3042TIP3    H130685   0.809   4.782   1.328
 3042TIP3    H230686   0.932   4.697   1.304
 3043TIP3   OH230687   3.983   1.856   0.894
 3043TIP3    H130688   3.929   1.924   0.853
 3043TIP3    H230689   3.921   1.788   0.919
 3044TIP3   OH230690   4.460   4.036   8.208
 3044TIP3    H130691   4.459   3.991   8.293
 3044TIP3    H230692   4.369   4.033   8.179
 3045TIP3   OH230693   1.830   6.395   7.335
 3045TIP3    H130694   1.811   6.341   7.258
 3045TIP3    H230695   1.866   6.334   7.399
 3046TIP3   OH230696   1.358   2.076   0.177
 3046TIP3    H130697   1.352   2.106   0.268
 3046TIP3    H230698   1.452   2.068   0.161
 3047TIP3   OH230699   4.872   0.950   8.506
 3047TIP3    H130700   4.881   1.023   8.567
 3047TIP3    H230701   4.944   0.961   8.444
 3048TIP3   OH230702   0.515   2.823   7.865
 3048TIP3    H130703   0.488   2.759   7.800
 3048TIP3    H230704   0.459   2.806   7.941
 3049TIP3   OH230705   4.864   0.639   0.284
 3049TIP3    H130706   4.851   0.707   0.218
 3049TIP3    H230707   4.956   0.612   0.273
 3050TIP3   OH230708   1.968   4.839   0.271
 3050TIP3    H130709   2.003   4.818   0.184
 3050TIP3    H230710   2.026   4.909   0.303
 3051TIP3   OH230711   5.910   0.142   2.460
 3051TIP3    H130712   5.996   0.101   2.469
 3051TIP3    H230713   5.900   0.157   2.366
 3052TIP3   OH230714   0.507   1.691   0.164
 3052TIP3    H130715   0.596   1.704   0.131
 3052TIP3    H230716   0.518   1.678   0.258
 3053TIP3   OH230717   1.211   5.193   3.012
 3053TIP3    H130718   1.125   5.226   2.986
 3053TIP3    H230719   1.256   5.176   2.929
 3054TIP3   OH230720   5.049   0.928   2.390
 3054TIP3    H130721   5.054   0.996   2.457
 3054TIP3    H230722   4.956   0.924   2.367
 3055TIP3   OH230723   0.693   4.847   8.100
 3055TIP3    H130724   0.608   4.829   8.060
 3055TIP3    H230725   0.750   4.779   8.066
 3056TIP3   OH230726   5.218   1.503   8.577
 3056TIP3    H130727   5.229   1.409   8.592
 3056TIP3    H230728   5.191   1.538   8.662
 3057TIP3   OH230729   2.522   3.540   0.546
 3057TIP3    H130730   2.523   3.499   0.632
 3057TIP3    H230731   2.507   3.468   0.485
 3058TIP3   OH230732   5.023   5.574   1.834
 3058TIP3    H130733   4.948   5.563   1.775
 3058TIP3    H230734   5.038   5.487   1.871
 3059TIP3   OH230735   3.635   6.597   2.335
 3059TIP3    H130736   3.592   6.586   2.250
 3059TIP3    H230737   3.656   6.691   2.339
 3060TIP3   OH230738   4.659   6.020   8.098
 3060TIP3    H130739   4.693   6.028   8.187
 3060TIP3    H230740   4.665   5.927   8.077
 3061TIP3   OH230741   6.345   1.514   0.603
 3061TIP3    H130742   6.339   1.423   0.632
 3061TIP3    H230743   6.410   1.512   0.533
 3062TIP3   OH230744   2.428   2.663   7.525
 3062TIP3    H130745   2.514   2.681   7.487
 3062TIP3    H230746   2.381   2.616   7.456
 3063TIP3   OH230747   2.777   3.867   0.610
 3063TIP3    H130748   2.834   3.790   0.603
 3063TIP3    H230749   2.710   3.842   0.673
 3064TIP3   OH230750   1.679   3.302   0.268
 3064TIP3    H130751   1.761   3.342   0.240
 3064TIP3    H230752   1.617   3.375   0.273
 3065TIP3   OH230753   0.265   1.220   0.226
 3065TIP3    H130754   0.225   1.271   0.155
 3065TIP3    H230755   0.195   1.164   0.257
 3066TIP3   OH230756   0.317   6.661   8.349
 3066TIP3    H130757   0.227   6.673   8.382
 3066TIP3    H230758   0.370   6.720   8.403
 3067TIP3   OH230759   2.661   6.357   1.521
 3067TIP3    H130760   2.731   6.319   1.469
 3067TIP3    H230761   2.705   6.409   1.588
 3068TIP3   OH230762   4.343   1.799   7.341
 3068TIP3    H130763   4.296   1.729   7.386
 3068TIP3    H230764   4.394   1.842   7.410
 3069TIP3   OH230765   4.319   2.490   0.041
 3069TIP3    H130766   4.347   2.399   0.048
 3069TIP3    H230767   4.253   2.501   0.109
 3070TIP3   OH230768   3.884   0.670   8.240
 3070TIP3    H130769   3.823   0.735   8.273
 3070TIP3    H230770   3.927   0.634   8.318
 3071TIP3   OH230771   1.550   3.735   7.603
 3071TIP3    H130772   1.567   3.711   7.694
 3071TIP3    H230773   1.472   3.791   7.608
 3072TIP3   OH230774   6.482   2.309   8.469
 3072TIP3    H130775   6.481   2.387   8.414
 3072TIP3    H230776   6.554   2.256   8.434
 3073TIP3   OH230777   2.576   4.426   0.388
 3073TIP3    H130778   2.551   4.358   0.325
 3073TIP3    H230779   2.655   4.392   0.430
 3074TIP3   OH230780   2.329   4.828   8.580
 3074TIP3    H130781   2.240   4.837   8.613
 3074TIP3    H230782   2.335   4.891   8.509
 3075TIP3   OH230783   5.643   4.417   8.199
 3075TIP3    H130784   5.649   4.511   8.211
 3075TIP3    H230785   5.687   4.381   8.277
 3076TIP3   OH230786   1.854   6.131   7.764
 3076TIP3    H130787   1.839   6.037   7.750
 3076TIP3    H230788   1.767   6.167   7.780
 3077TIP3   OH230789   6.248   1.053   1.255
 3077TIP3    H130790   6.307   1.090   1.189
 3077TIP3    H230791   6.299   0.982   1.294
 3078TIP3   OH230792   2.069   1.644   2.134
 3078TIP3    H130793   2.058   1.551   2.156
 3078TIP3    H230794   1.997   1.663   2.074
 3079TIP3   OH230795   2.666   0.798   8.059
 3079TIP3    H130796   2.669   0.770   8.150
 3079TIP3    H230797   2.603   0.738   8.018
 3080TIP3   OH230798   3.389   5.093   7.278
 3080TIP3    H130799   3.400   4.999   7.268
 3080TIP3    H230800   3.300   5.111   7.247
 3081TIP3   OH230801   4.634   4.321   8.418
 3081TIP3    H130802   4.543   4.301   8.438
 3081TIP3    H230803   4.672   4.346   8.502
 3082TIP3   OH230804   5.271   6.538   8.346
 3082TIP3    H130805   5.297   6.536   8.254
 3082TIP3    H230806   5.230   6.452   8.360
 3083TIP3   OH230807   5.616   1.070   8.094
 3083TIP3    H130808   5.592   1.012   8.167
 3083TIP3    H230809   5.650   1.148   8.136
 3084TIP3   OH230810   1.128   5.900   0.351
 3084TIP3    H130811   1.159   5.810   0.363
 3084TIP3    H230812   1.096   5.925   0.438
 3085TIP3   OH230813   2.738   3.714   8.569
 3085TIP3    H130814   2.680   3.759   8.630
 3085TIP3    H230815   2.822   3.707   8.616
 3086TIP3   OH230816   1.534   4.313   7.445
 3086TIP3    H130817   1.581   4.396   7.439
 3086TIP3    H230818   1.464   4.320   7.380
 3087TIP3   OH230819   3.739   1.444   2.236
 3087TIP3    H130820   3.818   1.494   2.217
 3087TIP3    H230821   3.771   1.363   2.277
 3088TIP3   OH230822   4.687   4.684   6.884
 3088TIP3    H130823   4.654   4.610   6.834
 3088TIP3    H230824   4.733   4.738   6.820
 3089TIP3   OH230825   1.831   6.679   6.697
 3089TIP3    H130826   1.848   6.760   6.745
 3089TIP3    H230827   1.758   6.638   6.744
 3090TIP3   OH230828   1.301   4.176   0.279
 3090TIP3    H130829   1.221   4.224   0.302
 3090TIP3    H230830   1.366   4.244   0.262
 3091TIP3   OH230831   3.743   4.739   8.332
 3091TIP3    H130832   3.819   4.790   8.362
 3091TIP3    H230833   3.717   4.780   8.250
 3092TIP3   OH230834   0.566   0.738   7.476
 3092TIP3    H130835   0.494   0.692   7.518
 3092TIP3    H230836   0.526   0.785   7.402
 3093TIP3   OH230837   2.939   4.269   8.253
 3093TIP3    H130838   2.919   4.283   8.161
 3093TIP3    H230839   3.004   4.198   8.253
 3094TIP3   OH230840   5.415   2.693   6.416
 3094TIP3    H130841   5.410   2.604   6.381
 3094TIP3    H230842   5.324   2.719   6.428
 3095TIP3   OH230843   3.506   3.534   0.285
 3095TIP3    H130844   3.542   3.581   0.210
 3095TIP3    H230845   3.479   3.602   0.345
 3096TIP3   OH230846   2.004   0.725   1.053
 3096TIP3    H130847   2.032   0.786   1.121
 3096TIP3    H230848   1.983   0.781   0.978
 3097TIP3   OH230849   2.585   0.761   7.192
 3097TIP3    H130850   2.623   0.805   7.116
 3097TIP3    H230851   2.490   0.770   7.180
 3098TIP3   OH230852   3.378   4.736   7.883
 3098TIP3    H130853   3.293   4.780   7.873
 3098TIP3    H230854   3.361   4.666   7.945
 3099TIP3   OH230855   2.435   3.703   7.599
 3099TIP3    H130856   2.514   3.744   7.566
 3099TIP3    H230857   2.424   3.739   7.687
 3100TIP3   OH230858   0.248   1.685   2.027
 3100TIP3    H130859   0.181   1.621   2.052
 3100TIP3    H230860   0.227   1.763   2.078
 3101TIP3   OH230861   4.719   2.931   2.158
 3101TIP3    H130862   4.756   2.909   2.072
 3101TIP3    H230863   4.631   2.894   2.157
 3102TIP3   OH230864   4.181   6.043   0.192
 3102TIP3    H130865   4.089   6.017   0.182
 3102TIP3    H230866   4.215   6.045   0.103
 3103TIP3   OH230867   5.866   4.547   2.327
 3103TIP3    H130868   5.949   4.591   2.346
 3103TIP3    H230869   5.868   4.468   2.380
 3104TIP3   OH230870   4.915   3.091   8.155
 3104TIP3    H130871   4.947   3.017   8.104
 3104TIP3    H230872   4.819   3.084   8.150
 3105TIP3   OH230873   1.620   3.677   1.161
 3105TIP3    H130874   1.611   3.654   1.253
 3105TIP3    H230875   1.656   3.599   1.120
 3106TIP3   OH230876   4.332   5.026   8.113
 3106TIP3    H130877   4.305   4.995   8.027
 3106TIP3    H230878   4.380   5.107   8.096
 3107TIP3   OH230879   2.958   2.647   1.143
 3107TIP3    H130880   2.953   2.742   1.138
 3107TIP3    H230881   2.867   2.618   1.140
 3108TIP3   OH230882   3.229   3.280   7.273
 3108TIP3    H130883   3.216   3.288   7.178
 3108TIP3    H230884   3.316   3.242   7.282
 3109TIP3   OH230885   6.610   6.200   2.081
 3109TIP3    H130886   6.687   6.167   2.127
 3109TIP3    H230887   6.583   6.127   2.025
 3110TIP3   OH230888   5.845   5.890   2.879
 3110TIP3    H130889   5.794   5.962   2.916
 3110TIP3    H230890   5.919   5.933   2.837
 3111TIP3   OH230891   0.609   2.541   8.835
 3111TIP3    H130892   0.554   2.530   0.051
 3111TIP3    H230893   0.696   2.559   0.009
 3112TIP3   OH230894   4.531   0.832   8.019
 3112TIP3    H130895   4.465   0.901   8.015
 3112TIP3    H230896   4.486   0.753   7.990
 3113TIP3   OH230897   5.746   1.873   0.015
 3113TIP3    H130898   5.768   1.790   0.056
 3113TIP3    H230899   5.784   1.939   0.073
 3114TIP3   OH230900   5.331   2.236   1.360
 3114TIP3    H130901   5.376   2.168   1.311
 3114TIP3    H230902   5.370   2.233   1.447
 3115TIP3   OH230903   2.661   0.669   0.087
 3115TIP3    H130904   2.586   0.724   0.066
 3115TIP3    H230905   2.642   0.636   0.175
 3116TIP3   OH230906   1.596   2.064   1.435
 3116TIP3    H130907   1.566   1.975   1.448
 3116TIP3    H230908   1.588   2.078   1.340
 3117TIP3   OH230909   4.080   3.467   6.870
 3117TIP3    H130910   4.080   3.451   6.776
 3117TIP3    H230911   4.077   3.379   6.909
 3118TIP3   OH230912   2.415   5.758   1.307
 3118TIP3    H130913   2.496   5.799   1.339
 3118TIP3    H230914   2.387   5.701   1.378
 3119TIP3   OH230915   1.976   5.966   8.259
 3119TIP3    H130916   1.900   6.010   8.298
 3119TIP3    H230917   2.022   6.036   8.213
 3120TIP3   OH230918   0.524   1.886   1.434
 3120TIP3    H130919   0.449   1.827   1.448
 3120TIP3    H230920   0.570   1.849   1.359
 3121TIP3   OH230921   0.910   1.620   7.020
 3121TIP3    H130922   0.871   1.706   7.033
 3121TIP3    H230923   0.882   1.569   7.097
 3122TIP3   OH230924   1.013   2.504   7.386
 3122TIP3    H130925   1.020   2.496   7.482
 3122TIP3    H230926   0.957   2.580   7.372
 3123TIP3   OH230927   2.911   1.006   1.419
 3123TIP3    H130928   2.992   1.055   1.402
 3123TIP3    H230929   2.847   1.044   1.359
 3124TIP3   OH230930   6.301   3.969   7.742
 3124TIP3    H130931   6.341   3.975   7.829
 3124TIP3    H230932   6.334   4.045   7.695
 3125TIP3   OH230933   2.702   4.562   8.679
 3125TIP3    H130934   2.725   4.544   8.770
 3125TIP3    H230935   2.783   4.591   8.638
 3126TIP3   OH230936   0.060   6.608   8.393
 3126TIP3    H130937   0.055   6.522   8.352
 3126TIP3    H230938   0.023   6.668   8.329
 3127TIP3   OH230939   5.132   4.359   0.043
 3127TIP3    H130940   5.060   4.421   0.053
 3127TIP3    H230941   5.160   4.370   8.813
 3128TIP3   OH230942   2.249   4.386   1.678
 3128TIP3    H130943   2.203   4.305   1.699
 3128TIP3    H230944   2.249   4.436   1.760
 3129TIP3   OH230945   1.901   4.668   2.710
 3129TIP3    H130946   1.977   4.727   2.715
 3129TIP3    H230947   1.827   4.722   2.737
 3130TIP3   OH230948   3.957   6.243   1.551
 3130TIP3    H130949   3.981   6.219   1.462
 3130TIP3    H230950   4.004   6.325   1.567
 3131TIP3   OH230951   1.706   2.252   1.609
 3131TIP3    H130952   1.652   2.200   1.550
 3131TIP3    H230953   1.784   2.199   1.623
 3132TIP3   OH230954   0.852   4.684   0.127
 3132TIP3    H130955   0.820   4.595   0.116
 3132TIP3    H230956   0.945   4.679   0.109
 3133TIP3   OH230957   2.009   3.111   8.032
 3133TIP3    H130958   1.986   3.187   7.979
 3133TIP3    H230959   2.009   3.144   8.122
 3134TIP3   OH230960   3.462   2.342   0.479
 3134TIP3    H130961   3.388   2.301   0.524
 3134TIP3    H230962   3.519   2.270   0.455
 3135TIP3   OH230963   4.374   4.166   1.238
 3135TIP3    H130964   4.412   4.201   1.319
 3135TIP3    H230965   4.402   4.075   1.236
 3136TIP3   OH230966   2.619   5.047   8.239
 3136TIP3    H130967   2.587   5.071   8.153
 3136TIP3    H230968   2.621   5.129   8.288
 3137TIP3   OH230969   2.458   1.521   0.789
 3137TIP3    H130970   2.386   1.459   0.786
 3137TIP3    H230971   2.503   1.503   0.872
 3138TIP3   OH230972   4.685   1.327   1.689
 3138TIP3    H130973   4.761   1.345   1.633
 3138TIP3    H230974   4.646   1.413   1.704
 3139TIP3   OH230975   0.977   3.810   2.365
 3139TIP3    H130976   0.901   3.827   2.310
 3139TIP3    H230977   0.948   3.744   2.428
 3140TIP3   OH230978   3.564   4.561   7.381
 3140TIP3    H130979   3.526   4.590   7.464
 3140TIP3    H230980   3.491   4.521   7.334
 3141TIP3   OH230981   2.030   6.746   1.605
 3141TIP3    H130982   1.990   6.696   1.534
 3141TIP3    H230983   2.069   6.680   1.663
 3142TIP3   OH230984   1.625   1.989   1.911
 3142TIP3    H130985   1.682   1.995   1.987
 3142TIP3    H230986   1.554   2.051   1.928
 3143TIP3   OH230987   5.623   3.273   0.560
 3143TIP3    H130988   5.594   3.222   0.485
 3143TIP3    H230989   5.564   3.248   0.631
 3144TIP3   OH230990   6.490   6.637   2.200
 3144TIP3    H130991   6.538   6.654   2.281
 3144TIP3    H230992   6.510   6.712   2.144
 3145TIP3   OH230993   0.944   0.547   1.004
 3145TIP3    H130994   0.990   0.628   1.026
 3145TIP3    H230995   0.857   0.557   1.044
 3146TIP3   OH230996   0.512   4.390   2.009
 3146TIP3    H130997   0.577   4.378   1.939
 3146TIP3    H230998   0.429   4.366   1.969
 3147TIP3   OH230999   1.561   1.772   7.344
 3147TIP3    H131000   1.523   1.799   7.428
 3147TIP3    H231001   1.565   1.853   7.292
 3148TIP3   OH231002   0.923   5.671   7.989
 3148TIP3    H131003   0.994   5.726   8.021
 3148TIP3    H231004   0.966   5.604   7.937
 3149TIP3   OH231005   3.956   4.171   6.764
 3149TIP3    H131006   3.920   4.214   6.687
 3149TIP3    H231007   4.033   4.223   6.788
 3150TIP3   OH231008   4.583   4.182   8.818
 3150TIP3    H131009   4.566   4.160   0.049
 3150TIP3    H231010   4.592   4.098   8.774
 3151TIP3   OH231011   0.299   2.628   8.171
 3151TIP3    H131012   0.314   2.718   8.200
 3151TIP3    H231013   0.204   2.617   8.176
 3152TIP3   OH231014   3.041   6.504   7.454
 3152TIP3    H131015   3.059   6.497   7.360
 3152TIP3    H231016   2.950   6.475   7.463
 3153TIP3   OH231017   6.228   5.676   1.912
 3153TIP3    H131018   6.222   5.770   1.895
 3153TIP3    H231019   6.148   5.657   1.961
 3154TIP3   OH231020   5.503   2.803   0.264
 3154TIP3    H131021   5.493   2.858   0.186
 3154TIP3    H231022   5.562   2.733   0.236
 3155TIP3   OH231023   2.974   3.726   8.740
 3155TIP3    H131024   3.026   3.805   8.728
 3155TIP3    H231025   2.983   3.705   8.833
 3156TIP3   OH231026   0.108   5.786   1.111
 3156TIP3    H131027   0.186   5.792   1.165
 3156TIP3    H231028   0.058   5.714   1.150
 3157TIP3   OH231029   4.719   6.401   0.160
 3157TIP3    H131030   4.720   6.387   0.255
 3157TIP3    H231031   4.768   6.482   0.148
 3158TIP3   OH231032   5.726   3.051   1.956
 3158TIP3    H131033   5.667   3.084   2.024
 3158TIP3    H231034   5.789   2.997   2.003
 3159TIP3   OH231035   3.172   3.244   0.851
 3159TIP3    H131036   3.202   3.156   0.827
 3159TIP3    H231037   3.233   3.272   0.919
 3160TIP3   OH231038   5.525   5.159   7.879
 3160TIP3    H131039   5.546   5.125   7.792
 3160TIP3    H231040   5.509   5.253   7.865
 3161TIP3   OH231041   4.514   5.019   1.837
 3161TIP3    H131042   4.513   5.060   1.751
 3161TIP3    H231043   4.529   5.091   1.898
 3162TIP3   OH231044   5.553   5.307   7.446
 3162TIP3    H131045   5.460   5.299   7.469
 3162TIP3    H231046   5.554   5.308   7.350
 3163TIP3   OH231047   3.199   2.911   8.131
 3163TIP3    H131048   3.108   2.892   8.155
 3163TIP3    H231049   3.250   2.873   8.202
 3164TIP3   OH231050   1.558   2.750   1.125
 3164TIP3    H131051   1.652   2.738   1.138
 3164TIP3    H231052   1.544   2.736   1.031
 3165TIP3   OH231053   0.443   2.517   7.962
 3165TIP3    H131054   0.409   2.550   8.045
 3165TIP3    H231055   0.535   2.543   7.961
 3166TIP3   OH231056   0.761   5.941   7.012
 3166TIP3    H131057   0.671   5.933   6.982
 3166TIP3    H231058   0.810   5.880   6.957
 3167TIP3   OH231059   1.742   4.240   2.319
 3167TIP3    H131060   1.823   4.291   2.310
 3167TIP3    H231061   1.714   4.222   2.229
 3168TIP3   OH231062   3.315   1.681   2.271
 3168TIP3    H131063   3.358   1.691   2.356
 3168TIP3    H231064   3.386   1.668   2.209
 3169TIP3   OH231065   0.331   0.592   8.064
 3169TIP3    H131066   0.336   0.498   8.079
 3169TIP3    H231067   0.422   0.618   8.049
 3170TIP3   OH231068   6.094   4.629   0.248
 3170TIP3    H131069   6.089   4.696   0.180
 3170TIP3    H231070   6.179   4.587   0.233
 3171TIP3   OH231071   6.524   5.945   1.082
 3171TIP3    H131072   6.482   5.860   1.087
 3171TIP3    H231073   6.452   6.007   1.070
 3172TIP3   OH231074   4.165   3.954   1.523
 3172TIP3    H131075   4.130   3.981   1.607
 3172TIP3    H231076   4.260   3.948   1.537
 3173TIP3   OH231077   1.193   1.971   6.656
 3173TIP3    H131078   1.274   2.022   6.663
 3173TIP3    H231079   1.221   1.887   6.619
 3174TIP3   OH231080   5.362   4.895   0.001
 3174TIP3    H131081   5.453   4.880   0.027
 3174TIP3    H231082   5.353   4.847   8.779
 3175TIP3   OH231083   5.224   2.929   7.886
 3175TIP3    H131084   5.166   2.966   7.819
 3175TIP3    H231085   5.274   3.004   7.919
 3176TIP3   OH231086   1.557   3.814   8.854
 3176TIP3    H131087   1.575   3.889   0.050
 3176TIP3    H231088   1.593   3.739   0.041
 3177TIP3   OH231089   1.262   0.602   1.427
 3177TIP3    H131090   1.268   0.676   1.487
 3177TIP3    H231091   1.283   0.526   1.482
 3178TIP3   OH231092   5.220   6.449   1.680
 3178TIP3    H131093   5.169   6.473   1.758
 3178TIP3    H231094   5.225   6.530   1.629
 3179TIP3   OH231095   5.409   6.561   2.833
 3179TIP3    H131096   5.413   6.469   2.860
 3179TIP3    H231097   5.317   6.575   2.809
 3180TIP3   OH231098   5.975   2.138   7.056
 3180TIP3    H131099   5.959   2.225   7.018
 3180TIP3    H231100   5.910   2.082   7.015
 3181TIP3   OH231101   5.332   3.818   1.482
 3181TIP3    H131102   5.346   3.732   1.444
 3181TIP3    H231103   5.237   3.827   1.486
 3182TIP3   OH231104   0.507   2.133   1.282
 3182TIP3    H131105   0.473   2.074   1.349
 3182TIP3    H231106   0.449   2.120   1.207
 3183TIP3   OH231107   3.064   3.446   6.840
 3183TIP3    H131108   3.143   3.498   6.823
 3183TIP3    H231109   3.011   3.501   6.897
 3184TIP3   OH231110   2.422   2.715   8.147
 3184TIP3    H131111   2.494   2.720   8.085
 3184TIP3    H231112   2.459   2.744   8.230
 3185TIP3   OH231113   6.536   3.989   7.238
 3185TIP3    H131114   6.601   3.930   7.275
 3185TIP3    H231115   6.577   4.075   7.239
 3186TIP3   OH231116   5.991   2.628   7.808
 3186TIP3    H131117   5.913   2.645   7.861
 3186TIP3    H231118   6.024   2.715   7.786
 3187TIP3   OH231119   2.775   2.864   8.693
 3187TIP3    H131120   2.795   2.922   8.767
 3187TIP3    H231121   2.787   2.775   8.728
 3188TIP3   OH231122   1.748   2.748   0.077
 3188TIP3    H131123   1.754   2.829   0.129
 3188TIP3    H231124   1.726   2.778   8.850
 3189TIP3   OH231125   4.537   5.262   0.602
 3189TIP3    H131126   4.448   5.266   0.637
 3189TIP3    H231127   4.590   5.226   0.673
 3190TIP3   OH231128   3.965   3.681   0.259
 3190TIP3    H131129   4.003   3.599   0.226
 3190TIP3    H231130   3.910   3.653   0.332
 3191TIP3   OH231131   4.086   0.245   1.420
 3191TIP3    H131132   4.131   0.329   1.424
 3191TIP3    H231133   4.106   0.203   1.504
 3192TIP3   OH231134   3.553   4.704   0.035
 3192TIP3    H131135   3.495   4.725   8.822
 3192TIP3    H231136   3.494   4.677   0.105
 3193TIP3   OH231137   3.587   3.497   8.681
 3193TIP3    H131138   3.513   3.499   8.741
 3193TIP3    H231139   3.546   3.501   8.594
 3194TIP3   OH231140   5.698   6.205   2.055
 3194TIP3    H131141   5.635   6.271   2.027
 3194TIP3    H231142   5.783   6.243   2.033
 3195TIP3   OH231143   5.964   1.260   1.460
 3195TIP3    H131144   5.874   1.267   1.491
 3195TIP3    H231145   5.969   1.172   1.422
 3196TIP3   OH231146   4.105   2.027   8.133
 3196TIP3    H131147   4.016   2.010   8.165
 3196TIP3    H231148   4.131   2.106   8.179
 3197TIP3   OH231149   2.576   6.166   0.202
 3197TIP3    H131150   2.526   6.085   0.193
 3197TIP3    H231151   2.517   6.225   0.250
 3198TIP3   OH231152   3.649   2.056   7.553
 3198TIP3    H131153   3.603   2.140   7.546
 3198TIP3    H231154   3.742   2.080   7.556
 3199TIP3   OH231155   6.158   3.485   0.930
 3199TIP3    H131156   6.213   3.407   0.933
 3199TIP3    H231157   6.205   3.549   0.984
 3200TIP3   OH231158   5.258   1.217   8.434
 3200TIP3    H131159   5.313   1.139   8.438
 3200TIP3    H231160   5.253   1.237   8.340
 3201TIP3   OH231161   0.908   4.457   6.974
 3201TIP3    H131162   0.815   4.468   6.954
 3201TIP3    H231163   0.952   4.522   6.918
 3202TIP3   OH231164   4.157   5.055   8.331
 3202TIP3    H131165   4.223   5.056   8.261
 3202TIP3    H231166   4.196   5.107   8.401
 3203TIP3   OH231167   6.579   3.488   7.271
 3203TIP3    H131168   6.602   3.477   7.364
 3203TIP3    H231169   6.523   3.566   7.270
 3204TIP3   OH231170   1.368   2.159   7.574
 3204TIP3    H131171   1.336   2.131   7.488
 3204TIP3    H231172   1.450   2.206   7.554
 3205TIP3   OH231173   0.123   0.877   7.920
 3205TIP3    H131174   0.099   0.828   7.998
 3205TIP3    H231175   0.137   0.809   7.853
 3206TIP3   OH231176   1.982   1.871   7.301
 3206TIP3    H131177   1.949   1.857   7.213
 3206TIP3    H231178   1.939   1.804   7.354
 3207TIP3   OH231179   0.901   5.998   7.969
 3207TIP3    H131180   0.986   6.034   7.994
 3207TIP3    H231181   0.910   5.980   7.875
 3208TIP3   OH231182   4.596   3.698   8.460
 3208TIP3    H131183   4.563   3.629   8.403
 3208TIP3    H231184   4.690   3.702   8.440
 3209TIP3   OH231185   2.063   1.432   0.893
 3209TIP3    H131186   2.125   1.373   0.850
 3209TIP3    H231187   2.055   1.506   0.833
 3210TIP3   OH231188   1.205   3.964   8.378
 3210TIP3    H131189   1.201   3.868   8.369
 3210TIP3    H231190   1.187   3.980   8.470
 3211TIP3   OH231191   2.336   0.517   1.678
 3211TIP3    H131192   2.316   0.607   1.652
 3211TIP3    H231193   2.284   0.503   1.758
 3212TIP3   OH231194   3.347   1.262   8.013
 3212TIP3    H131195   3.255   1.271   7.985
 3212TIP3    H231196   3.341   1.220   8.099
 3213TIP3   OH231197   1.953   3.512   1.685
 3213TIP3    H131198   1.919   3.497   1.774
 3213TIP3    H231199   1.907   3.449   1.631
 3214TIP3   OH231200   1.920   6.026   1.179
 3214TIP3    H131201   1.936   6.119   1.196
 3214TIP3    H231202   1.825   6.018   1.177
 3215TIP3   OH231203   0.693   3.883   1.151
 3215TIP3    H131204   0.746   3.838   1.085
 3215TIP3    H231205   0.747   3.878   1.231
 3216TIP3   OH231206   5.844   0.982   7.326
 3216TIP3    H131207   5.928   1.026   7.315
 3216TIP3    H231208   5.866   0.897   7.364
 3217TIP3   OH231209   6.110   0.652   7.114
 3217TIP3    H131210   6.200   0.637   7.143
 3217TIP3    H231211   6.112   0.738   7.073
 3218TIP3   OH231212   3.503   5.001   7.806
 3218TIP3    H131213   3.456   4.930   7.849
 3218TIP3    H231214   3.544   5.050   7.877
 3219TIP3   OH231215   3.969   3.384   1.679
 3219TIP3    H131216   3.957   3.469   1.721
 3219TIP3    H231217   3.957   3.402   1.586
 3220TIP3   OH231218   0.157   6.466   1.797
 3220TIP3    H131219   0.141   6.373   1.816
 3220TIP3    H231220   0.156   6.508   1.883
 3221TIP3   OH231221   6.261   1.933   0.454
 3221TIP3    H131222   6.207   1.881   0.514
 3221TIP3    H231223   6.210   1.938   0.374
 3222TIP3   OH231224   0.315   2.781   6.547
 3222TIP3    H131225   0.303   2.873   6.573
 3222TIP3    H231226   0.272   2.731   6.617
 3223TIP3   OH231227   4.282   0.871   2.238
 3223TIP3    H131228   4.282   0.797   2.298
 3223TIP3    H231229   4.232   0.939   2.283
 3224TIP3   OH231230   4.289   6.028   8.804
 3224TIP3    H131231   4.341   6.051   8.727
 3224TIP3    H231232   4.287   5.933   8.805
 3225TIP3   OH231233   5.034   2.241   0.600
 3225TIP3    H131234   5.064   2.332   0.599
 3225TIP3    H231235   5.067   2.204   0.518
 3226TIP3   OH231236   4.176   4.967   0.334
 3226TIP3    H131237   4.103   4.932   0.283
 3226TIP3    H231238   4.139   5.043   0.379
 3227TIP3   OH231239   2.527   5.040   7.856
 3227TIP3    H131240   2.497   5.050   7.765
 3227TIP3    H231241   2.536   4.945   7.868
 3228TIP3   OH231242   2.778   5.493   0.572
 3228TIP3    H131243   2.735   5.535   0.498
 3228TIP3    H231244   2.720   5.509   0.646
 3229TIP3   OH231245   0.397   0.376   0.153
 3229TIP3    H131246   0.481   0.373   0.198
 3229TIP3    H231247   0.401   0.305   0.089
 3230TIP3   OH231248   4.514   3.179   7.897
 3230TIP3    H131249   4.505   3.085   7.881
 3230TIP3    H231250   4.596   3.203   7.854
 3231TIP3   OH231251   0.065   1.109   7.767
 3231TIP3    H131252   0.068   1.070   7.680
 3231TIP3    H231253   0.075   1.035   7.827
 3232TIP3   OH231254   4.949   0.929   6.951
 3232TIP3    H131255   4.924   0.841   6.980
 3232TIP3    H231256   4.890   0.947   6.877
 3233TIP3   OH231257   5.885   1.061   8.550
 3233TIP3    H131258   5.826   1.096   8.483
 3233TIP3    H231259   5.876   1.121   8.623
 3234TIP3   OH231260   6.305   5.579   8.549
 3234TIP3    H131261   6.384   5.614   8.588
 3234TIP3    H231262   6.326   5.572   8.455
 3235TIP3   OH231263   1.664   2.894   7.695
 3235TIP3    H131264   1.590   2.895   7.756
 3235TIP3    H231265   1.631   2.847   7.618
 3236TIP3   OH231266   3.888   6.709   1.180
 3236TIP3    H131267   3.893   6.630   1.126
 3236TIP3    H231268   3.961   6.700   1.242
 3237TIP3   OH231269   5.248   2.312   8.199
 3237TIP3    H131270   5.276   2.221   8.186
 3237TIP3    H231271   5.242   2.347   8.110
 3238TIP3   OH231272   1.322   4.555   7.822
 3238TIP3    H131273   1.309   4.617   7.750
 3238TIP3    H231274   1.392   4.594   7.874
 3239TIP3   OH231275   2.487   1.608   7.456
 3239TIP3    H131276   2.519   1.692   7.487
 3239TIP3    H231277   2.477   1.619   7.361
 3240TIP3   OH231278   3.310   2.817   0.502
 3240TIP3    H131279   3.350   2.792   0.586
 3240TIP3    H231280   3.368   2.883   0.467
 3241TIP3   OH231281   5.202   6.089   8.049
 3241TIP3    H131282   5.272   6.024   8.045
 3241TIP3    H231283   5.123   6.039   8.070
 3242TIP3   OH231284   1.897   3.013   2.300
 3242TIP3    H131285   1.890   2.919   2.283
 3242TIP3    H231286   1.880   3.054   2.215
 3243TIP3   OH231287   2.746   5.839   1.770
 3243TIP3    H131288   2.675   5.900   1.790
 3243TIP3    H231289   2.823   5.877   1.813
 3244TIP3   OH231290   0.005   5.574   0.722
 3244TIP3    H131291   6.773   5.508   0.784
 3244TIP3    H231292   0.053   5.523   0.657
 3245TIP3   OH231293   4.502   0.439   0.134
 3245TIP3    H131294   4.535   0.456   0.046
 3245TIP3    H231295   4.430   0.376   0.121
 3246TIP3   OH231296   5.110   2.268   2.342
 3246TIP3    H131297   5.137   2.198   2.401
 3246TIP3    H231298   5.026   2.297   2.377
 3247TIP3   OH231299   5.432   0.765   2.402
 3247TIP3    H131300   5.483   0.788   2.480
 3247TIP3    H231301   5.477   0.689   2.365
 3248TIP3   OH231302   5.890   3.828   8.199
 3248TIP3    H131303   5.885   3.878   8.117
 3248TIP3    H231304   5.964   3.866   8.246
 3249TIP3   OH231305   4.970   4.207   0.300
 3249TIP3    H131306   4.934   4.204   0.211
 3249TIP3    H231307   5.013   4.292   0.306
 3250TIP3   OH231308   3.288   5.640   8.026
 3250TIP3    H131309   3.339   5.559   8.022
 3250TIP3    H231310   3.323   5.686   8.102
 3251TIP3   OH231311   6.535   1.892   1.946
 3251TIP3    H131312   6.583   1.909   1.864
 3251TIP3    H231313   6.584   1.823   1.989
 3252TIP3   OH231314   1.553   2.438   7.991
 3252TIP3    H131315   1.500   2.365   8.022
 3252TIP3    H231316   1.615   2.399   7.929
 3253TIP3   OH231317   4.158   2.444   1.608
 3253TIP3    H131318   4.180   2.519   1.554
 3253TIP3    H231319   4.224   2.444   1.678
 3254TIP3   OH231320   3.911   2.871   7.748
 3254TIP3    H131321   3.848   2.815   7.793
 3254TIP3    H231322   3.859   2.921   7.685
 3255TIP3   OH231323   4.827   1.832   6.958
 3255TIP3    H131324   4.916   1.803   6.938
 3255TIP3    H231325   4.785   1.840   6.873
 3256TIP3   OH231326   0.550   3.546   0.966
 3256TIP3    H131327   0.498   3.540   0.885
 3256TIP3    H231328   0.520   3.626   1.008
 3257TIP3   OH231329   6.612   3.253   0.790
 3257TIP3    H131330   6.576   3.279   0.705
 3257TIP3    H231331   6.678   3.188   0.770
 3258TIP3   OH231332   0.932   6.572   2.072
 3258TIP3    H131333   0.941   6.516   1.995
 3258TIP3    H231334   0.838   6.585   2.081
 3259TIP3   OH231335   1.340   0.738   8.574
 3259TIP3    H131336   1.410   0.798   8.550
 3259TIP3    H231337   1.378   0.651   8.563
 3260TIP3   OH231338   0.068   5.429   7.643
 3260TIP3    H131339   0.024   5.401   7.562
 3260TIP3    H231340   0.153   5.385   7.641
 3261TIP3   OH231341   1.581   0.987   7.570
 3261TIP3    H131342   1.588   1.081   7.557
 3261TIP3    H231343   1.634   0.949   7.500
 3262TIP3   OH231344   6.422   4.565   8.598
 3262TIP3    H131345   6.433   4.659   8.610
 3262TIP3    H231346   6.468   4.525   8.672
 3263TIP3   OH231347   5.506   3.443   7.741
 3263TIP3    H131348   5.467   3.461   7.655
 3263TIP3    H231349   5.514   3.529   7.782
 3264TIP3   OH231350   2.403   6.561   1.828
 3264TIP3    H131351   2.360   6.556   1.913
 3264TIP3    H231352   2.496   6.548   1.847
 3265TIP3   OH231353   1.246   6.709   8.696
 3265TIP3    H131354   1.251   6.765   8.774
 3265TIP3    H231355   1.236   6.771   8.623
 3266TIP3   OH231356   3.272   6.322   1.770
 3266TIP3    H131357   3.337   6.311   1.701
 3266TIP3    H231358   3.265   6.235   1.811
 3267TIP3   OH231359   5.574   1.972   1.642
 3267TIP3    H131360   5.635   1.952   1.571
 3267TIP3    H231361   5.487   1.953   1.606
 3268TIP3   OH231362   4.904   4.493   0.211
 3268TIP3    H131363   4.884   4.586   0.221
 3268TIP3    H231364   4.823   4.455   0.176
 3269TIP3   OH231365   3.742   3.721   8.074
 3269TIP3    H131366   3.653   3.707   8.105
 3269TIP3    H231367   3.755   3.653   8.007
 3270TIP3   OH231368   6.375   5.140   8.503
 3270TIP3    H131369   6.389   5.084   8.427
 3270TIP3    H231370   6.284   5.169   8.494
 3271TIP3   OH231371   2.654   5.953   8.373
 3271TIP3    H131372   2.658   5.905   8.290
 3271TIP3    H231373   2.684   5.890   8.439
 3272TIP3   OH231374   4.010   1.156   7.796
 3272TIP3    H131375   3.975   1.206   7.870
 3272TIP3    H231376   4.016   1.066   7.829
 3273TIP3   OH231377   6.673   5.925   0.738
 3273TIP3    H131378   6.657   5.856   0.674
 3273TIP3    H231379   6.629   5.895   0.818
 3274TIP3   OH231380   4.844   4.908   6.755
 3274TIP3    H131381   4.894   4.911   6.836
 3274TIP3    H231382   4.908   4.930   6.687
 3275TIP3   OH231383   1.148   2.667   0.214
 3275TIP3    H131384   1.221   2.723   0.186
 3275TIP3    H231385   1.181   2.578   0.202
 3276TIP3   OH231386   5.979   1.518   6.353
 3276TIP3    H131387   5.918   1.445   6.348
 3276TIP3    H231388   5.992   1.533   6.446
 3277TIP3   OH231389   2.801   5.148   7.280
 3277TIP3    H131390   2.828   5.221   7.336
 3277TIP3    H231391   2.853   5.074   7.312
 3278TIP3   OH231392   1.632   4.884   0.730
 3278TIP3    H131393   1.582   4.808   0.760
 3278TIP3    H231394   1.715   4.847   0.698
 3279TIP3   OH231395   5.420   3.139   8.334
 3279TIP3    H131396   5.326   3.124   8.327
 3279TIP3    H231397   5.433   3.173   8.422
 3280TIP3   OH231398   4.459   0.936   1.801
 3280TIP3    H131399   4.521   1.002   1.831
 3280TIP3    H231400   4.383   0.947   1.858
 3281TIP3   OH231401   0.657   2.745   8.227
 3281TIP3    H131402   0.579   2.795   8.205
 3281TIP3    H231403   0.669   2.685   8.154
 3282TIP3   OH231404   5.144   1.504   8.289
 3282TIP3    H131405   5.224   1.516   8.238
 3282TIP3    H231406   5.173   1.500   8.380
 3283TIP3   OH231407   5.141   6.526   7.541
 3283TIP3    H131408   5.120   6.612   7.506
 3283TIP3    H231409   5.235   6.516   7.524
 3284TIP3   OH231410   5.927   3.609   7.720
 3284TIP3    H131411   6.015   3.647   7.711
 3284TIP3    H231412   5.927   3.535   7.659
 3285TIP3   OH231413   1.611   6.240   0.536
 3285TIP3    H131414   1.574   6.328   0.549
 3285TIP3    H231415   1.541   6.180   0.563
 3286TIP3   OH231416   3.243   1.766   0.616
 3286TIP3    H131417   3.306   1.821   0.663
 3286TIP3    H231418   3.259   1.678   0.651
 3287TIP3   OH231419   0.691   3.091   1.679
 3287TIP3    H131420   0.752   3.164   1.686
 3287TIP3    H231421   0.622   3.123   1.621
 3288TIP3   OH231422   1.000   5.849   7.362
 3288TIP3    H131423   1.067   5.857   7.430
 3288TIP3    H231424   1.001   5.756   7.339
 3289TIP3   OH231425   4.399   3.296   8.118
 3289TIP3    H131426   4.472   3.260   8.067
 3289TIP3    H231427   4.367   3.369   8.066
 3290TIP3   OH231428   1.875   5.558   7.684
 3290TIP3    H131429   1.881   5.547   7.779
 3290TIP3    H231430   1.945   5.502   7.649
 3291TIP3   OH231431   0.090   2.685   0.836
 3291TIP3    H131432   0.088   2.599   0.878
 3291TIP3    H231433   0.016   2.684   0.776
 3292TIP3   OH231434   1.671   4.733   1.665
 3292TIP3    H131435   1.731   4.804   1.685
 3292TIP3    H231436   1.676   4.676   1.742
 3293TIP3   OH231437   5.248   5.659   7.934
 3293TIP3    H131438   5.256   5.648   7.839
 3293TIP3    H231439   5.284   5.746   7.952
 3294TIP3   OH231440   3.608   0.114   8.345
 3294TIP3    H131441   3.523   0.069   8.349
 3294TIP3    H231442   3.589   0.203   8.375
 3295TIP3   OH231443   3.142   6.654   8.281
 3295TIP3    H131444   3.048   6.633   8.282
 3295TIP3    H231445   3.162   6.674   8.190
 3296TIP3   OH231446   6.690   0.276   0.837
 3296TIP3    H131447   6.624   0.332   0.878
 3296TIP3    H231448   6.658   0.263   0.748
 3297TIP3   OH231449   5.335   3.681   0.463
 3297TIP3    H131450   5.318   3.759   0.516
 3297TIP3    H231451   5.409   3.638   0.506
 3298TIP3   OH231452   5.872   5.991   7.998
 3298TIP3    H131453   5.873   6.027   8.087
 3298TIP3    H231454   5.889   5.897   8.011
 3299TIP3   OH231455   2.319   5.402   0.524
 3299TIP3    H131456   2.261   5.366   0.590
 3299TIP3    H231457   2.333   5.330   0.462
 3300TIP3   OH231458   2.618   4.273   7.931
 3300TIP3    H131459   2.634   4.235   8.018
 3300TIP3    H231460   2.665   4.216   7.871
 3301TIP3   OH231461   2.212   0.930   0.135
 3301TIP3    H131462   2.195   0.889   0.221
 3301TIP3    H231463   2.132   0.914   0.085
 3302TIP3   OH231464   3.585   2.957   0.400
 3302TIP3    H131465   3.564   2.994   0.486
 3302TIP3    H231466   3.614   2.868   0.419
 3303TIP3   OH231467   5.721   5.835   0.802
 3303TIP3    H131468   5.780   5.826   0.728
 3303TIP3    H231469   5.775   5.873   0.872
 3304TIP3   OH231470   3.664   0.831   7.427
 3304TIP3    H131471   3.653   0.737   7.440
 3304TIP3    H231472   3.581   0.860   7.389
 3305TIP3   OH231473   1.809   1.859   7.726
 3305TIP3    H131474   1.736   1.919   7.710
 3305TIP3    H231475   1.882   1.896   7.676
 3306TIP3   OH231476   2.434   6.391   8.748
 3306TIP3    H131477   2.344   6.416   8.771
 3306TIP3    H231478   2.476   6.475   8.728
 3307TIP3   OH231479   0.332   1.202   7.714
 3307TIP3    H131480   0.247   1.208   7.759
 3307TIP3    H231481   0.372   1.288   7.727
 3308TIP3   OH231482   3.092   3.737   7.723
 3308TIP3    H131483   3.127   3.654   7.691
 3308TIP3    H231484   2.998   3.731   7.708
 3309TIP3   OH231485   5.520   6.700   1.228
 3309TIP3    H131486   5.513   6.739   1.315
 3309TIP3    H231487   5.477   6.615   1.237
 3310TIP3   OH231488   2.510   1.301   7.782
 3310TIP3    H131489   2.579   1.298   7.717
 3310TIP3    H231490   2.431   1.322   7.732
 3311TIP3   OH231491   0.470   5.005   1.668
 3311TIP3    H131492   0.492   5.042   1.582
 3311TIP3    H231493   0.496   5.074   1.729
 3312TIP3   OH231494   2.568   1.505   6.919
 3312TIP3    H131495   2.552   1.528   7.010
 3312TIP3    H231496   2.652   1.458   6.921
 3313TIP3   OH231497   2.514   5.935   1.028
 3313TIP3    H131498   2.464   5.995   0.973
 3313TIP3    H231499   2.596   5.921   0.980
 3314TIP3   OH231500   4.040   1.191   1.720
 3314TIP3    H131501   4.003   1.249   1.653
 3314TIP3    H231502   3.994   1.215   1.800
 3315TIP3   OH231503   5.977   2.527   6.958
 3315TIP3    H131504   6.006   2.529   7.049
 3315TIP3    H231505   5.972   2.619   6.932
 3316TIP3   OH231506   6.389   3.818   0.403
 3316TIP3    H131507   6.449   3.870   0.458
 3316TIP3    H231508   6.339   3.766   0.465
 3317TIP3   OH231509   4.714   4.603   8.824
 3317TIP3    H131510   4.792   4.549   8.812
 3317TIP3    H231511   4.643   4.550   8.787
 3318TIP3   OH231512   6.403   3.596   2.882
 3318TIP3    H131513   6.311   3.570   2.878
 3318TIP3    H231514   6.427   3.584   2.974
 3319TIP3   OH231515   5.308   3.308   1.278
 3319TIP3    H131516   5.221   3.284   1.310
 3319TIP3    H231517   5.331   3.239   1.217
 3320TIP3   OH231518   4.207   0.602   0.951
 3320TIP3    H131519   4.286   0.555   0.925
 3320TIP3    H231520   4.191   0.576   1.041
 3321TIP3   OH231521   1.764   6.625   7.203
 3321TIP3    H131522   1.822   6.688   7.245
 3321TIP3    H231523   1.783   6.542   7.246
 3322TIP3   OH231524   0.115   1.617   0.609
 3322TIP3    H131525   0.207   1.617   0.582
 3322TIP3    H231526   0.082   1.532   0.580
 3323TIP3   OH231527   0.017   0.191   8.423
 3323TIP3    H131528   0.091   0.136   8.450
 3323TIP3    H231529   6.747   0.168   8.483
 3324TIP3   OH231530   3.819   4.550   6.885
 3324TIP3    H131531   3.797   4.521   6.974
 3324TIP3    H231532   3.915   4.553   6.884
 3325TIP3   OH231533   4.084   6.112   7.550
 3325TIP3    H131534   4.104   6.019   7.562
 3325TIP3    H231535   4.140   6.140   7.477
 3326TIP3   OH231536   4.583   2.824   1.451
 3326TIP3    H131537   4.645   2.887   1.414
 3326TIP3    H231538   4.637   2.763   1.500
 3327TIP3   OH231539   6.318   2.180   0.264
 3327TIP3    H131540   6.397   2.129   0.282
 3327TIP3    H231541   6.283   2.142   0.184
 3328TIP3   OH231542   6.194   0.343   7.304
 3328TIP3    H131543   6.117   0.329   7.359
 3328TIP3    H231544   6.161   0.340   7.214
 3329TIP3   OH231545   2.688   3.438   0.063
 3329TIP3    H131546   2.648   3.488   8.853
 3329TIP3    H231547   2.773   3.410   0.028
 3330TIP3   OH231548   5.553   0.998   1.161
 3330TIP3    H131549   5.629   0.977   1.106
 3330TIP3    H231550   5.496   0.922   1.153
 3331TIP3   OH231551   3.502   2.190   8.394
 3331TIP3    H131552   3.423   2.174   8.446
 3331TIP3    H231553   3.507   2.116   8.334
 3332TIP3   OH231554   1.077   5.865   8.253
 3332TIP3    H131555   1.059   5.945   8.303
 3332TIP3    H231556   1.120   5.895   8.173
 3333TIP3   OH231557   2.017   2.262   1.462
 3333TIP3    H131558   2.055   2.338   1.506
 3333TIP3    H231559   2.019   2.193   1.528
 3334TIP3   OH231560   4.134   6.357   0.391
 3334TIP3    H131561   4.175   6.276   0.421
 3334TIP3    H231562   4.043   6.351   0.420
 3335TIP3   OH231563   6.227   1.464   6.249
 3335TIP3    H131564   6.131   1.466   6.254
 3335TIP3    H231565   6.247   1.507   6.166
 3336TIP3   OH231566   3.124   3.579   8.177
 3336TIP3    H131567   3.102   3.495   8.137
 3336TIP3    H231568   3.115   3.563   8.271
 3337TIP3   OH231569   6.158   2.656   2.269
 3337TIP3    H131570   6.098   2.595   2.312
 3337TIP3    H231571   6.241   2.645   2.314
 3338TIP3   OH231572   6.027   3.371   7.139
 3338TIP3    H131573   6.115   3.374   7.175
 3338TIP3    H231574   6.029   3.433   7.066
 3339TIP3   OH231575   1.729   3.424   1.362
 3339TIP3    H131576   1.718   3.329   1.364
 3339TIP3    H231577   1.677   3.456   1.436
 3340TIP3   OH231578   2.977   4.727   1.970
 3340TIP3    H131579   2.986   4.812   1.927
 3340TIP3    H231580   3.066   4.705   1.998
 3341TIP3   OH231581   4.046   6.556   7.984
 3341TIP3    H131582   4.041   6.649   7.961
 3341TIP3    H231583   4.134   6.544   8.020
 3342TIP3   OH231584   5.638   5.964   7.354
 3342TIP3    H131585   5.703   5.989   7.420
 3342TIP3    H231586   5.671   6.001   7.273
 3343TIP3   OH231587   0.623   0.778   0.497
 3343TIP3    H131588   0.706   0.826   0.489
 3343TIP3    H231589   0.556   0.843   0.477
 3344TIP3   OH231590   3.823   3.297   8.071
 3344TIP3    H131591   3.877   3.263   7.999
 3344TIP3    H231592   3.828   3.228   8.138
 3345TIP3   OH231593   1.866   3.721   7.674
 3345TIP3    H131594   1.906   3.636   7.690
 3345TIP3    H231595   1.794   3.726   7.737
 3346TIP3   OH231596   5.676   2.113   1.906
 3346TIP3    H131597   5.647   2.176   1.840
 3346TIP3    H231598   5.600   2.099   1.961
 3347TIP3   OH231599   1.129   2.026   5.948
 3347TIP3    H131600   1.131   1.934   5.975
 3347TIP3    H231601   1.041   2.040   5.914
 3348TIP3   OH231602   3.831   2.961   6.234
 3348TIP3    H131603   3.778   3.015   6.177
 3348TIP3    H231604   3.804   2.985   6.323
 3349TIP3   OH231605   6.593   3.911   1.274
 3349TIP3    H131606   6.608   3.961   1.354
 3349TIP3    H231607   6.557   3.827   1.306
 3350TIP3   OH231608   0.333   6.496   7.005
 3350TIP3    H131609   0.367   6.526   6.922
 3350TIP3    H231610   0.362   6.562   7.069
 3351TIP3   OH231611   0.529   5.258   8.145
 3351TIP3    H131612   0.565   5.342   8.174
 3351TIP3    H231613   0.604   5.200   8.140
 3352TIP3   OH231614   2.116   4.027   0.664
 3352TIP3    H131615   2.183   4.044   0.598
 3352TIP3    H231616   2.100   3.932   0.658
 3353TIP3   OH231617   5.983   3.879   8.628
 3353TIP3    H131618   6.039   3.874   8.550
 3353TIP3    H231619   6.040   3.851   8.699
 3354TIP3   OH231620   1.371   3.867   0.876
 3354TIP3    H131621   1.436   3.930   0.907
 3354TIP3    H231622   1.412   3.782   0.888
 3355TIP3   OH231623   0.018   6.027   2.181
 3355TIP3    H131624   6.764   5.949   2.198
 3355TIP3    H231625   0.095   5.993   2.135
 3356TIP3   OH231626   2.418   0.152   1.059
 3356TIP3    H131627   2.398   0.146   1.152
 3356TIP3    H231628   2.501   0.105   1.049
 3357TIP3   OH231629   5.733   0.829   1.949
 3357TIP3    H131630   5.774   0.831   1.862
 3357TIP3    H231631   5.805   0.848   2.009
 3358TIP3   OH231632   2.983   3.167   1.625
 3358TIP3    H131633   3.065   3.183   1.671
 3358TIP3    H231634   2.970   3.073   1.631
 3359TIP3   OH231635   5.274   1.152   7.151
 3359TIP3    H131636   5.306   1.065   7.126
 3359TIP3    H231637   5.347   1.211   7.130
 3360TIP3   OH231638   3.130   2.229   1.988
 3360TIP3    H131639   3.085   2.254   1.907
 3360TIP3    H231640   3.114   2.302   2.048
 3361TIP3   OH231641   1.332   4.628   8.194
 3361TIP3    H131642   1.295   4.700   8.244
 3361TIP3    H231643   1.379   4.669   8.121
 3362TIP3   OH231644   1.773   1.623   1.096
 3362TIP3    H131645   1.722   1.703   1.085
 3362TIP3    H231646   1.747   1.567   1.023
 3363TIP3   OH231647   4.885   1.342   7.112
 3363TIP3    H131648   4.954   1.310   7.170
 3363TIP3    H231649   4.824   1.269   7.105
 3364TIP3   OH231650   6.735   4.949   1.396
 3364TIP3    H131651   6.728   4.922   1.488
 3364TIP3    H231652   0.019   4.915   1.367
 3365TIP3   OH231653   5.805   5.417   0.569
 3365TIP3    H131654   5.839   5.330   0.551
 3365TIP3    H231655   5.857   5.448   0.644
 3366TIP3   OH231656   2.441   1.220   0.591
 3366TIP3    H131657   2.515   1.181   0.636
 3366TIP3    H231658   2.480   1.281   0.529
 3367TIP3   OH231659   0.356   0.154   1.044
 3367TIP3    H131660   0.393   0.209   0.975
 3367TIP3    H231661   0.413   0.077   1.047
 3368TIP3   OH231662   2.095   4.864   7.212
 3368TIP3    H131663   2.119   4.814   7.290
 3368TIP3    H231664   2.145   4.945   7.220
 3369TIP3   OH231665   5.327   5.080   0.720
 3369TIP3    H131666   5.342   5.021   0.793
 3369TIP3    H231667   5.379   5.158   0.740
 3370TIP3   OH231668   2.244   5.756   0.889
 3370TIP3    H131669   2.206   5.697   0.824
 3370TIP3    H231670   2.234   5.843   0.852
 3371TIP3   OH231671   4.827   0.164   7.528
 3371TIP3    H131672   4.791   0.252   7.518
 3371TIP3    H231673   4.812   0.142   7.619
 3372TIP3   OH231674   5.969   1.841   7.637
 3372TIP3    H131675   6.030   1.864   7.707
 3372TIP3    H231676   5.925   1.923   7.616
 3373TIP3   OH231677   1.494   2.969   8.486
 3373TIP3    H131678   1.478   2.933   8.399
 3373TIP3    H231679   1.448   3.052   8.487
 3374TIP3   OH231680   6.685   3.646   1.441
 3374TIP3    H131681   6.741   3.696   1.501
 3374TIP3    H231682   6.622   3.602   1.498
 3375TIP3   OH231683   3.300   0.679   0.621
 3375TIP3    H131684   3.335   0.655   0.707
 3375TIP3    H231685   3.261   0.765   0.635
 3376TIP3   OH231686   3.481   3.187   7.293
 3376TIP3    H131687   3.569   3.178   7.257
 3376TIP3    H231688   3.487   3.260   7.354
 3377TIP3   OH231689   3.954   5.883   0.129
 3377TIP3    H131690   3.874   5.833   0.142
 3377TIP3    H231691   4.022   5.832   0.172
 3378TIP3   OH231692   0.513   4.180   0.128
 3378TIP3    H131693   0.522   4.240   0.203
 3378TIP3    H231694   0.580   4.114   0.142
 3379TIP3   OH231695   6.118   4.402   1.895
 3379TIP3    H131696   6.035   4.362   1.869
 3379TIP3    H231697   6.136   4.365   1.982
 3380TIP3   OH231698   4.507   2.374   7.855
 3380TIP3    H131699   4.582   2.406   7.805
 3380TIP3    H231700   4.431   2.410   7.810
 3381TIP3   OH231701   0.174   3.673   0.857
 3381TIP3    H131702   0.104   3.608   0.866
 3381TIP3    H231703   0.253   3.621   0.840
 3382TIP3   OH231704   3.071   0.658   6.204
 3382TIP3    H131705   3.056   0.616   6.288
 3382TIP3    H231706   3.132   0.729   6.223
 3383TIP3   OH231707   0.088   3.691   0.595
 3383TIP3    H131708   0.018   3.627   0.591
 3383TIP3    H231709   0.106   3.701   0.688
 3384TIP3   OH231710   4.439   0.232   6.893
 3384TIP3    H131711   4.363   0.269   6.849
 3384TIP3    H231712   4.476   0.171   6.830
 3385TIP3   OH231713   2.847   2.087   6.939
 3385TIP3    H131714   2.809   2.057   7.021
 3385TIP3    H231715   2.942   2.076   6.951
 3386TIP3   OH231716   6.494   3.813   2.709
 3386TIP3    H131717   6.505   3.898   2.752
 3386TIP3    H231718   6.482   3.751   2.781
 3387TIP3   OH231719   2.706   2.407   8.106
 3387TIP3    H131720   2.682   2.357   8.028
 3387TIP3    H231721   2.701   2.344   8.178
 3388TIP3   OH231722   4.384   1.948   0.274
 3388TIP3    H131723   4.399   1.867   0.322
 3388TIP3    H231724   4.294   1.972   0.295
 3389TIP3   OH231725   0.963   3.733   1.808
 3389TIP3    H131726   1.050   3.712   1.842
 3389TIP3    H231727   0.904   3.677   1.858
 3390TIP3   OH231728   1.074   3.612   0.413
 3390TIP3    H131729   0.987   3.644   0.436
 3390TIP3    H231730   1.129   3.634   0.488
 3391TIP3   OH231731   3.727   4.922   8.685
 3391TIP3    H131732   3.782   4.844   8.691
 3391TIP3    H231733   3.638   4.889   8.674
 3392TIP3   OH231734   2.581   1.729   8.292
 3392TIP3    H131735   2.545   1.783   8.362
 3392TIP3    H231736   2.647   1.675   8.335
 3393TIP3   OH231737   1.224   0.430   7.959
 3393TIP3    H131738   1.209   0.510   7.908
 3393TIP3    H231739   1.145   0.420   8.012
 3394TIP3   OH231740   0.174   1.939   6.782
 3394TIP3    H131741   0.269   1.929   6.779
 3394TIP3    H231742   0.140   1.855   6.752
 3395TIP3   OH231743   6.337   2.962   8.169
 3395TIP3    H131744   6.410   2.947   8.229
 3395TIP3    H231745   6.374   2.947   8.082
 3396TIP3   OH231746   0.881   4.945   7.624
 3396TIP3    H131747   0.908   5.037   7.614
 3396TIP3    H231748   0.828   4.945   7.704
 3397TIP3   OH231749   6.498   5.638   0.060
 3397TIP3    H131750   6.450   5.692   8.858
 3397TIP3    H231751   6.505   5.691   0.139
 3398TIP3   OH231752   0.747   3.795   7.497
 3398TIP3    H131753   0.668   3.762   7.454
 3398TIP3    H231754   0.719   3.876   7.539
 3399TIP3   OH231755   3.916   2.581   1.338
 3399TIP3    H131756   3.979   2.510   1.320
 3399TIP3    H231757   3.836   2.535   1.365
 3400TIP3   OH231758   6.722   0.955   2.531
 3400TIP3    H131759   6.681   0.974   2.447
 3400TIP3    H231760   6.680   0.875   2.561
 3401TIP3   OH231761   4.195   0.723   7.802
 3401TIP3    H131762   4.256   0.680   7.861
 3401TIP3    H231763   4.172   0.656   7.738
 3402TIP3   OH231764   6.747   3.937   2.602
 3402TIP3    H131765   6.726   4.007   2.540
 3402TIP3    H231766   6.662   3.906   2.632
 3403TIP3   OH231767   2.319   2.983   8.029
 3403TIP3    H131768   2.273   3.059   8.063
 3403TIP3    H231769   2.403   2.983   8.075
 3404TIP3   OH231770   2.769   1.262   0.064
 3404TIP3    H131771   2.742   1.206   0.137
 3404TIP3    H231772   2.863   1.242   0.053
 3405TIP3   OH231773   4.621   0.856   8.428
 3405TIP3    H131774   4.651   0.796   8.360
 3405TIP3    H231775   4.701   0.895   8.463
 3406TIP3   OH231776   2.197   5.376   1.602
 3406TIP3    H131777   2.118   5.428   1.615
 3406TIP3    H231778   2.177   5.322   1.526
 3407TIP3   OH231779   4.968   0.520   2.488
 3407TIP3    H131780   5.033   0.569   2.439
 3407TIP3    H231781   5.015   0.487   2.565
 3408TIP3   OH231782   6.585   5.393   8.813
 3408TIP3    H131783   6.495   5.367   8.833
 3408TIP3    H231784   6.592   5.482   8.845
 3409TIP3   OH231785   0.009   5.550   1.213
 3409TIP3    H131786   6.782   5.462   1.186
 3409TIP3    H231787   6.733   5.586   1.258
 3410TIP3   OH231788   4.892   2.851   6.672
 3410TIP3    H131789   4.820   2.854   6.735
 3410TIP3    H231790   4.854   2.809   6.594
 3411TIP3   OH231791   4.197   2.779   2.184
 3411TIP3    H131792   4.203   2.759   2.278
 3411TIP3    H231793   4.103   2.789   2.168
 3412TIP3   OH231794   2.549   5.250   2.111
 3412TIP3    H131795   2.491   5.324   2.129
 3412TIP3    H231796   2.630   5.272   2.156
 3413TIP3   OH231797   1.394   4.079   1.474
 3413TIP3    H131798   1.356   4.011   1.418
 3413TIP3    H231799   1.388   4.159   1.421
 3414TIP3   OH231800   5.133   2.429   0.026
 3414TIP3    H131801   5.156   2.433   8.793
 3414TIP3    H231802   5.217   2.420   0.071
 3415TIP3   OH231803   3.189   2.080   7.746
 3415TIP3    H131804   3.193   1.990   7.778
 3415TIP3    H231805   3.163   2.132   7.822
 3416TIP3   OH231806   6.245   4.559   1.519
 3416TIP3    H131807   6.237   4.569   1.424
 3416TIP3    H231808   6.176   4.498   1.543
 3417TIP3   OH231809   6.643   1.168   0.228
 3417TIP3    H131810   6.733   1.136   0.225
 3417TIP3    H231811   6.590   1.089   0.224
 3418TIP3   OH231812   4.992   4.387   1.708
 3418TIP3    H131813   4.982   4.418   1.798
 3418TIP3    H231814   4.909   4.408   1.666
 3419TIP3   OH231815   1.058   5.986   0.601
 3419TIP3    H131816   1.006   6.062   0.627
 3419TIP3    H231817   1.109   5.964   0.678
 3420TIP3   OH231818   1.105   2.744   8.107
 3420TIP3    H131819   1.056   2.688   8.167
 3420TIP3    H231820   1.149   2.684   8.048
 3421TIP3   OH231821   3.372   2.594   8.605
 3421TIP3    H131822   3.377   2.682   8.642
 3421TIP3    H231823   3.454   2.582   8.557
 3422TIP3   OH231824   4.179   4.565   1.247
 3422TIP3    H131825   4.181   4.505   1.322
 3422TIP3    H231826   4.245   4.530   1.187
 3423TIP3   OH231827   0.116   6.046   0.809
 3423TIP3    H131828   0.058   5.998   0.751
 3423TIP3    H231829   0.171   6.099   0.751
 3424TIP3   OH231830   2.288   5.594   0.286
 3424TIP3    H131831   2.286   5.505   0.322
 3424TIP3    H231832   2.344   5.643   0.345
 3425TIP3   OH231833   1.114   4.496   8.643
 3425TIP3    H131834   1.144   4.494   8.552
 3425TIP3    H231835   1.162   4.425   8.686
 3426TIP3   OH231836   3.895   1.443   0.465
 3426TIP3    H131837   3.810   1.401   0.452
 3426TIP3    H231838   3.948   1.413   0.392
 3427TIP3   OH231839   2.331   0.352   0.891
 3427TIP3    H131840   2.261   0.401   0.934
 3427TIP3    H231841   2.374   0.305   0.962
 3428TIP3   OH231842   3.064   6.552   0.705
 3428TIP3    H131843   3.122   6.491   0.660
 3428TIP3    H231844   3.121   6.623   0.734
 3429TIP3   OH231845   4.512   1.524   1.336
 3429TIP3    H131846   4.604   1.534   1.310
 3429TIP3    H231847   4.506   1.569   1.420
 3430TIP3   OH231848   0.752   3.679   2.000
 3430TIP3    H131849   0.670   3.629   1.993
 3430TIP3    H231850   0.743   3.729   2.081
 3431TIP3   OH231851   5.081   6.201   1.574
 3431TIP3    H131852   5.061   6.223   1.665
 3431TIP3    H231853   5.149   6.264   1.549
 3432TIP3   OH231854   6.477   0.600   1.451
 3432TIP3    H131855   6.522   0.521   1.421
 3432TIP3    H231856   6.506   0.612   1.541
 3433TIP3   OH231857   3.832   5.522   1.973
 3433TIP3    H131858   3.916   5.565   1.989
 3433TIP3    H231859   3.812   5.477   2.055
 3434TIP3   OH231860   1.825   2.715   0.678
 3434TIP3    H131861   1.895   2.740   0.617
 3434TIP3    H231862   1.801   2.626   0.651
 3435TIP3   OH231863   4.065   5.552   1.015
 3435TIP3    H131864   4.145   5.597   1.040
 3435TIP3    H231865   4.060   5.562   0.920
 3436TIP3   OH231866   3.347   4.636   6.594
 3436TIP3    H131867   3.282   4.699   6.564
 3436TIP3    H231868   3.421   4.648   6.535
 3437TIP3   OH231869   6.557   6.093   0.550
 3437TIP3    H131870   6.640   6.111   0.505
 3437TIP3    H231871   6.581   6.039   0.625
 3438TIP3   OH231872   1.795   2.055   2.189
 3438TIP3    H131873   1.730   2.020   2.250
 3438TIP3    H231874   1.878   2.020   2.221
 3439TIP3   OH231875   5.208   5.033   6.823
 3439TIP3    H131876   5.272   5.091   6.781
 3439TIP3    H231877   5.251   5.006   6.905
 3440TIP3   OH231878   4.785   0.256   1.415
 3440TIP3    H131879   4.788   0.323   1.483
 3440TIP3    H231880   4.877   0.237   1.396
 3441TIP3   OH231881   5.679   4.465   1.384
 3441TIP3    H131882   5.738   4.530   1.422
 3441TIP3    H231883   5.732   4.421   1.317
 3442TIP3   OH231884   1.552   4.427   8.426
 3442TIP3    H131885   1.608   4.360   8.466
 3442TIP3    H231886   1.547   4.497   8.491
 3443TIP3   OH231887   3.453   0.099   1.524
 3443TIP3    H131888   3.541   0.112   1.487
 3443TIP3    H231889   3.430   0.185   1.560
 3444TIP3   OH231890   0.335   0.600   0.306
 3444TIP3    H131891   0.365   0.519   0.266
 3444TIP3    H231892   0.314   0.577   0.397
 3445TIP3   OH231893   3.175   2.995   6.978
 3445TIP3    H131894   3.079   3.004   6.980
 3445TIP3    H231895   3.204   3.073   6.930
 3446TIP3   OH231896   6.438   0.294   1.005
 3446TIP3    H131897   6.403   0.361   1.064
 3446TIP3    H231898   6.360   0.252   0.967
 3447TIP3   OH231899   2.608   1.183   0.836
 3447TIP3    H131900   2.549   1.182   0.911
 3447TIP3    H231901   2.690   1.147   0.869
 3448TIP3   OH231902   5.265   0.491   0.829
 3448TIP3    H131903   5.244   0.463   0.918
 3448TIP3    H231904   5.336   0.434   0.802
 3449TIP3   OH231905   2.524   0.102   8.356
 3449TIP3    H131906   2.613   0.128   8.379
 3449TIP3    H231907   2.469   0.144   8.423
 3450TIP3   OH231908   1.976   5.652   0.396
 3450TIP3    H131909   1.897   5.702   0.416
 3450TIP3    H231910   2.029   5.712   0.343
 3451TIP3   OH231911   0.990   0.597   7.131
 3451TIP3    H131912   0.942   0.624   7.210
 3451TIP3    H231913   0.971   0.666   7.067
 3452TIP3   OH231914   4.607   0.800   6.860
 3452TIP3    H131915   4.657   0.806   6.942
 3452TIP3    H231916   4.663   0.841   6.795
 3453TIP3   OH231917   6.152   5.771   7.727
 3453TIP3    H131918   6.138   5.866   7.726
 3453TIP3    H231919   6.247   5.761   7.734
 3454TIP3   OH231920   5.461   2.100   7.418
 3454TIP3    H131921   5.412   2.180   7.400
 3454TIP3    H231922   5.409   2.054   7.484
 3455TIP3   OH231923   2.895   2.063   6.444
 3455TIP3    H131924   2.805   2.088   6.421
 3455TIP3    H231925   2.911   2.107   6.527
 3456TIP3   OH231926   0.245   3.733   2.731
 3456TIP3    H131927   0.189   3.673   2.681
 3456TIP3    H231928   0.333   3.694   2.726
 3457TIP3   OH231929   1.532   3.583   7.379
 3457TIP3    H131930   1.540   3.630   7.463
 3457TIP3    H231931   1.492   3.499   7.403
 3458TIP3   OH231932   5.043   3.367   8.422
 3458TIP3    H131933   4.977   3.357   8.354
 3458TIP3    H231934   4.995   3.407   8.495
 3459TIP3   OH231935   2.538   2.914   6.073
 3459TIP3    H131936   2.543   3.007   6.049
 3459TIP3    H231937   2.629   2.885   6.076
 3460TIP3   OH231938   5.679   2.713   1.174
 3460TIP3    H131939   5.660   2.623   1.150
 3460TIP3    H231940   5.725   2.749   1.098
 3461TIP3   OH231941   0.819   0.783   7.922
 3461TIP3    H131942   0.803   0.846   7.992
 3461TIP3    H231943   0.734   0.771   7.880
 3462TIP3   OH231944   1.460   6.479   0.730
 3462TIP3    H131945   1.425   6.475   0.641
 3462TIP3    H231946   1.432   6.397   0.771
 3463TIP3   OH231947   0.010   3.213   7.521
 3463TIP3    H131948   0.063   3.196   7.599
 3463TIP3    H231949   0.025   3.136   7.465
 3464TIP3   OH231950   1.927   1.476   7.696
 3464TIP3    H131951   1.923   1.481   7.791
 3464TIP3    H231952   1.836   1.488   7.667
 3465TIP3   OH231953   1.451   3.605   0.862
 3465TIP3    H131954   1.499   3.565   0.789
 3465TIP3    H231955   1.401   3.533   0.900
 3466TIP3   OH231956   4.783   0.130   0.127
 3466TIP3    H131957   4.872   0.163   0.135
 3466TIP3    H231958   4.751   0.167   0.045
 3467TIP3   OH231959   0.026   5.896   7.318
 3467TIP3    H131960   0.079   5.833   7.269
 3467TIP3    H231961   0.089   5.956   7.357
 3468TIP3   OH231962   3.635   2.410   8.390
 3468TIP3    H131963   3.723   2.388   8.421
 3468TIP3    H231964   3.592   2.325   8.381
 3469TIP3   OH231965   3.630   0.997   6.782
 3469TIP3    H131966   3.640   1.089   6.804
 3469TIP3    H231967   3.689   0.984   6.707
 3470TIP3   OH231968   0.778   6.136   0.674
 3470TIP3    H131969   0.752   6.226   0.656
 3470TIP3    H231970   0.715   6.105   0.739
 3471TIP3   OH231971   4.465   3.488   8.332
 3471TIP3    H131972   4.498   3.425   8.396
 3471TIP3    H231973   4.447   3.436   8.254
 3472TIP3   OH231974   4.969   5.661   7.904
 3472TIP3    H131975   5.058   5.666   7.938
 3472TIP3    H231976   4.978   5.679   7.811
 3473TIP3   OH231977   1.804   4.922   1.803
 3473TIP3    H131978   1.897   4.938   1.820
 3473TIP3    H231979   1.767   4.903   1.889
 3474TIP3   OH231980   3.314   5.646   1.134
 3474TIP3    H131981   3.267   5.569   1.102
 3474TIP3    H231982   3.372   5.612   1.203
 3475TIP3   OH231983   6.754   6.115   1.045
 3475TIP3    H131984   6.687   6.047   1.036
 3475TIP3    H231985   0.028   6.082   0.995
 3476TIP3   OH231986   5.346   6.735   0.278
 3476TIP3    H131987   5.252   6.723   0.290
 3476TIP3    H231988   5.365   6.692   0.194
 3477TIP3   OH231989   3.085   3.026   0.602
 3477TIP3    H131990   3.057   2.964   0.669
 3477TIP3    H231991   3.170   2.994   0.572
 3478TIP3   OH231992   6.002   0.822   6.614
 3478TIP3    H131993   6.049   0.806   6.532
 3478TIP3    H231994   5.969   0.736   6.638
 3479TIP3   OH231995   0.799   6.754   7.321
 3479TIP3    H131996   0.792   0.023   7.254
 3479TIP3    H231997   0.831   6.799   7.399
 3480TIP3   OH231998   3.559   3.954   0.212
 3480TIP3    H131999   3.546   3.932   0.304
 3480TIP3    H232000   3.616   4.031   0.213
 3481TIP3   OH232001   5.939   6.086   1.718
 3481TIP3    H132002   5.955   6.102   1.625
 3481TIP3    H232003   5.918   6.172   1.754
 3482TIP3   OH232004   6.567   4.884   7.528
 3482TIP3    H132005   6.645   4.832   7.548
 3482TIP3    H232006   6.517   4.829   7.467
 3483TIP3   OH232007   4.682   3.791   7.579
 3483TIP3    H132008   4.629   3.870   7.564
 3483TIP3    H232009   4.699   3.757   7.491
 3484TIP3   OH232010   5.753   4.190   1.447
 3484TIP3    H132011   5.796   4.238   1.377
 3484TIP3    H232012   5.712   4.258   1.501
 3485TIP3   OH232013   1.605   1.324   8.309
 3485TIP3    H132014   1.520   1.368   8.308
 3485TIP3    H232015   1.633   1.323   8.217
 3486TIP3   OH232016   0.618   0.899   7.747
 3486TIP3    H132017   0.558   0.947   7.803
 3486TIP3    H232018   0.578   0.901   7.660
 3487TIP3   OH232019   6.262   2.939   1.829
 3487TIP3    H132020   6.277   2.877   1.758
 3487TIP3    H232021   6.306   2.901   1.905
 3488TIP3   OH232022   2.025   2.263   8.561
 3488TIP3    H132023   1.941   2.301   8.537
 3488TIP3    H232024   2.087   2.336   8.558
 3489TIP3   OH232025   4.552   4.297   7.358
 3489TIP3    H132026   4.512   4.372   7.403
 3489TIP3    H232027   4.628   4.335   7.314
 3490TIP3   OH232028   4.146   2.191   6.714
 3490TIP3    H132029   4.109   2.106   6.738
 3490TIP3    H232030   4.204   2.171   6.640
 3491TIP3   OH232031   4.696   3.220   0.996
 3491TIP3    H132032   4.638   3.274   0.944
 3491TIP3    H232033   4.643   3.143   1.020
 3492TIP3   OH232034   4.921   6.265   2.066
 3492TIP3    H132035   4.827   6.252   2.053
 3492TIP3    H232036   4.942   6.211   2.142
 3493TIP3   OH232037   3.668   0.363   1.415
 3493TIP3    H132038   3.685   0.269   1.406
 3493TIP3    H232039   3.596   0.369   1.478
 3494TIP3   OH232040   3.825   5.860   0.926
 3494TIP3    H132041   3.839   5.947   0.888
 3494TIP3    H232042   3.913   5.824   0.939
 3495TIP3   OH232043   0.828   6.222   0.998
 3495TIP3    H132044   0.818   6.219   1.093
 3495TIP3    H232045   0.824   6.131   0.969
 3496TIP3   OH232046   4.996   0.732   8.096
 3496TIP3    H132047   5.075   0.679   8.090
 3496TIP3    H232048   5.026   0.822   8.079
 3497TIP3   OH232049   0.459   6.137   7.801
 3497TIP3    H132050   0.462   6.232   7.790
 3497TIP3    H232051   0.521   6.120   7.872
 3498TIP3   OH232052   3.343   2.204   7.095
 3498TIP3    H132053   3.258   2.248   7.106
 3498TIP3    H232054   3.407   2.276   7.093
 3499TIP3   OH232055   0.489   4.357   0.354
 3499TIP3    H132056   0.416   4.417   0.341
 3499TIP3    H232057   0.466   4.309   0.435
 3500TIP3   OH232058   3.657   3.662   0.120
 3500TIP3    H132059   3.652   3.758   0.123
 3500TIP3    H232060   3.739   3.641   0.164
 3501TIP3   OH232061   2.860   1.744   0.175
 3501TIP3    H132062   2.804   1.819   0.193
 3501TIP3    H232063   2.828   1.709   0.091
 3502TIP3   OH232064   4.802   1.671   6.571
 3502TIP3    H132065   4.853   1.715   6.503
 3502TIP3    H232066   4.774   1.742   6.630
 3503TIP3   OH232067   1.347   5.019   7.802
 3503TIP3    H132068   1.317   5.053   7.718
 3503TIP3    H232069   1.277   4.960   7.830
 3504TIP3   OH232070   1.024   0.828   6.988
 3504TIP3    H132071   1.088   0.816   6.917
 3504TIP3    H232072   1.062   0.895   7.044
 3505TIP3   OH232073   1.682   3.829   2.373
 3505TIP3    H132074   1.763   3.794   2.335
 3505TIP3    H232075   1.613   3.775   2.336
 3506TIP3   OH232076   2.315   6.600   7.958
 3506TIP3    H132077   2.335   6.604   7.864
 3506TIP3    H232078   2.388   6.645   8.000
 3507TIP3   OH232079   0.855   0.606   0.658
 3507TIP3    H132080   0.866   0.618   0.564
 3507TIP3    H232081   0.921   0.541   0.682
 3508TIP3   OH232082   3.883   1.046   0.170
 3508TIP3    H132083   3.869   0.966   0.120
 3508TIP3    H232084   3.796   1.071   0.200
 3509TIP3   OH232085   4.411   6.424   8.427
 3509TIP3    H132086   4.494   6.391   8.392
 3509TIP3    H232087   4.371   6.348   8.468
 3510TIP3   OH232088   2.347   2.012   0.919
 3510TIP3    H132089   2.290   2.087   0.903
 3510TIP3    H232090   2.360   2.010   1.014
 3511TIP3   OH232091   1.382   6.467   0.461
 3511TIP3    H132092   1.337   6.403   0.406
 3511TIP3    H232093   1.336   6.549   0.447
 3512TIP3   OH232094   4.572   1.584   1.598
 3512TIP3    H132095   4.490   1.600   1.644
 3512TIP3    H232096   4.596   1.669   1.562
 3513TIP3   OH232097   1.108   2.887   8.423
 3513TIP3    H132098   1.013   2.878   8.427
 3513TIP3    H232099   1.141   2.797   8.426
 3514TIP3   OH232100   5.788   0.222   6.437
 3514TIP3    H132101   5.827   0.178   6.513
 3514TIP3    H232102   5.839   0.192   6.362
 3515TIP3   OH232103   4.754   5.694   1.045
 3515TIP3    H132104   4.820   5.702   1.113
 3515TIP3    H232105   4.798   5.648   0.974
 3516TIP3   OH232106   3.642   4.804   1.895
 3516TIP3    H132107   3.575   4.737   1.883
 3516TIP3    H232108   3.723   4.755   1.910
 3517TIP3   OH232109   5.507   0.452   1.165
 3517TIP3    H132110   5.424   0.425   1.126
 3517TIP3    H232111   5.514   0.545   1.143
 3518TIP3   OH232112   2.776   3.362   7.098
 3518TIP3    H132113   2.767   3.289   7.038
 3518TIP3    H232114   2.687   3.394   7.111
 3519TIP3   OH232115   6.524   1.131   7.211
 3519TIP3    H132116   6.448   1.187   7.195
 3519TIP3    H232117   6.522   1.067   7.139
 3520TIP3   OH232118   0.700   0.449   7.513
 3520TIP3    H132119   0.774   0.489   7.466
 3520TIP3    H232120   0.670   0.516   7.573
 3521TIP3   OH232121   1.329   2.307   1.574
 3521TIP3    H132122   1.388   2.232   1.573
 3521TIP3    H232123   1.328   2.338   1.483
 3522TIP3   OH232124   4.290   2.217   1.840
 3522TIP3    H132125   4.327   2.183   1.759
 3522TIP3    H232126   4.323   2.307   1.845
 3523TIP3   OH232127   4.697   6.286   8.191
 3523TIP3    H132128   4.780   6.250   8.159
 3523TIP3    H232129   4.641   6.210   8.205
 3524TIP3   OH232130   2.080   5.764   7.887
 3524TIP3    H132131   2.153   5.790   7.832
 3524TIP3    H232132   2.092   5.670   7.901
 3525TIP3   OH232133   2.135   3.271   0.888
 3525TIP3    H132134   2.059   3.279   0.946
 3525TIP3    H232135   2.099   3.233   0.808
 3526TIP3   OH232136   1.669   3.112   0.504
 3526TIP3    H132137   1.679   3.202   0.472
 3526TIP3    H232138   1.574   3.101   0.514
 3527TIP3   OH232139   2.893   2.085   1.184
 3527TIP3    H132140   2.861   2.051   1.268
 3527TIP3    H232141   2.980   2.046   1.173
 3528TIP3   OH232142   1.321   0.635   7.723
 3528TIP3    H132143   1.250   0.675   7.672
 3528TIP3    H232144   1.359   0.707   7.773
 3529TIP3   OH232145   5.111   2.695   7.968
 3529TIP3    H132146   5.092   2.720   8.058
 3529TIP3    H232147   5.119   2.779   7.922
 3530TIP3   OH232148   1.525   1.922   8.019
 3530TIP3    H132149   1.605   1.965   7.991
 3530TIP3    H232150   1.493   1.878   7.940
 3531TIP3   OH232151   2.508   2.993   7.780
 3531TIP3    H132152   2.430   2.975   7.831
 3531TIP3    H232153   2.544   3.073   7.820
 3532TIP3   OH232154   6.432   5.640   1.649
 3532TIP3    H132155   6.336   5.634   1.649
 3532TIP3    H232156   6.451   5.720   1.600
 3533TIP3   OH232157   3.932   6.611   8.272
 3533TIP3    H132158   3.993   6.644   8.207
 3533TIP3    H232159   3.889   6.536   8.230
 3534TIP3   OH232160   1.847   3.232   2.121
 3534TIP3    H132161   1.831   3.308   2.177
 3534TIP3    H232162   1.761   3.205   2.091
 3535TIP3   OH232163   1.113   2.186   0.410
 3535TIP3    H132164   1.205   2.186   0.436
 3535TIP3    H232165   1.076   2.108   0.452
 3536TIP3   OH232166   3.675   0.163   6.528
 3536TIP3    H132167   3.732   0.087   6.524
 3536TIP3    H232168   3.586   0.127   6.528
 3537TIP3   OH232169   6.345   6.264   1.708
 3537TIP3    H132170   6.269   6.294   1.759
 3537TIP3    H232171   6.374   6.342   1.661
 3538TIP3   OH232172   5.434   1.226   1.012
 3538TIP3    H132173   5.383   1.276   1.076
 3538TIP3    H232174   5.487   1.166   1.064
 3539TIP3   OH232175   1.572   6.122   7.030
 3539TIP3    H132176   1.559   6.028   7.046
 3539TIP3    H232177   1.528   6.139   6.947
 3540TIP3   OH232178   2.794   4.090   7.821
 3540TIP3    H132179   2.748   4.006   7.824
 3540TIP3    H232180   2.859   4.080   7.752
 3541TIP3   OH232181   2.690   2.687   7.409
 3541TIP3    H132182   2.726   2.657   7.325
 3541TIP3    H232183   2.767   2.711   7.460
 3542TIP3   OH232184   3.481   5.999   6.962
 3542TIP3    H132185   3.408   5.983   7.022
 3542TIP3    H232186   3.550   5.940   6.992
 3543TIP3   OH232187   2.108   1.943   1.603
 3543TIP3    H132188   2.090   1.871   1.542
 3543TIP3    H232189   2.112   1.901   1.689
 3544TIP3   OH232190   6.618   0.324   0.145
 3544TIP3    H132191   6.712   0.328   0.160
 3544TIP3    H232192   6.579   0.340   0.231
 3545TIP3   OH232193   5.328   1.516   2.165
 3545TIP3    H132194   5.402   1.521   2.105
 3545TIP3    H232195   5.255   1.486   2.111
 3546TIP3   OH232196   5.534   3.660   7.905
 3546TIP3    H132197   5.597   3.615   7.962
 3546TIP3    H232198   5.577   3.743   7.884
 3547TIP3   OH232199   4.947   1.834   6.405
 3547TIP3    H132200   4.932   1.897   6.335
 3547TIP3    H232201   5.010   1.772   6.369
 3548TIP3   OH232202   3.468   0.702   0.334
 3548TIP3    H132203   3.441   0.688   0.425
 3548TIP3    H232204   3.498   0.616   0.304
 3549TIP3   OH232205   6.311   2.264   8.849
 3549TIP3    H132206   6.248   2.286   0.056
 3549TIP3    H232207   6.355   2.347   8.829
 3550TIP3   OH232208   4.251   6.220   8.523
 3550TIP3    H132209   4.203   6.143   8.493
 3550TIP3    H232210   4.333   6.186   8.557
 3551TIP3   OH232211   1.415   1.066   1.253
 3551TIP3    H132212   1.389   1.006   1.323
 3551TIP3    H232213   1.492   1.111   1.287
 3552TIP3   OH232214   1.832   5.883   1.765
 3552TIP3    H132215   1.822   5.788   1.758
 3552TIP3    H232216   1.789   5.906   1.848
 3553TIP3   OH232217   2.202   4.274   0.228
 3553TIP3    H132218   2.268   4.212   0.198
 3553TIP3    H232219   2.221   4.354   0.179
 3554TIP3   OH232220   1.834   4.627   0.475
 3554TIP3    H132221   1.858   4.587   0.392
 3554TIP3    H232222   1.820   4.720   0.454
 3555TIP3   OH232223   3.845   3.038   8.229
 3555TIP3    H132224   3.871   2.952   8.260
 3555TIP3    H232225   3.767   3.023   8.176
 3556TIP3   OH232226   5.874   0.516   6.591
 3556TIP3    H132227   5.961   0.520   6.631
 3556TIP3    H232228   5.860   0.423   6.573
 3557TIP3   OH232229   6.302   6.398   8.639
 3557TIP3    H132230   6.312   6.314   8.595
 3557TIP3    H232231   6.370   6.398   8.707
 3558TIP3   OH232232   6.230   4.606   8.785
 3558TIP3    H132233   6.150   4.556   8.766
 3558TIP3    H232234   6.292   4.578   8.718
 3559TIP3   OH232235   2.268   6.682   1.099
 3559TIP3    H132236   2.240   6.773   1.088
 3559TIP3    H232237   2.308   6.680   1.186
 3560TIP3   OH232238   5.676   3.603   1.352
 3560TIP3    H132239   5.698   3.594   1.445
 3560TIP3    H232240   5.747   3.655   1.315
 3561TIP3   OH232241   1.301   0.003   7.996
 3561TIP3    H132242   1.353   0.079   8.024
 3561TIP3    H232243   1.342   6.776   7.914
 3562TIP3   OH232244   4.984   2.429   6.565
 3562TIP3    H132245   5.041   2.432   6.642
 3562TIP3    H232246   5.027   2.486   6.501
 3563TIP3   OH232247   0.302   3.012   2.094
 3563TIP3    H132248   0.282   2.977   2.180
 3563TIP3    H232249   0.265   3.100   2.094
 3564TIP3   OH232250   2.370   4.999   1.321
 3564TIP3    H132251   2.383   5.094   1.326
 3564TIP3    H232252   2.416   4.964   1.398
 3565TIP3   OH232253   5.432   1.834   6.879
 3565TIP3    H132254   5.382   1.789   6.811
 3565TIP3    H232255   5.371   1.898   6.915
 3566TIP3   OH232256   3.275   5.161   8.783
 3566TIP3    H132257   3.210   5.102   8.822
 3566TIP3    H232258   3.222   5.229   8.740
 3567TIP3   OH232259   1.463   0.135   8.756
 3567TIP3    H132260   1.539   0.082   8.780
 3567TIP3    H232261   1.395   0.109   8.818
 3568TIP3   OH232262   5.228   0.005   7.136
 3568TIP3    H132263   5.296   0.007   7.068
 3568TIP3    H232264   5.260   0.065   7.204
 3569TIP3   OH232265   2.138   0.262   8.583
 3569TIP3    H132266   2.062   0.297   8.536
 3569TIP3    H232267   2.138   0.169   8.562
 3570TIP3   OH232268   3.140   3.823   6.360
 3570TIP3    H132269   3.211   3.826   6.425
 3570TIP3    H232270   3.110   3.732   6.362
 3571TIP3   OH232271   1.598   3.920   0.286
 3571TIP3    H132272   1.649   3.980   0.231
 3571TIP3    H232273   1.628   3.938   0.375
 3572TIP3   OH232274   4.804   1.811   0.681
 3572TIP3    H132275   4.736   1.878   0.680
 3572TIP3    H232276   4.756   1.728   0.682
 3573TIP3   OH232277   4.135   2.451   0.243
 3573TIP3    H132278   4.122   2.503   0.323
 3573TIP3    H232279   4.047   2.424   0.217
 3574TIP3   OH232280   3.599   3.021   8.096
 3574TIP3    H132281   3.558   2.935   8.090
 3574TIP3    H232282   3.537   3.075   8.145
 3575TIP3   OH232283   1.690   0.970   0.447
 3575TIP3    H132284   1.692   1.027   0.523
 3575TIP3    H232285   1.750   1.010   0.385
 3576TIP3   OH232286   2.370   5.599   1.539
 3576TIP3    H132287   2.286   5.560   1.565
 3576TIP3    H232288   2.407   5.633   1.620
 3577TIP3   OH232289   3.834   3.678   7.537
 3577TIP3    H132290   3.917   3.719   7.514
 3577TIP3    H232291   3.830   3.600   7.482
 3578TIP3   OH232292   5.133   4.980   7.794
 3578TIP3    H132293   5.224   4.958   7.771
 3578TIP3    H232294   5.081   4.919   7.741
 3579TIP3   OH232295   0.758   0.227   1.432
 3579TIP3    H132296   0.733   0.135   1.442
 3579TIP3    H232297   0.853   0.227   1.435
 3580TIP3   OH232298   6.755   0.309   7.294
 3580TIP3    H132299   6.748   0.374   7.223
 3580TIP3    H232300   0.048   0.297   7.306
 3581TIP3   OH232301   0.605   2.453   6.316
 3581TIP3    H132302   0.589   2.515   6.387
 3581TIP3    H232303   0.638   2.506   6.244
 3582TIP3   OH232304   3.550   1.730   6.651
 3582TIP3    H132305   3.594   1.645   6.663
 3582TIP3    H232306   3.480   1.712   6.589
 3583TIP3   OH232307   2.762   3.956   6.370
 3583TIP3    H132308   2.809   4.009   6.306
 3583TIP3    H232309   2.790   3.990   6.455
 3584TIP3   OH232310   5.318   1.163   0.333
 3584TIP3    H132311   5.279   1.125   0.412
 3584TIP3    H232312   5.247   1.163   0.269
 3585TIP3   OH232313   3.320   6.626   6.397
 3585TIP3    H132314   3.297   6.540   6.434
 3585TIP3    H232315   3.237   6.661   6.364
 3586TIP3   OH232316   0.591   0.081   8.384
 3586TIP3    H132317   0.579   0.155   8.324
 3586TIP3    H232318   0.685   0.078   8.399
 3587TIP3   OH232319   2.288   6.092   0.197
 3587TIP3    H132320   2.246   6.066   0.279
 3587TIP3    H232321   2.215   6.123   0.142
 3588TIP3   OH232322   1.258   5.500   7.701
 3588TIP3    H132323   1.342   5.460   7.722
 3588TIP3    H232324   1.262   5.587   7.741
 3589TIP3   OH232325   5.621   1.450   0.926
 3589TIP3    H132326   5.662   1.463   1.011
 3589TIP3    H232327   5.562   1.376   0.939
 3590TIP3   OH232328   3.759   3.773   8.716
 3590TIP3    H132329   3.775   3.687   8.756
 3590TIP3    H232330   3.840   3.793   8.670
 3591TIP3   OH232331   6.664   0.257   7.025
 3591TIP3    H132332   6.590   0.222   7.075
 3591TIP3    H232333   6.628   0.274   6.938
 3592TIP3   OH232334   6.613   4.647   0.382
 3592TIP3    H132335   6.675   4.720   0.383
 3592TIP3    H232336   6.527   4.689   0.376
 3593TIP3   OH232337   6.752   5.099   8.440
 3593TIP3    H132338   6.696   5.140   8.506
 3593TIP3    H232339   0.029   5.070   8.489
 3594TIP3   OH232340   3.632   1.260   1.942
 3594TIP3    H132341   3.683   1.203   1.884
 3594TIP3    H232342   3.660   1.349   1.919
 3595TIP3   OH232343   4.960   2.527   1.709
 3595TIP3    H132344   5.055   2.535   1.699
 3595TIP3    H232345   4.947   2.438   1.743
 3596TIP3   OH232346   6.036   3.699   2.543
 3596TIP3    H132347   5.958   3.661   2.504
 3596TIP3    H232348   6.007   3.782   2.580
 3597TIP3   OH232349   0.925   6.656   0.020
 3597TIP3    H132350   0.832   6.679   0.012
 3597TIP3    H232351   0.953   6.701   0.100
 3598TIP3   OH232352   4.090   3.861   0.463
 3598TIP3    H132353   4.179   3.843   0.433
 3598TIP3    H232354   4.034   3.832   0.391
 3599TIP3   OH232355   0.920   3.386   0.316
 3599TIP3    H132356   0.977   3.422   0.383
 3599TIP3    H232357   0.837   3.370   0.360
 3600TIP3   OH232358   3.541   1.604   2.137
 3600TIP3    H132359   3.620   1.558   2.167
 3600TIP3    H232360   3.525   1.569   2.050
 3601TIP3   OH232361   1.827   0.468   1.408
 3601TIP3    H132362   1.794   0.516   1.332
 3601TIP3    H232363   1.781   0.384   1.405
 3602TIP3   OH232364   5.052   5.329   1.542
 3602TIP3    H132365   5.002   5.403   1.576
 3602TIP3    H232366   5.105   5.299   1.616
 3603TIP3   OH232367   6.223   3.834   7.059
 3603TIP3    H132368   6.133   3.830   7.026
 3603TIP3    H232369   6.247   3.926   7.052
 3604TIP3   OH232370   5.885   3.648   8.783
 3604TIP3    H132371   5.973   3.673   8.754
 3604TIP3    H232372   5.828   3.716   8.749
 3605TIP3   OH232373   3.126   0.567   1.507
 3605TIP3    H132374   3.138   0.476   1.535
 3605TIP3    H232375   3.031   0.575   1.492
 3606TIP3   OH232376   3.378   3.190   2.378
 3606TIP3    H132377   3.444   3.167   2.443
 3606TIP3    H232378   3.425   3.245   2.315
 3607TIP3   OH232379   3.777   2.280   7.713
 3607TIP3    H132380   3.758   2.355   7.656
 3607TIP3    H232381   3.738   2.304   7.798
 3608TIP3   OH232382   6.401   4.841   0.343
 3608TIP3    H132383   6.381   4.934   0.356
 3608TIP3    H232384   6.360   4.819   0.260
 3609TIP3   OH232385   1.115   6.322   0.931
 3609TIP3    H132386   1.025   6.324   0.965
 3609TIP3    H232387   1.112   6.260   0.858
 3610TIP3   OH232388   6.501   1.514   1.656
 3610TIP3    H132389   6.439   1.564   1.602
 3610TIP3    H232390   6.454   1.497   1.738
 3611TIP3   OH232391   0.813   6.762   0.655
 3611TIP3    H132392   0.863   6.776   0.736
 3611TIP3    H232393   0.795   0.049   0.622
 3612TIP3   OH232394   0.694   6.518   8.500
 3612TIP3    H132395   0.786   6.513   8.473
 3612TIP3    H232396   0.692   6.474   8.585
 3613TIP3   OH232397   3.997   1.132   0.408
 3613TIP3    H132398   3.965   1.067   0.471
 3613TIP3    H232399   3.942   1.119   0.331
 3614TIP3   OH232400   5.062   4.813   8.539
 3614TIP3    H132401   4.968   4.827   8.553
 3614TIP3    H232402   5.066   4.731   8.488
 3615TIP3   OH232403   0.566   1.931   1.894
 3615TIP3    H132404   0.554   1.989   1.819
 3615TIP3    H232405   0.545   1.986   1.970
 3616TIP3   OH232406   3.706   1.116   0.594
 3616TIP3    H132407   3.800   1.102   0.609
 3616TIP3    H232408   3.678   1.039   0.546
 3617TIP3   OH232409   2.752   5.906   7.328
 3617TIP3    H132410   2.750   5.976   7.394
 3617TIP3    H232411   2.768   5.951   7.245
 3618TIP3   OH232412   1.468   2.726   6.751
 3618TIP3    H132413   1.532   2.720   6.822
 3618TIP3    H232414   1.383   2.719   6.795
 3619TIP3   OH232415   0.538   1.051   6.292
 3619TIP3    H132416   0.562   1.060   6.385
 3619TIP3    H232417   0.445   1.074   6.289
 3620TIP3   OH232418   2.400   0.609   2.344
 3620TIP3    H132419   2.485   0.653   2.351
 3620TIP3    H232420   2.340   0.665   2.394
 3621TIP3   OH232421   3.688   3.762   6.346
 3621TIP3    H132422   3.731   3.698   6.290
 3621TIP3    H232423   3.747   3.837   6.346
 3622TIP3   OH232424   3.832   5.860   8.105
 3622TIP3    H132425   3.869   5.841   8.018
 3622TIP3    H232426   3.773   5.934   8.091
 3623TIP3   OH232427   0.835   5.964   0.936
 3623TIP3    H132428   0.890   5.890   0.911
 3623TIP3    H232429   0.772   5.928   0.998
 3624TIP3   OH232430   5.156   1.021   1.121
 3624TIP3    H132431   5.242   0.984   1.105
 3624TIP3    H232432   5.142   1.083   1.049
 3625TIP3   OH232433   1.629   3.958   2.120
 3625TIP3    H132434   1.722   3.945   2.137
 3625TIP3    H232435   1.587   3.879   2.153
 3626TIP3   OH232436   2.153   0.445   0.420
 3626TIP3    H132437   2.201   0.442   0.503
 3626TIP3    H232438   2.217   0.419   0.354
 3627TIP3   OH232439   6.364   0.463   8.162
 3627TIP3    H132440   6.300   0.442   8.094
 3627TIP3    H232441   6.448   0.436   8.125
 3628TIP3   OH232442   1.270   3.119   7.965
 3628TIP3    H132443   1.302   3.208   7.981
 3628TIP3    H232444   1.200   3.107   8.030
 3629TIP3   OH232445   2.300   3.438   6.728
 3629TIP3    H132446   2.270   3.386   6.803
 3629TIP3    H232447   2.373   3.388   6.692
 3630TIP3   OH232448   6.491   5.891   7.471
 3630TIP3    H132449   6.577   5.874   7.434
 3630TIP3    H232450   6.508   5.953   7.543
 3631TIP3   OH232451   2.602   1.777   0.480
 3631TIP3    H132452   2.599   1.786   0.575
 3631TIP3    H232453   2.661   1.704   0.465
 3632TIP3   OH232454   2.342   2.142   7.109
 3632TIP3    H132455   2.284   2.084   7.061
 3632TIP3    H232456   2.419   2.089   7.128
 3633TIP3   OH232457   5.169   4.581   8.403
 3633TIP3    H132458   5.246   4.628   8.370
 3633TIP3    H232459   5.175   4.494   8.364
 3634TIP3   OH232460   0.355   0.010   0.551
 3634TIP3    H132461   0.289   0.075   0.525
 3634TIP3    H232462   0.341   6.737   0.491
 3635TIP3   OH232463   3.984   5.818   1.777
 3635TIP3    H132464   4.014   5.908   1.765
 3635TIP3    H232465   3.903   5.826   1.827
 3636TIP3   OH232466   3.545   5.197   8.803
 3636TIP3    H132467   3.466   5.212   8.854
 3636TIP3    H232468   3.520   5.131   8.738
 3637TIP3   OH232469   2.820   1.838   1.703
 3637TIP3    H132470   2.756   1.892   1.657
 3637TIP3    H232471   2.796   1.846   1.796
 3638TIP3   OH232472   1.741   3.746   7.064
 3638TIP3    H132473   1.819   3.801   7.073
 3638TIP3    H232474   1.668   3.808   7.062
 3639TIP3   OH232475   2.330   4.453   8.168
 3639TIP3    H132476   2.314   4.545   8.146
 3639TIP3    H232477   2.394   4.456   8.238
 3640TIP3   OH232478   4.489   3.562   7.396
 3640TIP3    H132479   4.551   3.635   7.397
 3640TIP3    H232480   4.516   3.507   7.470
 3641TIP3   OH232481   6.117   3.314   1.495
 3641TIP3    H132482   6.060   3.285   1.566
 3641TIP3    H232483   6.064   3.376   1.446
 3642TIP3   OH232484   0.947   4.639   7.867
 3642TIP3    H132485   0.984   4.612   7.783
 3642TIP3    H232486   0.852   4.643   7.851
 3643TIP3   OH232487   0.498   3.948   7.627
 3643TIP3    H132488   0.519   3.980   7.715
 3643TIP3    H232489   0.549   4.004   7.568
 3644TIP3   OH232490   3.913   4.309   8.194
 3644TIP3    H132491   3.846   4.240   8.198
 3644TIP3    H232492   3.993   4.268   8.225
 3645TIP3   OH232493   1.467   6.307   1.392
 3645TIP3    H132494   1.512   6.391   1.398
 3645TIP3    H232495   1.515   6.250   1.452
 3646TIP3   OH232496   1.496   3.473   2.060
 3646TIP3    H132497   1.487   3.380   2.083
 3646TIP3    H232498   1.464   3.478   1.969
 3647TIP3   OH232499   1.170   2.031   7.730
 3647TIP3    H132500   1.162   1.937   7.712
 3647TIP3    H232501   1.223   2.065   7.657
 3648TIP3   OH232502   0.872   0.159   0.118
 3648TIP3    H132503   0.959   0.169   0.156
 3648TIP3    H232504   0.817   0.222   0.165
 3649TIP3   OH232505   1.981   0.224   2.086
 3649TIP3    H132506   1.991   0.253   1.995
 3649TIP3    H232507   1.905   0.165   2.085
 3650TIP3   OH232508   4.873   3.098   0.031
 3650TIP3    H132509   4.810   3.035   8.854
 3650TIP3    H232510   4.929   3.045   0.088
 3651TIP3   OH232511   1.900   6.588   8.530
 3651TIP3    H132512   1.910   6.585   8.435
 3651TIP3    H232513   1.849   6.668   8.546
 3652TIP3   OH232514   0.448   3.961   0.637
 3652TIP3    H132515   0.430   3.882   0.586
 3652TIP3    H232516   0.536   3.947   0.672
 3653TIP3   OH232517   3.743   0.865   8.399
 3653TIP3    H132518   3.659   0.907   8.380
 3653TIP3    H232519   3.724   0.810   8.475
 3654TIP3   OH232520   4.224   3.729   6.996
 3654TIP3    H132521   4.240   3.713   7.089
 3654TIP3    H232522   4.296   3.786   6.968
 3655TIP3   OH232523   5.769   4.312   8.408
 3655TIP3    H132524   5.693   4.338   8.460
 3655TIP3    H232525   5.796   4.228   8.445
 3656TIP3   OH232526   0.180   4.359   2.226
 3656TIP3    H132527   0.193   4.450   2.254
 3656TIP3    H232528   0.103   4.330   2.275
 3657TIP3   OH232529   5.525   3.651   0.113
 3657TIP3    H132530   5.510   3.734   0.158
 3657TIP3    H232531   5.540   3.588   0.183
 3658TIP3   OH232532   3.656   4.612   1.165
 3658TIP3    H132533   3.684   4.689   1.214
 3658TIP3    H232534   3.655   4.542   1.229
 3659TIP3   OH232535   6.067   2.197   1.771
 3659TIP3    H132536   6.019   2.145   1.836
 3659TIP3    H232537   6.043   2.288   1.791
 3660TIP3   OH232538   4.190   6.188   0.995
 3660TIP3    H132539   4.111   6.240   0.987
 3660TIP3    H232540   4.175   6.132   1.072
 3661TIP3   OH232541   1.996   1.164   0.426
 3661TIP3    H132542   1.920   1.147   0.371
 3661TIP3    H232543   2.043   1.235   0.381
 3662TIP3   OH232544   5.662   1.952   6.748
 3662TIP3    H132545   5.647   2.022   6.685
 3662TIP3    H232546   5.576   1.937   6.788
 3663TIP3   OH232547   2.999   2.870   0.824
 3663TIP3    H132548   3.015   2.908   0.910
 3663TIP3    H232549   2.906   2.849   0.823
 3664TIP3   OH232550   5.101   3.988   0.195
 3664TIP3    H132551   5.056   4.067   0.227
 3664TIP3    H232552   5.090   3.924   0.265
 3665TIP3   OH232553   4.743   2.531   6.342
 3665TIP3    H132554   4.673   2.595   6.358
 3665TIP3    H232555   4.821   2.571   6.378
 3666TIP3   OH232556   4.360   4.616   7.081
 3666TIP3    H132557   4.392   4.527   7.068
 3666TIP3    H232558   4.371   4.659   6.996
 3667TIP3   OH232559   5.042   2.638   0.250
 3667TIP3    H132560   5.021   2.625   0.342
 3667TIP3    H232561   5.121   2.692   0.251
 3668TIP3   OH232562   5.359   0.038   6.896
 3668TIP3    H132563   5.449   0.028   6.865
 3668TIP3    H232564   5.305   0.012   6.822
 3669TIP3   OH232565   4.677   4.766   8.534
 3669TIP3    H132566   4.741   4.831   8.564
 3669TIP3    H232567   4.728   4.686   8.522
 3670TIP3   OH232568   1.120   1.291   1.294
 3670TIP3    H132569   1.036   1.311   1.335
 3670TIP3    H232570   1.184   1.308   1.363
 3671TIP3   OH232571   1.419   2.189   0.444
 3671TIP3    H132572   1.410   2.256   0.512
 3671TIP3    H232573   1.499   2.143   0.467
 3672TIP3   OH232574   5.868   5.341   1.020
 3672TIP3    H132575   5.878   5.249   1.045
 3672TIP3    H232576   5.776   5.349   0.994
 3673TIP3   OH232577   4.833   3.483   6.682
 3673TIP3    H132578   4.874   3.404   6.646
 3673TIP3    H232579   4.903   3.549   6.679
 3674TIP3   OH232580   5.562   3.698   0.920
 3674TIP3    H132581   5.614   3.650   0.984
 3674TIP3    H232582   5.500   3.633   0.886
 3675TIP3   OH232583   3.632   4.249   7.342
 3675TIP3    H132584   3.713   4.198   7.346
 3675TIP3    H232585   3.633   4.302   7.422
 3676TIP3   OH232586   2.334   1.486   0.403
 3676TIP3    H132587   2.420   1.456   0.373
 3676TIP3    H232588   2.351   1.571   0.443
 3677TIP3   OH232589   0.227   0.276   1.436
 3677TIP3    H132590   0.228   0.347   1.372
 3677TIP3    H232591   0.192   0.201   1.388
 3678TIP3   OH232592   1.584   5.104   1.485
 3678TIP3    H132593   1.670   5.089   1.525
 3678TIP3    H232594   1.522   5.090   1.557
 3679TIP3   OH232595   1.636   4.626   6.643
 3679TIP3    H132596   1.705   4.577   6.599
 3679TIP3    H232597   1.645   4.603   6.735
 3680TIP3   OH232598   4.926   3.271   0.842
 3680TIP3    H132599   4.998   3.209   0.832
 3680TIP3    H232600   4.851   3.218   0.870
 3681TIP3   OH232601   5.547   5.883   1.564
 3681TIP3    H132602   5.528   5.972   1.594
 3681TIP3    H232603   5.623   5.855   1.616
 3682TIP3   OH232604   6.439   6.318   0.621
 3682TIP3    H132605   6.476   6.235   0.590
 3682TIP3    H232606   6.488   6.386   0.575
 3683TIP3   OH232607   2.210   0.167   1.518
 3683TIP3    H132608   2.184   0.233   1.583
 3683TIP3    H232609   2.207   0.084   1.566
 3684TIP3   OH232610   2.222   4.905   1.993
 3684TIP3    H132611   2.274   4.936   2.067
 3684TIP3    H232612   2.146   4.863   2.033
 3685TIP3   OH232613   2.588   4.765   7.960
 3685TIP3    H132614   2.671   4.717   7.959
 3685TIP3    H232615   2.536   4.725   7.891
 3686TIP3   OH232616   6.261   2.742   0.588
 3686TIP3    H132617   6.255   2.765   0.496
 3686TIP3    H232618   6.213   2.659   0.595
 3687TIP3   OH232619   3.274   2.271   0.803
 3687TIP3    H132620   3.194   2.263   0.855
 3687TIP3    H232621   3.244   2.275   0.712
 3688TIP3   OH232622   3.347   6.785   0.922
 3688TIP3    H132623   3.352   0.042   0.999
 3688TIP3    H232624   3.434   6.747   0.915
 3689TIP3   OH232625   6.748   0.953   0.655
 3689TIP3    H132626   6.674   0.965   0.595
 3689TIP3    H232627   6.710   0.957   0.742
 3690TIP3   OH232628   2.489   5.405   7.118
 3690TIP3    H132629   2.445   5.458   7.185
 3690TIP3    H232630   2.582   5.427   7.129
 3691TIP3   OH232631   0.667   2.881   2.299
 3691TIP3    H132632   0.604   2.950   2.320
 3691TIP3    H232633   0.615   2.814   2.255
 3692TIP3   OH232634   3.337   5.773   6.837
 3692TIP3    H132635   3.278   5.761   6.912
 3692TIP3    H232636   3.309   5.855   6.798
 3693TIP3   OH232637   5.976   4.400   1.537
 3693TIP3    H132638   5.938   4.488   1.533
 3693TIP3    H232639   5.926   4.356   1.606
 3694TIP3   OH232640   1.878   2.120   0.251
 3694TIP3    H132641   1.911   2.170   0.176
 3694TIP3    H232642   1.950   2.120   0.314
 3695TIP3   OH232643   1.227   3.225   1.280
 3695TIP3    H132644   1.318   3.208   1.258
 3695TIP3    H232645   1.209   3.168   1.355
 3696TIP3   OH232646   4.191   0.571   2.670
 3696TIP3    H132647   4.124   0.635   2.695
 3696TIP3    H232648   4.151   0.486   2.689
 3697TIP3   OH232649   2.563   6.608   7.541
 3697TIP3    H132650   2.516   6.525   7.527
 3697TIP3    H232651   2.600   6.629   7.455
 3698TIP3   OH232652   0.951   4.064   8.123
 3698TIP3    H132653   0.969   4.103   8.038
 3698TIP3    H232654   0.994   4.123   8.185
 3699TIP3   OH232655   4.037   2.817   1.255
 3699TIP3    H132656   3.987   2.737   1.274
 3699TIP3    H232657   4.030   2.869   1.335
 3700TIP3   OH232658   4.623   5.883   0.875
 3700TIP3    H132659   4.644   5.976   0.888
 3700TIP3    H232660   4.666   5.838   0.948
 3701TIP3   OH232661   1.523   3.667   1.447
 3701TIP3    H132662   1.512   3.731   1.517
 3701TIP3    H232663   1.516   3.582   1.490
 3702TIP3   OH232664   2.311   4.777   0.089
 3702TIP3    H132665   2.296   4.769   0.183
 3702TIP3    H232666   2.378   4.845   0.082
 3703TIP3   OH232667   4.339   2.920   8.845
 3703TIP3    H132668   4.391   2.994   0.014
 3703TIP3    H232669   4.403   2.857   8.812
 3704TIP3   OH232670   1.950   2.045   6.171
 3704TIP3    H132671   1.954   2.139   6.151
 3704TIP3    H232672   1.864   2.018   6.139
 3705TIP3   OH232673   5.850   2.229   0.737
 3705TIP3    H132674   5.907   2.241   0.814
 3705TIP3    H232675   5.794   2.306   0.737
 3706TIP3   OH232676   1.747   1.143   8.454
 3706TIP3    H132677   1.683   1.201   8.413
 3706TIP3    H232678   1.829   1.163   8.410
 3707TIP3   OH232679   4.578   5.815   0.219
 3707TIP3    H132680   4.611   5.891   0.267
 3707TIP3    H232681   4.656   5.779   0.175
 3708TIP3   OH232682   1.894   2.758   7.706
 3708TIP3    H132683   1.968   2.813   7.731
 3708TIP3    H232684   1.817   2.803   7.739
 3709TIP3   OH232685   4.839   5.354   2.491
 3709TIP3    H132686   4.912   5.415   2.475
 3709TIP3    H232687   4.766   5.410   2.516
 3710TIP3   OH232688   2.066   0.065   0.851
 3710TIP3    H132689   1.972   0.067   0.831
 3710TIP3    H232690   2.072   0.100   0.940
 3711TIP3   OH232691   6.208   1.599   6.840
 3711TIP3    H132692   6.205   1.680   6.890
 3711TIP3    H232693   6.145   1.541   6.883
 3712TIP3   OH232694   0.426   5.117   1.254
 3712TIP3    H132695   0.348   5.061   1.253
 3712TIP3    H232696   0.446   5.133   1.162
 3713TIP3   OH232697   6.177   0.640   8.244
 3713TIP3    H132698   6.257   0.600   8.208
 3713TIP3    H232699   6.123   0.658   8.168
 3714TIP3   OH232700   3.590   2.824   1.558
 3714TIP3    H132701   3.556   2.872   1.634
 3714TIP3    H232702   3.676   2.795   1.586
 3715TIP3   OH232703   3.346   4.609   1.220
 3715TIP3    H132704   3.383   4.541   1.165
 3715TIP3    H232705   3.391   4.600   1.304
 3716TIP3   OH232706   0.857   3.049   8.783
 3716TIP3    H132707   0.784   3.077   8.837
 3716TIP3    H232708   0.864   3.116   8.715
 3717TIP3   OH232709   6.713   3.949   1.041
 3717TIP3    H132710   6.660   3.935   1.119
 3717TIP3    H232711   6.651   3.943   0.968
 3718TIP3   OH232712   3.746   0.120   8.712
 3718TIP3    H132713   3.660   0.140   8.675
 3718TIP3    H232714   3.758   0.026   8.696
 3719TIP3   OH232715   1.452   6.370   0.155
 3719TIP3    H132716   1.497   6.349   0.073
 3719TIP3    H232717   1.490   6.309   0.219
 3720TIP3   OH232718   4.608   1.731   1.054
 3720TIP3    H132719   4.538   1.770   1.001
 3720TIP3    H232720   4.673   1.800   1.062
 3721TIP3   OH232721   6.551   3.973   8.224
 3721TIP3    H132722   6.502   4.052   8.200
 3721TIP3    H232723   6.643   3.998   8.215
 3722TIP3   OH232724   1.008   4.630   8.175
 3722TIP3    H132725   1.071   4.587   8.231
 3722TIP3    H232726   1.047   4.628   8.088
 3723TIP3   OH232727   3.607   2.930   1.817
 3723TIP3    H132728   3.619   2.882   1.898
 3723TIP3    H232729   3.605   3.022   1.843
 3724TIP3   OH232730   6.561   1.227   1.986
 3724TIP3    H132731   6.579   1.316   2.016
 3724TIP3    H232732   6.552   1.176   2.066
 3725TIP3   OH232733   3.190   0.357   7.780
 3725TIP3    H132734   3.119   0.355   7.844
 3725TIP3    H232735   3.160   0.416   7.711
 3726TIP3   OH232736   4.506   1.036   6.572
 3726TIP3    H132737   4.576   1.044   6.508
 3726TIP3    H232738   4.486   1.127   6.596
 3727TIP3   OH232739   4.610   3.530   2.034
 3727TIP3    H132740   4.663   3.577   2.098
 3727TIP3    H232741   4.542   3.487   2.086
 3728TIP3   OH232742   1.873   0.404   7.803
 3728TIP3    H132743   1.910   0.493   7.811
 3728TIP3    H232744   1.780   0.416   7.819
 3729TIP3   OH232745   3.884   1.275   8.097
 3729TIP3    H132746   3.946   1.282   8.169
 3729TIP3    H232747   3.880   1.363   8.060
 3730TIP3   OH232748   0.474   1.022   1.074
 3730TIP3    H132749   0.497   1.048   0.984
 3730TIP3    H232750   0.425   1.097   1.109
 3731TIP3   OH232751   3.370   4.149   7.459
 3731TIP3    H132752   3.334   4.070   7.499
 3731TIP3    H232753   3.311   4.168   7.386
 3732TIP3   OH232754   0.182   5.079   2.403
 3732TIP3    H132755   0.184   4.984   2.393
 3732TIP3    H232756   0.225   5.113   2.324
 3733TIP3   OH232757   0.964   6.566   8.352
 3733TIP3    H132758   0.952   6.590   8.444
 3733TIP3    H232759   1.041   6.616   8.324
 3734TIP3   OH232760   2.129   5.636   7.450
 3734TIP3    H132761   2.065   5.587   7.502
 3734TIP3    H232762   2.148   5.579   7.376
 3735TIP3   OH232763   0.580   4.295   7.271
 3735TIP3    H132764   0.614   4.261   7.188
 3735TIP3    H232765   0.620   4.382   7.279
 3736TIP3   OH232766   0.241   3.425   1.749
 3736TIP3    H132767   0.192   3.508   1.747
 3736TIP3    H232768   0.268   3.412   1.658
 3737TIP3   OH232769   3.697   0.121   0.368
 3737TIP3    H132770   3.697   0.214   0.348
 3737TIP3    H232771   3.760   0.083   0.307
 3738TIP3   OH232772   6.095   1.297   8.215
 3738TIP3    H132773   6.116   1.251   8.296
 3738TIP3    H232774   6.143   1.380   8.221
 3739TIP3   OH232775   4.357   0.895   8.334
 3739TIP3    H132776   4.449   0.868   8.333
 3739TIP3    H232777   4.354   0.975   8.282
 3740TIP3   OH232778   5.899   5.414   8.425
 3740TIP3    H132779   5.893   5.425   8.520
 3740TIP3    H232780   5.918   5.501   8.392
 3741TIP3   OH232781   5.219   5.028   2.245
 3741TIP3    H132782   5.135   4.991   2.219
 3741TIP3    H232783   5.279   5.003   2.174
 3742TIP3   OH232784   4.348   6.384   1.911
 3742TIP3    H132785   4.424   6.435   1.938
 3742TIP3    H232786   4.298   6.370   1.991
 3743TIP3   OH232787   6.676   4.782   0.679
 3743TIP3    H132788   6.712   4.859   0.723
 3743TIP3    H232789   6.583   4.782   0.703
 3744TIP3   OH232790   4.983   4.980   0.266
 3744TIP3    H132791   4.945   4.898   0.235
 3744TIP3    H232792   4.932   5.048   0.222
 3745TIP3   OH232793   6.594   2.996   1.338
 3745TIP3    H132794   6.517   2.963   1.291
 3745TIP3    H232795   6.666   2.940   1.309
 3746TIP3   OH232796   6.311   1.927   1.605
 3746TIP3    H132797   6.390   1.955   1.559
 3746TIP3    H232798   6.306   1.832   1.590
 3747TIP3   OH232799   3.597   3.288   0.276
 3747TIP3    H132800   3.529   3.222   0.259
 3747TIP3    H232801   3.549   3.370   0.284
 3748TIP3   OH232802   3.569   5.097   0.353
 3748TIP3    H132803   3.515   5.176   0.346
 3748TIP3    H232804   3.565   5.057   0.267
 3749TIP3   OH232805   1.031   4.487   7.604
 3749TIP3    H132806   1.029   4.504   7.510
 3749TIP3    H232807   1.121   4.459   7.621
 3750TIP3   OH232808   3.857   0.847   6.911
 3750TIP3    H132809   3.901   0.928   6.887
 3750TIP3    H232810   3.848   0.852   7.006
 3751TIP3   OH232811   3.281   2.210   1.678
 3751TIP3    H132812   3.257   2.175   1.592
 3751TIP3    H232813   3.201   2.201   1.731
 3752TIP3   OH232814   6.024   3.713   0.824
 3752TIP3    H132815   6.041   3.788   0.882
 3752TIP3    H232816   6.078   3.643   0.858
 3753TIP3   OH232817   1.586   4.603   7.594
 3753TIP3    H132818   1.595   4.579   7.686
 3753TIP3    H232819   1.511   4.663   7.592
 3754TIP3   OH232820   1.314   5.645   8.599
 3754TIP3    H132821   1.250   5.621   8.533
 3754TIP3    H232822   1.396   5.607   8.568
 3755TIP3   OH232823   0.420   5.615   8.173
 3755TIP3    H132824   0.331   5.594   8.199
 3755TIP3    H232825   0.472   5.606   8.253
 3756TIP3   OH232826   0.461   3.127   8.701
 3756TIP3    H132827   0.398   3.129   8.773
 3756TIP3    H232828   0.514   3.207   8.712
 3757TIP3   OH232829   0.829   2.865   8.405
 3757TIP3    H132830   0.813   2.814   8.325
 3757TIP3    H232831   0.753   2.923   8.412
 3758TIP3   OH232832   6.380   1.379   7.498
 3758TIP3    H132833   6.436   1.336   7.433
 3758TIP3    H232834   6.372   1.469   7.466
 3759TIP3   OH232835   5.414   3.066   8.066
 3759TIP3    H132836   5.437   3.100   8.152
 3759TIP3    H232837   5.377   3.141   8.019
 3760TIP3   OH232838   3.457   0.227   0.643
 3760TIP3    H132839   3.380   0.285   0.642
 3760TIP3    H232840   3.473   0.208   0.551
 3761TIP3   OH232841   4.653   5.477   8.742
 3761TIP3    H132842   4.643   5.522   8.658
 3761TIP3    H232843   4.574   5.501   8.791
 3762TIP3   OH232844   2.800   4.566   8.219
 3762TIP3    H132845   2.713   4.553   8.255
 3762TIP3    H232846   2.859   4.551   8.292
 3763TIP3   OH232847   2.869   2.990   7.470
 3763TIP3    H132848   2.952   3.016   7.510
 3763TIP3    H232849   2.848   3.061   7.410
 3764TIP3   OH232850   1.376   2.714   7.252
 3764TIP3    H132851   1.387   2.659   7.174
 3764TIP3    H232852   1.381   2.804   7.219
 3765TIP3   OH232853   5.720   0.183   1.392
 3765TIP3    H132854   5.750   0.182   1.483
 3765TIP3    H232855   5.627   0.164   1.397
 3766TIP3   OH232856   5.861   3.946   0.303
 3766TIP3    H132857   5.886   4.034   0.330
 3766TIP3    H232858   5.942   3.895   0.307
 3767TIP3   OH232859   1.968   2.093   7.980
 3767TIP3    H132860   2.014   2.078   7.897
 3767TIP3    H232861   1.952   2.005   8.014
 3768TIP3   OH232862   3.608   0.780   8.645
 3768TIP3    H132863   3.522   0.763   8.606
 3768TIP3    H232864   3.600   0.751   8.735
 3769TIP3   OH232865   5.931   6.495   7.759
 3769TIP3    H132866   5.984   6.476   7.837
 3769TIP3    H232867   5.853   6.540   7.793
 3770TIP3   OH232868   6.478   5.491   6.722
 3770TIP3    H132869   6.507   5.406   6.689
 3770TIP3    H232870   6.512   5.554   6.659
 3771TIP3   OH232871   5.141   6.548   8.740
 3771TIP3    H132872   5.051   6.572   8.765
 3771TIP3    H232873   5.162   6.605   8.666
 3772TIP3   OH232874   0.173   1.272   8.411
 3772TIP3    H132875   0.079   1.258   8.401
 3772TIP3    H232876   0.192   1.247   8.501
 3773TIP3   OH232877   3.029   0.487   7.588
 3773TIP3    H132878   2.942   0.522   7.606
 3773TIP3    H232879   3.062   0.538   7.514
 3774TIP3   OH232880   5.043   6.173   1.839
 3774TIP3    H132881   5.115   6.124   1.880
 3774TIP3    H232882   4.992   6.207   1.912
 3775TIP3   OH232883   5.722   0.001   0.257
 3775TIP3    H132884   5.763   0.086   0.268
 3775TIP3    H232885   5.724   6.786   0.162
 3776TIP3   OH232886   3.590   6.679   0.807
 3776TIP3    H132887   3.572   6.700   0.715
 3776TIP3    H232888   3.682   6.699   0.819
 3777TIP3   OH232889   2.729   6.538   7.890
 3777TIP3    H132890   2.689   6.623   7.910
 3777TIP3    H232891   2.822   6.557   7.880
 3778TIP3   OH232892   0.934   1.981   6.707
 3778TIP3    H132893   1.026   1.978   6.681
 3778TIP3    H232894   0.936   1.966   6.802
 3779TIP3   OH232895   4.521   1.771   1.937
 3779TIP3    H132896   4.503   1.849   1.989
 3779TIP3    H232897   4.459   1.776   1.864
 3780TIP3   OH232898   2.644   5.431   8.203
 3780TIP3    H132899   2.640   5.375   8.126
 3780TIP3    H232900   2.723   5.403   8.249
 3781TIP3   OH232901   2.611   4.954   0.377
 3781TIP3    H132902   2.547   4.937   0.308
 3781TIP3    H232903   2.617   4.872   0.426
 3782TIP3   OH232904   5.105   0.527   0.302
 3782TIP3    H132905   5.093   0.558   0.392
 3782TIP3    H232906   5.142   0.602   0.256
 3783TIP3   OH232907   1.633   4.560   7.316
 3783TIP3    H132908   1.617   4.617   7.391
 3783TIP3    H232909   1.728   4.551   7.312
 3784TIP3   OH232910   1.939   5.974   7.380
 3784TIP3    H132911   1.944   5.905   7.445
 3784TIP3    H232912   1.890   5.936   7.307
 3785TIP3   OH232913   1.719   2.289   8.815
 3785TIP3    H132914   1.670   2.317   0.032
 3785TIP3    H232915   1.658   2.301   8.743
 3786TIP3   OH232916   4.667   1.185   0.781
 3786TIP3    H132917   4.615   1.238   0.721
 3786TIP3    H232918   4.675   1.239   0.860
 3787TIP3   OH232919   1.525   1.792   1.569
 3787TIP3    H132920   1.569   1.775   1.653
 3787TIP3    H232921   1.437   1.818   1.593
 3788TIP3   OH232922   1.484   0.889   0.079
 3788TIP3    H132923   1.519   0.801   0.090
 3788TIP3    H232924   1.494   0.908   8.846
 3789TIP3   OH232925   6.571   2.860   6.795
 3789TIP3    H132926   6.511   2.931   6.821
 3789TIP3    H232927   6.519   2.807   6.734
 3790TIP3   OH232928   1.784   4.302   2.009
 3790TIP3    H132929   1.830   4.383   1.988
 3790TIP3    H232930   1.846   4.232   1.990
 3791TIP3   OH232931   4.930   0.763   2.003
 3791TIP3    H132932   4.913   0.670   2.023
 3791TIP3    H232933   5.025   0.770   2.000
 3792TIP3   OH232934   3.294   5.113   1.633
 3792TIP3    H132935   3.231   5.174   1.671
 3792TIP3    H232936   3.370   5.168   1.612
 3793TIP3   OH232937   5.018   2.182   6.371
 3793TIP3    H132938   5.113   2.183   6.384
 3793TIP3    H232939   4.991   2.272   6.390
 3794TIP3   OH232940   3.097   6.419   1.584
 3794TIP3    H132941   3.155   6.411   1.508
 3794TIP3    H232942   3.150   6.387   1.657
 3795TIP3   OH232943   3.117   2.735   1.476
 3795TIP3    H132944   3.103   2.650   1.518
 3795TIP3    H232945   3.172   2.716   1.400
 3796TIP3   OH232946   1.762   2.848   1.691
 3796TIP3    H132947   1.762   2.763   1.647
 3796TIP3    H232948   1.800   2.831   1.778
 3797TIP3   OH232949   6.649   5.268   2.169
 3797TIP3    H132950   6.659   5.273   2.264
 3797TIP3    H232951   6.592   5.192   2.156
 3798TIP3   OH232952   0.637   2.615   0.874
 3798TIP3    H132953   0.545   2.600   0.899
 3798TIP3    H232954   0.634   2.622   0.778
 3799TIP3   OH232955   4.586   3.161   8.308
 3799TIP3    H132956   4.529   3.144   8.383
 3799TIP3    H232957   4.587   3.079   8.260
 3800TIP3   OH232958   5.279   5.536   8.568
 3800TIP3    H132959   5.358   5.569   8.524
 3800TIP3    H232960   5.215   5.526   8.497
 3801TIP3   OH232961   0.442   2.890   8.160
 3801TIP3    H132962   0.369   2.952   8.169
 3801TIP3    H232963   0.510   2.941   8.115
 3802TIP3   OH232964   6.689   2.057   8.504
 3802TIP3    H132965   6.761   1.995   8.517
 3802TIP3    H232966   6.687   2.109   8.584
 3803TIP3   OH232967   2.048   1.425   1.406
 3803TIP3    H132968   1.975   1.402   1.463
 3803TIP3    H232969   2.017   1.406   1.317
 3804TIP3   OH232970   5.941   1.524   7.958
 3804TIP3    H132971   5.947   1.513   8.053
 3804TIP3    H232972   6.030   1.516   7.927
 3805TIP3   OH232973   6.269   4.065   8.364
 3805TIP3    H132974   6.197   4.126   8.378
 3805TIP3    H232975   6.293   4.076   8.272
 3806TIP3   OH232976   5.270   5.019   1.691
 3806TIP3    H132977   5.326   5.051   1.761
 3806TIP3    H232978   5.325   5.022   1.613
 3807TIP3   OH232979   1.805   4.230   8.775
 3807TIP3    H132980   1.900   4.219   8.771
 3807TIP3    H232981   1.786   4.299   8.711
 3808TIP3   OH232982   3.058   5.181   2.181
 3808TIP3    H132983   3.152   5.184   2.162
 3808TIP3    H232984   3.051   5.122   2.256
 3809TIP3   OH232985   1.204   0.285   6.645
 3809TIP3    H132986   1.286   0.333   6.653
 3809TIP3    H232987   1.216   0.229   6.568
 3810TIP3   OH232988   2.534   5.672   1.772
 3810TIP3    H132989   2.545   5.670   1.867
 3810TIP3    H232990   2.611   5.720   1.740
 3811TIP3   OH232991   5.770   0.970   0.316
 3811TIP3    H132992   5.764   0.922   0.234
 3811TIP3    H232993   5.810   1.054   0.293
 3812TIP3   OH232994   4.964   3.877   2.276
 3812TIP3    H132995   5.057   3.893   2.289
 3812TIP3    H232996   4.929   3.871   2.365
 3813TIP3   OH232997   3.491   2.486   0.777
 3813TIP3    H132998   3.411   2.445   0.811
 3813TIP3    H232999   3.489   2.467   0.683
 3814TIP3   OH233000   0.375   1.256   6.732
 3814TIP3    H133001   0.292   1.247   6.686
 3814TIP3    H233002   0.437   1.284   6.665
 3815TIP3   OH233003   1.138   4.044   8.627
 3815TIP3    H133004   1.054   4.087   8.643
 3815TIP3    H233005   1.183   4.048   8.711
 3816TIP3   OH233006   5.354   3.442   8.770
 3816TIP3    H133007   5.352   3.407   8.858
 3816TIP3    H233008   5.263   3.440   8.740
 3817TIP3   OH233009   3.450   4.876   1.228
 3817TIP3    H133010   3.387   4.900   1.296
 3817TIP3    H233011   3.426   4.786   1.204
 3818TIP3   OH233012   1.657   3.748   7.886
 3818TIP3    H133013   1.664   3.666   7.935
 3818TIP3    H233014   1.571   3.782   7.909
 3819TIP3   OH233015   6.349   0.250   7.510
 3819TIP3    H133016   6.328   0.254   7.417
 3819TIP3    H233017   6.442   0.274   7.515
 3820TIP3   OH233018   2.962   5.622   0.825
 3820TIP3    H133019   2.869   5.629   0.844
 3820TIP3    H233020   3.003   5.611   0.911
 3821TIP3   OH233021   3.291   6.679   1.609
 3821TIP3    H133022   3.340   6.754   1.575
 3821TIP3    H233023   3.352   6.635   1.668
 3822TIP3   OH233024   1.095   6.700   2.296
 3822TIP3    H133025   1.176   6.653   2.315
 3822TIP3    H233026   1.068   6.668   2.210
 3823TIP3   OH233027   3.019   2.447   8.740
 3823TIP3    H133028   2.972   2.457   8.824
 3823TIP3    H233029   3.108   2.424   8.765
 3824TIP3   OH233030   0.899   1.784   0.752
 3824TIP3    H133031   0.984   1.765   0.791
 3824TIP3    H233032   0.840   1.791   0.827
 3825TIP3   OH233033   2.869   1.839   6.300
 3825TIP3    H133034   2.861   1.913   6.360
 3825TIP3    H233035   2.952   1.797   6.325
 3826TIP3   OH233036   6.014   1.363   6.873
 3826TIP3    H133037   6.042   1.294   6.933
 3826TIP3    H233038   6.042   1.332   6.787
 3827TIP3   OH233039   2.004   6.355   1.202
 3827TIP3    H133040   2.093   6.325   1.183
 3827TIP3    H233041   1.994   6.435   1.150
 3828TIP3   OH233042   3.435   0.866   7.025
 3828TIP3    H133043   3.423   0.800   7.093
 3828TIP3    H233044   3.406   0.948   7.065
 3829TIP3   OH233045   5.913   2.361   8.424
 3829TIP3    H133046   5.860   2.305   8.368
 3829TIP3    H233047   5.909   2.447   8.382
 3830TIP3   OH233048   6.481   3.303   1.044
 3830TIP3    H133049   6.536   3.297   0.966
 3830TIP3    H233050   6.461   3.211   1.065
 3831TIP3   OH233051   3.835   6.469   2.487
 3831TIP3    H133052   3.758   6.515   2.455
 3831TIP3    H233053   3.893   6.465   2.411
 3832TIP3   OH233054   3.310   6.301   7.140
 3832TIP3    H133055   3.290   6.208   7.148
 3832TIP3    H233056   3.254   6.344   7.204
 3833TIP3   OH233057   6.314   5.157   1.281
 3833TIP3    H133058   6.335   5.064   1.281
 3833TIP3    H233059   6.333   5.185   1.191
 3834TIP3   OH233060   1.601   2.872   7.120
 3834TIP3    H133061   1.619   2.787   7.080
 3834TIP3    H233062   1.635   2.936   7.058
 3835TIP3   OH233063   6.370   6.158   6.819
 3835TIP3    H133064   6.412   6.072   6.814
 3835TIP3    H233065   6.442   6.220   6.826
 3836TIP3   OH233066   4.389   4.283   1.789
 3836TIP3    H133067   4.398   4.197   1.831
 3836TIP3    H233068   4.459   4.336   1.828
 3837TIP3   OH233069   5.370   6.742   0.000
 3837TIP3    H133070   5.287   6.789   0.009
 3837TIP3    H233071   5.346   6.655   8.829
 3838TIP3   OH233072   2.839   2.686   0.255
 3838TIP3    H133073   2.901   2.718   0.321
 3838TIP3    H233074   2.761   2.661   0.304
 3839TIP3   OH233075   3.282   5.743   1.814
 3839TIP3    H133076   3.237   5.675   1.764
 3839TIP3    H233077   3.261   5.825   1.768
 3840TIP3   OH233078   1.193   4.426   8.058
 3840TIP3    H133079   1.171   4.362   8.125
 3840TIP3    H233080   1.251   4.488   8.103
 3841TIP3   OH233081   1.405   0.895   7.756
 3841TIP3    H133082   1.461   0.935   7.689
 3841TIP3    H233083   1.378   0.968   7.811
 3842TIP3   OH233084   1.611   0.535   7.091
 3842TIP3    H133085   1.568   0.450   7.083
 3842TIP3    H233086   1.704   0.516   7.073
 3843TIP3   OH233087   0.539   1.569   6.673
 3843TIP3    H133088   0.508   1.494   6.622
 3843TIP3    H233089   0.524   1.645   6.616
 3844TIP3   OH233090   4.500   0.219   0.984
 3844TIP3    H133091   4.442   0.154   1.023
 3844TIP3    H233092   4.534   0.268   1.059
 3845TIP3   OH233093   4.290   6.738   7.885
 3845TIP3    H133094   4.279   0.019   7.934
 3845TIP3    H233095   4.376   6.745   7.844
 3846TIP3   OH233096   1.663   2.826   0.444
 3846TIP3    H133097   1.573   2.826   0.410
 3846TIP3    H233098   1.669   2.908   0.494
 3847TIP3   OH233099   5.257   3.862   7.790
 3847TIP3    H133100   5.340   3.909   7.799
 3847TIP3    H233101   5.191   3.931   7.787
 3848TIP3   OH233102   5.784   4.177   0.637
 3848TIP3    H133103   5.729   4.099   0.633
 3848TIP3    H233104   5.795   4.204   0.546
 3849TIP3   OH233105   6.743   2.866   8.007
 3849TIP3    H133106   6.768   2.958   8.001
 3849TIP3    H233107   6.780   2.826   7.928
 3850TIP3   OH233108   0.949   5.094   6.615
 3850TIP3    H133109   0.981   5.021   6.667
 3850TIP3    H233110   0.854   5.084   6.616
 3851TIP3   OH233111   3.387   2.202   7.585
 3851TIP3    H133112   3.330   2.172   7.655
 3851TIP3    H233113   3.348   2.284   7.554
 3852TIP3   OH233114   4.818   5.302   0.938
 3852TIP3    H133115   4.750   5.271   0.998
 3852TIP3    H233116   4.833   5.229   0.878
 3853TIP3   OH233117   0.768   0.116   1.974
 3853TIP3    H133118   0.776   0.163   2.057
 3853TIP3    H233119   0.798   0.178   1.908
 3854TIP3   OH233120   2.122   6.548   1.745
 3854TIP3    H133121   2.183   6.541   1.819
 3854TIP3    H233122   2.070   6.468   1.749
 3855TIP3   OH233123   2.807   4.822   1.060
 3855TIP3    H133124   2.892   4.784   1.080
 3855TIP3    H233125   2.824   4.915   1.047
 3856TIP3   OH233126   1.163   6.581   7.722
 3856TIP3    H133127   1.166   6.520   7.795
 3856TIP3    H233128   1.227   6.649   7.744
 3857TIP3   OH233129   3.657   1.142   2.189
 3857TIP3    H133130   3.648   1.208   2.120
 3857TIP3    H233131   3.720   1.180   2.250
 3858TIP3   OH233132   4.576   3.804   0.321
 3858TIP3    H133133   4.559   3.896   0.301
 3858TIP3    H233134   4.584   3.762   0.235
 3859TIP3   OH233135   1.266   3.581   6.390
 3859TIP3    H133136   1.226   3.658   6.351
 3859TIP3    H233137   1.193   3.539   6.437
 3860TIP3   OH233138   5.257   2.248   0.436
 3860TIP3    H133139   5.243   2.330   0.484
 3860TIP3    H233140   5.352   2.236   0.437
 3861TIP3   OH233141   3.996   2.633   0.400
 3861TIP3    H133142   3.953   2.656   0.318
 3861TIP3    H233143   4.028   2.717   0.434
 3862TIP3   OH233144   6.535   4.330   0.762
 3862TIP3    H133145   6.556   4.362   0.675
 3862TIP3    H233146   6.541   4.235   0.755
 3863TIP3   OH233147   4.118   6.128   6.745
 3863TIP3    H133148   4.114   6.050   6.691
 3863TIP3    H233149   4.108   6.201   6.683
 3864TIP3   OH233150   6.314   0.137   8.783
 3864TIP3    H133151   6.326   0.048   8.751
 3864TIP3    H233152   6.254   0.129   8.857
 3865TIP3   OH233153   2.193   4.824   7.819
 3865TIP3    H133154   2.202   4.919   7.820
 3865TIP3    H233155   2.191   4.799   7.911
 3866TIP3   OH233156   5.245   1.313   1.624
 3866TIP3    H133157   5.261   1.407   1.615
 3866TIP3    H233158   5.315   1.271   1.575
 3867TIP3   OH233159   6.052   5.616   8.299
 3867TIP3    H133160   6.143   5.604   8.328
 3867TIP3    H233161   6.057   5.610   8.204
 3868TIP3   OH233162   1.192   6.138   0.203
 3868TIP3    H133163   1.188   6.063   0.261
 3868TIP3    H233164   1.283   6.142   0.175
 3869TIP3   OH233165   1.713   5.939   0.187
 3869TIP3    H133166   1.718   5.888   0.107
 3869TIP3    H233167   1.655   5.889   0.244
 3870TIP3   OH233168   6.044   1.285   0.045
 3870TIP3    H133169   5.967   1.229   0.054
 3870TIP3    H233170   6.010   1.374   0.054
 3871TIP3   OH233171   2.531   6.685   2.104
 3871TIP3    H133172   2.587   6.637   2.043
 3871TIP3    H233173   2.442   6.657   2.082
 3872TIP3   OH233174   1.900   0.558   7.363
 3872TIP3    H133175   1.898   0.475   7.315
 3872TIP3    H233176   1.975   0.604   7.327
 3873TIP3   OH233177   5.327   0.890   6.973
 3873TIP3    H133178   5.385   0.870   6.900
 3873TIP3    H233179   5.360   0.838   7.046
 3874TIP3   OH233180   4.782   2.659   1.543
 3874TIP3    H133181   4.835   2.626   1.615
 3874TIP3    H233182   4.837   2.649   1.465
 3875TIP3   OH233183   0.632   5.660   0.398
 3875TIP3    H133184   0.557   5.712   0.369
 3875TIP3    H233185   0.696   5.725   0.427
 3876TIP3   OH233186   3.384   5.717   7.192
 3876TIP3    H133187   3.461   5.676   7.154
 3876TIP3    H233188   3.312   5.688   7.135
 3877TIP3   OH233189   3.056   1.922   0.489
 3877TIP3    H133190   3.097   1.865   0.555
 3877TIP3    H233191   2.989   1.971   0.538
 3878TIP3   OH233192   0.542   2.777   1.096
 3878TIP3    H133193   0.591   2.725   1.032
 3878TIP3    H233194   0.596   2.854   1.111
 3879TIP3   OH233195   5.792   3.936   0.033
 3879TIP3    H133196   5.793   3.907   0.124
 3879TIP3    H233197   5.699   3.942   0.010
 3880TIP3   OH233198   2.867   3.552   1.812
 3880TIP3    H133199   2.802   3.536   1.880
 3880TIP3    H233200   2.950   3.527   1.851
 3881TIP3   OH233201   5.146   0.084   0.061
 3881TIP3    H133202   5.102   0.096   8.838
 3881TIP3    H233203   5.113   0.155   0.116
 3882TIP3   OH233204   4.891   0.382   8.830
 3882TIP3    H133205   4.828   0.452   8.818
 3882TIP3    H233206   4.905   0.378   0.064
 3883TIP3   OH233207   4.774   5.680   2.210
 3883TIP3    H133208   4.727   5.655   2.290
 3883TIP3    H233209   4.845   5.737   2.241
 3884TIP3   OH233210   4.041   0.082   7.410
 3884TIP3    H133211   4.132   0.105   7.430
 3884TIP3    H233212   4.028   6.798   7.453
 3885TIP3   OH233213   0.786   6.475   0.908
 3885TIP3    H133214   0.820   6.391   0.938
 3885TIP3    H233215   0.762   6.522   0.988
 3886TIP3   OH233216   6.205   4.024   1.653
 3886TIP3    H133217   6.153   3.987   1.724
 3886TIP3    H233218   6.285   3.973   1.651
 3887TIP3   OH233219   3.980   3.697   7.197
 3887TIP3    H133220   4.066   3.656   7.184
 3887TIP3    H233221   3.935   3.638   7.257
 3888TIP3   OH233222   1.737   2.584   0.327
 3888TIP3    H133223   1.717   2.665   0.374
 3888TIP3    H233224   1.730   2.608   0.235
 3889TIP3   OH233225   4.209   6.231   7.860
 3889TIP3    H133226   4.226   6.206   7.950
 3889TIP3    H233227   4.114   6.248   7.858
 3890TIP3   OH233228   3.640   6.028   8.070
 3890TIP3    H133229   3.569   6.042   8.133
 3890TIP3    H233230   3.596   6.015   7.986
 3891TIP3   OH233231   0.228   0.106   6.519
 3891TIP3    H133232   0.290   0.147   6.459
 3891TIP3    H233233   0.254   0.014   6.522
 3892TIP3   OH233234   1.886   6.323   0.680
 3892TIP3    H133235   1.801   6.312   0.723
 3892TIP3    H233236   1.947   6.277   0.736
 3893TIP3   OH233237   6.770   5.849   0.086
 3893TIP3    H133238   0.009   5.853   0.174
 3893TIP3    H233239   0.017   5.916   0.036
 3894TIP3   OH233240   0.020   2.086   1.934
 3894TIP3    H133241   0.072   2.144   1.990
 3894TIP3    H233242   6.761   2.145   1.887
 3895TIP3   OH233243   0.790   4.531   2.116
 3895TIP3    H133244   0.734   4.605   2.140
 3895TIP3    H233245   0.872   4.546   2.163
 3896TIP3   OH233246   2.414   1.182   1.547
 3896TIP3    H133247   2.474   1.179   1.622
 3896TIP3    H233248   2.334   1.139   1.578
 3897TIP3   OH233249   5.378   2.470   8.476
 3897TIP3    H133250   5.441   2.415   8.429
 3897TIP3    H233251   5.302   2.414   8.488
 3898TIP3   OH233252   0.775   5.202   7.437
 3898TIP3    H133253   0.797   5.235   7.350
 3898TIP3    H233254   0.858   5.196   7.483
 3899TIP3   OH233255   4.910   1.788   8.583
 3899TIP3    H133256   4.848   1.831   8.524
 3899TIP3    H233257   4.878   1.698   8.591
 3900TIP3   OH233258   0.301   1.479   8.591
 3900TIP3    H133259   0.396   1.470   8.603
 3900TIP3    H233260   0.285   1.445   8.503
 3901TIP3   OH233261   3.251   0.216   8.373
 3901TIP3    H133262   3.248   0.243   8.281
 3901TIP3    H233263   3.280   0.294   8.420
 3902TIP3   OH233264   5.913   5.479   1.415
 3902TIP3    H133265   5.964   5.466   1.335
 3902TIP3    H233266   5.913   5.574   1.428
 3903TIP3   OH233267   4.702   0.267   0.612
 3903TIP3    H133268   4.693   0.232   0.523
 3903TIP3    H233269   4.687   0.361   0.603
 3904TIP3   OH233270   0.438   0.948   8.797
 3904TIP3    H133271   0.529   0.918   8.799
 3904TIP3    H233272   0.437   1.024   8.855
 3905TIP3   OH233273   3.543   4.896   7.496
 3905TIP3    H133274   3.501   4.909   7.581
 3905TIP3    H233275   3.470   4.884   7.435
 3906TIP3   OH233276   6.105   3.623   1.189
 3906TIP3    H133277   6.139   3.710   1.209
 3906TIP3    H233278   6.170   3.563   1.226
 3907TIP3   OH233279   5.061   6.695   1.544
 3907TIP3    H133280   4.998   6.756   1.582
 3907TIP3    H233281   5.007   6.637   1.489
 3908TIP3   OH233282   6.602   1.362   7.346
 3908TIP3    H133283   6.641   1.424   7.283
 3908TIP3    H233284   6.613   1.276   7.305
 3909TIP3   OH233285   2.458   5.557   1.021
 3909TIP3    H133286   2.503   5.592   0.944
 3909TIP3    H233287   2.527   5.511   1.070
 3910TIP3   OH233288   3.474   2.625   1.432
 3910TIP3    H133289   3.505   2.714   1.448
 3910TIP3    H233290   3.485   2.580   1.516
 3911TIP3   OH233291   6.632   3.125   2.504
 3911TIP3    H133292   6.541   3.140   2.477
 3911TIP3    H233293   6.665   3.212   2.526
 3912TIP3   OH233294   3.728   4.127   8.214
 3912TIP3    H133295   3.716   4.087   8.128
 3912TIP3    H233296   3.741   4.053   8.274
 3913TIP3   OH233297   3.588   3.432   7.462
 3913TIP3    H133298   3.568   3.416   7.554
 3913TIP3    H233299   3.682   3.416   7.455
 3914TIP3   OH233300   0.277   1.899   7.317
 3914TIP3    H133301   0.358   1.887   7.268
 3914TIP3    H233302   0.217   1.938   7.255
 3915TIP3   OH233303   0.737   0.650   1.204
 3915TIP3    H133304   0.742   0.740   1.172
 3915TIP3    H233305   0.650   0.642   1.242
 3916TIP3   OH233306   2.064   2.866   0.230
 3916TIP3    H133307   1.974   2.895   0.215
 3916TIP3    H233308   2.118   2.926   0.178
 3917TIP3   OH233309   1.684   6.199   0.262
 3917TIP3    H133310   1.677   6.106   0.240
 3917TIP3    H233311   1.699   6.201   0.356
 3918TIP3   OH233312   6.173   0.213   0.620
 3918TIP3    H133313   6.203   0.132   0.663
 3918TIP3    H233314   6.180   0.194   0.526
 3919TIP3   OH233315   2.281   3.547   1.323
 3919TIP3    H133316   2.233   3.475   1.282
 3919TIP3    H233317   2.328   3.589   1.251
 3920TIP3   OH233318   1.150   5.501   1.433
 3920TIP3    H133319   1.128   5.512   1.526
 3920TIP3    H233320   1.227   5.444   1.433
 3921TIP3   OH233321   6.358   4.158   8.131
 3921TIP3    H133322   6.418   4.182   8.060
 3921TIP3    H233323   6.322   4.241   8.161
 3922TIP3   OH233324   2.364   4.341   1.152
 3922TIP3    H133325   2.287   4.393   1.132
 3922TIP3    H233326   2.434   4.382   1.101
 3923TIP3   OH233327   0.370   1.666   0.475
 3923TIP3    H133328   0.448   1.717   0.453
 3923TIP3    H233329   0.378   1.586   0.423
 3924TIP3   OH233330   3.239   4.097   0.883
 3924TIP3    H133331   3.198   4.160   0.824
 3924TIP3    H233332   3.166   4.053   0.927
 3925TIP3   OH233333   4.245   0.429   2.265
 3925TIP3    H133334   4.183   0.361   2.292
 3925TIP3    H233335   4.320   0.381   2.232
 3926TIP3   OH233336   1.973   6.697   2.051
 3926TIP3    H133337   1.915   6.771   2.034
 3926TIP3    H233338   1.985   6.696   2.146
 3927TIP3   OH233339   0.495   6.451   0.008
 3927TIP3    H133340   0.553   6.527   0.009
 3927TIP3    H233341   0.489   6.426   8.777
 3928TIP3   OH233342   4.050   4.386   0.364
 3928TIP3    H133343   3.982   4.344   0.417
 3928TIP3    H233344   4.106   4.314   0.335
 3929TIP3   OH233345   0.047   6.311   0.569
 3929TIP3    H133346   0.032   6.345   0.657
 3929TIP3    H233347   0.003   6.375   0.512
 3930TIP3   OH233348   1.301   3.068   1.890
 3930TIP3    H133349   1.243   3.005   1.934
 3930TIP3    H233350   1.372   3.014   1.854
 3931TIP3   OH233351   6.513   5.190   7.067
 3931TIP3    H133352   6.499   5.124   7.135
 3931TIP3    H233353   6.587   5.158   7.016
 3932TIP3   OH233354   0.016   0.832   1.464
 3932TIP3    H133355   0.052   0.913   1.503
 3932TIP3    H233356   6.755   0.863   1.398
 3933TIP3   OH233357   0.660   5.925   0.133
 3933TIP3    H133358   0.750   5.956   0.142
 3933TIP3    H233359   0.608   6.004   0.117
 3934TIP3   OH233360   2.613   6.438   8.453
 3934TIP3    H133361   2.585   6.351   8.424
 3934TIP3    H233362   2.585   6.496   8.382
 3935TIP3   OH233363   3.938   2.878   0.979
 3935TIP3    H133364   3.935   2.848   1.070
 3935TIP3    H233365   4.031   2.877   0.957
 3936TIP3   OH233366   6.172   2.243   7.419
 3936TIP3    H133367   6.107   2.174   7.411
 3936TIP3    H233368   6.250   2.209   7.376
 3937TIP3   OH233369   4.335   0.449   6.624
 3937TIP3    H133370   4.424   0.466   6.654
 3937TIP3    H233371   4.345   0.376   6.562
 3938TIP3   OH233372   3.966   3.234   7.521
 3938TIP3    H133373   4.056   3.209   7.542
 3938TIP3    H233374   3.912   3.182   7.582
 3939TIP3   OH233375   4.435   1.231   1.553
 3939TIP3    H133376   4.399   1.234   1.642
 3939TIP3    H233377   4.512   1.287   1.557
 3940TIP3   OH233378   3.019   3.976   1.374
 3940TIP3    H133379   3.020   3.883   1.397
 3940TIP3    H233380   3.008   4.021   1.458
 3941TIP3   OH233381   1.514   4.453   0.273
 3941TIP3    H133382   1.513   4.524   0.338
 3941TIP3    H233383   1.435   4.468   0.221
 3942TIP3   OH233384   2.985   0.447   1.955
 3942TIP3    H133385   2.945   0.418   2.037
 3942TIP3    H233386   3.064   0.493   1.983
 3943TIP3   OH233387   6.651   6.785   8.752
 3943TIP3    H133388   6.639   0.037   8.673
 3943TIP3    H233389   6.657   0.049   8.823
 3944TIP3   OH233390   0.575   5.733   1.896
 3944TIP3    H133391   0.563   5.703   1.986
 3944TIP3    H233392   0.596   5.826   1.904
 3945TIP3   OH233393   3.916   0.150   8.112
 3945TIP3    H133394   3.980   0.210   8.076
 3945TIP3    H233395   3.965   0.070   8.131
 3946TIP3   OH233396   0.063   6.432   0.028
 3946TIP3    H133397   0.051   6.517   0.070
 3946TIP3    H233398   0.039   6.447   8.797
 3947TIP3   OH233399   3.672   5.348   8.184
 3947TIP3    H133400   3.672   5.350   8.280
 3947TIP3    H233401   3.693   5.437   8.158
 3948TIP3   OH233402   6.565   5.307   7.691
 3948TIP3    H133403   6.640   5.334   7.744
 3948TIP3    H233404   6.552   5.214   7.712
 3949TIP3   OH233405   3.551   5.111   8.058
 3949TIP3    H133406   3.635   5.131   8.098
 3949TIP3    H233407   3.488   5.120   8.129
 3950TIP3   OH233408   2.263   2.457   7.713
 3950TIP3    H133409   2.323   2.530   7.724
 3950TIP3    H233410   2.219   2.474   7.630
 3951TIP3   OH233411   1.424   0.394   0.882
 3951TIP3    H133412   1.419   0.490   0.891
 3951TIP3    H233413   1.333   0.365   0.876
 3952TIP3   OH233414   4.406   3.135   7.436
 3952TIP3    H133415   4.397   3.040   7.424
 3952TIP3    H233416   4.352   3.154   7.513
 3953TIP3   OH233417   2.992   2.865   8.366
 3953TIP3    H133418   3.024   2.823   8.446
 3953TIP3    H233419   2.961   2.951   8.395
 3954TIP3   OH233420   2.643   5.559   8.774
 3954TIP3    H133421   2.559   5.526   8.743
 3954TIP3    H233422   2.631   5.569   0.008
 3955TIP3   OH233423   2.917   3.636   0.667
 3955TIP3    H133424   2.936   3.602   0.754
 3955TIP3    H233425   2.897   3.558   0.615
 3956TIP3   OH233426   2.261   5.291   1.164
 3956TIP3    H133427   2.296   5.380   1.174
 3956TIP3    H233428   2.328   5.244   1.116
 3957TIP3   OH233429   4.648   1.047   0.144
 3957TIP3    H133430   4.683   1.080   0.061
 3957TIP3    H233431   4.554   1.035   0.126
 3958TIP3   OH233432   5.698   6.286   1.619
 3958TIP3    H133433   5.718   6.372   1.582
 3958TIP3    H233434   5.611   6.296   1.657
 3959TIP3   OH233435   1.908   3.154   7.527
 3959TIP3    H133436   1.939   3.068   7.500
 3959TIP3    H233437   1.987   3.198   7.559
 3960TIP3   OH233438   0.753   5.560   1.005
 3960TIP3    H133439   0.717   5.601   1.083
 3960TIP3    H233440   0.748   5.466   1.022
 3961TIP3   OH233441   0.172   5.985   8.167
 3961TIP3    H133442   0.189   5.951   8.080
 3961TIP3    H233443   0.228   6.062   8.175
 3962TIP3   OH233444   5.809   3.077   0.421
 3962TIP3    H133445   5.796   3.150   0.481
 3962TIP3    H233446   5.901   3.051   0.434
 3963TIP3   OH233447   0.762   4.461   7.553
 3963TIP3    H133448   0.761   4.478   7.459
 3963TIP3    H233449   0.855   4.466   7.577
 3964TIP3   OH233450   6.654   2.869   1.839
 3964TIP3    H133451   6.614   2.867   1.927
 3964TIP3    H233452   6.743   2.837   1.853
 3965TIP3   OH233453   1.121   6.590   7.455
 3965TIP3    H133454   1.142   6.587   7.548
 3965TIP3    H233455   1.199   6.556   7.412
 3966TIP3   OH233456   4.083   3.380   8.804
 3966TIP3    H133457   4.113   3.415   0.027
 3966TIP3    H233458   4.006   3.432   8.783
 3967TIP3   OH233459   3.258   4.828   7.525
 3967TIP3    H133460   3.281   4.760   7.589
 3967TIP3    H233461   3.209   4.782   7.457
 3968TIP3   OH233462   3.148   4.227   8.587
 3968TIP3    H133463   3.188   4.275   8.515
 3968TIP3    H233464   3.144   4.290   8.659
 3969TIP3   OH233465   2.047   4.502   7.571
 3969TIP3    H133466   2.044   4.431   7.635
 3969TIP3    H233467   1.992   4.471   7.499
 3970TIP3   OH233468   1.226   2.630   0.864
 3970TIP3    H133469   1.198   2.639   0.956
 3970TIP3    H233470   1.199   2.542   0.839
 3971TIP3   OH233471   1.257   2.583   6.864
 3971TIP3    H133472   1.202   2.506   6.854
 3971TIP3    H233473   1.299   2.572   6.950
 3972TIP3   OH233474   4.661   5.763   6.935
 3972TIP3    H133475   4.743   5.714   6.921
 3972TIP3    H233476   4.682   5.852   6.910
 3973TIP3   OH233477   1.195   0.642   0.773
 3973TIP3    H133478   1.195   0.632   0.868
 3973TIP3    H233479   1.208   0.735   0.758
 3974TIP3   OH233480   1.157   1.524   8.611
 3974TIP3    H133481   1.175   1.589   8.542
 3974TIP3    H233482   1.174   1.570   8.693
 3975TIP3   OH233483   1.034   3.787   8.712
 3975TIP3    H133484   1.125   3.765   8.693
 3975TIP3    H233485   1.017   3.864   8.657
 3976TIP3   OH233486   2.575   3.126   2.460
 3976TIP3    H133487   2.643   3.090   2.517
 3976TIP3    H233488   2.538   3.049   2.416
 3977TIP3   OH233489   2.403   6.068   8.819
 3977TIP3    H133490   2.332   6.042   0.017
 3977TIP3    H233491   2.410   5.995   8.758
 3978TIP3   OH233492   6.288   4.386   8.263
 3978TIP3    H133493   6.205   4.391   8.217
 3978TIP3    H233494   6.264   4.369   8.354
 3979TIP3   OH233495   1.877   3.476   1.948
 3979TIP3    H133496   1.818   3.481   2.023
 3979TIP3    H233497   1.961   3.450   1.985
 3980TIP3   OH233498   3.105   0.159   7.116
 3980TIP3    H133499   3.036   0.225   7.115
 3980TIP3    H233500   3.186   0.209   7.106
 3981TIP3   OH233501   2.910   3.280   0.941
 3981TIP3    H133502   2.991   3.256   0.896
 3981TIP3    H233503   2.892   3.369   0.910
 3982TIP3   OH233504   3.199   5.883   1.589
 3982TIP3    H133505   3.266   5.945   1.561
 3982TIP3    H233506   3.171   5.840   1.509
 3983TIP3   OH233507   1.146   4.223   8.286
 3983TIP3    H133508   1.195   4.148   8.320
 3983TIP3    H233509   1.182   4.299   8.332
 3984TIP3   OH233510   3.494   1.994   7.819
 3984TIP3    H133511   3.557   1.935   7.861
 3984TIP3    H233512   3.538   2.025   7.741
 3985TIP3   OH233513   6.748   3.632   8.384
 3985TIP3    H133514   6.731   3.582   8.464
 3985TIP3    H233515   0.019   3.691   8.407
 3986TIP3   OH233516   3.275   6.183   8.426
 3986TIP3    H133517   3.250   6.276   8.435
 3986TIP3    H233518   3.325   6.164   8.506
 3987TIP3   OH233519   5.445   2.418   6.314
 3987TIP3    H133520   5.411   2.438   6.226
 3987TIP3    H233521   5.419   2.327   6.329
 3988TIP3   OH233522   5.272   5.258   7.955
 3988TIP3    H133523   5.219   5.233   7.879
 3988TIP3    H233524   5.340   5.191   7.959
 3989TIP3   OH233525   4.450   4.049   0.556
 3989TIP3    H133526   4.394   4.126   0.571
 3989TIP3    H233527   4.452   4.038   0.461
 3990TIP3   OH233528   4.951   6.712   7.945
 3990TIP3    H133529   4.893   6.656   7.996
 3990TIP3    H233530   4.950   6.796   7.991
 3991TIP3   OH233531   0.158   4.939   8.471
 3991TIP3    H133532   0.088   4.873   8.474
 3991TIP3    H233533   0.238   4.890   8.489
 3992TIP3   OH233534   2.896   0.859   0.316
 3992TIP3    H133535   2.863   0.931   0.369
 3992TIP3    H233536   2.863   0.780   0.360
 3993TIP3   OH233537   4.381   3.522   7.960
 3993TIP3    H133538   4.437   3.599   7.947
 3993TIP3    H233539   4.293   3.554   7.938
 3994TIP3   OH233540   3.004   5.359   8.824
 3994TIP3    H133541   2.987   5.397   0.049
 3994TIP3    H233542   3.059   5.424   8.779
 3995TIP3   OH233543   0.502   6.456   8.279
 3995TIP3    H133544   0.569   6.478   8.344
 3995TIP3    H233545   0.438   6.527   8.285
 3996TIP3   OH233546   2.413   2.684   0.131
 3996TIP3    H133547   2.470   2.623   0.084
 3996TIP3    H233548   2.329   2.638   0.136
 3997TIP3   OH233549   5.656   4.700   8.410
 3997TIP3    H133550   5.668   4.652   8.492
 3997TIP3    H233551   5.607   4.779   8.436
 3998TIP3   OH233552   1.111   5.529   1.698
 3998TIP3    H133553   1.089   5.437   1.708
 3998TIP3    H233554   1.204   5.534   1.720
 3999TIP3   OH233555   4.652   5.448   7.912
 3999TIP3    H133556   4.629   5.464   7.821
 3999TIP3    H233557   4.620   5.526   7.958
 4000TIP3   OH233558   4.004   1.739   0.405
 4000TIP3    H133559   3.948   1.743   0.327
 4000TIP3    H233560   3.986   1.654   0.444
 4001TIP3   OH233561   3.398   1.257   7.375
 4001TIP3    H133562   3.401   1.335   7.318
 4001TIP3    H233563   3.481   1.213   7.358
 4002TIP3   OH233564   6.422   0.779   7.461
 4002TIP3    H133565   6.459   0.728   7.389
 4002TIP3    H233566   6.340   0.812   7.426
 4003TIP3   OH233567   1.098   4.340   0.339
 4003TIP3    H133568   1.037   4.348   0.412
 4003TIP3    H233569   1.152   4.419   0.344
 4004TIP3   OH233570   5.750   5.239   8.766
 4004TIP3    H133571   5.800   5.315   8.794
 4004TIP3    H233572   5.686   5.274   8.704
 4005TIP3   OH233573   5.086   2.024   1.775
 4005TIP3    H133574   5.099   2.032   1.870
 4005TIP3    H233575   5.045   1.939   1.763
 4006TIP3   OH233576   0.066   1.578   0.871
 4006TIP3    H133577   0.105   1.495   0.899
 4006TIP3    H233578   0.102   1.593   0.783
 4007TIP3   OH233579   6.553   1.020   0.491
 4007TIP3    H133580   6.544   1.110   0.462
 4007TIP3    H233581   6.511   0.967   0.423
 4008TIP3   OH233582   4.301   0.264   8.398
 4008TIP3    H133583   4.395   0.269   8.417
 4008TIP3    H233584   4.272   0.183   8.438
 4009TIP3   OH233585   6.703   0.443   8.393
 4009TIP3    H133586   6.698   0.348   8.384
 4009TIP3    H233587   6.790   0.460   8.430
 4010TIP3   OH233588   5.141   4.106   7.553
 4010TIP3    H133589   5.076   4.036   7.558
 4010TIP3    H233590   5.131   4.154   7.636
 4011TIP3   OH233591   1.592   1.776   0.462
 4011TIP3    H133592   1.569   1.695   0.508
 4011TIP3    H233593   1.608   1.748   0.372
 4012TIP3   OH233594   5.905   2.501   2.678
 4012TIP3    H133595   5.906   2.585   2.724
 4012TIP3    H233596   5.998   2.478   2.669
 4013TIP3   OH233597   4.973   2.645   0.517
 4013TIP3    H133598   4.938   2.733   0.534
 4013TIP3    H233599   4.954   2.596   0.597
 4014TIP3   OH233600   0.281   4.885   2.762
 4014TIP3    H133601   0.302   4.817   2.698
 4014TIP3    H233602   0.331   4.961   2.734
 4015TIP3   OH233603   2.328   0.857   7.171
 4015TIP3    H133604   2.344   0.949   7.194
 4015TIP3    H233605   2.286   0.860   7.085
 4016TIP3   OH233606   0.138   1.094   0.997
 4016TIP3    H133607   0.116   1.091   1.091
 4016TIP3    H233608   0.189   1.015   0.982
 4017TIP3   OH233609   4.550   1.939   1.292
 4017TIP3    H133610   4.503   1.937   1.375
 4017TIP3    H233611   4.591   1.853   1.285
 4018TIP3   OH233612   2.661   0.833   1.465
 4018TIP3    H133613   2.730   0.887   1.506
 4018TIP3    H233614   2.683   0.833   1.372
 4019TIP3   OH233615   4.588   1.377   7.809
 4019TIP3    H133616   4.619   1.340   7.892
 4019TIP3    H233617   4.516   1.321   7.783
 4020TIP3   OH233618   0.133   1.544   6.920
 4020TIP3    H133619   0.070   1.568   6.852
 4020TIP3    H233620   0.143   1.624   6.972
 4021TIP3   OH233621   4.204   3.553   0.151
 4021TIP3    H133622   4.232   3.603   0.227
 4021TIP3    H233623   4.242   3.600   0.076
 4022TIP3   OH233624   6.384   3.682   7.498
 4022TIP3    H133625   6.407   3.718   7.413
 4022TIP3    H233626   6.447   3.721   7.559
 4023TIP3   OH233627   1.902   5.241   7.362
 4023TIP3    H133628   1.841   5.181   7.319
 4023TIP3    H233629   1.952   5.280   7.290
 4024TIP3   OH233630   0.201   2.894   2.335
 4024TIP3    H133631   0.210   2.802   2.309
 4024TIP3    H233632   0.126   2.895   2.395
 4025TIP3   OH233633   0.160   1.757   1.317
 4025TIP3    H133634   0.175   1.747   1.223
 4025TIP3    H233635   0.095   1.689   1.337
 4026TIP3   OH233636   0.322   4.117   0.817
 4026TIP3    H133637   0.346   4.067   0.739
 4026TIP3    H233638   0.287   4.051   0.877
 4027TIP3   OH233639   5.132   2.821   8.207
 4027TIP3    H133640   5.139   2.729   8.233
 4027TIP3    H233641   5.119   2.868   8.288
 4028TIP3   OH233642   0.999   5.997   7.139
 4028TIP3    H133643   1.026   5.958   7.222
 4028TIP3    H233644   0.922   5.947   7.112
 4029TIP3   OH233645   0.663   3.574   7.803
 4029TIP3    H133646   0.725   3.548   7.735
 4029TIP3    H233647   0.719   3.607   7.874
 4030TIP3   OH233648   6.305   0.456   0.581
 4030TIP3    H133649   6.247   0.380   0.589
 4030TIP3    H233650   6.255   0.519   0.530
 4031TIP3   OH233651   0.221   0.358   7.298
 4031TIP3    H133652   0.305   0.374   7.257
 4031TIP3    H233653   0.241   0.343   7.390
 4032TIP3   OH233654   5.134   1.008   8.039
 4032TIP3    H133655   5.083   1.027   7.960
 4032TIP3    H233656   5.225   1.015   8.011
 4033TIP3   OH233657   1.155   4.435   1.236
 4033TIP3    H133658   1.098   4.492   1.185
 4033TIP3    H233659   1.209   4.495   1.288
 4034TIP3   OH233660   0.926   1.641   1.942
 4034TIP3    H133661   0.998   1.703   1.956
 4034TIP3    H233662   0.966   1.555   1.948
 4035TIP3   OH233663   2.494   5.234   0.154
 4035TIP3    H133664   2.476   5.302   0.089
 4035TIP3    H233665   2.569   5.267   0.204
 4036TIP3   OH233666   5.766   1.551   1.145
 4036TIP3    H133667   5.824   1.505   1.206
 4036TIP3    H233668   5.825   1.582   1.076
 4037TIP3   OH233669   5.177   4.666   0.740
 4037TIP3    H133670   5.227   4.736   0.783
 4037TIP3    H233671   5.191   4.590   0.797
 4038TIP3   OH233672   5.714   2.546   8.272
 4038TIP3    H133673   5.774   2.604   8.226
 4038TIP3    H233674   5.664   2.503   8.203
 4039TIP3   OH233675   4.400   5.981   1.569
 4039TIP3    H133676   4.375   6.066   1.607
 4039TIP3    H233677   4.484   5.998   1.526
 4040TIP3   OH233678   0.019   3.120   8.048
 4040TIP3    H133679   0.102   3.157   8.078
 4040TIP3    H233680   6.765   3.196   8.027
 4041TIP3   OH233681   2.477   2.751   8.649
 4041TIP3    H133682   2.537   2.700   8.595
 4041TIP3    H233683   2.485   2.712   8.736
 4042TIP3   OH233684   4.571   5.804   7.667
 4042TIP3    H133685   4.573   5.797   7.572
 4042TIP3    H233686   4.549   5.895   7.684
 4043TIP3   OH233687   3.702   1.262   7.546
 4043TIP3    H133688   3.648   1.232   7.619
 4043TIP3    H233689   3.762   1.325   7.586
 4044TIP3   OH233690   0.432   1.420   2.393
 4044TIP3    H133691   0.365   1.430   2.461
 4044TIP3    H233692   0.388   1.373   2.323
 4045TIP3   OH233693   1.915   0.704   8.505
 4045TIP3    H133694   1.964   0.658   8.573
 4045TIP3    H233695   1.954   0.674   8.423
 4046TIP3   OH233696   4.692   0.922   7.253
 4046TIP3    H133697   4.712   0.830   7.237
 4046TIP3    H233698   4.605   0.921   7.292
 4047TIP3   OH233699   2.530   4.953   2.115
 4047TIP3    H133700   2.458   5.013   2.098
 4047TIP3    H233701   2.609   5.004   2.099
 4048TIP3   OH233702   1.970   4.239   0.987
 4048TIP3    H133703   2.061   4.256   1.007
 4048TIP3    H233704   1.971   4.155   0.941
 4049TIP3   OH233705   3.740   5.234   1.595
 4049TIP3    H133706   3.763   5.207   1.507
 4049TIP3    H233707   3.732   5.153   1.645
 4050TIP3   OH233708   5.073   4.747   1.822
 4050TIP3    H133709   5.021   4.698   1.886
 4050TIP3    H233710   5.163   4.739   1.852
 4051TIP3   OH233711   2.030   6.658   7.927
 4051TIP3    H133712   2.122   6.664   7.952
 4051TIP3    H233713   2.017   6.566   7.905
 4052TIP3   OH233714   2.515   2.593   0.993
 4052TIP3    H133715   2.493   2.568   1.083
 4052TIP3    H233716   2.527   2.510   0.947
 4053TIP3   OH233717   5.315   4.818   7.697
 4053TIP3    H133718   5.379   4.767   7.747
 4053TIP3    H233719   5.285   4.759   7.628
 4054TIP3   OH233720   3.177   0.398   8.801
 4054TIP3    H133721   3.217   0.462   8.860
 4054TIP3    H233722   3.226   0.317   8.816
 4055TIP3   OH233723   4.387   5.686   0.390
 4055TIP3    H133724   4.406   5.735   0.470
 4055TIP3    H233725   4.462   5.704   0.332
 4056TIP3   OH233726   6.103   5.187   7.404
 4056TIP3    H133727   6.150   5.250   7.460
 4056TIP3    H233728   6.047   5.242   7.349
 4057TIP3   OH233729   4.438   4.291   8.156
 4057TIP3    H133730   4.522   4.300   8.111
 4057TIP3    H233731   4.446   4.210   8.206
 4058TIP3   OH233732   5.823   6.254   6.781
 4058TIP3    H133733   5.758   6.199   6.823
 4058TIP3    H233734   5.782   6.284   6.700
 4059TIP3   OH233735   6.332   6.120   8.542
 4059TIP3    H133736   6.297   6.047   8.492
 4059TIP3    H233737   6.417   6.090   8.572
 4060TIP3   OH233738   6.740   4.274   6.483
 4060TIP3    H133739   6.763   4.203   6.423
 4060TIP3    H233740   0.003   4.267   6.554
 4061TIP3   OH233741   5.260   5.355   0.540
 4061TIP3    H133742   5.353   5.350   0.564
 4061TIP3    H233743   5.223   5.421   0.599
 4062TIP3   OH233744   5.982   2.109   6.431
 4062TIP3    H133745   5.907   2.064   6.391
 4062TIP3    H233746   5.980   2.197   6.394
 4063TIP3   OH233747   5.494   3.951   7.907
 4063TIP3    H133748   5.528   4.019   7.966
 4063TIP3    H233749   5.434   3.900   7.961
 4064TIP3   OH233750   3.102   3.570   8.486
 4064TIP3    H133751   3.157   3.498   8.517
 4064TIP3    H233752   3.013   3.536   8.490
 4065TIP3   OH233753   3.133   2.483   1.007
 4065TIP3    H133754   3.110   2.556   1.065
 4065TIP3    H233755   3.068   2.416   1.026
 4066TIP3   OH233756   0.966   4.278   7.926
 4066TIP3    H133757   0.883   4.316   7.955
 4066TIP3    H233758   1.027   4.352   7.924
 4067TIP3   OH233759   1.715   3.756   6.586
 4067TIP3    H133760   1.709   3.835   6.532
 4067TIP3    H233761   1.804   3.757   6.621
 4068TIP3   OH233762   5.840   0.753   1.687
 4068TIP3    H133763   5.926   0.755   1.645
 4068TIP3    H233764   5.790   0.690   1.636
 4069TIP3   OH233765   0.964   2.006   7.415
 4069TIP3    H133766   0.869   2.007   7.430
 4069TIP3    H233767   0.977   1.933   7.354
 4070TIP3   OH233768   5.594   6.722   2.074
 4070TIP3    H133769   5.661   6.735   2.006
 4070TIP3    H233770   5.599   0.000   2.127
 4071TIP3   OH233771   4.219   4.503   7.662
 4071TIP3    H133772   4.141   4.513   7.608
 4071TIP3    H233773   4.201   4.427   7.717
 4072TIP3   OH233774   1.774   4.497   8.661
 4072TIP3    H133775   1.856   4.545   8.645
 4072TIP3    H233776   1.712   4.565   8.687
 4073TIP3   OH233777   6.088   5.561   7.402
 4073TIP3    H133778   6.176   5.529   7.421
 4073TIP3    H233779   6.074   5.540   7.310
 4074TIP3   OH233780   1.160   0.339   0.893
 4074TIP3    H133781   1.115   0.322   0.810
 4074TIP3    H233782   1.101   0.395   0.942
 4075TIP3   OH233783   0.174   3.468   0.234
 4075TIP3    H133784   0.118   3.441   0.307
 4075TIP3    H233785   0.121   3.531   0.186
 4076TIP3   OH233786   2.457   5.062   7.597
 4076TIP3    H133787   2.459   5.016   7.513
 4076TIP3    H233788   2.492   5.149   7.577
 4077TIP3   OH233789   4.413   3.814   0.967
 4077TIP3    H133790   4.448   3.879   0.907
 4077TIP3    H233791   4.350   3.861   1.021
 4078TIP3   OH233792   4.543   1.596   8.487
 4078TIP3    H133793   4.452   1.569   8.503
 4078TIP3    H233794   4.544   1.689   8.508
 4079TIP3   OH233795   0.939   2.765   1.725
 4079TIP3    H133796   0.981   2.818   1.793
 4079TIP3    H233797   0.845   2.775   1.742
 4080TIP3   OH233798   2.729   5.803   8.152
 4080TIP3    H133799   2.800   5.747   8.183
 4080TIP3    H233800   2.772   5.883   8.123
 4081TIP3   OH233801   3.246   0.742   1.080
 4081TIP3    H133802   3.193   0.688   1.021
 4081TIP3    H233803   3.252   0.690   1.161
 4082TIP3   OH233804   1.541   0.323   1.166
 4082TIP3    H133805   1.497   0.402   1.195
 4082TIP3    H233806   1.485   0.289   1.096
 4083TIP3   OH233807   3.882   3.118   1.432
 4083TIP3    H133808   3.928   3.200   1.416
 4083TIP3    H233809   3.950   3.058   1.465
 4084TIP3   OH233810   0.566   2.579   1.602
 4084TIP3    H133811   0.600   2.603   1.516
 4084TIP3    H233812   0.591   2.651   1.659
 4085TIP3   OH233813   5.598   3.530   7.135
 4085TIP3    H133814   5.647   3.556   7.057
 4085TIP3    H233815   5.508   3.520   7.105
 4086TIP3   OH233816   4.487   0.056   7.678
 4086TIP3    H133817   4.475   0.091   7.766
 4086TIP3    H233818   4.580   0.032   7.674
 4087TIP3   OH233819   2.092   4.376   1.362
 4087TIP3    H133820   2.126   4.417   1.283
 4087TIP3    H233821   2.070   4.449   1.420
 4088TIP3   OH233822   6.058   6.710   8.619
 4088TIP3    H133823   6.047   6.674   8.531
 4088TIP3    H233824   6.094   6.637   8.670
 4089TIP3   OH233825   1.688   0.771   7.742
 4089TIP3    H133826   1.687   0.710   7.669
 4089TIP3    H233827   1.675   0.857   7.701
 4090TIP3   OH233828   1.363   1.454   0.497
 4090TIP3    H133829   1.340   1.505   0.419
 4090TIP3    H233830   1.316   1.371   0.486
 4091TIP3   OH233831   2.351   5.730   8.684
 4091TIP3    H133832   2.259   5.712   8.662
 4091TIP3    H233833   2.376   5.803   8.628
 4092TIP3   OH233834   3.051   1.936   0.946
 4092TIP3    H133835   3.032   1.861   1.001
 4092TIP3    H233836   3.016   1.912   0.860
 4093TIP3   OH233837   4.274   2.152   8.511
 4093TIP3    H133838   4.219   2.197   8.446
 4093TIP3    H233839   4.211   2.101   8.563
 4094TIP3   OH233840   3.658   3.344   6.920
 4094TIP3    H133841   3.660   3.362   6.826
 4094TIP3    H233842   3.671   3.249   6.926
 4095TIP3   OH233843   6.531   2.609   1.672
 4095TIP3    H133844   6.477   2.530   1.674
 4095TIP3    H233845   6.550   2.628   1.764
 4096TIP3   OH233846   4.149   5.452   7.432
 4096TIP3    H133847   4.208   5.523   7.407
 4096TIP3    H233848   4.072   5.463   7.377
 4097TIP3   OH233849   1.620   3.423   0.697
 4097TIP3    H133850   1.706   3.381   0.705
 4097TIP3    H233851   1.558   3.357   0.728
 4098TIP3   OH233852   3.750   5.895   1.879
 4098TIP3    H133853   3.726   5.978   1.839
 4098TIP3    H233854   3.684   5.833   1.848
 4099TIP3   OH233855   5.757   0.470   0.946
 4099TIP3    H133856   5.801   0.435   0.869
 4099TIP3    H233857   5.811   0.440   1.020
 4100TIP3   OH233858   5.996   4.778   1.959
 4100TIP3    H133859   6.021   4.809   1.871
 4100TIP3    H233860   5.919   4.831   1.981
 4101TIP3   OH233861   4.821   4.683   1.338
 4101TIP3    H133862   4.774   4.638   1.409
 4101TIP3    H233863   4.799   4.633   1.259
 4102TIP3   OH233864   5.330   3.544   6.803
 4102TIP3    H133865   5.337   3.513   6.893
 4102TIP3    H233866   5.275   3.479   6.759
 4103TIP3   OH233867   1.471   3.006   1.144
 4103TIP3    H133868   1.502   2.916   1.156
 4103TIP3    H233869   1.515   3.056   1.213
 4104TIP3   OH233870   2.439   3.768   8.557
 4104TIP3    H133871   2.423   3.852   8.514
 4104TIP3    H233872   2.405   3.703   8.496
 4105TIP3   OH233873   0.305   5.595   8.810
 4105TIP3    H133874   0.384   5.639   8.841
 4105TIP3    H233875   0.326   5.502   8.815
 4106TIP3   OH233876   5.058   3.488   1.555
 4106TIP3    H133877   5.027   3.574   1.584
 4106TIP3    H233878   5.049   3.490   1.460
 4107TIP3   OH233879   2.549   6.789   7.968
 4107TIP3    H133880   2.482   0.023   7.909
 4107TIP3    H233881   2.602   0.065   7.992
 4108TIP3   OH233882   5.339   6.149   2.353
 4108TIP3    H133883   5.269   6.091   2.384
 4108TIP3    H233884   5.317   6.166   2.262
 4109TIP3   OH233885   1.208   6.542   1.916
 4109TIP3    H133886   1.239   6.473   1.974
 4109TIP3    H233887   1.130   6.505   1.874
 4110TIP3   OH233888   2.636   2.419   7.476
 4110TIP3    H133889   2.548   2.406   7.441
 4110TIP3    H233890   2.654   2.512   7.461
 4111TIP3   OH233891   1.263   6.151   6.559
 4111TIP3    H133892   1.344   6.100   6.548
 4111TIP3    H233893   1.291   6.231   6.604
 4112TIP3   OH233894   0.259   2.573   1.982
 4112TIP3    H133895   0.346   2.570   2.023
 4112TIP3    H233896   0.277   2.598   1.891
 4113TIP3   OH233897   3.064   5.043   0.068
 4113TIP3    H133898   3.021   5.094   0.137
 4113TIP3    H233899   2.996   4.986   0.033
 4114TIP3   OH233900   4.697   6.429   1.457
 4114TIP3    H133901   4.694   6.524   1.445
 4114TIP3    H233902   4.762   6.399   1.394
 4115TIP3   OH233903   3.457   3.691   6.564
 4115TIP3    H133904   3.542   3.647   6.559
 4115TIP3    H233905   3.475   3.781   6.537
 4116TIP3   OH233906   1.798   3.115   7.813
 4116TIP3    H133907   1.782   3.049   7.745
 4116TIP3    H233908   1.873   3.165   7.781
 4117TIP3   OH233909   5.520   6.383   1.903
 4117TIP3    H133910   5.563   6.460   1.866
 4117TIP3    H233911   5.446   6.418   1.953
 4118TIP3   OH233912   3.318   2.992   7.879
 4118TIP3    H133913   3.223   2.984   7.887
 4118TIP3    H233914   3.353   2.936   7.948
 4119TIP3   OH233915   4.848   4.903   8.723
 4119TIP3    H133916   4.862   4.847   8.799
 4119TIP3    H233917   4.773   4.957   8.747
 4120TIP3   OH233918   3.111   5.206   0.368
 4120TIP3    H133919   3.169   5.136   0.338
 4120TIP3    H233920   3.116   5.201   0.464
 4121TIP3   OH233921   4.212   5.735   1.898
 4121TIP3    H133922   4.129   5.780   1.880
 4121TIP3    H233923   4.238   5.699   1.814
 4122TIP3   OH233924   3.983   1.218   0.850
 4122TIP3    H133925   3.939   1.138   0.877
 4122TIP3    H233926   4.060   1.188   0.801
 4123TIP3   OH233927   1.361   3.388   7.867
 4123TIP3    H133928   1.324   3.355   7.785
 4123TIP3    H233929   1.455   3.373   7.858
 4124TIP3   OH233930   5.306   1.456   1.156
 4124TIP3    H133931   5.221   1.417   1.135
 4124TIP3    H233932   5.297   1.485   1.247
 4125TIP3   OH233933   0.024   5.414   1.519
 4125TIP3    H133934   6.792   5.349   1.457
 4125TIP3    H233935   0.009   5.498   1.476
 4126TIP3   OH233936   6.393   6.404   1.041
 4126TIP3    H133937   6.319   6.405   1.102
 4126TIP3    H233938   6.466   6.368   1.092
 4127TIP3   OH233939   5.920   5.556   0.809
 4127TIP3    H133940   5.917   5.645   0.772
 4127TIP3    H233941   5.839   5.548   0.858
 4128TIP3   OH233942   5.966   2.697   8.208
 4128TIP3    H133943   5.986   2.761   8.277
 4128TIP3    H233944   6.051   2.664   8.181
 4129TIP3   OH233945   3.767   4.206   1.027
 4129TIP3    H133946   3.744   4.142   1.095
 4129TIP3    H233947   3.691   4.265   1.024
 4130TIP3   OH233948   2.039   0.985   6.543
 4130TIP3    H133949   2.072   1.045   6.476
 4130TIP3    H233950   1.966   0.940   6.500
 4131TIP3   OH233951   3.833   6.800   7.007
 4131TIP3    H133952   3.876   0.057   7.070
 4131TIP3    H233953   3.894   6.728   6.993
 4132TIP3   OH233954   3.596   1.092   1.520
 4132TIP3    H133955   3.667   1.086   1.456
 4132TIP3    H233956   3.639   1.082   1.605
 4133TIP3   OH233957   0.568   3.742   1.507
 4133TIP3    H133958   0.526   3.819   1.468
 4133TIP3    H233959   0.611   3.776   1.586
 4134TIP3   OH233960   1.924   3.994   0.856
 4134TIP3    H133961   1.869   3.943   0.916
 4134TIP3    H233962   1.942   3.934   0.784
 4135TIP3   OH233963   3.824   0.747   1.797
 4135TIP3    H133964   3.829   0.767   1.891
 4135TIP3    H233965   3.757   0.679   1.791
 4136TIP3   OH233966   0.178   1.503   7.525
 4136TIP3    H133967   0.094   1.496   7.479
 4136TIP3    H233968   0.160   1.468   7.613
 4137TIP3   OH233969   5.086   4.687   8.808
 4137TIP3    H133970   5.044   4.637   8.739
 4137TIP3    H233971   5.101   4.773   8.770
 4138TIP3   OH233972   2.907   6.168   1.723
 4138TIP3    H133973   2.943   6.104   1.785
 4138TIP3    H233974   2.891   6.246   1.775
 4139TIP3   OH233975   3.491   4.175   2.242
 4139TIP3    H133976   3.438   4.111   2.289
 4139TIP3    H233977   3.582   4.150   2.260
 4140TIP3   OH233978   1.224   4.101   7.578
 4140TIP3    H133979   1.272   4.184   7.578
 4140TIP3    H233980   1.135   4.125   7.605
 4141TIP3   OH233981   1.268   0.490   2.113
 4141TIP3    H133982   1.301   0.490   2.203
 4141TIP3    H233983   1.177   0.519   2.121
 4142TIP3   OH233984   2.681   6.054   7.889
 4142TIP3    H133985   2.768   6.045   7.927
 4142TIP3    H233986   2.659   6.147   7.900
 4143TIP3   OH233987   6.099   3.802   1.827
 4143TIP3    H133988   6.105   3.789   1.921
 4143TIP3    H233989   6.148   3.728   1.790
 4144TIP3   OH233990   1.589   0.008   7.454
 4144TIP3    H133991   1.665   6.784   7.401
 4144TIP3    H233992   1.623   0.074   7.515
 4145TIP3   OH233993   2.155   5.791   1.445
 4145TIP3    H133994   2.135   5.721   1.507
 4145TIP3    H233995   2.078   5.848   1.446
 4146TIP3   OH233996   1.290   5.155   2.744
 4146TIP3    H133997   1.257   5.076   2.702
 4146TIP3    H233998   1.225   5.223   2.723
 4147TIP3   OH233999   3.072   1.574   7.488
 4147TIP3    H134000   3.107   1.610   7.570
 4147TIP3    H234001   2.994   1.626   7.470
 4148TIP3   OH234002   1.384   4.086   1.995
 4148TIP3    H134003   1.462   4.043   2.030
 4148TIP3    H234004   1.375   4.049   1.907
 4149TIP3   OH234005   2.732   0.864   6.988
 4149TIP3    H134006   2.777   0.833   6.910
 4149TIP3    H234007   2.765   0.952   7.002
 4150TIP3   OH234008   4.309   1.009   8.007
 4150TIP3    H134009   4.327   1.063   8.084
 4150TIP3    H234010   4.218   0.981   8.018
 4151TIP3   OH234011   1.141   3.580   7.506
 4151TIP3    H134012   1.186   3.599   7.424
 4151TIP3    H234013   1.142   3.662   7.555
 4152TIP3   OH234014   0.240   1.521   8.292
 4152TIP3    H134015   0.211   1.521   8.200
 4152TIP3    H234016   0.192   1.449   8.332
 4153TIP3   OH234017   3.403   4.500   0.226
 4153TIP3    H134018   3.430   4.441   0.156
 4153TIP3    H234019   3.480   4.505   0.284
 4154TIP3   OH234020   6.467   6.144   0.201
 4154TIP3    H134021   6.394   6.193   0.164
 4154TIP3    H234022   6.542   6.203   0.195
 4155TIP3   OH234023   5.473   1.521   7.792
 4155TIP3    H134024   5.528   1.553   7.863
 4155TIP3    H234025   5.440   1.601   7.750
 4156TIP3   OH234026   6.272   4.824   0.075
 4156TIP3    H134027   6.268   4.749   0.016
 4156TIP3    H234028   6.212   4.888   0.037
 4157TIP3   OH234029   5.523   5.148   1.860
 4157TIP3    H134030   5.547   5.234   1.896
 4157TIP3    H234031   5.455   5.116   1.919
 4158TIP3   OH234032   4.195   4.871   1.429
 4158TIP3    H134033   4.261   4.805   1.408
 4158TIP3    H234034   4.126   4.857   1.365
 4159TIP3   OH234035   5.078   2.205   0.950
 4159TIP3    H134036   5.071   2.173   0.860
 4159TIP3    H234037   4.988   2.210   0.981
 4160TIP3   OH234038   4.566   4.046   7.527
 4160TIP3    H134039   4.542   4.113   7.462
 4160TIP3    H234040   4.531   4.080   7.609
 4161TIP3   OH234041   5.977   4.294   8.216
 4161TIP3    H134042   5.966   4.204   8.186
 4161TIP3    H234043   5.911   4.305   8.284
 4162TIP3   OH234044   5.636   2.252   8.591
 4162TIP3    H134045   5.580   2.245   8.514
 4162TIP3    H234046   5.651   2.346   8.601
 4163TIP3   OH234047   1.115   0.631   2.426
 4163TIP3    H134048   1.207   0.609   2.410
 4163TIP3    H234049   1.115   0.726   2.436
 4164TIP3   OH234050   1.225   1.290   8.485
 4164TIP3    H134051   1.201   1.373   8.525
 4164TIP3    H234052   1.143   1.242   8.476
 4165TIP3   OH234053   1.489   0.594   8.183
 4165TIP3    H134054   1.501   0.513   8.134
 4165TIP3    H234055   1.543   0.658   8.137
 4166TIP3   OH234056   2.090   6.625   7.166
 4166TIP3    H134057   2.152   6.658   7.232
 4166TIP3    H234058   2.052   6.704   7.127
 4167TIP3   OH234059   6.095   2.292   6.157
 4167TIP3    H134060   6.097   2.367   6.098
 4167TIP3    H234061   6.037   2.319   6.228
 4168TIP3   OH234062   6.320   2.128   8.610
 4168TIP3    H134063   6.301   2.161   8.697
 4168TIP3    H234064   6.387   2.187   8.576
 4169TIP3   OH234065   0.058   0.981   7.178
 4169TIP3    H134066   0.045   1.076   7.183
 4169TIP3    H234067   0.141   0.966   7.222
 4170TIP3   OH234068   4.871   4.901   7.261
 4170TIP3    H134069   4.873   4.810   7.229
 4170TIP3    H234070   4.918   4.951   7.194
 4171TIP3   OH234071   3.598   2.070   1.206
 4171TIP3    H134072   3.567   2.140   1.148
 4171TIP3    H234073   3.691   2.086   1.217
 4172TIP3   OH234074   0.172   1.087   1.262
 4172TIP3    H134075   0.182   1.120   1.351
 4172TIP3    H234076   0.217   1.003   1.263
 4173TIP3   OH234077   5.229   3.385   2.269
 4173TIP3    H134078   5.292   3.433   2.323
 4173TIP3    H234079   5.217   3.302   2.314
 4174TIP3   OH234080   2.525   0.237   0.358
 4174TIP3    H134081   2.570   0.294   0.421
 4174TIP3    H234082   2.519   0.152   0.402
 4175TIP3   OH234083   4.649   5.043   2.293
 4175TIP3    H134084   4.665   4.954   2.263
 4175TIP3    H234085   4.734   5.073   2.324
 4176TIP3   OH234086   3.006   1.535   6.196
 4176TIP3    H134087   3.082   1.593   6.186
 4176TIP3    H234088   3.035   1.451   6.161
 4177TIP3   OH234089   3.289   4.368   8.392
 4177TIP3    H134090   3.299   4.289   8.338
 4177TIP3    H234091   3.373   4.413   8.385
 4178TIP3   OH234092   4.532   3.558   8.697
 4178TIP3    H134093   4.550   3.590   8.609
 4178TIP3    H234094   4.578   3.474   8.702
 4179TIP3   OH234095   6.599   5.959   1.957
 4179TIP3    H134096   6.509   5.953   1.990
 4179TIP3    H234097   6.646   5.889   2.002
 4180TIP3   OH234098   3.561   3.414   7.745
 4180TIP3    H134099   3.572   3.325   7.777
 4180TIP3    H234100   3.502   3.455   7.808
 4181TIP3   OH234101   6.640   5.744   0.943
 4181TIP3    H134102   6.722   5.776   0.981
 4181TIP3    H234103   6.662   5.656   0.911
 4182TIP3   OH234104   4.395   0.335   7.301
 4182TIP3    H134105   4.309   0.323   7.260
 4182TIP3    H234106   4.457   0.305   7.235
 4183TIP3   OH234107   6.042   2.883   7.952
 4183TIP3    H134108   6.009   2.960   7.905
 4183TIP3    H234109   6.018   2.898   8.043
 4184TIP3   OH234110   0.193   3.024   1.624
 4184TIP3    H134111   0.132   2.959   1.589
 4184TIP3    H234112   0.279   2.983   1.613
 4185TIP3   OH234113   6.129   4.813   6.887
 4185TIP3    H134114   6.182   4.735   6.872
 4185TIP3    H234115   6.039   4.782   6.890
 4186TIP3   OH234116   4.407   4.763   8.179
 4186TIP3    H134117   4.395   4.853   8.152
 4186TIP3    H234118   4.354   4.712   8.117
 4187TIP3   OH234119   6.713   5.981   8.257
 4187TIP3    H134120   6.688   6.073   8.264
 4187TIP3    H234121   6.796   5.982   8.210
 4188TIP3   OH234122   4.541   2.136   7.277
 4188TIP3    H134123   4.570   2.068   7.217
 4188TIP3    H234124   4.454   2.161   7.246
 4189TIP3   OH234125   4.170   6.535   1.236
 4189TIP3    H134126   4.216   6.577   1.308
 4189TIP3    H234127   4.241   6.497   1.183
 4190TIP3   OH234128   3.262   0.551   1.267
 4190TIP3    H134129   3.205   0.559   1.344
 4190TIP3    H234130   3.228   0.474   1.221
 4191TIP3   OH234131   5.063   2.048   8.128
 4191TIP3    H134132   5.087   1.968   8.080
 4191TIP3    H234133   5.124   2.051   8.202
 4192TIP3   OH234134   0.498   6.104   1.460
 4192TIP3    H134135   0.498   6.109   1.365
 4192TIP3    H234136   0.406   6.107   1.485
 4193TIP3   OH234137   2.148   3.165   6.422
 4193TIP3    H134138   2.202   3.147   6.499
 4193TIP3    H234139   2.137   3.260   6.422
 4194TIP3   OH234140   5.032   4.200   7.313
 4194TIP3    H134141   5.066   4.194   7.402
 4194TIP3    H234142   4.959   4.138   7.311
 4195TIP3   OH234143   4.372   2.839   0.573
 4195TIP3    H134144   4.292   2.863   0.527
 4195TIP3    H234145   4.436   2.825   0.504
 4196TIP3   OH234146   2.342   2.127   6.729
 4196TIP3    H134147   2.392   2.073   6.668
 4196TIP3    H234148   2.399   2.201   6.748
 4197TIP3   OH234149   6.468   5.811   7.921
 4197TIP3    H134150   6.471   5.903   7.894
 4197TIP3    H234151   6.500   5.812   8.011
 4198TIP3   OH234152   5.197   2.651   0.777
 4198TIP3    H134153   5.114   2.699   0.781
 4198TIP3    H234154   5.212   2.621   0.867
 4199TIP3   OH234155   2.914   3.609   7.088
 4199TIP3    H134156   2.881   3.520   7.088
 4199TIP3    H234157   2.850   3.660   7.137
 4200TIP3   OH234158   5.438   1.596   7.212
 4200TIP3    H134159   5.411   1.565   7.299
 4200TIP3    H234160   5.460   1.688   7.225
 4201TIP3   OH234161   4.568   3.006   1.105
 4201TIP3    H134162   4.639   2.989   1.167
 4201TIP3    H234163   4.492   3.026   1.160
 4202TIP3   OH234164   6.329   6.069   2.291
 4202TIP3    H134165   6.269   6.067   2.365
 4202TIP3    H234166   6.357   6.160   2.284
 4203TIP3   OH234167   5.851   0.075   8.609
 4203TIP3    H134168   5.924   0.016   8.628
 4203TIP3    H234169   5.889   0.163   8.618
 4204TIP3   OH234170   2.457   1.757   6.792
 4204TIP3    H134171   2.392   1.813   6.749
 4204TIP3    H234172   2.406   1.686   6.830
 4205TIP3   OH234173   0.807   0.915   1.127
 4205TIP3    H134174   0.727   0.935   1.177
 4205TIP3    H234175   0.803   0.975   1.053
 4206TIP3   OH234176   2.180   5.291   0.227
 4206TIP3    H134177   2.210   5.220   0.171
 4206TIP3    H234178   2.182   5.368   0.171
 4207TIP3   OH234179   2.194   2.542   0.889
 4207TIP3    H134180   2.251   2.571   0.960
 4207TIP3    H234181   2.157   2.623   0.853
 4208TIP3   OH234182   0.901   1.911   0.489
 4208TIP3    H134183   0.927   1.869   0.571
 4208TIP3    H234184   0.918   1.844   0.422
 4209TIP3   OH234185   4.026   3.715   6.389
 4209TIP3    H134186   4.108   3.687   6.350
 4209TIP3    H234187   3.962   3.649   6.361
 4210TIP3   OH234188   4.534   5.005   0.438
 4210TIP3    H134189   4.616   4.957   0.451
 4210TIP3    H234190   4.547   5.087   0.486
 4211TIP3   OH234191   1.175   1.782   7.623
 4211TIP3    H134192   1.197   1.744   7.538
 4211TIP3    H234193   1.146   1.708   7.676
 4212TIP3   OH234194   3.394   4.809   6.219
 4212TIP3    H134195   3.313   4.852   6.247
 4212TIP3    H234196   3.367   4.751   6.148
 4213TIP3   OH234197   6.552   5.370   1.193
 4213TIP3    H134198   6.558   5.317   1.272
 4213TIP3    H234199   6.502   5.317   1.131
 4214TIP3   OH234200   0.008   3.214   8.342
 4214TIP3    H134201   0.041   3.170   8.420
 4214TIP3    H234202   6.729   3.166   8.320
 4215TIP3   OH234203   4.472   1.826   0.034
 4215TIP3    H134204   4.406   1.758   0.021
 4215TIP3    H234205   4.439   1.877   0.108
 4216TIP3   OH234206   4.249   4.941   0.788
 4216TIP3    H134207   4.154   4.932   0.778
 4216TIP3    H234208   4.285   4.915   0.703
 4217TIP3   OH234209   4.045   0.591   0.721
 4217TIP3    H134210   4.082   0.537   0.791
 4217TIP3    H234211   4.120   0.617   0.669
 4218TIP3   OH234212   0.681   1.358   8.380
 4218TIP3    H134213   0.666   1.425   8.314
 4218TIP3    H234214   0.680   1.405   8.463
 4219TIP3   OH234215   5.933   0.984   7.701
 4219TIP3    H134216   5.899   0.946   7.781
 4219TIP3    H234217   5.926   0.914   7.636
 4220TIP3   OH234218   1.981   0.042   7.039
 4220TIP3    H134219   2.016   0.085   6.961
 4220TIP3    H234220   1.892   0.076   7.049
 4221TIP3   OH234221   4.331   5.193   8.840
 4221TIP3    H134222   4.340   5.176   0.073
 4221TIP3    H234223   4.267   5.263   8.835
 4222TIP3   OH234224   1.334   2.078   7.121
 4222TIP3    H134225   1.264   2.124   7.075
 4222TIP3    H234226   1.301   2.068   7.211
 4223TIP3   OH234227   0.348   1.470   0.790
 4223TIP3    H134228   0.406   1.434   0.857
 4223TIP3    H234229   0.273   1.411   0.789
 4224TIP3   OH234230   1.639   4.192   0.470
 4224TIP3    H134231   1.575   4.229   0.408
 4224TIP3    H234232   1.609   4.221   0.556
 4225TIP3   OH234233   3.696   4.012   7.960
 4225TIP3    H134234   3.629   3.945   7.976
 4225TIP3    H234235   3.747   3.977   7.887
 4226TIP3   OH234236   2.394   4.944   1.794
 4226TIP3    H134237   2.361   4.914   1.878
 4226TIP3    H234238   2.454   5.015   1.816
 4227TIP3   OH234239   3.204   3.486   7.610
 4227TIP3    H134240   3.131   3.428   7.633
 4227TIP3    H234241   3.281   3.443   7.649
 4228TIP3   OH234242   3.317   3.706   1.335
 4228TIP3    H134243   3.339   3.753   1.415
 4228TIP3    H234244   3.229   3.738   1.313
 4229TIP3   OH234245   4.895   0.520   7.257
 4229TIP3    H134246   4.948   0.476   7.324
 4229TIP3    H234247   4.829   0.456   7.232
 4230TIP3   OH234248   0.321   2.483   7.467
 4230TIP3    H134249   0.266   2.407   7.446
 4230TIP3    H234250   0.321   2.488   7.562
 4231TIP3   OH234251   5.752   1.753   1.445
 4231TIP3    H134252   5.818   1.803   1.399
 4231TIP3    H234253   5.776   1.661   1.432
 4232TIP3   OH234254   3.502   2.775   8.067
 4232TIP3    H134255   3.500   2.793   8.161
 4232TIP3    H234256   3.435   2.707   8.054
 4233TIP3   OH234257   2.827   1.717   7.430
 4233TIP3    H134258   2.883   1.791   7.452
 4233TIP3    H234259   2.745   1.735   7.475
 4234TIP3   OH234260   2.138   1.096   1.670
 4234TIP3    H134261   2.101   1.164   1.726
 4234TIP3    H234262   2.072   1.027   1.669
 4235TIP3   OH234263   3.300   0.036   7.611
 4235TIP3    H134264   3.314   0.017   7.518
 4235TIP3    H234265   3.246   6.763   7.642
 4236TIP3   OH234266   3.696   3.577   6.620
 4236TIP3    H134267   3.762   3.639   6.650
 4236TIP3    H234268   3.738   3.491   6.630
 4237TIP3   OH234269   3.778   5.371   2.208
 4237TIP3    H134270   3.805   5.427   2.281
 4237TIP3    H234271   3.830   5.291   2.220
 4238TIP3   OH234272   4.674   6.647   1.219
 4238TIP3    H134273   4.623   6.716   1.176
 4238TIP3    H234274   4.669   6.572   1.160
 4239TIP3   OH234275   1.384   2.822   0.397
 4239TIP3    H134276   1.333   2.774   0.332
 4239TIP3    H234277   1.376   2.770   0.477
 4240TIP3   OH234278   5.263   5.483   2.393
 4240TIP3    H134279   5.286   5.415   2.329
 4240TIP3    H234280   5.316   5.463   2.470
 4241TIP3   OH234281   4.374   4.762   0.946
 4241TIP3    H134282   4.336   4.835   0.896
 4241TIP3    H234283   4.332   4.684   0.911
 4242TIP3   OH234284   1.113   1.694   0.886
 4242TIP3    H134285   1.183   1.668   0.946
 4242TIP3    H234286   1.157   1.709   0.802
 4243TIP3   OH234287   2.378   5.442   8.803
 4243TIP3    H134288   2.348   5.379   8.738
 4243TIP3    H234289   2.302   5.498   8.820
 4244TIP3   OH234290   1.240   0.604   1.045
 4244TIP3    H134291   1.300   0.623   1.117
 4244TIP3    H234292   1.177   0.676   1.047
 4245TIP3   OH234293   6.189   4.692   2.152
 4245TIP3    H134294   6.113   4.708   2.096
 4245TIP3    H234295   6.216   4.778   2.183
 4246TIP3   OH234296   2.230   5.097   0.646
 4246TIP3    H134297   2.283   5.095   0.725
 4246TIP3    H234298   2.292   5.115   0.575
 4247TIP3   OH234299   4.027   3.003   6.760
 4247TIP3    H134300   4.042   3.024   6.667
 4247TIP3    H234301   4.073   2.920   6.773
 4248TIP3   OH234302   5.588   2.364   6.865
 4248TIP3    H134303   5.530   2.363   6.788
 4248TIP3    H234304   5.674   2.343   6.830
 4249TIP3   OH234305   2.434   5.379   1.738
 4249TIP3    H134306   2.347   5.388   1.700
 4249TIP3    H234307   2.459   5.468   1.763
 4250TIP3   OH234308   6.643   4.391   0.504
 4250TIP3    H134309   6.670   4.363   0.417
 4250TIP3    H234310   6.641   4.487   0.499
 4251TIP3   OH234311   2.738   2.209   1.386
 4251TIP3    H134312   2.823   2.250   1.373
 4251TIP3    H234313   2.685   2.238   1.312
 4252TIP3   OH234314   1.809   6.779   0.947
 4252TIP3    H134315   1.748   0.052   0.953
 4252TIP3    H234316   1.776   6.726   0.875
 4253TIP3   OH234317   5.028   1.232   1.512
 4253TIP3    H134318   4.976   1.312   1.515
 4253TIP3    H234319   5.099   1.248   1.575
 4254TIP3   OH234320   5.828   5.118   1.168
 4254TIP3    H134321   5.901   5.121   1.230
 4254TIP3    H234322   5.750   5.127   1.222
 4255TIP3   OH234323   2.621   6.005   0.503
 4255TIP3    H134324   2.624   6.100   0.497
 4255TIP3    H234325   2.710   5.977   0.484
 4256TIP3   OH234326   3.700   6.013   7.324
 4256TIP3    H134327   3.789   6.044   7.305
 4256TIP3    H234328   3.679   5.956   7.250
 4257TIP3   OH234329   1.876   3.272   1.094
 4257TIP3    H134330   1.826   3.351   1.115
 4257TIP3    H234331   1.811   3.212   1.058
 4258TIP3   OH234332   0.386   5.156   2.202
 4258TIP3    H134333   0.371   5.086   2.138
 4258TIP3    H234334   0.387   5.236   2.150
 4259TIP3   OH234335   3.308   2.606   7.059
 4259TIP3    H134336   3.249   2.555   7.115
 4259TIP3    H234337   3.357   2.662   7.120
 4260TIP3   OH234338   6.640   3.147   6.932
 4260TIP3    H134339   6.656   3.212   7.000
 4260TIP3    H234340   6.546   3.150   6.917
 4261TIP3   OH234341   1.863   5.332   6.602
 4261TIP3    H134342   1.874   5.351   6.509
 4261TIP3    H234343   1.804   5.401   6.633
 4262TIP3   OH234344   2.903   2.443   7.477
 4262TIP3    H134345   2.814   2.410   7.462
 4262TIP3    H234346   2.893   2.514   7.540
 4263TIP3   OH234347   0.395   4.589   0.660
 4263TIP3    H134348   0.373   4.496   0.649
 4263TIP3    H234349   0.354   4.613   0.743
 4264TIP3   OH234350   5.926   5.361   7.298
 4264TIP3    H134351   5.905   5.366   7.392
 4264TIP3    H234352   5.846   5.328   7.258
 4265TIP3   OH234353   2.621   1.203   7.035
 4265TIP3    H134354   2.588   1.242   6.954
 4265TIP3    H234355   2.715   1.220   7.032
 4266TIP3   OH234356   2.990   2.324   2.328
 4266TIP3    H134357   2.929   2.322   2.402
 4266TIP3    H234358   2.951   2.387   2.267
 4267TIP3   OH234359   2.550   0.924   0.656
 4267TIP3    H134360   2.494   0.944   0.732
 4267TIP3    H234361   2.567   0.830   0.663
 4268TIP3   OH234362   6.067   5.650   8.034
 4268TIP3    H134363   6.051   5.638   7.940
 4268TIP3    H234364   6.145   5.598   8.052
 4269TIP3   OH234365   1.466   3.084   7.302
 4269TIP3    H134366   1.558   3.074   7.280
 4269TIP3    H234367   1.453   3.027   7.378
 4270TIP3   OH234368   6.615   5.679   1.373
 4270TIP3    H134369   6.550   5.683   1.303
 4270TIP3    H234370   6.589   5.748   1.435
 4271TIP3   OH234371   3.494   4.384   8.701
 4271TIP3    H134372   3.512   4.310   8.643
 4271TIP3    H234373   3.447   4.345   8.776
 4272TIP3   OH234374   5.009   1.507   0.398
 4272TIP3    H134375   5.100   1.516   0.371
 4272TIP3    H234376   5.014   1.482   0.490
 4273TIP3   OH234377   3.377   1.192   8.284
 4273TIP3    H134378   3.373   1.130   8.357
 4273TIP3    H234379   3.468   1.219   8.280
 4274TIP3   OH234380   3.608   6.618   7.126
 4274TIP3    H134381   3.651   6.688   7.077
 4274TIP3    H234382   3.520   6.613   7.090
 4275TIP3   OH234383   6.738   0.200   0.518
 4275TIP3    H134384   6.683   0.260   0.468
 4275TIP3    H234385   0.027   0.221   0.492
 4276TIP3   OH234386   3.850   2.705   1.605
 4276TIP3    H134387   3.907   2.665   1.540
 4276TIP3    H234388   3.905   2.717   1.682
 4277TIP3   OH234389   5.788   1.708   7.800
 4277TIP3    H134390   5.844   1.753   7.736
 4277TIP3    H234391   5.850   1.665   7.860
 4278TIP3   OH234392   5.977   5.729   0.146
 4278TIP3    H134393   5.973   5.636   0.169
 4278TIP3    H234394   6.043   5.765   0.206
 4279TIP3   OH234395   2.422   1.467   8.672
 4279TIP3    H134396   2.360   1.424   8.614
 4279TIP3    H234397   2.371   1.534   8.717
 4280TIP3   OH234398   4.769   2.969   1.295
 4280TIP3    H134399   4.853   2.952   1.339
 4280TIP3    H234400   4.766   3.064   1.285
 4281TIP3   OH234401   1.764   5.747   8.851
 4281TIP3    H134402   1.741   5.656   0.010
 4281TIP3    H234403   1.777   5.748   8.756
 4282TIP3   OH234404   0.508   1.184   0.065
 4282TIP3    H134405   0.437   1.247   0.074
 4282TIP3    H234406   0.582   1.237   0.034
 4283TIP3   OH234407   6.555   0.688   0.171
 4283TIP3    H134408   6.626   0.654   0.225
 4283TIP3    H234409   6.593   0.695   0.083
 4284TIP3   OH234410   5.719   0.150   2.204
 4284TIP3    H134411   5.806   0.169   2.169
 4284TIP3    H234412   5.672   0.234   2.199
 4285TIP3   OH234413   5.555   5.377   8.601
 4285TIP3    H134414   5.560   5.472   8.613
 4285TIP3    H234415   5.569   5.364   8.507
 4286TIP3   OH234416   2.697   6.158   7.486
 4286TIP3    H134417   2.621   6.198   7.445
 4286TIP3    H234418   2.760   6.230   7.496
 4287TIP3   OH234419   2.146   3.461   6.472
 4287TIP3    H134420   2.187   3.445   6.557
 4287TIP3    H234421   2.175   3.548   6.447
 4288TIP3   OH234422   0.418   3.933   7.223
 4288TIP3    H134423   0.501   3.942   7.176
 4288TIP3    H234424   0.422   4.002   7.290
 4289TIP3   OH234425   1.786   2.550   1.668
 4289TIP3    H134426   1.843   2.518   1.738
 4289TIP3    H234427   1.766   2.473   1.615
 4290TIP3   OH234428   4.121   1.973   8.659
 4290TIP3    H134429   4.150   2.026   8.733
 4290TIP3    H234430   4.027   1.962   8.672
 4291TIP3   OH234431   1.403   5.658   7.356
 4291TIP3    H134432   1.460   5.629   7.427
 4291TIP3    H234433   1.444   5.625   7.276
 4292TIP3   OH234434   3.466   3.910   1.496
 4292TIP3    H134435   3.489   3.886   1.585
 4292TIP3    H234436   3.400   3.979   1.506
 4293TIP3   OH234437   2.773   1.958   8.221
 4293TIP3    H134438   2.744   2.016   8.292
 4293TIP3    H234439   2.720   1.879   8.231
 4294TIP3   OH234440   3.079   2.403   7.708
 4294TIP3    H134441   3.043   2.400   7.619
 4294TIP3    H234442   3.007   2.434   7.762
 4295TIP3   OH234443   5.837   1.082   0.067
 4295TIP3    H134444   5.857   0.992   0.043
 4295TIP3    H234445   5.796   1.119   8.849
 4296TIP3   OH234446   2.309   5.839   7.746
 4296TIP3    H134447   2.342   5.754   7.718
 4296TIP3    H234448   2.364   5.903   7.701
 4297TIP3   OH234449   1.107   3.024   1.021
 4297TIP3    H134450   1.021   3.013   0.982
 4297TIP3    H234451   1.091   3.018   1.116
 4298TIP3   OH234452   5.090   0.700   8.636
 4298TIP3    H134453   5.029   0.640   8.593
 4298TIP3    H234454   5.045   0.728   8.715
 4299TIP3   OH234455   5.654   5.095   0.238
 4299TIP3    H134456   5.614   5.169   0.192
 4299TIP3    H234457   5.589   5.068   0.302
 4300TIP3   OH234458   1.657   1.895   6.893
 4300TIP3    H134459   1.726   1.884   6.828
 4300TIP3    H234460   1.576   1.899   6.841
 4301TIP3   OH234461   6.382   0.343   8.614
 4301TIP3    H134462   6.310   0.400   8.588
 4301TIP3    H234463   6.340   0.264   8.647
 4302TIP3   OH234464   4.299   4.220   7.203
 4302TIP3    H134465   4.373   4.281   7.194
 4302TIP3    H234466   4.269   4.233   7.293
 4303TIP3   OH234467   5.850   2.074   7.565
 4303TIP3    H134468   5.810   2.160   7.580
 4303TIP3    H234469   5.843   2.060   7.471
 4304TIP3   OH234470   4.669   0.038   0.835
 4304TIP3    H134471   4.639   0.056   0.746
 4304TIP3    H234472   4.619   0.098   0.890
 4305TIP3   OH234473   4.899   3.729   8.859
 4305TIP3    H134474   4.898   3.815   8.818
 4305TIP3    H234475   4.807   3.711   0.019
 4306TIP3   OH234476   4.679   5.594   8.478
 4306TIP3    H134477   4.742   5.665   8.490
 4306TIP3    H234478   4.664   5.591   8.384
 4307TIP3   OH234479   0.447   3.796   1.096
 4307TIP3    H134480   0.401   3.873   1.062
 4307TIP3    H234481   0.538   3.825   1.104
 4308TIP3   OH234482   1.570   6.019   7.549
 4308TIP3    H134483   1.511   5.986   7.480
 4308TIP3    H234484   1.591   6.108   7.521
 4309TIP3   OH234485   0.396   2.091   6.232
 4309TIP3    H134486   0.436   2.015   6.273
 4309TIP3    H234487   0.469   2.149   6.209
 4310TIP3   OH234488   2.733   3.277   0.674
 4310TIP3    H134489   2.796   3.269   0.602
 4310TIP3    H234490   2.685   3.194   0.673
 4311TIP3   OH234491   6.390   1.777   8.836
 4311TIP3    H134492   6.445   1.855   8.830
 4311TIP3    H234493   6.450   1.708   0.002
 4312TIP3   OH234494   1.097   0.622   7.568
 4312TIP3    H134495   1.168   0.566   7.538
 4312TIP3    H234496   1.028   0.612   7.502
 4313TIP3   OH234497   6.260   1.961   1.897
 4313TIP3    H134498   6.353   1.948   1.919
 4313TIP3    H234499   6.259   1.961   1.801
 4314TIP3   OH234500   3.623   0.501   1.152
 4314TIP3    H134501   3.686   0.573   1.146
 4314TIP3    H234502   3.659   0.444   1.220
 4315TIP3   OH234503   5.381   0.496   7.753
 4315TIP3    H134504   5.431   0.515   7.832
 4315TIP3    H234505   5.381   0.578   7.704
 4316TIP3   OH234506   3.740   5.712   0.173
 4316TIP3    H134507   3.751   5.625   0.135
 4316TIP3    H234508   3.659   5.745   0.135
 4317TIP3   OH234509   3.081   4.726   0.750
 4317TIP3    H134510   3.140   4.667   0.798
 4317TIP3    H234511   3.137   4.800   0.725
 4318TIP3   OH234512   4.681   1.215   8.030
 4318TIP3    H134513   4.741   1.195   8.103
 4318TIP3    H234514   4.598   1.176   8.056
 4319TIP3   OH234515   3.221   1.030   7.715
 4319TIP3    H134516   3.279   0.999   7.784
 4319TIP3    H234517   3.144   1.063   7.760
 4320TIP3   OH234518   4.462   2.838   2.130
 4320TIP3    H134519   4.500   2.777   2.067
 4320TIP3    H234520   4.376   2.802   2.151
 4321TIP3   OH234521   5.798   3.828   1.882
 4321TIP3    H134522   5.888   3.805   1.859
 4321TIP3    H234523   5.787   3.795   1.971
 4322TIP3   OH234524   2.874   1.408   8.461
 4322TIP3    H134525   2.885   1.498   8.493
 4322TIP3    H234526   2.955   1.389   8.413
 4323TIP3   OH234527   0.401   2.551   7.217
 4323TIP3    H134528   0.397   2.510   7.304
 4323TIP3    H234529   0.313   2.585   7.202
 4324TIP3   OH234530   4.464   0.754   6.565
 4324TIP3    H134531   4.535   0.707   6.522
 4324TIP3    H234532   4.500   0.840   6.584
 4325TIP3   OH234533   0.459   2.331   1.590
 4325TIP3    H134534   0.482   2.424   1.598
 4325TIP3    H234535   0.369   2.331   1.558
 4326TIP3   OH234536   6.745   3.302   7.145
 4326TIP3    H134537   6.735   3.224   7.200
 4326TIP3    H234538   6.716   3.374   7.201
 4327TIP3   OH234539   3.468   2.706   7.249
 4327TIP3    H134540   3.426   2.792   7.246
 4327TIP3    H234541   3.462   2.679   7.340
 4328TIP3   OH234542   3.524   3.390   1.457
 4328TIP3    H134543   3.549   3.336   1.532
 4328TIP3    H234544   3.429   3.398   1.464
 4329TIP3   OH234545   5.297   1.577   2.442
 4329TIP3    H134546   5.323   1.669   2.435
 4329TIP3    H234547   5.344   1.534   2.372
 4330TIP3   OH234548   3.856   2.216   1.172
 4330TIP3    H134549   3.890   2.234   1.085
 4330TIP3    H234550   3.929   2.233   1.231
 4331TIP3   OH234551   6.336   3.928   1.127
 4331TIP3    H134552   6.389   4.006   1.140
 4331TIP3    H234553   6.255   3.960   1.088
 4332TIP3   OH234554   1.085   5.626   8.435
 4332TIP3    H134555   1.012   5.594   8.381
 4332TIP3    H234556   1.121   5.700   8.386
 4333TIP3   OH234557   3.496   6.473   0.598
 4333TIP3    H134558   3.572   6.450   0.652
 4333TIP3    H234559   3.511   6.564   0.574
 4334TIP3   OH234560   6.487   3.092   8.837
 4334TIP3    H134561   6.558   3.154   8.852
 4334TIP3    H234562   6.413   3.145   8.809
 4335TIP3   OH234563   3.481   5.851   8.843
 4335TIP3    H134564   3.511   5.919   0.042
 4335TIP3    H234565   3.541   5.855   8.769
 4336TIP3   OH234566   6.681   2.493   7.920
 4336TIP3    H134567   6.624   2.511   7.995
 4336TIP3    H234568   6.621   2.458   7.853
 4337TIP3   OH234569   2.761   1.365   2.289
 4337TIP3    H134570   2.691   1.319   2.335
 4337TIP3    H234571   2.766   1.322   2.204
 4338TIP3   OH234572   5.877   0.121   7.765
 4338TIP3    H134573   5.955   0.150   7.813
 4338TIP3    H234574   5.913   0.074   7.689
 4339TIP3   OH234575   5.570   2.554   1.944
 4339TIP3    H134576   5.548   2.511   2.026
 4339TIP3    H234577   5.588   2.482   1.883
 4340TIP3   OH234578   0.878   3.699   1.000
 4340TIP3    H134579   0.919   3.743   1.075
 4340TIP3    H234580   0.898   3.606   1.013
 4341TIP3   OH234581   2.188   4.380   8.628
 4341TIP3    H134582   2.262   4.440   8.626
 4341TIP3    H234583   2.194   4.337   8.714
 4342TIP3   OH234584   4.971   2.828   0.800
 4342TIP3    H134585   4.896   2.830   0.741
 4342TIP3    H234586   4.937   2.791   0.882
 4343TIP3   OH234587   3.263   4.107   6.755
 4343TIP3    H134588   3.291   4.018   6.732
 4343TIP3    H234589   3.170   4.109   6.734
 4344TIP3   OH234590   3.746   2.572   8.199
 4344TIP3    H134591   3.726   2.491   8.248
 4344TIP3    H234592   3.743   2.546   8.107
 4345TIP3   OH234593   5.362   4.148   0.875
 4345TIP3    H134594   5.299   4.090   0.916
 4345TIP3    H234595   5.372   4.221   0.936
 4346TIP3   OH234596   5.347   2.438   0.228
 4346TIP3    H134597   5.409   2.366   0.231
 4346TIP3    H234598   5.341   2.468   0.319
 4347TIP3   OH234599   0.608   4.650   0.863
 4347TIP3    H134600   0.582   4.578   0.805
 4347TIP3    H234601   0.570   4.728   0.823
 4348TIP3   OH234602   3.689   1.232   0.870
 4348TIP3    H134603   3.670   1.144   0.904
 4348TIP3    H234604   3.692   1.220   0.775
 4349TIP3   OH234605   0.862   5.823   8.766
 4349TIP3    H134606   0.809   5.855   8.840
 4349TIP3    H234607   0.952   5.827   8.797
 4350TIP3   OH234608   5.457   1.140   6.349
 4350TIP3    H134609   5.446   1.066   6.409
 4350TIP3    H234610   5.512   1.105   6.279
 4351TIP3   OH234611   5.316   4.648   1.045
 4351TIP3    H134612   5.293   4.561   1.013
 4351TIP3    H234613   5.382   4.632   1.113
 4352TIP3   OH234614   0.870   6.466   0.398
 4352TIP3    H134615   0.955   6.425   0.379
 4352TIP3    H234616   0.825   6.404   0.455
 4353TIP3   OH234617   0.371   2.847   1.488
 4353TIP3    H134618   0.370   2.766   1.438
 4353TIP3    H234619   0.450   2.892   1.459
 4354TIP3   OH234620   3.327   1.380   1.351
 4354TIP3    H134621   3.340   1.434   1.272
 4354TIP3    H234622   3.415   1.370   1.387
 4355TIP3   OH234623   3.216   5.461   2.342
 4355TIP3    H134624   3.227   5.472   2.247
 4355TIP3    H234625   3.178   5.544   2.371
 4356TIP3   OH234626   3.359   0.377   6.755
 4356TIP3    H134627   3.276   0.366   6.708
 4356TIP3    H234628   3.425   0.376   6.686
 4357TIP3   OH234629   3.664   5.453   0.425
 4357TIP3    H134630   3.667   5.435   0.331
 4357TIP3    H234631   3.576   5.487   0.440
 4358TIP3   OH234632   1.150   3.157   7.445
 4358TIP3    H134633   1.151   3.074   7.397
 4358TIP3    H234634   1.234   3.158   7.492
 4359TIP3   OH234635   5.239   2.559   7.135
 4359TIP3    H134636   5.304   2.572   7.204
 4359TIP3    H234637   5.271   2.483   7.086
 4360TIP3   OH234638   5.149   2.273   8.529
 4360TIP3    H134639   5.139   2.202   8.466
 4360TIP3    H234640   5.153   2.230   8.614
 4361TIP3   OH234641   6.176   1.275   0.490
 4361TIP3    H134642   6.244   1.318   0.439
 4361TIP3    H234643   6.221   1.239   0.566
 4362TIP3   OH234644   5.205   3.336   1.994
 4362TIP3    H134645   5.248   3.256   2.024
 4362TIP3    H234646   5.209   3.395   2.069
 4363TIP3   OH234647   2.448   6.289   7.370
 4363TIP3    H134648   2.471   6.333   7.288
 4363TIP3    H234649   2.367   6.241   7.350
 4364TIP3   OH234650   5.615   1.270   2.091
 4364TIP3    H134651   5.521   1.254   2.100
 4364TIP3    H234652   5.621   1.357   2.053
 4365TIP3   OH234653   0.984   4.762   8.449
 4365TIP3    H134654   1.005   4.726   8.536
 4365TIP3    H234655   0.892   4.741   8.436
 4366TIP3   OH234656   0.114   3.820   8.803
 4366TIP3    H134657   0.178   3.865   8.859
 4366TIP3    H234658   0.156   3.817   8.717
 4367TIP3   OH234659   1.966   0.676   7.824
 4367TIP3    H134660   1.886   0.714   7.787
 4367TIP3    H234661   1.976   0.720   7.908
 4368TIP3   OH234662   3.025   0.590   8.600
 4368TIP3    H134663   3.073   0.567   8.680
 4368TIP3    H234664   2.975   0.668   8.625
 4369TIP3   OH234665   0.458   4.228   1.422
 4369TIP3    H134666   0.549   4.255   1.436
 4369TIP3    H234667   0.409   4.310   1.420
 4370TIP3   OH234668   2.578   6.378   0.774
 4370TIP3    H134669   2.539   6.464   0.787
 4370TIP3    H234670   2.672   6.392   0.786
 4371TIP3   OH234671   5.943   2.746   1.788
 4371TIP3    H134672   5.897   2.830   1.796
 4371TIP3    H234673   5.991   2.738   1.870
 4372TIP3   OH234674   3.058   2.985   0.257
 4372TIP3    H134675   3.072   2.931   0.334
 4372TIP3    H234676   2.964   2.981   0.241
 4373TIP3   OH234677   3.598   2.546   6.655
 4373TIP3    H134678   3.552   2.501   6.726
 4373TIP3    H234679   3.604   2.481   6.585
 4374TIP3   OH234680   4.608   0.491   0.367
 4374TIP3    H134681   4.699   0.488   0.338
 4374TIP3    H234682   4.557   0.494   0.286
 4375TIP3   OH234683   0.653   0.455   8.844
 4375TIP3    H134684   0.700   0.504   0.051
 4375TIP3    H234685   0.661   0.508   8.765
 4376TIP3   OH234686   0.348   6.267   2.407
 4376TIP3    H134687   0.391   6.182   2.390
 4376TIP3    H234688   0.373   6.321   2.332
 4377TIP3   OH234689   4.974   1.335   8.515
 4377TIP3    H134690   4.946   1.266   8.576
 4377TIP3    H234691   5.067   1.319   8.501
 4378TIP3   OH234692   6.318   4.264   1.720
 4378TIP3    H134693   6.289   4.313   1.797
 4378TIP3    H234694   6.254   4.193   1.712
 4379TIP3   OH234695   2.363   5.662   7.030
 4379TIP3    H134696   2.422   5.728   6.994
 4379TIP3    H234697   2.352   5.598   6.960
 4380TIP3   OH234698   2.240   3.676   0.016
 4380TIP3    H134699   2.286   3.759   0.020
 4380TIP3    H234700   2.187   3.681   8.797
 4381TIP3   OH234701   5.897   1.922   6.875
 4381TIP3    H134702   5.937   1.994   6.825
 4381TIP3    H234703   5.815   1.903   6.828
 4382TIP3   OH234704   3.744   2.786   6.611
 4382TIP3    H134705   3.680   2.716   6.603
 4382TIP3    H234706   3.829   2.741   6.616
 4383TIP3   OH234707   2.184   5.512   7.217
 4383TIP3    H134708   2.243   5.539   7.147
 4383TIP3    H234709   2.097   5.535   7.186
 4384TIP3   OH234710   0.691   0.526   8.396
 4384TIP3    H134711   0.683   0.585   8.471
 4384TIP3    H234712   0.766   0.559   8.348
 4385TIP3   OH234713   4.031   6.514   1.559
 4385TIP3    H134714   4.075   6.546   1.638
 4385TIP3    H234715   4.003   6.593   1.514
 4386TIP3   OH234716   4.261   1.559   0.909
 4386TIP3    H134717   4.183   1.522   0.949
 4386TIP3    H234718   4.289   1.628   0.968
 4387TIP3   OH234719   5.480   0.746   1.480
 4387TIP3    H134720   5.436   0.734   1.564
 4387TIP3    H234721   5.571   0.724   1.497
 4388TIP3   OH234722   0.978   0.411   6.581
 4388TIP3    H134723   1.056   0.379   6.626
 4388TIP3    H234724   0.988   0.380   6.491
 4389TIP3   OH234725   6.565   6.010   8.523
 4389TIP3    H134726   6.649   5.981   8.559
 4389TIP3    H234727   6.531   5.934   8.476
 4390TIP3   OH234728   0.324   3.960   2.027
 4390TIP3    H134729   0.378   3.899   2.078
 4390TIP3    H234730   0.325   3.924   1.938
 4391TIP3   OH234731   4.135   3.097   7.989
 4391TIP3    H134732   4.101   3.109   8.077
 4391TIP3    H234733   4.230   3.098   7.999
 4392TIP3   OH234734   4.067   4.611   2.141
 4392TIP3    H134735   4.135   4.673   2.167
 4392TIP3    H234736   4.102   4.525   2.165
 4393TIP3   OH234737   6.117   5.160   8.457
 4393TIP3    H134738   6.064   5.180   8.379
 4393TIP3    H234739   6.054   5.129   8.522
 4394TIP3   OH234740   1.210   0.912   0.316
 4394TIP3    H134741   1.293   0.957   0.297
 4394TIP3    H234742   1.236   0.826   0.349
 4395TIP3   OH234743   1.123   2.977   8.853
 4395TIP3    H134744   1.168   3.053   0.028
 4395TIP3    H234745   1.044   3.013   8.813
 4396TIP3   OH234746   5.653   0.026   8.846
 4396TIP3    H134747   5.570   6.787   8.819
 4396TIP3    H234748   5.704   0.033   8.765
 4397TIP3   OH234749   5.655   0.607   7.723
 4397TIP3    H134750   5.731   0.558   7.692
 4397TIP3    H234751   5.688   0.660   7.796
 4398TIP3   OH234752   2.593   2.279   8.348
 4398TIP3    H134753   2.584   2.199   8.399
 4398TIP3    H234754   2.522   2.273   8.284
 4399TIP3   OH234755   3.455   0.960   7.318
 4399TIP3    H134756   3.368   0.998   7.322
 4399TIP3    H234757   3.514   1.032   7.340
 4400TIP3   OH234758   6.116   1.131   6.970
 4400TIP3    H134759   6.039   1.079   6.949
 4400TIP3    H234760   6.189   1.084   6.929
 4401TIP3   OH234761   3.588   0.381   0.831
 4401TIP3    H134762   3.540   0.336   0.761
 4401TIP3    H234763   3.672   0.336   0.835
 4402TIP3   OH234764   1.818   4.566   1.485
 4402TIP3    H134765   1.769   4.626   1.542
 4402TIP3    H234766   1.860   4.623   1.421
 4403TIP3   OH234767   1.802   4.725   8.407
 4403TIP3    H134768   1.868   4.662   8.437
 4403TIP3    H234769   1.795   4.788   8.478
 4404TIP3   OH234770   0.676   2.362   1.299
 4404TIP3    H134771   0.623   2.283   1.301
 4404TIP3    H234772   0.616   2.432   1.323
 4405TIP3   OH234773   1.589   5.788   7.719
 4405TIP3    H134774   1.680   5.794   7.747
 4405TIP3    H234775   1.578   5.859   7.656
 4406TIP3   OH234776   5.100   2.011   2.056
 4406TIP3    H134777   5.032   2.067   2.093
 4406TIP3    H234778   5.137   1.966   2.132
 4407TIP3   OH234779   4.752   4.229   0.954
 4407TIP3    H134780   4.789   4.179   1.028
 4407TIP3    H234781   4.823   4.233   0.890
 4408TIP3   OH234782   0.607   1.414   7.275
 4408TIP3    H134783   0.531   1.356   7.268
 4408TIP3    H234784   0.638   1.424   7.185
 4409TIP3   OH234785   6.339   6.667   8.630
 4409TIP3    H134786   6.413   6.667   8.689
 4409TIP3    H234787   6.304   6.578   8.635
 4410TIP3   OH234788   3.902   1.236   8.458
 4410TIP3    H134789   3.973   1.254   8.397
 4410TIP3    H234790   3.921   1.148   8.492
 4411TIP3   OH234791   3.925   5.677   7.030
 4411TIP3    H134792   3.898   5.726   6.953
 4411TIP3    H234793   3.918   5.585   7.004
 4412TIP3   OH234794   1.787   0.830   7.408
 4412TIP3    H134795   1.805   0.737   7.424
 4412TIP3    H234796   1.873   0.869   7.393
 4413TIP3   OH234797   0.208   1.932   8.164
 4413TIP3    H134798   0.144   1.992   8.204
 4413TIP3    H234799   0.272   1.990   8.122
 4414TIP3   OH234800   4.452   4.338   6.373
 4414TIP3    H134801   4.526   4.378   6.419
 4414TIP3    H234802   4.412   4.281   6.439
 4415TIP3   OH234803   0.498   5.379   7.049
 4415TIP3    H134804   0.467   5.311   7.108
 4415TIP3    H234805   0.445   5.456   7.070
 4416TIP3   OH234806   0.457   2.730   0.253
 4416TIP3    H134807   0.485   2.750   0.164
 4416TIP3    H234808   0.482   2.639   0.266
 4417TIP3   OH234809   4.249   5.234   0.641
 4417TIP3    H134810   4.244   5.271   0.729
 4417TIP3    H234811   4.180   5.168   0.639
 4418TIP3   OH234812   0.821   1.105   2.089
 4418TIP3    H134813   0.743   1.054   2.111
 4418TIP3    H234814   0.828   1.171   2.158
 4419TIP3   OH234815   1.063   6.578   0.603
 4419TIP3    H134816   1.073   6.484   0.585
 4419TIP3    H234817   0.969   6.595   0.594
 4420TIP3   OH234818   2.098   0.647   1.417
 4420TIP3    H134819   2.053   0.563   1.411
 4420TIP3    H234820   2.190   0.628   1.398
 4421TIP3   OH234821   3.388   1.902   7.437
 4421TIP3    H134822   3.344   1.984   7.414
 4421TIP3    H234823   3.462   1.928   7.491
 4422TIP3   OH234824   5.563   2.946   0.832
 4422TIP3    H134825   5.654   2.932   0.859
 4422TIP3    H234826   5.566   2.945   0.736
 4423TIP3   OH234827   1.493   5.860   1.812
 4423TIP3    H134828   1.516   5.859   1.719
 4423TIP3    H234829   1.557   5.919   1.852
 4424TIP3   OH234830   6.162   6.434   7.957
 4424TIP3    H134831   6.157   6.349   8.000
 4424TIP3    H234832   6.251   6.466   7.977
 4425TIP3   OH234833   1.857   5.165   0.758
 4425TIP3    H134834   1.881   5.165   0.851
 4425TIP3    H234835   1.763   5.182   0.757
 4426TIP3   OH234836   1.477   6.752   1.094
 4426TIP3    H134837   1.416   6.696   1.142
 4426TIP3    H234838   1.422   0.018   1.053
 4427TIP3   OH234839   3.511   4.125   0.808
 4427TIP3    H134840   3.534   4.103   0.899
 4427TIP3    H234841   3.416   4.122   0.806
 4428TIP3   OH234842   6.637   1.947   1.695
 4428TIP3    H134843   6.590   1.950   1.611
 4428TIP3    H234844   6.664   2.038   1.710
 4429TIP3   OH234845   4.691   4.561   8.038
 4429TIP3    H134846   4.760   4.617   8.001
 4429TIP3    H234847   4.675   4.598   8.125
 4430TIP3   OH234848   3.985   3.850   8.579
 4430TIP3    H134849   4.022   3.882   8.497
 4430TIP3    H234850   4.038   3.774   8.602
 4431TIP3   OH234851   0.389   1.392   6.948
 4431TIP3    H134852   0.314   1.448   6.929
 4431TIP3    H234853   0.404   1.344   6.867
 4432TIP3   OH234854   2.976   1.726   1.107
 4432TIP3    H134855   2.893   1.692   1.138
 4432TIP3    H234856   3.006   1.663   1.042
 4433TIP3   OH234857   2.716   4.017   7.296
 4433TIP3    H134858   2.793   4.021   7.239
 4433TIP3    H234859   2.642   4.034   7.238
 4434TIP3   OH234860   3.413   0.675   6.763
 4434TIP3    H134861   3.381   0.595   6.805
 4434TIP3    H234862   3.442   0.647   6.677
 4435TIP3   OH234863   2.896   2.807   6.895
 4435TIP3    H134864   2.801   2.798   6.883
 4435TIP3    H234865   2.933   2.725   6.862
 4436TIP3   OH234866   2.566   4.625   7.296
 4436TIP3    H134867   2.513   4.667   7.229
 4436TIP3    H234868   2.624   4.566   7.248
 4437TIP3   OH234869   2.002   3.380   7.266
 4437TIP3    H134870   1.920   3.426   7.246
 4437TIP3    H234871   2.070   3.432   7.224
 4438TIP3   OH234872   0.448   5.676   0.994
 4438TIP3    H134873   0.421   5.767   0.984
 4438TIP3    H234874   0.380   5.637   1.050
 4439TIP3   OH234875   4.001   4.831   7.419
 4439TIP3    H134876   4.035   4.756   7.467
 4439TIP3    H234877   3.928   4.797   7.368
 4440TIP3   OH234878   2.662   4.284   2.220
 4440TIP3    H134879   2.679   4.219   2.288
 4440TIP3    H234880   2.735   4.275   2.159
 4441TIP3   OH234881   0.507   5.209   1.888
 4441TIP3    H134882   0.414   5.223   1.905
 4441TIP3    H234883   0.537   5.156   1.962
 4442TIP3   OH234884   1.683   1.618   7.683
 4442TIP3    H134885   1.721   1.681   7.745
 4442TIP3    H234886   1.667   1.670   7.604
 4443TIP3   OH234887   1.948   3.408   0.232
 4443TIP3    H134888   2.002   3.405   0.311
 4443TIP3    H234889   1.937   3.502   0.215
 4444TIP3   OH234890   3.270   4.121   1.555
 4444TIP3    H134891   3.179   4.122   1.583
 4444TIP3    H234892   3.267   4.139   1.461
 4445TIP3   OH234893   2.367   0.700   1.317
 4445TIP3    H134894   2.441   0.757   1.295
 4445TIP3    H234895   2.390   0.615   1.279
 4446TIP3   OH234896   6.625   0.959   0.899
 4446TIP3    H134897   6.618   1.037   0.954
 4446TIP3    H234898   6.548   0.907   0.921
 4447TIP3   OH234899   2.378   3.683   6.837
 4447TIP3    H134900   2.356   3.598   6.799
 4447TIP3    H234901   2.387   3.741   6.762
 4448TIP3   OH234902   3.536   1.797   0.099
 4448TIP3    H134903   3.579   1.764   0.021
 4448TIP3    H234904   3.446   1.813   0.072
 4449TIP3   OH234905   0.243   4.632   7.636
 4449TIP3    H134906   0.216   4.554   7.589
 4449TIP3    H234907   0.164   4.662   7.681
 4450TIP3   OH234908   0.121   4.392   7.609
 4450TIP3    H134909   0.051   4.372   7.671
 4450TIP3    H234910   0.085   4.371   7.523
 4451TIP3   OH234911   2.708   6.624   7.315
 4451TIP3    H134912   2.726   6.715   7.289
 4451TIP3    H234913   2.735   6.572   7.239
 4452TIP3   OH234914   3.360   2.439   7.787
 4452TIP3    H134915   3.282   2.414   7.737
 4452TIP3    H234916   3.333   2.516   7.836
 4453TIP3   OH234917   1.571   2.713   8.025
 4453TIP3    H134918   1.503   2.740   7.964
 4453TIP3    H234919   1.581   2.619   8.009
 4454TIP3   OH234920   0.472   2.948   7.075
 4454TIP3    H134921   0.401   2.937   7.012
 4454TIP3    H234922   0.549   2.909   7.033
 4455TIP3   OH234923   4.371   4.480   0.305
 4455TIP3    H134924   4.460   4.456   0.328
 4455TIP3    H234925   4.351   4.429   0.227
 4456TIP3   OH234926   1.692   1.895   1.126
 4456TIP3    H134927   1.653   1.982   1.136
 4456TIP3    H234928   1.766   1.895   1.188
 4457TIP3   OH234929   3.914   4.515   8.003
 4457TIP3    H134930   3.903   4.465   8.084
 4457TIP3    H234931   3.947   4.600   8.032
 4458TIP3   OH234932   4.097   4.325   1.067
 4458TIP3    H134933   4.121   4.249   1.013
 4458TIP3    H234934   4.151   4.316   1.146
 4459TIP3   OH234935   3.330   2.767   8.317
 4459TIP3    H134936   3.347   2.794   8.407
 4459TIP3    H234937   3.375   2.682   8.308
 4460TIP3   OH234938   1.336   5.109   2.294
 4460TIP3    H134939   1.357   5.045   2.227
 4460TIP3    H234940   1.241   5.108   2.299
 4461TIP3   OH234941   4.148   4.264   1.352
 4461TIP3    H134942   4.137   4.263   1.447
 4461TIP3    H234943   4.202   4.188   1.333
 4462TIP3   OH234944   6.304   6.378   2.063
 4462TIP3    H134945   6.238   6.442   2.087
 4462TIP3    H234946   6.259   6.316   2.005
 4463TIP3   OH234947   5.659   2.089   1.352
 4463TIP3    H134948   5.742   2.091   1.398
 4463TIP3    H234949   5.612   2.167   1.383
 4464TIP3   OH234950   0.975   1.632   0.301
 4464TIP3    H134951   0.933   1.610   0.383
 4464TIP3    H234952   1.047   1.569   0.292
 4465TIP3   OH234953   3.586   4.215   8.488
 4465TIP3    H134954   3.635   4.197   8.409
 4465TIP3    H234955   3.537   4.135   8.506
 4466TIP3   OH234956   2.751   1.492   7.788
 4466TIP3    H134957   2.706   1.453   7.713
 4466TIP3    H234958   2.838   1.453   7.786
 4467TIP3   OH234959   6.615   0.618   6.736
 4467TIP3    H134960   6.669   0.568   6.797
 4467TIP3    H234961   6.672   0.635   6.662
 4468TIP3   OH234962   4.816   5.419   1.738
 4468TIP3    H134963   4.842   5.335   1.775
 4468TIP3    H234964   4.728   5.435   1.773
 4469TIP3   OH234965   2.789   3.388   1.610
 4469TIP3    H134966   2.828   3.438   1.682
 4469TIP3    H234967   2.849   3.315   1.596
 4470TIP3   OH234968   3.658   3.326   0.551
 4470TIP3    H134969   3.569   3.349   0.580
 4470TIP3    H234970   3.645   3.260   0.483
 4471TIP3   OH234971   2.767   0.097   8.473
 4471TIP3    H134972   2.803   0.164   8.531
 4471TIP3    H234973   2.767   0.018   8.526
 4472TIP3   OH234974   0.353   1.468   0.293
 4472TIP3    H134975   0.323   1.377   0.302
 4472TIP3    H234976   0.391   1.471   0.205
 4473TIP3   OH234977   4.368   2.743   1.778
 4473TIP3    H134978   4.320   2.826   1.783
 4473TIP3    H234979   4.450   2.760   1.823
 4474TIP3   OH234980   1.289   0.234   0.581
 4474TIP3    H134981   1.208   0.245   0.532
 4474TIP3    H234982   1.286   0.143   0.612
 4475TIP3   OH234983   4.231   3.243   8.560
 4475TIP3    H134984   4.187   3.311   8.611
 4475TIP3    H234985   4.172   3.225   8.487
 4476TIP3   OH234986   4.373   6.317   6.416
 4476TIP3    H134987   4.441   6.368   6.461
 4476TIP3    H234988   4.405   6.227   6.419
 4477TIP3   OH234989   4.284   6.424   7.371
 4477TIP3    H134990   4.217   6.458   7.430
 4477TIP3    H234991   4.241   6.419   7.285
 4478TIP3   OH234992   2.521   0.579   8.225
 4478TIP3    H134993   2.511   0.575   8.130
 4478TIP3    H234994   2.434   0.605   8.257
 4479TIP3   OH234995   5.289   4.099   0.023
 4479TIP3    H134996   5.227   4.171   0.029
 4479TIP3    H234997   5.266   4.041   0.096
 4480TIP3   OH234998   2.282   1.302   7.631
 4480TIP3    H134999   2.310   1.220   7.592
 4480TIP3    H235000   2.258   1.357   7.556
 4481TIP3   OH235001   1.662   2.965   6.141
 4481TIP3    H135002   1.752   2.992   6.160
 4481TIP3    H235003   1.653   2.977   6.047
 4482TIP3   OH235004   2.332   6.251   8.471
 4482TIP3    H135005   2.344   6.159   8.448
 4482TIP3    H235006   2.343   6.252   8.567
 4483TIP3   OH235007   0.751   5.296   7.193
 4483TIP3    H135008   0.809   5.368   7.168
 4483TIP3    H235009   0.670   5.312   7.145
 4484TIP3   OH235010   2.116   3.729   8.480
 4484TIP3    H135011   2.158   3.775   8.407
 4484TIP3    H235012   2.168   3.649   8.491
 4485TIP3   OH235013   4.760   4.139   1.234
 4485TIP3    H135014   4.750   4.232   1.214
 4485TIP3    H235015   4.768   4.136   1.330
 4486TIP3   OH235016   0.171   1.583   7.940
 4486TIP3    H135017   0.126   1.584   7.855
 4486TIP3    H235018   0.100   1.591   8.004
 4487TIP3   OH235019   3.154   1.984   1.312
 4487TIP3    H135020   3.243   1.981   1.347
 4487TIP3    H235021   3.101   1.937   1.376
 4488TIP3   OH235022   2.135   2.767   6.322
 4488TIP3    H135023   2.059   2.825   6.312
 4488TIP3    H235024   2.196   2.795   6.255
 4489TIP3   OH235025   1.460   4.002   8.524
 4489TIP3    H135026   1.416   3.928   8.484
 4489TIP3    H235027   1.474   4.064   8.452
 4490TIP3   OH235028   4.491   5.545   0.950
 4490TIP3    H135029   4.439   5.610   0.997
 4490TIP3    H235030   4.579   5.584   0.945
 4491TIP3   OH235031   5.650   3.615   8.551
 4491TIP3    H135032   5.743   3.621   8.533
 4491TIP3    H235033   5.610   3.599   8.465
 4492TIP3   OH235034   2.452   3.861   8.801
 4492TIP3    H135035   2.438   3.841   8.709
 4492TIP3    H235036   2.530   3.812   8.825
 4493TIP3   OH235037   4.099   0.328   0.408
 4493TIP3    H135038   4.028   0.392   0.420
 4493TIP3    H235039   4.074   0.254   0.463
 4494TIP3   OH235040   3.695   4.185   6.317
 4494TIP3    H135041   3.601   4.195   6.306
 4494TIP3    H235042   3.721   4.126   6.246
 4495TIP3   OH235043   2.699   1.323   6.607
 4495TIP3    H135044   2.704   1.376   6.527
 4495TIP3    H235045   2.771   1.260   6.599
 4496TIP3   OH235046   2.926   6.189   0.559
 4496TIP3    H135047   2.886   6.175   0.473
 4496TIP3    H235048   2.935   6.284   0.566
 4497TIP3   OH235049   6.559   1.334   0.469
 4497TIP3    H135050   6.541   1.412   0.416
 4497TIP3    H235051   6.616   1.280   0.414
 4498TIP3   OH235052   6.278   4.327   0.639
 4498TIP3    H135053   6.367   4.355   0.661
 4498TIP3    H235054   6.282   4.232   0.636
 4499TIP3   OH235055   5.737   2.848   7.581
 4499TIP3    H135056   5.648   2.882   7.588
 4499TIP3    H235057   5.789   2.904   7.639
 4500TIP3   OH235058   3.920   1.255   1.483
 4500TIP3    H135059   3.938   1.333   1.430
 4500TIP3    H235060   3.879   1.193   1.421
 4501TIP3   OH235061   4.391   1.110   7.169
 4501TIP3    H135062   4.325   1.063   7.118
 4501TIP3    H235063   4.461   1.128   7.106
 4502TIP3   OH235064   3.810   0.262   0.107
 4502TIP3    H135065   3.734   0.314   0.134
 4502TIP3    H235066   3.782   0.217   0.028
 4503TIP3   OH235067   0.519   6.308   1.000
 4503TIP3    H135068   0.461   6.381   0.978
 4503TIP3    H235069   0.600   6.328   0.953
 4504TIP3   OH235070   4.485   4.589   1.142
 4504TIP3    H135071   4.505   4.667   1.091
 4504TIP3    H235072   4.460   4.523   1.076
 4505TIP3   OH235073   1.927   3.694   0.098
 4505TIP3    H135074   1.988   3.645   0.043
 4505TIP3    H235075   1.944   3.786   0.077
 4506TIP3   OH235076   1.165   4.522   1.977
 4506TIP3    H135077   1.224   4.560   2.042
 4506TIP3    H235078   1.177   4.576   1.899
 4507TIP3   OH235079   3.925   3.835   1.275
 4507TIP3    H135080   3.892   3.855   1.363
 4507TIP3    H235081   3.895   3.909   1.221
 4508TIP3   OH235082   5.737   3.936   8.518
 4508TIP3    H135083   5.689   3.853   8.511
 4508TIP3    H235084   5.799   3.922   8.589
 4509TIP3   OH235085   2.762   1.259   8.002
 4509TIP3    H135086   2.824   1.226   7.936
 4509TIP3    H235087   2.683   1.280   7.952
 4510TIP3   OH235088   5.726   0.031   7.441
 4510TIP3    H135089   5.707   6.738   7.440
 4510TIP3    H235090   5.655   0.070   7.492
 4511TIP3   OH235091   6.627   1.996   8.060
 4511TIP3    H135092   6.575   2.022   7.984
 4511TIP3    H235093   6.700   2.058   8.062
 4512TIP3   OH235094   4.118   0.549   7.626
 4512TIP3    H135095   4.091   0.462   7.656
 4512TIP3    H235096   4.069   0.563   7.545
 4513TIP3   OH235097   5.500   5.369   8.105
 4513TIP3    H135098   5.432   5.433   8.127
 4513TIP3    H235099   5.507   5.372   8.010
 4514TIP3   OH235100   6.758   0.026   7.352
 4514TIP3    H135101   6.735   0.115   7.328
 4514TIP3    H235102   0.053   0.028   7.365
 4515TIP3   OH235103   0.057   2.456   1.088
 4515TIP3    H135104   6.773   2.443   1.044
 4515TIP3    H235105   0.082   2.369   1.117
 4516TIP3   OH235106   2.087   2.786   8.729
 4516TIP3    H135107   2.161   2.784   8.668
 4516TIP3    H235108   2.103   2.863   8.783
 4517TIP3   OH235109   3.368   3.461   0.030
 4517TIP3    H135110   3.336   3.546   8.859
 4517TIP3    H235111   3.332   3.454   0.119
 4518TIP3   OH235112   5.407   3.496   0.787
 4518TIP3    H135113   5.407   3.426   0.853
 4518TIP3    H235114   5.316   3.525   0.782
 4519TIP3   OH235115   0.686   4.136   7.479
 4519TIP3    H135116   0.654   4.206   7.421
 4519TIP3    H235117   0.698   4.179   7.563
 4520TIP3   OH235118   1.420   3.164   8.249
 4520TIP3    H135119   1.393   3.093   8.190
 4520TIP3    H235120   1.349   3.169   8.313
 4521TIP3   OH235121   5.606   4.713   0.971
 4521TIP3    H135122   5.554   4.748   0.899
 4521TIP3    H235123   5.619   4.621   0.949
 4522TIP3   OH235124   5.383   3.364   0.160
 4522TIP3    H135125   5.471   3.378   0.196
 4522TIP3    H235126   5.326   3.420   0.213
 4523TIP3   OH235127   4.129   1.454   7.723
 4523TIP3    H135128   4.151   1.363   7.744
 4523TIP3    H235129   4.167   1.505   7.794
 4524TIP3   OH235130   5.463   3.289   0.950
 4524TIP3    H135131   5.446   3.216   1.011
 4524TIP3    H235132   5.543   3.329   0.984
 4525TIP3   OH235133   5.168   3.667   0.044
 4525TIP3    H135134   5.186   3.688   0.136
 4525TIP3    H235135   5.090   3.612   0.046
 4526TIP3   OH235136   3.520   0.404   1.980
 4526TIP3    H135137   3.467   0.478   2.008
 4526TIP3    H235138   3.516   0.342   2.053
 4527TIP3   OH235139   6.049   6.488   8.403
 4527TIP3    H135140   5.958   6.483   8.434
 4527TIP3    H235141   6.088   6.404   8.429
 4528TIP3   OH235142   3.841   1.650   0.986
 4528TIP3    H135143   3.804   1.612   0.906
 4528TIP3    H235144   3.920   1.599   1.002
 4529TIP3   OH235145   4.601   0.137   7.953
 4529TIP3    H135146   4.619   0.152   8.046
 4529TIP3    H235147   4.596   0.042   7.944
 4530TIP3   OH235148   1.008   1.434   8.173
 4530TIP3    H135149   0.939   1.370   8.162
 4530TIP3    H235150   0.980   1.509   8.119
 4531TIP3   OH235151   6.460   0.568   1.145
 4531TIP3    H135152   6.468   0.499   1.212
 4531TIP3    H235153   6.547   0.574   1.106
 4532TIP3   OH235154   4.259   6.762   7.209
 4532TIP3    H135155   4.237   0.022   7.138
 4532TIP3    H235156   4.244   0.012   7.289
 4533TIP3   OH235157   1.257   2.843   1.351
 4533TIP3    H135158   1.325   2.794   1.397
 4533TIP3    H235159   1.285   2.843   1.259
 4534TIP3   OH235160   0.505   4.636   1.681
 4534TIP3    H135161   0.522   4.596   1.595
 4534TIP3    H235162   0.514   4.564   1.743
 4535TIP3   OH235163   5.226   6.665   7.836
 4535TIP3    H135164   5.135   6.676   7.862
 4535TIP3    H235165   5.247   6.574   7.856
 4536TIP3   OH235166   2.684   6.093   8.677
 4536TIP3    H135167   2.756   6.041   8.712
 4536TIP3    H235168   2.632   6.031   8.626
 4537TIP3   OH235169   4.154   4.234   8.830
 4537TIP3    H135170   4.187   4.144   8.832
 4537TIP3    H235171   4.229   4.287   8.856
 4538TIP3   OH235172   0.483   3.502   1.612
 4538TIP3    H135173   0.505   3.581   1.562
 4538TIP3    H235174   0.465   3.534   1.700
 4539TIP3   OH235175   2.412   1.138   7.417
 4539TIP3    H135176   2.378   1.136   7.328
 4539TIP3    H235177   2.502   1.171   7.408
 4540TIP3   OH235178   4.421   5.630   0.659
 4540TIP3    H135179   4.489   5.582   0.611
 4540TIP3    H235180   4.448   5.624   0.750
 4541TIP3   OH235181   1.264   4.324   2.173
 4541TIP3    H135182   1.216   4.404   2.192
 4541TIP3    H235183   1.353   4.353   2.151
 4542TIP3   OH235184   5.848   3.222   7.437
 4542TIP3    H135185   5.769   3.175   7.411
 4542TIP3    H235186   5.920   3.161   7.419
 4543TIP3   OH235187   2.984   2.397   2.698
 4543TIP3    H135188   3.065   2.360   2.663
 4543TIP3    H235189   2.924   2.398   2.623
 4544TIP3   OH235190   0.439   5.172   0.168
 4544TIP3    H135191   0.479   5.227   0.236
 4544TIP3    H235192   0.398   5.100   0.217
 4545TIP3   OH235193   5.435   2.547   0.480
 4545TIP3    H135194   5.349   2.511   0.501
 4545TIP3    H235195   5.435   2.634   0.519
 4546TIP3   OH235196   2.169   1.820   8.784
 4546TIP3    H135197   2.153   1.911   8.761
 4546TIP3    H235198   2.154   1.815   0.018
 4547TIP3   OH235199   0.121   6.172   1.759
 4547TIP3    H135200   0.038   6.211   1.787
 4547TIP3    H235201   0.111   6.079   1.778
 4548TIP3   OH235202   1.860   0.664   1.653
 4548TIP3    H135203   1.807   0.589   1.682
 4548TIP3    H235204   1.917   0.629   1.585
 4549TIP3   OH235205   1.830   2.237   7.490
 4549TIP3    H135206   1.801   2.316   7.534
 4549TIP3    H235207   1.770   2.227   7.416
 4550TIP3   OH235208   6.379   3.128   2.395
 4550TIP3    H135209   6.357   3.195   2.331
 4550TIP3    H235210   6.407   3.053   2.342
 4551TIP3   OH235211   4.697   6.376   1.738
 4551TIP3    H135212   4.754   6.450   1.756
 4551TIP3    H235213   4.674   6.384   1.646
 4552TIP3   OH235214   0.648   3.053   0.655
 4552TIP3    H135215   0.714   3.045   0.724
 4552TIP3    H235216   0.606   2.967   0.652
 4553TIP3   OH235217   6.069   0.558   0.973
 4553TIP3    H135218   6.033   0.501   0.905
 4553TIP3    H235219   6.090   0.498   1.045
 4554TIP3   OH235220   3.334   0.002   0.467
 4554TIP3    H135221   3.289   0.021   0.549
 4554TIP3    H235222   3.323   0.081   0.414
 4555TIP3   OH235223   6.424   5.870   2.661
 4555TIP3    H135224   6.405   5.926   2.737
 4555TIP3    H235225   6.385   5.786   2.683
 4556TIP3   OH235226   4.043   5.965   7.800
 4556TIP3    H135227   4.029   6.041   7.744
 4556TIP3    H235228   4.035   5.890   7.741
 4557TIP3   OH235229   2.026   5.676   6.833
 4557TIP3    H135230   2.036   5.581   6.838
 4557TIP3    H235231   1.983   5.700   6.915
 4558TIP3   OH235232   3.545   3.154   7.838
 4558TIP3    H135233   3.596   3.128   7.914
 4558TIP3    H235234   3.457   3.119   7.855
 4559TIP3   OH235235   5.693   2.269   7.329
 4559TIP3    H135236   5.723   2.331   7.396
 4559TIP3    H235237   5.626   2.217   7.373
 4560TIP3   OH235238   6.476   3.947   6.956
 4560TIP3    H135239   6.491   4.028   6.908
 4560TIP3    H235240   6.513   3.963   7.043
 4561TIP3   OH235241   5.765   3.011   1.701
 4561TIP3    H135242   5.823   3.082   1.674
 4561TIP3    H235243   5.761   3.018   1.796
 4562TIP3   OH235244   5.749   0.416   1.246
 4562TIP3    H135245   5.661   0.434   1.214
 4562TIP3    H235246   5.742   0.332   1.292
 4563TIP3   OH235247   5.464   4.159   0.332
 4563TIP3    H135248   5.396   4.213   0.293
 4563TIP3    H235249   5.442   4.158   0.426
 4564TIP3   OH235250   4.950   3.881   7.653
 4564TIP3    H135251   4.922   3.970   7.673
 4564TIP3    H235252   4.876   3.843   7.604
 4565TIP3   OH235253   3.318   0.528   0.132
 4565TIP3    H135254   3.267   0.527   0.213
 4565TIP3    H235255   3.394   0.474   0.151
 4566TIP3   OH235256   2.037   6.191   0.444
 4566TIP3    H135257   2.016   6.123   0.380
 4566TIP3    H235258   1.957   6.242   0.452
 4567TIP3   OH235259   0.251   4.082   1.642
 4567TIP3    H135260   0.246   3.997   1.599
 4567TIP3    H235261   0.206   4.143   1.583
 4568TIP3   OH235262   3.083   4.391   7.642
 4568TIP3    H135263   3.090   4.297   7.658
 4568TIP3    H235264   3.169   4.427   7.662
 4569TIP3   OH235265   1.626   4.408   8.148
 4569TIP3    H135266   1.576   4.417   8.229
 4569TIP3    H235267   1.637   4.314   8.136
 4570TIP3   OH235268   5.319   2.721   1.939
 4570TIP3    H135269   5.394   2.695   1.993
 4570TIP3    H235270   5.348   2.705   1.849
 4571TIP3   OH235271   5.344   4.142   1.525
 4571TIP3    H135272   5.339   4.150   1.429
 4571TIP3    H235273   5.432   4.172   1.547
 4572TIP3   OH235274   0.266   3.213   7.873
 4572TIP3    H135275   0.190   3.270   7.886
 4572TIP3    H235276   0.328   3.267   7.824
 4573TIP3   OH235277   3.149   6.750   8.026
 4573TIP3    H135278   3.107   0.035   8.019
 4573TIP3    H235279   3.232   6.759   7.980
 4574TIP3   OH235280   0.414   0.966   0.408
 4574TIP3    H135281   0.319   0.966   0.412
 4574TIP3    H235282   0.439   1.056   0.427
 4575TIP3   OH235283   1.031   4.754   2.092
 4575TIP3    H135284   1.025   4.784   2.183
 4575TIP3    H235285   1.079   4.672   2.097
 4576TIP3   OH235286   3.981   6.454   0.160
 4576TIP3    H135287   4.019   6.403   0.089
 4576TIP3    H235288   4.017   6.415   0.239
 4577TIP3   OH235289   1.767   1.137   6.335
 4577TIP3    H135290   1.856   1.168   6.318
 4577TIP3    H235291   1.774   1.041   6.330
 4578TIP3   OH235292   3.122   5.630   1.392
 4578TIP3    H135293   3.053   5.566   1.404
 4578TIP3    H235294   3.191   5.603   1.453
 4579TIP3   OH235295   3.065   0.037   7.366
 4579TIP3    H135296   3.068   0.132   7.360
 4579TIP3    H235297   3.153   0.012   7.396
 4580TIP3   OH235298   1.395   5.863   6.778
 4580TIP3    H135299   1.431   5.775   6.792
 4580TIP3    H235300   1.301   5.850   6.769
 4581TIP3   OH235301   2.805   5.579   1.712
 4581TIP3    H135302   2.782   5.541   1.796
 4581TIP3    H235303   2.769   5.667   1.714
 4582TIP3   OH235304   4.090   0.707   7.041
 4582TIP3    H135305   4.019   0.739   6.986
 4582TIP3    H235306   4.126   0.785   7.083
 4583TIP3   OH235307   5.005   3.417   7.209
 4583TIP3    H135308   5.018   3.440   7.117
 4583TIP3    H235309   4.989   3.501   7.252
 4584TIP3   OH235310   0.934   4.871   1.862
 4584TIP3    H135311   0.883   4.811   1.808
 4584TIP3    H235312   0.967   4.816   1.934
 4585TIP3   OH235313   1.891   2.882   8.542
 4585TIP3    H135314   1.948   2.844   8.609
 4585TIP3    H235315   1.831   2.939   8.591
 4586TIP3   OH235316   2.955   5.139   8.332
 4586TIP3    H135317   2.910   5.080   8.271
 4586TIP3    H235318   3.044   5.103   8.338
 4587TIP3   OH235319   1.377   1.630   1.018
 4587TIP3    H135320   1.389   1.651   1.111
 4587TIP3    H235321   1.429   1.696   0.972
 4588TIP3   OH235322   4.835   6.038   1.108
 4588TIP3    H135323   4.874   6.096   1.043
 4588TIP3    H235324   4.908   5.988   1.144
 4589TIP3   OH235325   6.521   0.043   0.451
 4589TIP3    H135326   6.540   6.750   0.443
 4589TIP3    H235327   6.606   0.083   0.471
 4590TIP3   OH235328   1.969   1.897   0.912
 4590TIP3    H135329   1.899   1.956   0.885
 4590TIP3    H235330   1.947   1.874   1.002
 4591TIP3   OH235331   2.595   1.375   0.408
 4591TIP3    H135332   2.619   1.450   0.463
 4591TIP3    H235333   2.650   1.384   0.331
 4592TIP3   OH235334   2.801   1.877   7.134
 4592TIP3    H135335   2.738   1.907   7.069
 4592TIP3    H235336   2.764   1.905   7.218
 4593TIP3   OH235337   3.755   2.424   1.461
 4593TIP3    H135338   3.668   2.426   1.500
 4593TIP3    H235339   3.804   2.363   1.516
 4594TIP3   OH235340   5.411   2.755   2.252
 4594TIP3    H135341   5.333   2.765   2.307
 4594TIP3    H235342   5.475   2.815   2.290
 4595TIP3   OH235343   0.634   2.307   6.938
 4595TIP3    H135344   0.723   2.273   6.934
 4595TIP3    H235345   0.642   2.387   6.990
 4596TIP3   OH235346   2.287   4.410   0.451
 4596TIP3    H135347   2.219   4.365   0.400
 4596TIP3    H235348   2.369   4.383   0.411
 4597TIP3   OH235349   6.439   5.616   1.156
 4597TIP3    H135350   6.491   5.539   1.179
 4597TIP3    H235351   6.406   5.598   1.068
 4598TIP3   OH235352   2.872   0.556   8.024
 4598TIP3    H135353   2.877   0.563   8.119
 4598TIP3    H235354   2.854   0.464   8.008
 4599TIP3   OH235355   0.723   4.403   7.972
 4599TIP3    H135356   0.687   4.479   7.926
 4599TIP3    H235357   0.665   4.392   8.048
 4600TIP3   OH235358   5.663   3.295   8.443
 4600TIP3    H135359   5.603   3.302   8.370
 4600TIP3    H235360   5.716   3.217   8.424
 4601TIP3   OH235361   4.440   3.553   0.543
 4601TIP3    H135362   4.408   3.468   0.514
 4601TIP3    H235363   4.401   3.565   0.630
 4602TIP3   OH235364   2.098   5.100   2.795
 4602TIP3    H135365   2.138   5.013   2.796
 4602TIP3    H235366   2.095   5.124   2.702
 4603TIP3   OH235367   5.001   1.932   6.681
 4603TIP3    H135368   4.914   1.925   6.721
 4603TIP3    H235369   4.984   1.925   6.587
 4604TIP3   OH235370   4.614   6.462   1.973
 4604TIP3    H135371   4.689   6.517   1.996
 4604TIP3    H235372   4.648   6.402   1.907
 4605TIP3   OH235373   3.950   0.176   7.173
 4605TIP3    H135374   4.034   0.215   7.150
 4605TIP3    H235375   3.964   0.138   7.259
 4606TIP3   OH235376   1.675   0.794   7.112
 4606TIP3    H135377   1.675   0.781   7.206
 4606TIP3    H235378   1.649   0.710   7.075
 4607TIP3   OH235379   0.338   3.544   7.451
 4607TIP3    H135380   0.430   3.568   7.440
 4607TIP3    H235381   0.325   3.546   7.546
 4608TIP3   OH235382   2.820   1.679   2.291
 4608TIP3    H135383   2.762   1.663   2.366
 4608TIP3    H235384   2.782   1.755   2.247
 4609TIP3   OH235385   0.649   2.102   7.295
 4609TIP3    H135386   0.655   2.164   7.222
 4609TIP3    H235387   0.610   2.023   7.257
 4610TIP3   OH235388   2.106   2.858   8.240
 4610TIP3    H135389   2.016   2.835   8.263
 4610TIP3    H235390   2.128   2.930   8.298
 4611TIP3   OH235391   2.195   2.308   2.027
 4611TIP3    H135392   2.249   2.294   2.104
 4611TIP3    H235393   2.189   2.403   2.018
 4612TIP3   OH235394   5.938   5.619   1.980
 4612TIP3    H135395   5.857   5.627   1.931
 4612TIP3    H235396   5.913   5.572   2.060
 4613TIP3   OH235397   0.737   1.464   7.841
 4613TIP3    H135398   0.659   1.509   7.807
 4613TIP3    H235399   0.709   1.374   7.854
 4614TIP3   OH235400   4.934   2.782   1.091
 4614TIP3    H135401   5.021   2.818   1.107
 4614TIP3    H235402   4.884   2.804   1.169
 4615TIP3   OH235403   1.960   6.575   1.065
 4615TIP3    H135404   1.890   6.639   1.049
 4615TIP3    H235405   2.026   6.594   0.999
 4616TIP3   OH235406   5.811   1.075   7.049
 4616TIP3    H135407   5.767   1.000   7.008
 4616TIP3    H235408   5.811   1.054   7.142
 4617TIP3   OH235409   1.973   1.504   0.212
 4617TIP3    H135410   2.034   1.431   0.216
 4617TIP3    H235411   1.899   1.471   0.160
 4618TIP3   OH235412   4.575   6.196   8.849
 4618TIP3    H135413   4.620   6.278   0.008
 4618TIP3    H235414   4.524   6.177   0.067
 4619TIP3   OH235415   2.178   1.482   8.412
 4619TIP3    H135416   2.200   1.571   8.383
 4619TIP3    H235417   2.255   1.430   8.387
 4620TIP3   OH235418   2.798   1.361   1.666
 4620TIP3    H135419   2.819   1.273   1.696
 4620TIP3    H235420   2.882   1.396   1.634
 4621TIP3   OH235421   1.915   3.158   0.063
 4621TIP3    H135422   1.924   3.187   8.833
 4621TIP3    H235423   1.916   3.239   0.114
 4622TIP3   OH235424   1.511   4.786   8.020
 4622TIP3    H135425   1.588   4.736   8.047
 4622TIP3    H235426   1.535   4.822   7.934
 4623TIP3   OH235427   1.830   0.534   0.082
 4623TIP3    H135428   1.784   0.593   0.142
 4623TIP3    H235429   1.778   0.454   0.083
 4624TIP3   OH235430   3.138   6.055   8.154
 4624TIP3    H135431   3.172   5.977   8.198
 4624TIP3    H235432   3.176   6.128   8.203
 4625TIP3   OH235433   5.553   3.583   0.573
 4625TIP3    H135434   5.633   3.617   0.613
 4625TIP3    H235435   5.499   3.554   0.647
 4626TIP3   OH235436   0.451   2.067   2.193
 4626TIP3    H135437   0.423   2.158   2.180
 4626TIP3    H235438   0.543   2.074   2.218
 4627TIP3   OH235439   0.435   1.730   8.054
 4627TIP3    H135440   0.346   1.735   8.088
 4627TIP3    H235441   0.477   1.661   8.106
 4628TIP3   OH235442   0.092   6.150   6.855
 4628TIP3    H135443   0.134   6.106   6.929
 4628TIP3    H235444   0.035   6.084   6.817
 4629TIP3   OH235445   2.832   6.661   8.634
 4629TIP3    H135446   2.914   6.683   8.678
 4629TIP3    H235447   2.831   6.565   8.633
 4630TIP3   OH235448   3.067   3.063   2.514
 4630TIP3    H135449   3.114   3.135   2.472
 4630TIP3    H235450   3.130   2.991   2.517
 4631TIP3   OH235451   4.863   1.451   8.232
 4631TIP3    H135452   4.954   1.438   8.259
 4631TIP3    H235453   4.816   1.376   8.270
 4632TIP3   OH235454   5.644   0.648   0.486
 4632TIP3    H135455   5.736   0.626   0.469
 4632TIP3    H235456   5.595   0.574   0.449
 4633TIP3   OH235457   6.574   3.353   1.666
 4633TIP3    H135458   6.547   3.430   1.615
 4633TIP3    H235459   6.538   3.368   1.753
 4634TIP3   OH235460   0.821   0.220   1.722
 4634TIP3    H135461   0.768   0.289   1.761
 4634TIP3    H235462   0.778   0.201   1.639
 4635TIP3   OH235463   0.251   4.775   0.456
 4635TIP3    H135464   0.270   4.717   0.382
 4635TIP3    H235465   0.266   4.721   0.534
 4636TIP3   OH235466   4.933   0.439   8.112
 4636TIP3    H135467   5.028   0.433   8.119
 4636TIP3    H235468   4.913   0.531   8.128
 4637TIP3   OH235469   4.905   2.626   6.894
 4637TIP3    H135470   4.951   2.543   6.906
 4637TIP3    H235471   4.938   2.661   6.811
 4638TIP3   OH235472   5.176   5.304   0.294
 4638TIP3    H135473   5.206   5.321   0.383
 4638TIP3    H235474   5.221   5.224   0.268
 4639TIP3   OH235475   2.406   5.942   8.519
 4639TIP3    H135476   2.491   5.936   8.475
 4639TIP3    H235477   2.348   5.886   8.467
 4640TIP3   OH235478   1.464   1.081   8.042
 4640TIP3    H135479   1.547   1.079   7.995
 4640TIP3    H235480   1.402   1.122   7.981
 4641TIP3   OH235481   2.468   3.321   1.677
 4641TIP3    H135482   2.463   3.365   1.762
 4641TIP3    H235483   2.504   3.387   1.618
 4642TIP3   OH235484   5.004   4.764   7.664
 4642TIP3    H135485   4.952   4.703   7.612
 4642TIP3    H235486   5.087   4.718   7.680
 4643TIP3   OH235487   5.219   1.937   0.551
 4643TIP3    H135488   5.159   1.873   0.514
 4643TIP3    H235489   5.177   2.022   0.535
 4644TIP3   OH235490   5.380   3.759   8.752
 4644TIP3    H135491   5.320   3.723   8.818
 4644TIP3    H235492   5.373   3.854   8.763
 4645TIP3   OH235493   0.589   2.231   1.964
 4645TIP3    H135494   0.555   2.312   2.002
 4645TIP3    H235495   0.639   2.191   2.035
 4646TIP3   OH235496   2.804   5.092   1.110
 4646TIP3    H135497   2.779   5.123   1.198
 4646TIP3    H235498   2.828   5.172   1.063
 4647TIP3   OH235499   1.548   5.512   7.179
 4647TIP3    H135500   1.553   5.501   7.085
 4647TIP3    H235501   1.637   5.497   7.211
 4648TIP3   OH235502   5.681   5.122   7.654
 4648TIP3    H135503   5.645   5.206   7.626
 4648TIP3    H235504   5.767   5.117   7.612
 4649TIP3   OH235505   1.001   6.298   7.698
 4649TIP3    H135506   1.069   6.351   7.656
 4649TIP3    H235507   0.939   6.279   7.627
 4650TIP3   OH235508   3.747   0.470   1.820
 4650TIP3    H135509   3.751   0.473   1.915
 4650TIP3    H235510   3.659   0.435   1.801
 4651TIP3   OH235511   2.040   2.201   6.869
 4651TIP3    H135512   2.097   2.125   6.871
 4651TIP3    H235513   2.096   2.274   6.896
 4652TIP3   OH235514   1.891   4.753   0.964
 4652TIP3    H135515   1.798   4.729   0.965
 4652TIP3    H235516   1.926   4.708   0.887
 4653TIP3   OH235517   3.813   3.616   6.903
 4653TIP3    H135518   3.743   3.659   6.953
 4653TIP3    H235519   3.791   3.523   6.905
 4654TIP3   OH235520   2.134   0.387   6.784
 4654TIP3    H135521   2.139   0.469   6.833
 4654TIP3    H235522   2.225   0.367   6.760
 4655TIP3   OH235523   5.142   1.218   2.315
 4655TIP3    H135524   5.087   1.194   2.389
 4655TIP3    H235525   5.096   1.289   2.272
 4656TIP3   OH235526   5.865   3.546   6.326
 4656TIP3    H135527   5.944   3.560   6.379
 4656TIP3    H235528   5.877   3.458   6.289
 4657TIP3   OH235529   6.432   5.279   1.974
 4657TIP3    H135530   6.425   5.229   1.893
 4657TIP3    H235531   6.433   5.213   2.043
 4658TIP3   OH235532   2.611   5.873   6.790
 4658TIP3    H135533   2.641   5.911   6.873
 4658TIP3    H235534   2.677   5.806   6.769
 4659TIP3   OH235535   4.181   4.564   8.401
 4659TIP3    H135536   4.263   4.606   8.426
 4659TIP3    H235537   4.120   4.636   8.387
 4660TIP3   OH235538   1.210   2.128   0.990
 4660TIP3    H135539   1.116   2.111   0.979
 4660TIP3    H235540   1.243   2.052   1.038
 4661TIP3   OH235541   6.253   0.322   1.692
 4661TIP3    H135542   6.262   0.360   1.780
 4661TIP3    H235543   6.174   0.363   1.657
 4662TIP3   OH235544   0.146   3.943   7.300
 4662TIP3    H135545   0.218   3.888   7.331
 4662TIP3    H235546   0.179   4.032   7.308
 4663TIP3   OH235547   6.140   4.800   1.709
 4663TIP3    H135548   6.232   4.802   1.682
 4663TIP3    H235549   6.111   4.711   1.691
 4664TIP3   OH235550   1.436   5.192   7.987
 4664TIP3    H135551   1.431   5.110   7.938
 4664TIP3    H235552   1.361   5.189   8.046
 4665TIP3   OH235553   6.743   2.184   1.141
 4665TIP3    H135554   6.754   2.105   1.194
 4665TIP3    H235555   6.670   2.164   1.083
 4666TIP3   OH235556   6.006   2.488   7.506
 4666TIP3    H135557   6.063   2.507   7.580
 4666TIP3    H235558   5.967   2.572   7.483
 4667TIP3   OH235559   5.785   2.545   2.348
 4667TIP3    H135560   5.791   2.633   2.311
 4667TIP3    H235561   5.874   2.526   2.378
 4668TIP3   OH235562   4.113   2.058   1.686
 4668TIP3    H135563   4.178   2.098   1.745
 4668TIP3    H235564   4.050   2.016   1.745
 4669TIP3   OH235565   3.609   2.433   1.215
 4669TIP3    H135566   3.657   2.407   1.294
 4669TIP3    H235567   3.620   2.528   1.211
 4670TIP3   OH235568   1.533   6.669   7.078
 4670TIP3    H135569   1.494   6.756   7.086
 4670TIP3    H235570   1.622   6.678   7.112
 4671TIP3   OH235571   5.055   0.188   0.991
 4671TIP3    H135572   5.065   0.095   0.970
 4671TIP3    H235573   5.008   0.224   0.916
 4672TIP3   OH235574   3.623   4.529   0.380
 4672TIP3    H135575   3.648   4.604   0.434
 4672TIP3    H235576   3.705   4.482   0.364
 4673TIP3   OH235577   4.760   6.520   0.840
 4673TIP3    H135578   4.675   6.548   0.807
 4673TIP3    H235579   4.804   6.601   0.866
 4674TIP3   OH235580   1.165   1.126   1.066
 4674TIP3    H135581   1.116   1.177   1.003
 4674TIP3    H235582   1.182   1.186   1.138
 4675TIP3   OH235583   3.915   3.182   8.473
 4675TIP3    H135584   3.852   3.162   8.542
 4675TIP3    H235585   3.890   3.126   8.400
 4676TIP3   OH235586   0.492   2.112   8.668
 4676TIP3    H135587   0.584   2.139   8.673
 4676TIP3    H235588   0.444   2.182   8.712
 4677TIP3   OH235589   4.155   2.091   7.402
 4677TIP3    H135590   4.098   2.117   7.329
 4677TIP3    H235591   4.182   2.002   7.381
 4678TIP3   OH235592   6.239   2.190   8.352
 4678TIP3    H135593   6.313   2.130   8.343
 4678TIP3    H235594   6.255   2.236   8.435
 4679TIP3   OH235595   4.690   3.155   7.424
 4679TIP3    H135596   4.740   3.122   7.350
 4679TIP3    H235597   4.600   3.129   7.405
 4680TIP3   OH235598   5.239   5.031   0.208
 4680TIP3    H135599   5.153   5.013   0.247
 4680TIP3    H235600   5.246   4.968   0.137
 4681TIP3   OH235601   2.128   4.486   1.097
 4681TIP3    H135602   2.145   4.564   1.044
 4681TIP3    H235603   2.033   4.486   1.109
 4682TIP3   OH235604   5.991   1.831   1.360
 4682TIP3    H135605   6.064   1.770   1.348
 4682TIP3    H235606   5.967   1.857   1.272
 4683TIP3   OH235607   1.705   5.142   1.256
 4683TIP3    H135608   1.744   5.059   1.230
 4683TIP3    H235609   1.660   5.122   1.338
 4684TIP3   OH235610   1.985   5.406   8.557
 4684TIP3    H135611   1.894   5.397   8.529
 4684TIP3    H235612   2.029   5.450   8.484
 4685TIP3   OH235613   4.386   1.401   8.077
 4685TIP3    H135614   4.455   1.457   8.113
 4685TIP3    H235615   4.310   1.459   8.070
 4686TIP3   OH235616   3.855   4.338   1.316
 4686TIP3    H135617   3.948   4.348   1.334
 4686TIP3    H235618   3.851   4.300   1.228
 4687TIP3   OH235619   4.335   5.445   7.901
 4687TIP3    H135620   4.324   5.425   7.808
 4687TIP3    H235621   4.384   5.371   7.936
 4688TIP3   OH235622   1.503   1.888   7.601
 4688TIP3    H135623   1.511   1.982   7.618
 4688TIP3    H235624   1.456   1.854   7.676
 4689TIP3   OH235625   1.718   4.206   1.165
 4689TIP3    H135626   1.789   4.256   1.124
 4689TIP3    H235627   1.688   4.261   1.238
 4690TIP3   OH235628   1.844   4.910   7.380
 4690TIP3    H135629   1.892   4.863   7.312
 4690TIP3    H235630   1.813   4.841   7.439
 4691TIP3   OH235631   5.344   4.036   7.399
 4691TIP3    H135632   5.300   4.089   7.465
 4691TIP3    H235633   5.424   4.084   7.379
 4692TIP3   OH235634   1.909   2.664   7.171
 4692TIP3    H135635   1.884   2.584   7.126
 4692TIP3    H235636   1.861   2.661   7.254
 4693TIP3   OH235637   6.581   2.552   1.973
 4693TIP3    H135638   6.645   2.490   2.008
 4693TIP3    H235639   6.560   2.609   2.047
 4694TIP3   OH235640   2.153   2.722   7.321
 4694TIP3    H135641   2.205   2.642   7.310
 4694TIP3    H235642   2.071   2.704   7.277
 4695TIP3   OH235643   1.125   3.110   2.634
 4695TIP3    H135644   1.123   3.194   2.588
 4695TIP3    H235645   1.188   3.122   2.705
 4696TIP3   OH235646   0.892   4.894   0.689
 4696TIP3    H135647   0.911   4.842   0.767
 4696TIP3    H235648   0.810   4.940   0.711
 4697TIP3   OH235649   4.900   4.054   8.416
 4697TIP3    H135650   4.843   4.083   8.346
 4697TIP3    H235651   4.988   4.055   8.378
 4698TIP3   OH235652   2.759   2.738   0.857
 4698TIP3    H135653   2.808   2.745   0.939
 4698TIP3    H235654   2.671   2.711   0.884
 4699TIP3   OH235655   5.616   0.409   0.363
 4699TIP3    H135656   5.529   0.372   0.346
 4699TIP3    H235657   5.669   0.381   0.288
 4700TIP3   OH235658   0.061   0.593   8.124
 4700TIP3    H135659   0.054   0.515   8.180
 4700TIP3    H235660   0.155   0.605   8.112
 4701TIP3   OH235661   2.611   0.827   1.749
 4701TIP3    H135662   2.587   0.777   1.671
 4701TIP3    H235663   2.705   0.812   1.759
 4702TIP3   OH235664   5.676   3.374   8.719
 4702TIP3    H135665   5.758   3.346   8.759
 4702TIP3    H235666   5.691   3.367   8.625
 4703TIP3   OH235667   1.065   6.105   8.380
 4703TIP3    H135668   1.001   6.079   8.447
 4703TIP3    H235669   1.035   6.190   8.350
 4704TIP3   OH235670   0.168   5.447   0.539
 4704TIP3    H135671   0.160   5.365   0.489
 4704TIP3    H235672   0.204   5.509   0.476
 4705TIP3   OH235673   0.790   2.046   1.321
 4705TIP3    H135674   0.698   2.067   1.307
 4705TIP3    H235675   0.837   2.102   1.260
 4706TIP3   OH235676   1.387   5.157   0.021
 4706TIP3    H135677   1.430   5.129   8.800
 4706TIP3    H235678   1.443   5.227   0.054
 4707TIP3   OH235679   0.802   4.402   0.090
 4707TIP3    H135680   0.829   4.311   0.096
 4707TIP3    H235681   0.796   4.419   8.857
 4708TIP3   OH235682   5.842   1.549   6.711
 4708TIP3    H135683   5.801   1.510   6.633
 4708TIP3    H235684   5.927   1.579   6.680
 4709TIP3   OH235685   2.650   4.054   8.089
 4709TIP3    H135686   2.662   4.014   8.176
 4709TIP3    H235687   2.673   3.984   8.028
 4710TIP3   OH235688   0.063   1.394   7.769
 4710TIP3    H135689   0.021   1.309   7.761
 4710TIP3    H235690   6.791   1.455   7.783
 4711TIP3   OH235691   1.788   3.505   8.629
 4711TIP3    H135692   1.722   3.495   8.698
 4711TIP3    H235693   1.738   3.497   8.548
 4712TIP3   OH235694   2.311   2.190   1.342
 4712TIP3    H135695   2.342   2.186   1.432
 4712TIP3    H235696   2.216   2.203   1.350
 4713TIP3   OH235697   2.388   4.338   7.792
 4713TIP3    H135698   2.431   4.293   7.719
 4713TIP3    H235699   2.448   4.327   7.865
 4714TIP3   OH235700   3.796   5.485   8.733
 4714TIP3    H135701   3.802   5.406   8.679
 4714TIP3    H235702   3.716   5.473   8.784
 4715TIP3   OH235703   6.045   6.026   7.199
 4715TIP3    H135704   6.009   5.978   7.124
 4715TIP3    H235705   5.982   6.096   7.214
 4716TIP3   OH235706   1.472   4.822   7.389
 4716TIP3    H135707   1.447   4.890   7.327
 4716TIP3    H235708   1.550   4.856   7.433
 4717TIP3   OH235709   3.530   2.171   0.766
 4717TIP3    H135710   3.560   2.197   0.853
 4717TIP3    H235711   3.437   2.195   0.764
 4718TIP3   OH235712   2.092   2.476   7.490
 4718TIP3    H135713   2.049   2.431   7.417
 4718TIP3    H235714   2.030   2.468   7.562
 4719TIP3   OH235715   6.697   5.035   0.224
 4719TIP3    H135716   6.657   4.988   0.151
 4719TIP3    H235717   6.715   4.968   0.290
 4720TIP3   OH235718   6.204   5.910   7.421
 4720TIP3    H135719   6.292   5.942   7.443
 4720TIP3    H235720   6.170   5.974   7.359
 4721TIP3   OH235721   5.134   5.975   0.821
 4721TIP3    H135722   5.071   5.903   0.815
 4721TIP3    H235723   5.196   5.957   0.750
 4722TIP3   OH235724   3.370   2.411   6.858
 4722TIP3    H135725   3.436   2.365   6.910
 4722TIP3    H235726   3.324   2.466   6.922
 4723TIP3   OH235727   0.076   1.758   0.238
 4723TIP3    H135728   0.090   1.663   0.236
 4723TIP3    H235729   0.124   1.787   0.316
 4724TIP3   OH235730   2.011   1.348   1.143
 4724TIP3    H135731   2.014   1.399   1.063
 4724TIP3    H235732   1.944   1.281   1.127
 4725TIP3   OH235733   3.721   3.134   0.063
 4725TIP3    H135734   3.702   3.202   0.126
 4725TIP3    H235735   3.816   3.123   0.067
 4726TIP3   OH235736   3.075   1.440   6.998
 4726TIP3    H135737   3.109   1.445   7.087
 4726TIP3    H235738   3.125   1.505   6.949
 4727TIP3   OH235739   0.555   0.948   6.666
 4727TIP3    H135740   0.481   0.972   6.722
 4727TIP3    H235741   0.589   0.867   6.704
 4728TIP3   OH235742   2.522   3.275   0.451
 4728TIP3    H135743   2.498   3.207   0.388
 4728TIP3    H235744   2.475   3.251   0.531
 4729TIP3   OH235745   6.231   2.493   8.224
 4729TIP3    H135746   6.195   2.475   8.137
 4729TIP3    H235747   6.215   2.412   8.273
 4730TIP3   OH235748   0.174   1.933   1.784
 4730TIP3    H135749   0.109   1.983   1.834
 4730TIP3    H235750   0.255   1.982   1.795
 4731TIP3   OH235751   5.898   0.611   7.255
 4731TIP3    H135752   5.987   0.621   7.222
 4731TIP3    H235753   5.862   0.539   7.204
 4732TIP3   OH235754   5.486   6.736   8.565
 4732TIP3    H135755   5.391   6.735   8.555
 4732TIP3    H235756   5.506   0.025   8.594
 4733TIP3   OH235757   5.299   6.193   0.488
 4733TIP3    H135758   5.293   6.244   0.569
 4733TIP3    H235759   5.259   6.249   0.421
 4734TIP3   OH235760   6.063   0.525   0.216
 4734TIP3    H135761   6.123   0.597   0.238
 4734TIP3    H235762   6.120   0.451   0.195
 4735TIP3   OH235763   4.205   2.653   0.866
 4735TIP3    H135764   4.119   2.615   0.851
 4735TIP3    H235765   4.230   2.623   0.953
 4736TIP3   OH235766   0.906   0.222   8.717
 4736TIP3    H135767   0.950   0.305   8.735
 4736TIP3    H235768   0.885   0.186   8.803
 4737TIP3   OH235769   1.607   6.708   8.835
 4737TIP3    H135770   1.584   6.658   8.757
 4737TIP3    H235771   1.582   6.652   0.047
 4738TIP3   OH235772   3.480   3.086   2.047
 4738TIP3    H135773   3.430   3.075   1.967
 4738TIP3    H235774   3.477   3.180   2.064
 4739TIP3   OH235775   1.430   2.664   1.508
 4739TIP3    H135776   1.515   2.639   1.471
 4739TIP3    H235777   1.369   2.600   1.473
 4740TIP3   OH235778   0.205   4.502   1.885
 4740TIP3    H135779   0.235   4.421   1.924
 4740TIP3    H235780   0.154   4.474   1.808
 4741TIP3   OH235781   2.166   2.497   1.518
 4741TIP3    H135782   2.176   2.538   1.603
 4741TIP3    H235783   2.253   2.498   1.480
 4742TIP3   OH235784   4.325   1.247   0.969
 4742TIP3    H135785   4.352   1.339   0.962
 4742TIP3    H235786   4.277   1.230   0.888
 4743TIP3   OH235787   0.683   5.836   1.114
 4743TIP3    H135788   0.666   5.764   1.174
 4743TIP3    H235789   0.714   5.908   1.169
 4744TIP3   OH235790   5.280   0.777   7.846
 4744TIP3    H135791   5.297   0.867   7.871
 4744TIP3    H235792   5.211   0.782   7.780
 4745TIP3   OH235793   3.664   1.138   7.302
 4745TIP3    H135794   3.753   1.138   7.265
 4745TIP3    H235795   3.674   1.181   7.387
 4746TIP3   OH235796   1.466   0.444   0.554
 4746TIP3    H135797   1.538   0.424   0.614
 4746TIP3    H235798   1.397   0.381   0.577
 4747TIP3   OH235799   3.928   2.490   0.743
 4747TIP3    H135800   3.882   2.537   0.812
 4747TIP3    H235801   3.868   2.493   0.668
 4748TIP3   OH235802   0.495   0.177   7.172
 4748TIP3    H135803   0.491   0.191   7.267
 4748TIP3    H235804   0.442   0.248   7.135
 4749TIP3   OH235805   1.498   0.667   0.797
 4749TIP3    H135806   1.474   0.726   0.867
 4749TIP3    H235807   1.433   0.682   0.728
 4750TIP3   OH235808   5.062   2.262   1.460
 4750TIP3    H135809   5.118   2.222   1.394
 4750TIP3    H235810   5.121   2.315   1.513
 4751TIP3   OH235811   6.422   5.227   1.006
 4751TIP3    H135812   6.490   5.166   0.977
 4751TIP3    H235813   6.432   5.302   0.947
 4752TIP3   OH235814   1.519   1.830   0.851
 4752TIP3    H135815   1.507   1.918   0.815
 4752TIP3    H235816   1.609   1.807   0.829
 4753TIP3   OH235817   5.703   0.416   1.917
 4753TIP3    H135818   5.644   0.405   1.992
 4753TIP3    H235819   5.659   0.480   1.861
 4754TIP3   OH235820   2.355   0.168   6.939
 4754TIP3    H135821   2.436   0.137   6.980
 4754TIP3    H235822   2.378   0.255   6.905
 4755TIP3   OH235823   6.157   5.708   6.506
 4755TIP3    H135824   6.231   5.648   6.506
 4755TIP3    H235825   6.097   5.672   6.571
 4756TIP3   OH235826   5.488   2.064   0.860
 4756TIP3    H135827   5.532   2.042   0.778
 4756TIP3    H235828   5.556   2.058   0.927
 4757TIP3   OH235829   0.650   5.850   2.238
 4757TIP3    H135830   0.585   5.786   2.208
 4757TIP3    H235831   0.597   5.925   2.265
 4758TIP3   OH235832   3.283   5.777   8.550
 4758TIP3    H135833   3.375   5.771   8.577
 4758TIP3    H235834   3.252   5.860   8.588
 4759TIP3   OH235835   0.961   4.143   7.659
 4759TIP3    H135836   0.869   4.121   7.642
 4759TIP3    H235837   0.958   4.226   7.706
 4760TIP3   OH235838   0.230   1.771   7.015
 4760TIP3    H135839   0.270   1.853   6.988
 4760TIP3    H235840   0.187   1.790   7.098
 4761TIP3   OH235841   0.493   0.309   7.699
 4761TIP3    H135842   0.520   0.394   7.736
 4761TIP3    H235843   0.520   0.245   7.765
 4762TIP3   OH235844   1.877   0.522   7.016
 4762TIP3    H135845   1.850   0.591   6.955
 4762TIP3    H235846   1.972   0.516   7.005
 4763TIP3   OH235847   4.481   6.433   2.246
 4763TIP3    H135848   4.390   6.416   2.225
 4763TIP3    H235849   4.528   6.417   2.164
 4764TIP3   OH235850   1.855   4.676   7.512
 4764TIP3    H135851   1.937   4.638   7.545
 4764TIP3    H235852   1.789   4.648   7.575
 4765TIP3   OH235853   6.648   6.627   1.358
 4765TIP3    H135854   6.724   6.580   1.323
 4765TIP3    H235855   6.640   6.704   1.302
 4766TIP3   OH235856   4.167   3.255   8.278
 4766TIP3    H135857   4.134   3.335   8.237
 4766TIP3    H235858   4.260   3.255   8.255
 4767TIP3   OH235859   3.425   1.489   1.930
 4767TIP3    H135860   3.427   1.409   1.877
 4767TIP3    H235861   3.396   1.557   1.869
 4768TIP3   OH235862   0.771   3.355   1.624
 4768TIP3    H135863   0.774   3.408   1.544
 4768TIP3    H235864   0.714   3.403   1.683
 4769TIP3   OH235865   4.172   5.812   8.361
 4769TIP3    H135866   4.190   5.802   8.268
 4769TIP3    H235867   4.256   5.796   8.404
 4770TIP3   OH235868   1.486   5.544   0.423
 4770TIP3    H135869   1.534   5.500   0.493
 4770TIP3    H235870   1.534   5.626   0.410
 4771TIP3   OH235871   0.831   3.896   7.858
 4771TIP3    H135872   0.858   3.932   7.943
 4771TIP3    H235873   0.767   3.960   7.825
 4772TIP3   OH235874   5.534   6.758   0.477
 4772TIP3    H135875   5.618   6.765   0.432
 4772TIP3    H235876   5.469   6.752   0.406
 4773TIP3   OH235877   1.257   3.062   2.187
 4773TIP3    H135878   1.252   2.991   2.123
 4773TIP3    H235879   1.234   3.021   2.271
 4774TIP3   OH235880   1.202   1.737   8.386
 4774TIP3    H135881   1.208   1.833   8.387
 4774TIP3    H235882   1.293   1.708   8.385
 4775TIP3   OH235883   3.927   3.684   8.331
 4775TIP3    H135884   3.963   3.652   8.248
 4775TIP3    H235885   3.922   3.606   8.386
 4776TIP3   OH235886   0.090   6.096   0.084
 4776TIP3    H135887   0.035   6.165   0.046
 4776TIP3    H235888   0.077   6.104   0.179
 4777TIP3   OH235889   6.309   0.048   1.263
 4777TIP3    H135890   6.320   0.139   1.235
 4777TIP3    H235891   6.331   0.049   1.356
 4778TIP3   OH235892   4.117   1.998   7.863
 4778TIP3    H135893   4.084   2.009   7.952
 4778TIP3    H235894   4.212   2.013   7.870
 4779TIP3   OH235895   5.986   5.794   0.684
 4779TIP3    H135896   6.039   5.873   0.698
 4779TIP3    H235897   6.048   5.729   0.651
 4780TIP3   OH235898   3.953   4.760   1.598
 4780TIP3    H135899   4.034   4.808   1.616
 4780TIP3    H235900   3.969   4.672   1.633
 4781TIP3   OH235901   4.247   1.839   1.297
 4781TIP3    H135902   4.245   1.753   1.255
 4781TIP3    H235903   4.196   1.828   1.377
 4782TIP3   OH235904   4.086   4.210   8.405
 4782TIP3    H135905   4.113   4.118   8.412
 4782TIP3    H235906   4.019   4.221   8.472
 4783TIP3   OH235907   4.642   5.582   2.506
 4783TIP3    H135908   4.561   5.631   2.520
 4783TIP3    H235909   4.613   5.495   2.477
 4784TIP3   OH235910   1.006   5.271   6.422
 4784TIP3    H135911   0.988   5.196   6.480
 4784TIP3    H235912   0.977   5.347   6.472
 4785TIP3   OH235913   0.431   5.072   8.312
 4785TIP3    H135914   0.353   5.027   8.281
 4785TIP3    H235915   0.448   5.141   8.247
 4786TIP3   OH235916   2.317   0.110   1.291
 4786TIP3    H135917   2.279   0.141   1.373
 4786TIP3    H235918   2.365   0.031   1.315
 4787TIP3   OH235919   1.119   4.809   1.467
 4787TIP3    H135920   1.123   4.888   1.414
 4787TIP3    H235921   1.025   4.797   1.485
 4788TIP3   OH235922   2.611   4.517   1.041
 4788TIP3    H135923   2.701   4.495   1.066
 4788TIP3    H235924   2.601   4.483   0.952
 4789TIP3   OH235925   6.777   5.989   7.907
 4789TIP3    H135926   6.724   5.960   7.833
 4789TIP3    H235927   0.052   5.931   7.908
 4790TIP3   OH235928   1.476   6.118   6.774
 4790TIP3    H135929   1.512   6.151   6.692
 4790TIP3    H235930   1.452   6.027   6.754
 4791TIP3   OH235931   2.623   2.467   7.788
 4791TIP3    H135932   2.660   2.473   7.700
 4791TIP3    H235933   2.574   2.385   7.787
 4792TIP3   OH235934   0.358   4.234   7.703
 4792TIP3    H135935   0.276   4.284   7.700
 4792TIP3    H235936   0.351   4.172   7.630
 4793TIP3   OH235937   4.119   1.986   0.367
 4793TIP3    H135938   4.092   2.030   0.447
 4793TIP3    H235939   4.103   1.893   0.384
 4794TIP3   OH235940   6.485   2.995   7.931
 4794TIP3    H135941   6.492   3.088   7.910
 4794TIP3    H235942   6.572   2.972   7.965
 4795TIP3   OH235943   4.788   6.286   0.432
 4795TIP3    H135944   4.748   6.233   0.502
 4795TIP3    H235945   4.863   6.328   0.474
 4796TIP3   OH235946   1.042   1.288   7.427
 4796TIP3    H135947   1.081   1.310   7.512
 4796TIP3    H235948   1.090   1.211   7.398
 4797TIP3   OH235949   1.510   1.069   7.212
 4797TIP3    H135950   1.460   1.101   7.287
 4797TIP3    H235951   1.522   1.146   7.157
 4798TIP3   OH235952   2.756   3.731   0.911
 4798TIP3    H135953   2.722   3.756   0.996
 4798TIP3    H235954   2.738   3.638   0.904
 4799TIP3   OH235955   1.651   4.994   7.569
 4799TIP3    H135956   1.720   5.024   7.509
 4799TIP3    H235957   1.641   5.065   7.632
 4800TIP3   OH235958   3.699   5.357   7.523
 4800TIP3    H135959   3.646   5.283   7.555
 4800TIP3    H235960   3.751   5.319   7.451
 4801TIP3   OH235961   6.175   5.539   7.096
 4801TIP3    H135962   6.241   5.487   7.052
 4801TIP3    H235963   6.142   5.600   7.029
 4802TIP3   OH235964   3.583   1.777   0.368
 4802TIP3    H135965   3.534   1.702   0.401
 4802TIP3    H235966   3.554   1.786   0.277
 4803TIP3   OH235967   4.310   5.406   7.163
 4803TIP3    H135968   4.262   5.476   7.208
 4803TIP3    H235969   4.267   5.399   7.078
 4804TIP3   OH235970   2.745   6.637   6.333
 4804TIP3    H135971   2.697   6.719   6.336
 4804TIP3    H235972   2.680   6.571   6.359
 4805TIP3   OH235973   6.581   3.244   7.869
 4805TIP3    H135974   6.671   3.267   7.847
 4805TIP3    H235975   6.527   3.313   7.830
 4806TIP3   OH235976   3.179   2.507   2.083
 4806TIP3    H135977   3.085   2.519   2.101
 4806TIP3    H235978   3.222   2.534   2.163
 4807TIP3   OH235979   4.872   1.703   0.196
 4807TIP3    H135980   4.870   1.783   0.144
 4807TIP3    H235981   4.822   1.639   0.144
 4808TIP3   OH235982   6.061   3.858   1.490
 4808TIP3    H135983   6.113   3.921   1.540
 4808TIP3    H235984   5.978   3.903   1.473
 4809TIP3   OH235985   1.200   1.633   0.013
 4809TIP3    H135986   1.289   1.664   0.028
 4809TIP3    H235987   1.189   1.562   0.076
 4810TIP3   OH235988   5.372   5.821   7.026
 4810TIP3    H135989   5.364   5.901   6.974
 4810TIP3    H235990   5.299   5.765   6.997
 4811TIP3   OH235991   6.314   1.982   2.309
 4811TIP3    H135992   6.229   1.954   2.276
 4811TIP3    H235993   6.295   2.057   2.365
 4812TIP3   OH235994   1.032   4.355   1.511
 4812TIP3    H135995   1.021   4.261   1.495
 4812TIP3    H235996   1.072   4.388   1.431
 4813TIP3   OH235997   1.176   2.395   6.265
 4813TIP3    H135998   1.215   2.405   6.179
 4813TIP3    H235999   1.196   2.477   6.311
 4814TIP3   OH236000   1.031   0.165   1.468
 4814TIP3    H136001   1.000   0.076   1.480
 4814TIP3    H236002   1.095   0.159   1.397
 4815TIP3   OH236003   1.631   1.252   0.619
 4815TIP3    H136004   1.607   1.299   0.539
 4815TIP3    H236005   1.702   1.304   0.657
 4816TIP3   OH236006   1.010   5.468   6.815
 4816TIP3    H136007   0.954   5.396   6.844
 4816TIP3    H236008   1.001   5.469   6.720
 4817TIP3   OH236009   6.338   2.955   6.993
 4817TIP3    H136010   6.319   2.938   6.901
 4817TIP3    H236011   6.266   3.010   7.023
 4818TIP3   OH236012   4.530   1.089   2.113
 4818TIP3    H136013   4.604   1.117   2.168
 4818TIP3    H236014   4.566   1.086   2.025
 4819TIP3   OH236015   3.181   5.557   8.738
 4819TIP3    H136016   3.197   5.477   8.687
 4819TIP3    H236017   3.185   5.627   8.673
 4820TIP3   OH236018   0.390   6.396   8.589
 4820TIP3    H136019   0.460   6.362   8.534
 4820TIP3    H236020   0.309   6.375   8.542
 4821TIP3   OH236021   1.540   1.430   6.676
 4821TIP3    H136022   1.492   1.488   6.616
 4821TIP3    H236023   1.514   1.460   6.763
 4822TIP3   OH236024   1.162   0.681   8.780
 4822TIP3    H136025   1.234   0.652   8.836
 4822TIP3    H236026   1.204   0.707   8.698
 4823TIP3   OH236027   0.767   0.189   7.497
 4823TIP3    H136028   0.856   0.171   7.527
 4823TIP3    H236029   0.752   0.281   7.519
 4824TIP3   OH236030   2.939   0.376   7.110
 4824TIP3    H136031   2.937   0.333   7.024
 4824TIP3    H236032   2.875   0.447   7.102
 4825TIP3   OH236033   3.128   6.226   0.805
 4825TIP3    H136034   3.188   6.239   0.732
 4825TIP3    H236035   3.044   6.203   0.763
 4826TIP3   OH236036   4.659   2.648   8.208
 4826TIP3    H136037   4.724   2.586   8.175
 4826TIP3    H236038   4.578   2.624   8.163
 4827TIP3   OH236039   2.277   5.057   2.217
 4827TIP3    H136040   2.277   5.143   2.259
 4827TIP3    H236041   2.208   5.008   2.262
 4828TIP3   OH236042   2.330   1.693   2.208
 4828TIP3    H136043   2.338   1.757   2.137
 4828TIP3    H236044   2.243   1.655   2.197
 4829TIP3   OH236045   1.709   2.321   0.608
 4829TIP3    H136046   1.684   2.232   0.584
 4829TIP3    H236047   1.796   2.333   0.571
 4830TIP3   OH236048   6.453   6.572   1.905
 4830TIP3    H136049   6.366   6.539   1.928
 4830TIP3    H236050   6.470   6.642   1.969
 4831TIP3   OH236051   1.531   0.176   0.222
 4831TIP3    H136052   1.446   0.208   0.192
 4831TIP3    H236053   1.510   0.104   0.283
 4832TIP3   OH236054   6.755   2.962   8.734
 4832TIP3    H136055   6.726   2.925   8.651
 4832TIP3    H236056   6.707   3.045   8.741
 4833TIP3   OH236057   2.510   0.025   0.101
 4833TIP3    H136058   2.460   0.034   0.019
 4833TIP3    H236059   2.567   0.102   0.101
 4834TIP3   OH236060   4.656   6.161   0.868
 4834TIP3    H136061   4.733   6.202   0.830
 4834TIP3    H236062   4.614   6.231   0.919
 4835TIP3   OH236063   0.988   2.781   0.683
 4835TIP3    H136064   1.059   2.725   0.715
 4835TIP3    H236065   1.009   2.796   0.591
 4836TIP3   OH236066   2.846   4.373   1.630
 4836TIP3    H136067   2.778   4.418   1.680
 4836TIP3    H236068   2.924   4.378   1.685
 4837TIP3   OH236069   6.121   6.648   2.003
 4837TIP3    H136070   6.064   6.630   2.077
 4837TIP3    H236071   6.083   6.600   1.930
 4838TIP3   OH236072   0.247   1.841   7.818
 4838TIP3    H136073   0.244   1.820   7.724
 4838TIP3    H236074   0.265   1.758   7.861
 4839TIP3   OH236075   4.993   5.160   7.992
 4839TIP3    H136076   4.943   5.223   7.939
 4839TIP3    H236077   5.049   5.115   7.929
 4840TIP3   OH236078   5.006   1.768   0.490
 4840TIP3    H136079   4.998   1.678   0.457
 4840TIP3    H236080   4.924   1.784   0.536
 4841TIP3   OH236081   3.910   0.906   7.499
 4841TIP3    H136082   3.948   0.992   7.482
 4841TIP3    H236083   3.818   0.915   7.476
 4842TIP3   OH236084   4.042   0.115   0.562
 4842TIP3    H136085   4.009   0.042   0.615
 4842TIP3    H236086   4.135   0.098   0.553
 4843TIP3   OH236087   5.524   0.624   7.970
 4843TIP3    H136088   5.480   0.702   7.936
 4843TIP3    H236089   5.561   0.652   8.054
 4844TIP3   OH236090   6.469   0.205   8.269
 4844TIP3    H136091   6.512   0.240   8.191
 4844TIP3    H236092   6.406   0.271   8.294
 4845TIP3   OH236093   6.129   2.586   1.225
 4845TIP3    H136094   6.168   2.607   1.140
 4845TIP3    H236095   6.202   2.584   1.286
 4846TIP3   OH236096   4.638   3.800   0.616
 4846TIP3    H136097   4.569   3.866   0.622
 4846TIP3    H236098   4.720   3.850   0.615
 4847TIP3   OH236099   2.256   1.255   0.825
 4847TIP3    H136100   2.324   1.221   0.884
 4847TIP3    H236101   2.292   1.243   0.737
 4848TIP3   OH236102   0.724   0.211   6.561
 4848TIP3    H136103   0.693   0.272   6.493
 4848TIP3    H236104   0.811   0.186   6.532
 4849TIP3   OH236105   0.524   3.186   1.026
 4849TIP3    H136106   0.589   3.144   1.082
 4849TIP3    H236107   0.518   3.129   0.949
 4850TIP3   OH236108   4.486   5.935   0.602
 4850TIP3    H136109   4.524   5.924   0.689
 4850TIP3    H236110   4.448   6.023   0.603
 4851TIP3   OH236111   2.949   4.237   2.106
 4851TIP3    H136112   3.019   4.299   2.087
 4851TIP3    H236113   2.942   4.184   2.027
 4852TIP3   OH236114   4.493   6.096   8.612
 4852TIP3    H136115   4.529   6.144   8.686
 4852TIP3    H236116   4.569   6.056   8.570
 4853TIP3   OH236117   3.560   5.580   8.828
 4853TIP3    H136118   3.505   5.528   0.027
 4853TIP3    H236119   3.504   5.652   8.801
 4854TIP3   OH236120   4.177   5.499   0.544
 4854TIP3    H136121   4.209   5.413   0.519
 4854TIP3    H236122   4.252   5.541   0.586
 4855TIP3   OH236123   6.337   2.804   1.588
 4855TIP3    H136124   6.398   2.734   1.612
 4855TIP3    H236125   6.256   2.758   1.567
 4856TIP3   OH236126   5.982   3.433   7.522
 4856TIP3    H136127   5.943   3.359   7.476
 4856TIP3    H236128   6.075   3.413   7.523
 4857TIP3   OH236129   6.530   4.970   7.818
 4857TIP3    H136130   6.533   4.892   7.873
 4857TIP3    H236131   6.483   4.942   7.740
 4858TIP3   OH236132   3.371   1.789   1.521
 4858TIP3    H136133   3.300   1.756   1.466
 4858TIP3    H236134   3.329   1.813   1.603
 4859TIP3   OH236135   2.290   3.268   7.988
 4859TIP3    H136136   2.202   3.259   7.954
 4859TIP3    H236137   2.346   3.277   7.911
 4860TIP3   OH236138   5.928   1.524   1.399
 4860TIP3    H136139   5.952   1.431   1.392
 4860TIP3    H236140   5.941   1.545   1.491
 4861TIP3   OH236141   1.762   0.388   1.748
 4861TIP3    H136142   1.829   0.339   1.701
 4861TIP3    H236143   1.733   0.329   1.818
 4862TIP3   OH236144   5.285   2.263   1.763
 4862TIP3    H136145   5.280   2.169   1.744
 4862TIP3    H236146   5.288   2.268   1.859
 4863TIP3   OH236147   0.905   0.590   6.229
 4863TIP3    H136148   0.868   0.663   6.278
 4863TIP3    H236149   0.999   0.600   6.239
 4864TIP3   OH236150   6.365   4.050   0.611
 4864TIP3    H136151   6.436   4.025   0.552
 4864TIP3    H236152   6.288   4.005   0.576
 4865TIP3   OH236153   0.110   3.856   0.334
 4865TIP3    H136154   0.083   3.791   0.270
 4865TIP3    H236155   0.113   3.809   0.417
 4866TIP3   OH236156   5.362   4.724   8.260
 4866TIP3    H136157   5.458   4.715   8.259
 4866TIP3    H236158   5.333   4.684   8.179
 4867TIP3   OH236159   3.386   2.750   0.766
 4867TIP3    H136160   3.437   2.670   0.778
 4867TIP3    H236161   3.335   2.758   0.847
 4868TIP3   OH236162   4.200   4.098   8.125
 4868TIP3    H136163   4.194   4.183   8.083
 4868TIP3    H236164   4.132   4.045   8.082
 4869TIP3   OH236165   0.305   3.680   1.286
 4869TIP3    H136166   0.367   3.711   1.219
 4869TIP3    H236167   0.276   3.760   1.330
 4870TIP3   OH236168   0.314   3.972   1.382
 4870TIP3    H136169   0.351   4.057   1.405
 4870TIP3    H236170   0.243   3.993   1.320
 4871TIP3   OH236171   0.717   3.852   1.686
 4871TIP3    H136172   0.756   3.936   1.661
 4871TIP3    H236173   0.788   3.805   1.730
 4872TIP3   OH236174   3.847   6.495   7.267
 4872TIP3    H136175   3.914   6.528   7.206
 4872TIP3    H236176   3.764   6.511   7.222
 4873TIP3   OH236177   6.516   0.767   2.491
 4873TIP3    H136178   6.463   0.712   2.549
 4873TIP3    H236179   6.457   0.838   2.465
 4874TIP3   OH236180   6.050   6.149   6.876
 4874TIP3    H136181   6.005   6.069   6.902
 4874TIP3    H236182   5.982   6.202   6.833
 4875TIP3   OH236183   0.137   2.432   8.444
 4875TIP3    H136184   0.110   2.524   8.449
 4875TIP3    H236185   0.132   2.401   8.534
 4876TIP3   OH236186   1.467   4.992   1.714
 4876TIP3    H136187   1.432   4.919   1.765
 4876TIP3    H236188   1.561   4.991   1.734
 4877TIP3   OH236189   5.332   0.974   1.447
 4877TIP3    H136190   5.390   0.898   1.442
 4877TIP3    H236191   5.307   0.979   1.540
 4878TIP3   OH236192   5.624   0.528   6.961
 4878TIP3    H136193   5.536   0.495   6.981
 4878TIP3    H236194   5.633   0.517   6.866
 4879TIP3   OH236195   2.941   4.999   0.802
 4879TIP3    H136196   2.886   5.076   0.787
 4879TIP3    H236197   2.887   4.925   0.774
 4880TIP3   OH236198   1.946   0.003   0.419
 4880TIP3    H136199   1.915   0.085   0.456
 4880TIP3    H236200   1.957   6.745   0.494
 4881TIP3   OH236201   4.755   3.651   0.854
 4881TIP3    H136202   4.700   3.616   0.924
 4881TIP3    H236203   4.731   3.600   0.777
 4882TIP3   OH236204   5.415   0.402   7.134
 4882TIP3    H136205   5.464   0.349   7.196
 4882TIP3    H236206   5.344   0.440   7.186
 4883TIP3   OH236207   4.024   5.638   8.533
 4883TIP3    H136208   3.946   5.675   8.575
 4883TIP3    H236209   4.067   5.713   8.492
 4884TIP3   OH236210   6.113   5.818   8.759
 4884TIP3    H136211   6.157   5.901   8.775
 4884TIP3    H236212   6.092   5.785   8.846
 4885TIP3   OH236213   5.074   2.734   7.608
 4885TIP3    H136214   5.074   2.640   7.625
 4885TIP3    H236215   5.032   2.743   7.523
 4886TIP3   OH236216   5.711   0.918   0.957
 4886TIP3    H136217   5.803   0.894   0.948
 4886TIP3    H236218   5.689   0.959   0.874
 4887TIP3   OH236219   1.399   0.364   1.599
 4887TIP3    H136220   1.303   0.361   1.598
 4887TIP3    H236221   1.422   0.359   1.692
 4888TIP3   OH236222   0.350   1.742   8.801
 4888TIP3    H136223   0.414   1.732   0.011
 4888TIP3    H236224   0.393   1.801   8.738
 4889TIP3   OH236225   0.273   4.568   0.258
 4889TIP3    H136226   0.239   4.483   0.287
 4889TIP3    H236227   0.241   4.577   0.168
 4890TIP3   OH236228   5.648   0.215   7.234
 4890TIP3    H136229   5.664   0.171   7.150
 4890TIP3    H236230   5.646   0.145   7.298
 4891TIP3   OH236231   4.513   4.128   6.899
 4891TIP3    H136232   4.597   4.134   6.855
 4891TIP3    H236233   4.475   4.046   6.867
 4892TIP3   OH236234   0.885   2.430   7.642
 4892TIP3    H136235   0.844   2.343   7.646
 4892TIP3    H236236   0.945   2.431   7.716
 4893TIP3   OH236237   0.137   0.423   1.889
 4893TIP3    H136238   0.044   0.412   1.905
 4893TIP3    H236239   0.148   0.404   1.796
 4894TIP3   OH236240   5.642   3.445   1.083
 4894TIP3    H136241   5.724   3.413   1.047
 4894TIP3    H236242   5.667   3.492   1.163
 4895TIP3   OH236243   4.230   6.791   0.001
 4895TIP3    H136244   4.214   6.791   0.095
 4895TIP3    H236245   4.159   6.739   8.824
 4896TIP3   OH236246   2.718   5.448   1.150
 4896TIP3    H136247   2.798   5.496   1.170
 4896TIP3    H236248   2.666   5.452   1.231
 4897TIP3   OH236249   0.169   6.338   2.045
 4897TIP3    H136250   0.082   6.352   2.081
 4897TIP3    H236251   0.217   6.418   2.066
 4898TIP3   OH236252   4.126   6.330   6.563
 4898TIP3    H136253   4.081   6.414   6.552
 4898TIP3    H236254   4.190   6.328   6.492
 4899TIP3   OH236255   4.862   3.918   0.937
 4899TIP3    H136256   4.832   3.936   1.025
 4899TIP3    H236257   4.815   3.838   0.912
 4900TIP3   OH236258   1.263   3.662   7.218
 4900TIP3    H136259   1.335   3.603   7.242
 4900TIP3    H236260   1.305   3.731   7.168
 4901TIP3   OH236261   3.190   3.225   7.728
 4901TIP3    H136262   3.201   3.139   7.767
 4901TIP3    H236263   3.145   3.209   7.645
 4902TIP3   OH236264   5.722   1.624   2.406
 4902TIP3    H136265   5.769   1.546   2.377
 4902TIP3    H236266   5.703   1.671   2.325
 4903TIP3   OH236267   3.154   5.697   0.308
 4903TIP3    H136268   3.123   5.696   0.398
 4903TIP3    H236269   3.239   5.741   0.313
 4904TIP3   OH236270   3.749   2.288   8.138
 4904TIP3    H136271   3.784   2.272   8.050
 4904TIP3    H236272   3.675   2.229   8.146
 4905TIP3   OH236273   5.002   6.378   8.299
 4905TIP3    H136274   4.928   6.437   8.284
 4905TIP3    H236275   5.056   6.386   8.221
 4906TIP3   OH236276   2.453   2.246   7.746
 4906TIP3    H136277   2.372   2.295   7.744
 4906TIP3    H236278   2.462   2.209   7.658
 4907TIP3   OH236279   1.571   5.264   1.070
 4907TIP3    H136280   1.629   5.221   1.133
 4907TIP3    H236281   1.591   5.222   0.987
 4908TIP3   OH236282   4.739   3.028   0.400
 4908TIP3    H136283   4.831   3.047   0.377
 4908TIP3    H236284   4.718   3.091   0.469
 4909TIP3   OH236285   0.190   6.005   7.070
 4909TIP3    H136286   0.206   5.922   7.116
 4909TIP3    H236287   0.247   6.068   7.114
 4910TIP3   OH236288   4.996   5.817   1.932
 4910TIP3    H136289   4.995   5.722   1.924
 4910TIP3    H236290   5.025   5.833   2.022
 4911TIP3   OH236291   6.765   3.535   7.685
 4911TIP3    H136292   6.745   3.628   7.679
 4911TIP3    H236293   6.724   3.496   7.607
 4912TIP3   OH236294   0.310   3.683   7.197
 4912TIP3    H136295   0.360   3.761   7.171
 4912TIP3    H236296   0.361   3.644   7.267
 4913TIP3   OH236297   0.157   6.157   8.576
 4913TIP3    H136298   0.115   6.072   8.559
 4913TIP3    H236299   0.172   6.194   8.490
 4914TIP3   OH236300   2.014   2.572   6.454
 4914TIP3    H136301   2.057   2.611   6.378
 4914TIP3    H236302   2.082   2.569   6.522
 4915TIP3   OH236303   6.314   0.393   0.131
 4915TIP3    H136304   6.320   0.487   0.114
 4915TIP3    H236305   6.395   0.357   0.095
 4916TIP3   OH236306   2.272   4.469   0.043
 4916TIP3    H136307   2.251   4.560   0.062
 4916TIP3    H236308   2.348   4.474   8.846
 4917TIP3   OH236309   0.283   3.986   0.100
 4917TIP3    H136310   0.334   4.067   0.090
 4917TIP3    H236311   0.252   3.988   0.190
 4918TIP3   OH236312   6.606   3.163   7.329
 4918TIP3    H136313   6.513   3.172   7.350
 4918TIP3    H236314   6.626   3.070   7.347
 4919TIP3   OH236315   0.671   1.402   6.986
 4919TIP3    H136316   0.575   1.398   6.989
 4919TIP3    H236317   0.689   1.484   6.939
 4920TIP3   OH236318   5.144   4.604   8.030
 4920TIP3    H136319   5.077   4.669   8.050
 4920TIP3    H236320   5.120   4.570   7.944
 4921TIP3   OH236321   0.650   3.538   2.386
 4921TIP3    H136322   0.743   3.543   2.408
 4921TIP3    H236323   0.617   3.626   2.403
 4922TIP3   OH236324   0.171   1.107   0.517
 4922TIP3    H136325   0.131   1.056   0.587
 4922TIP3    H236326   0.251   1.143   0.556
 4923TIP3   OH236327   6.230   5.079   8.009
 4923TIP3    H136328   6.304   5.087   8.069
 4923TIP3    H236329   6.252   5.139   7.937
 4924TIP3   OH236330   0.634   0.750   6.410
 4924TIP3    H136331   0.602   0.830   6.369
 4924TIP3    H236332   0.715   0.775   6.453
 4925TIP3   OH236333   4.989   0.113   1.704
 4925TIP3    H136334   5.083   0.111   1.684
 4925TIP3    H236335   4.965   0.206   1.694
 4926TIP3   OH236336   3.186   1.796   7.757
 4926TIP3    H136337   3.222   1.783   7.845
 4926TIP3    H236338   3.244   1.746   7.700
 4927TIP3   OH236339   0.375   5.451   7.640
 4927TIP3    H136340   0.415   5.387   7.581
 4927TIP3    H236341   0.421   5.439   7.723
 4928TIP3   OH236342   6.591   1.100   8.090
 4928TIP3    H136343   6.680   1.083   8.122
 4928TIP3    H236344   6.547   1.015   8.094
 4929TIP3   OH236345   3.679   4.969   1.678
 4929TIP3    H136346   3.638   4.941   1.596
 4929TIP3    H236347   3.664   4.896   1.738
 4930TIP3   OH236348   6.102   4.516   0.781
 4930TIP3    H136349   6.143   4.442   0.736
 4930TIP3    H236350   6.020   4.481   0.815
 4931TIP3   OH236351   5.802   5.369   7.535
 4931TIP3    H136352   5.725   5.352   7.481
 4931TIP3    H236353   5.782   5.450   7.581
 4932TIP3   OH236354   3.320   2.525   1.725
 4932TIP3    H136355   3.346   2.615   1.745
 4932TIP3    H236356   3.225   2.525   1.731
 4933TIP3   OH236357   6.168   6.565   7.517
 4933TIP3    H136358   6.124   6.642   7.552
 4933TIP3    H236359   6.213   6.597   7.438
 4934TIP3   OH236360   6.359   3.017   7.523
 4934TIP3    H136361   6.444   2.987   7.555
 4934TIP3    H236362   6.331   2.950   7.461
 4935TIP3   OH236363   2.241   5.089   7.249
 4935TIP3    H136364   2.324   5.049   7.221
 4935TIP3    H236365   2.267   5.146   7.322
 4936TIP3   OH236366   5.270   2.314   7.354
 4936TIP3    H136367   5.322   2.372   7.298
 4936TIP3    H236368   5.279   2.350   7.442
 4937TIP3   OH236369   2.796   6.405   7.572
 4937TIP3    H136370   2.862   6.386   7.639
 4937TIP3    H236371   2.749   6.482   7.606
 4938TIP3   OH236372   0.058   1.021   0.288
 4938TIP3    H136373   0.086   1.049   0.375
 4938TIP3    H236374   0.061   0.925   0.292
 4939TIP3   OH236375   5.445   0.112   1.388
 4939TIP3    H136376   5.487   0.126   1.474
 4939TIP3    H236377   5.361   0.072   1.409
 4940TIP3   OH236378   1.883   2.573   2.036
 4940TIP3    H136379   1.892   2.501   1.973
 4940TIP3    H236380   1.970   2.581   2.075
 4941TIP3   OH236381   3.931   0.619   7.443
 4941TIP3    H136382   3.839   0.593   7.429
 4941TIP3    H236383   3.927   0.713   7.458
 4942TIP3   OH236384   4.953   6.430   7.243
 4942TIP3    H136385   5.031   6.485   7.245
 4942TIP3    H236386   4.955   6.383   7.326
 4943TIP3   OH236387   6.342   4.222   7.630
 4943TIP3    H136388   6.421   4.251   7.674
 4943TIP3    H236389   6.279   4.293   7.645
 4944TIP3   OH236390   3.491   3.923   8.547
 4944TIP3    H136391   3.530   3.870   8.477
 4944TIP3    H236392   3.400   3.893   8.552
 4945TIP3   OH236393   6.749   0.426   1.314
 4945TIP3    H136394   0.036   0.465   1.317
 4945TIP3    H236395   6.730   0.416   1.221
 4946TIP3   OH236396   1.908   0.191   1.468
 4946TIP3    H136397   1.934   0.103   1.495
 4946TIP3    H236398   1.818   0.180   1.436
 4947TIP3   OH236399   2.186   3.520   7.122
 4947TIP3    H136400   2.168   3.595   7.066
 4947TIP3    H236401   2.263   3.546   7.173
 4948TIP3   OH236402   2.150   0.485   1.064
 4948TIP3    H136403   2.109   0.435   1.136
 4948TIP3    H236404   2.129   0.576   1.083
 4949TIP3   OH236405   3.090   4.949   1.034
 4949TIP3    H136406   3.184   4.959   1.020
 4949TIP3    H236407   3.051   4.965   0.948
 4950TIP3   OH236408   6.313   4.866   0.609
 4950TIP3    H136409   6.361   4.840   0.530
 4950TIP3    H236410   6.223   4.839   0.592
 4951TIP3   OH236411   5.784   5.679   1.059
 4951TIP3    H136412   5.719   5.740   1.025
 4951TIP3    H236413   5.866   5.728   1.058
 4952TIP3   OH236414   5.408   0.214   0.257
 4952TIP3    H136415   5.324   0.252   0.233
 4952TIP3    H236416   5.394   0.119   0.253
 4953TIP3   OH236417   0.670   1.186   7.544
 4953TIP3    H136418   0.668   1.240   7.466
 4953TIP3    H236419   0.647   1.245   7.616
 4954TIP3   OH236420   6.181   1.313   1.937
 4954TIP3    H136421   6.146   1.339   1.852
 4954TIP3    H236422   6.248   1.378   1.956
 4955TIP3   OH236423   4.321   2.311   7.463
 4955TIP3    H136424   4.333   2.337   7.372
 4955TIP3    H236425   4.297   2.219   7.459
 4956TIP3   OH236426   5.313   5.227   8.524
 4956TIP3    H136427   5.298   5.143   8.481
 4956TIP3    H236428   5.298   5.292   8.455
 4957TIP3   OH236429   4.745   1.824   1.538
 4957TIP3    H136430   4.791   1.908   1.544
 4957TIP3    H236431   4.804   1.761   1.578
 4958TIP3   OH236432   4.462   2.332   8.180
 4958TIP3    H136433   4.501   2.254   8.140
 4958TIP3    H236434   4.533   2.371   8.230
 4959TIP3   OH236435   3.324   6.431   7.504
 4959TIP3    H136436   3.229   6.415   7.507
 4959TIP3    H236437   3.358   6.385   7.581
 4960TIP3   OH236438   0.223   0.306   7.595
 4960TIP3    H136439   0.188   0.382   7.642
 4960TIP3    H236440   0.316   0.306   7.616
 4961TIP3   OH236441   6.181   5.844   2.483
 4961TIP3    H136442   6.253   5.838   2.545
 4961TIP3    H236443   6.149   5.933   2.492
 4962TIP3   OH236444   2.213   3.848   0.868
 4962TIP3    H136445   2.240   3.880   0.781
 4962TIP3    H236446   2.129   3.892   0.884
 4963TIP3   OH236447   1.502   5.889   8.440
 4963TIP3    H136448   1.436   5.947   8.477
 4963TIP3    H236449   1.459   5.850   8.364
 4964TIP3   OH236450   1.150   3.277   0.525
 4964TIP3    H136451   1.193   3.351   0.567
 4964TIP3    H236452   1.222   3.222   0.493
 4965TIP3   OH236453   2.566   2.911   0.083
 4965TIP3    H136454   2.508   2.839   0.108
 4965TIP3    H236455   2.531   2.942   8.860
 4966TIP3   OH236456   0.546   2.073   1.653
 4966TIP3    H136457   0.532   2.019   1.575
 4966TIP3    H236458   0.517   2.160   1.628
 4967TIP3   OH236459   2.527   2.293   1.231
 4967TIP3    H136460   2.482   2.245   1.301
 4967TIP3    H236461   2.477   2.273   1.152
 4968TIP3   OH236462   1.756   4.509   0.131
 4968TIP3    H136463   1.775   4.423   0.092
 4968TIP3    H236464   1.678   4.494   0.184
 4969TIP3   OH236465   5.525   4.942   1.139
 4969TIP3    H136466   5.547   4.860   1.095
 4969TIP3    H236467   5.528   5.008   1.070
 4970TIP3   OH236468   5.904   4.209   0.358
 4970TIP3    H136469   5.968   4.280   0.367
 4970TIP3    H236470   5.824   4.252   0.326
 4971TIP3   OH236471   4.165   3.641   8.579
 4971TIP3    H136472   4.128   3.555   8.558
 4971TIP3    H236473   4.175   3.684   8.494
 4972TIP3   OH236474   6.610   5.247   8.280
 4972TIP3    H136475   6.684   5.194   8.311
 4972TIP3    H236476   6.565   5.275   8.360
 4973TIP3   OH236477   6.347   5.484   0.894
 4973TIP3    H136478   6.342   5.532   0.811
 4973TIP3    H236479   6.258   5.485   0.928
 4974TIP3   OH236480   0.577   2.048   0.171
 4974TIP3    H136481   0.491   2.007   0.165
 4974TIP3    H236482   0.566   2.115   0.238
 4975TIP3   OH236483   4.792   3.829   6.999
 4975TIP3    H136484   4.818   3.905   7.050
 4975TIP3    H236485   4.793   3.859   6.908
 4976TIP3   OH236486   1.712   3.040   8.070
 4976TIP3    H136487   1.760   2.957   8.074
 4976TIP3    H236488   1.712   3.062   7.977
 4977TIP3   OH236489   4.743   6.563   8.245
 4977TIP3    H136490   4.706   6.611   8.171
 4977TIP3    H236491   4.724   6.471   8.225
 4978TIP3   OH236492   5.492   6.661   7.768
 4978TIP3    H136493   5.488   6.647   7.674
 4978TIP3    H236494   5.401   6.677   7.794
 4979TIP3   OH236495   2.626   0.159   1.523
 4979TIP3    H136496   2.668   0.245   1.519
 4979TIP3    H236497   2.569   0.163   1.599
 4980TIP3   OH236498   3.233   3.278   6.962
 4980TIP3    H136499   3.282   3.267   6.880
 4980TIP3    H236500   3.153   3.323   6.936
 4981TIP3   OH236501   3.588   5.086   1.975
 4981TIP3    H136502   3.533   5.144   1.923
 4981TIP3    H236503   3.630   5.028   1.911
 4982TIP3   OH236504   3.786   6.323   2.190
 4982TIP3    H136505   3.871   6.343   2.230
 4982TIP3    H236506   3.726   6.387   2.230
 4983TIP3   OH236507   3.782   0.628   0.612
 4983TIP3    H136508   3.739   0.694   0.666
 4983TIP3    H236509   3.869   0.618   0.651
 4984TIP3   OH236510   3.098   4.457   8.752
 4984TIP3    H136511   3.019   4.510   8.768
 4984TIP3    H236512   3.100   4.395   8.825
 4985TIP3   OH236513   1.927   0.404   0.969
 4985TIP3    H136514   2.007   0.438   1.009
 4985TIP3    H236515   1.881   0.482   0.936
 4986TIP3   OH236516   3.754   6.421   0.727
 4986TIP3    H136517   3.808   6.342   0.725
 4986TIP3    H236518   3.748   6.443   0.819
 4987TIP3   OH236519   1.358   4.499   0.883
 4987TIP3    H136520   1.347   4.498   0.788
 4987TIP3    H236521   1.338   4.409   0.910
 4988TIP3   OH236522   1.543   2.597   6.442
 4988TIP3    H136523   1.478   2.600   6.512
 4988TIP3    H236524   1.528   2.512   6.400
 4989TIP3   OH236525   4.238   4.694   8.698
 4989TIP3    H136526   4.306   4.690   8.631
 4989TIP3    H236527   4.265   4.766   8.755
 4990TIP3   OH236528   0.802   4.018   1.386
 4990TIP3    H136529   0.890   4.013   1.423
 4990TIP3    H236530   0.747   4.048   1.459
 4991TIP3   OH236531   4.592   2.929   7.286
 4991TIP3    H136532   4.638   2.961   7.209
 4991TIP3    H236533   4.623   2.839   7.297
 4992TIP3   OH236534   6.256   2.413   0.897
 4992TIP3    H136535   6.317   2.380   0.964
 4992TIP3    H236536   6.284   2.371   0.816
 4993TIP3   OH236537   1.324   5.060   0.733
 4993TIP3    H136538   1.395   5.033   0.675
 4993TIP3    H236539   1.249   5.071   0.674
 4994TIP3   OH236540   0.742   2.197   8.654
 4994TIP3    H136541   0.738   2.253   8.577
 4994TIP3    H236542   0.814   2.233   8.707
 4995TIP3   OH236543   0.352   3.760   0.465
 4995TIP3    H136544   0.298   3.727   0.536
 4995TIP3    H236545   0.306   3.734   0.385
 4996TIP3   OH236546   2.562   2.486   6.386
 4996TIP3    H136547   2.645   2.477   6.339
 4996TIP3    H236548   2.502   2.426   6.341
 4997TIP3   OH236549   1.086   2.878   7.334
 4997TIP3    H136550   1.165   2.827   7.320
 4997TIP3    H236551   1.056   2.902   7.247
 4998TIP3   OH236552   6.254   2.082   6.815
 4998TIP3    H136553   6.285   2.089   6.905
 4998TIP3    H236554   6.330   2.054   6.765
 4999TIP3   OH236555   0.842   1.424   0.458
 4999TIP3    H136556   0.798   1.508   0.470
 4999TIP3    H236557   0.822   1.399   0.368
 5000TIP3   OH236558   0.877   2.976   0.823
 5000TIP3    H136559   0.906   2.895   0.783
 5000TIP3    H236560   0.843   2.951   0.908
 5001TIP3   OH236561   4.760   6.675   0.161
 5001TIP3    H136562   4.711   6.670   0.243
 5001TIP3    H236563   4.773   6.769   0.147
 5002TIP3   OH236564   4.622   2.153   7.980
 5002TIP3    H136565   4.712   2.173   7.956
 5002TIP3    H236566   4.570   2.219   7.934
 5003TIP3   OH236567   4.561   5.000   6.583
 5003TIP3    H136568   4.592   4.912   6.561
 5003TIP3    H236569   4.497   5.021   6.515
 5004TIP3   OH236570   5.599   0.177   7.814
 5004TIP3    H136571   5.586   0.213   7.902
 5004TIP3    H236572   5.694   0.174   7.803
 5005TIP3   OH236573   3.459   2.352   1.467
 5005TIP3    H136574   3.423   2.404   1.395
 5005TIP3    H236575   3.446   2.261   1.439
 5006TIP3   OH236576   0.945   2.306   8.779
 5006TIP3    H136577   0.989   2.235   8.825
 5006TIP3    H236578   0.938   2.377   8.844
 5007TIP3   OH236579   4.692   1.544   0.727
 5007TIP3    H136580   4.630   1.497   0.670
 5007TIP3    H236581   4.770   1.487   0.729
 5008TIP3   OH236582   1.353   6.138   0.629
 5008TIP3    H136583   1.352   6.045   0.654
 5008TIP3    H236584   1.381   6.184   0.708
 5009TIP3   OH236585   1.124   4.143   1.295
 5009TIP3    H136586   1.163   4.228   1.275
 5009TIP3    H236587   1.193   4.080   1.275
 5010TIP3   OH236588   3.303   2.931   2.484
 5010TIP3    H136589   3.385   2.902   2.524
 5010TIP3    H236590   3.324   3.016   2.445
 5011TIP3   OH236591   0.230   3.712   1.738
 5011TIP3    H136592   0.307   3.761   1.769
 5011TIP3    H236593   0.165   3.779   1.719
 5012TIP3   OH236594   3.633   1.258   8.273
 5012TIP3    H136595   3.713   1.250   8.221
 5012TIP3    H236596   3.659   1.312   8.348
 5013TIP3   OH236597   3.229   2.962   7.499
 5013TIP3    H136598   3.187   3.046   7.478
 5013TIP3    H236599   3.190   2.900   7.437
 5014TIP3   OH236600   0.455   2.770   7.582
 5014TIP3    H136601   0.413   2.780   7.497
 5014TIP3    H236602   0.538   2.726   7.562
 5015TIP3   OH236603   2.184   2.538   7.961
 5015TIP3    H136604   2.150   2.459   8.003
 5015TIP3    H236605   2.198   2.513   7.870
 5016TIP3   OH236606   5.560   5.391   0.839
 5016TIP3    H136607   5.568   5.475   0.793
 5016TIP3    H236608   5.541   5.328   0.770
 5017TIP3   OH236609   3.246   4.161   0.539
 5017TIP3    H136610   3.318   4.213   0.574
 5017TIP3    H236611   3.170   4.186   0.592
 5018TIP3   OH236612   2.883   6.589   8.276
 5018TIP3    H136613   2.831   6.666   8.297
 5018TIP3    H236614   2.819   6.523   8.249
 5019TIP3   OH236615   2.785   6.143   2.017
 5019TIP3    H136616   2.854   6.158   2.082
 5019TIP3    H236617   2.803   6.208   1.948
 5020TIP3   OH236618   1.966   1.011   7.822
 5020TIP3    H136619   2.047   1.061   7.809
 5020TIP3    H236620   1.953   0.965   7.739
 5021TIP3   OH236621   4.171   4.294   7.418
 5021TIP3    H136622   4.199   4.378   7.456
 5021TIP3    H236623   4.115   4.256   7.486
 5022TIP3   OH236624   3.698   4.962   7.024
 5022TIP3    H136625   3.657   4.893   6.972
 5022TIP3    H236626   3.729   5.025   6.960
 5023TIP3   OH236627   5.969   2.803   6.894
 5023TIP3    H136628   6.051   2.822   6.848
 5023TIP3    H236629   5.912   2.876   6.871
 5024TIP3   OH236630   0.547   3.889   8.107
 5024TIP3    H136631   0.614   3.823   8.124
 5024TIP3    H236632   0.477   3.842   8.060
 5025TIP3   OH236633   5.309   2.142   6.408
 5025TIP3    H136634   5.341   2.098   6.329
 5025TIP3    H236635   5.284   2.070   6.466
 5026TIP3   OH236636   3.159   0.805   0.346
 5026TIP3    H136637   3.185   0.890   0.382
 5026TIP3    H236638   3.064   0.811   0.338
 5027TIP3   OH236639   3.239   0.766   8.849
 5027TIP3    H136640   3.155   0.766   0.034
 5027TIP3    H236641   3.293   0.704   0.037
 5028TIP3   OH236642   4.765   1.323   1.006
 5028TIP3    H136643   4.685   1.342   1.054
 5028TIP3    H236644   4.819   1.401   1.017
 5029TIP3   OH236645   6.209   6.062   8.787
 5029TIP3    H136646   6.224   6.094   8.698
 5029TIP3    H236647   6.242   6.133   8.843
 5030TIP3   OH236648   4.279   3.954   7.701
 5030TIP3    H136649   4.338   4.029   7.711
 5030TIP3    H236650   4.240   3.966   7.614
 5031TIP3   OH236651   5.718   1.109   1.384
 5031TIP3    H136652   5.807   1.076   1.369
 5031TIP3    H236653   5.662   1.049   1.334
 5032TIP3   OH236654   1.224   3.701   1.989
 5032TIP3    H136655   1.211   3.695   2.083
 5032TIP3    H236656   1.276   3.624   1.966
 5033TIP3   OH236657   3.477   6.779   2.086
 5033TIP3    H136658   3.507   0.002   1.998
 5033TIP3    H236659   3.466   0.062   2.131
 5034TIP3   OH236660   3.201   5.859   0.036
 5034TIP3    H136661   3.162   5.907   8.823
 5034TIP3    H236662   3.295   5.861   0.019
 5035TIP3   OH236663   4.895   6.086   7.384
 5035TIP3    H136664   4.823   6.135   7.423
 5035TIP3    H236665   4.974   6.121   7.426
 5036TIP3   OH236666   6.468   0.948   7.021
 5036TIP3    H136667   6.423   0.966   6.938
 5036TIP3    H236668   6.457   0.854   7.035
 5037TIP3   OH236669   1.826   6.258   1.469
 5037TIP3    H136670   1.798   6.344   1.438
 5037TIP3    H236671   1.879   6.222   1.398
 5038TIP3   OH236672   1.648   5.514   8.695
 5038TIP3    H136673   1.580   5.462   8.652
 5038TIP3    H236674   1.684   5.569   8.626
 5039TIP3   OH236675   3.613   6.358   7.507
 5039TIP3    H136676   3.613   6.317   7.594
 5039TIP3    H236677   3.521   6.363   7.483
 5040TIP3   OH236678   5.569   1.772   0.967
 5040TIP3    H136679   5.594   1.789   1.058
 5040TIP3    H236680   5.551   1.678   0.965
 5041TIP3   OH236681   0.162   3.604   6.565
 5041TIP3    H136682   0.211   3.554   6.500
 5041TIP3    H236683   0.203   3.582   6.649
 5042TIP3   OH236684   0.125   1.231   7.243
 5042TIP3    H136685   0.091   1.245   7.331
 5042TIP3    H236686   0.075   1.291   7.188
 5043TIP3   OH236687   3.187   6.073   0.218
 5043TIP3    H136688   3.190   5.995   0.163
 5043TIP3    H236689   3.180   6.039   0.308
 5044TIP3   OH236690   3.507   0.552   6.528
 5044TIP3    H136691   3.591   0.588   6.500
 5044TIP3    H236692   3.510   0.461   6.500
 5045TIP3   OH236693   0.121   2.063   1.542
 5045TIP3    H136694   0.143   2.009   1.617
 5045TIP3    H236695   0.136   2.153   1.571
 5046TIP3   OH236696   6.469   1.491   8.205
 5046TIP3    H136697   6.436   1.578   8.182
 5046TIP3    H236698   6.467   1.489   8.301
 5047TIP3   OH236699   5.169   6.267   7.839
 5047TIP3    H136700   5.172   6.205   7.911
 5047TIP3    H236701   5.260   6.284   7.818
 5048TIP3   OH236702   3.756   3.904   8.404
 5048TIP3    H136703   3.760   3.865   8.491
 5048TIP3    H236704   3.822   3.858   8.353
 5049TIP3   OH236705   1.212   6.164   7.487
 5049TIP3    H136706   1.272   6.101   7.447
 5049TIP3    H236707   1.139   6.170   7.426
 5050TIP3   OH236708   6.656   1.819   7.329
 5050TIP3    H136709   6.577   1.778   7.366
 5050TIP3    H236710   6.724   1.752   7.339
 5051TIP3   OH236711   1.323   1.133   7.396
 5051TIP3    H136712   1.294   1.200   7.457
 5051TIP3    H236713   1.314   1.051   7.446
 5052TIP3   OH236714   6.191   6.755   0.744
 5052TIP3    H136715   6.243   6.732   0.821
 5052TIP3    H236716   6.127   6.685   0.735
 5053TIP3   OH236717   2.704   0.567   1.978
 5053TIP3    H136718   2.766   0.637   2.001
 5053TIP3    H236719   2.739   0.489   2.021
 5054TIP3   OH236720   4.647   3.490   1.339
 5054TIP3    H136721   4.559   3.528   1.352
 5054TIP3    H236722   4.644   3.407   1.386
 5055TIP3   OH236723   3.139   4.902   7.821
 5055TIP3    H136724   3.114   4.961   7.750
 5055TIP3    H236725   3.082   4.826   7.809
 5056TIP3   OH236726   6.037   1.357   2.551
 5056TIP3    H136727   6.100   1.286   2.562
 5056TIP3    H236728   5.957   1.313   2.523
 5057TIP3   OH236729   4.521   5.524   1.487
 5057TIP3    H136730   4.574   5.462   1.436
 5057TIP3    H236731   4.454   5.470   1.528
 5058TIP3   OH236732   1.063   5.304   8.728
 5058TIP3    H136733   1.027   5.392   8.731
 5058TIP3    H236734   1.109   5.299   8.645
 5059TIP3   OH236735   2.206   0.502   1.931
 5059TIP3    H136736   2.131   0.535   1.981
 5059TIP3    H236737   2.283   0.531   1.980
 5060TIP3   OH236738   4.426   0.517   1.930
 5060TIP3    H136739   4.466   0.543   1.847
 5060TIP3    H236740   4.483   0.554   1.997
 5061TIP3   OH236741   4.761   0.325   7.042
 5061TIP3    H136742   4.754   0.395   6.977
 5061TIP3    H236743   4.855   0.305   7.046
 5062TIP3   OH236744   4.026   0.501   7.216
 5062TIP3    H136745   4.067   0.573   7.168
 5062TIP3    H236746   3.988   0.542   7.294
 5063TIP3   OH236747   0.947   0.361   8.031
 5063TIP3    H136748   0.864   0.404   8.010
 5063TIP3    H236749   0.939   0.339   8.124
 5064TIP3   OH236750   4.037   3.984   6.592
 5064TIP3    H136751   4.014   4.046   6.661
 5064TIP3    H236752   4.129   3.962   6.609
 5065TIP3   OH236753   0.954   6.194   8.741
 5065TIP3    H136754   1.023   6.140   8.780
 5065TIP3    H236755   0.928   6.147   8.662
 5066TIP3   OH236756   6.794   3.665   1.172
 5066TIP3    H136757   0.022   3.754   1.190
 5066TIP3    H236758   6.740   3.642   1.248
 5067TIP3   OH236759   1.252   1.997   8.169
 5067TIP3    H136760   1.300   1.915   8.177
 5067TIP3    H236761   1.191   1.996   8.243
 5068TIP3   OH236762   6.209   5.507   0.210
 5068TIP3    H136763   6.228   5.598   0.233
 5068TIP3    H236764   6.238   5.499   0.119
 5069TIP3   OH236765   3.250   5.443   7.197
 5069TIP3    H136766   3.337   5.430   7.235
 5069TIP3    H236767   3.215   5.355   7.186
 5070TIP3   OH236768   2.858   0.510   1.250
 5070TIP3    H136769   2.775   0.463   1.256
 5070TIP3    H236770   2.883   0.527   1.342
 5071TIP3   OH236771   3.097   5.976   7.087
 5071TIP3    H136772   3.124   6.015   7.004
 5071TIP3    H236773   3.174   5.983   7.143
 5072TIP3   OH236774   1.933   2.525   0.508
 5072TIP3    H136775   2.007   2.574   0.473
 5072TIP3    H236776   1.866   2.529   0.439
 5073TIP3   OH236777   5.731   6.153   0.448
 5073TIP3    H136778   5.790   6.203   0.503
 5073TIP3    H236779   5.700   6.215   0.382
 5074TIP3   OH236780   3.358   6.463   8.128
 5074TIP3    H136781   3.284   6.437   8.182
 5074TIP3    H236782   3.335   6.550   8.096
 5075TIP3   OH236783   2.900   0.935   7.552
 5075TIP3    H136784   2.879   1.024   7.580
 5075TIP3    H236785   2.815   0.895   7.531
 5076TIP3   OH236786   2.525   4.695   1.987
 5076TIP3    H136787   2.612   4.663   2.012
 5076TIP3    H236788   2.517   4.779   2.032
 5077TIP3   OH236789   5.863   0.804   0.086
 5077TIP3    H136790   5.818   0.728   0.121
 5077TIP3    H236791   5.876   0.784   8.854
 5078TIP3   OH236792   4.559   0.855   1.149
 5078TIP3    H136793   4.520   0.878   1.233
 5078TIP3    H236794   4.511   0.908   1.085
 5079TIP3   OH236795   0.396   2.243   6.859
 5079TIP3    H136796   0.491   2.248   6.868
 5079TIP3    H236797   0.364   2.326   6.893
 5080TIP3   OH236798   2.861   3.467   8.474
 5080TIP3    H136799   2.795   3.399   8.460
 5080TIP3    H236800   2.814   3.539   8.515
 5081TIP3   OH236801   0.557   6.786   0.751
 5081TIP3    H136802   0.642   6.782   0.706
 5081TIP3    H236803   0.496   0.017   0.684
 5082TIP3   OH236804   5.882   1.048   6.694
 5082TIP3    H136805   5.950   0.987   6.666
 5082TIP3    H236806   5.829   0.999   6.757
 5083TIP3   OH236807   3.730   4.415   8.858
 5083TIP3    H136808   3.648   4.424   8.809
 5083TIP3    H236809   3.702   4.396   0.087
 5084TIP3   OH236810   6.682   2.231   7.690
 5084TIP3    H136811   6.764   2.197   7.726
 5084TIP3    H236812   6.691   2.219   7.595
 5085TIP3   OH236813   4.629   4.390   0.290
 5085TIP3    H136814   4.679   4.349   0.360
 5085TIP3    H236815   4.575   4.319   0.255
 5086TIP3   OH236816   6.472   5.263   8.043
 5086TIP3    H136817   6.513   5.249   8.128
 5086TIP3    H236818   6.522   5.334   8.003
 5087TIP3   OH236819   2.671   0.067   0.738
 5087TIP3    H136820   2.699   0.011   0.666
 5087TIP3    H236821   2.583   0.037   0.759
 5088TIP3   OH236822   3.317   3.512   6.733
 5088TIP3    H136823   3.337   3.425   6.698
 5088TIP3    H236824   3.361   3.572   6.673
 5089TIP3   OH236825   0.887   5.521   7.125
 5089TIP3    H136826   0.956   5.587   7.129
 5089TIP3    H236827   0.845   5.535   7.040
 5090TIP3   OH236828   0.356   3.064   0.844
 5090TIP3    H136829   0.384   3.006   0.773
 5090TIP3    H236830   0.326   3.143   0.800
 5091TIP3   OH236831   1.134   2.602   8.421
 5091TIP3    H136832   1.226   2.585   8.444
 5091TIP3    H236833   1.088   2.523   8.450
 5092TIP3   OH236834   2.350   6.084   0.553
 5092TIP3    H136835   2.269   6.135   0.553
 5092TIP3    H236836   2.418   6.147   0.527
 5093TIP3   OH236837   1.251   3.726   1.519
 5093TIP3    H136838   1.332   3.725   1.467
 5093TIP3    H236839   1.235   3.634   1.540
 5094TIP3   OH236840   0.834   6.175   1.300
 5094TIP3    H136841   0.924   6.169   1.330
 5094TIP3    H236842   0.792   6.095   1.333
 5095TIP3   OH236843   0.898   1.770   1.078
 5095TIP3    H136844   0.875   1.685   1.114
 5095TIP3    H236845   0.971   1.752   1.019
 5096TIP3   OH236846   1.123   0.341   7.145
 5096TIP3    H136847   1.161   0.327   7.231
 5096TIP3    H236848   1.078   0.426   7.152
 5097TIP3   OH236849   1.222   2.189   2.086
 5097TIP3    H136850   1.142   2.185   2.034
 5097TIP3    H236851   1.192   2.209   2.175
 5098TIP3   OH236852   1.504   3.720   2.184
 5098TIP3    H136853   1.536   3.649   2.128
 5098TIP3    H236854   1.413   3.698   2.202
 5099TIP3   OH236855   6.485   3.399   0.395
 5099TIP3    H136856   6.470   3.431   0.306
 5099TIP3    H236857   6.398   3.387   0.432
 5100TIP3   OH236858   5.814   1.313   7.623
 5100TIP3    H136859   5.760   1.267   7.687
 5100TIP3    H236860   5.773   1.398   7.612
 5101TIP3   OH236861   0.509   4.169   1.688
 5101TIP3    H136862   0.484   4.169   1.596
 5101TIP3    H236863   0.430   4.142   1.735
 5102TIP3   OH236864   5.216   3.697   2.725
 5102TIP3    H136865   5.168   3.759   2.780
 5102TIP3    H236866   5.264   3.752   2.664
 5103TIP3   OH236867   6.083   5.453   8.633
 5103TIP3    H136868   6.160   5.509   8.622
 5103TIP3    H236869   6.077   5.403   8.551
 5104TIP3   OH236870   6.133   1.447   7.657
 5104TIP3    H136871   6.162   1.501   7.584
 5104TIP3    H236872   6.165   1.493   7.735
 5105TIP3   OH236873   4.073   3.206   6.945
 5105TIP3    H136874   4.055   3.128   6.893
 5105TIP3    H236875   4.094   3.173   7.032
 5106TIP3   OH236876   0.822   4.833   0.421
 5106TIP3    H136877   0.852   4.842   0.512
 5106TIP3    H236878   0.846   4.916   0.379
 5107TIP3   OH236879   6.073   3.050   0.464
 5107TIP3    H136880   6.127   2.983   0.421
 5107TIP3    H236881   6.127   3.129   0.461
 5108TIP3   OH236882   2.092   0.007   8.488
 5108TIP3    H136883   2.094   6.724   8.535
 5108TIP3    H236884   2.016   0.000   8.430
 5109TIP3   OH236885   6.266   1.707   2.031
 5109TIP3    H136886   6.299   1.788   1.993
 5109TIP3    H236887   6.182   1.732   2.070
 5110TIP3   OH236888   0.627   5.400   1.189
 5110TIP3    H136889   0.542   5.409   1.231
 5110TIP3    H236890   0.690   5.402   1.262
 5111TIP3   OH236891   2.631   6.504   1.262
 5111TIP3    H136892   2.725   6.511   1.241
 5111TIP3    H236893   2.628   6.452   1.342
 5112TIP3   OH236894   0.533   1.885   7.184
 5112TIP3    H136895   0.591   1.812   7.205
 5112TIP3    H236896   0.515   1.875   7.091
 5113TIP3   OH236897   4.106   4.132   0.846
 5113TIP3    H136898   4.109   4.054   0.791
 5113TIP3    H236899   4.066   4.199   0.790
 5114TIP3   OH236900   5.737   4.819   1.711
 5114TIP3    H136901   5.660   4.816   1.767
 5114TIP3    H236902   5.747   4.911   1.689
 5115TIP3   OH236903   6.756   2.388   8.223
 5115TIP3    H136904   6.772   2.465   8.168
 5115TIP3    H236905   0.008   2.402   8.301
 5116TIP3   OH236906   6.424   1.299   7.996
 5116TIP3    H136907   6.472   1.219   8.018
 5116TIP3    H236908   6.451   1.362   8.062
 5117TIP3   OH236909   0.807   2.734   8.633
 5117TIP3    H136910   0.788   2.827   8.626
 5117TIP3    H236911   0.854   2.712   8.553
 5118TIP3   OH236912   4.666   6.125   1.467
 5118TIP3    H136913   4.708   6.114   1.553
 5118TIP3    H236914   4.695   6.211   1.437
 5119TIP3   OH236915   3.382   3.051   0.926
 5119TIP3    H136916   3.346   2.967   0.954
 5119TIP3    H236917   3.432   3.082   1.002
 5120TIP3   OH236918   4.133   3.925   8.345
 5120TIP3    H136919   4.080   3.934   8.267
 5120TIP3    H236920   4.188   3.848   8.329
 5121TIP3   OH236921   4.878   0.833   0.716
 5121TIP3    H136922   4.954   0.880   0.750
 5121TIP3    H236923   4.815   0.834   0.788
 5122TIP3   OH236924   2.667   0.714   2.333
 5122TIP3    H136925   2.718   0.641   2.367
 5122TIP3    H236926   2.730   0.768   2.286
 5123TIP3   OH236927   1.787   5.445   1.207
 5123TIP3    H136928   1.719   5.512   1.212
 5123TIP3    H236929   1.740   5.363   1.193
 5124TIP3   OH236930   4.924   4.096   6.963
 5124TIP3    H136931   4.850   4.117   6.906
 5124TIP3    H236932   4.967   4.180   6.979
 5125TIP3   OH236933   6.278   0.156   2.196
 5125TIP3    H136934   6.248   0.093   2.262
 5125TIP3    H236935   6.279   0.106   2.114
 5126TIP3   OH236936   4.869   1.444   1.520
 5126TIP3    H136937   4.881   1.516   1.581
 5126TIP3    H236938   4.847   1.485   1.437
 5127TIP3   OH236939   0.691   4.744   7.528
 5127TIP3    H136940   0.724   4.668   7.479
 5127TIP3    H236941   0.769   4.793   7.552
 5128TIP3   OH236942   1.851   4.419   2.583
 5128TIP3    H136943   1.879   4.490   2.641
 5128TIP3    H236944   1.892   4.439   2.499
 5129TIP3   OH236945   5.093   5.685   8.720
 5129TIP3    H136946   5.094   5.593   8.748
 5129TIP3    H236947   5.074   5.734   8.801
 5130TIP3   OH236948   4.012   3.938   0.147
 5130TIP3    H136949   4.097   3.904   0.122
 5130TIP3    H236950   3.972   3.867   0.199
 5131TIP3   OH236951   0.523   0.503   7.290
 5131TIP3    H136952   0.585   0.461   7.230
 5131TIP3    H236953   0.571   0.510   7.372
 5132TIP3   OH236954   2.376   4.383   1.440
 5132TIP3    H136955   2.347   4.390   1.531
 5132TIP3    H236956   2.314   4.322   1.400
 5133TIP3   OH236957   5.374   4.272   1.150
 5133TIP3    H136958   5.441   4.225   1.199
 5133TIP3    H236959   5.295   4.264   1.204
 5134TIP3   OH236960   3.051   3.234   6.085
 5134TIP3    H136961   3.031   3.143   6.107
 5134TIP3    H236962   3.043   3.281   6.168
 5135TIP3   OH236963   5.109   2.079   0.180
 5135TIP3    H136964   5.178   2.016   0.200
 5135TIP3    H236965   5.129   2.155   0.235
 5136TIP3   OH236966   1.423   4.213   1.218
 5136TIP3    H136967   1.506   4.188   1.176
 5136TIP3    H236968   1.377   4.264   1.151
 5137TIP3   OH236969   4.763   0.131   1.980
 5137TIP3    H136970   4.776   0.170   2.067
 5137TIP3    H236971   4.678   0.088   1.985
 5138TIP3   OH236972   0.240   3.321   7.351
 5138TIP3    H136973   0.277   3.401   7.388
 5138TIP3    H236974   0.145   3.332   7.361
 5139TIP3   OH236975   3.004   2.950   1.103
 5139TIP3    H136976   2.917   2.982   1.127
 5139TIP3    H236977   3.063   3.021   1.127
 5140TIP3   OH236978   1.349   4.635   2.164
 5140TIP3    H136979   1.433   4.594   2.185
 5140TIP3    H236980   1.308   4.651   2.248
 5141TIP3   OH236981   3.574   0.335   8.558
 5141TIP3    H136982   3.508   0.377   8.503
 5141TIP3    H236983   3.529   0.320   8.642
 5142TIP3   OH236984   5.070   1.119   1.977
 5142TIP3    H136985   4.987   1.144   2.017
 5142TIP3    H236986   5.121   1.200   1.973
 5143TIP3   OH236987   5.300   2.363   7.625
 5143TIP3    H136988   5.379   2.322   7.660
 5143TIP3    H236989   5.268   2.419   7.696
 5144TIP3   OH236990   2.907   6.777   0.908
 5144TIP3    H136991   2.863   0.014   0.831
 5144TIP3    H236992   2.958   0.049   0.944
 5145TIP3   OH236993   3.270   6.128   1.117
 5145TIP3    H136994   3.224   6.044   1.124
 5145TIP3    H236995   3.359   6.104   1.093
 5146TIP3   OH236996   6.794   6.408   8.230
 5146TIP3    H136997   6.729   6.337   8.238
 5146TIP3    H236998   0.041   6.387   8.150
 5147TIP3   OH236999   0.147   3.822   8.328
 5147TIP3    H137000   0.150   3.908   8.285
 5147TIP3    H237001   0.181   3.761   8.262
 5148TIP3   OH237002   2.209   1.644   1.041
 5148TIP3    H137003   2.173   1.580   0.980
 5148TIP3    H237004   2.222   1.723   0.988
 5149TIP3   OH237005   4.020   1.435   1.009
 5149TIP3    H137006   4.051   1.393   1.089
 5149TIP3    H237007   4.010   1.363   0.947
 5150TIP3   OH237008   6.540   4.312   1.582
 5150TIP3    H137009   6.464   4.284   1.634
 5150TIP3    H237010   6.549   4.405   1.600
 5151TIP3   OH237011   6.569   5.359   8.531
 5151TIP3    H137012   6.475   5.347   8.524
 5151TIP3    H237013   6.586   5.365   8.626
 5152TIP3   OH237014   0.141   6.571   7.466
 5152TIP3    H137015   0.204   6.629   7.424
 5152TIP3    H237016   0.072   6.628   7.498
 5153TIP3   OH237017   1.829   0.428   2.507
 5153TIP3    H137018   1.880   0.444   2.428
 5153TIP3    H237019   1.855   0.340   2.535
 5154TIP3   OH237020   1.420   2.343   8.333
 5154TIP3    H137021   1.419   2.280   8.261
 5154TIP3    H237022   1.355   2.310   8.395
 5155TIP3   OH237023   5.601   3.478   0.318
 5155TIP3    H137024   5.687   3.517   0.299
 5155TIP3    H237025   5.598   3.473   0.413
 5156TIP3   OH237026   5.587   0.894   8.546
 5156TIP3    H137027   5.601   0.837   8.471
 5156TIP3    H237028   5.657   0.869   8.608
 5157TIP3   OH237029   4.812   5.617   7.246
 5157TIP3    H137030   4.836   5.652   7.160
 5157TIP3    H237031   4.724   5.583   7.235
 5158TIP3   OH237032   3.995   6.776   1.463
 5158TIP3    H137033   4.010   6.792   1.556
 5158TIP3    H237034   3.992   0.062   1.424
 5159TIP3   OH237035   6.607   0.096   1.074
 5159TIP3    H137036   6.674   0.077   1.009
 5159TIP3    H237037   6.546   0.154   1.029
 5160TIP3   OH237038   2.385   0.941   0.864
 5160TIP3    H137039   2.398   0.898   0.949
 5160TIP3    H237040   2.351   1.027   0.886
 5161TIP3   OH237041   3.551   4.436   0.952
 5161TIP3    H137042   3.563   4.521   0.909
 5161TIP3    H237043   3.554   4.456   1.046
 5162TIP3   OH237044   3.491   6.709   8.765
 5162TIP3    H137045   3.550   6.634   8.776
 5162TIP3    H237046   3.442   6.690   8.685
 5163TIP3   OH237047   4.397   2.450   1.818
 5163TIP3    H137048   4.387   2.542   1.841
 5163TIP3    H237049   4.458   2.450   1.744
 5164TIP3   OH237050   4.471   1.814   7.710
 5164TIP3    H137051   4.375   1.811   7.704
 5164TIP3    H237052   4.500   1.827   7.620
 5165TIP3   OH237053   1.365   2.686   6.093
 5165TIP3    H137054   1.382   2.594   6.069
 5165TIP3    H237055   1.347   2.683   6.186
 5166TIP3   OH237056   1.129   0.440   1.265
 5166TIP3    H137057   1.189   0.492   1.318
 5166TIP3    H237058   1.128   0.484   1.180
 5167TIP3   OH237059   6.644   1.661   7.057
 5167TIP3    H137060   6.585   1.735   7.045
 5167TIP3    H237061   6.602   1.589   7.011
 5168TIP3   OH237062   1.074   4.826   7.446
 5168TIP3    H137063   1.020   4.870   7.512
 5168TIP3    H237064   1.020   4.752   7.417
 5169TIP3   OH237065   2.343   4.106   8.719
 5169TIP3    H137066   2.371   4.136   8.633
 5169TIP3    H237067   2.405   4.036   8.741
 5170TIP3   OH237068   2.559   5.161   1.868
 5170TIP3    H137069   2.565   5.204   1.954
 5170TIP3    H237070   2.515   5.225   1.813
 5171TIP3   OH237071   5.367   3.548   1.412
 5171TIP3    H137072   5.343   3.468   1.365
 5171TIP3    H237073   5.463   3.548   1.412
 5172TIP3   OH237074   6.498   0.621   0.714
 5172TIP3    H137075   6.445   0.696   0.740
 5172TIP3    H237076   6.435   0.557   0.681
 5173TIP3   OH237077   4.556   0.594   2.386
 5173TIP3    H137078   4.639   0.619   2.426
 5173TIP3    H237079   4.490   0.647   2.430
 5174TIP3   OH237080   5.092   0.998   0.522
 5174TIP3    H137081   5.043   0.920   0.499
 5174TIP3    H237082   5.028   1.055   0.565
 5175TIP3   OH237083   1.956   4.365   8.223
 5175TIP3    H137084   1.936   4.450   8.261
 5175TIP3    H237085   2.018   4.324   8.284
 5176TIP3   OH237086   1.705   4.286   6.631
 5176TIP3    H137087   1.622   4.332   6.617
 5176TIP3    H237088   1.768   4.334   6.578
 5177TIP3   OH237089   0.773   1.573   2.638
 5177TIP3    H137090   0.736   1.529   2.714
 5177TIP3    H237091   0.782   1.665   2.664
 5178TIP3   OH237092   3.819   5.507   0.679
 5178TIP3    H137093   3.751   5.464   0.732
 5178TIP3    H237094   3.779   5.516   0.593
 5179TIP3   OH237095   0.652   1.853   8.347
 5179TIP3    H137096   0.697   1.792   8.289
 5179TIP3    H237097   0.559   1.838   8.332
 5180TIP3   OH237098   0.164   4.734   8.159
 5180TIP3    H137099   0.170   4.830   8.152
 5180TIP3    H237100   0.073   4.718   8.183
 5181TIP3   OH237101   4.580   0.984   7.790
 5181TIP3    H137102   4.656   1.030   7.754
 5181TIP3    H237103   4.616   0.922   7.853
 5182TIP3   OH237104   0.535   3.440   8.718
 5182TIP3    H137105   0.568   3.519   8.675
 5182TIP3    H237106   0.592   3.428   8.794
 5183TIP3   OH237107   2.674   4.783   6.871
 5183TIP3    H137108   2.716   4.857   6.917
 5183TIP3    H237109   2.614   4.746   6.936
 5184TIP3   OH237110   5.619   2.446   1.455
 5184TIP3    H137111   5.639   2.509   1.524
 5184TIP3    H237112   5.553   2.388   1.493
 5185TIP3   OH237113   0.582   5.023   7.726
 5185TIP3    H137114   0.536   4.939   7.716
 5185TIP3    H237115   0.514   5.084   7.756
 5186TIP3   OH237116   2.483   3.091   1.531
 5186TIP3    H137117   2.486   3.132   1.445
 5186TIP3    H237118   2.474   3.164   1.592
 5187TIP3   OH237119   0.509   1.949   7.899
 5187TIP3    H137120   0.432   1.916   7.854
 5187TIP3    H237121   0.496   1.925   7.991
 5188TIP3   OH237122   2.463   4.995   0.035
 5188TIP3    H137123   2.535   4.961   8.842
 5188TIP3    H237124   2.487   5.085   0.055
 5189TIP3   OH237125   5.860   1.426   2.306
 5189TIP3    H137126   5.847   1.337   2.340
 5189TIP3    H237127   5.890   1.412   2.216
 5190TIP3   OH237128   5.330   6.321   7.284
 5190TIP3    H137129   5.370   6.296   7.201
 5190TIP3    H237130   5.321   6.416   7.278
 5191TIP3   OH237131   1.293   4.641   1.352
 5191TIP3    H137132   1.365   4.627   1.413
 5191TIP3    H237133   1.230   4.693   1.401
 5192TIP3   OH237134   4.215   0.955   7.021
 5192TIP3    H137135   4.142   1.011   6.994
 5192TIP3    H237136   4.249   0.918   6.940
 5193TIP3   OH237137   2.301   0.867   6.521
 5193TIP3    H137138   2.304   0.787   6.575
 5193TIP3    H237139   2.238   0.924   6.566
 5194TIP3   OH237140   3.256   2.407   8.841
 5194TIP3    H137141   3.258   2.487   0.033
 5194TIP3    H237142   3.332   2.415   8.783
 5195TIP3   OH237143   2.516   2.844   7.234
 5195TIP3    H137144   2.432   2.799   7.221
 5195TIP3    H237145   2.561   2.793   7.301
 5196TIP3   OH237146   0.326   2.451   7.735
 5196TIP3    H137147   0.361   2.362   7.732
 5196TIP3    H237148   0.361   2.488   7.816
 5197TIP3   OH237149   0.838   0.042   8.451
 5197TIP3    H137150   0.869   6.766   8.498
 5197TIP3    H237151   0.855   0.116   8.510
 5198TIP3   OH237152   5.647   2.044   8.034
 5198TIP3    H137153   5.711   1.982   8.069
 5198TIP3    H237154   5.666   2.126   8.079
 5199TIP3   OH237155   0.183   6.727   0.166
 5199TIP3    H137156   0.091   6.724   0.191
 5199TIP3    H237157   0.183   6.712   0.072
 5200TIP3   OH237158   4.560   2.410   1.207
 5200TIP3    H137159   4.636   2.463   1.181
 5200TIP3    H237160   4.597   2.325   1.231
 5201TIP3   OH237161   1.917   4.916   8.856
 5201TIP3    H137162   1.873   4.997   8.828
 5201TIP3    H237163   1.848   4.865   0.037
 5202TIP3   OH237164   4.905   5.203   1.185
 5202TIP3    H137165   4.835   5.137   1.182
 5202TIP3    H237166   4.901   5.246   1.100
 5203TIP3   OH237167   0.799   0.970   0.224
 5203TIP3    H137168   0.834   1.059   0.222
 5203TIP3    H237169   0.870   0.915   0.192
 5204TIP3   OH237170   1.410   3.345   7.341
 5204TIP3    H137171   1.347   3.313   7.405
 5204TIP3    H237172   1.442   3.266   7.297
 5205TIP3   OH237173   1.946   4.101   7.457
 5205TIP3    H137174   2.028   4.083   7.503
 5205TIP3    H237175   1.881   4.049   7.504
 5206TIP3   OH237176   3.257   3.590   7.351
 5206TIP3    H137177   3.308   3.520   7.309
 5206TIP3    H237178   3.247   3.560   7.441
 5207TIP3   OH237179   2.904   2.705   7.592
 5207TIP3    H137180   2.973   2.762   7.558
 5207TIP3    H237181   2.872   2.751   7.670
 5208TIP3   OH237182   1.918   6.730   8.248
 5208TIP3    H137183   1.851   6.701   8.186
 5208TIP3    H237184   2.000   6.698   8.211
 5209TIP3   OH237185   1.803   1.334   7.184
 5209TIP3    H137186   1.732   1.397   7.171
 5209TIP3    H237187   1.834   1.315   7.095
 5210TIP3   OH237188   6.521   3.029   1.678
 5210TIP3    H137189   6.580   2.984   1.739
 5210TIP3    H237190   6.468   2.958   1.640
 5211TIP3   OH237191   1.856   1.272   0.902
 5211TIP3    H137192   1.912   1.350   0.897
 5211TIP3    H237193   1.895   1.212   0.839
 5212TIP3   OH237194   0.283   0.836   1.251
 5212TIP3    H137195   0.253   0.833   1.160
 5212TIP3    H237196   0.358   0.776   1.254
 5213TIP3   OH237197   5.421   2.059   2.012
 5213TIP3    H137198   5.396   2.151   2.019
 5213TIP3    H237199   5.357   2.013   2.066
 5214TIP3   OH237200   0.715   5.021   0.854
 5214TIP3    H137201   0.664   5.071   0.791
 5214TIP3    H237202   0.716   5.075   0.933
 5215TIP3   OH237203   4.191   3.442   7.411
 5215TIP3    H137204   4.287   3.449   7.410
 5215TIP3    H237205   4.161   3.532   7.398
 5216TIP3   OH237206   6.203   1.680   1.245
 5216TIP3    H137207   6.268   1.626   1.291
 5216TIP3    H237208   6.156   1.618   1.189
 5217TIP3   OH237209   4.507   4.197   1.493
 5217TIP3    H137210   4.469   4.120   1.535
 5217TIP3    H237211   4.546   4.246   1.565
 5218TIP3   OH237212   4.357   6.394   1.082
 5218TIP3    H137213   4.321   6.319   1.035
 5218TIP3    H237214   4.452   6.385   1.072
 5219TIP3   OH237215   2.511   1.230   6.776
 5219TIP3    H137216   2.562   1.303   6.742
 5219TIP3    H237217   2.551   1.152   6.738
 5220TIP3   OH237218   5.658   1.374   8.002
 5220TIP3    H137219   5.653   1.469   7.992
 5220TIP3    H237220   5.733   1.360   8.060
 5221TIP3   OH237221   0.701   5.095   8.430
 5221TIP3    H137222   0.619   5.109   8.476
 5221TIP3    H237223   0.677   5.093   8.338
 5222TIP3   OH237224   4.556   0.178   8.501
 5222TIP3    H137225   4.547   0.084   8.513
 5222TIP3    H237226   4.559   0.214   8.590
 5223TIP3   OH237227   1.655   3.213   7.525
 5223TIP3    H137228   1.748   3.190   7.531
 5223TIP3    H237229   1.642   3.235   7.433
 5224TIP3   OH237230   3.915   2.301   8.358
 5224TIP3    H137231   3.883   2.301   8.268
 5224TIP3    H237232   4.000   2.258   8.353
 5225TIP3   OH237233   3.530   3.099   2.582
 5225TIP3    H137234   3.582   3.145   2.648
 5225TIP3    H237235   3.543   3.006   2.602
 5226TIP3   OH237236   4.280   3.544   1.677
 5226TIP3    H137237   4.230   3.582   1.604
 5226TIP3    H237238   4.266   3.450   1.669
 5227TIP3   OH237239   1.210   6.426   8.218
 5227TIP3    H137240   1.121   6.452   8.242
 5227TIP3    H237241   1.241   6.375   8.293
 5228TIP3   OH237242   3.938   6.314   7.889
 5228TIP3    H137243   3.850   6.336   7.857
 5228TIP3    H237244   3.972   6.398   7.921
 5229TIP3   OH237245   4.806   6.015   8.334
 5229TIP3    H137246   4.881   6.074   8.330
 5229TIP3    H237247   4.804   5.986   8.425
 5230TIP3   OH237248   6.531   2.034   8.846
 5230TIP3    H137249   6.468   2.099   0.015
 5230TIP3    H237250   6.595   2.083   8.794
 5231TIP3   OH237251   3.790   1.025   6.548
 5231TIP3    H137252   3.812   1.093   6.485
 5231TIP3    H237253   3.744   0.959   6.496
 5232TIP3   OH237254   6.198   5.872   8.055
 5232TIP3    H137255   6.145   5.812   8.003
 5232TIP3    H237256   6.265   5.904   7.994
 5233TIP3   OH237257   4.339   4.349   8.497
 5233TIP3    H137258   4.309   4.435   8.469
 5233TIP3    H237259   4.263   4.292   8.488
 5234TIP3   OH237260   5.558   0.639   1.850
 5234TIP3    H137261   5.509   0.673   1.924
 5234TIP3    H237262   5.637   0.694   1.846
 5235TIP3   OH237263   4.600   5.223   1.139
 5235TIP3    H137264   4.514   5.264   1.141
 5235TIP3    H237265   4.584   5.133   1.112
 5236TIP3   OH237266   3.058   3.207   7.496
 5236TIP3    H137267   3.111   3.233   7.420
 5236TIP3    H237268   2.969   3.234   7.473
 5237TIP3   OH237269   1.156   5.998   8.778
 5237TIP3    H137270   1.222   6.041   8.833
 5237TIP3    H237271   1.142   5.913   8.820
 5238TIP3   OH237272   5.240   3.332   0.517
 5238TIP3    H137273   5.238   3.240   0.493
 5238TIP3    H237274   5.334   3.355   0.518
 5239TIP3   OH237275   2.228   5.362   0.835
 5239TIP3    H137276   2.168   5.382   0.764
 5239TIP3    H237277   2.186   5.400   0.913
 5240TIP3   OH237278   3.712   0.416   8.213
 5240TIP3    H137279   3.750   0.503   8.202
 5240TIP3    H237280   3.618   0.429   8.200
 5241TIP3   OH237281   0.009   0.322   1.583
 5241TIP3    H137282   0.104   0.315   1.572
 5241TIP3    H237283   6.781   0.378   1.511
 5242TIP3   OH237284   5.244   3.117   7.543
 5242TIP3    H137285   5.234   3.191   7.603
 5242TIP3    H237286   5.202   3.146   7.462
 5243TIP3   OH237287   0.947   6.665   8.604
 5243TIP3    H137288   0.929   6.677   8.697
 5243TIP3    H237289   1.039   6.639   8.599
 5244TIP3   OH237290   4.409   0.059   1.809
 5244TIP3    H137291   4.423   0.072   1.903
 5244TIP3    H237292   4.367   0.139   1.779
 5245TIP3   OH237293   2.864   6.015   1.472
 5245TIP3    H137294   2.909   6.052   1.548
 5245TIP3    H237295   2.933   5.977   1.419
 5246TIP3   OH237296   2.812   2.358   6.986
 5246TIP3    H137297   2.814   2.403   6.901
 5246TIP3    H237298   2.831   2.267   6.965
 5247TIP3   OH237299   4.617   3.617   6.993
 5247TIP3    H137300   4.642   3.555   7.061
 5247TIP3    H237301   4.677   3.691   7.004
 5248TIP3   OH237302   1.845   5.386   7.992
 5248TIP3    H137303   1.842   5.293   8.017
 5248TIP3    H237304   1.757   5.418   8.012
 5249TIP3   OH237305   5.660   4.445   7.604
 5249TIP3    H137306   5.753   4.463   7.613
 5249TIP3    H237307   5.656   4.363   7.554
 5250TIP3   OH237308   5.959   0.408   2.520
 5250TIP3    H137309   6.004   0.417   2.436
 5250TIP3    H237310   5.946   0.314   2.531
 5251TIP3   OH237311   2.789   3.234   8.234
 5251TIP3    H137312   2.837   3.152   8.217
 5251TIP3    H237313   2.830   3.298   8.176
 5252TIP3   OH237314   4.236   6.602   1.742
 5252TIP3    H137315   4.277   6.573   1.660
 5252TIP3    H237316   4.253   6.530   1.803
 5253TIP3   OH237317   1.841   1.121   8.792
 5253TIP3    H137318   1.809   1.088   8.708
 5253TIP3    H237319   1.806   1.209   8.799
 5254TIP3   OH237320   0.873   1.237   6.956
 5254TIP3    H137321   0.884   1.189   7.038
 5254TIP3    H237322   0.801   1.297   6.972
 5255TIP3   OH237323   2.803   6.307   8.175
 5255TIP3    H137324   2.777   6.324   8.085
 5255TIP3    H237325   2.722   6.288   8.221
 5256TIP3   OH237326   5.623   3.039   8.698
 5256TIP3    H137327   5.647   3.130   8.678
 5256TIP3    H237328   5.548   3.021   8.640
 5257TIP3   OH237329   2.692   6.595   0.490
 5257TIP3    H137330   2.734   6.535   0.429
 5257TIP3    H237331   2.763   6.649   0.524
 5258TIP3   OH237332   3.230   2.994   1.313
 5258TIP3    H137333   3.314   2.984   1.268
 5258TIP3    H237334   3.221   2.914   1.366
 5259TIP3   OH237335   6.634   2.079   7.214
 5259TIP3    H137336   6.725   2.103   7.193
 5259TIP3    H237337   6.635   1.984   7.219
 5260TIP3   OH237338   2.478   2.610   1.835
 5260TIP3    H137339   2.529   2.569   1.904
 5260TIP3    H237340   2.406   2.654   1.881
 5261TIP3   OH237341   3.075   2.191   6.736
 5261TIP3    H137342   2.990   2.236   6.729
 5261TIP3    H237343   3.133   2.242   6.680
 5262TIP3   OH237344   4.564   3.441   7.643
 5262TIP3    H137345   4.487   3.388   7.659
 5262TIP3    H237346   4.632   3.404   7.700
 5263TIP3   OH237347   1.172   6.587   0.934
 5263TIP3    H137348   1.120   6.582   0.854
 5263TIP3    H237349   1.185   6.496   0.960
 5264TIP3   OH237350   6.402   3.913   8.000
 5264TIP3    H137351   6.468   3.890   8.065
 5264TIP3    H237352   6.319   3.888   8.040
 5265TIP3   OH237353   6.028   6.507   0.751
 5265TIP3    H137354   5.967   6.444   0.712
 5265TIP3    H237355   6.043   6.474   0.839
 5266TIP3   OH237356   4.732   0.825   0.467
 5266TIP3    H137357   4.792   0.871   0.526
 5266TIP3    H237358   4.787   0.766   0.417
 5267TIP3   OH237359   6.582   2.676   0.768
 5267TIP3    H137360   6.571   2.702   0.676
 5267TIP3    H237361   6.572   2.757   0.817
 5268TIP3   OH237362   6.372   2.214   6.175
 5268TIP3    H137363   6.277   2.209   6.188
 5268TIP3    H237364   6.387   2.167   6.093
 5269TIP3   OH237365   5.003   5.934   8.099
 5269TIP3    H137366   4.919   5.926   8.054
 5269TIP3    H237367   4.999   5.872   8.172
 5270TIP3   OH237368   1.885   2.387   7.228
 5270TIP3    H137369   1.898   2.294   7.211
 5270TIP3    H237370   1.823   2.415   7.161
 5271TIP3   OH237371   2.142   2.180   0.993
 5271TIP3    H137372   2.067   2.199   0.937
 5271TIP3    H237373   2.113   2.110   1.050
 5272TIP3   OH237374   2.898   1.891   1.373
 5272TIP3    H137375   2.820   1.888   1.428
 5272TIP3    H237376   2.886   1.818   1.312
 5273TIP3   OH237377   5.348   1.439   7.406
 5273TIP3    H137378   5.372   1.466   7.495
 5273TIP3    H237379   5.365   1.345   7.405
 5274TIP3   OH237380   2.725   3.798   7.764
 5274TIP3    H137381   2.781   3.776   7.839
 5274TIP3    H237382   2.724   3.719   7.710
 5275TIP3   OH237383   6.367   4.569   1.929
 5275TIP3    H137384   6.353   4.658   1.964
 5275TIP3    H237385   6.281   4.528   1.936
 5276TIP3   OH237386   5.969   2.040   0.590
 5276TIP3    H137387   5.914   2.093   0.648
 5276TIP3    H237388   6.041   2.098   0.565
 5277TIP3   OH237389   0.757   4.758   1.673
 5277TIP3    H137390   0.784   4.688   1.613
 5277TIP3    H237391   0.672   4.729   1.707
 5278TIP3   OH237392   0.698   3.431   8.146
 5278TIP3    H137393   0.743   3.347   8.139
 5278TIP3    H237394   0.611   3.414   8.109
 5279TIP3   OH237395   4.497   4.447   0.781
 5279TIP3    H137396   4.444   4.443   0.861
 5279TIP3    H237397   4.433   4.450   0.710
 5280TIP3   OH237398   0.868   5.517   8.305
 5280TIP3    H137399   0.850   5.456   8.377
 5280TIP3    H237400   0.824   5.478   8.229
 5281TIP3   OH237401   1.586   6.594   0.209
 5281TIP3    H137402   1.529   6.517   0.206
 5281TIP3    H237403   1.543   6.654   0.270
 5282TIP3   OH237404   0.170   3.928   0.955
 5282TIP3    H137405   0.193   3.839   0.930
 5282TIP3    H237406   0.080   3.921   0.988
 5283TIP3   OH237407   2.293   0.171   2.184
 5283TIP3    H137408   2.341   0.173   2.102
 5283TIP3    H237409   2.202   0.184   2.159
 5284TIP3   OH237410   6.193   0.404   7.695
 5284TIP3    H137411   6.158   0.333   7.749
 5284TIP3    H237412   6.244   0.361   7.628
 5285TIP3   OH237413   6.127   1.694   0.539
 5285TIP3    H137414   6.198   1.630   0.544
 5285TIP3    H237415   6.052   1.645   0.504
 5286TIP3   OH237416   4.712   1.137   7.080
 5286TIP3    H137417   4.667   1.102   7.003
 5286TIP3    H237418   4.738   1.059   7.130
 5287TIP3   OH237419   3.157   6.046   0.490
 5287TIP3    H137420   3.213   6.007   0.557
 5287TIP3    H237421   3.093   6.098   0.538
 5288TIP3   OH237422   6.336   6.150   1.197
 5288TIP3    H137423   6.335   6.124   1.289
 5288TIP3    H237424   6.385   6.232   1.195
 5289TIP3   OH237425   4.371   2.569   0.659
 5289TIP3    H137426   4.384   2.634   0.590
 5289TIP3    H237427   4.340   2.619   0.734
 5290TIP3   OH237428   6.279   4.515   7.656
 5290TIP3    H137429   6.187   4.497   7.674
 5290TIP3    H237430   6.306   4.575   7.726
 5291TIP3   OH237431   4.599   0.378   1.201
 5291TIP3    H137432   4.651   0.327   1.263
 5291TIP3    H237433   4.558   0.447   1.254
 5292TIP3   OH237434   1.881   6.018   2.300
 5292TIP3    H137435   1.821   6.076   2.255
 5292TIP3    H237436   1.840   6.003   2.386
 5293TIP3   OH237437   6.045   6.243   0.510
 5293TIP3    H137438   6.059   6.166   0.565
 5293TIP3    H237439   5.970   6.287   0.551
 5294TIP3   OH237440   2.667   3.453   1.259
 5294TIP3    H137441   2.756   3.418   1.253
 5294TIP3    H237442   2.618   3.406   1.191
 5295TIP3   OH237443   1.102   5.414   0.187
 5295TIP3    H137444   1.098   5.340   0.248
 5295TIP3    H237445   1.014   5.449   0.188
 5296TIP3   OH237446   4.532   1.364   0.556
 5296TIP3    H137447   4.532   1.280   0.510
 5296TIP3    H237448   4.447   1.402   0.537
 5297TIP3   OH237449   0.343   0.184   1.704
 5297TIP3    H137450   0.352   0.274   1.735
 5297TIP3    H237451   0.370   0.187   1.613
 5298TIP3   OH237452   4.314   1.083   1.274
 5298TIP3    H137453   4.326   1.085   1.369
 5298TIP3    H237454   4.261   1.005   1.258
 5299TIP3   OH237455   1.743   2.096   0.924
 5299TIP3    H137456   1.668   2.059   0.876
 5299TIP3    H237457   1.711   2.106   1.014
 5300TIP3   OH237458   0.903   4.526   1.682
 5300TIP3    H137459   0.946   4.460   1.627
 5300TIP3    H237460   0.973   4.585   1.707
 5301TIP3   OH237461   0.878   1.388   8.594
 5301TIP3    H137462   0.919   1.302   8.588
 5301TIP3    H237463   0.948   1.450   8.575
 5302TIP3   OH237464   5.842   5.517   8.783
 5302TIP3    H137465   5.855   5.587   8.847
 5302TIP3    H237466   5.930   5.497   8.750
 5303TIP3   OH237467   0.820   1.040   0.883
 5303TIP3    H137468   0.734   1.020   0.847
 5303TIP3    H237469   0.880   0.983   0.835
 5304TIP3   OH237470   2.176   4.236   7.929
 5304TIP3    H137471   2.251   4.260   7.874
 5304TIP3    H237472   2.201   4.264   8.017
 5305TIP3   OH237473   1.373   1.617   8.094
 5305TIP3    H137474   1.391   1.687   8.158
 5305TIP3    H237475   1.363   1.538   8.148
 5306TIP3   OH237476   2.357   5.032   8.381
 5306TIP3    H137477   2.434   4.993   8.339
 5306TIP3    H237478   2.374   5.126   8.378
 5307TIP3   OH237479   3.149   0.880   8.435
 5307TIP3    H137480   3.061   0.846   8.419
 5307TIP3    H237481   3.135   0.969   8.467
 5308TIP3   OH237482   3.192   6.027   6.825
 5308TIP3    H137483   3.232   6.109   6.798
 5308TIP3    H237484   3.105   6.029   6.786
 5309TIP3   OH237485   3.325   1.304   0.014
 5309TIP3    H137486   3.351   1.396   0.016
 5309TIP3    H237487   3.387   1.261   0.073
 5310TIP3   OH237488   5.484   1.032   1.845
 5310TIP3    H137489   5.557   0.976   1.870
 5310TIP3    H237490   5.496   1.048   1.752
 5311TIP3   OH237491   1.293   1.920   1.140
 5311TIP3    H137492   1.204   1.896   1.166
 5311TIP3    H237493   1.349   1.856   1.183
 5312TIP3   OH237494   3.007   3.711   6.842
 5312TIP3    H137495   2.987   3.685   6.932
 5312TIP3    H237496   2.992   3.806   6.841
 5313TIP3   OH237497   6.709   5.165   0.514
 5313TIP3    H137498   6.765   5.198   0.443
 5313TIP3    H237499   6.688   5.076   0.487
 5314TIP3   OH237500   1.887   2.482   7.678
 5314TIP3    H137501   1.892   2.576   7.695
 5314TIP3    H237502   1.930   2.442   7.754
 5315TIP3   OH237503   4.566   5.634   7.139
 5315TIP3    H137504   4.517   5.572   7.085
 5315TIP3    H237505   4.617   5.685   7.076
 5316TIP3   OH237506   3.961   4.837   7.102
 5316TIP3    H137507   3.998   4.843   7.014
 5316TIP3    H237508   3.867   4.826   7.088
 5317TIP3   OH237509   3.496   5.211   7.619
 5317TIP3    H137510   3.505   5.125   7.660
 5317TIP3    H237511   3.405   5.215   7.590
 5318TIP3   OH237512   1.528   5.955   1.415
 5318TIP3    H137513   1.433   5.968   1.414
 5318TIP3    H237514   1.561   6.020   1.477
 5319TIP3   OH237515   2.943   4.257   7.970
 5319TIP3    H137516   2.868   4.205   7.941
 5319TIP3    H237517   3.017   4.222   7.920
 5320TIP3   OH237518   4.070   2.114   0.620
 5320TIP3    H137519   4.097   2.206   0.618
 5320TIP3    H237520   3.976   2.116   0.607
 5321TIP3   OH237521   2.454   4.026   0.864
 5321TIP3    H137522   2.471   3.987   0.949
 5321TIP3    H237523   2.409   4.108   0.884
 5322TIP3   OH237524   5.886   3.316   0.008
 5322TIP3    H137525   5.885   3.392   0.066
 5322TIP3    H237526   5.950   3.339   8.801
 5323TIP3   OH237527   2.725   5.052   8.540
 5323TIP3    H137528   2.786   5.072   8.469
 5323TIP3    H237529   2.717   5.135   8.588
 5324TIP3   OH237530   0.118   2.065   7.146
 5324TIP3    H137531   0.079   2.068   7.059
 5324TIP3    H237532   0.166   2.148   7.154
 5325TIP3   OH237533   6.234   3.275   7.266
 5325TIP3    H137534   6.170   3.206   7.285
 5325TIP3    H237535   6.257   3.310   7.353
 5326TIP3   OH237536   3.665   6.146   0.568
 5326TIP3    H137537   3.570   6.151   0.555
 5326TIP3    H237538   3.681   6.055   0.591
 5327TIP3   OH237539   1.458   1.659   8.506
 5327TIP3    H137540   1.551   1.681   8.505
 5327TIP3    H237541   1.450   1.589   8.571
 5328TIP3   OH237542   3.090   5.239   1.153
 5328TIP3    H137543   3.094   5.143   1.152
 5328TIP3    H237544   3.179   5.266   1.174
 5329TIP3   OH237545   6.016   1.872   2.113
 5329TIP3    H137546   5.991   1.900   2.201
 5329TIP3    H237547   5.987   1.944   2.056
 5330TIP3   OH237548   4.882   6.223   7.964
 5330TIP3    H137549   4.807   6.190   7.914
 5330TIP3    H237550   4.950   6.157   7.951
 5331TIP3   OH237551   3.422   5.889   1.195
 5331TIP3    H137552   3.361   5.820   1.220
 5331TIP3    H237553   3.508   5.846   1.191
 5332TIP3   OH237554   4.698   4.653   7.555
 5332TIP3    H137555   4.758   4.579   7.561
 5332TIP3    H237556   4.667   4.652   7.464
 5333TIP3   OH237557   0.664   3.293   6.170
 5333TIP3    H137558   0.713   3.374   6.186
 5333TIP3    H237559   0.678   3.240   6.248
 5334TIP3   OH237560   6.526   0.851   8.191
 5334TIP3    H137561   6.525   0.909   8.267
 5334TIP3    H237562   6.566   0.770   8.224
 5335TIP3   OH237563   1.954   6.597   1.388
 5335TIP3    H137564   1.904   6.610   1.308
 5335TIP3    H237565   1.994   6.510   1.378
 5336TIP3   OH237566   4.427   4.756   1.570
 5336TIP3    H137567   4.459   4.834   1.525
 5336TIP3    H237568   4.497   4.692   1.558
 5337TIP3   OH237569   4.504   2.262   8.636
 5337TIP3    H137570   4.514   2.349   8.598
 5337TIP3    H237571   4.430   2.223   8.588
 5338TIP3   OH237572   0.019   3.080   0.785
 5338TIP3    H137573   0.066   3.029   0.851
 5338TIP3    H237574   0.084   3.139   0.748
 5339TIP3   OH237575   3.337   0.767   6.478
 5339TIP3    H137576   3.409   0.704   6.485
 5339TIP3    H237577   3.344   0.803   6.390
 5340TIP3   OH237578   0.319   3.207   0.090
 5340TIP3    H137579   0.321   3.155   0.170
 5340TIP3    H237580   0.374   3.283   0.109
 5341TIP3   OH237581   0.245   1.698   1.044
 5341TIP3    H137582   0.251   1.604   1.058
 5341TIP3    H237583   0.224   1.708   0.952
 5342TIP3   OH237584   2.673   1.222   7.319
 5342TIP3    H137585   2.669   1.173   7.237
 5342TIP3    H237586   2.766   1.246   7.328
 5343TIP3   OH237587   0.223   1.410   1.111
 5343TIP3    H137588   0.178   1.327   1.097
 5343TIP3    H237589   0.192   1.441   1.196
 5344TIP3   OH237590   2.938   4.685   0.087
 5344TIP3    H137591   3.015   4.684   0.145
 5344TIP3    H237592   2.941   4.770   0.044
 5345TIP3   OH237593   6.642   2.414   7.421
 5345TIP3    H137594   6.599   2.461   7.349
 5345TIP3    H237595   6.640   2.476   7.494
 5346TIP3   OH237596   4.982   6.795   8.380
 5346TIP3    H137597   4.900   6.753   8.406
 5346TIP3    H237598   4.959   0.049   8.305
 5347TIP3   OH237599   4.273   4.542   2.496
 5347TIP3    H137600   4.342   4.488   2.534
 5347TIP3    H237601   4.312   4.629   2.488
 5348TIP3   OH237602   5.699   2.425   0.799
 5348TIP3    H137603   5.764   2.444   0.868
 5348TIP3    H237604   5.713   2.493   0.733
 5349TIP3   OH237605   0.698   3.917   0.762
 5349TIP3    H137606   0.729   3.834   0.798
 5349TIP3    H237607   0.742   3.984   0.816
 5350TIP3   OH237608   1.987   6.321   1.708
 5350TIP3    H137609   1.927   6.288   1.642
 5350TIP3    H237610   2.023   6.242   1.750
 5351TIP3   OH237611   1.014   3.773   8.080
 5351TIP3    H137612   1.032   3.859   8.118
 5351TIP3    H237613   1.061   3.773   7.997
 5352TIP3   OH237614   3.729   2.384   0.266
 5352TIP3    H137615   3.674   2.313   0.233
 5352TIP3    H237616   3.778   2.414   0.189
 5353TIP3   OH237617   4.899   4.229   0.567
 5353TIP3    H137618   4.928   4.201   0.481
 5353TIP3    H237619   4.806   4.250   0.556
 5354TIP3   OH237620   3.859   0.564   0.966
 5354TIP3    H137621   3.928   0.592   0.906
 5354TIP3    H237622   3.780   0.605   0.932
 5355TIP3   OH237623   4.285   1.605   0.595
 5355TIP3    H137624   4.227   1.677   0.620
 5355TIP3    H237625   4.309   1.564   0.678
 5356TIP3   OH237626   4.149   3.535   2.322
 5356TIP3    H137627   4.186   3.618   2.290
 5356TIP3    H237628   4.125   3.553   2.413
 5357TIP3   OH237629   6.109   5.441   1.104
 5357TIP3    H137630   6.155   5.358   1.113
 5357TIP3    H237631   6.021   5.416   1.073
 5358TIP3   OH237632   2.302   0.759   8.079
 5358TIP3    H137633   2.259   0.800   8.154
 5358TIP3    H237634   2.276   0.667   8.084
 5359TIP3   OH237635   6.530   0.348   0.402
 5359TIP3    H137636   6.466   0.278   0.398
 5359TIP3    H237637   6.488   0.417   0.453
 5360TIP3   OH237638   6.382   5.116   0.336
 5360TIP3    H137639   6.456   5.168   0.307
 5360TIP3    H237640   6.351   5.160   0.415
 5361TIP3   OH237641   5.639   6.690   1.617
 5361TIP3    H137642   5.692   6.672   1.695
 5361TIP3    H237643   5.681   6.640   1.547
 5362TIP3   OH237644   0.885   4.153   8.743
 5362TIP3    H137645   0.814   4.101   8.781
 5362TIP3    H237646   0.841   4.221   8.692
 5363TIP3   OH237647   5.924   2.097   2.018
 5363TIP3    H137648   5.905   2.188   2.041
 5363TIP3    H237649   5.842   2.065   1.980
 5364TIP3   OH237650   5.644   1.137   8.410
 5364TIP3    H137651   5.569   1.183   8.447
 5364TIP3    H237652   5.645   1.052   8.454
 5365TIP3   OH237653   2.768   0.790   6.315
 5365TIP3    H137654   2.762   0.776   6.220
 5365TIP3    H237655   2.848   0.842   6.326
 5366TIP3   OH237656   0.527   4.270   8.504
 5366TIP3    H137657   0.596   4.208   8.480
 5366TIP3    H237658   0.450   4.240   8.456
 5367TIP3   OH237659   4.756   5.110   6.967
 5367TIP3    H137660   4.759   5.141   6.876
 5367TIP3    H237661   4.812   5.032   6.967
 5368TIP3   OH237662   5.543   3.253   1.664
 5368TIP3    H137663   5.600   3.177   1.663
 5368TIP3    H237664   5.567   3.302   1.585
 5369TIP3   OH237665   4.467   0.795   0.259
 5369TIP3    H137666   4.535   0.840   0.210
 5369TIP3    H237667   4.505   0.779   0.345
 5370TIP3   OH237668   1.282   0.255   8.281
 5370TIP3    H137669   1.334   0.325   8.322
 5370TIP3    H237670   1.336   0.224   8.208
 5371TIP3   OH237671   1.913   4.276   0.209
 5371TIP3    H137672   1.887   4.188   0.235
 5371TIP3    H237673   2.002   4.286   0.243
 5372TIP3   OH237674   6.342   2.891   1.281
 5372TIP3    H137675   6.361   2.797   1.274
 5372TIP3    H237676   6.259   2.895   1.329
 5373TIP3   OH237677   2.925   4.076   0.399
 5373TIP3    H137678   2.829   4.075   0.406
 5373TIP3    H237679   2.955   4.090   0.489
 5374TIP3   OH237680   1.824   6.581   7.605
 5374TIP3    H137681   1.912   6.563   7.638
 5374TIP3    H237682   1.822   6.537   7.519
 5375TIP3   OH237683   0.854   0.955   7.612
 5375TIP3    H137684   0.820   1.045   7.608
 5375TIP3    H237685   0.789   0.906   7.661
 5376TIP3   OH237686   3.553   4.976   0.118
 5376TIP3    H137687   3.553   4.881   0.109
 5376TIP3    H237688   3.580   5.008   0.032
 5377TIP3   OH237689   1.303   6.590   0.073
 5377TIP3    H137690   1.355   6.513   0.099
 5377TIP3    H237691   1.230   6.554   0.023
 5378TIP3   OH237692   1.555   5.547   7.596
 5378TIP3    H137693   1.484   5.490   7.623
 5378TIP3    H237694   1.556   5.617   7.662
 5379TIP3   OH237695   5.631   3.910   7.574
 5379TIP3    H137696   5.606   3.995   7.609
 5379TIP3    H237697   5.552   3.877   7.531
 5380TIP3   OH237698   2.299   3.799   0.593
 5380TIP3    H137699   2.325   3.864   0.527
 5380TIP3    H237700   2.382   3.776   0.636
 5381TIP3   OH237701   1.117   0.217   0.223
 5381TIP3    H137702   1.141   0.277   0.152
 5381TIP3    H237703   1.105   0.274   0.299
 5382TIP3   OH237704   6.521   3.432   8.076
 5382TIP3    H137705   6.539   3.359   8.016
 5382TIP3    H237706   6.515   3.508   8.019
 5383TIP3   OH237707   0.009   5.271   0.073
 5383TIP3    H137708   6.748   5.212   0.117
 5383TIP3    H237709   6.756   5.342   0.039
 5384TIP3   OH237710   3.922   4.924   6.437
 5384TIP3    H137711   3.880   4.939   6.521
 5384TIP3    H237712   3.888   4.839   6.408
 5385TIP3   OH237713   1.703   1.208   7.460
 5385TIP3    H137714   1.684   1.301   7.449
 5385TIP3    H237715   1.700   1.172   7.371
 5386TIP3   OH237716   5.549   5.897   7.763
 5386TIP3    H137717   5.631   5.944   7.746
 5386TIP3    H237718   5.481   5.953   7.726
 5387TIP3   OH237719   5.494   4.926   8.457
 5387TIP3    H137720   5.458   4.986   8.393
 5387TIP3    H237721   5.529   4.982   8.526
 5388TIP3   OH237722   2.953   3.421   8.799
 5388TIP3    H137723   2.987   3.507   8.774
 5388TIP3    H237724   3.005   3.396   0.016
 5389TIP3   OH237725   4.244   2.934   1.104
 5389TIP3    H137726   4.173   2.919   1.166
 5389TIP3    H237727   4.272   3.024   1.120
 5390TIP3   OH237728   5.532   5.207   1.566
 5390TIP3    H137729   5.522   5.189   1.659
 5390TIP3    H237730   5.591   5.282   1.562
 5391TIP3   OH237731   0.713   1.069   8.374
 5391TIP3    H137732   0.678   1.158   8.378
 5391TIP3    H237733   0.643   1.013   8.408
 5392TIP3   OH237734   4.110   3.349   1.089
 5392TIP3    H137735   4.101   3.436   1.050
 5392TIP3    H237736   4.203   3.342   1.111
 5393TIP3   OH237737   0.479   3.321   8.047
 5393TIP3    H137738   0.402   3.354   8.001
 5393TIP3    H237739   0.529   3.275   7.980
 5394TIP3   OH237740   4.685   0.398   8.387
 5394TIP3    H137741   4.672   0.471   8.448
 5394TIP3    H237742   4.675   0.320   8.441
 5395TIP3   OH237743   5.387   5.942   1.314
 5395TIP3    H137744   5.391   5.971   1.405
 5395TIP3    H237745   5.295   5.952   1.290
 5396TIP3   OH237746   1.706   2.181   8.024
 5396TIP3    H137747   1.703   2.241   8.098
 5396TIP3    H237748   1.797   2.151   8.022
 5397TIP3   OH237749   6.162   6.509   0.495
 5397TIP3    H137750   6.120   6.425   0.479
 5397TIP3    H237751   6.163   6.517   0.590
 5398TIP3   OH237752   2.546   6.223   8.296
 5398TIP3    H137753   2.457   6.251   8.274
 5398TIP3    H237754   2.542   6.127   8.296
 5399TIP3   OH237755   3.421   1.110   0.675
 5399TIP3    H137756   3.514   1.096   0.659
 5399TIP3    H237757   3.418   1.157   0.759
 5400TIP3   OH237758   2.984   5.735   2.123
 5400TIP3    H137759   2.966   5.655   2.172
 5400TIP3    H237760   2.900   5.781   2.119
 5401TIP3   OH237761   0.605   0.666   0.747
 5401TIP3    H137762   0.700   0.655   0.754
 5401TIP3    H237763   0.591   0.702   0.660
 5402TIP3   OH237764   0.131   0.328   0.100
 5402TIP3    H137765   0.129   0.333   0.005
 5402TIP3    H237766   0.219   0.356   0.125
 5403TIP3   OH237767   0.959   3.901   0.588
 5403TIP3    H137768   0.922   3.813   0.586
 5403TIP3    H237769   0.883   3.959   0.594
 5404TIP3   OH237770   0.848   3.529   7.605
 5404TIP3    H137771   0.847   3.465   7.534
 5404TIP3    H237772   0.846   3.614   7.560
 5405TIP3   OH237773   4.222   0.016   8.497
 5405TIP3    H137774   4.198   6.728   8.470
 5405TIP3    H237775   4.178   0.027   8.582
 5406TIP3   OH237776   4.284   1.093   2.013
 5406TIP3    H137777   4.349   1.077   2.082
 5406TIP3    H237778   4.200   1.091   2.058
 5407TIP3   OH237779   6.072   4.138   7.576
 5407TIP3    H137780   6.166   4.123   7.589
 5407TIP3    H237781   6.040   4.164   7.663
 5408TIP3   OH237782   1.014   4.723   8.735
 5408TIP3    H137783   1.033   4.633   8.708
 5408TIP3    H237784   1.099   4.766   8.737
 5409TIP3   OH237785   4.596   1.949   7.086
 5409TIP3    H137786   4.547   1.940   7.004
 5409TIP3    H237787   4.687   1.931   7.063
 5410TIP3   OH237788   5.471   3.888   0.268
 5410TIP3    H137789   5.479   3.835   0.347
 5410TIP3    H237790   5.477   3.978   0.298
 5411TIP3   OH237791   3.211   6.257   8.734
 5411TIP3    H137792   3.290   6.288   8.777
 5411TIP3    H237793   3.142   6.266   8.800
 5412TIP3   OH237794   3.231   2.332   2.610
 5412TIP3    H137795   3.304   2.271   2.615
 5412TIP3    H237796   3.244   2.380   2.529
 5413TIP3   OH237797   6.057   4.219   7.036
 5413TIP3    H137798   6.051   4.297   6.982
 5413TIP3    H237799   6.008   4.241   7.116
 5414TIP3   OH237800   6.407   3.172   6.736
 5414TIP3    H137801   6.375   3.226   6.664
 5414TIP3    H237802   6.365   3.087   6.723
 5415TIP3   OH237803   1.715   3.051   6.943
 5415TIP3    H137804   1.679   3.059   6.854
 5415TIP3    H237805   1.810   3.057   6.931
 5416TIP3   OH237806   5.480   4.624   1.275
 5416TIP3    H137807   5.512   4.712   1.295
 5416TIP3    H237808   5.546   4.566   1.312
 5417TIP3   OH237809   1.281   2.568   6.583
 5417TIP3    H137810   1.309   2.602   6.668
 5417TIP3    H237811   1.272   2.474   6.597
 5418TIP3   OH237812   1.818   1.141   1.535
 5418TIP3    H137813   1.861   1.061   1.567
 5418TIP3    H237814   1.762   1.168   1.607
 5419TIP3   OH237815   3.762   6.041   8.533
 5419TIP3    H137816   3.849   6.025   8.497
 5419TIP3    H237817   3.702   5.997   8.473
 5420TIP3   OH237818   3.989   3.884   0.716
 5420TIP3    H137819   3.903   3.926   0.723
 5420TIP3    H237820   4.011   3.889   0.623
 5421TIP3   OH237821   4.125   1.681   8.301
 5421TIP3    H137822   4.165   1.710   8.219
 5421TIP3    H237823   4.196   1.683   8.365
 5422TIP3   OH237824   4.240   3.661   8.312
 5422TIP3    H137825   4.328   3.628   8.296
 5422TIP3    H237826   4.182   3.599   8.268
 5423TIP3   OH237827   1.866   0.215   0.596
 5423TIP3    H137828   1.944   0.271   0.606
 5423TIP3    H237829   1.819   0.225   0.679
 5424TIP3   OH237830   0.926   4.603   0.554
 5424TIP3    H137831   0.919   4.671   0.487
 5424TIP3    H237832   0.877   4.529   0.518
 5425TIP3   OH237833   0.778   2.449   0.470
 5425TIP3    H137834   0.781   2.354   0.475
 5425TIP3    H237835   0.839   2.472   0.400
 5426TIP3   OH237836   6.702   3.265   0.027
 5426TIP3    H137837   6.712   3.252   0.122
 5426TIP3    H237838   6.791   3.279   8.856
 5427TIP3   OH237839   5.839   1.250   8.184
 5427TIP3    H137840   5.932   1.249   8.207
 5427TIP3    H237841   5.797   1.200   8.255
 5428TIP3   OH237842   0.918   0.166   6.781
 5428TIP3    H137843   0.965   0.196   6.703
 5428TIP3    H237844   0.860   0.097   6.748
 5429TIP3   OH237845   2.758   1.288   1.327
 5429TIP3    H137846   2.811   1.364   1.304
 5429TIP3    H237847   2.677   1.325   1.363
 5430TIP3   OH237848   5.963   1.634   7.454
 5430TIP3    H137849   5.989   1.683   7.533
 5430TIP3    H237850   5.874   1.604   7.474
 5431TIP3   OH237851   5.051   6.060   0.289
 5431TIP3    H137852   5.084   6.150   0.294
 5431TIP3    H237853   4.969   6.063   0.339
 5432TIP3   OH237854   4.020   6.321   8.794
 5432TIP3    H137855   3.985   6.332   8.705
 5432TIP3    H237856   4.018   6.226   8.808
 5433TIP3   OH237857   1.969   3.498   6.885
 5433TIP3    H137858   1.995   3.544   6.805
 5433TIP3    H237859   1.903   3.556   6.925
 5434TIP3   OH237860   4.059   0.021   7.754
 5434TIP3    H137861   4.146   0.015   7.794
 5434TIP3    H237862   4.060   6.754   7.685
 5435TIP3   OH237863   1.067   1.775   7.279
 5435TIP3    H137864   0.982   1.737   7.255
 5435TIP3    H237865   1.127   1.701   7.280
 5436TIP3   OH237866   1.196   1.587   6.987
 5436TIP3    H137867   1.101   1.596   6.991
 5436TIP3    H237868   1.230   1.677   6.987
 5437TIP3   OH237869   5.160   1.680   1.026
 5437TIP3    H137870   5.233   1.620   1.042
 5437TIP3    H237871   5.198   1.767   1.038
 5438TIP3   OH237872   5.420   5.634   1.484
 5438TIP3    H137873   5.445   5.711   1.534
 5438TIP3    H237874   5.414   5.665   1.393
 5439TIP3   OH237875   3.891   3.628   0.787
 5439TIP3    H137876   3.885   3.711   0.740
 5439TIP3    H237877   3.838   3.639   0.865
 5440TIP3   OH237878   4.472   0.740   8.816
 5440TIP3    H137879   4.508   0.674   8.757
 5440TIP3    H237880   4.477   0.821   8.766
 5441TIP3   OH237881   1.031   4.218   6.896
 5441TIP3    H137882   0.968   4.154   6.928
 5441TIP3    H237883   1.005   4.300   6.937
 5442TIP3   OH237884   0.707   1.155   6.508
 5442TIP3    H137885   0.794   1.121   6.490
 5442TIP3    H237886   0.673   1.100   6.578
 5443TIP3   OH237887   4.499   2.082   1.978
 5443TIP3    H137888   4.525   2.123   1.895
 5443TIP3    H237889   4.405   2.101   1.985
 5444TIP3   OH237890   0.094   4.865   0.073
 5444TIP3    H137891   0.037   4.940   0.087
 5444TIP3    H237892   0.077   4.808   0.148
 5445TIP3   OH237893   2.580   0.050   6.420
 5445TIP3    H137894   2.542   0.101   6.348
 5445TIP3    H237895   2.569   0.106   6.497
 5446TIP3   OH237896   6.163   1.188   7.519
 5446TIP3    H137897   6.246   1.235   7.530
 5446TIP3    H237898   6.148   1.188   7.425
 5447TIP3   OH237899   4.768   0.673   1.094
 5447TIP3    H137900   4.726   0.597   1.052
 5447TIP3    H237901   4.702   0.742   1.090
 5448TIP3   OH237902   4.756   5.902   8.854
 5448TIP3    H137903   4.744   5.807   8.859
 5448TIP3    H237904   4.696   5.937   0.059
 5449TIP3   OH237905   0.797   5.893   1.394
 5449TIP3    H137906   0.745   5.879   1.473
 5449TIP3    H237907   0.882   5.854   1.414
 5450TIP3   OH237908   2.448   2.115   7.983
 5450TIP3    H137909   2.457   2.169   7.903
 5450TIP3    H237910   2.424   2.029   7.951
 5451TIP3   OH237911   0.317   1.956   0.167
 5451TIP3    H137912   0.276   1.881   0.211
 5451TIP3    H237913   0.304   1.938   0.074
 5452TIP3   OH237914   3.144   2.087   7.421
 5452TIP3    H137915   3.098   2.120   7.344
 5452TIP3    H237916   3.187   2.164   7.458
 5453TIP3   OH237917   2.810   3.509   8.039
 5453TIP3    H137918   2.718   3.491   8.018
 5453TIP3    H237919   2.810   3.601   8.066
 5454TIP3   OH237920   4.854   6.489   6.918
 5454TIP3    H137921   4.862   6.507   7.011
 5454TIP3    H237922   4.827   6.397   6.912
 5455TIP3   OH237923   4.560   1.032   0.466
 5455TIP3    H137924   4.644   0.999   0.435
 5455TIP3    H237925   4.517   1.066   0.387
 5456TIP3   OH237926   6.632   6.228   8.352
 5456TIP3    H137927   6.609   6.315   8.385
 5456TIP3    H237928   6.607   6.169   8.423
 5457TIP3   OH237929   2.606   2.043   0.466
 5457TIP3    H137930   2.600   1.953   0.500
 5457TIP3    H237931   2.674   2.084   0.520
 5458TIP3   OH237932   2.108   1.152   1.363
 5458TIP3    H137933   2.066   1.235   1.340
 5458TIP3    H237934   2.130   1.161   1.455
 5459TIP3   OH237935   5.057   4.190   0.808
 5459TIP3    H137936   5.017   4.202   0.722
 5459TIP3    H237937   5.121   4.120   0.797
 5460TIP3   OH237938   2.114   1.746   0.214
 5460TIP3    H137939   2.208   1.728   0.221
 5460TIP3    H237940   2.074   1.661   0.200
 5461TIP3   OH237941   3.670   4.010   8.762
 5461TIP3    H137942   3.703   3.920   8.758
 5461TIP3    H237943   3.596   4.011   8.702
 5462TIP3   OH237944   4.396   5.037   1.067
 5462TIP3    H137945   4.424   4.953   1.104
 5462TIP3    H237946   4.365   5.016   0.979
 5463TIP3   OH237947   0.247   3.440   2.359
 5463TIP3    H137948   0.166   3.490   2.367
 5463TIP3    H237949   0.235   3.387   2.281
 5464TIP3   OH237950   3.905   3.378   7.122
 5464TIP3    H137951   3.817   3.359   7.089
 5464TIP3    H237952   3.963   3.344   7.054
 5465TIP3   OH237953   4.288   1.490   8.467
 5465TIP3    H137954   4.259   1.421   8.407
 5465TIP3    H237955   4.237   1.476   8.546
 5466TIP3   OH237956   5.853   2.309   6.811
 5466TIP3    H137957   5.921   2.373   6.831
 5466TIP3    H237958   5.900   2.238   6.766
 5467TIP3   OH237959   5.756   2.450   6.537
 5467TIP3    H137960   5.675   2.439   6.588
 5467TIP3    H237961   5.801   2.523   6.579
 5468TIP3   OH237962   3.292   1.987   6.761
 5468TIP3    H137963   3.246   2.070   6.758
 5468TIP3    H237964   3.278   1.948   6.675
 5469TIP3   OH237965   0.441   2.791   7.320
 5469TIP3    H137966   0.434   2.854   7.249
 5469TIP3    H237967   0.409   2.709   7.282
 5470TIP3   OH237968   4.590   3.125   6.250
 5470TIP3    H137969   4.498   3.148   6.237
 5470TIP3    H237970   4.591   3.075   6.332
 5471TIP3   OH237971   3.351   4.254   0.026
 5471TIP3    H137972   3.271   4.293   0.062
 5471TIP3    H237973   3.338   4.159   0.036
 5472TIP3   OH237974   1.281   4.679   7.552
 5472TIP3    H137975   1.324   4.748   7.502
 5472TIP3    H237976   1.189   4.682   7.524
 5473TIP3   OH237977   5.114   1.705   2.150
 5473TIP3    H137978   5.119   1.679   2.242
 5473TIP3    H237979   5.204   1.697   2.118
 5474TIP3   OH237980   5.642   3.190   7.629
 5474TIP3    H137981   5.694   3.260   7.591
 5474TIP3    H237982   5.563   3.233   7.662
 5475TIP3   OH237983   4.296   3.712   0.367
 5475TIP3    H137984   4.365   3.758   0.319
 5475TIP3    H237985   4.341   3.642   0.414
 5476TIP3   OH237986   6.066   1.464   7.233
 5476TIP3    H137987   5.977   1.460   7.197
 5476TIP3    H237988   6.055   1.509   7.317
 5477TIP3   OH237989   6.034   4.819   7.302
 5477TIP3    H137990   5.988   4.757   7.245
 5477TIP3    H237991   6.113   4.842   7.253
 5478TIP3   OH237992   0.461   0.206   7.439
 5478TIP3    H137993   0.474   0.265   7.513
 5478TIP3    H237994   0.543   0.158   7.432
 5479TIP3   OH237995   1.508   0.272   7.080
 5479TIP3    H137996   1.515   0.211   7.153
 5479TIP3    H237997   1.445   0.230   7.020
 5480TIP3   OH237998   2.930   2.980   7.120
 5480TIP3    H137999   2.849   3.029   7.132
 5480TIP3    H238000   2.919   2.935   7.036
 5481TIP3   OH238001   4.678   5.331   1.385
 5481TIP3    H138002   4.711   5.246   1.412
 5481TIP3    H238003   4.669   5.324   1.290
 5482TIP3   OH238004   4.825   0.757   8.719
 5482TIP3    H138005   4.776   0.680   8.690
 5482TIP3    H238006   4.832   0.812   8.641
 5483TIP3   OH238007   1.720   5.118   8.736
 5483TIP3    H138008   1.765   5.195   8.772
 5483TIP3    H238009   1.785   5.079   8.677
 5484TIP3   OH238010   4.930   5.142   2.642
 5484TIP3    H138011   4.888   5.143   2.728
 5484TIP3    H238012   4.869   5.187   2.585
 5485TIP3   OH238013   4.385   0.458   0.827
 5485TIP3    H138014   4.466   0.492   0.789
 5485TIP3    H238015   4.411   0.379   0.873
 5486TIP3   OH238016   6.361   1.782   6.616
 5486TIP3    H138017   6.437   1.830   6.583
 5486TIP3    H238018   6.286   1.825   6.575
 5487TIP3   OH238019   6.072   4.503   8.084
 5487TIP3    H138020   6.079   4.570   8.151
 5487TIP3    H238021   6.024   4.432   8.126
 5488TIP3   OH238022   1.783   0.040   8.553
 5488TIP3    H138023   1.772   0.121   8.504
 5488TIP3    H238024   1.795   0.068   8.644
 5489TIP3   OH238025   4.168   5.375   8.100
 5489TIP3    H138026   4.097   5.312   8.085
 5489TIP3    H238027   4.211   5.383   8.015
 5490TIP3   OH238028   0.636   5.822   1.634
 5490TIP3    H138029   0.637   5.768   1.713
 5490TIP3    H238030   0.548   5.860   1.632
 5491TIP3   OH238031   6.459   6.446   1.469
 5491TIP3    H138032   6.397   6.417   1.401
 5491TIP3    H238033   6.528   6.492   1.421
 5492TIP3   OH238034   5.714   0.878   6.886
 5492TIP3    H138035   5.777   0.806   6.883
 5492TIP3    H238036   5.636   0.844   6.842
 5493TIP3   OH238037   5.703   6.647   0.687
 5493TIP3    H138038   5.645   6.677   0.617
 5493TIP3    H238039   5.730   6.727   0.732
 5494TIP3   OH238040   2.680   5.165   1.341
 5494TIP3    H138041   2.613   5.204   1.396
 5494TIP3    H238042   2.763   5.185   1.386
 5495TIP3   OH238043   0.119   2.977   7.437
 5495TIP3    H138044   0.130   2.886   7.463
 5495TIP3    H238045   0.186   3.024   7.487
 5496TIP3   OH238046   0.224   5.867   7.929
 5496TIP3    H138047   0.237   5.828   7.843
 5496TIP3    H238048   0.313   5.877   7.964
 5497TIP3   OH238049   6.502   1.565   0.373
 5497TIP3    H138050   6.543   1.652   0.375
 5497TIP3    H238051   6.424   1.577   0.318
 5498TIP3   OH238052   2.186   5.884   7.121
 5498TIP3    H138053   2.179   5.898   7.215
 5498TIP3    H238054   2.275   5.851   7.108
 5499TIP3   OH238055   5.187   6.779   6.668
 5499TIP3    H138056   5.155   6.694   6.697
 5499TIP3    H238057   5.211   6.767   6.576
 5500TIP3   OH238058   4.686   5.635   8.197
 5500TIP3    H138059   4.779   5.658   8.193
 5500TIP3    H238060   4.654   5.649   8.107
 5501TIP3   OH238061   2.182   4.730   1.611
 5501TIP3    H138062   2.222   4.703   1.694
 5501TIP3    H238063   2.202   4.660   1.550
 5502TIP3   OH238064   0.002   6.745   0.614
 5502TIP3    H138065   6.719   6.700   0.599
 5502TIP3    H238066   0.001   0.019   0.554
 5503TIP3   OH238067   1.645   5.066   8.341
 5503TIP3    H138068   1.577   5.006   8.372
 5503TIP3    H238069   1.720   5.009   8.321
 5504TIP3   OH238070   6.091   3.786   0.224
 5504TIP3    H138071   6.145   3.778   0.145
 5504TIP3    H238072   6.148   3.756   0.295
 5505TIP3   OH238073   1.108   2.718   8.799
 5505TIP3    H138074   1.203   2.708   8.790
 5505TIP3    H238075   1.096   2.805   8.835
 5506TIP3   OH238076   6.349   3.317   8.286
 5506TIP3    H138077   6.275   3.272   8.244
 5506TIP3    H238078   6.396   3.357   8.213
 5507TIP3   OH238079   4.967   6.377   7.690
 5507TIP3    H138080   5.021   6.339   7.759
 5507TIP3    H238081   5.026   6.436   7.643
 5508TIP3   OH238082   1.773   1.841   8.795
 5508TIP3    H138083   1.827   1.839   0.013
 5508TIP3    H238084   1.689   1.877   8.825
 5509TIP3   OH238085   6.786   0.500   6.892
 5509TIP3    H138086   6.796   0.512   6.987
 5509TIP3    H238087   0.070   0.468   6.863
 5510TIP3   OH238088   2.243   3.516   7.644
 5510TIP3    H138089   2.307   3.445   7.648
 5510TIP3    H238090   2.295   3.596   7.644
 5511TIP3   OH238091   2.523   4.483   8.361
 5511TIP3    H138092   2.540   4.563   8.411
 5511TIP3    H238093   2.501   4.417   8.427
 5512TIP3   OH238094   0.947   6.696   1.409
 5512TIP3    H138095   0.998   6.622   1.378
 5512TIP3    H238096   0.876   6.657   1.461
 5513TIP3   OH238097   0.766   4.389   1.078
 5513TIP3    H138098   0.819   4.312   1.101
 5513TIP3    H238099   0.817   4.434   1.011
 5514TIP3   OH238100   2.937   1.343   7.381
 5514TIP3    H138101   3.020   1.307   7.348
 5514TIP3    H238102   2.958   1.434   7.401
 5515TIP3   OH238103   2.638   1.401   7.544
 5515TIP3    H138104   2.657   1.348   7.466
 5515TIP3    H238105   2.575   1.466   7.514
 5516TIP3   OH238106   5.328   2.697   0.097
 5516TIP3    H138107   5.416   2.728   0.120
 5516TIP3    H238108   5.315   2.619   0.152
 5517TIP3   OH238109   3.910   5.136   0.008
 5517TIP3    H138110   3.906   5.145   0.103
 5517TIP3    H238111   4.000   5.108   8.851
 5518TIP3   OH238112   0.844   5.090   0.315
 5518TIP3    H138113   0.875   5.145   0.243
 5518TIP3    H238114   0.776   5.143   0.358
 5519TIP3   OH238115   3.703   5.860   0.593
 5519TIP3    H138116   3.711   5.840   0.687
 5519TIP3    H238117   3.781   5.821   0.554
 5520TIP3   OH238118   4.598   3.443   0.283
 5520TIP3    H138119   4.664   3.450   0.214
 5520TIP3    H238120   4.517   3.421   0.236
 5521TIP3   OH238121   0.591   5.397   8.675
 5521TIP3    H138122   0.674   5.368   8.638
 5521TIP3    H238123   0.526   5.336   8.640
 5522TIP3   OH238124   3.055   1.950   1.607
 5522TIP3    H138125   2.983   1.891   1.630
 5522TIP3    H238126   3.038   2.030   1.657
 5523TIP3   OH238127   1.484   3.187   1.568
 5523TIP3    H138128   1.494   3.132   1.646
 5523TIP3    H238129   1.395   3.167   1.537
 5524TIP3   OH238130   2.302   6.023   8.229
 5524TIP3    H138131   2.359   6.018   8.152
 5524TIP3    H238132   2.295   5.932   8.259
 5525TIP3   OH238133   2.565   1.970   7.263
 5525TIP3    H138134   2.611   2.042   7.305
 5525TIP3    H238135   2.565   1.900   7.328
 5526TIP3   OH238136   3.755   5.388   8.440
 5526TIP3    H138137   3.813   5.333   8.492
 5526TIP3    H238138   3.814   5.444   8.389
 5527TIP3   OH238139   0.536   0.805   6.928
 5527TIP3    H138140   0.514   0.793   7.020
 5527TIP3    H238141   0.457   0.778   6.881
 5528TIP3   OH238142   2.240   2.599   7.059
 5528TIP3    H138143   2.185   2.642   6.993
 5528TIP3    H238144   2.211   2.507   7.057
 5529TIP3   OH238145   3.212   0.812   1.658
 5529TIP3    H138146   3.202   0.757   1.735
 5529TIP3    H238147   3.167   0.765   1.588
 5530TIP3   OH238148   3.486   4.265   6.544
 5530TIP3    H138149   3.440   4.311   6.473
 5530TIP3    H238150   3.533   4.334   6.591
 5531TIP3   OH238151   0.259   0.765   8.734
 5531TIP3    H138152   0.318   0.699   8.770
 5531TIP3    H238153   0.305   0.848   8.748
 5532TIP3   OH238154   3.309   0.716   8.582
 5532TIP3    H138155   3.251   0.759   8.519
 5532TIP3    H238156   3.272   0.737   8.667
 5533TIP3   OH238157   5.706   0.571   0.148
 5533TIP3    H138158   5.617   0.594   0.174
 5533TIP3    H238159   5.694   0.507   0.077
 5534TIP3   OH238160   5.127   6.450   8.071
 5534TIP3    H138161   5.111   6.388   8.000
 5534TIP3    H238162   5.216   6.482   8.054
 5535TIP3   OH238163   1.352   2.780   0.088
 5535TIP3    H138164   1.360   2.869   0.123
 5535TIP3    H238165   1.360   2.791   8.854
 5536TIP3   OH238166   5.246   2.835   0.355
 5536TIP3    H138167   5.269   2.858   0.445
 5536TIP3    H238168   5.330   2.815   0.313
 5537TIP3   OH238169   6.482   4.218   8.479
 5537TIP3    H138170   6.410   4.160   8.457
 5537TIP3    H238171   6.446   4.278   8.545
 5538TIP3   OH238172   0.634   2.536   7.092
 5538TIP3    H138173   0.543   2.540   7.120
 5538TIP3    H238174   0.652   2.623   7.054
 5539TIP3   OH238175   1.576   6.277   7.448
 5539TIP3    H138176   1.546   6.350   7.503
 5539TIP3    H238177   1.637   6.317   7.386
 5540TIP3   OH238178   4.558   5.228   8.097
 5540TIP3    H138179   4.643   5.212   8.136
 5540TIP3    H238180   4.572   5.304   8.040
 5541TIP3   OH238181   3.199   0.363   0.708
 5541TIP3    H138182   3.239   0.448   0.727
 5541TIP3    H238183   3.165   0.334   0.793
 5542TIP3   OH238184   1.767   0.924   1.347
 5542TIP3    H138185   1.775   1.002   1.402
 5542TIP3    H238186   1.846   0.926   1.293
 5543TIP3   OH238187   5.218   4.989   8.390
 5543TIP3    H138188   5.169   4.934   8.451
 5543TIP3    H238189   5.257   4.927   8.328
 5544TIP3   OH238190   6.672   0.613   7.913
 5544TIP3    H138191   6.629   0.698   7.923
 5544TIP3    H238192   6.727   0.604   7.991
 5545TIP3   OH238193   5.908   5.006   7.499
 5545TIP3    H138194   5.934   4.926   7.453
 5545TIP3    H238195   5.984   5.064   7.490
 5546TIP3   OH238196   4.332   5.402   1.655
 5546TIP3    H138197   4.243   5.421   1.625
 5546TIP3    H238198   4.325   5.399   1.750
 5547TIP3   OH238199   0.395   1.241   7.260
 5547TIP3    H138200   0.321   1.213   7.206
 5547TIP3    H238201   0.389   1.186   7.339
 5548TIP3   OH238202   2.236   5.889   7.439
 5548TIP3    H138203   2.315   5.857   7.395
 5548TIP3    H238204   2.182   5.811   7.450
 5549TIP3   OH238205   2.070   5.148   8.633
 5549TIP3    H138206   2.163   5.170   8.637
 5549TIP3    H238207   2.025   5.232   8.637
 5550TIP3   OH238208   5.117   6.680   0.848
 5550TIP3    H138209   5.197   6.703   0.803
 5550TIP3    H238210   5.047   6.715   0.793
 5551TIP3   OH238211   1.962   2.380   1.851
 5551TIP3    H138212   2.057   2.380   1.846
 5551TIP3    H238213   1.938   2.287   1.855
 5552TIP3   OH238214   1.195   1.287   6.997
 5552TIP3    H138215   1.169   1.255   6.910
 5552TIP3    H238216   1.150   1.371   7.006
 5553TIP3   OH238217   6.570   0.412   1.673
 5553TIP3    H138218   6.540   0.321   1.682
 5553TIP3    H238219   6.665   0.404   1.660
 5554TIP3   OH238220   0.677   6.126   1.663
 5554TIP3    H138221   0.728   6.204   1.640
 5554TIP3    H238222   0.614   6.116   1.591
 5555TIP3   OH238223   1.641   0.000   6.516
 5555TIP3    H138224   1.665   6.750   6.593
 5555TIP3    H238225   1.722   0.003   6.464
 5556TIP3   OH238226   3.637   6.556   7.883
 5556TIP3    H138227   3.566   6.615   7.910
 5556TIP3    H238228   3.697   6.610   7.832
 5557TIP3   OH238229   5.673   5.924   8.595
 5557TIP3    H138230   5.762   5.959   8.601
 5557TIP3    H238231   5.617   6.001   8.607
 5558TIP3   OH238232   4.292   0.646   2.436
 5558TIP3    H138233   4.269   0.641   2.529
 5558TIP3    H238234   4.261   0.563   2.399
 5559TIP3   OH238235   2.680   3.753   0.031
 5559TIP3    H138236   2.719   3.688   0.090
 5559TIP3    H238237   2.696   3.837   0.074
 5560TIP3   OH238238   5.437   4.088   0.601
 5560TIP3    H138239   5.522   4.043   0.608
 5560TIP3    H238240   5.407   4.097   0.691
 5561TIP3   OH238241   6.073   2.614   6.392
 5561TIP3    H138242   6.136   2.667   6.344
 5561TIP3    H238243   6.057   2.664   6.473
 5562TIP3   OH238244   0.821   1.335   0.199
 5562TIP3    H138245   0.782   1.369   0.118
 5562TIP3    H238246   0.886   1.271   0.169
 5563TIP3   OH238247   6.525   1.261   8.448
 5563TIP3    H138248   6.494   1.173   8.427
 5563TIP3    H238249   6.610   1.268   8.403
 5564TIP3   OH238250   0.192   3.431   1.432
 5564TIP3    H138251   0.149   3.516   1.426
 5564TIP3    H238252   0.255   3.430   1.360
 5565TIP3   OH238253   1.813   6.357   6.750
 5565TIP3    H138254   1.836   6.422   6.816
 5565TIP3    H238255   1.722   6.376   6.728
 5566TIP3   OH238256   1.434   2.680   0.640
 5566TIP3    H138257   1.386   2.640   0.713
 5566TIP3    H238258   1.526   2.671   0.664
 5567TIP3   OH238259   0.065   5.117   2.084
 5567TIP3    H138260   0.137   5.162   2.038
 5567TIP3    H238261   0.007   5.188   2.112
 5568TIP3   OH238262   0.182   1.874   0.472
 5568TIP3    H138263   0.216   1.956   0.507
 5568TIP3    H238264   0.234   1.806   0.515
 5569TIP3   OH238265   0.217   1.923   2.141
 5569TIP3    H138266   0.298   1.974   2.142
 5569TIP3    H238267   0.157   1.972   2.199
 5570TIP3   OH238268   1.743   6.021   8.423
 5570TIP3    H138269   1.652   5.993   8.415
 5570TIP3    H238270   1.767   5.998   8.513
 5571TIP3   OH238271   2.116   4.933   1.436
 5571TIP3    H138272   2.188   4.923   1.373
 5571TIP3    H238273   2.145   4.883   1.512
 5572TIP3   OH238274   3.250   1.011   1.076
 5572TIP3    H138275   3.298   1.002   1.158
 5572TIP3    H238276   3.247   0.923   1.039
 5573TIP3   OH238277   0.833   5.842   0.534
 5573TIP3    H138278   0.898   5.909   0.555
 5573TIP3    H238279   0.756   5.865   0.586
 5574TIP3   OH238280   0.890   3.192   8.536
 5574TIP3    H138281   0.903   3.286   8.527
 5574TIP3    H238282   0.803   3.176   8.498
 5575TIP3   OH238283   0.349   0.021   1.924
 5575TIP3    H138284   0.441   0.002   1.905
 5575TIP3    H238285   0.324   0.085   1.857
 5576TIP3   OH238286   2.583   2.541   8.829
 5576TIP3    H138287   2.597   2.447   8.818
 5576TIP3    H238288   2.671   2.577   8.843
 5577TIP3   OH238289   0.288   1.740   1.559
 5577TIP3    H138290   0.240   1.777   1.634
 5577TIP3    H238291   0.223   1.737   1.488
 5578TIP3   OH238292   2.435   0.459   6.969
 5578TIP3    H138293   2.419   0.465   6.875
 5578TIP3    H238294   2.510   0.401   6.977
 5579TIP3   OH238295   4.738   0.722   8.190
 5579TIP3    H138296   4.821   0.720   8.142
 5579TIP3    H238297   4.682   0.781   8.139
 5580TIP3   OH238298   4.543   6.625   0.668
 5580TIP3    H138299   4.473   6.688   0.686
 5580TIP3    H238300   4.509   6.571   0.597
 5581TIP3   OH238301   5.638   2.771   8.411
 5581TIP3    H138302   5.544   2.770   8.394
 5581TIP3    H238303   5.667   2.683   8.385
 5582TIP3   OH238304   1.770   6.255   6.401
 5582TIP3    H138305   1.684   6.278   6.438
 5582TIP3    H238306   1.790   6.326   6.341
 5583TIP3   OH238307   2.351   6.520   1.564
 5583TIP3    H138308   2.256   6.505   1.572
 5583TIP3    H238309   2.376   6.556   1.648
 5584TIP3   OH238310   2.614   2.098   0.846
 5584TIP3    H138311   2.532   2.128   0.807
 5584TIP3    H238312   2.590   2.023   0.900
 5585TIP3   OH238313   6.329   0.797   1.751
 5585TIP3    H138314   6.363   0.769   1.836
 5585TIP3    H238315   6.286   0.720   1.714
 5586TIP3   OH238316   3.364   0.556   0.841
 5586TIP3    H138317   3.447   0.508   0.837
 5586TIP3    H238318   3.372   0.613   0.917
 5587TIP3   OH238319   0.888   3.849   8.453
 5587TIP3    H138320   0.799   3.857   8.417
 5587TIP3    H238321   0.934   3.792   8.391
 5588TIP3   OH238322   6.525   5.932   0.007
 5588TIP3    H138323   6.606   5.899   0.047
 5588TIP3    H238324   6.492   5.997   0.069
 5589TIP3   OH238325   3.093   6.122   7.852
 5589TIP3    H138326   3.121   6.103   7.942
 5589TIP3    H238327   3.091   6.037   7.809
 5590TIP3   OH238328   4.276   0.268   0.046
 5590TIP3    H138329   4.202   0.293   0.102
 5590TIP3    H238330   4.261   0.176   0.025
 5591TIP3   OH238331   4.765   3.876   1.538
 5591TIP3    H138332   4.672   3.878   1.516
 5591TIP3    H238333   4.797   3.964   1.519
 5592TIP3   OH238334   1.953   2.357   7.945
 5592TIP3    H138335   1.976   2.265   7.942
 5592TIP3    H238336   1.909   2.369   8.029
 5593TIP3   OH238337   1.464   2.942   5.923
 5593TIP3    H138338   1.419   2.943   5.838
 5593TIP3    H238339   1.436   2.859   5.963
 5594TIP3   OH238340   6.126   4.798   8.178
 5594TIP3    H138341   6.041   4.810   8.220
 5594TIP3    H238342   6.126   4.861   8.106
 5595TIP3   OH238343   6.534   1.039   7.485
 5595TIP3    H138344   6.478   0.963   7.472
 5595TIP3    H238345   6.530   1.087   7.403
 5596TIP3   OH238346   5.501   4.817   0.701
 5596TIP3    H138347   5.526   4.833   0.610
 5596TIP3    H238348   5.441   4.888   0.722
 5597TIP3   OH238349   3.584   3.746   0.691
 5597TIP3    H138350   3.499   3.703   0.703
 5597TIP3    H238351   3.630   3.734   0.774
 5598TIP3   OH238352   1.774   2.618   7.412
 5598TIP3    H138353   1.831   2.589   7.484
 5598TIP3    H238354   1.725   2.540   7.387
 5599TIP3   OH238355   5.752   5.053   1.470
 5599TIP3    H138356   5.687   5.104   1.519
 5599TIP3    H238357   5.836   5.092   1.495
 5600TIP3   OH238358   2.834   2.422   0.724
 5600TIP3    H138359   2.825   2.380   0.810
 5600TIP3    H238360   2.919   2.465   0.728
 5601TIP3   OH238361   3.392   5.788   0.891
 5601TIP3    H138362   3.368   5.877   0.866
 5601TIP3    H238363   3.387   5.787   0.986
 5602TIP3   OH238364   1.342   3.557   8.287
 5602TIP3    H138365   1.318   3.488   8.348
 5602TIP3    H238366   1.402   3.613   8.336
 5603TIP3   OH238367   3.604   3.961   7.545
 5603TIP3    H138368   3.534   3.897   7.538
 5603TIP3    H238369   3.584   4.026   7.476
 5604TIP3   OH238370   1.318   6.458   7.291
 5604TIP3    H138371   1.365   6.470   7.373
 5604TIP3    H238372   1.380   6.412   7.235
 5605TIP3   OH238373   0.251   6.735   8.736
 5605TIP3    H138374   0.197   6.660   8.712
 5605TIP3    H238375   0.340   6.708   8.712
 5606TIP3   OH238376   0.066   4.453   1.647
 5606TIP3    H138377   0.066   4.357   1.650
 5606TIP3    H238378   0.048   4.474   1.555
 5607TIP3   OH238379   2.501   1.849   8.665
 5607TIP3    H138380   2.429   1.807   8.713
 5607TIP3    H238381   2.555   1.777   8.634
 5608TIP3   OH238382   0.650   5.268   7.664
 5608TIP3    H138383   0.681   5.245   7.576
 5608TIP3    H238384   0.637   5.184   7.708
 5609TIP3   OH238385   1.286   0.907   0.723
 5609TIP3    H138386   1.222   0.967   0.684
 5609TIP3    H238387   1.363   0.961   0.739
 5610TIP3   OH238388   4.870   6.604   8.768
 5610TIP3    H138389   4.832   6.645   8.690
 5610TIP3    H238390   4.813   6.631   8.840
 5611TIP3   OH238391   2.495   4.797   0.910
 5611TIP3    H138392   2.531   4.712   0.933
 5611TIP3    H238393   2.570   4.847   0.878
 5612TIP3   OH238394   4.248   1.088   6.419
 5612TIP3    H138395   4.277   1.139   6.344
 5612TIP3    H238396   4.319   1.027   6.437
 5613TIP3   OH238397   4.041   6.397   7.585
 5613TIP3    H138398   3.976   6.408   7.654
 5613TIP3    H238399   4.060   6.303   7.585
 5614TIP3   OH238400   3.301   6.694   7.350
 5614TIP3    H138401   3.316   6.608   7.389
 5614TIP3    H238402   3.324   6.682   7.258
 5615TIP3   OH238403   3.880   3.930   6.910
 5615TIP3    H138404   3.795   3.929   6.954
 5615TIP3    H238405   3.858   3.931   6.817
 5616TIP3   OH238406   1.158   3.534   1.303
 5616TIP3    H138407   1.187   3.450   1.266
 5616TIP3    H238408   1.218   3.598   1.265
 5617TIP3   OH238409   1.023   5.263   1.616
 5617TIP3    H138410   1.104   5.232   1.576
 5617TIP3    H238411   0.965   5.187   1.614
 5618TIP3   OH238412   4.219   1.330   1.425
 5618TIP3    H138413   4.289   1.288   1.475
 5618TIP3    H238414   4.165   1.374   1.491
 5619TIP3   OH238415   0.785   5.150   1.151
 5619TIP3    H138416   0.724   5.219   1.126
 5619TIP3    H238417   0.867   5.195   1.168
 5620TIP3   OH238418   2.120   1.581   7.103
 5620TIP3    H138419   2.109   1.491   7.135
 5620TIP3    H238420   2.066   1.586   7.025
 5621TIP3   OH238421   6.148   4.792   8.531
 5621TIP3    H138422   6.175   4.848   8.603
 5621TIP3    H238423   6.053   4.781   8.543
 5622TIP3   OH238424   5.317   6.214   8.313
 5622TIP3    H138425   5.266   6.185   8.237
 5622TIP3    H238426   5.403   6.236   8.277
 5623TIP3   OH238427   5.620   6.510   7.059
 5623TIP3    H138428   5.613   6.565   6.981
 5623TIP3    H238429   5.541   6.456   7.058
 5624TIP3   OH238430   5.034   3.771   1.561
 5624TIP3    H138431   5.061   3.797   1.649
 5624TIP3    H238432   4.939   3.763   1.565
 5625TIP3   OH238433   5.058   0.222   7.015
 5625TIP3    H138434   5.114   0.264   7.080
 5625TIP3    H238435   5.092   0.133   7.007
 5626TIP3   OH238436   1.013   6.343   6.943
 5626TIP3    H138437   1.054   6.396   6.875
 5626TIP3    H238438   0.936   6.305   6.902
 5627TIP3   OH238439   5.674   2.659   6.884
 5627TIP3    H138440   5.663   2.565   6.891
 5627TIP3    H238441   5.737   2.671   6.813
 5628TIP3   OH238442   3.723   2.913   1.339
 5628TIP3    H138443   3.668   2.882   1.411
 5628TIP3    H238444   3.769   2.989   1.375
 5629TIP3   OH238445   4.897   6.555   2.009
 5629TIP3    H138446   4.947   6.616   2.063
 5629TIP3    H238447   4.909   6.470   2.052
 5630TIP3   OH238448   2.250   6.603   2.050
 5630TIP3    H138449   2.239   6.518   2.094
 5630TIP3    H238450   2.179   6.657   2.085
 5631TIP3   OH238451   0.151   0.565   1.438
 5631TIP3    H138452   0.109   0.652   1.441
 5631TIP3    H238453   0.238   0.582   1.401
 5632TIP3   OH238454   4.755   6.010   8.609
 5632TIP3    H138455   4.743   6.005   8.704
 5632TIP3    H238456   4.814   6.084   8.596
 5633TIP3   OH238457   6.402   6.551   8.071
 5633TIP3    H138458   6.419   6.507   8.154
 5633TIP3    H238459   6.373   6.639   8.097
 5634TIP3   OH238460   3.318   0.333   7.045
 5634TIP3    H138461   3.320   0.414   7.095
 5634TIP3    H238462   3.367   0.353   6.965
 5635TIP3   OH238463   5.941   0.924   0.664
 5635TIP3    H138464   5.864   0.972   0.693
 5635TIP3    H238465   5.913   0.877   0.586
 5636TIP3   OH238466   3.139   2.106   2.283
 5636TIP3    H138467   3.228   2.136   2.266
 5636TIP3    H238468   3.089   2.187   2.298
 5637TIP3   OH238469   5.313   5.166   2.565
 5637TIP3    H138470   5.385   5.103   2.560
 5637TIP3    H238471   5.354   5.246   2.599
 5638TIP3   OH238472   3.155   0.515   0.353
 5638TIP3    H138473   3.175   0.601   0.390
 5638TIP3    H238474   3.068   0.494   0.388
 5639TIP3   OH238475   2.894   5.842   6.754
 5639TIP3    H138476   2.952   5.782   6.800
 5639TIP3    H238477   2.936   5.927   6.762
 5640TIP3   OH238478   5.522   3.465   2.122
 5640TIP3    H138479   5.592   3.500   2.067
 5640TIP3    H238480   5.556   3.470   2.211
 5641TIP3   OH238481   4.278   2.418   2.353
 5641TIP3    H138482   4.350   2.462   2.398
 5641TIP3    H238483   4.306   2.413   2.262
 5642TIP3   OH238484   2.789   2.280   1.003
 5642TIP3    H138485   2.820   2.200   1.045
 5642TIP3    H238486   2.696   2.263   0.986
 5643TIP3   OH238487   3.793   1.017   8.046
 5643TIP3    H138488   3.865   0.954   8.050
 5643TIP3    H238489   3.819   1.087   8.107
 5644TIP3   OH238490   3.562   5.230   1.281
 5644TIP3    H138491   3.637   5.288   1.268
 5644TIP3    H238492   3.599   5.152   1.324
 5645TIP3   OH238493   1.633   4.654   2.254
 5645TIP3    H138494   1.566   4.680   2.317
 5645TIP3    H238495   1.711   4.702   2.281
 5646TIP3   OH238496   5.410   2.779   8.060
 5646TIP3    H138497   5.409   2.870   8.089
 5646TIP3    H238498   5.318   2.753   8.058
 5647TIP3   OH238499   4.834   4.140   7.937
 5647TIP3    H138500   4.860   4.110   8.024
 5647TIP3    H238501   4.756   4.194   7.953
 5648TIP3   OH238502   4.189   5.436   0.192
 5648TIP3    H138503   4.102   5.442   0.232
 5648TIP3    H238504   4.231   5.361   0.235
 5649TIP3   OH238505   4.813   5.348   8.449
 5649TIP3    H138506   4.742   5.287   8.469
 5649TIP3    H238507   4.772   5.435   8.451
 5650TIP3   OH238508   0.070   4.711   2.064
 5650TIP3    H138509   0.097   4.635   2.013
 5650TIP3    H238510   0.127   4.710   2.141
 5651TIP3   OH238511   1.418   2.337   1.082
 5651TIP3    H138512   1.324   2.350   1.078
 5651TIP3    H238513   1.448   2.396   1.151
 5652TIP3   OH238514   1.528   4.293   6.950
 5652TIP3    H138515   1.517   4.385   6.973
 5652TIP3    H238516   1.439   4.259   6.942
 5653TIP3   OH238517   2.091   5.977   6.802
 5653TIP3    H138518   2.119   5.891   6.833
 5653TIP3    H238519   2.116   5.978   6.709
 5654TIP3   OH238520   2.023   0.827   7.600
 5654TIP3    H138521   2.090   0.831   7.669
 5654TIP3    H238522   2.072   0.810   7.520
 5655TIP3   OH238523   0.820   2.318   6.568
 5655TIP3    H138524   0.871   2.310   6.648
 5655TIP3    H238525   0.867   2.385   6.517
 5656TIP3   OH238526   5.848   6.506   8.586
 5656TIP3    H138527   5.757   6.535   8.583
 5656TIP3    H238528   5.874   6.519   8.677
 5657TIP3   OH238529   3.361   4.591   7.655
 5657TIP3    H138530   3.393   4.501   7.646
 5657TIP3    H238531   3.379   4.613   7.746
 5658TIP3   OH238532   3.952   0.577   8.500
 5658TIP3    H138533   3.921   0.505   8.555
 5658TIP3    H238534   3.970   0.648   8.561
 5659TIP3   OH238535   6.533   2.074   0.974
 5659TIP3    H138536   6.476   1.998   0.984
 5659TIP3    H238537   6.544   2.085   0.880
 5660TIP3   OH238538   3.479   2.462   6.397
 5660TIP3    H138539   3.386   2.473   6.376
 5660TIP3    H238540   3.503   2.380   6.355
 5661TIP3   OH238541   5.778   1.367   0.099
 5661TIP3    H138542   5.727   1.311   0.157
 5661TIP3    H238543   5.761   1.456   0.129
 5662TIP3   OH238544   4.809   3.732   1.774
 5662TIP3    H138545   4.784   3.792   1.704
 5662TIP3    H238546   4.849   3.789   1.841
 5663TIP3   OH238547   4.941   5.800   0.685
 5663TIP3    H138548   4.873   5.798   0.618
 5663TIP3    H238549   4.944   5.710   0.719
 5664TIP3   OH238550   4.993   2.862   8.724
 5664TIP3    H138551   4.900   2.885   8.731
 5664TIP3    H238552   5.011   2.866   8.630
 5665TIP3   OH238553   3.840   0.785   0.188
 5665TIP3    H138554   3.781   0.817   0.256
 5665TIP3    H238555   3.783   0.740   0.126
 5666TIP3   OH238556   4.588   4.869   0.816
 5666TIP3    H138557   4.527   4.835   0.881
 5666TIP3    H238558   4.622   4.791   0.772
 5667TIP3   OH238559   1.411   3.461   8.570
 5667TIP3    H138560   1.473   3.460   8.643
 5667TIP3    H238561   1.332   3.421   8.605
 5668TIP3   OH238562   2.216   4.231   0.811
 5668TIP3    H138563   2.172   4.158   0.767
 5668TIP3    H238564   2.190   4.308   0.760
 5669TIP3   OH238565   0.581   3.918   0.311
 5669TIP3    H138566   0.557   3.838   0.357
 5669TIP3    H238567   0.652   3.893   0.253
 5670TIP3   OH238568   0.184   0.044   1.247
 5670TIP3    H138569   0.252   0.091   1.198
 5670TIP3    H238570   0.229   6.770   1.286
 5671TIP3   OH238571   4.093   5.054   1.084
 5671TIP3    H138572   4.077   4.962   1.106
 5671TIP3    H238573   4.183   5.070   1.113
 5672TIP3   OH238574   0.391   3.108   7.339
 5672TIP3    H138575   0.333   3.069   7.274
 5672TIP3    H238576   0.348   3.190   7.364
 5673TIP3   OH238577   3.475   6.328   0.058
 5673TIP3    H138578   3.501   6.362   0.144
 5673TIP3    H238579   3.544   6.265   0.035
 5674TIP3   OH238580   2.597   2.745   8.339
 5674TIP3    H138581   2.660   2.674   8.345
 5674TIP3    H238582   2.640   2.820   8.380
 5675TIP3   OH238583   5.097   1.760   6.964
 5675TIP3    H138584   5.164   1.742   6.899
 5675TIP3    H238585   5.125   1.840   7.007
 5676TIP3   OH238586   6.300   4.476   0.214
 5676TIP3    H138587   6.273   4.395   0.171
 5676TIP3    H238588   6.387   4.494   0.179
 5677TIP3   OH238589   6.505   2.309   7.156
 5677TIP3    H138590   6.579   2.356   7.120
 5677TIP3    H238591   6.536   2.219   7.168
 5678TIP3   OH238592   6.326   2.233   1.151
 5678TIP3    H138593   6.235   2.222   1.175
 5678TIP3    H238594   6.354   2.147   1.121
 5679TIP3   OH238595   1.110   4.251   0.049
 5679TIP3    H138596   1.047   4.270   0.119
 5679TIP3    H238597   1.056   4.244   8.831
 5680TIP3   OH238598   6.756   1.039   1.687
 5680TIP3    H138599   6.662   1.023   1.695
 5680TIP3    H238600   6.794   0.997   1.765
 5681TIP3   OH238601   4.628   2.738   1.891
 5681TIP3    H138602   4.667   2.664   1.937
 5681TIP3    H238603   4.702   2.795   1.869
 5682TIP3   OH238604   1.670   4.343   1.424
 5682TIP3    H138605   1.726   4.419   1.445
 5682TIP3    H238606   1.593   4.354   1.479
 5683TIP3   OH238607   0.738   6.053   8.290
 5683TIP3    H138608   0.731   5.963   8.258
 5683TIP3    H238609   0.812   6.090   8.242
 5684TIP3   OH238610   6.019   2.511   0.536
 5684TIP3    H138611   5.981   2.485   0.452
 5684TIP3    H238612   6.097   2.457   0.546
 5685TIP3   OH238613   5.779   6.018   7.717
 5685TIP3    H138614   5.811   6.040   7.805
 5685TIP3    H238615   5.851   5.968   7.678
 5686TIP3   OH238616   0.585   0.901   1.309
 5686TIP3    H138617   0.530   0.941   1.377
 5686TIP3    H238618   0.539   0.920   1.228
 5687TIP3   OH238619   1.919   2.125   1.700
 5687TIP3    H138620   1.993   2.072   1.670
 5687TIP3    H238621   1.885   2.079   1.776
 5688TIP3   OH238622   1.295   0.333   8.615
 5688TIP3    H138623   1.362   0.280   8.658
 5688TIP3    H238624   1.335   0.362   8.533
 5689TIP3   OH238625   5.210   0.566   7.251
 5689TIP3    H138626   5.257   0.649   7.241
 5689TIP3    H238627   5.159   0.578   7.331
 5690TIP3   OH238628   3.839   5.199   8.615
 5690TIP3    H138629   3.782   5.122   8.604
 5690TIP3    H238630   3.865   5.196   8.707
 5691TIP3   OH238631   0.742   3.704   8.088
 5691TIP3    H138632   0.739   3.609   8.095
 5691TIP3    H238633   0.835   3.725   8.076
 5692TIP3   OH238634   3.993   0.302   7.707
 5692TIP3    H138635   4.024   0.266   7.790
 5692TIP3    H238636   3.994   0.227   7.647
 5693TIP3   OH238637   2.058   5.630   0.688
 5693TIP3    H138638   2.077   5.635   0.594
 5693TIP3    H238639   2.039   5.538   0.704
 5694TIP3   OH238640   4.528   6.499   7.527
 5694TIP3    H138641   4.592   6.562   7.493
 5694TIP3    H238642   4.453   6.507   7.467
 5695TIP3   OH238643   2.603   4.918   2.518
 5695TIP3    H138644   2.576   5.002   2.481
 5695TIP3    H238645   2.655   4.877   2.448
 5696TIP3   OH238646   4.235   2.714   8.305
 5696TIP3    H138647   4.288   2.715   8.225
 5696TIP3    H238648   4.182   2.794   8.299
 5697TIP3   OH238649   5.151   2.115   8.759
 5697TIP3    H138650   5.123   2.103   8.850
 5697TIP3    H238651   5.212   2.043   8.743
 5698TIP3   OH238652   1.242   2.007   7.392
 5698TIP3    H138653   1.158   2.050   7.409
 5698TIP3    H238654   1.231   1.918   7.426
 5699TIP3   OH238655   4.734   6.721   7.727
 5699TIP3    H138656   4.785   6.713   7.808
 5699TIP3    H238657   4.758   6.643   7.677
 5700TIP3   OH238658   4.164   1.591   6.998
 5700TIP3    H138659   4.216   1.541   6.936
 5700TIP3    H238660   4.165   1.681   6.964
 5701TIP3   OH238661   2.356   3.358   0.773
 5701TIP3    H138662   2.272   3.350   0.819
 5701TIP3    H238663   2.391   3.270   0.771
 5702TIP3   OH238664   4.097   2.828   7.409
 5702TIP3    H138665   4.183   2.847   7.371
 5702TIP3    H238666   4.113   2.822   7.503
 5703TIP3   OH238667   0.226   1.186   8.677
 5703TIP3    H138668   0.294   1.124   8.705
 5703TIP3    H238669   0.144   1.149   8.710
 5704TIP3   OH238670   0.157   2.072   7.574
 5704TIP3    H138671   0.157   2.029   7.659
 5704TIP3    H238672   0.200   2.010   7.515
 5705TIP3   OH238673   3.518   3.608   1.686
 5705TIP3    H138674   3.553   3.696   1.699
 5705TIP3    H238675   3.536   3.588   1.594
 5706TIP3   OH238676   2.824   4.995   7.773
 5706TIP3    H138677   2.736   5.032   7.782
 5706TIP3    H238678   2.872   5.028   7.848
 5707TIP3   OH238679   0.895   0.528   1.397
 5707TIP3    H138680   0.838   0.568   1.331
 5707TIP3    H238681   0.954   0.472   1.347
 5708TIP3   OH238682   3.154   5.527   2.009
 5708TIP3    H138683   3.074   5.563   2.049
 5708TIP3    H238684   3.138   5.533   1.915
 5709TIP3   OH238685   4.565   1.199   1.182
 5709TIP3    H138686   4.537   1.285   1.151
 5709TIP3    H238687   4.486   1.146   1.181
 5710TIP3   OH238688   4.141   1.150   0.138
 5710TIP3    H138689   4.181   1.166   0.223
 5710TIP3    H238690   4.060   1.103   0.157
 5711TIP3   OH238691   3.062   2.992   7.812
 5711TIP3    H138692   2.980   3.023   7.774
 5711TIP3    H238693   3.038   2.912   7.860
 5712TIP3   OH238694   3.187   5.282   7.780
 5712TIP3    H138695   3.189   5.199   7.732
 5712TIP3    H238696   3.103   5.280   7.827
 5713TIP3   OH238697   5.962   3.407   8.235
 5713TIP3    H138698   6.032   3.460   8.197
 5713TIP3    H238699   6.002   3.321   8.248
 5714TIP3   OH238700   3.357   3.761   8.275
 5714TIP3    H138701   3.312   3.808   8.345
 5714TIP3    H238702   3.286   3.721   8.223
 5715TIP3   OH238703   5.632   4.431   0.978
 5715TIP3    H138704   5.660   4.441   1.069
 5715TIP3    H238705   5.595   4.343   0.974
 5716TIP3   OH238706   2.923   0.650   8.342
 5716TIP3    H138707   2.841   0.683   8.377
 5716TIP3    H238708   2.963   0.601   8.414
 5717TIP3   OH238709   2.811   5.069   2.080
 5717TIP3    H138710   2.834   5.036   1.993
 5717TIP3    H238711   2.892   5.109   2.112
 5718TIP3   OH238712   3.005   2.257   8.539
 5718TIP3    H138713   2.983   2.329   8.597
 5718TIP3    H238714   2.992   2.178   8.592
 5719TIP3   OH238715   3.749   4.387   7.557
 5719TIP3    H138716   3.676   4.437   7.520
 5719TIP3    H238717   3.753   4.414   7.648
 5720TIP3   OH238718   0.158   3.087   8.545
 5720TIP3    H138719   0.246   3.110   8.576
 5720TIP3    H238720   0.119   3.040   8.618
 5721TIP3   OH238721   1.810   4.197   2.769
 5721TIP3    H138722   1.831   4.280   2.725
 5721TIP3    H238723   1.785   4.138   2.698
 5722TIP3   OH238724   4.286   5.257   8.523
 5722TIP3    H138725   4.249   5.333   8.478
 5722TIP3    H238726   4.266   5.273   8.616
 5723TIP3   OH238727   5.436   3.680   7.418
 5723TIP3    H138728   5.390   3.632   7.349
 5723TIP3    H238729   5.367   3.705   7.479
 5724TIP3   OH238730   0.577   1.856   0.420
 5724TIP3    H138731   0.601   1.916   0.350
 5724TIP3    H238732   0.581   1.909   0.500
 5725TIP3   OH238733   5.830   0.386   7.096
 5725TIP3    H138734   5.787   0.328   7.159
 5725TIP3    H238735   5.764   0.402   7.029
 5726TIP3   OH238736   3.944   2.001   7.578
 5726TIP3    H138737   3.961   1.909   7.598
 5726TIP3    H238738   4.026   2.033   7.541
 5727TIP3   OH238739   5.346   0.835   7.248
 5727TIP3    H138740   5.345   0.894   7.324
 5727TIP3    H238741   5.417   0.774   7.266
 5728TIP3   OH238742   4.521   5.184   1.638
 5728TIP3    H138743   4.478   5.190   1.552
 5728TIP3    H238744   4.503   5.268   1.680
 5729TIP3   OH238745   0.902   5.912   2.173
 5729TIP3    H138746   0.813   5.910   2.209
 5729TIP3    H238747   0.959   5.895   2.248
 5730TIP3   OH238748   6.691   4.167   8.722
 5730TIP3    H138749   6.604   4.205   8.734
 5730TIP3    H238750   6.682   4.109   8.647
 5731TIP3   OH238751   4.725   0.720   6.476
 5731TIP3    H138752   4.793   0.785   6.492
 5731TIP3    H238753   4.768   0.636   6.493
 5732TIP3   OH238754   5.369   1.915   0.159
 5732TIP3    H138755   5.336   1.829   0.187
 5732TIP3    H238756   5.370   1.910   0.063
 5733TIP3   OH238757   3.293   1.381   7.668
 5733TIP3    H138758   3.266   1.319   7.600
 5733TIP3    H238759   3.361   1.334   7.716
 5734TIP3   OH238760   6.401   6.640   0.052
 5734TIP3    H138761   6.378   6.563   0.104
 5734TIP3    H238762   6.336   6.706   0.077
 5735TIP3   OH238763   1.018   4.661   1.145
 5735TIP3    H138764   1.086   4.700   1.090
 5735TIP3    H238765   0.952   4.629   1.083
 5736TIP3   OH238766   2.059   5.637   1.643
 5736TIP3    H138767   2.115   5.653   1.719
 5736TIP3    H238768   1.972   5.625   1.681
 5737TIP3   OH238769   3.296   1.238   0.922
 5737TIP3    H138770   3.213   1.273   0.889
 5737TIP3    H238771   3.271   1.167   0.980
 5738TIP3   OH238772   4.011   5.726   7.315
 5738TIP3    H138773   4.039   5.659   7.253
 5738TIP3    H238774   3.922   5.699   7.340
 5739TIP3   OH238775   0.795   1.915   0.085
 5739TIP3    H138776   0.723   1.969   0.119
 5739TIP3    H238777   0.869   1.976   0.078
 5740TIP3   OH238778   3.005   5.758   7.651
 5740TIP3    H138779   3.066   5.742   7.579
 5740TIP3    H238780   3.054   5.813   7.712
 5741TIP3   OH238781   4.822   2.241   7.369
 5741TIP3    H138782   4.880   2.209   7.438
 5741TIP3    H238783   4.737   2.201   7.387
 5742TIP3   OH238784   4.104   5.839   7.556
 5742TIP3    H138785   4.085   5.812   7.466
 5742TIP3    H238786   4.135   5.759   7.599
 5743TIP3   OH238787   3.150   6.007   8.671
 5743TIP3    H138788   3.189   6.094   8.676
 5743TIP3    H238789   3.060   6.022   8.640
 5744TIP3   OH238790   2.739   5.468   1.970
 5744TIP3    H138791   2.662   5.513   2.005
 5744TIP3    H238792   2.810   5.490   2.030
 5745TIP3   OH238793   4.805   6.555   6.650
 5745TIP3    H138794   4.802   6.517   6.738
 5745TIP3    H238795   4.896   6.581   6.637
 5746TIP3   OH238796   1.010   2.495   6.522
 5746TIP3    H138797   1.034   2.533   6.606
 5746TIP3    H238798   1.083   2.517   6.464
 5747TIP3   OH238799   0.104   0.099   7.019
 5747TIP3    H138800   0.138   0.125   6.933
 5747TIP3    H238801   0.029   0.157   7.033
 5748TIP3   OH238802   6.240   3.620   8.373
 5748TIP3    H138803   6.328   3.658   8.373
 5748TIP3    H238804   6.230   3.585   8.285
 5749TIP3   OH238805   2.113   2.586   8.428
 5749TIP3    H138806   2.183   2.549   8.373
 5749TIP3    H238807   2.145   2.673   8.451
 5750TIP3   OH238808   2.050   5.577   8.320
 5750TIP3    H138809   1.980   5.576   8.254
 5750TIP3    H238810   2.099   5.497   8.302
 5751TIP3   OH238811   1.270   3.205   0.107
 5751TIP3    H138812   1.358   3.194   0.070
 5751TIP3    H238813   1.283   3.264   0.181
 5752TIP3   OH238814   0.618   2.870   8.827
 5752TIP3    H138815   0.712   2.886   8.837
 5752TIP3    H238816   0.578   2.955   8.845
 5753TIP3   OH238817   2.875   2.146   0.555
 5753TIP3    H138818   2.843   2.219   0.502
 5753TIP3    H238819   2.959   2.176   0.589
 5754TIP3   OH238820   2.579   1.469   1.103
 5754TIP3    H138821   2.666   1.432   1.088
 5754TIP3    H238822   2.521   1.393   1.105
 5755TIP3   OH238823   3.529   4.423   8.011
 5755TIP3    H138824   3.447   4.376   7.994
 5755TIP3    H238825   3.516   4.465   8.095
 5756TIP3   OH238826   1.191   0.221   7.401
 5756TIP3    H138827   1.244   0.230   7.480
 5756TIP3    H238828   1.110   0.180   7.432
 5757TIP3   OH238829   3.105   0.794   8.165
 5757TIP3    H138830   3.149   0.845   8.233
 5757TIP3    H238831   3.028   0.757   8.208
 5758TIP3   OH238832   4.023   4.633   2.431
 5758TIP3    H138833   4.023   4.636   2.335
 5758TIP3    H238834   4.114   4.616   2.454
 5759TIP3   OH238835   2.389   6.747   7.726
 5759TIP3    H138836   2.344   0.011   7.672
 5759TIP3    H238837   2.449   6.702   7.666
 5760TIP3   OH238838   1.097   5.469   8.144
 5760TIP3    H138839   1.129   5.547   8.098
 5760TIP3    H238840   1.028   5.502   8.201
 5761TIP3   OH238841   1.054   1.149   6.781
 5761TIP3    H138842   0.970   1.169   6.823
 5761TIP3    H238843   1.030   1.102   6.701
 5762TIP3   OH238844   0.393   0.477   0.789
 5762TIP3    H138845   0.459   0.535   0.752
 5762TIP3    H238846   0.433   0.390   0.788
 5763TIP3   OH238847   1.266   6.101   1.088
 5763TIP3    H138848   1.254   6.015   1.128
 5763TIP3    H238849   1.323   6.148   1.149
 5764TIP3   OH238850   6.728   4.246   7.376
 5764TIP3    H138851   6.699   4.217   7.289
 5764TIP3    H238852   0.004   4.301   7.358
 5765TIP3   OH238853   6.320   6.776   8.199
 5765TIP3    H138854   6.238   0.021   8.220
 5765TIP3    H238855   6.388   0.025   8.245
 5766TIP3   OH238856   3.594   5.750   8.559
 5766TIP3    H138857   3.582   5.660   8.531
 5766TIP3    H238858   3.634   5.794   8.484
 5767TIP3   OH238859   4.069   1.371   8.267
 5767TIP3    H138860   4.059   1.442   8.331
 5767TIP3    H238861   4.096   1.415   8.186
 5768TIP3   OH238862   1.586   0.349   0.021
 5768TIP3    H138863   1.590   0.318   0.112
 5768TIP3    H238864   1.540   0.280   8.834
 5769TIP3   OH238865   5.879   6.225   8.472
 5769TIP3    H138866   5.856   6.296   8.532
 5769TIP3    H238867   5.920   6.160   8.528
 5770TIP3   OH238868   4.339   0.169   1.550
 5770TIP3    H138869   4.343   0.262   1.529
 5770TIP3    H238870   4.428   0.137   1.535
 5771TIP3   OH238871   2.140   3.765   7.777
 5771TIP3    H138872   2.211   3.829   7.767
 5771TIP3    H238873   2.067   3.803   7.729
 5772TIP3   OH238874   0.059   4.719   1.068
 5772TIP3    H138875   0.026   4.629   1.055
 5772TIP3    H238876   6.780   4.771   1.081
 5773TIP3   OH238877   1.132   0.453   0.383
 5773TIP3    H138878   1.067   0.521   0.363
 5773TIP3    H238879   1.213   0.500   0.400
 5774TIP3   OH238880   0.389   5.208   7.481
 5774TIP3    H138881   0.337   5.221   7.561
 5774TIP3    H238882   0.450   5.137   7.503
 5775TIP3   OH238883   0.223   0.311   8.274
 5775TIP3    H138884   0.265   0.264   8.346
 5775TIP3    H238885   0.132   0.321   8.303
 5776TIP3   OH238886   1.173   3.740   0.707
 5776TIP3    H138887   1.101   3.804   0.707
 5776TIP3    H238888   1.235   3.774   0.772
 5777TIP3   OH238889   0.182   2.638   1.214
 5777TIP3    H138890   0.134   2.582   1.153
 5777TIP3    H238891   0.256   2.585   1.243
 5778TIP3   OH238892   1.602   4.609   0.978
 5778TIP3    H138893   1.657   4.560   0.917
 5778TIP3    H238894   1.517   4.615   0.935
 5779TIP3   OH238895   3.276   4.306   1.327
 5779TIP3    H138896   3.193   4.263   1.306
 5779TIP3    H238897   3.250   4.387   1.371
 5780TIP3   OH238898   2.208   1.895   0.734
 5780TIP3    H138899   2.274   1.918   0.801
 5780TIP3    H238900   2.124   1.904   0.779
 5781TIP3   OH238901   3.030   5.927   1.904
 5781TIP3    H138902   3.120   5.950   1.878
 5781TIP3    H238903   3.039   5.839   1.942
 5782TIP3   OH238904   1.058   0.811   1.050
 5782TIP3    H138905   0.965   0.833   1.058
 5782TIP3    H238906   1.102   0.895   1.042
 5783TIP3   OH238907   4.922   6.227   8.513
 5783TIP3    H138908   4.949   6.303   8.461
 5783TIP3    H238909   5.004   6.193   8.549
 5784TIP3   OH238910   3.068   0.237   0.938
 5784TIP3    H138911   3.133   0.186   0.987
 5784TIP3    H238912   3.059   0.318   0.988
 5785TIP3   OH238913   3.734   0.398   7.905
 5785TIP3    H138914   3.673   0.464   7.872
 5785TIP3    H238915   3.806   0.449   7.941
 5786TIP3   OH238916   4.799   3.480   0.616
 5786TIP3    H138917   4.777   3.388   0.603
 5786TIP3    H238918   4.882   3.479   0.664
 5787TIP3   OH238919   1.649   3.931   0.576
 5787TIP3    H138920   1.652   4.019   0.537
 5787TIP3    H238921   1.691   3.941   0.661
 5788TIP3   OH238922   6.477   2.593   8.069
 5788TIP3    H138923   6.427   2.515   8.093
 5788TIP3    H238924   6.413   2.650   8.026
 5789TIP3   OH238925   0.962   0.493   8.677
 5789TIP3    H138926   0.907   0.529   8.607
 5789TIP3    H238927   1.040   0.550   8.678
 5790TIP3   OH238928   5.654   6.526   0.113
 5790TIP3    H138929   5.595   6.545   0.040
 5790TIP3    H238930   5.688   6.611   0.139
 5791TIP3   OH238931   2.679   5.972   0.792
 5791TIP3    H138932   2.731   6.043   0.829
 5791TIP3    H238933   2.672   5.992   0.699
 5792TIP3   OH238934   5.334   5.276   2.216
 5792TIP3    H138935   5.428   5.256   2.207
 5792TIP3    H238936   5.291   5.191   2.208
 5793TIP3   OH238937   3.090   0.543   2.286
 5793TIP3    H138938   3.110   0.585   2.203
 5793TIP3    H238939   3.176   0.522   2.323
 5794TIP3   OH238940   0.035   2.014   7.830
 5794TIP3    H138941   0.103   1.962   7.874
 5794TIP3    H238942   6.770   1.950   7.803
 5795TIP3   OH238943   3.708   2.808   8.804
 5795TIP3    H138944   3.669   2.723   8.826
 5795TIP3    H238945   3.751   2.836   0.024
 5796TIP3   OH238946   5.906   0.751   7.496
 5796TIP3    H138947   5.888   0.687   7.427
 5796TIP3    H238948   5.956   0.703   7.561
 5797TIP3   OH238949   1.467   1.851   6.703
 5797TIP3    H138950   1.487   1.918   6.638
 5797TIP3    H238951   1.451   1.771   6.652
 5798TIP3   OH238952   4.303   2.322   1.194
 5798TIP3    H138953   4.268   2.309   1.106
 5798TIP3    H238954   4.396   2.341   1.181
 5799TIP3   OH238955   2.012   5.439   1.051
 5799TIP3    H138956   1.917   5.453   1.060
 5799TIP3    H238957   2.050   5.479   1.129
 5800TIP3   OH238958   0.693   5.479   8.080
 5800TIP3    H138959   0.608   5.522   8.069
 5800TIP3    H238960   0.752   5.527   8.022
 5801TIP3   OH238961   4.937   6.761   0.462
 5801TIP3    H138962   4.945   6.780   0.555
 5801TIP3    H238963   4.872   0.024   0.430
 5802TIP3   OH238964   5.457   5.547   8.329
 5802TIP3    H138965   5.374   5.554   8.284
 5802TIP3    H238966   5.516   5.606   8.282
 5803TIP3   OH238967   6.222   6.257   8.331
 5803TIP3    H138968   6.286   6.328   8.335
 5803TIP3    H238969   6.262   6.185   8.378
 5804TIP3   OH238970   6.152   5.003   8.751
 5804TIP3    H138971   6.058   5.009   8.733
 5804TIP3    H238972   6.167   5.063   8.824
 5805TIP3   OH238973   4.932   5.161   0.487
 5805TIP3    H138974   4.903   5.087   0.433
 5805TIP3    H238975   4.988   5.213   0.429
 5806TIP3   OH238976   4.534   4.403   8.677
 5806TIP3    H138977   4.533   4.331   8.739
 5806TIP3    H238978   4.478   4.374   8.605
 5807TIP3   OH238979   3.347   1.012   0.297
 5807TIP3    H138980   3.400   1.059   0.233
 5807TIP3    H238981   3.354   0.920   0.271
 5808TIP3   OH238982   1.867   0.343   8.670
 5808TIP3    H138983   1.916   0.424   8.681
 5808TIP3    H238984   1.912   0.280   8.728
 5809TIP3   OH238985   4.715   5.444   6.807
 5809TIP3    H138986   4.714   5.358   6.763
 5809TIP3    H238987   4.806   5.471   6.804
 5810TIP3   OH238988   6.051   4.140   0.753
 5810TIP3    H138989   5.972   4.159   0.703
 5810TIP3    H238990   6.092   4.068   0.705
 5811TIP3   OH238991   6.197   3.540   6.934
 5811TIP3    H138992   6.103   3.532   6.925
 5811TIP3    H238993   6.212   3.633   6.950
 5812TIP3   OH238994   5.430   2.343   0.827
 5812TIP3    H138995   5.437   2.247   0.825
 5812TIP3    H238996   5.520   2.373   0.812
 5813TIP3   OH238997   4.614   0.723   7.500
 5813TIP3    H138998   4.705   0.743   7.522
 5813TIP3    H238999   4.566   0.743   7.581
 5814TIP3   OH239000   4.824   3.903   2.008
 5814TIP3    H139001   4.858   3.885   2.096
 5814TIP3    H239002   4.901   3.928   1.957
 5815TIP3   OH239003   6.740   6.095   7.156
 5815TIP3    H139004   0.014   6.087   7.095
 5815TIP3    H239005   6.769   6.048   7.234
 5816TIP3   OH239006   4.460   6.719   1.048
 5816TIP3    H139007   4.434   6.724   0.956
 5816TIP3    H239008   4.407   6.648   1.084
 5817TIP3   OH239009   3.720   0.590   7.673
 5817TIP3    H139010   3.685   0.549   7.594
 5817TIP3    H239011   3.813   0.604   7.655
 5818TIP3   OH239012   5.978   0.163   7.399
 5818TIP3    H139013   6.035   0.122   7.463
 5818TIP3    H239014   5.892   0.125   7.415
 5819TIP3   OH239015   0.885   4.466   0.838
 5819TIP3    H139016   0.914   4.557   0.835
 5819TIP3    H239017   0.913   4.430   0.754
 5820TIP3   OH239018   5.637   1.981   8.629
 5820TIP3    H139019   5.641   2.072   8.600
 5820TIP3    H239020   5.702   1.975   8.699
 5821TIP3   OH239021   5.901   6.197   0.864
 5821TIP3    H139022   5.810   6.178   0.886
 5821TIP3    H239023   5.929   6.262   0.928
 5822TIP3   OH239024   2.078   0.349   0.733
 5822TIP3    H139025   2.143   0.280   0.746
 5822TIP3    H239026   2.032   0.354   0.817
 5823TIP3   OH239027   2.359   1.647   7.207
 5823TIP3    H139028   2.423   1.622   7.140
 5823TIP3    H239029   2.275   1.641   7.162
 5824TIP3   OH239030   4.924   2.261   7.105
 5824TIP3    H139031   5.004   2.234   7.152
 5824TIP3    H239032   4.854   2.250   7.169
 5825TIP3   OH239033   2.536   6.645   8.678
 5825TIP3    H139034   2.623   6.665   8.644
 5825TIP3    H239035   2.503   6.728   8.713
 5826TIP3   OH239036   4.615   6.650   2.681
 5826TIP3    H139037   4.633   6.729   2.732
 5826TIP3    H239038   4.587   6.586   2.745
 5827TIP3   OH239039   6.218   2.729   7.592
 5827TIP3    H139040   6.247   2.739   7.501
 5827TIP3    H239041   6.123   2.718   7.586
 5828TIP3   OH239042   5.933   6.578   0.328
 5828TIP3    H139043   5.920   6.585   0.233
 5828TIP3    H239044   6.028   6.585   0.340
 5829TIP3   OH239045   5.819   3.307   0.712
 5829TIP3    H139046   5.736   3.310   0.664
 5829TIP3    H239047   5.815   3.226   0.762
 5830TIP3   OH239048   2.716   5.650   0.357
 5830TIP3    H139049   2.650   5.719   0.362
 5830TIP3    H239050   2.766   5.670   0.278
 5831TIP3   OH239051   4.054   4.484   0.102
 5831TIP3    H139052   4.023   4.454   0.187
 5831TIP3    H239053   4.147   4.500   0.114
 5832TIP3   OH239054   4.628   1.190   8.769
 5832TIP3    H139055   4.600   1.246   8.841
 5832TIP3    H239056   4.546   1.154   8.734
 5833TIP3   OH239057   1.146   0.109   8.557
 5833TIP3    H139058   1.068   0.146   8.599
 5833TIP3    H239059   1.203   0.185   8.542
 5834TIP3   OH239060   1.798   2.975   0.206
 5834TIP3    H139061   1.774   2.990   0.298
 5834TIP3    H239062   1.835   3.059   0.177
 5835TIP3   OH239063   5.401   4.829   8.000
 5835TIP3    H139064   5.441   4.759   7.949
 5835TIP3    H239065   5.308   4.824   7.979
 5836TIP3   OH239066   0.284   6.375   0.186
 5836TIP3    H139067   0.224   6.352   0.115
 5836TIP3    H239068   0.350   6.431   0.145
 5837TIP3   OH239069   2.740   3.420   0.334
 5837TIP3    H139070   2.698   3.404   0.249
 5837TIP3    H239071   2.687   3.369   0.396
 5838TIP3   OH239072   1.053   0.569   1.852
 5838TIP3    H139073   1.009   0.540   1.932
 5838TIP3    H239074   0.982   0.605   1.797
 5839TIP3   OH239075   5.597   6.306   7.535
 5839TIP3    H139076   5.578   6.327   7.443
 5839TIP3    H239077   5.676   6.356   7.555
 5840TIP3   OH239078   0.329   3.665   2.475
 5840TIP3    H139079   0.416   3.682   2.511
 5840TIP3    H239080   0.331   3.572   2.451
 5841TIP3   OH239081   3.048   6.106   7.474
 5841TIP3    H139082   2.999   6.159   7.536
 5841TIP3    H239083   2.982   6.066   7.418
 5842TIP3   OH239084   2.267   0.787   1.573
 5842TIP3    H139085   2.174   0.773   1.553
 5842TIP3    H239086   2.307   0.803   1.487
 5843TIP3   OH239087   0.353   5.847   1.349
 5843TIP3    H139088   0.435   5.810   1.380
 5843TIP3    H239089   0.379   5.919   1.291
 5844TIP3   OH239090   6.471   5.250   6.558
 5844TIP3    H139091   6.380   5.277   6.571
 5844TIP3    H239092   6.481   5.171   6.611
 5845TIP3   OH239093   5.277   0.320   7.575
 5845TIP3    H139094   5.326   0.386   7.624
 5845TIP3    H239095   5.242   0.261   7.642
 5846TIP3   OH239096   4.199   0.710   8.182
 5846TIP3    H139097   4.251   0.764   8.242
 5846TIP3    H239098   4.212   0.620   8.212
 5847TIP3   OH239099   3.900   4.663   1.933
 5847TIP3    H139100   3.978   4.673   1.878
 5847TIP3    H239101   3.934   4.641   2.020
 5848TIP3   OH239102   4.633   2.512   7.604
 5848TIP3    H139103   4.724   2.533   7.626
 5848TIP3    H239104   4.634   2.417   7.589
 5849TIP3   OH239105   1.718   1.796   8.493
 5849TIP3    H139106   1.766   1.805   8.575
 5849TIP3    H239107   1.767   1.729   8.444
 5850TIP3   OH239108   5.301   5.517   0.063
 5850TIP3    H139109   5.269   5.502   0.152
 5850TIP3    H239110   5.335   5.607   0.065
 5851TIP3   OH239111   3.668   0.923   0.353
 5851TIP3    H139112   3.612   0.846   0.361
 5851TIP3    H239113   3.621   0.980   0.292
 5852TIP3   OH239114   3.200   1.154   8.605
 5852TIP3    H139115   3.260   1.100   8.657
 5852TIP3    H239116   3.117   1.152   8.654
 5853TIP3   OH239117   1.355   0.571   0.057
 5853TIP3    H139118   1.438   0.567   0.009
 5853TIP3    H239119   1.378   0.612   0.140
 5854TIP3   OH239120   5.424   2.967   7.188
 5854TIP3    H139121   5.343   2.917   7.204
 5854TIP3    H239122   5.484   2.903   7.151
 5855TIP3   OH239123   2.334   2.297   7.332
 5855TIP3    H139124   2.338   2.256   7.246
 5855TIP3    H239125   2.280   2.238   7.385
 5856TIP3   OH239126   3.149   6.469   0.981
 5856TIP3    H139127   3.142   6.391   0.926
 5856TIP3    H239128   3.116   6.540   0.925
 5857TIP3   OH239129   6.322   1.658   7.430
 5857TIP3    H139130   6.378   1.729   7.461
 5857TIP3    H239131   6.289   1.689   7.346
 5858TIP3   OH239132   3.960   6.342   0.919
 5858TIP3    H139133   4.017   6.420   0.917
 5858TIP3    H239134   3.922   6.343   1.006
 5859TIP3   OH239135   0.964   5.160   6.893
 5859TIP3    H139136   0.961   5.083   6.835
 5859TIP3    H239137   0.918   5.131   6.971
 5860TIP3   OH239138   1.137   1.373   2.371
 5860TIP3    H139139   1.104   1.441   2.431
 5860TIP3    H239140   1.176   1.422   2.299
 5861TIP3   OH239141   2.918   5.479   2.187
 5861TIP3    H139142   2.840   5.492   2.241
 5861TIP3    H239143   2.961   5.401   2.224
 5862TIP3   OH239144   3.410   3.234   8.758
 5862TIP3    H139145   3.412   3.319   8.801
 5862TIP3    H239146   3.357   3.179   8.815
 5863TIP3   OH239147   4.604   3.199   8.740
 5863TIP3    H139148   4.549   3.235   8.809
 5863TIP3    H239149   4.543   3.156   8.680
 5864TIP3   OH239150   3.909   1.731   7.701
 5864TIP3    H139151   3.847   1.674   7.658
 5864TIP3    H239152   3.895   1.716   7.795
 5865TIP3   OH239153   3.641   5.049   8.394
 5865TIP3    H139154   3.705   5.062   8.324
 5865TIP3    H239155   3.684   4.990   8.455
 5866TIP3   OH239156   2.800   0.281   7.631
 5866TIP3    H139157   2.881   0.230   7.634
 5866TIP3    H239158   2.829   0.372   7.631
 5867TIP3   OH239159   2.611   6.284   0.512
 5867TIP3    H139160   2.608   6.340   0.590
 5867TIP3    H239161   2.566   6.335   0.445
 5868TIP3   OH239162   6.159   1.086   8.067
 5868TIP3    H139163   6.188   1.097   7.977
 5868TIP3    H239164   6.137   1.174   8.097
 5869TIP3   OH239165   3.651   0.648   0.017
 5869TIP3    H139166   3.596   0.606   0.083
 5869TIP3    H239167   3.701   0.577   8.839
 5870TIP3   OH239168   3.162   2.171   0.333
 5870TIP3    H139169   3.241   2.204   0.289
 5870TIP3    H239170   3.193   2.144   0.420
 5871TIP3   OH239171   2.274   0.083   8.205
 5871TIP3    H139172   2.360   0.076   8.246
 5871TIP3    H239173   2.224   0.010   8.241
 5872TIP3   OH239174   4.314   6.722   1.391
 5872TIP3    H139175   4.399   6.736   1.350
 5872TIP3    H239176   4.305   6.795   1.453
 5873TIP3   OH239177   3.026   2.965   6.231
 5873TIP3    H139178   3.121   2.955   6.235
 5873TIP3    H239179   3.002   3.003   6.315
 5874TIP3   OH239180   1.941   0.902   0.070
 5874TIP3    H139181   1.900   0.960   0.006
 5874TIP3    H239182   1.907   0.815   0.048
 5875TIP3   OH239183   2.888   0.430   0.070
 5875TIP3    H139184   2.979   0.400   0.060
 5875TIP3    H239185   2.893   0.525   0.062
 5876TIP3   OH239186   3.129   1.365   1.734
 5876TIP3    H139187   3.109   1.456   1.712
 5876TIP3    H239188   3.090   1.352   1.820
 5877TIP3   OH239189   2.106   5.479   6.457
 5877TIP3    H139190   2.075   5.443   6.540
 5877TIP3    H239191   2.088   5.572   6.464
 5878TIP3   OH239192   3.515   2.875   2.213
 5878TIP3    H139193   3.584   2.825   2.169
 5878TIP3    H239194   3.513   2.959   2.167
 5879TIP3   OH239195   3.066   2.634   1.862
 5879TIP3    H139196   3.119   2.602   1.935
 5879TIP3    H239197   3.004   2.563   1.845
 5880TIP3   OH239198   4.950   3.632   7.377
 5880TIP3    H139199   4.954   3.618   7.472
 5880TIP3    H239200   4.999   3.713   7.362
 5881TIP3   OH239201   0.084   0.904   7.585
 5881TIP3    H139202   0.146   0.841   7.622
 5881TIP3    H239203   0.013   0.850   7.550
 5882TIP3   OH239204   1.700   0.298   6.759
 5882TIP3    H139205   1.621   0.269   6.712
 5882TIP3    H239206   1.696   0.393   6.756
 5883TIP3   OH239207   4.244   4.518   0.898
 5883TIP3    H139208   4.196   4.543   0.819
 5883TIP3    H239209   4.189   4.452   0.940
 5884TIP3   OH239210   1.612   4.859   2.049
 5884TIP3    H139211   1.647   4.780   2.090
 5884TIP3    H239212   1.518   4.845   2.047
 5885TIP3   OH239213   0.727   3.280   7.416
 5885TIP3    H139214   0.717   3.207   7.356
 5885TIP3    H239215   0.821   3.298   7.417
 5886TIP3   OH239216   5.029   5.945   0.038
 5886TIP3    H139217   4.936   5.949   0.014
 5886TIP3    H239218   5.035   5.999   0.117
 5887TIP3   OH239219   2.029   6.080   1.835
 5887TIP3    H139220   2.110   6.037   1.862
 5887TIP3    H239221   1.969   6.008   1.814
 5888TIP3   OH239222   0.819   1.864   1.521
 5888TIP3    H139223   0.832   1.917   1.599
 5888TIP3    H239224   0.784   1.925   1.456
 5889TIP3   OH239225   5.560   5.699   0.458
 5889TIP3    H139226   5.608   5.780   0.443
 5889TIP3    H239227   5.610   5.632   0.411
 5890TIP3   OH239228   2.102   4.740   8.761
 5890TIP3    H139229   2.165   4.746   8.833
 5890TIP3    H239230   2.035   4.806   8.782
 5891TIP3   OH239231   2.601   0.447   1.732
 5891TIP3    H139232   2.518   0.496   1.733
 5891TIP3    H239233   2.647   0.476   1.810
 5892TIP3   OH239234   6.175   1.055   2.051
 5892TIP3    H139235   6.166   1.137   2.002
 5892TIP3    H239236   6.267   1.031   2.042
 5893TIP3   OH239237   3.887   5.657   1.262
 5893TIP3    H139238   3.970   5.625   1.227
 5893TIP3    H239239   3.905   5.676   1.354
 5894TIP3   OH239240   1.418   1.398   1.788
 5894TIP3    H139241   1.372   1.470   1.745
 5894TIP3    H239242   1.354   1.326   1.789
 5895TIP3   OH239243   2.824   2.603   1.479
 5895TIP3    H139244   2.910   2.572   1.508
 5895TIP3    H239245   2.819   2.576   1.387
 5896TIP3   OH239246   4.646   6.371   1.045
 5896TIP3    H139247   4.718   6.337   1.097
 5896TIP3    H239248   4.688   6.420   0.974
 5897TIP3   OH239249   0.995   3.838   1.493
 5897TIP3    H139250   1.084   3.806   1.505
 5897TIP3    H239251   0.949   3.813   1.573
 5898TIP3   OH239252   3.429   3.185   8.242
 5898TIP3    H139253   3.450   3.188   8.335
 5898TIP3    H239254   3.334   3.175   8.238
 5899TIP3   OH239255   6.678   1.847   7.669
 5899TIP3    H139256   6.747   1.855   7.603
 5899TIP3    H239257   6.599   1.880   7.626
 5900TIP3   OH239258   2.716   4.682   0.321
 5900TIP3    H139259   2.700   4.709   0.230
 5900TIP3    H239260   2.682   4.593   0.327
 5901TIP3   OH239261   2.693   0.384   8.224
 5901TIP3    H139262   2.633   0.458   8.234
 5901TIP3    H239263   2.729   0.371   8.312
 5902TIP3   OH239264   4.669   2.541   8.790
 5902TIP3    H139265   4.709   2.455   8.805
 5902TIP3    H239266   4.732   2.586   8.734
 5903TIP3   OH239267   1.373   2.486   0.096
 5903TIP3    H139268   1.390   2.580   0.107
 5903TIP3    H239269   1.457   2.444   0.114
 5904TIP3   OH239270   3.097   2.542   7.316
 5904TIP3    H139271   3.073   2.632   7.295
 5904TIP3    H239272   3.037   2.517   7.386
 5905TIP3   OH239273   0.459   0.770   7.197
 5905TIP3    H139274   0.364   0.779   7.206
 5905TIP3    H239275   0.475   0.676   7.203
 5906TIP3   OH239276   3.223   4.610   7.274
 5906TIP3    H139277   3.252   4.526   7.238
 5906TIP3    H239278   3.127   4.605   7.273
 5907TIP3   OH239279   2.517   4.190   0.645
 5907TIP3    H139280   2.504   4.162   0.735
 5907TIP3    H239281   2.612   4.182   0.631
 5908TIP3   OH239282   3.749   1.023   1.748
 5908TIP3    H139283   3.815   1.079   1.790
 5908TIP3    H239284   3.788   0.935   1.751
 5909TIP3   OH239285   1.605   5.146   2.099
 5909TIP3    H139286   1.637   5.058   2.079
 5909TIP3    H239287   1.513   5.145   2.070
 5910TIP3   OH239288   4.312   5.332   1.925
 5910TIP3    H139289   4.258   5.320   2.003
 5910TIP3    H239290   4.400   5.305   1.952
 5911TIP3   OH239291   5.190   3.522   0.305
 5911TIP3    H139292   5.142   3.470   0.370
 5911TIP3    H239293   5.231   3.592   0.355
 5912TIP3   OH239294   1.334   1.255   1.504
 5912TIP3    H139295   1.338   1.196   1.579
 5912TIP3    H239296   1.408   1.230   1.449
 5913TIP3   OH239297   3.732   0.318   7.603
 5913TIP3    H139298   3.823   0.329   7.633
 5913TIP3    H239299   3.680   0.322   7.683
 5914TIP3   OH239300   5.268   0.653   1.325
 5914TIP3    H139301   5.351   0.678   1.367
 5914TIP3    H239302   5.207   0.640   1.398
 5915TIP3   OH239303   0.358   4.389   7.022
 5915TIP3    H139304   0.270   4.376   7.059
 5915TIP3    H239305   0.345   4.453   6.952
 5916TIP3   OH239306   0.875   6.225   7.438
 5916TIP3    H139307   0.799   6.283   7.426
 5916TIP3    H239308   0.844   6.140   7.407
 5917TIP3   OH239309   5.956   4.216   7.293
 5917TIP3    H139310   5.982   4.171   7.374
 5917TIP3    H239311   5.988   4.305   7.305
 5918TIP3   OH239312   0.839   5.147   1.899
 5918TIP3    H139313   0.806   5.186   1.818
 5918TIP3    H239314   0.875   5.062   1.871
 5919TIP3   OH239315   1.297   0.054   0.073
 5919TIP3    H139316   1.329   6.769   0.104
 5919TIP3    H239317   1.217   0.069   0.123
 5920TIP3   OH239318   4.331   0.073   2.298
 5920TIP3    H139319   4.255   0.129   2.311
 5920TIP3    H239320   4.319   0.002   2.361
 5921TIP3   OH239321   1.891   3.973   0.070
 5921TIP3    H139322   1.944   4.034   0.020
 5921TIP3    H239323   1.801   4.003   0.058
 5922TIP3   OH239324   2.212   6.318   0.601
 5922TIP3    H139325   2.204   6.412   0.582
 5922TIP3    H239326   2.145   6.277   0.547
 5923TIP3   OH239327   5.737   1.731   2.130
 5923TIP3    H139328   5.825   1.750   2.099
 5923TIP3    H239329   5.681   1.751   2.054
 5924TIP3   OH239330   2.859   4.471   1.113
 5924TIP3    H139331   2.861   4.456   1.208
 5924TIP3    H239332   2.934   4.527   1.096
 5925TIP3   OH239333   5.505   1.386   0.551
 5925TIP3    H139334   5.519   1.322   0.620
 5925TIP3    H239335   5.532   1.341   0.471
 5926TIP3   OH239336   6.203   5.270   6.630
 5926TIP3    H139337   6.120   5.230   6.656
 5926TIP3    H239338   6.200   5.358   6.669
 5927TIP3   OH239339   5.044   3.159   7.341
 5927TIP3    H139340   5.085   3.238   7.307
 5927TIP3    H239341   4.981   3.134   7.273
 5928TIP3   OH239342   6.429   0.854   1.295
 5928TIP3    H139343   6.447   0.763   1.317
 5928TIP3    H239344   6.368   0.849   1.222
 5929TIP3   OH239345   2.603   4.862   8.686
 5929TIP3    H139346   2.637   4.926   8.624
 5929TIP3    H239347   2.515   4.842   8.654
 5930TIP3   OH239348   6.230   1.843   8.590
 5930TIP3    H139349   6.250   1.933   8.568
 5930TIP3    H239350   6.286   1.823   8.665
 5931TIP3   OH239351   0.744   0.659   0.130
 5931TIP3    H139352   0.793   0.739   0.112
 5931TIP3    H239353   0.653   0.687   0.134
 5932TIP3   OH239354   2.191   3.752   7.020
 5932TIP3    H139355   2.272   3.742   6.970
 5932TIP3    H239356   2.128   3.788   6.957
 5933TIP3   OH239357   5.345   3.868   2.543
 5933TIP3    H139358   5.399   3.805   2.496
 5933TIP3    H239359   5.389   3.952   2.531
 5934TIP3   OH239360   6.295   3.405   1.238
 5934TIP3    H139361   6.355   3.394   1.165
 5934TIP3    H239362   6.320   3.337   1.300
 5935TIP3   OH239363   2.051   3.544   7.904
 5935TIP3    H139364   2.030   3.589   7.986
 5935TIP3    H239365   2.080   3.613   7.845
 5936TIP3   OH239366   4.064   0.912   6.628
 5936TIP3    H139367   4.118   0.987   6.654
 5936TIP3    H239368   3.976   0.948   6.618
 5937TIP3   OH239369   6.794   0.690   6.518
 5937TIP3    H139370   0.076   0.644   6.530
 5937TIP3    H239371   6.794   0.717   6.426
 5938TIP3   OH239372   2.816   0.317   2.130
 5938TIP3    H139373   2.831   0.327   2.224
 5938TIP3    H239374   2.753   0.244   2.124
 5939TIP3   OH239375   0.981   4.899   2.343
 5939TIP3    H139376   0.947   4.988   2.332
 5939TIP3    H239377   0.904   4.846   2.362
 5940TIP3   OH239378   4.426   0.557   7.021
 5940TIP3    H139379   4.468   0.471   7.016
 5940TIP3    H239380   4.487   0.610   7.073
 5941TIP3   OH239381   3.553   6.539   1.396
 5941TIP3    H139382   3.586   6.580   1.476
 5941TIP3    H239383   3.537   6.612   1.336
 5942TIP3   OH239384   1.827   4.968   1.092
 5942TIP3    H139385   1.864   4.905   1.030
 5942TIP3    H239386   1.884   5.045   1.083
 5943TIP3   OH239387   2.086   4.247   8.412
 5943TIP3    H139388   2.057   4.157   8.429
 5943TIP3    H239389   2.109   4.282   8.499
 5944TIP3   OH239390   0.300   2.174   8.024
 5944TIP3    H139391   0.251   2.251   8.051
 5944TIP3    H239392   0.308   2.183   7.929
 5945TIP3   OH239393   3.567   0.066   1.833
 5945TIP3    H139394   3.505   0.130   1.798
 5945TIP3    H239395   3.652   0.107   1.824
 5946TIP3   OH239396   6.792   2.875   1.561
 5946TIP3    H139397   6.719   2.857   1.501
 5946TIP3    H239398   6.759   2.848   1.647
 5947TIP3   OH239399   5.251   1.930   6.558
 5947TIP3    H139400   5.170   1.914   6.605
 5947TIP3    H239401   5.297   1.846   6.559
 5948TIP3   OH239402   3.199   3.837   8.498
 5948TIP3    H139403   3.154   3.756   8.521
 5948TIP3    H239404   3.175   3.898   8.568
 5949TIP3   OH239405   4.282   6.569   8.174
 5949TIP3    H139406   4.244   6.483   8.195
 5949TIP3    H239407   4.368   6.549   8.137
 5950TIP3   OH239408   1.798   6.751   7.991
 5950TIP3    H139409   1.884   6.717   7.966
 5950TIP3    H239410   1.806   0.046   7.980
 5951TIP3   OH239411   4.313   3.281   1.618
 5951TIP3    H139412   4.299   3.247   1.706
 5951TIP3    H239413   4.340   3.205   1.567
 5952TIP3   OH239414   2.305   2.000   2.136
 5952TIP3    H139415   2.341   2.068   2.193
 5952TIP3    H239416   2.376   1.982   2.074
 5953TIP3   OH239417   3.643   1.783   7.576
 5953TIP3    H139418   3.573   1.807   7.638
 5953TIP3    H239419   3.681   1.867   7.550
 5954TIP3   OH239420   0.849   4.087   1.671
 5954TIP3    H139421   0.941   4.109   1.681
 5954TIP3    H239422   0.803   4.171   1.680
 5955TIP3   OH239423   5.691   5.518   1.780
 5955TIP3    H139424   5.653   5.598   1.816
 5955TIP3    H239425   5.669   5.450   1.843
 5956TIP3   OH239426   1.635   5.609   2.031
 5956TIP3    H139427   1.641   5.554   2.110
 5956TIP3    H239428   1.555   5.660   2.043
 5957TIP3   OH239429   4.250   3.343   1.318
 5957TIP3    H139430   4.178   3.344   1.380
 5957TIP3    H239431   4.292   3.429   1.329
 5958TIP3   OH239432   0.977   2.413   8.094
 5958TIP3    H139433   1.004   2.371   8.012
 5958TIP3    H239434   1.058   2.446   8.132
 5959TIP3   OH239435   4.965   2.739   7.354
 5959TIP3    H139436   4.970   2.648   7.324
 5959TIP3    H239437   4.909   2.782   7.290
 5960TIP3   OH239438   5.410   3.207   8.603
 5960TIP3    H139439   5.421   3.295   8.637
 5960TIP3    H239440   5.345   3.166   8.660
 5961TIP3   OH239441   0.714   5.496   6.918
 5961TIP3    H139442   0.675   5.556   6.854
 5961TIP3    H239443   0.647   5.429   6.933
 5962TIP3   OH239444   5.622   6.185   0.966
 5962TIP3    H139445   5.639   6.276   0.942
 5962TIP3    H239446   5.547   6.189   1.026
 5963TIP3   OH239447   5.293   5.823   8.538
 5963TIP3    H139448   5.278   5.878   8.614
 5963TIP3    H239449   5.230   5.751   8.547
 5964TIP3   OH239450   6.622   6.411   8.549
 5964TIP3    H139451   6.716   6.418   8.564
 5964TIP3    H239452   6.583   6.429   8.635
 5965TIP3   OH239453   4.243   2.528   8.485
 5965TIP3    H139454   4.229   2.606   8.432
 5965TIP3    H239455   4.338   2.513   8.479
 5966TIP3   OH239456   1.126   2.082   1.455
 5966TIP3    H139457   1.120   2.053   1.546
 5966TIP3    H239458   1.096   2.007   1.403
 5967TIP3   OH239459   6.571   6.286   1.218
 5967TIP3    H139460   6.605   6.213   1.165
 5967TIP3    H239461   6.649   6.331   1.251
 5968TIP3   OH239462   3.585   6.279   7.214
 5968TIP3    H139463   3.565   6.252   7.304
 5968TIP3    H239464   3.502   6.314   7.180
 5969TIP3   OH239465   5.708   2.408   1.185
 5969TIP3    H139466   5.624   2.439   1.153
 5969TIP3    H239467   5.700   2.411   1.281
 5970TIP3   OH239468   6.124   6.002   1.143
 5970TIP3    H139469   6.178   5.923   1.143
 5970TIP3    H239470   6.186   6.072   1.164
 5971TIP3   OH239471   2.042   2.799   0.847
 5971TIP3    H139472   2.020   2.797   0.940
 5971TIP3    H239473   1.962   2.771   0.803
 5972TIP3   OH239474   3.605   6.112   1.786
 5972TIP3    H139475   3.594   6.207   1.779
 5972TIP3    H239476   3.516   6.079   1.801
 5973TIP3   OH239477   3.549   4.755   6.430
 5973TIP3    H139478   3.474   4.781   6.376
 5973TIP3    H239479   3.602   4.700   6.372
 5974TIP3   OH239480   5.885   4.287   1.784
 5974TIP3    H139481   5.805   4.308   1.832
 5974TIP3    H239482   5.915   4.204   1.822
 5975TIP3   OH239483   0.590   6.688   7.468
 5975TIP3    H139484   0.594   6.766   7.523
 5975TIP3    H239485   0.666   6.696   7.410
 5976TIP3   OH239486   0.077   4.050   0.541
 5976TIP3    H139487   0.123   4.003   0.471
 5976TIP3    H239488   0.122   4.134   0.546
 5977TIP3   OH239489   5.448   5.064   0.429
 5977TIP3    H139490   5.365   5.065   0.381
 5977TIP3    H239491   5.422   5.068   0.521
 5978TIP3   OH239492   3.253   4.662   8.848
 5978TIP3    H139493   3.220   4.636   0.073
 5978TIP3    H239494   3.234   4.588   8.790
 5979TIP3   OH239495   6.767   4.289   0.239
 5979TIP3    H139496   0.039   4.275   0.299
 5979TIP3    H239497   0.006   4.286   0.152
 5980TIP3   OH239498   6.133   4.196   1.423
 5980TIP3    H139499   6.155   4.130   1.489
 5980TIP3    H239500   6.082   4.262   1.471
 5981TIP3   OH239501   4.348   4.847   0.543
 5981TIP3    H139502   4.286   4.861   0.471
 5981TIP3    H239503   4.431   4.883   0.510
 5982TIP3   OH239504   4.447   2.689   8.732
 5982TIP3    H139505   4.534   2.651   8.743
 5982TIP3    H239506   4.388   2.627   8.775
 5983TIP3   OH239507   4.375   0.588   7.968
 5983TIP3    H139508   4.409   0.507   7.930
 5983TIP3    H239509   4.412   0.589   8.057
 5984TIP3   OH239510   2.779   2.146   6.687
 5984TIP3    H139511   2.803   2.114   6.773
 5984TIP3    H239512   2.775   2.241   6.696
 5985TIP3   OH239513   2.881   3.172   0.460
 5985TIP3    H139514   2.936   3.125   0.523
 5985TIP3    H239515   2.864   3.108   0.391
 5986TIP3   OH239516   1.832   5.355   8.846
 5986TIP3    H139517   1.838   5.383   0.077
 5986TIP3    H239518   1.781   5.423   8.803
 5987TIP3   OH239519   6.016   2.133   6.705
 5987TIP3    H139520   6.104   2.114   6.739
 5987TIP3    H239521   6.026   2.131   6.610
 5988TIP3   OH239522   5.336   2.323   2.037
 5988TIP3    H139523   5.383   2.391   2.084
 5988TIP3    H239524   5.245   2.332   2.066
 5989TIP3   OH239525   2.010   1.373   7.975
 5989TIP3    H139526   2.066   1.443   7.942
 5989TIP3    H239527   2.060   1.293   7.958
 5990TIP3   OH239528   2.372   5.144   0.410
 5990TIP3    H139529   2.377   5.175   0.320
 5990TIP3    H239530   2.446   5.084   0.419
 5991TIP3   OH239531   5.317   0.706   8.335
 5991TIP3    H139532   5.411   0.699   8.319
 5991TIP3    H239533   5.276   0.670   8.256
 5992TIP3   OH239534   6.123   1.115   0.273
 5992TIP3    H139535   6.138   1.174   0.348
 5992TIP3    H239536   6.123   1.173   0.197
 5993TIP3   OH239537   6.607   3.679   1.715
 5993TIP3    H139538   6.616   3.773   1.729
 5993TIP3    H239539   6.533   3.671   1.655
 5994TIP3   OH239540   6.796   4.715   8.478
 5994TIP3    H139541   6.731   4.703   8.408
 5994TIP3    H239542   0.055   4.641   8.468
 5995TIP3   OH239543   3.956   1.096   7.231
 5995TIP3    H139544   4.017   1.140   7.171
 5995TIP3    H239545   3.969   1.141   7.314
 5996TIP3   OH239546   3.444   3.635   1.113
 5996TIP3    H139547   3.391   3.700   1.067
 5996TIP3    H239548   3.435   3.657   1.206
 5997TIP3   OH239549   3.165   0.534   8.052
 5997TIP3    H139550   3.226   0.593   8.006
 5997TIP3    H239551   3.088   0.588   8.069
 5998TIP3   OH239552   0.038   1.701   8.144
 5998TIP3    H139553   0.083   1.784   8.126
 5998TIP3    H239554   0.028   1.700   8.239
 5999TIP3   OH239555   0.731   4.255   7.727
 5999TIP3    H139556   0.686   4.239   7.810
 5999TIP3    H239557   0.709   4.345   7.705
 6000TIP3   OH239558   0.059   3.633   2.006
 6000TIP3    H139559   0.138   3.584   1.983
 6000TIP3    H239560   6.789   3.569   2.004
 6001TIP3   OH239561   6.389   2.201   1.724
 6001TIP3    H139562   6.408   2.242   1.640
 6001TIP3    H239563   6.301   2.164   1.714
 6002TIP3   OH239564   4.713   6.034   2.065
 6002TIP3    H139565   4.737   6.044   2.157
 6002TIP3    H239566   4.634   6.086   2.055
 6003TIP3   OH239567   3.795   3.617   0.488
 6003TIP3    H139568   3.740   3.655   0.556
 6003TIP3    H239569   3.767   3.526   0.483
 6004TIP3   OH239570   0.110   1.915   8.620
 6004TIP3    H139571   0.198   1.879   8.605
 6004TIP3    H239572   0.094   1.903   8.713
 6005TIP3   OH239573   2.708   2.968   8.458
 6005TIP3    H139574   2.733   3.055   8.488
 6005TIP3    H239575   2.731   2.910   8.530
 6006TIP3   OH239576   2.171   2.051   8.392
 6006TIP3    H139577   2.190   2.124   8.451
 6006TIP3    H239578   2.077   2.058   8.376
 6007TIP3   OH239579   6.294   5.012   7.582
 6007TIP3    H139580   6.246   5.025   7.500
 6007TIP3    H239581   6.371   4.961   7.557
 6008TIP3   OH239582   1.099   5.056   0.572
 6008TIP3    H139583   1.015   5.034   0.612
 6008TIP3    H239584   1.079   5.069   0.479
 6009TIP3   OH239585   2.474   5.687   0.080
 6009TIP3    H139586   2.433   5.681   8.855
 6009TIP3    H239587   2.407   5.658   0.142
 6010TIP3   OH239588   4.433   2.076   1.641
 6010TIP3    H139589   4.516   2.122   1.634
 6010TIP3    H239590   4.388   2.094   1.559
 6011TIP3   OH239591   4.043   0.398   0.146
 6011TIP3    H139592   4.038   0.370   0.238
 6011TIP3    H239593   3.972   0.350   0.103
 6012TIP3   OH239594   3.361   3.855   0.997
 6012TIP3    H139595   3.296   3.898   0.942
 6012TIP3    H239596   3.425   3.924   1.017
 6013TIP3   OH239597   5.055   4.516   7.249
 6013TIP3    H139598   5.028   4.509   7.340
 6013TIP3    H239599   5.004   4.591   7.215
 6014TIP3   OH239600   1.857   3.790   7.400
 6014TIP3    H139601   1.848   3.710   7.347
 6014TIP3    H239602   1.870   3.758   7.489
 6015TIP3   OH239603   2.574   1.840   6.323
 6015TIP3    H139604   2.668   1.842   6.308
 6015TIP3    H239605   2.554   1.924   6.366
 6016TIP3   OH239606   5.822   1.330   7.155
 6016TIP3    H139607   5.810   1.242   7.118
 6016TIP3    H239608   5.802   1.320   7.248
 6017TIP3   OH239609   6.479   4.585   8.307
 6017TIP3    H139610   6.427   4.508   8.285
 6017TIP3    H239611   6.462   4.601   8.399
 6018TIP3   OH239612   2.276   0.629   6.668
 6018TIP3    H139613   2.225   0.594   6.594
 6018TIP3    H239614   2.350   0.569   6.676
 6019TIP3   OH239615   2.364   3.915   7.765
 6019TIP3    H139616   2.371   3.982   7.833
 6019TIP3    H239617   2.433   3.938   7.703
 6020TIP3   OH239618   6.361   3.189   1.446
 6020TIP3    H139619   6.343   3.104   1.407
 6020TIP3    H239620   6.276   3.219   1.478
 6021TIP3   OH239621   3.290   4.600   8.125
 6021TIP3    H139622   3.252   4.512   8.124
 6021TIP3    H239623   3.333   4.607   8.210
 6022TIP3   OH239624   1.494   4.645   8.635
 6022TIP3    H139625   1.412   4.679   8.672
 6022TIP3    H239626   1.542   4.723   8.607
 6023TIP3   OH239627   1.702   2.801   0.894
 6023TIP3    H139628   1.730   2.792   0.803
 6023TIP3    H239629   1.772   2.762   0.945
 6024TIP3   OH239630   0.694   5.418   0.073
 6024TIP3    H139631   0.622   5.442   0.131
 6024TIP3    H239632   0.652   5.401   8.849
 6025TIP3   OH239633   2.715   0.197   0.061
 6025TIP3    H139634   2.753   0.272   0.107
 6025TIP3    H239635   2.784   0.130   0.065
 6026TIP3   OH239636   4.218   0.538   8.811
 6026TIP3    H139637   4.262   0.553   8.727
 6026TIP3    H239638   4.208   0.443   8.817
 6027TIP3   OH239639   2.216   0.153   0.433
 6027TIP3    H139640   2.126   0.143   0.465
 6027TIP3    H239641   2.258   0.208   0.498
 6028TIP3   OH239642   2.682   5.422   2.328
 6028TIP3    H139643   2.618   5.391   2.392
 6028TIP3    H239644   2.680   5.518   2.336
 6029TIP3   OH239645   4.140   2.973   8.353
 6029TIP3    H139646   4.146   3.068   8.346
 6029TIP3    H239647   4.047   2.955   8.365
 6030TIP3   OH239648   2.269   3.761   8.240
 6030TIP3    H139649   2.242   3.797   8.156
 6030TIP3    H239650   2.310   3.834   8.286
 6031TIP3   OH239651   3.832   0.138   1.815
 6031TIP3    H139652   3.913   0.093   1.791
 6031TIP3    H239653   3.851   0.231   1.800
 6032TIP3   OH239654   3.138   2.138   8.047
 6032TIP3    H139655   3.089   2.195   8.107
 6032TIP3    H239656   3.226   2.176   8.044
 6033TIP3   OH239657   2.909   6.424   1.156
 6033TIP3    H139658   2.926   6.370   1.233
 6033TIP3    H239659   2.986   6.410   1.099
 6034TIP3   OH239660   6.164   0.180   8.517
 6034TIP3    H139661   6.155   0.105   8.576
 6034TIP3    H239662   6.115   0.156   8.439
 6035TIP3   OH239663   2.873   5.401   7.996
 6035TIP3    H139664   2.817   5.419   7.921
 6035TIP3    H239665   2.942   5.467   7.990
 6036TIP3   OH239666   6.050   1.949   7.886
 6036TIP3    H139667   6.026   2.041   7.870
 6036TIP3    H239668   6.077   1.947   7.978
 6037TIP3   OH239669   2.714   1.040   7.818
 6037TIP3    H139670   2.793   1.008   7.860
 6037TIP3    H239671   2.743   1.069   7.731
 6038TIP3   OH239672   1.072   5.307   1.211
 6038TIP3    H139673   1.161   5.289   1.181
 6038TIP3    H239674   1.083   5.364   1.287
 6039TIP3   OH239675   5.143   2.745   6.684
 6039TIP3    H139676   5.060   2.792   6.686
 6039TIP3    H239677   5.175   2.757   6.594
 6040TIP3   OH239678   2.607   2.023   8.492
 6040TIP3    H139679   2.547   1.997   8.562
 6040TIP3    H239680   2.692   1.988   8.519
 6041TIP3   OH239681   5.783   4.595   7.899
 6041TIP3    H139682   5.873   4.617   7.877
 6041TIP3    H239683   5.768   4.637   7.984
 6042TIP3   OH239684   6.789   4.851   0.434
 6042TIP3    H139685   6.753   4.828   0.520
 6042TIP3    H239686   0.081   4.868   0.450
 6043TIP3   OH239687   1.584   2.345   7.505
 6043TIP3    H139688   1.528   2.421   7.512
 6043TIP3    H239689   1.565   2.308   7.419
 6044TIP3   OH239690   3.211   0.953   0.621
 6044TIP3    H139691   3.178   1.018   0.559
 6044TIP3    H239692   3.287   0.995   0.661
 6045TIP3   OH239693   5.402   4.981   1.430
 6045TIP3    H139694   5.458   5.059   1.440
 6045TIP3    H239695   5.409   4.959   1.337
 6046TIP3   OH239696   3.471   0.309   6.365
 6046TIP3    H139697   3.455   0.219   6.394
 6046TIP3    H239698   3.384   0.344   6.347
 6047TIP3   OH239699   1.601   5.155   0.834
 6047TIP3    H139700   1.561   5.197   0.758
 6047TIP3    H239701   1.592   5.061   0.816
 6048TIP3   OH239702   3.663   1.299   0.394
 6048TIP3    H139703   3.698   1.240   0.461
 6048TIP3    H239704   3.632   1.241   0.325
 6049TIP3   OH239705   1.552   4.581   0.613
 6049TIP3    H139706   1.505   4.607   0.533
 6049TIP3    H239707   1.644   4.583   0.589
 6050TIP3   OH239708   1.067   1.406   1.613
 6050TIP3    H139709   1.102   1.494   1.624
 6050TIP3    H239710   1.111   1.354   1.680
 6051TIP3   OH239711   0.966   0.460   0.121
 6051TIP3    H139712   0.924   0.538   0.085
 6051TIP3    H239713   1.036   0.439   0.059
 6052TIP3   OH239714   4.211   2.696   1.549
 6052TIP3    H139715   4.272   2.697   1.623
 6052TIP3    H239716   4.267   2.688   1.472
 6053TIP3   OH239717   1.514   1.231   6.344
 6053TIP3    H139718   1.607   1.207   6.343
 6053TIP3    H239719   1.512   1.319   6.306
 6054TIP3   OH239720   4.332   1.207   7.572
 6054TIP3    H139721   4.365   1.117   7.566
 6054TIP3    H239722   4.310   1.217   7.665
 6055TIP3   OH239723   6.781   3.692   0.153
 6055TIP3    H139724   0.014   3.716   0.067
 6055TIP3    H239725   6.691   3.724   0.154
 6056TIP3   OH239726   4.101   3.761   7.503
 6056TIP3    H139727   4.146   3.809   7.434
 6056TIP3    H239728   4.168   3.743   7.569
 6057TIP3   OH239729   3.571   1.933   1.891
 6057TIP3    H139730   3.501   1.943   1.955
 6057TIP3    H239731   3.651   1.954   1.940
 6058TIP3   OH239732   6.255   0.067   1.939
 6058TIP3    H139733   6.217   6.780   1.940
 6058TIP3    H239734   6.350   0.052   1.933
 6059TIP3   OH239735   3.487   4.130   7.760
 6059TIP3    H139736   3.518   4.067   7.696
 6059TIP3    H239737   3.526   4.102   7.843
 6060TIP3   OH239738   4.339   3.313   7.742
 6060TIP3    H139739   4.323   3.389   7.799
 6060TIP3    H239740   4.395   3.256   7.795
 6061TIP3   OH239741   4.063   3.828   0.980
 6061TIP3    H139742   4.126   3.897   0.999
 6061TIP3    H239743   4.035   3.844   0.890
 6062TIP3   OH239744   6.289   3.479   8.615
 6062TIP3    H139745   6.287   3.537   8.539
 6062TIP3    H239746   6.367   3.426   8.603
 6063TIP3   OH239747   1.522   2.252   7.257
 6063TIP3    H139748   1.458   2.218   7.194
 6063TIP3    H239749   1.597   2.277   7.203
 6064TIP3   OH239750   4.875   3.699   8.382
 6064TIP3    H139751   4.969   3.689   8.396
 6064TIP3    H239752   4.869   3.752   8.303
 6065TIP3   OH239753   3.884   5.050   8.225
 6065TIP3    H139754   3.926   5.069   8.141
 6065TIP3    H239755   3.948   5.079   8.291
 6066TIP3   OH239756   6.147   3.068   0.162
 6066TIP3    H139757   6.210   3.132   0.131
 6066TIP3    H239758   6.084   3.059   0.091
 6067TIP3   OH239759   1.988   1.063   1.927
 6067TIP3    H139760   1.938   0.982   1.944
 6067TIP3    H239761   2.027   1.084   2.012
 6068TIP3   OH239762   4.581   1.968   0.580
 6068TIP3    H139763   4.551   2.008   0.661
 6068TIP3    H239764   4.660   2.017   0.556
 6069TIP3   OH239765   2.026   6.210   2.092
 6069TIP3    H139766   2.020   6.153   2.015
 6069TIP3    H239767   1.940   6.203   2.134
 6070TIP3   OH239768   0.187   3.281   1.972
 6070TIP3    H139769   0.202   3.331   1.892
 6070TIP3    H239770   0.096   3.252   1.967
 6071TIP3   OH239771   5.103   5.761   1.658
 6071TIP3    H139772   5.097   5.682   1.711
 6071TIP3    H239773   5.144   5.826   1.715
 6072TIP3   OH239774   5.356   6.678   7.424
 6072TIP3    H139775   5.277   6.683   7.370
 6072TIP3    H239776   5.377   6.769   7.446
 6073TIP3   OH239777   5.008   2.149   7.552
 6073TIP3    H139778   4.965   2.074   7.592
 6073TIP3    H239779   5.101   2.125   7.548
 6074TIP3   OH239780   3.370   2.568   0.311
 6074TIP3    H139781   3.364   2.640   0.374
 6074TIP3    H239782   3.416   2.499   0.358
 6075TIP3   OH239783   4.816   0.810   7.906
 6075TIP3    H139784   4.860   0.893   7.889
 6075TIP3    H239785   4.884   0.752   7.938
 6076TIP3   OH239786   5.003   5.489   1.276
 6076TIP3    H139787   5.023   5.579   1.249
 6076TIP3    H239788   4.965   5.499   1.363
 6077TIP3   OH239789   0.905   2.901   2.173
 6077TIP3    H139790   0.819   2.874   2.205
 6077TIP3    H239791   0.958   2.910   2.252
 6078TIP3   OH239792   3.457   6.293   1.572
 6078TIP3    H139793   3.509   6.353   1.518
 6078TIP3    H239794   3.423   6.229   1.510
 6079TIP3   OH239795   4.568   6.395   6.584
 6079TIP3    H139796   4.585   6.313   6.631
 6079TIP3    H239797   4.653   6.439   6.582
 6080TIP3   OH239798   0.314   6.069   8.780
 6080TIP3    H139799   0.237   6.056   8.836
 6080TIP3    H239800   0.280   6.109   8.701
 6081TIP3   OH239801   2.045   3.688   6.668
 6081TIP3    H139802   2.054   3.772   6.713
 6081TIP3    H239803   2.072   3.706   6.578
 6082TIP3   OH239804   1.191   5.221   8.168
 6082TIP3    H139805   1.118   5.187   8.116
 6082TIP3    H239806   1.164   5.310   8.192
 6083TIP3   OH239807   0.237   5.398   1.075
 6083TIP3    H139808   0.193   5.325   1.119
 6083TIP3    H239809   0.166   5.455   1.046
 6084TIP3   OH239810   3.146   5.190   7.162
 6084TIP3    H139811   3.087   5.159   7.231
 6084TIP3    H239812   3.100   5.173   7.080
 6085TIP3   OH239813   6.222   3.230   1.785
 6085TIP3    H139814   6.266   3.146   1.772
 6085TIP3    H239815   6.214   3.238   1.881
 6086TIP3   OH239816   1.406   4.371   8.765
 6086TIP3    H139817   1.440   4.437   8.705
 6086TIP3    H239818   1.417   4.410   8.852
 6087TIP3   OH239819   5.432   4.972   7.494
 6087TIP3    H139820   5.516   4.991   7.534
 6087TIP3    H239821   5.388   4.913   7.555
 6088TIP3   OH239822   1.038   2.893   1.926
 6088TIP3    H139823   1.123   2.869   1.964
 6088TIP3    H239824   0.983   2.912   2.002
 6089TIP3   OH239825   6.051   4.745   0.583
 6089TIP3    H139826   5.961   4.734   0.553
 6089TIP3    H239827   6.061   4.679   0.652
 6090TIP3   OH239828   0.138   2.399   0.016
 6090TIP3    H139829   0.225   2.377   8.842
 6090TIP3    H239830   0.149   2.397   0.111
 6091TIP3   OH239831   4.921   5.919   7.704
 6091TIP3    H139832   4.851   5.970   7.745
 6091TIP3    H239833   4.882   5.881   7.626
 6092TIP3   OH239834   1.238   1.049   0.012
 6092TIP3    H139835   1.309   0.995   8.839
 6092TIP3    H239836   1.282   1.125   0.051
 6093TIP3   OH239837   6.721   5.378   0.921
 6093TIP3    H139838   6.740   5.307   0.983
 6093TIP3    H239839   6.683   5.333   0.845
 6094TIP3   OH239840   2.040   5.362   0.653
 6094TIP3    H139841   2.023   5.354   0.560
 6094TIP3    H239842   1.982   5.296   0.694
 6095TIP3   OH239843   0.032   5.925   0.351
 6095TIP3    H139844   0.083   6.006   0.350
 6095TIP3    H239845   0.050   5.887   0.437
 6096TIP3   OH239846   2.502   5.623   2.037
 6096TIP3    H139847   2.438   5.563   2.076
 6096TIP3    H239848   2.467   5.711   2.056
 6097TIP3   OH239849   5.221   4.409   0.880
 6097TIP3    H139850   5.157   4.340   0.893
 6097TIP3    H239851   5.247   4.401   0.788
 6098TIP3   OH239852   6.139   2.126   1.469
 6098TIP3    H139853   6.085   2.138   1.547
 6098TIP3    H239854   6.194   2.050   1.488
 6099TIP3   OH239855   3.341   1.920   2.036
 6099TIP3    H139856   3.315   2.003   2.076
 6099TIP3    H239857   3.287   1.854   2.080
 6100TIP3   OH239858   5.990   2.429   1.876
 6100TIP3    H139859   5.935   2.399   1.948
 6100TIP3    H239860   6.009   2.521   1.897
 6101TIP3   OH239861   1.982   2.989   6.308
 6101TIP3    H139862   1.954   3.050   6.239
 6101TIP3    H239863   2.055   3.033   6.351
 6102TIP3   OH239864   0.027   5.352   7.393
 6102TIP3    H139865   6.753   5.292   7.392
 6102TIP3    H239866   0.057   5.356   7.302
 6103TIP3   OH239867   4.348   2.246   7.157
 6103TIP3    H139868   4.257   2.274   7.167
 6103TIP3    H239869   4.351   2.203   7.071
 6104TIP3   OH239870   2.117   2.042   0.438
 6104TIP3    H139871   2.135   1.962   0.389
 6104TIP3    H239872   2.198   2.092   0.433
 6105TIP3   OH239873   5.777   6.510   1.427
 6105TIP3    H139874   5.861   6.552   1.447
 6105TIP3    H239875   5.785   6.484   1.335
 6106TIP3   OH239876   6.440   2.429   0.208
 6106TIP3    H139877   6.489   2.418   0.126
 6106TIP3    H239878   6.390   2.348   0.216
 6107TIP3   OH239879   1.114   5.034   1.267
 6107TIP3    H139880   1.100   5.129   1.263
 6107TIP3    H239881   1.141   5.010   1.178
 6108TIP3   OH239882   6.442   4.816   2.004
 6108TIP3    H139883   6.430   4.896   2.056
 6108TIP3    H239884   6.519   4.833   1.950
 6109TIP3   OH239885   6.673   6.534   7.926
 6109TIP3    H139886   6.709   6.449   7.950
 6109TIP3    H239887   6.581   6.530   7.952
 6110TIP3   OH239888   6.602   0.634   8.600
 6110TIP3    H139889   6.573   0.616   8.511
 6110TIP3    H239890   6.608   0.548   8.642
 6111TIP3   OH239891   3.941   6.160   8.173
 6111TIP3    H139892   3.852   6.195   8.166
 6111TIP3    H239893   3.955   6.112   8.091
 6112TIP3   OH239894   2.993   4.964   2.364
 6112TIP3    H139895   2.916   4.921   2.328
 6112TIP3    H239896   3.030   4.900   2.425
 6113TIP3   OH239897   6.686   0.713   7.536
 6113TIP3    H139898   6.604   0.753   7.507
 6113TIP3    H239899   6.712   0.657   7.462
 6114TIP3   OH239900   6.631   6.252   1.789
 6114TIP3    H139901   6.651   6.313   1.860
 6114TIP3    H239902   6.540   6.271   1.765
 6115TIP3   OH239903   5.587   1.624   1.661
 6115TIP3    H139904   5.624   1.665   1.584
 6115TIP3    H239905   5.499   1.596   1.634
 6116TIP3   OH239906   4.114   2.508   1.146
 6116TIP3    H139907   4.161   2.448   1.204
 6116TIP3    H239908   4.169   2.586   1.141
 6117TIP3   OH239909   6.524   2.170   7.459
 6117TIP3    H139910   6.539   2.116   7.381
 6117TIP3    H239911   6.564   2.254   7.438
 6118TIP3   OH239912   5.490   1.265   1.461
 6118TIP3    H139913   5.571   1.214   1.469
 6118TIP3    H239914   5.518   1.347   1.421
 6119TIP3   OH239915   2.517   2.540   6.878
 6119TIP3    H139916   2.575   2.613   6.901
 6119TIP3    H239917   2.430   2.567   6.909
 6120TIP3   OH239918   5.562   1.515   1.955
 6120TIP3    H139919   5.526   1.600   1.979
 6120TIP3    H239920   5.524   1.497   1.869
 6121TIP3   OH239921   4.030   2.939   8.619
 6121TIP3    H139922   4.124   2.941   8.600
 6121TIP3    H239923   4.014   3.021   8.666
 6122TIP3   OH239924   6.141   5.376   0.739
 6122TIP3    H139925   6.066   5.418   0.780
 6122TIP3    H239926   6.155   5.296   0.789
 6123TIP3   OH239927   6.113   4.356   0.410
 6123TIP3    H139928   6.166   4.409   0.351
 6123TIP3    H239929   6.166   4.350   0.490
 6124TIP3   OH239930   0.567   6.676   7.976
 6124TIP3    H139931   0.559   6.623   7.896
 6124TIP3    H239932   0.640   6.637   8.024
 6125TIP3   OH239933   0.857   2.729   7.294
 6125TIP3    H139934   0.862   2.824   7.295
 6125TIP3    H239935   0.840   2.706   7.203
 6126TIP3   OH239936   0.819   5.330   8.512
 6126TIP3    H139937   0.792   5.246   8.477
 6126TIP3    H239938   0.901   5.312   8.558
 6127TIP3   OH239939   5.407   6.526   8.064
 6127TIP3    H139940   5.467   6.583   8.111
 6127TIP3    H239941   5.461   6.454   8.032
 6128TIP3   OH239942   5.863   0.688   6.961
 6128TIP3    H139943   5.921   0.630   7.011
 6128TIP3    H239944   5.775   0.660   6.987
 6129TIP3   OH239945   1.945   2.065   0.659
 6129TIP3    H139946   2.006   2.035   0.593
 6129TIP3    H239947   1.974   2.154   0.681
 6130TIP3   OH239948   4.652   3.415   7.175
 6130TIP3    H139949   4.721   3.418   7.242
 6130TIP3    H239950   4.571   3.411   7.225
 6131TIP3   OH239951   1.498   3.706   0.496
 6131TIP3    H139952   1.508   3.723   0.402
 6131TIP3    H239953   1.520   3.789   0.538
 6132TIP3   OH239954   6.563   0.146   8.519
 6132TIP3    H139955   6.545   0.159   8.426
 6132TIP3    H239956   6.493   0.193   8.564
 6133TIP3   OH239957   2.817   1.313   0.686
 6133TIP3    H139958   2.738   1.302   0.738
 6133TIP3    H239959   2.835   1.407   0.687
 6134TIP3   OH239960   4.443   1.869   0.874
 6134TIP3    H139961   4.367   1.872   0.816
 6134TIP3    H239962   4.493   1.947   0.851
 6135TIP3   OH239963   5.279   5.379   1.938
 6135TIP3    H139964   5.186   5.369   1.918
 6135TIP3    H239965   5.286   5.361   2.032
 6136TIP3   OH239966   3.174   1.524   7.252
 6136TIP3    H139967   3.246   1.586   7.255
 6136TIP3    H239968   3.143   1.518   7.342
 6137TIP3   OH239969   4.342   2.825   7.289
 6137TIP3    H139970   4.433   2.844   7.267
 6137TIP3    H239971   4.328   2.735   7.259
 6138TIP3   OH239972   5.946   1.281   0.642
 6138TIP3    H139973   5.922   1.372   0.655
 6138TIP3    H239974   6.009   1.283   0.570
 6139TIP3   OH239975   2.968   0.640   1.751
 6139TIP3    H139976   2.984   0.734   1.747
 6139TIP3    H239977   2.981   0.617   1.844
 6140TIP3   OH239978   3.239   1.617   8.334
 6140TIP3    H139979   3.188   1.635   8.255
 6140TIP3    H239980   3.309   1.558   8.305
 6141TIP3   OH239981   4.614   4.931   7.360
 6141TIP3    H139982   4.604   5.022   7.385
 6141TIP3    H239983   4.709   4.919   7.348
 6142TIP3   OH239984   2.569   3.330   8.389
 6142TIP3    H139985   2.622   3.272   8.334
 6142TIP3    H239986   2.482   3.329   8.349
 6143TIP3   OH239987   5.318   1.984   1.531
 6143TIP3    H139988   5.328   2.018   1.442
 6143TIP3    H239989   5.226   1.957   1.536
 6144TIP3   OH239990   0.027   0.550   7.161
 6144TIP3    H139991   0.082   0.534   7.237
 6144TIP3    H239992   6.759   0.609   7.192
 6145TIP3   OH239993   3.265   4.482   0.472
 6145TIP3    H139994   3.301   4.491   0.384
 6145TIP3    H239995   3.335   4.440   0.522
 6146TIP3   OH239996   5.680   4.698   8.149
 6146TIP3    H139997   5.678   4.787   8.112
 6146TIP3    H239998   5.688   4.712   8.244
 6147TIP3   OH239999   5.421   6.039   7.539
 6147TIP3    H140000   5.474   6.043   7.459
 6147TIP3    H240001   5.415   6.129   7.568
 6148TIP3   OH240002   1.418   6.304   8.526
 6148TIP3    H140003   1.470   6.291   8.447
 6148TIP3    H240004   1.375   6.220   8.540
 6149TIP3   OH240005   1.970   3.813   0.628
 6149TIP3    H140006   1.904   3.748   0.654
 6149TIP3    H240007   2.007   3.779   0.547
 6150TIP3   OH240008   5.620   2.568   7.607
 6150TIP3    H140009   5.591   2.582   7.697
 6150TIP3    H240010   5.683   2.638   7.591
 6151TIP3   OH240011   5.242   1.843   7.974
 6151TIP3    H140012   5.176   1.823   8.041
 6151TIP3    H240013   5.317   1.788   7.996
 6152TIP3   OH240014   4.809   2.667   7.859
 6152TIP3    H140015   4.836   2.576   7.850
 6152TIP3    H240016   4.890   2.714   7.877
 6153TIP3   OH240017   1.837   1.541   8.387
 6153TIP3    H140018   1.911   1.569   8.334
 6153TIP3    H240019   1.802   1.464   8.341
 6154TIP3   OH240020   0.610   1.231   0.333
 6154TIP3    H140021   0.554   1.196   0.263
 6154TIP3    H240022   0.695   1.244   0.291
 6155TIP3   OH240023   0.620   4.217   0.802
 6155TIP3    H140024   0.572   4.157   0.859
 6155TIP3    H240025   0.712   4.206   0.827
 6156TIP3   OH240026   2.868   0.639   1.496
 6156TIP3    H140027   2.880   0.642   1.591
 6156TIP3    H240028   2.819   0.718   1.475
 6157TIP3   OH240029   6.045   1.222   0.905
 6157TIP3    H140030   5.974   1.170   0.942
 6157TIP3    H240031   6.011   1.253   0.821
 6158TIP3   OH240032   0.647   3.072   0.330
 6158TIP3    H140033   0.630   2.979   0.317
 6158TIP3    H240034   0.565   3.108   0.363
 6159TIP3   OH240035   2.738   1.649   1.271
 6159TIP3    H140036   2.676   1.603   1.214
 6159TIP3    H240037   2.711   1.626   1.359
 6160TIP3   OH240038   3.929   5.326   1.027
 6160TIP3    H140039   3.986   5.404   1.022
 6160TIP3    H240040   3.982   5.256   0.989
 6161TIP3   OH240041   1.536   4.138   7.825
 6161TIP3    H140042   1.509   4.047   7.836
 6161TIP3    H240043   1.463   4.189   7.861
 6162TIP3   OH240044   0.718   4.495   1.858
 6162TIP3    H140045   0.770   4.512   1.937
 6162TIP3    H240046   0.783   4.496   1.787
 6163TIP3   OH240047   0.333   5.039   0.397
 6163TIP3    H140048   0.327   4.945   0.412
 6163TIP3    H240049   0.391   5.071   0.465
 6164TIP3   OH240050   4.674   2.544   0.212
 6164TIP3    H140051   4.644   2.550   0.121
 6164TIP3    H240052   4.613   2.483   0.253
 6165TIP3   OH240053   2.437   2.876   1.011
 6165TIP3    H140054   2.479   2.790   1.014
 6165TIP3    H240055   2.477   2.919   0.935
 6166TIP3   OH240056   1.025   0.166   7.850
 6166TIP3    H140057   1.116   0.193   7.847
 6166TIP3    H240058   0.984   0.224   7.915
 6167TIP3   OH240059   2.407   4.540   8.653
 6167TIP3    H140060   2.379   4.632   8.659
 6167TIP3    H240061   2.502   4.543   8.665
 6168TIP3   OH240062   6.668   2.112   2.588
 6168TIP3    H140063   6.647   2.161   2.509
 6168TIP3    H240064   6.621   2.029   2.576
 6169TIP3   OH240065   5.005   3.479   6.950
 6169TIP3    H140066   5.052   3.436   6.878
 6169TIP3    H240067   4.977   3.563   6.913
 6170TIP3   OH240068   4.435   6.015   7.816
 6170TIP3    H140069   4.354   6.062   7.799
 6170TIP3    H240070   4.416   5.961   7.893
 6171TIP3   OH240071   5.725   1.276   6.795
 6171TIP3    H140072   5.726   1.289   6.700
 6171TIP3    H240073   5.758   1.187   6.808
 6172TIP3   OH240074   1.556   4.033   0.983
 6172TIP3    H140075   1.568   4.094   0.910
 6172TIP3    H240076   1.626   4.055   1.045
 6173TIP3   OH240077   5.914   5.756   1.413
 6173TIP3    H140078   5.855   5.825   1.384
 6173TIP3    H240079   5.994   5.770   1.361
 6174TIP3   OH240080   5.054   2.984   7.683
 6174TIP3    H140081   5.117   3.019   7.619
 6174TIP3    H240082   5.056   2.890   7.669
 6175TIP3   OH240083   3.854   2.004   1.392
 6175TIP3    H140084   3.886   2.066   1.327
 6175TIP3    H240085   3.852   1.920   1.347
 6176TIP3   OH240086   0.465   3.736   8.567
 6176TIP3    H140087   0.505   3.780   8.492
 6176TIP3    H240088   0.403   3.800   8.602
 6177TIP3   OH240089   4.627   0.885   0.825
 6177TIP3    H140090   4.544   0.872   0.869
 6177TIP3    H240091   4.629   0.978   0.804
 6178TIP3   OH240092   3.753   1.004   8.750
 6178TIP3    H140093   3.712   0.925   8.713
 6178TIP3    H240094   3.699   1.025   8.827
 6179TIP3   OH240095   0.891   4.145   1.163
 6179TIP3    H140096   0.840   4.072   1.198
 6179TIP3    H240097   0.978   4.135   1.200
 6180TIP3   OH240098   6.502   5.777   0.280
 6180TIP3    H140099   6.428   5.837   0.289
 6180TIP3    H240100   6.548   5.784   0.364
 6181TIP3   OH240101   2.623   6.780   7.003
 6181TIP3    H140102   2.588   6.753   6.919
 6181TIP3    H240103   2.659   6.700   7.042
 6182TIP3   OH240104   4.241   0.456   1.496
 6182TIP3    H140105   4.212   0.484   1.583
 6182TIP3    H240106   4.336   0.467   1.498
 6183TIP3   OH240107   6.100   5.961   6.635
 6183TIP3    H140108   6.143   5.894   6.582
 6183TIP3    H240109   6.027   5.916   6.677
 6184TIP3   OH240110   0.200   6.355   7.609
 6184TIP3    H140111   0.276   6.379   7.663
 6184TIP3    H240112   0.189   6.428   7.549
 6185TIP3   OH240113   5.624   2.571   2.559
 6185TIP3    H140114   5.678   2.562   2.480
 6185TIP3    H240115   5.647   2.494   2.612
 6186TIP3   OH240116   6.626   4.789   8.023
 6186TIP3    H140117   6.646   4.857   8.087
 6186TIP3    H240118   6.642   4.707   8.070
 6187TIP3   OH240119   2.026   2.984   6.657
 6187TIP3    H140120   2.041   3.058   6.716
 6187TIP3    H240121   1.961   3.015   6.594
 6188TIP3   OH240122   6.714   0.108   1.305
 6188TIP3    H140123   0.004   0.099   1.277
 6188TIP3    H240124   6.662   0.095   1.226
 6189TIP3   OH240125   3.092   1.668   2.423
 6189TIP3    H140126   3.073   1.716   2.504
 6189TIP3    H240127   3.187   1.674   2.413
 6190TIP3   OH240128   1.355   4.914   2.122
 6190TIP3    H140129   1.268   4.936   2.087
 6190TIP3    H240130   1.355   4.819   2.130
 6191TIP3   OH240131   0.002   1.026   8.213
 6191TIP3    H140132   0.060   1.097   8.186
 6191TIP3    H240133   0.025   1.009   8.304
 6192TIP3   OH240134   2.668   5.704   0.844
 6192TIP3    H140135   2.687   5.794   0.817
 6192TIP3    H240136   2.614   5.669   0.774
 6193TIP3   OH240137   1.407   0.103   7.270
 6193TIP3    H140138   1.328   0.129   7.318
 6193TIP3    H240139   1.464   0.066   7.338
 6194TIP3   OH240140   4.249   1.539   1.260
 6194TIP3    H140141   4.344   1.545   1.271
 6194TIP3    H240142   4.225   1.456   1.303
 6195TIP3   OH240143   6.336   1.940   1.200
 6195TIP3    H140144   6.319   1.953   1.106
 6195TIP3    H240145   6.300   1.853   1.219
 6196TIP3   OH240146   5.571   5.660   8.610
 6196TIP3    H140147   5.617   5.741   8.588
 6196TIP3    H240148   5.479   5.684   8.612
 6197TIP3   OH240149   5.544   2.730   2.767
 6197TIP3    H140150   5.587   2.673   2.703
 6197TIP3    H240151   5.455   2.697   2.773
 6198TIP3   OH240152   0.012   3.819   6.543
 6198TIP3    H140153   0.065   3.740   6.556
 6198TIP3    H240154   6.723   3.790   6.560
 6199TIP3   OH240155   6.379   5.360   7.346
 6199TIP3    H140156   6.453   5.388   7.292
 6199TIP3    H240157   6.334   5.294   7.293
 6200TIP3   OH240158   4.219   0.030   6.927
 6200TIP3    H140159   4.269   0.111   6.915
 6200TIP3    H240160   4.134   0.049   6.888
 6201TIP3   OH240161   6.490   2.673   1.163
 6201TIP3    H140162   6.567   2.690   1.217
 6201TIP3    H240163   6.486   2.578   1.155
 6202TIP3   OH240164   2.339   0.183   7.543
 6202TIP3    H140165   2.425   0.165   7.505
 6202TIP3    H240166   2.342   0.275   7.569
 6203TIP3   OH240167   0.524   3.286   2.050
 6203TIP3    H140168   0.475   3.204   2.042
 6203TIP3    H240169   0.529   3.302   2.144
 6204TIP3   OH240170   0.836   0.139   7.079
 6204TIP3    H140171   0.759   0.128   7.023
 6204TIP3    H240172   0.906   0.166   7.019
 6205TIP3   OH240173   5.318   3.702   7.049
 6205TIP3    H140174   5.240   3.750   7.021
 6205TIP3    H240175   5.389   3.737   6.994
 6206TIP3   OH240176   3.685   5.666   1.095
 6206TIP3    H140177   3.758   5.659   1.156
 6206TIP3    H240178   3.710   5.737   1.035
 6207TIP3   OH240179   5.082   1.030   0.034
 6207TIP3    H140180   5.026   0.984   0.096
 6207TIP3    H240181   5.166   0.986   0.039
 6208TIP3   OH240182   3.657   5.340   7.888
 6208TIP3    H140183   3.666   5.272   7.954
 6208TIP3    H240184   3.569   5.374   7.900
 6209TIP3   OH240185   0.916   2.320   1.506
 6209TIP3    H140186   0.826   2.325   1.541
 6209TIP3    H240187   0.926   2.228   1.481
 6210TIP3   OH240188   0.655   0.079   6.904
 6210TIP3    H140189   0.614   0.082   6.818
 6210TIP3    H240190   0.673   6.787   6.920
 6211TIP3   OH240191   0.584   1.567   8.628
 6211TIP3    H140192   0.536   1.647   8.649
 6211TIP3    H240193   0.676   1.590   8.644
 6212TIP3   OH240194   0.100   5.910   1.855
 6212TIP3    H140195   0.162   5.898   1.927
 6212TIP3    H240196   0.093   5.823   1.815
 6213TIP3   OH240197   1.817   4.928   8.177
 6213TIP3    H140198   1.909   4.949   8.161
 6213TIP3    H240199   1.812   4.834   8.165
 6214TIP3   OH240200   1.233   2.656   6.338
 6214TIP3    H140201   1.180   2.736   6.342
 6214TIP3    H240202   1.271   2.648   6.426
 6215TIP3   OH240203   6.451   0.168   7.174
 6215TIP3    H140204   6.358   0.184   7.154
 6215TIP3    H240205   6.464   0.076   7.154
 6216TIP3   OH240206   5.980   1.667   1.019
 6216TIP3    H140207   6.024   1.697   0.940
 6216TIP3    H240208   5.949   1.748   1.061
 6217TIP3   OH240209   5.179   5.860   7.539
 6217TIP3    H140210   5.263   5.905   7.548
 6217TIP3    H240211   5.116   5.916   7.586
 6218TIP3   OH240212   0.370   6.172   1.932
 6218TIP3    H140213   0.304   6.155   1.864
 6218TIP3    H240214   0.321   6.215   2.002
 6219TIP3   OH240215   2.615   1.622   8.571
 6219TIP3    H140216   2.565   1.543   8.593
 6219TIP3    H240217   2.696   1.614   8.621
 6220TIP3   OH240218   3.856   2.720   8.596
 6220TIP3    H140219   3.931   2.780   8.598
 6220TIP3    H240220   3.803   2.747   8.671
 6221TIP3   OH240221   5.083   3.644   2.088
 6221TIP3    H140222   5.157   3.631   2.148
 6221TIP3    H240223   5.049   3.731   2.111
 6222TIP3   OH240224   3.616   6.488   8.419
 6222TIP3    H140225   3.686   6.550   8.443
 6222TIP3    H240226   3.536   6.528   8.453
 6223TIP3   OH240227   3.370   2.942   7.181
 6223TIP3    H140228   3.435   3.009   7.204
 6223TIP3    H240229   3.312   2.985   7.118
 6224TIP3   OH240230   2.885   0.423   0.345
 6224TIP3    H140231   2.889   0.443   0.251
 6224TIP3    H240232   2.795   0.444   0.370
 6225TIP3   OH240233   2.146   5.638   1.198
 6225TIP3    H140234   2.074   5.680   1.152
 6225TIP3    H240235   2.152   5.686   1.281
 6226TIP3   OH240236   1.472   4.878   8.427
 6226TIP3    H140237   1.378   4.872   8.407
 6226TIP3    H240238   1.512   4.809   8.374
 6227TIP3   OH240239   0.642   5.677   1.322
 6227TIP3    H140240   0.700   5.735   1.372
 6227TIP3    H240241   0.605   5.618   1.387
 6228TIP3   OH240242   2.872   0.304   8.614
 6228TIP3    H140243   2.818   0.383   8.606
 6228TIP3    H240244   2.924   0.319   8.693
 6229TIP3   OH240245   1.950   0.245   8.342
 6229TIP3    H140246   2.009   0.207   8.277
 6229TIP3    H240247   1.868   0.198   8.331
 6230TIP3   OH240248   3.326   2.291   6.608
 6230TIP3    H140249   3.345   2.356   6.541
 6230TIP3    H240250   3.373   2.321   6.685
 6231TIP3   OH240251   3.992   6.679   0.304
 6231TIP3    H140252   3.971   6.652   0.394
 6231TIP3    H240253   3.970   6.603   0.250
 6232TIP3   OH240254   3.333   5.530   0.113
 6232TIP3    H140255   3.303   5.604   0.166
 6232TIP3    H240256   3.282   5.536   0.033
 6233TIP3   OH240257   3.426   6.139   0.412
 6233TIP3    H140258   3.396   6.208   0.352
 6233TIP3    H240259   3.351   6.081   0.421
 6234TIP3   OH240260   3.914   5.448   7.688
 6234TIP3    H140261   3.963   5.374   7.724
 6234TIP3    H240262   3.838   5.408   7.645
 6235TIP3   OH240263   5.094   4.333   6.956
 6235TIP3    H140264   5.056   4.418   6.930
 6235TIP3    H240265   5.173   4.326   6.903
 6236TIP3   OH240266   2.765   3.163   6.890
 6236TIP3    H140267   2.725   3.197   6.811
 6236TIP3    H240268   2.691   3.139   6.946
 6237TIP3   OH240269   5.502   2.505   8.107
 6237TIP3    H140270   5.488   2.599   8.116
 6237TIP3    H240271   5.436   2.478   8.043
 6238TIP3   OH240272   4.219   0.710   1.983
 6238TIP3    H140273   4.297   0.664   2.016
 6238TIP3    H240274   4.169   0.731   2.061
 6239TIP3   OH240275   5.072   0.921   1.767
 6239TIP3    H140276   5.058   0.972   1.846
 6239TIP3    H240277   5.002   0.948   1.708
 6240TIP3   OH240278   2.816   5.383   8.434
 6240TIP3    H140279   2.884   5.331   8.391
 6240TIP3    H240280   2.815   5.351   8.524
 6241TIP3   OH240281   0.015   3.213   1.509
 6241TIP3    H140282   0.068   3.288   1.482
 6241TIP3    H240283   0.078   3.144   1.526
 6242TIP3   OH240284   4.191   1.880   0.721
 6242TIP3    H140285   4.158   1.959   0.678
 6242TIP3    H240286   4.141   1.875   0.802
 6243TIP3   OH240287   5.810   1.284   8.698
 6243TIP3    H140288   5.778   1.329   8.777
 6243TIP3    H240289   5.870   1.346   8.658
 6244TIP3   OH240290   2.987   2.046   8.750
 6244TIP3    H140291   3.080   2.031   8.767
 6244TIP3    H240292   2.947   2.046   8.837
 6245TIP3   OH240293   2.248   0.787   0.635
 6245TIP3    H140294   2.295   0.818   0.713
 6245TIP3    H240295   2.251   0.861   0.575
 6246TIP3   OH240296   2.282   3.097   8.449
 6246TIP3    H140297   2.199   3.098   8.402
 6246TIP3    H240298   2.276   3.169   8.511
 6247TIP3   OH240299   1.123   4.010   0.822
 6247TIP3    H140300   1.139   4.051   0.737
 6247TIP3    H240301   1.199   3.954   0.837
 6248TIP3   OH240302   3.609   2.673   8.467
 6248TIP3    H140303   3.685   2.697   8.521
 6248TIP3    H240304   3.628   2.584   8.437
 6249TIP3   OH240305   2.554   4.137   8.520
 6249TIP3    H140306   2.601   4.174   8.595
 6249TIP3    H240307   2.623   4.111   8.459
 6250TIP3   OH240308   1.859   3.755   8.345
 6250TIP3    H140309   1.826   3.739   8.434
 6250TIP3    H240310   1.807   3.830   8.314
 6251TIP3   OH240311   2.549   0.474   7.312
 6251TIP3    H140312   2.575   0.547   7.257
 6251TIP3    H240313   2.632   0.430   7.334
 6252TIP3   OH240314   3.017   2.193   0.885
 6252TIP3    H140315   2.946   2.224   0.941
 6252TIP3    H240316   3.020   2.099   0.899
 6253TIP3   OH240317   6.104   2.373   0.102
 6253TIP3    H140318   6.047   2.409   0.171
 6253TIP3    H240319   6.045   2.350   0.031
 6254TIP3   OH240320   6.011   5.906   8.453
 6254TIP3    H140321   6.039   5.818   8.478
 6254TIP3    H240322   5.961   5.938   8.529
 6255TIP3   OH240323   2.708   3.088   0.985
 6255TIP3    H140324   2.771   3.154   0.956
 6255TIP3    H240325   2.643   3.085   0.915
 6256TIP3   OH240326   5.561   3.970   8.289
 6256TIP3    H140327   5.622   3.985   8.362
 6256TIP3    H240328   5.609   3.998   8.212
 6257TIP3   OH240329   4.416   6.400   1.510
 6257TIP3    H140330   4.414   6.495   1.518
 6257TIP3    H240331   4.503   6.380   1.477
 6258TIP3   OH240332   2.182   1.329   0.255
 6258TIP3    H140333   2.234   1.300   0.179
 6258TIP3    H240334   2.243   1.383   0.306
 6259TIP3   OH240335   6.106   4.303   8.489
 6259TIP3    H140336   6.069   4.383   8.452
 6259TIP3    H240337   6.035   4.266   8.541
 6260TIP3   OH240338   2.528   5.172   6.942
 6260TIP3    H140339   2.505   5.253   6.989
 6260TIP3    H240340   2.487   5.181   6.857
 6261TIP3   OH240341   4.215   1.162   0.722
 6261TIP3    H140342   4.226   1.209   0.640
 6261TIP3    H240343   4.253   1.076   0.706
 6262TIP3   OH240344   2.871   3.208   8.627
 6262TIP3    H140345   2.912   3.283   8.670
 6262TIP3    H240346   2.837   3.155   8.698
 6263TIP3   OH240347   3.551   5.549   0.870
 6263TIP3    H140348   3.487   5.620   0.874
 6263TIP3    H240349   3.604   5.559   0.950
 6264TIP3   OH240350   2.148   4.536   7.884
 6264TIP3    H140351   2.150   4.442   7.899
 6264TIP3    H240352   2.226   4.553   7.831
 6265TIP3   OH240353   6.649   3.560   0.566
 6265TIP3    H140354   6.596   3.520   0.497
 6265TIP3    H240355   6.594   3.554   0.644
 6266TIP3   OH240356   0.928   2.035   0.982
 6266TIP3    H140357   0.895   2.092   1.052
 6266TIP3    H240358   0.913   1.946   1.015
 6267TIP3   OH240359   0.098   4.474   8.630
 6267TIP3    H140360   0.149   4.474   8.710
 6267TIP3    H240361   0.018   4.427   8.653
 6268TIP3   OH240362   5.504   5.999   2.893
 6268TIP3    H140363   5.527   5.977   2.803
 6268TIP3    H240364   5.578   6.050   2.926
 6269TIP3   OH240365   4.355   5.628   7.442
 6269TIP3    H140366   4.422   5.673   7.391
 6269TIP3    H240367   4.328   5.691   7.508
 6270TIP3   OH240368   1.318   3.882   0.203
 6270TIP3    H140369   1.407   3.880   0.238
 6270TIP3    H240370   1.307   3.971   0.169
 6271TIP3   OH240371   0.192   5.010   7.926
 6271TIP3    H140372   0.101   5.033   7.908
 6271TIP3    H240373   0.201   5.019   8.020
 6272TIP3   OH240374   4.921   2.235   1.841
 6272TIP3    H140375   4.967   2.161   1.802
 6272TIP3    H240376   4.970   2.254   1.921
 6273TIP3   OH240377   0.996   3.209   1.598
 6273TIP3    H140378   0.924   3.265   1.627
 6273TIP3    H240379   0.958   3.153   1.531
 6274TIP3   OH240380   2.684   0.711   6.047
 6274TIP3    H140381   2.730   0.791   6.021
 6274TIP3    H240382   2.744   0.641   6.021
 6275TIP3   OH240383   2.255   4.029   1.541
 6275TIP3    H140384   2.250   4.075   1.457
 6275TIP3    H240385   2.189   4.072   1.595
 6276TIP3   OH240386   5.117   0.939   0.831
 6276TIP3    H140387   5.200   0.892   0.822
 6276TIP3    H240388   5.083   0.910   0.915
 6277TIP3   OH240389   0.622   2.806   1.752
 6277TIP3    H140390   0.620   2.893   1.713
 6277TIP3    H240391   0.592   2.820   1.842
 6278TIP3   OH240392   6.766   3.564   8.099
 6278TIP3    H140393   6.763   3.597   8.189
 6278TIP3    H240394   6.675   3.539   8.079
 6279TIP3   OH240395   6.761   3.188   1.849
 6279TIP3    H140396   0.004   3.231   1.776
 6279TIP3    H240397   6.693   3.134   1.808
 6280TIP3   OH240398   3.135   1.287   8.365
 6280TIP3    H140399   3.158   1.247   8.449
 6280TIP3    H240400   3.210   1.267   8.308
 6281TIP3   OH240401   6.513   3.598   3.134
 6281TIP3    H140402   6.572   3.641   3.072
 6281TIP3    H240403   6.565   3.524   3.168
 6282TIP3   OH240404   5.494   4.551   0.053
 6282TIP3    H140405   5.519   4.632   0.098
 6282TIP3    H240406   5.413   4.574   0.007
 6283TIP3   OH240407   2.429   5.794   0.472
 6283TIP3    H140408   2.390   5.863   0.526
 6283TIP3    H240409   2.495   5.839   0.420
 6284TIP3   OH240410   3.744   6.538   8.747
 6284TIP3    H140411   3.787   6.547   8.662
 6284TIP3    H240412   3.706   6.450   8.746
 6285TIP3   OH240413   4.843   2.259   1.049
 6285TIP3    H140414   4.804   2.342   1.021
 6285TIP3    H240415   4.781   2.224   1.113
 6286TIP3   OH240416   2.383   2.010   7.528
 6286TIP3    H140417   2.376   2.082   7.465
 6286TIP3    H240418   2.300   1.963   7.520
 6287TIP3   OH240419   4.332   6.210   1.710
 6287TIP3    H140420   4.324   6.266   1.633
 6287TIP3    H240421   4.346   6.271   1.783
 6288TIP3   OH240422   1.760   0.756   0.296
 6288TIP3    H140423   1.854   0.759   0.317
 6288TIP3    H240424   1.719   0.815   0.359
 6289TIP3   OH240425   4.714   3.759   7.327
 6289TIP3    H140426   4.805   3.732   7.332
 6289TIP3    H240427   4.695   3.764   7.233
 6290TIP3   OH240428   5.399   1.404   0.066
 6290TIP3    H140429   5.342   1.420   0.142
 6290TIP3    H240430   5.452   1.328   0.091
 6291TIP3   OH240431   3.085   1.257   0.741
 6291TIP3    H140432   2.992   1.234   0.750
 6291TIP3    H240433   3.098   1.262   0.646
 6292TIP3   OH240434   5.339   1.293   7.822
 6292TIP3    H140435   5.381   1.233   7.884
 6292TIP3    H240436   5.398   1.368   7.817
 6293TIP3   OH240437   4.927   6.602   1.337
 6293TIP3    H140438   4.954   6.512   1.319
 6293TIP3    H240439   4.854   6.617   1.277
 6294TIP3   OH240440   5.780   5.102   1.770
 6294TIP3    H140441   5.781   5.188   1.727
 6294TIP3    H240442   5.695   5.097   1.813
 6295TIP3   OH240443   6.379   6.394   7.739
 6295TIP3    H140444   6.294   6.436   7.753
 6295TIP3    H240445   6.437   6.466   7.712
 6296TIP3   OH240446   6.473   5.558   0.627
 6296TIP3    H140447   6.515   5.480   0.663
 6296TIP3    H240448   6.546   5.616   0.604
 6297TIP3   OH240449   6.350   5.991   0.398
 6297TIP3    H140450   6.410   6.017   0.468
 6297TIP3    H240451   6.382   6.039   0.321
 6298TIP3   OH240452   4.880   3.853   8.120
 6298TIP3    H140453   4.803   3.911   8.122
 6298TIP3    H240454   4.952   3.909   8.148
 6299TIP3   OH240455   3.412   5.795   0.347
 6299TIP3    H140456   3.462   5.859   0.296
 6299TIP3    H240457   3.434   5.815   0.438
 6300TIP3   OH240458   1.302   3.504   1.813
 6300TIP3    H140459   1.310   3.507   1.718
 6300TIP3    H240460   1.242   3.432   1.830
 6301TIP3   OH240461   5.202   0.898   2.098
 6301TIP3    H140462   5.150   0.959   2.047
 6301TIP3    H240463   5.174   0.911   2.188
 6302TIP3   OH240464   3.606   6.169   1.168
 6302TIP3    H140465   3.608   6.130   1.256
 6302TIP3    H240466   3.685   6.222   1.163
 6303TIP3   OH240467   5.383   2.881   8.469
 6303TIP3    H140468   5.292   2.864   8.494
 6303TIP3    H240469   5.379   2.893   8.374
 6304TIP3   OH240470   4.041   0.867   1.670
 6304TIP3    H140471   3.975   0.807   1.707
 6304TIP3    H240472   4.037   0.944   1.727
 6305TIP3   OH240473   2.552   0.337   7.784
 6305TIP3    H140474   2.493   0.366   7.716
 6305TIP3    H240475   2.636   0.325   7.740
 6306TIP3   OH240476   6.754   2.062   6.898
 6306TIP3    H140477   0.017   2.026   6.836
 6306TIP3    H240478   6.672   2.017   6.877
 6307TIP3   OH240479   2.025   3.614   8.721
 6307TIP3    H140480   2.044   3.629   8.628
 6307TIP3    H240481   1.939   3.572   8.721
 6308TIP3   OH240482   1.703   0.496   7.562
 6308TIP3    H140483   1.775   0.500   7.498
 6308TIP3    H240484   1.624   0.508   7.510
 6309TIP3   OH240485   1.473   0.578   1.244
 6309TIP3    H140486   1.556   0.626   1.238
 6309TIP3    H240487   1.440   0.599   1.332
 6310TIP3   OH240488   2.231   3.041   1.429
 6310TIP3    H140489   2.321   3.053   1.460
 6310TIP3    H240490   2.228   2.951   1.399
 6311TIP3   OH240491   1.608   2.820   7.395
 6311TIP3    H140492   1.639   2.732   7.415
 6311TIP3    H240493   1.593   2.820   7.301
 6312TIP3   OH240494   3.513   4.081   1.072
 6312TIP3    H140495   3.549   4.060   1.158
 6312TIP3    H240496   3.458   4.158   1.087
 6313TIP3   OH240497   6.625   4.507   7.699
 6313TIP3    H140498   6.544   4.536   7.742
 6313TIP3    H240499   6.659   4.438   7.755
 6314TIP3   OH240500   0.179   4.366   2.547
 6314TIP3    H140501   0.240   4.292   2.540
 6314TIP3    H240502   0.106   4.342   2.490
 6315TIP3   OH240503   4.373   3.584   1.339
 6315TIP3    H140504   4.414   3.647   1.398
 6315TIP3    H240505   4.309   3.635   1.290
 6316TIP3   OH240506   5.134   0.578   1.751
 6316TIP3    H140507   5.227   0.570   1.732
 6316TIP3    H240508   5.121   0.670   1.772
 6317TIP3   OH240509   1.517   4.925   8.750
 6317TIP3    H140510   1.575   5.000   8.736
 6317TIP3    H240511   1.527   4.904   8.843
 6318TIP3   OH240512   1.117   0.804   7.957
 6318TIP3    H140513   1.150   0.839   7.875
 6318TIP3    H240514   1.022   0.797   7.944
 6319TIP3   OH240515   0.578   0.575   7.815
 6319TIP3    H140516   0.548   0.638   7.880
 6319TIP3    H240517   0.635   0.515   7.864
 6320TIP3   OH240518   6.555   1.131   8.721
 6320TIP3    H140519   6.506   1.179   8.654
 6320TIP3    H240520   6.534   1.039   8.704
 6321TIP3   OH240521   6.619   1.327   0.752
 6321TIP3    H140522   6.603   1.411   0.795
 6321TIP3    H240523   6.621   1.348   0.659
 6322TIP3   OH240524   3.836   3.341   6.630
 6322TIP3    H140525   3.927   3.341   6.599
 6322TIP3    H240526   3.809   3.250   6.623
 6323TIP3   OH240527   0.055   3.864   1.588
 6323TIP3    H140528   6.794   3.906   1.649
 6323TIP3    H240529   0.020   3.886   1.501
 6324TIP3   OH240530   5.668   1.194   7.814
 6324TIP3    H140531   5.622   1.259   7.866
 6324TIP3    H240532   5.704   1.133   7.879
 6325TIP3   OH240533   5.924   0.662   8.437
 6325TIP3    H140534   5.978   0.601   8.388
 6325TIP3    H240535   5.845   0.673   8.383
 6326TIP3   OH240536   3.339   5.324   8.285
 6326TIP3    H140537   3.262   5.266   8.282
 6326TIP3    H240538   3.397   5.282   8.348
 6327TIP3   OH240539   6.650   1.327   0.034
 6327TIP3    H140540   6.631   1.260   0.100
 6327TIP3    H240541   6.614   1.291   8.813
 6328TIP3   OH240542   1.972   6.234   6.562
 6328TIP3    H140543   1.928   6.244   6.646
 6328TIP3    H240544   1.902   6.233   6.497
 6329TIP3   OH240545   1.681   0.415   0.341
 6329TIP3    H140546   1.626   0.341   0.317
 6329TIP3    H240547   1.626   0.470   0.397
 6330TIP3   OH240548   6.280   1.181   7.804
 6330TIP3    H140549   6.317   1.096   7.781
 6330TIP3    H240550   6.348   1.223   7.857
 6331TIP3   OH240551   2.650   1.616   7.191
 6331TIP3    H140552   2.708   1.680   7.150
 6331TIP3    H240553   2.699   1.584   7.267
 6332TIP3   OH240554   2.949   6.025   8.452
 6332TIP3    H140555   3.005   6.078   8.396
 6332TIP3    H240556   2.862   6.034   8.414
 6333TIP3   OH240557   5.296   2.926   0.620
 6333TIP3    H140558   5.206   2.938   0.651
 6333TIP3    H240559   5.341   3.005   0.649
 6334TIP3   OH240560   0.385   3.437   1.182
 6334TIP3    H140561   0.329   3.515   1.177
 6334TIP3    H240562   0.329   3.366   1.149
 6335TIP3   OH240563   4.282   5.567   1.196
 6335TIP3    H140564   4.349   5.623   1.235
 6335TIP3    H240565   4.320   5.479   1.197
 6336TIP3   OH240566   1.286   3.622   0.230
 6336TIP3    H140567   1.283   3.716   0.212
 6336TIP3    H240568   1.209   3.606   0.285
 6337TIP3   OH240569   0.656   6.430   7.493
 6337TIP3    H140570   0.673   6.524   7.497
 6337TIP3    H240571   0.594   6.414   7.564
 6338TIP3   OH240572   4.876   1.574   1.041
 6338TIP3    H140573   4.966   1.596   1.017
 6338TIP3    H240574   4.822   1.637   0.994
 6339TIP3   OH240575   2.540   4.015   6.801
 6339TIP3    H140576   2.607   4.010   6.732
 6339TIP3    H240577   2.571   3.955   6.869
 6340TIP3   OH240578   4.838   5.231   8.773
 6340TIP3    H140579   4.803   5.159   8.721
 6340TIP3    H240580   4.783   5.307   8.749
 6341TIP3   OH240581   3.846   2.026   6.888
 6341TIP3    H140582   3.787   1.999   6.818
 6341TIP3    H240583   3.799   2.005   6.969
 6342TIP3   OH240584   0.932   0.161   0.485
 6342TIP3    H140585   0.844   0.197   0.475
 6342TIP3    H240586   0.948   0.113   0.404
 6343TIP3   OH240587   2.783   4.126   0.680
 6343TIP3    H140588   2.783   4.033   0.655
 6343TIP3    H240589   2.804   4.126   0.774
 6344TIP3   OH240590   5.987   1.663   1.640
 6344TIP3    H140591   5.963   1.746   1.599
 6344TIP3    H240592   5.935   1.660   1.720
 6345TIP3   OH240593   2.857   6.380   8.559
 6345TIP3    H140594   2.848   6.311   8.625
 6345TIP3    H240595   2.770   6.385   8.519
 6346TIP3   OH240596   5.011   0.288   0.224
 6346TIP3    H140597   5.070   0.363   0.228
 6346TIP3    H240598   4.984   0.275   0.314
 6347TIP3   OH240599   4.691   2.185   1.287
 6347TIP3    H140600   4.662   2.094   1.274
 6347TIP3    H240601   4.745   2.182   1.366
 6348TIP3   OH240602   0.150   0.830   8.486
 6348TIP3    H140603   0.186   0.818   8.574
 6348TIP3    H240604   0.218   0.795   8.428
 6349TIP3   OH240605   4.122   4.122   2.214
 6349TIP3    H140606   4.100   4.042   2.166
 6349TIP3    H240607   4.218   4.121   2.220
 6350TIP3   OH240608   5.120   4.581   1.247
 6350TIP3    H140609   5.184   4.608   1.181
 6350TIP3    H240610   5.086   4.664   1.282
 6351TIP3   OH240611   0.478   1.873   7.597
 6351TIP3    H140612   0.488   1.795   7.542
 6351TIP3    H240613   0.445   1.940   7.536
 6352TIP3   OH240614   3.981   5.203   0.314
 6352TIP3    H140615   3.989   5.298   0.312
 6352TIP3    H240616   3.922   5.185   0.386
 6353TIP3   OH240617   2.618   4.362   1.311
 6353TIP3    H140618   2.538   4.378   1.360
 6353TIP3    H240619   2.602   4.399   1.225
 6354TIP3   OH240620   4.793   1.549   8.586
 6354TIP3    H140621   4.854   1.477   8.570
 6354TIP3    H240622   4.738   1.552   8.508
 6355TIP3   OH240623   3.714   0.206   6.189
 6355TIP3    H140624   3.664   0.125   6.185
 6355TIP3    H240625   3.787   0.192   6.128
 6356TIP3   OH240626   1.916   0.151   2.560
 6356TIP3    H140627   1.910   0.057   2.543
 6356TIP3    H240628   2.003   0.176   2.528
 6357TIP3   OH240629   5.313   2.951   0.958
 6357TIP3    H140630   5.405   2.978   0.957
 6357TIP3    H240631   5.311   2.870   0.906
 6358TIP3   OH240632   1.371   2.357   7.808
 6358TIP3    H140633   1.388   2.294   7.738
 6358TIP3    H240634   1.381   2.307   7.888
 6359TIP3   OH240635   2.726   4.105   1.305
 6359TIP3    H140636   2.819   4.099   1.283
 6359TIP3    H240637   2.704   4.198   1.296
 6360TIP3   OH240638   2.609   0.141   7.476
 6360TIP3    H140639   2.663   0.101   7.408
 6360TIP3    H240640   2.670   0.193   7.529
 6361TIP3   OH240641   4.890   2.850   8.363
 6361TIP3    H140642   4.809   2.825   8.409
 6361TIP3    H240643   4.865   2.923   8.308
 6362TIP3   OH240644   5.265   2.010   7.016
 6362TIP3    H140645   5.225   2.060   6.945
 6362TIP3    H240646   5.223   2.043   7.095
 6363TIP3   OH240647   2.326   1.858   7.885
 6363TIP3    H140648   2.322   1.788   7.820
 6363TIP3    H240649   2.384   1.824   7.953
 6364TIP3   OH240650   2.331   2.883   6.840
 6364TIP3    H140651   2.281   2.873   6.921
 6364TIP3    H240652   2.264   2.889   6.772
 6365TIP3   OH240653   6.116   3.035   8.730
 6365TIP3    H140654   6.117   2.939   8.733
 6365TIP3    H240655   6.085   3.056   8.642
 6366TIP3   OH240656   5.458   5.240   1.086
 6366TIP3    H140657   5.491   5.182   1.154
 6366TIP3    H240658   5.522   5.311   1.082
 6367TIP3   OH240659   3.664   6.692   1.602
 6367TIP3    H140660   3.584   6.707   1.652
 6367TIP3    H240661   3.734   6.712   1.664
 6368TIP3   OH240662   0.121   0.324   8.693
 6368TIP3    H140663   0.026   0.316   8.681
 6368TIP3    H240664   0.148   0.390   8.630
 6369TIP3   OH240665   3.475   3.887   8.062
 6369TIP3    H140666   3.441   3.839   8.138
 6369TIP3    H240667   3.417   3.863   7.990
 6370TIP3   OH240668   1.252   1.255   6.461
 6370TIP3    H140669   1.342   1.244   6.429
 6370TIP3    H240670   1.254   1.339   6.507
 6371TIP3   OH240671   0.146   2.262   0.853
 6371TIP3    H140672   0.052   2.271   0.836
 6371TIP3    H240673   0.164   2.169   0.837
 6372TIP3   OH240674   1.236   0.637   7.294
 6372TIP3    H140675   1.166   0.645   7.229
 6372TIP3    H240676   1.302   0.701   7.266
 6373TIP3   OH240677   5.759   4.547   0.016
 6373TIP3    H140678   5.665   4.534   0.029
 6373TIP3    H240679   5.797   4.532   0.103
 6374TIP3   OH240680   5.846   3.159   1.427
 6374TIP3    H140681   5.789   3.220   1.380
 6374TIP3    H240682   5.849   3.193   1.516
 6375TIP3   OH240683   0.699   1.347   8.814
 6375TIP3    H140684   0.764   1.315   8.751
 6375TIP3    H240685   0.664   1.427   8.774
 6376TIP3   OH240686   1.525   3.901   8.169
 6376TIP3    H140687   1.462   3.858   8.226
 6376TIP3    H240688   1.490   3.887   8.081
 6377TIP3   OH240689   3.045   3.340   6.328
 6377TIP3    H140690   3.080   3.423   6.294
 6377TIP3    H240691   3.084   3.333   6.416
 6378TIP3   OH240692   5.830   2.743   0.943
 6378TIP3    H140693   5.804   2.712   0.856
 6378TIP3    H240694   5.920   2.773   0.932
 6379TIP3   OH240695   6.790   6.332   0.845
 6379TIP3    H140696   6.792   6.237   0.844
 6379TIP3    H240697   6.773   6.355   0.937
 6380TIP3   OH240698   6.021   0.618   1.856
 6380TIP3    H140699   6.075   0.623   1.777
 6380TIP3    H240700   5.939   0.660   1.831
 6381TIP3   OH240701   5.004   0.794   1.025
 6381TIP3    H140702   4.920   0.762   1.058
 6381TIP3    H240703   5.048   0.831   1.102
 6382TIP3   OH240704   5.627   2.138   6.575
 6382TIP3    H140705   5.575   2.218   6.584
 6382TIP3    H240706   5.670   2.147   6.490
 6383TIP3   OH240707   2.763   0.574   7.581
 6383TIP3    H140708   2.773   0.624   7.662
 6383TIP3    H240709   2.750   0.641   7.514
 6384TIP3   OH240710   4.562   5.199   2.762
 6384TIP3    H140711   4.497   5.227   2.697
 6384TIP3    H240712   4.622   5.273   2.769
 6385TIP3   OH240713   4.939   6.122   0.699
 6385TIP3    H140714   4.995   6.050   0.727
 6385TIP3    H240715   4.900   6.091   0.617
 6386TIP3   OH240716   0.038   4.529   0.792
 6386TIP3    H140717   0.110   4.576   0.835
 6386TIP3    H240718   6.775   4.598   0.770
 6387TIP3   OH240719   5.092   1.605   6.345
 6387TIP3    H140720   5.160   1.631   6.282
 6387TIP3    H240721   5.139   1.588   6.426
 6388TIP3   OH240722   5.365   3.450   2.487
 6388TIP3    H140723   5.282   3.458   2.535
 6388TIP3    H240724   5.395   3.540   2.477
 6389TIP3   OH240725   2.998   5.459   0.220
 6389TIP3    H140726   3.044   5.527   0.269
 6389TIP3    H240727   2.986   5.387   0.282
 6390TIP3   OH240728   5.482   4.145   8.096
 6390TIP3    H140729   5.386   4.139   8.103
 6390TIP3    H240730   5.504   4.228   8.138
 6391TIP3   OH240731   0.558   2.924   8.538
 6391TIP3    H140732   0.493   2.991   8.561
 6391TIP3    H240733   0.622   2.971   8.483
 6392TIP3   OH240734   3.846   2.066   7.854
 6392TIP3    H140735   3.826   2.138   7.794
 6392TIP3    H240736   3.913   2.015   7.808
 6393TIP3   OH240737   3.106   6.482   8.493
 6393TIP3    H140738   3.013   6.482   8.517
 6393TIP3    H240739   3.114   6.549   8.425
 6394TIP3   OH240740   5.498   2.436   6.611
 6394TIP3    H140741   5.511   2.467   6.521
 6394TIP3    H240742   5.418   2.480   6.640
 6395TIP3   OH240743   5.495   0.224   8.555
 6395TIP3    H140744   5.549   0.278   8.612
 6395TIP3    H240745   5.417   0.276   8.539
 6396TIP3   OH240746   3.510   6.682   6.703
 6396TIP3    H140747   3.564   6.612   6.665
 6396TIP3    H240748   3.429   6.637   6.730
 6397TIP3   OH240749   3.098   4.027   8.254
 6397TIP3    H140750   3.097   3.953   8.193
 6397TIP3    H240751   3.128   3.990   8.336
 6398TIP3   OH240752   3.082   3.491   0.858
 6398TIP3    H140753   3.152   3.545   0.821
 6398TIP3    H240754   3.115   3.401   0.851
 6399TIP3   OH240755   3.073   1.968   6.999
 6399TIP3    H140756   3.058   1.925   7.082
 6399TIP3    H240757   3.164   1.946   6.976
 6400TIP3   OH240758   4.861   3.129   6.888
 6400TIP3    H140759   4.784   3.075   6.867
 6400TIP3    H240760   4.824   3.215   6.908
 6401TIP3   OH240761   4.344   1.162   8.226
 6401TIP3    H140762   4.333   1.251   8.193
 6401TIP3    H240763   4.398   1.171   8.305
 6402TIP3   OH240764   5.100   5.613   7.619
 6402TIP3    H140765   5.127   5.701   7.594
 6402TIP3    H240766   5.005   5.619   7.629
 6403TIP3   OH240767   2.322   0.073   1.908
 6403TIP3    H140768   2.402   0.120   1.886
 6403TIP3    H240769   2.343   6.781   1.893
 6404TIP3   OH240770   3.448   3.662   6.290
 6404TIP3    H140771   3.426   3.678   6.382
 6404TIP3    H240772   3.543   3.678   6.285
 6405TIP3   OH240773   6.622   5.198   1.417
 6405TIP3    H140774   6.571   5.216   1.496
 6405TIP3    H240775   6.656   5.109   1.430
 6406TIP3   OH240776   5.922   4.984   8.016
 6406TIP3    H140777   5.833   4.966   8.046
 6406TIP3    H240778   5.923   4.955   7.925
 6407TIP3   OH240779   1.348   3.672   1.141
 6407TIP3    H140780   1.355   3.597   1.083
 6407TIP3    H240781   1.438   3.697   1.159
 6408TIP3   OH240782   1.244   4.878   8.293
 6408TIP3    H140783   1.252   4.946   8.227
 6408TIP3    H240784   1.158   4.892   8.332
 6409TIP3   OH240785   2.866   0.919   8.381
 6409TIP3    H140786   2.875   1.004   8.338
 6409TIP3    H240787   2.776   0.893   8.364
 6410TIP3   OH240788   1.776   3.159   8.520
 6410TIP3    H140789   1.755   3.245   8.484
 6410TIP3    H240790   1.694   3.111   8.517
 6411TIP3   OH240791   3.651   2.473   7.579
 6411TIP3    H140792   3.598   2.552   7.577
 6411TIP3    H240793   3.594   2.404   7.544
 6412TIP3   OH240794   4.715   0.535   0.759
 6412TIP3    H140795   4.714   0.625   0.728
 6412TIP3    H240796   4.794   0.529   0.814
 6413TIP3   OH240797   1.373   1.270   0.121
 6413TIP3    H140798   1.381   1.216   0.199
 6413TIP3    H240799   1.462   1.294   0.098
 6414TIP3   OH240800   5.155   0.661   2.364
 6414TIP3    H140801   5.159   0.757   2.361
 6414TIP3    H240802   5.224   0.632   2.305
 6415TIP3   OH240803   0.100   4.542   1.397
 6415TIP3    H140804   0.139   4.619   1.438
 6415TIP3    H240805   0.172   4.502   1.347
 6416TIP3   OH240806   4.441   3.927   8.460
 6416TIP3    H140807   4.357   3.895   8.492
 6416TIP3    H240808   4.499   3.851   8.465
 6417TIP3   OH240809   2.689   2.233   0.228
 6417TIP3    H140810   2.606   2.278   0.212
 6417TIP3    H240811   2.716   2.264   0.314
 6418TIP3   OH240812   2.425   6.667   1.326
 6418TIP3    H140813   2.486   6.614   1.274
 6418TIP3    H240814   2.419   6.622   1.410
 6419TIP3   OH240815   4.118   2.952   1.509
 6419TIP3    H140816   4.130   2.871   1.558
 6419TIP3    H240817   4.183   3.012   1.546
 6420TIP3   OH240818   2.645   0.263   6.926
 6420TIP3    H140819   2.720   0.284   6.871
 6420TIP3    H240820   2.666   0.177   6.962
 6421TIP3   OH240821   2.536   2.338   6.703
 6421TIP3    H140822   2.563   2.386   6.625
 6421TIP3    H240823   2.535   2.403   6.772
 6422TIP3   OH240824   5.400   6.289   0.754
 6422TIP3    H140825   5.433   6.211   0.709
 6422TIP3    H240826   5.456   6.360   0.723
 6423TIP3   OH240827   5.499   1.317   7.145
 6423TIP3    H140828   5.463   1.404   7.163
 6423TIP3    H240829   5.565   1.304   7.213
 6424TIP3   OH240830   6.337   6.383   6.661
 6424TIP3    H140831   6.381   6.451   6.711
 6424TIP3    H240832   6.392   6.370   6.584
 6425TIP3   OH240833   6.061   5.350   0.362
 6425TIP3    H140834   6.115   5.402   0.303
 6425TIP3    H240835   5.982   5.330   0.311
 6426TIP3   OH240836   0.665   1.276   2.248
 6426TIP3    H140837   0.612   1.322   2.313
 6426TIP3    H240838   0.615   1.197   2.227
 6427TIP3   OH240839   2.815   3.280   7.363
 6427TIP3    H140840   2.737   3.312   7.408
 6427TIP3    H240841   2.809   3.316   7.274
 6428TIP3   OH240842   3.730   1.788   8.454
 6428TIP3    H140843   3.772   1.720   8.401
 6428TIP3    H240844   3.668   1.740   8.510
 6429TIP3   OH240845   6.265   3.102   7.782
 6429TIP3    H140846   6.275   3.020   7.831
 6429TIP3    H240847   6.288   3.078   7.692
 6430TIP3   OH240848   4.104   5.997   7.243
 6430TIP3    H140849   4.078   5.906   7.256
 6430TIP3    H240850   4.022   6.044   7.230
 6431TIP3   OH240851   5.354   5.809   0.070
 6431TIP3    H140852   5.312   5.868   0.007
 6431TIP3    H240853   5.343   5.852   0.154
 6432TIP3   OH240854   6.688   2.160   2.299
 6432TIP3    H140855   6.641   2.078   2.313
 6432TIP3    H240856   6.779   2.140   2.319
 6433TIP3   OH240857   0.379   5.348   7.929
 6433TIP3    H140858   0.408   5.309   8.011
 6433TIP3    H240859   0.313   5.412   7.954
 6434TIP3   OH240860   3.446   0.634   1.633
 6434TIP3    H140861   3.386   0.662   1.563
 6434TIP3    H240862   3.398   0.652   1.714
 6435TIP3   OH240863   5.998   5.180   8.194
 6435TIP3    H140864   6.036   5.117   8.133
 6435TIP3    H240865   5.948   5.240   8.139
 6436TIP3   OH240866   4.275   5.350   0.900
 6436TIP3    H140867   4.280   5.307   0.986
 6436TIP3    H240868   4.352   5.407   0.897
 6437TIP3   OH240869   3.020   3.638   0.130
 6437TIP3    H140870   3.063   3.565   0.175
 6437TIP3    H240871   2.942   3.657   0.184
 6438TIP3   OH240872   0.622   6.669   0.387
 6438TIP3    H140873   0.534   6.655   0.421
 6438TIP3    H240874   0.648   6.585   0.350
 6439TIP3   OH240875   5.790   0.269   1.707
 6439TIP3    H140876   5.764   0.320   1.783
 6439TIP3    H240877   5.857   0.209   1.741
 6440TIP3   OH240878   3.297   6.022   7.601
 6440TIP3    H140879   3.241   6.053   7.529
 6440TIP3    H240880   3.306   5.928   7.586
 6441TIP3   OH240881   4.970   5.731   8.264
 6441TIP3    H140882   4.924   5.756   8.345
 6441TIP3    H240883   5.023   5.656   8.289
 6442TIP3   OH240884   0.943   3.253   7.728
 6442TIP3    H140885   0.924   3.159   7.727
 6442TIP3    H240886   1.014   3.264   7.665
 6443TIP3   OH240887   4.600   4.909   7.656
 6443TIP3    H140888   4.636   4.831   7.613
 6443TIP3    H240889   4.582   4.969   7.584
 6444TIP3   OH240890   5.543   5.658   7.910
 6444TIP3    H140891   5.557   5.676   8.003
 6444TIP3    H240892   5.550   5.744   7.868
 6445TIP3   OH240893   1.385   2.519   7.093
 6445TIP3    H140894   1.465   2.470   7.077
 6445TIP3    H240895   1.341   2.471   7.163
 6446TIP3   OH240896   5.888   6.045   8.264
 6446TIP3    H140897   5.961   6.001   8.306
 6446TIP3    H240898   5.877   6.126   8.314
 6447TIP3   OH240899   1.419   5.056   7.254
 6447TIP3    H140900   1.385   5.106   7.180
 6447TIP3    H240901   1.440   5.123   7.320
 6448TIP3   OH240902   1.234   3.133   8.484
 6448TIP3    H140903   1.201   3.044   8.478
 6448TIP3    H240904   1.202   3.165   8.569
 6449TIP3   OH240905   3.414   1.509   8.167
 6449TIP3    H140906   3.402   1.437   8.104
 6449TIP3    H240907   3.508   1.511   8.183
 6450TIP3   OH240908   2.931   0.908   0.720
 6450TIP3    H140909   3.016   0.924   0.679
 6450TIP3    H240910   2.867   0.942   0.658
 6451TIP3   OH240911   5.364   3.301   6.952
 6451TIP3    H140912   5.336   3.280   7.041
 6451TIP3    H240913   5.288   3.281   6.897
 6452TIP3   OH240914   1.309   3.722   8.696
 6452TIP3    H140915   1.330   3.629   8.688
 6452TIP3    H240916   1.368   3.754   8.765
 6453TIP3   OH240917   0.184   3.006   7.172
 6453TIP3    H140918   0.154   2.934   7.116
 6453TIP3    H240919   0.143   2.989   7.257
 6454TIP3   OH240920   3.693   0.766   0.831
 6454TIP3    H140921   3.769   0.825   0.827
 6454TIP3    H240922   3.619   0.825   0.846
 6455TIP3   OH240923   1.461   1.029   0.299
 6455TIP3    H140924   1.472   0.967   0.227
 6455TIP3    H240925   1.522   0.999   0.366
 6456TIP3   OH240926   6.481   2.368   1.517
 6456TIP3    H140927   6.545   2.370   1.446
 6456TIP3    H240928   6.396   2.377   1.474
 6457TIP3   OH240929   3.501   3.948   0.507
 6457TIP3    H140930   3.552   3.890   0.565
 6457TIP3    H240931   3.479   4.023   0.562
 6458TIP3   OH240932   0.601   6.715   1.871
 6458TIP3    H140933   0.650   6.634   1.882
 6458TIP3    H240934   0.647   6.779   1.926
 6459TIP3   OH240935   0.753   1.674   0.550
 6459TIP3    H140936   0.811   1.710   0.617
 6459TIP3    H240937   0.696   1.748   0.526
 6460TIP3   OH240938   0.675   6.326   7.138
 6460TIP3    H140939   0.753   6.290   7.180
 6460TIP3    H240940   0.630   6.374   7.207
 6461TIP3   OH240941   3.442   4.144   8.175
 6461TIP3    H140942   3.450   4.060   8.129
 6461TIP3    H240943   3.532   4.172   8.190
 6462TIP3   OH240944   1.974   1.584   1.674
 6462TIP3    H140945   1.930   1.552   1.753
 6462TIP3    H240946   2.056   1.623   1.707
 6463TIP3   OH240947   1.146   0.908   8.482
 6463TIP3    H140948   1.087   0.873   8.414
 6463TIP3    H240949   1.203   0.834   8.503
 6464TIP3   OH240950   3.666   5.896   8.325
 6464TIP3    H140951   3.611   5.961   8.281
 6464TIP3    H240952   3.737   5.880   8.263
 6465TIP3   OH240953   6.711   6.428   2.296
 6465TIP3    H140954   6.694   6.357   2.358
 6465TIP3    H240955   0.006   6.431   2.288
 6466TIP3   OH240956   0.435   3.688   7.705
 6466TIP3    H140957   0.514   3.640   7.729
 6466TIP3    H240958   0.465   3.777   7.687
 6467TIP3   OH240959   0.411   0.175   7.936
 6467TIP3    H140960   0.502   0.189   7.963
 6467TIP3    H240961   0.408   0.082   7.910
 6468TIP3   OH240962   2.062   0.373   1.278
 6468TIP3    H140963   2.119   0.314   1.327
 6468TIP3    H240964   1.989   0.390   1.338
 6469TIP3   OH240965   3.071   2.769   2.527
 6469TIP3    H140966   3.034   2.714   2.596
 6469TIP3    H240967   3.162   2.783   2.553
 6470TIP3   OH240968   1.583   1.203   0.969
 6470TIP3    H140969   1.544   1.159   1.045
 6470TIP3    H240970   1.659   1.150   0.948
 6471TIP3   OH240971   0.081   5.653   1.763
 6471TIP3    H140972   0.012   5.588   1.754
 6471TIP3    H240973   0.107   5.672   1.673
 6472TIP3   OH240974   6.536   3.345   8.644
 6472TIP3    H140975   6.599   3.317   8.710
 6472TIP3    H240976   6.573   3.316   8.561
 6473TIP3   OH240977   0.138   2.927   8.290
 6473TIP3    H140978   0.120   3.009   8.244
 6473TIP3    H240979   0.159   2.955   8.379
 6474TIP3   OH240980   0.351   4.330   0.990
 6474TIP3    H140981   0.432   4.283   1.008
 6474TIP3    H240982   0.303   4.273   0.930
 6475TIP3   OH240983   3.274   1.853   0.033
 6475TIP3    H140984   3.212   1.853   0.105
 6475TIP3    H240985   3.265   1.940   8.853
 6476TIP3   OH240986   3.965   2.575   7.796
 6476TIP3    H140987   3.887   2.605   7.749
 6476TIP3    H240988   4.021   2.537   7.729
 6477TIP3   OH240989   5.742   1.499   8.425
 6477TIP3    H140990   5.676   1.432   8.408
 6477TIP3    H240991   5.701   1.558   8.489
 6478TIP3   OH240992   1.647   6.324   7.787
 6478TIP3    H140993   1.581   6.282   7.732
 6478TIP3    H240994   1.630   6.417   7.778
 6479TIP3   OH240995   4.179   4.151   0.277
 6479TIP3    H140996   4.265   4.126   0.245
 6479TIP3    H240997   4.127   4.070   0.273
 6480TIP3   OH240998   2.252   2.828   8.511
 6480TIP3    H140999   2.275   2.918   8.486
 6480TIP3    H241000   2.336   2.785   8.525
 6481TIP3   OH241001   0.543   2.683   6.860
 6481TIP3    H141002   0.573   2.616   6.798
 6481TIP3    H241003   0.590   2.762   6.833
 6482TIP3   OH241004   3.464   4.332   0.583
 6482TIP3    H141005   3.547   4.362   0.546
 6482TIP3    H241006   3.489   4.282   0.661
 6483TIP3   OH241007   1.453   5.238   7.451
 6483TIP3    H141008   1.459   5.322   7.406
 6483TIP3    H241009   1.535   5.230   7.499
 6484TIP3   OH241010   4.297   0.123   7.455
 6484TIP3    H141011   4.361   0.097   7.522
 6484TIP3    H241012   4.336   0.199   7.413
 6485TIP3   OH241013   6.568   2.928   0.869
 6485TIP3    H141014   6.652   2.975   0.868
 6485TIP3    H241015   6.523   2.962   0.946
 6486TIP3   OH241016   2.183   1.205   7.862
 6486TIP3    H141017   2.271   1.171   7.878
 6486TIP3    H241018   2.190   1.254   7.780
 6487TIP3   OH241019   2.050   2.858   7.906
 6487TIP3    H141020   1.983   2.822   7.963
 6487TIP3    H241021   2.065   2.947   7.938
 6488TIP3   OH241022   0.253   0.875   7.383
 6488TIP3    H141023   0.329   0.929   7.405
 6488TIP3    H241024   0.186   0.899   7.447
 6489TIP3   OH241025   1.663   6.496   1.381
 6489TIP3    H141026   1.681   6.558   1.310
 6489TIP3    H241027   1.645   6.552   1.457
 6490TIP3   OH241028   5.195   0.299   8.020
 6490TIP3    H141029   5.223   0.295   8.111
 6490TIP3    H241030   5.253   0.238   7.974
 6491TIP3   OH241031   5.719   6.068   0.030
 6491TIP3    H141032   5.718   5.973   0.027
 6491TIP3    H241033   5.631   6.093   0.059
 6492TIP3   OH241034   4.531   3.066   1.840
 6492TIP3    H141035   4.438   3.049   1.851
 6492TIP3    H241036   4.574   2.998   1.892
 6493TIP3   OH241037   2.323   3.366   8.238
 6493TIP3    H141038   2.244   3.420   8.232
 6493TIP3    H241039   2.330   3.324   8.152
 6494TIP3   OH241040   2.305   2.785   7.764
 6494TIP3    H141041   2.358   2.766   7.687
 6494TIP3    H241042   2.217   2.800   7.729
 6495TIP3   OH241043   5.745   4.896   0.440
 6495TIP3    H141044   5.761   4.803   0.423
 6495TIP3    H241045   5.727   4.933   0.354
 6496TIP3   OH241046   1.298   4.304   1.852
 6496TIP3    H141047   1.250   4.378   1.889
 6496TIP3    H241048   1.338   4.261   1.927
 6497TIP3   OH241049   3.703   0.704   6.681
 6497TIP3    H141050   3.742   0.743   6.603
 6497TIP3    H241051   3.726   0.611   6.675
 6498TIP3   OH241052   4.508   5.750   1.296
 6498TIP3    H141053   4.527   5.692   1.369
 6498TIP3    H241054   4.582   5.810   1.293
 6499TIP3   OH241055   1.293   0.177   1.066
 6499TIP3    H141056   1.226   0.113   1.093
 6499TIP3    H241057   1.247   0.234   1.005
 6500TIP3   OH241058   5.546   4.022   8.804
 6500TIP3    H141059   5.542   4.062   8.717
 6500TIP3    H241060   5.457   4.028   8.837
 6501TIP3   OH241061   1.753   6.246   8.036
 6501TIP3    H141062   1.726   6.282   7.952
 6501TIP3    H241063   1.833   6.294   8.058
 6502TIP3   OH241064   1.969   3.205   6.842
 6502TIP3    H141065   1.896   3.192   6.781
 6502TIP3    H241066   1.982   3.300   6.845
 6503TIP3   OH241067   2.497   5.172   1.079
 6503TIP3    H141068   2.561   5.155   1.148
 6503TIP3    H241069   2.546   5.218   1.011
 6504TIP3   OH241070   6.326   6.653   7.302
 6504TIP3    H141071   6.351   6.681   7.214
 6504TIP3    H241072   6.388   6.698   7.360
 6505TIP3   OH241073   1.523   1.237   6.998
 6505TIP3    H141074   1.474   1.318   6.984
 6505TIP3    H241075   1.605   1.250   6.951
 6506TIP3   OH241076   5.016   3.801   0.449
 6506TIP3    H141077   4.976   3.861   0.512
 6506TIP3    H241078   5.109   3.800   0.471
 6507TIP3   OH241079   4.425   5.359   2.596
 6507TIP3    H141080   4.421   5.448   2.561
 6507TIP3    H241081   4.408   5.303   2.521
 6508TIP3   OH241082   3.704   0.079   1.393
 6508TIP3    H141083   3.712   0.010   1.459
 6508TIP3    H241084   3.758   0.048   1.319
 6509TIP3   OH241085   4.500   0.703   0.521
 6509TIP3    H141086   4.528   0.614   0.499
 6509TIP3    H241087   4.581   0.750   0.540
 6510TIP3   OH241088   3.320   2.806   1.812
 6510TIP3    H141089   3.330   2.893   1.774
 6510TIP3    H241090   3.232   2.779   1.789
 6511TIP3   OH241091   0.128   5.235   0.369
 6511TIP3    H141092   0.179   5.154   0.382
 6511TIP3    H241093   0.092   5.227   0.281
 6512TIP3   OH241094   6.345   6.136   1.469
 6512TIP3    H141095   6.363   6.145   1.563
 6512TIP3    H241096   6.255   6.169   1.459
 6513TIP3   OH241097   6.023   1.622   2.445
 6513TIP3    H141098   5.968   1.620   2.366
 6513TIP3    H241099   6.029   1.531   2.472
 6514TIP3   OH241100   2.018   1.293   1.811
 6514TIP3    H141101   1.967   1.231   1.863
 6514TIP3    H241102   1.954   1.360   1.786
 6515TIP3   OH241103   5.405   6.040   0.263
 6515TIP3    H141104   5.485   6.002   0.299
 6515TIP3    H241105   5.362   6.082   0.338
 6516TIP3   OH241106   1.863   5.377   1.499
 6516TIP3    H141107   1.901   5.298   1.461
 6516TIP3    H241108   1.851   5.437   1.426
 6517TIP3   OH241109   2.054   5.377   7.566
 6517TIP3    H141110   2.026   5.300   7.515
 6517TIP3    H241111   2.127   5.345   7.619
 6518TIP3   OH241112   4.768   6.683   8.510
 6518TIP3    H141113   4.679   6.692   8.545
 6518TIP3    H241114   4.757   6.636   8.427
 6519TIP3   OH241115   5.667   3.953   0.532
 6519TIP3    H141116   5.698   3.870   0.568
 6519TIP3    H241117   5.705   3.955   0.443
 6520TIP3   OH241118   2.038   6.399   7.741
 6520TIP3    H141119   1.977   6.341   7.695
 6520TIP3    H241120   2.065   6.350   7.818
 6521TIP3   OH241121   5.907   6.236   1.165
 6521TIP3    H141122   5.861   6.203   1.242
 6521TIP3    H241123   5.975   6.171   1.148
 6522TIP3   OH241124   3.000   4.145   1.592
 6522TIP3    H141125   2.950   4.095   1.655
 6522TIP3    H241126   2.947   4.222   1.574
 6523TIP3   OH241127   1.261   5.298   0.966
 6523TIP3    H141128   1.297   5.215   0.934
 6523TIP3    H241129   1.308   5.315   1.047
 6524TIP3   OH241130   0.206   2.440   0.641
 6524TIP3    H141131   0.188   2.391   0.722
 6524TIP3    H241132   0.128   2.425   0.587
 6525TIP3   OH241133   2.589   2.667   1.284
 6525TIP3    H141134   2.632   2.673   1.369
 6525TIP3    H241135   2.643   2.722   1.226
 6526TIP3   OH241136   6.598   1.843   0.457
 6526TIP3    H141137   6.586   1.915   0.395
 6526TIP3    H241138   6.690   1.820   0.448
 6527TIP3   OH241139   1.482   0.230   6.551
 6527TIP3    H141140   1.497   0.279   6.470
 6527TIP3    H241141   1.532   0.149   6.539
 6528TIP3   OH241142   5.267   5.185   7.094
 6528TIP3    H141143   5.361   5.177   7.077
 6528TIP3    H241144   5.232   5.097   7.079
 6529TIP3   OH241145   6.201   1.123   8.733
 6529TIP3    H141146   6.149   1.115   8.653
 6529TIP3    H241147   6.153   1.186   8.786
 6530TIP3   OH241148   5.575   4.362   8.614
 6530TIP3    H141149   5.605   4.339   8.702
 6530TIP3    H241150   5.491   4.407   8.628
 6531TIP3   OH241151   2.603   5.515   1.382
 6531TIP3    H141152   2.645   5.599   1.401
 6531TIP3    H241153   2.519   5.519   1.428
 6532TIP3   OH241154   3.067   5.300   0.656
 6532TIP3    H141155   3.146   5.343   0.690
 6532TIP3    H241156   3.000   5.368   0.657
 6533TIP3   OH241157   4.922   0.030   0.737
 6533TIP3    H141158   4.833   0.023   0.772
 6533TIP3    H241159   4.942   0.123   0.742
 6534TIP3   OH241160   5.608   6.668   6.795
 6534TIP3    H141161   5.592   6.655   6.701
 6534TIP3    H241162   5.638   6.759   6.802
 6535TIP3   OH241163   5.906   4.146   8.601
 6535TIP3    H141164   5.916   4.055   8.572
 6535TIP3    H241165   5.847   4.140   8.676
 6536TIP3   OH241166   5.219   3.007   8.781
 6536TIP3    H141167   5.179   2.921   8.794
 6536TIP3    H241168   5.164   3.049   8.715
 6537TIP3   OH241169   3.339   5.058   1.048
 6537TIP3    H141170   3.411   5.013   1.092
 6537TIP3    H241171   3.378   5.097   0.971
 6538TIP3   OH241172   1.826   5.758   8.017
 6538TIP3    H141173   1.919   5.765   7.995
 6538TIP3    H241174   1.823   5.708   8.098
 6539TIP3   OH241175   5.104   1.806   1.500
 6539TIP3    H141176   5.048   1.834   1.428
 6539TIP3    H241177   5.044   1.771   1.565
 6540TIP3   OH241178   6.544   0.683   7.048
 6540TIP3    H141179   6.492   0.602   7.048
 6540TIP3    H241180   6.599   0.675   6.970
 6541TIP3   OH241181   2.232   6.370   2.187
 6541TIP3    H141182   2.156   6.314   2.171
 6541TIP3    H241183   2.306   6.308   2.190
 6542TIP3   OH241184   0.372   5.601   1.787
 6542TIP3    H141185   0.454   5.626   1.831
 6542TIP3    H241186   0.305   5.607   1.855
 6543TIP3   OH241187   4.598   1.982   8.694
 6543TIP3    H141188   4.546   2.061   8.681
 6543TIP3    H241189   4.557   1.938   8.768
 6544TIP3   OH241190   2.242   1.406   1.905
 6544TIP3    H141191   2.174   1.358   1.859
 6544TIP3    H241192   2.212   1.408   1.996
 6545TIP3   OH241193   5.230   3.309   7.878
 6545TIP3    H141194   5.263   3.399   7.870
 6545TIP3    H241195   5.153   3.317   7.934
 6546TIP3   OH241196   5.350   0.829   1.117
 6546TIP3    H141197   5.352   0.774   1.038
 6546TIP3    H241198   5.299   0.779   1.180
 6547TIP3   OH241199   3.279   6.465   1.374
 6547TIP3    H141200   3.255   6.428   1.289
 6547TIP3    H241201   3.372   6.487   1.365
 6548TIP3   OH241202   0.220   3.575   8.171
 6548TIP3    H141203   0.133   3.569   8.131
 6548TIP3    H241204   0.276   3.611   8.102
 6549TIP3   OH241205   4.829   0.504   2.077
 6549TIP3    H141206   4.830   0.427   2.021
 6549TIP3    H241207   4.737   0.527   2.087
 6550TIP3   OH241208   5.649   3.307   7.958
 6550TIP3    H141209   5.580   3.333   7.897
 6550TIP3    H241210   5.622   3.343   8.042
 6551TIP3   OH241211   3.115   6.752   8.822
 6551TIP3    H141212   3.144   6.776   8.734
 6551TIP3    H241213   3.153   0.020   0.018
 6552TIP3   OH241214   2.586   3.195   7.949
 6552TIP3    H141215   2.605   3.172   8.040
 6552TIP3    H241216   2.586   3.291   7.948
 6553TIP3   OH241217   3.032   2.781   0.431
 6553TIP3    H141218   3.125   2.766   0.446
 6553TIP3    H241219   2.993   2.777   0.518
 6554TIP3   OH241220   1.939   3.576   1.361
 6554TIP3    H141221   1.861   3.520   1.363
 6554TIP3    H241222   1.928   3.630   1.283
 6555TIP3   OH241223   0.315   2.989   0.264
 6555TIP3    H141224   0.312   2.998   0.359
 6555TIP3    H241225   0.336   2.897   0.250
 6556TIP3   OH241226   6.610   3.978   0.487
 6556TIP3    H141227   6.700   4.001   0.511
 6556TIP3    H241228   6.612   3.972   0.392
 6557TIP3   OH241229   6.121   0.856   6.868
 6557TIP3    H141230   6.081   0.817   6.790
 6557TIP3    H241231   6.201   0.898   6.836
 6558TIP3   OH241232   5.142   6.395   1.198
 6558TIP3    H141233   5.199   6.390   1.275
 6558TIP3    H241234   5.198   6.428   1.128
 6559TIP3   OH241235   4.764   0.698   2.499
 6559TIP3    H141236   4.823   0.622   2.500
 6559TIP3    H241237   4.823   0.774   2.494
 6560TIP3   OH241238   4.878   1.442   8.850
 6560TIP3    H141239   4.821   1.482   8.784
 6560TIP3    H241240   4.964   1.481   8.834
 6561TIP3   OH241241   4.918   3.477   1.012
 6561TIP3    H141242   4.918   3.392   0.967
 6561TIP3    H241243   4.857   3.531   0.961
 6562TIP3   OH241244   0.337   2.874   6.867
 6562TIP3    H141245   0.416   2.823   6.848
 6562TIP3    H241246   0.330   2.935   6.793
 6563TIP3   OH241247   3.690   1.402   8.548
 6563TIP3    H141248   3.612   1.348   8.561
 6563TIP3    H241249   3.759   1.340   8.523
 6564TIP3   OH241250   4.429   0.333   7.812
 6564TIP3    H141251   4.519   0.325   7.843
 6564TIP3    H241252   4.438   0.362   7.721
 6565TIP3   OH241253   4.423   5.541   0.019
 6565TIP3    H141254   4.331   5.520   0.001
 6565TIP3    H241255   4.420   5.599   0.095
 6566TIP3   OH241256   6.547   0.412   2.100
 6566TIP3    H141257   6.490   0.366   2.162
 6566TIP3    H241258   6.609   0.345   2.071
 6567TIP3   OH241259   2.854   4.920   8.807
 6567TIP3    H141260   2.797   4.901   8.733
 6567TIP3    H241261   2.797   4.965   0.009
 6568TIP3   OH241262   1.623   2.163   1.174
 6568TIP3    H141263   1.556   2.222   1.141
 6568TIP3    H241264   1.703   2.215   1.175
 6569TIP3   OH241265   3.800   4.324   1.598
 6569TIP3    H141266   3.797   4.337   1.503
 6569TIP3    H241267   3.852   4.398   1.630
 6570TIP3   OH241268   3.576   1.711   1.326
 6570TIP3    H141269   3.526   1.742   1.401
 6570TIP3    H241270   3.549   1.767   1.253
 6571TIP3   OH241271   1.152   1.869   0.155
 6571TIP3    H141272   1.127   1.914   0.074
 6571TIP3    H241273   1.069   1.837   0.191
 6572TIP3   OH241274   5.522   0.671   0.925
 6572TIP3    H141275   5.590   0.609   0.900
 6572TIP3    H241276   5.561   0.724   0.994
 6573TIP3   OH241277   1.316   4.244   7.869
 6573TIP3    H141278   1.288   4.286   7.788
 6573TIP3    H241279   1.277   4.298   7.938
 6574TIP3   OH241280   4.834   2.807   7.103
 6574TIP3    H141281   4.899   2.762   7.049
 6574TIP3    H241282   4.760   2.822   7.043
 6575TIP3   OH241283   5.623   6.340   8.032
 6575TIP3    H141284   5.618   6.252   8.069
 6575TIP3    H241285   5.664   6.393   8.101
 6576TIP3   OH241286   0.633   0.484   0.343
 6576TIP3    H141287   0.703   0.488   0.279
 6576TIP3    H241288   0.617   0.575   0.368
 6577TIP3   OH241289   4.794   0.787   1.377
 6577TIP3    H141290   4.727   0.853   1.396
 6577TIP3    H241291   4.793   0.778   1.282
 6578TIP3   OH241292   2.878   3.716   1.612
 6578TIP3    H141293   2.835   3.790   1.655
 6578TIP3    H241294   2.885   3.649   1.680
 6579TIP3   OH241295   6.185   2.024   8.116
 6579TIP3    H141296   6.166   2.075   8.195
 6579TIP3    H241297   6.277   1.999   8.125
 6580TIP3   OH241298   1.469   5.887   0.446
 6580TIP3    H141299   1.390   5.869   0.498
 6580TIP3    H241300   1.527   5.934   0.505
 6581TIP3   OH241301   4.926   4.349   8.222
 6581TIP3    H141302   4.947   4.256   8.215
 6581TIP3    H241303   5.009   4.394   8.210
 6582TIP3   OH241304   5.152   4.219   1.299
 6582TIP3    H141305   5.077   4.269   1.329
 6582TIP3    H241306   5.133   4.129   1.325
 6583TIP3   OH241307   3.187   5.015   0.553
 6583TIP3    H141308   3.122   4.966   0.502
 6583TIP3    H241309   3.135   5.062   0.618
 6584TIP3   OH241310   0.902   6.735   0.293
 6584TIP3    H141311   0.914   6.642   0.315
 6584TIP3    H241312   0.810   6.752   0.308
 6585TIP3   OH241313   6.494   4.059   0.862
 6585TIP3    H141314   6.422   4.048   0.800
 6585TIP3    H241315   6.573   4.041   0.811
 6586TIP3   OH241316   6.606   4.353   1.876
 6586TIP3    H141317   6.649   4.369   1.792
 6586TIP3    H241318   6.530   4.410   1.875
 6587TIP3   OH241319   3.273   2.654   1.252
 6587TIP3    H141320   3.352   2.648   1.306
 6587TIP3    H241321   3.247   2.562   1.239
 6588TIP3   OH241322   2.428   1.181   1.029
 6588TIP3    H141323   2.459   1.132   1.105
 6588TIP3    H241324   2.355   1.233   1.062
 6589TIP3   OH241325   2.366   0.403   1.422
 6589TIP3    H141326   2.347   0.315   1.454
 6589TIP3    H241327   2.361   0.459   1.499
 6590TIP3   OH241328   2.747   2.572   7.145
 6590TIP3    H141329   2.683   2.502   7.160
 6590TIP3    H241330   2.803   2.539   7.075
 6591TIP3   OH241331   1.038   1.714   1.609
 6591TIP3    H141332   1.061   1.689   1.520
 6591TIP3    H241333   0.957   1.764   1.600
 6592TIP3   OH241334   3.647   0.228   7.369
 6592TIP3    H141335   3.687   0.143   7.388
 6592TIP3    H241336   3.673   0.284   7.442
 6593TIP3   OH241337   0.031   1.882   0.707
 6593TIP3    H141338   0.049   1.867   0.614
 6593TIP3    H241339   0.054   1.799   0.749
 6594TIP3   OH241340   2.411   1.098   8.214
 6594TIP3    H141341   2.412   1.186   8.178
 6594TIP3    H241342   2.503   1.074   8.224
 6595TIP3   OH241343   0.079   4.572   7.077
 6595TIP3    H141344   0.109   4.653   7.035
 6595TIP3    H241345   0.019   4.533   7.014
 6596TIP3   OH241346   0.037   5.311   7.125
 6596TIP3    H141347   0.027   5.263   7.042
 6596TIP3    H241348   0.061   5.400   7.098
 6597TIP3   OH241349   1.899   4.955   0.573
 6597TIP3    H141350   1.909   5.027   0.635
 6597TIP3    H241351   1.978   4.958   0.519
 6598TIP3   OH241352   2.155   2.997   8.860
 6598TIP3    H141353   2.106   3.074   0.030
 6598TIP3    H241354   2.228   3.034   8.809
 6599TIP3   OH241355   2.398   1.636   7.758
 6599TIP3    H141356   2.491   1.660   7.762
 6599TIP3    H241357   2.383   1.613   7.667
 6600TIP3   OH241358   2.360   1.031   8.503
 6600TIP3    H141359   2.430   1.087   8.468
 6600TIP3    H241360   2.364   1.045   8.598
 6601TIP3   OH241361   5.910   1.912   1.116
 6601TIP3    H141362   5.825   1.929   1.074
 6601TIP3    H241363   5.944   1.998   1.138
 6602TIP3   OH241364   0.600   1.423   0.671
 6602TIP3    H141365   0.659   1.449   0.600
 6602TIP3    H241366   0.536   1.494   0.678
 6603TIP3   OH241367   3.867   2.173   1.621
 6603TIP3    H141368   3.852   2.118   1.544
 6603TIP3    H241369   3.961   2.167   1.637
 6604TIP3   OH241370   6.591   5.296   0.698
 6604TIP3    H141371   6.516   5.238   0.711
 6604TIP3    H241372   6.636   5.260   0.622
 6605TIP3   OH241373   3.303   4.370   6.784
 6605TIP3    H141374   3.342   4.391   6.699
 6605TIP3    H241375   3.310   4.274   6.791
 6606TIP3   OH241376   1.412   3.393   0.275
 6606TIP3    H141377   1.415   3.414   0.368
 6606TIP3    H241378   1.365   3.466   0.235
 6607TIP3   OH241379   1.398   6.254   0.888
 6607TIP3    H141380   1.320   6.231   0.937
 6607TIP3    H241381   1.469   6.207   0.933
 6608TIP3   OH241382   5.211   3.623   7.903
 6608TIP3    H141383   5.246   3.694   7.849
 6608TIP3    H241384   5.119   3.646   7.916
 6609TIP3   OH241385   3.771   5.391   1.240
 6609TIP3    H141386   3.796   5.480   1.265
 6609TIP3    H241387   3.818   5.375   1.158
 6610TIP3   OH241388   6.128   5.536   2.291
 6610TIP3    H141389   6.042   5.538   2.250
 6610TIP3    H241390   6.110   5.532   2.385
 6611TIP3   OH241391   0.409   0.639   8.437
 6611TIP3    H141392   0.494   0.660   8.476
 6611TIP3    H241393   0.419   0.662   8.345
 6612TIP3   OH241394   3.504   2.427   7.145
 6612TIP3    H141395   3.544   2.398   7.227
 6612TIP3    H241396   3.489   2.521   7.158
 6613TIP3   OH241397   5.765   4.242   0.000
 6613TIP3    H141398   5.734   4.289   0.078
 6613TIP3    H241399   5.736   4.152   0.014
 6614TIP3   OH241400   0.727   4.298   1.466
 6614TIP3    H141401   0.686   4.384   1.464
 6614TIP3    H241402   0.798   4.304   1.402
 6615TIP3   OH241403   3.507   2.973   7.466
 6615TIP3    H141404   3.517   3.044   7.403
 6615TIP3    H241405   3.414   2.972   7.487
 6616TIP3   OH241406   5.758   1.496   0.691
 6616TIP3    H141407   5.728   1.465   0.776
 6616TIP3    H241408   5.685   1.546   0.656
 6617TIP3   OH241409   3.089   3.822   8.078
 6617TIP3    H141410   3.165   3.829   8.021
 6617TIP3    H241411   3.085   3.729   8.101
 6618TIP3   OH241412   1.684   0.352   0.795
 6618TIP3    H141413   1.603   0.350   0.846
 6618TIP3    H241414   1.737   0.419   0.838
 6619TIP3   OH241415   2.696   3.779   7.447
 6619TIP3    H141416   2.685   3.687   7.428
 6619TIP3    H241417   2.675   3.824   7.365
 6620TIP3   OH241418   5.217   2.471   1.576
 6620TIP3    H141419   5.225   2.409   1.649
 6620TIP3    H241420   5.290   2.531   1.588
 6621TIP3   OH241421   4.125   2.410   7.097
 6621TIP3    H141422   4.148   2.472   7.165
 6621TIP3    H241423   4.174   2.439   7.020
 6622TIP3   OH241424   0.046   1.448   0.184
 6622TIP3    H141425   6.767   1.394   0.181
 6622TIP3    H241426   0.057   1.479   0.094
 6623TIP3   OH241427   1.008   0.800   0.121
 6623TIP3    H141428   1.022   0.746   0.044
 6623TIP3    H241429   1.096   0.828   0.148
 6624TIP3   OH241430   6.432   1.001   8.451
 6624TIP3    H141431   6.451   0.968   8.539
 6624TIP3    H241432   6.369   0.939   8.415
 6625TIP3   OH241433   2.608   2.088   6.425
 6625TIP3    H141434   2.552   2.150   6.378
 6625TIP3    H241435   2.639   2.137   6.501
 6626TIP3   OH241436   0.702   2.376   8.432
 6626TIP3    H141437   0.606   2.383   8.431
 6626TIP3    H241438   0.725   2.361   8.340
 6627TIP3   OH241439   0.444   6.056   1.163
 6627TIP3    H141440   0.462   6.145   1.135
 6627TIP3    H241441   0.390   6.019   1.093
 6628TIP3   OH241442   2.072   3.845   0.348
 6628TIP3    H141443   2.027   3.826   0.265
 6628TIP3    H241444   2.030   3.925   0.380
 6629TIP3   OH241445   4.598   2.734   1.055
 6629TIP3    H141446   4.669   2.719   1.117
 6629TIP3    H241447   4.591   2.829   1.049
 6630TIP3   OH241448   3.474   2.197   2.591
 6630TIP3    H141449   3.523   2.247   2.526
 6630TIP3    H241450   3.529   2.121   2.609
 6631TIP3   OH241451   2.804   3.151   0.035
 6631TIP3    H141452   2.837   3.115   0.118
 6631TIP3    H241453   2.740   3.217   0.062
 6632TIP3   OH241454   6.228   5.689   1.408
 6632TIP3    H141455   6.211   5.645   1.491
 6632TIP3    H241456   6.299   5.639   1.368
 6633TIP3   OH241457   6.034   5.112   1.331
 6633TIP3    H141458   6.122   5.131   1.300
 6633TIP3    H241459   6.047   5.060   1.410
 6634TIP3   OH241460   5.965   2.359   1.276
 6634TIP3    H141461   6.007   2.445   1.272
 6634TIP3    H241462   5.904   2.359   1.202
 6635TIP3   OH241463   2.963   4.070   1.121
 6635TIP3    H141464   2.962   3.998   1.058
 6635TIP3    H241465   2.972   4.028   1.206
 6636TIP3   OH241466   4.474   1.776   0.443
 6636TIP3    H141467   4.538   1.828   0.492
 6636TIP3    H241468   4.427   1.726   0.510
 6637TIP3   OH241469   3.444   4.486   6.988
 6637TIP3    H141470   3.390   4.446   6.920
 6637TIP3    H241471   3.431   4.430   7.065
 6638TIP3   OH241472   4.490   4.528   1.914
 6638TIP3    H141473   4.459   4.492   1.997
 6638TIP3    H241474   4.462   4.619   1.914
 6639TIP3   OH241475   5.297   4.137   8.558
 6639TIP3    H141476   5.324   4.053   8.521
 6639TIP3    H241477   5.301   4.123   8.653
 6640TIP3   OH241478   0.410   6.512   7.320
 6640TIP3    H141479   0.446   6.533   7.406
 6640TIP3    H241480   0.424   6.592   7.268
 6641TIP3   OH241481   4.925   5.395   7.863
 6641TIP3    H141482   4.836   5.412   7.891
 6641TIP3    H241483   4.975   5.471   7.894
 6642TIP3   OH241484   5.725   1.448   6.470
 6642TIP3    H141485   5.660   1.500   6.423
 6642TIP3    H241486   5.701   1.357   6.454
 6643TIP3   OH241487   4.394   3.031   1.533
 6643TIP3    H141488   4.452   2.960   1.506
 6643TIP3    H241489   4.367   3.008   1.622
 6644TIP3   OH241490   0.769   0.882   8.747
 6644TIP3    H141491   0.860   0.906   8.729
 6644TIP3    H241492   0.740   0.945   8.813
 6645TIP3   OH241493   4.207   1.874   2.198
 6645TIP3    H141494   4.152   1.848   2.272
 6645TIP3    H241495   4.280   1.922   2.236
 6646TIP3   OH241496   1.302   6.719   0.704
 6646TIP3    H141497   1.219   6.670   0.705
 6646TIP3    H241498   1.353   6.682   0.776
 6647TIP3   OH241499   2.066   2.919   7.528
 6647TIP3    H141500   2.013   2.844   7.556
 6647TIP3    H241501   2.123   2.884   7.460
 6648TIP3   OH241502   4.822   0.242   7.810
 6648TIP3    H141503   4.751   0.205   7.862
 6648TIP3    H241504   4.790   0.327   7.781
 6649TIP3   OH241505   4.786   3.356   8.288
 6649TIP3    H141506   4.716   3.292   8.296
 6649TIP3    H241507   4.750   3.425   8.232
 6650TIP3   OH241508   3.518   2.644   1.949
 6650TIP3    H141509   3.454   2.712   1.929
 6650TIP3    H241510   3.583   2.687   2.005
 6651TIP3   OH241511   3.766   3.551   1.332
 6651TIP3    H141512   3.673   3.532   1.344
 6651TIP3    H241513   3.782   3.628   1.387
 6652TIP3   OH241514   1.043   0.632   2.150
 6652TIP3    H141515   0.997   0.697   2.098
 6652TIP3    H241516   1.072   0.680   2.228
 6653TIP3   OH241517   4.015   0.068   6.760
 6653TIP3    H141518   3.959   0.036   6.689
 6653TIP3    H241519   3.978   0.153   6.784
 6654TIP3   OH241520   2.521   1.394   1.405
 6654TIP3    H141521   2.489   1.336   1.475
 6654TIP3    H241522   2.452   1.391   1.338
 6655TIP3   OH241523   0.650   1.579   8.158
 6655TIP3    H141524   0.736   1.614   8.182
 6655TIP3    H241525   0.666   1.532   8.076
 6656TIP3   OH241526   3.191   4.164   7.830
 6656TIP3    H141527   3.165   4.105   7.760
 6656TIP3    H241528   3.284   4.182   7.813
 6657TIP3   OH241529   0.637   1.036   6.039
 6657TIP3    H141530   0.723   0.995   6.051
 6657TIP3    H241531   0.607   1.055   6.128
 6658TIP3   OH241532   2.026   3.559   0.954
 6658TIP3    H141533   2.085   3.519   1.017
 6658TIP3    H241534   2.077   3.564   0.873
 6659TIP3   OH241535   0.377   5.467   1.310
 6659TIP3    H141536   0.327   5.460   1.229
 6659TIP3    H241537   0.318   5.434   1.378
 6660TIP3   OH241538   5.068   0.033   7.538
 6660TIP3    H141539   4.984   0.078   7.527
 6660TIP3    H241540   5.103   0.068   7.620
 6661TIP3   OH241541   6.715   0.439   1.057
 6661TIP3    H141542   6.729   0.515   1.000
 6661TIP3    H241543   6.764   0.369   1.014
 6662TIP3   OH241544   6.574   1.561   0.892
 6662TIP3    H141545   6.660   1.597   0.915
 6662TIP3    H241546   6.541   1.620   0.824
 6663TIP3   OH241547   1.968   2.570   1.323
 6663TIP3    H141548   1.927   2.486   1.307
 6663TIP3    H241549   2.037   2.552   1.387
 6664TIP3   OH241550   4.369   3.242   0.036
 6664TIP3    H141551   4.295   3.269   8.841
 6664TIP3    H241552   4.331   3.231   0.123
 6665TIP3   OH241553   1.302   1.700   0.678
 6665TIP3    H141554   1.357   1.674   0.752
 6665TIP3    H241555   1.331   1.646   0.605
 6666TIP3   OH241556   3.661   4.419   6.707
 6666TIP3    H141557   3.705   4.470   6.774
 6666TIP3    H241558   3.731   4.369   6.664
 6667TIP3   OH241559   5.740   6.036   7.109
 6667TIP3    H141560   5.706   6.093   7.041
 6667TIP3    H241561   5.809   5.986   7.066
 6668TIP3   OH241562   6.419   3.318   7.084
 6668TIP3    H141563   6.481   3.382   7.118
 6668TIP3    H241564   6.368   3.290   7.160
 6669TIP3   OH241565   6.370   6.152   7.872
 6669TIP3    H141566   6.388   6.236   7.831
 6669TIP3    H241567   6.294   6.168   7.928
 6670TIP3   OH241568   5.950   1.854   8.581
 6670TIP3    H141569   5.910   1.852   8.668
 6670TIP3    H241570   6.044   1.848   8.598
 6671TIP3   OH241571   3.024   1.581   8.787
 6671TIP3    H141572   3.061   1.604   8.702
 6671TIP3    H241573   3.068   1.639   8.849
 6672TIP3   OH241574   4.929   3.546   8.633
 6672TIP3    H141575   4.955   3.607   8.702
 6672TIP3    H241576   4.879   3.600   8.571
 6673TIP3   OH241577   0.335   2.221   1.834
 6673TIP3    H141578   0.325   2.294   1.772
 6673TIP3    H241579   0.429   2.219   1.853
 6674TIP3   OH241580   5.592   5.809   2.463
 6674TIP3    H141581   5.653   5.760   2.519
 6674TIP3    H241582   5.586   5.757   2.383
 6675TIP3   OH241583   3.657   3.184   1.575
 6675TIP3    H141584   3.741   3.171   1.531
 6675TIP3    H241585   3.679   3.184   1.668
 6676TIP3   OH241586   5.014   2.492   7.300
 6676TIP3    H141587   5.084   2.490   7.235
 6676TIP3    H241588   4.970   2.408   7.291
 6677TIP3   OH241589   0.558   0.120   0.231
 6677TIP3    H141590   0.574   0.032   0.266
 6677TIP3    H241591   0.498   0.106   0.158
 6678TIP3   OH241592   3.624   5.587   8.063
 6678TIP3    H141593   3.594   5.596   7.972
 6678TIP3    H241594   3.665   5.670   8.084
 6679TIP3   OH241595   1.727   3.235   1.823
 6679TIP3    H141596   1.771   3.297   1.882
 6679TIP3    H241597   1.739   3.150   1.865
 6680TIP3   OH241598   3.586   2.203   7.323
 6680TIP3    H141599   3.673   2.200   7.362
 6680TIP3    H241600   3.542   2.125   7.356
 6681TIP3   OH241601   6.107   4.585   8.378
 6681TIP3    H141602   6.120   4.664   8.326
 6681TIP3    H241603   6.135   4.609   8.466
 6682TIP3   OH241604   6.726   4.573   8.184
 6682TIP3    H141605   6.638   4.586   8.220
 6682TIP3    H241606   6.755   4.490   8.220
 6683TIP3   OH241607   0.376   4.085   0.405
 6683TIP3    H141608   0.403   4.052   0.490
 6683TIP3    H241609   0.415   4.025   0.342
 6684TIP3   OH241610   2.392   0.706   7.545
 6684TIP3    H141611   2.311   0.677   7.504
 6684TIP3    H241612   2.365   0.743   7.630
 6685TIP3   OH241613   3.315   1.725   1.830
 6685TIP3    H141614   3.224   1.731   1.857
 6685TIP3    H241615   3.361   1.788   1.887
 6686TIP3   OH241616   2.537   5.144   7.345
 6686TIP3    H141617   2.506   5.117   7.258
 6686TIP3    H241618   2.629   5.167   7.332
 6687TIP3   OH241619   0.978   4.972   8.270
 6687TIP3    H141620   0.952   4.880   8.274
 6687TIP3    H241621   0.896   5.021   8.270
 6688TIP3   OH241622   3.827   6.295   8.559
 6688TIP3    H141623   3.803   6.203   8.573
 6688TIP3    H241624   3.866   6.296   8.472
 6689TIP3   OH241625   2.497   5.594   0.669
 6689TIP3    H141626   2.484   5.658   0.599
 6689TIP3    H241627   2.463   5.512   0.634
 6690TIP3   OH241628   4.843   3.973   8.683
 6690TIP3    H141629   4.932   3.960   8.714
 6690TIP3    H241630   4.853   4.005   8.593
 6691TIP3   OH241631   0.871   0.409   1.984
 6691TIP3    H141632   0.802   0.471   1.962
 6691TIP3    H241633   0.847   0.375   2.071
 6692TIP3   OH241634   1.481   2.897   8.205
 6692TIP3    H141635   1.512   2.817   8.164
 6692TIP3    H241636   1.537   2.966   8.170
 6693TIP3   OH241637   3.159   5.462   0.982
 6693TIP3    H141638   3.220   5.455   0.908
 6693TIP3    H241639   3.152   5.373   1.015
 6694TIP3   OH241640   3.111   1.859   2.173
 6694TIP3    H141641   3.111   1.938   2.227
 6694TIP3    H241642   3.114   1.786   2.236
 6695TIP3   OH241643   3.034   1.570   0.891
 6695TIP3    H141644   3.126   1.550   0.874
 6695TIP3    H241645   2.997   1.589   0.805
 6696TIP3   OH241646   1.607   3.289   7.805
 6696TIP3    H141647   1.619   3.284   7.710
 6696TIP3    H241648   1.675   3.232   7.841
 6697TIP3   OH241649   1.296   6.640   1.295
 6697TIP3    H141650   1.349   6.651   1.373
 6697TIP3    H241651   1.249   6.557   1.308
 6698TIP3   OH241652   2.649   2.394   1.538
 6698TIP3    H141653   2.667   2.333   1.466
 6698TIP3    H241654   2.693   2.475   1.513
 6699TIP3   OH241655   6.372   6.722   0.967
 6699TIP3    H141656   6.366   0.001   1.020
 6699TIP3    H241657   6.336   6.653   1.022
 6700TIP3   OH241658   6.387   5.411   6.974
 6700TIP3    H141659   6.425   5.437   6.890
 6700TIP3    H241660   6.440   5.337   7.003
 6701TIP3   OH241661   0.857   1.510   1.094
 6701TIP3    H141662   0.836   1.532   1.003
 6701TIP3    H241663   0.902   1.425   1.088
 6702TIP3   OH241664   6.418   6.460   8.348
 6702TIP3    H141665   6.361   6.532   8.374
 6702TIP3    H241666   6.470   6.442   8.426
 6703TIP3   OH241667   2.883   0.011   2.212
 6703TIP3    H141668   2.893   6.717   2.205
 6703TIP3    H241669   2.795   0.024   2.247
 6704TIP3   OH241670   0.734   5.530   0.640
 6704TIP3    H141671   0.706   5.479   0.564
 6704TIP3    H241672   0.828   5.542   0.628
 6705TIP3   OH241673   2.231   6.565   2.420
 6705TIP3    H141674   2.279   6.514   2.486
 6705TIP3    H241675   2.258   6.527   2.336
 6706TIP3   OH241676   6.563   3.506   1.923
 6706TIP3    H141677   6.489   3.560   1.951
 6706TIP3    H241678   6.596   3.550   1.845
 6707TIP3   OH241679   1.504   0.941   6.443
 6707TIP3    H141680   1.443   1.001   6.400
 6707TIP3    H241681   1.543   0.993   6.513
 6708TIP3   OH241682   2.730   5.004   7.023
 6708TIP3    H141683   2.786   5.055   7.081
 6708TIP3    H241684   2.663   5.066   6.993
 6709TIP3   OH241685   5.362   0.002   1.942
 6709TIP3    H141686   5.294   0.021   2.007
 6709TIP3    H241687   5.408   6.726   1.978
 6710TIP3   OH241688   5.099   3.069   0.795
 6710TIP3    H141689   5.039   2.995   0.805
 6710TIP3    H241690   5.170   3.052   0.856
 6711TIP3   OH241691   3.110   5.863   1.069
 6711TIP3    H141692   3.056   5.882   0.992
 6711TIP3    H241693   3.169   5.793   1.041
 6712TIP3   OH241694   5.819   0.188   8.191
 6712TIP3    H141695   5.770   0.147   8.262
 6712TIP3    H241696   5.777   0.157   8.111
 6713TIP3   OH241697   5.238   6.420   0.939
 6713TIP3    H141698   5.296   6.373   0.879
 6713TIP3    H241699   5.196   6.486   0.884
 6714TIP3   OH241700   0.758   2.230   0.809
 6714TIP3    H141701   0.749   2.249   0.902
 6714TIP3    H241702   0.842   2.269   0.784
 6715TIP3   OH241703   5.305   5.930   0.565
 6715TIP3    H141704   5.385   5.933   0.617
 6715TIP3    H241705   5.298   6.017   0.526
 6716TIP3   OH241706   2.795   0.054   1.934
 6716TIP3    H141707   2.775   6.765   1.908
 6716TIP3    H241708   2.874   0.046   1.988
 6717TIP3   OH241709   5.457   4.585   7.442
 6717TIP3    H141710   5.522   4.624   7.384
 6717TIP3    H241711   5.507   4.548   7.514
 6718TIP3   OH241712   4.574   3.938   8.712
 6718TIP3    H141713   4.553   3.969   8.624
 6718TIP3    H241714   4.670   3.934   8.713
 6719TIP3   OH241715   5.508   3.170   2.111
 6719TIP3    H141716   5.436   3.129   2.064
 6719TIP3    H241717   5.494   3.264   2.099
 6720TIP3   OH241718   5.497   0.432   1.441
 6720TIP3    H141719   5.482   0.447   1.347
 6720TIP3    H241720   5.434   0.364   1.464
 6721TIP3   OH241721   3.342   2.057   0.525
 6721TIP3    H141722   3.428   2.023   0.550
 6721TIP3    H241723   3.286   1.979   0.516
 6722TIP3   OH241724   3.273   4.915   1.434
 6722TIP3    H141725   3.256   4.978   1.504
 6722TIP3    H241726   3.189   4.908   1.388
 6723TIP3   OH241727   0.077   2.586   0.349
 6723TIP3    H141728   0.051   2.650   0.282
 6723TIP3    H241729   0.008   2.593   0.416
 6724TIP3   OH241730   2.377   2.109   8.742
 6724TIP3    H141731   2.282   2.110   8.757
 6724TIP3    H241732   2.399   2.016   8.732
 6725TIP3   OH241733   6.552   4.818   8.569
 6725TIP3    H141734   6.637   4.774   8.557
 6725TIP3    H241735   6.575   4.909   8.586
 6726TIP3   OH241736   1.137   0.387   1.613
 6726TIP3    H141737   1.091   0.445   1.674
 6726TIP3    H241738   1.067   0.331   1.577
 6727TIP3   OH241739   5.116   2.123   7.243
 6727TIP3    H141740   5.117   2.038   7.287
 6727TIP3    H241741   5.168   2.180   7.300
 6728TIP3   OH241742   2.313   3.688   6.454
 6728TIP3    H141743   2.390   3.722   6.408
 6728TIP3    H241744   2.295   3.753   6.522
 6729TIP3   OH241745   0.018   1.017   8.749
 6729TIP3    H141746   6.731   1.055   8.738
 6729TIP3    H241747   0.008   0.956   8.823
 6730TIP3   OH241748   3.474   4.560   1.482
 6730TIP3    H141749   3.539   4.625   1.510
 6730TIP3    H241750   3.480   4.490   1.546
 6731TIP3   OH241751   1.795   2.395   8.473
 6731TIP3    H141752   1.725   2.365   8.531
 6731TIP3    H241753   1.837   2.467   8.520
 6732TIP3   OH241754   2.846   1.631   8.180
 6732TIP3    H141755   2.929   1.655   8.139
 6732TIP3    H241756   2.863   1.636   8.274
 6733TIP3   OH241757   3.261   2.721   7.717
 6733TIP3    H141758   3.177   2.699   7.757
 6733TIP3    H241759   3.264   2.817   7.717
 6734TIP3   OH241760   5.295   4.463   8.661
 6734TIP3    H141761   5.308   4.558   8.668
 6734TIP3    H241762   5.280   4.449   8.567
 6735TIP3   OH241763   6.487   3.710   8.292
 6735TIP3    H141764   6.512   3.798   8.263
 6735TIP3    H241765   6.555   3.685   8.354
 6736TIP3   OH241766   5.536   2.257   8.339
 6736TIP3    H141767   5.548   2.326   8.274
 6736TIP3    H241768   5.468   2.201   8.303
 6737TIP3   OH241769   2.555   0.656   0.699
 6737TIP3    H141770   2.491   0.601   0.654
 6737TIP3    H241771   2.530   0.651   0.792
 6738TIP3   OH241772   6.107   2.462   7.987
 6738TIP3    H141773   6.071   2.527   7.926
 6738TIP3    H241774   6.114   2.382   7.936
 6739TIP3   OH241775   2.989   4.405   0.323
 6739TIP3    H141776   3.037   4.483   0.353
 6739TIP3    H241777   2.951   4.369   0.403
 6740TIP3   OH241778   3.567   3.696   7.458
 6740TIP3    H141779   3.538   3.605   7.452
 6740TIP3    H241780   3.650   3.691   7.505
 6741TIP3   OH241781   5.317   5.451   7.119
 6741TIP3    H141782   5.312   5.357   7.100
 6741TIP3    H241783   5.230   5.484   7.098
 6742TIP3   OH241784   4.367   4.182   2.318
 6742TIP3    H141785   4.458   4.155   2.325
 6742TIP3    H241786   4.355   4.248   2.387
 6743TIP3   OH241787   6.333   3.570   2.027
 6743TIP3    H141788   6.286   3.637   2.076
 6743TIP3    H241789   6.324   3.491   2.080
 6744TIP3   OH241790   0.019   6.188   6.516
 6744TIP3    H141791   6.778   6.175   6.430
 6744TIP3    H241792   6.785   6.116   6.569
 6745TIP3   OH241793   6.398   3.414   7.742
 6745TIP3    H141794   6.313   3.377   7.765
 6745TIP3    H241795   6.410   3.488   7.801
 6746TIP3   OH241796   2.370   2.164   8.236
 6746TIP3    H141797   2.385   2.126   8.149
 6746TIP3    H241798   2.311   2.103   8.280
 6747TIP3   OH241799   2.485   1.398   0.067
 6747TIP3    H141800   2.462   1.309   0.095
 6747TIP3    H241801   2.470   1.398   8.833
 6748TIP3   OH241802   1.959   0.709   0.663
 6748TIP3    H141803   1.935   0.667   0.580
 6748TIP3    H241804   2.053   0.726   0.654
 6749TIP3   OH241805   1.072   1.050   0.596
 6749TIP3    H141806   1.149   1.060   0.541
 6749TIP3    H241807   1.060   1.136   0.636
 6750TIP3   OH241808   3.049   0.574   0.608
 6750TIP3    H141809   3.138   0.606   0.597
 6750TIP3    H241810   3.054   0.514   0.683
 6751TIP3   OH241811   0.826   0.257   2.216
 6751TIP3    H141812   0.747   0.262   2.270
 6751TIP3    H241813   0.898   0.272   2.278
 6752TIP3   OH241814   4.328   1.246   7.859
 6752TIP3    H141815   4.352   1.311   7.925
 6752TIP3    H241816   4.339   1.161   7.904
 6753TIP3   OH241817   1.672   1.415   0.360
 6753TIP3    H141818   1.708   1.371   0.283
 6753TIP3    H241819   1.628   1.492   0.326
 6754TIP3   OH241820   4.601   4.026   2.121
 6754TIP3    H141821   4.633   4.056   2.206
 6754TIP3    H241822   4.663   3.958   2.095
 6755TIP3   OH241823   1.198   5.821   1.152
 6755TIP3    H141824   1.171   5.778   1.234
 6755TIP3    H241825   1.138   5.785   1.086
 6756TIP3   OH241826   1.632   4.078   0.028
 6756TIP3    H141827   1.670   4.162   0.003
 6756TIP3    H241828   1.546   4.076   8.846
 6757TIP3   OH241829   2.761   0.127   1.281
 6757TIP3    H141830   2.730   0.062   1.218
 6757TIP3    H241831   2.693   0.130   1.348
 6758TIP3   OH241832   1.062   3.389   0.094
 6758TIP3    H141833   1.015   3.390   0.177
 6758TIP3    H241834   1.098   3.301   0.087
 6759TIP3   OH241835   2.753   5.737   1.133
 6759TIP3    H141836   2.719   5.712   1.047
 6759TIP3    H241837   2.833   5.687   1.143
 6760TIP3   OH241838   5.654   6.444   0.897
 6760TIP3    H141839   5.722   6.475   0.838
 6760TIP3    H241840   5.589   6.515   0.899
 6761TIP3   OH241841   2.655   2.884   1.462
 6761TIP3    H141842   2.588   2.948   1.486
 6761TIP3    H241843   2.735   2.918   1.504
 6762TIP3   OH241844   0.508   1.670   7.789
 6762TIP3    H141845   0.511   1.753   7.741
 6762TIP3    H241846   0.468   1.692   7.873
 6763TIP3   OH241847   3.971   5.786   1.502
 6763TIP3    H141848   3.948   5.781   1.595
 6763TIP3    H241849   4.067   5.786   1.501
 6764TIP3   OH241850   3.765   4.064   0.741
 6764TIP3    H141851   3.788   4.156   0.754
 6764TIP3    H241852   3.673   4.058   0.767
 6765TIP3   OH241853   2.818   5.242   7.566
 6765TIP3    H141854   2.900   5.259   7.613
 6765TIP3    H241855   2.787   5.159   7.601
 6766TIP3   OH241856   2.975   1.598   1.629
 6766TIP3    H141857   3.038   1.642   1.572
 6766TIP3    H241858   2.914   1.667   1.655
 6767TIP3   OH241859   1.934   0.902   0.869
 6767TIP3    H141860   1.963   0.986   0.832
 6767TIP3    H241861   1.956   0.837   0.802
 6768TIP3   OH241862   6.191   1.936   0.146
 6768TIP3    H141863   6.253   1.909   0.078
 6768TIP3    H241864   6.117   1.876   0.137
 6769TIP3   OH241865   3.891   2.239   2.469
 6769TIP3    H141866   3.914   2.181   2.396
 6769TIP3    H241867   3.804   2.272   2.448
 6770TIP3   OH241868   1.290   5.601   6.591
 6770TIP3    H141869   1.327   5.635   6.510
 6770TIP3    H241870   1.363   5.556   6.634
 6771TIP3   OH241871   3.447   1.521   0.473
 6771TIP3    H141872   3.493   1.454   0.423
 6771TIP3    H241873   3.469   1.504   0.564
 6772TIP3   OH241874   0.863   1.367   6.199
 6772TIP3    H141875   0.928   1.311   6.155
 6772TIP3    H241876   0.873   1.347   6.292
 6773TIP3   OH241877   6.041   0.220   1.879
 6773TIP3    H141878   6.054   0.313   1.898
 6773TIP3    H241879   6.122   0.178   1.909
 6774TIP3   OH241880   0.153   6.166   0.364
 6774TIP3    H141881   0.122   6.209   0.443
 6774TIP3    H241882   0.206   6.233   0.320
 6775TIP3   OH241883   1.662   5.357   1.895
 6775TIP3    H141884   1.652   5.292   1.964
 6775TIP3    H241885   1.653   5.441   1.940
 6776TIP3   OH241886   5.123   2.806   8.491
 6776TIP3    H141887   5.121   2.734   8.554
 6776TIP3    H241888   5.036   2.806   8.451
 6777TIP3   OH241889   5.710   0.583   1.537
 6777TIP3    H141890   5.636   0.526   1.513
 6777TIP3    H241891   5.786   0.540   1.498
 6778TIP3   OH241892   4.747   2.377   8.309
 6778TIP3    H141893   4.794   2.298   8.336
 6778TIP3    H241894   4.798   2.410   8.234
 6779TIP3   OH241895   2.577   0.422   8.530
 6779TIP3    H141896   2.552   0.378   8.611
 6779TIP3    H241897   2.519   0.383   8.464
 6780TIP3   OH241898   1.883   3.961   7.176
 6780TIP3    H141899   1.857   3.931   7.263
 6780TIP3    H241900   1.832   4.041   7.162
 6781TIP3   OH241901   2.592   2.650   0.382
 6781TIP3    H141902   2.570   2.738   0.413
 6781TIP3    H241903   2.566   2.649   0.290
 6782TIP3   OH241904   4.518   0.457   1.552
 6782TIP3    H141905   4.593   0.419   1.598
 6782TIP3    H241906   4.518   0.549   1.579
 6783TIP3   OH241907   1.341   5.644   0.839
 6783TIP3    H141908   1.257   5.608   0.809
 6783TIP3    H241909   1.369   5.585   0.908
 6784TIP3   OH241910   0.516   1.819   1.150
 6784TIP3    H141911   0.541   1.870   1.072
 6784TIP3    H241912   0.421   1.809   1.143
 6785TIP3   OH241913   1.474   0.657   0.285
 6785TIP3    H141914   1.423   0.696   0.356
 6785TIP3    H241915   1.564   0.684   0.302
 6786TIP3   OH241916   3.140   5.709   7.035
 6786TIP3    H141917   3.125   5.634   7.092
 6786TIP3    H241918   3.098   5.783   7.081
 6787TIP3   OH241919   3.774   1.089   1.311
 6787TIP3    H141920   3.831   1.040   1.252
 6787TIP3    H241921   3.732   1.154   1.253
 6788TIP3   OH241922   2.349   6.358   8.070
 6788TIP3    H141923   2.323   6.444   8.036
 6788TIP3    H241924   2.274   6.301   8.054
 6789TIP3   OH241925   3.503   3.135   8.514
 6789TIP3    H141926   3.464   3.169   8.594
 6789TIP3    H241927   3.595   3.119   8.537
 6790TIP3   OH241928   3.955   0.849   1.416
 6790TIP3    H141929   3.963   0.874   1.508
 6790TIP3    H241930   3.896   0.774   1.417
 6791TIP3   OH241931   1.877   5.586   7.094
 6791TIP3    H141932   1.847   5.571   7.184
 6791TIP3    H241933   1.880   5.499   7.055
 6792TIP3   OH241934   6.104   3.203   6.933
 6792TIP3    H141935   6.050   3.175   6.859
 6792TIP3    H241936   6.046   3.196   7.009
 6793TIP3   OH241937   4.591   2.824   7.822
 6793TIP3    H141938   4.640   2.872   7.755
 6793TIP3    H241939   4.649   2.752   7.847
 6794TIP3   OH241940   5.739   0.425   8.541
 6794TIP3    H141941   5.696   0.482   8.604
 6794TIP3    H241942   5.822   0.400   8.583
 6795TIP3   OH241943   5.175   3.166   0.182
 6795TIP3    H141944   5.167   3.109   0.106
 6795TIP3    H241945   5.255   3.215   0.168
 6796TIP3   OH241946   1.158   5.942   7.623
 6796TIP3    H141947   1.145   6.035   7.602
 6796TIP3    H241948   1.081   5.919   7.676
 6797TIP3   OH241949   4.743   5.176   6.684
 6797TIP3    H141950   4.829   5.138   6.664
 6797TIP3    H241951   4.681   5.106   6.664
 6798TIP3   OH241952   4.181   5.430   8.709
 6798TIP3    H141953   4.091   5.401   8.722
 6798TIP3    H241954   4.173   5.521   8.679
 6799TIP3   OH241955   5.401   3.058   1.194
 6799TIP3    H141956   5.344   2.991   1.157
 6799TIP3    H241957   5.439   3.017   1.272
 6800TIP3   OH241958   3.437   5.126   0.795
 6800TIP3    H141959   3.380   5.202   0.784
 6800TIP3    H241960   3.444   5.088   0.707
 6801TIP3   OH241961   5.735   2.117   1.021
 6801TIP3    H141962   5.795   2.192   1.028
 6801TIP3    H241963   5.673   2.128   1.093
 6802TIP3   OH241964   3.953   5.188   1.303
 6802TIP3    H141965   3.915   5.274   1.285
 6802TIP3    H241966   3.994   5.162   1.220
 6803TIP3   OH241967   2.178   3.286   0.034
 6803TIP3    H141968   2.148   3.375   0.014
 6803TIP3    H241969   2.241   3.298   0.105
 6804TIP3   OH241970   4.460   4.906   7.904
 6804TIP3    H141971   4.388   4.842   7.904
 6804TIP3    H241972   4.512   4.884   7.827
 6805TIP3   OH241973   2.426   0.438   7.560
 6805TIP3    H141974   2.432   0.533   7.569
 6805TIP3    H241975   2.472   0.418   7.479
 6806TIP3   OH241976   1.832   1.807   0.229
 6806TIP3    H141977   1.926   1.789   0.236
 6806TIP3    H241978   1.790   1.734   0.275
 6807TIP3   OH241979   0.009   5.969   1.454
 6807TIP3    H141980   6.757   5.984   1.375
 6807TIP3    H241981   6.746   5.975   1.525
 6808TIP3   OH241982   0.995   5.213   7.626
 6808TIP3    H141983   1.086   5.185   7.610
 6808TIP3    H241984   0.992   5.304   7.595
 6809TIP3   OH241985   1.355   5.894   0.762
 6809TIP3    H141986   1.291   5.924   0.826
 6809TIP3    H241987   1.371   5.802   0.784
 6810TIP3   OH241988   4.125   2.716   7.966
 6810TIP3    H141989   4.081   2.675   7.891
 6810TIP3    H241990   4.055   2.758   8.015
 6811TIP3   OH241991   5.529   1.161   8.700
 6811TIP3    H141992   5.481   1.087   8.737
 6811TIP3    H241993   5.598   1.122   8.647
 6812TIP3   OH241994   2.021   1.595   8.177
 6812TIP3    H141995   2.055   1.536   8.110
 6812TIP3    H241996   2.075   1.673   8.171
 6813TIP3   OH241997   0.235   3.569   8.604
 6813TIP3    H141998   0.212   3.529   8.521
 6813TIP3    H241999   0.316   3.617   8.586
 6814TIP3   OH242000   5.064   0.284   1.396
 6814TIP3    H142001   5.050   0.348   1.327
 6814TIP3    H242002   5.112   0.213   1.352
 6815TIP3   OH242003   0.037   3.456   0.903
 6815TIP3    H142004   6.786   3.390   0.950
 6815TIP3    H242005   0.112   3.408   0.868
 6816TIP3   OH242006   0.908   5.887   7.701
 6816TIP3    H142007   0.877   5.825   7.768
 6816TIP3    H242008   0.835   5.949   7.691
 6817TIP3   OH242009   2.998   1.897   7.567
 6817TIP3    H142010   3.048   1.958   7.513
 6817TIP3    H242011   3.062   1.864   7.630
 6818TIP3   OH242012   2.635   5.780   7.064
 6818TIP3    H142013   2.672   5.867   7.080
 6818TIP3    H242014   2.711   5.722   7.062
 6819TIP3   OH242015   0.722   4.757   8.379
 6819TIP3    H142016   0.685   4.758   8.467
 6819TIP3    H242017   0.712   4.846   8.348
 6820TIP3   OH242018   2.015   3.031   1.212
 6820TIP3    H142019   1.969   3.114   1.203
 6820TIP3    H242020   2.107   3.053   1.197
 6821TIP3   OH242021   4.625   5.514   0.523
 6821TIP3    H142022   4.575   5.433   0.518
 6821TIP3    H242023   4.710   5.488   0.558
 6822TIP3   OH242024   2.301   3.533   8.476
 6822TIP3    H142025   2.343   3.494   8.400
 6822TIP3    H242026   2.263   3.459   8.524
 6823TIP3   OH242027   5.870   1.654   6.998
 6823TIP3    H142028   5.794   1.679   7.050
 6823TIP3    H242029   5.909   1.737   6.971
 6824TIP3   OH242030   2.756   5.163   0.438
 6824TIP3    H142031   2.709   5.084   0.412
 6824TIP3    H242032   2.847   5.134   0.449
 6825TIP3   OH242033   6.626   2.747   8.543
 6825TIP3    H142034   6.562   2.752   8.614
 6825TIP3    H242035   6.588   2.686   8.480
 6826TIP3   OH242036   6.643   0.876   1.897
 6826TIP3    H142037   6.604   0.930   1.966
 6826TIP3    H242038   6.606   0.789   1.911
 6827TIP3   OH242039   0.718   2.546   7.990
 6827TIP3    H142040   0.705   2.468   7.936
 6827TIP3    H242041   0.809   2.541   8.020
 6828TIP3   OH242042   0.088   0.764   0.252
 6828TIP3    H142043   0.099   0.748   0.158
 6828TIP3    H242044   0.148   0.702   0.294
 6829TIP3   OH242045   2.184   0.211   7.179
 6829TIP3    H142046   2.177   0.116   7.186
 6829TIP3    H242047   2.233   0.226   7.098
 6830TIP3   OH242048   2.825   2.764   0.586
 6830TIP3    H142049   2.742   2.800   0.556
 6830TIP3    H242050   2.802   2.704   0.657
 6831TIP3   OH242051   4.972   1.955   2.390
 6831TIP3    H142052   4.945   2.025   2.330
 6831TIP3    H242053   5.060   1.981   2.417
 6832TIP3   OH242054   3.850   3.440   7.390
 6832TIP3    H142055   3.875   3.430   7.298
 6832TIP3    H242056   3.880   3.359   7.431
 6833TIP3   OH242057   2.408   2.204   1.895
 6833TIP3    H142058   2.413   2.109   1.888
 6833TIP3    H242059   2.332   2.220   1.951
 6834TIP3   OH242060   4.145   1.534   8.040
 6834TIP3    H142061   4.059   1.531   7.997
 6834TIP3    H242062   4.164   1.627   8.049
 6835TIP3   OH242063   5.230   2.496   6.737
 6835TIP3    H142064   5.148   2.465   6.774
 6835TIP3    H242065   5.217   2.591   6.727
 6836TIP3   OH242066   3.956   3.326   6.210
 6836TIP3    H142067   3.927   3.243   6.173
 6836TIP3    H242068   4.022   3.302   6.275
 6837TIP3   OH242069   3.173   4.185   7.301
 6837TIP3    H142070   3.098   4.237   7.329
 6837TIP3    H242071   3.150   4.157   7.212
 6838TIP3   OH242072   3.949   3.135   0.883
 6838TIP3    H142073   3.895   3.206   0.918
 6838TIP3    H242074   3.938   3.064   0.946
 6839TIP3   OH242075   2.585   0.585   0.345
 6839TIP3    H142076   2.609   0.534   0.423
 6839TIP3    H242077   2.558   0.670   0.380
 6840TIP3   OH242078   2.711   5.653   7.576
 6840TIP3    H142079   2.800   5.667   7.607
 6840TIP3    H242080   2.668   5.738   7.588
 6841TIP3   OH242081   2.968   3.090   1.357
 6841TIP3    H142082   3.054   3.050   1.362
 6841TIP3    H242083   2.946   3.111   1.448
 6842TIP3   OH242084   6.655   1.615   0.003
 6842TIP3    H142085   6.633   1.523   0.017
 6842TIP3    H242086   6.745   1.614   8.831
 6843TIP3   OH242087   1.352   5.319   1.229
 6843TIP3    H142088   1.435   5.318   1.181
 6843TIP3    H242089   1.377   5.311   1.321
 6844TIP3   OH242090   5.087   6.375   2.343
 6844TIP3    H142091   5.155   6.368   2.410
 6844TIP3    H242092   5.125   6.433   2.277
 6845TIP3   OH242093   1.406   1.172   0.752
 6845TIP3    H142094   1.475   1.220   0.707
 6845TIP3    H242095   1.424   1.184   0.845
 6846TIP3   OH242096   3.592   6.748   0.541
 6846TIP3    H142097   3.632   0.012   0.483
 6846TIP3    H242098   3.498   6.761   0.530
 6847TIP3   OH242099   3.865   4.965   7.612
 6847TIP3    H142100   3.778   4.968   7.572
 6847TIP3    H242101   3.923   4.938   7.542
 6848TIP3   OH242102   1.580   5.795   7.035
 6848TIP3    H142103   1.624   5.728   7.086
 6848TIP3    H242104   1.575   5.758   6.946
 6849TIP3   OH242105   4.591   4.020   7.823
 6849TIP3    H142106   4.664   4.024   7.885
 6849TIP3    H242107   4.542   4.100   7.838
 6850TIP3   OH242108   0.279   4.419   8.408
 6850TIP3    H142109   0.217   4.452   8.472
 6850TIP3    H242110   0.353   4.479   8.412
 6851TIP3   OH242111   6.450   2.086   7.828
 6851TIP3    H142112   6.520   2.136   7.786
 6851TIP3    H242113   6.369   2.128   7.798
 6852TIP3   OH242114   4.015   0.607   2.203
 6852TIP3    H142115   4.092   0.551   2.199
 6852TIP3    H242116   3.989   0.606   2.295
 6853TIP3   OH242117   4.042   3.045   6.487
 6853TIP3    H142118   4.077   3.113   6.430
 6853TIP3    H242119   3.947   3.048   6.472
 6854TIP3   OH242120   3.249   3.457   1.424
 6854TIP3    H142121   3.159   3.484   1.446
 6854TIP3    H242122   3.284   3.531   1.374
 6855TIP3   OH242123   6.158   5.974   1.850
 6855TIP3    H142124   6.082   6.009   1.805
 6855TIP3    H242125   6.202   6.051   1.887
 6856TIP3   OH242126   1.811   4.818   6.947
 6856TIP3    H142127   1.866   4.865   6.885
 6856TIP3    H242128   1.872   4.762   6.996
 6857TIP3   OH242129   1.462   4.514   7.120
 6857TIP3    H142130   1.516   4.549   7.191
 6857TIP3    H242131   1.387   4.474   7.164
 6858TIP3   OH242132   5.117   6.328   0.319
 6858TIP3    H142133   5.104   6.419   0.347
 6858TIP3    H242134   5.066   6.320   0.238
 6859TIP3   OH242135   1.007   3.675   0.105
 6859TIP3    H142136   1.029   3.727   0.028
 6859TIP3    H242137   1.083   3.617   0.117
 6860TIP3   OH242138   5.933   0.641   8.098
 6860TIP3    H142139   5.851   0.664   8.142
 6860TIP3    H242140   5.948   0.549   8.121
 6861TIP3   OH242141   5.014   2.933   1.400
 6861TIP3    H142142   5.100   2.908   1.367
 6861TIP3    H242143   5.017   2.909   1.493
 6862TIP3   OH242144   2.689   1.039   8.150
 6862TIP3    H142145   2.747   1.101   8.107
 6862TIP3    H242146   2.686   0.964   8.091
 6863TIP3   OH242147   1.957   3.282   8.672
 6863TIP3    H142148   1.909   3.221   8.617
 6863TIP3    H242149   1.905   3.363   8.670
 6864TIP3   OH242150   5.419   1.041   7.914
 6864TIP3    H142151   5.470   1.018   7.836
 6864TIP3    H242152   5.485   1.055   7.982
 6865TIP3   OH242153   1.962   4.712   1.303
 6865TIP3    H142154   2.015   4.791   1.313
 6865TIP3    H242155   1.911   4.728   1.224
 6866TIP3   OH242156   0.163   4.011   2.792
 6866TIP3    H142157   0.071   3.999   2.769
 6866TIP3    H242158   0.203   3.926   2.775
 6867TIP3   OH242159   6.555   0.990   7.763
 6867TIP3    H142160   6.597   1.064   7.806
 6867TIP3    H242161   6.563   1.008   7.669
 6868TIP3   OH242162   0.636   6.047   8.026
 6868TIP3    H142163   0.640   6.141   8.043
 6868TIP3    H242164   0.726   6.023   8.002
 6869TIP3   OH242165   4.192   5.701   7.032
 6869TIP3    H142166   4.111   5.705   7.084
 6869TIP3    H242167   4.166   5.732   6.945
 6870TIP3   OH242168   4.979   2.450   7.580
 6870TIP3    H142169   5.005   2.489   7.497
 6870TIP3    H242170   5.004   2.358   7.572
 6871TIP3   OH242171   2.547   3.796   1.737
 6871TIP3    H142172   2.475   3.749   1.694
 6871TIP3    H242173   2.606   3.821   1.665
 6872TIP3   OH242174   5.208   1.237   7.533
 6872TIP3    H142175   5.160   1.237   7.616
 6872TIP3    H242176   5.300   1.240   7.558
 6873TIP3   OH242177   3.681   6.636   7.468
 6873TIP3    H142178   3.631   6.655   7.388
 6873TIP3    H242179   3.697   6.541   7.464
 6874TIP3   OH242180   0.479   1.549   1.540
 6874TIP3    H142181   0.407   1.612   1.530
 6874TIP3    H242182   0.494   1.544   1.634
 6875TIP3   OH242183   1.767   5.544   7.360
 6875TIP3    H142184   1.814   5.467   7.393
 6875TIP3    H242185   1.724   5.580   7.438
 6876TIP3   OH242186   1.819   1.251   2.167
 6876TIP3    H142187   1.796   1.178   2.225
 6876TIP3    H242188   1.908   1.231   2.138
 6877TIP3   OH242189   5.937   2.366   6.383
 6877TIP3    H142190   5.872   2.388   6.450
 6877TIP3    H242191   5.989   2.446   6.372
 6878TIP3   OH242192   5.233   0.768   0.155
 6878TIP3    H142193   5.288   0.805   0.224
 6878TIP3    H242194   5.294   0.716   0.102
 6879TIP3   OH242195   2.991   1.045   0.124
 6879TIP3    H142196   3.075   1.055   0.168
 6879TIP3    H242197   2.953   0.966   0.163
 6880TIP3   OH242198   5.118   3.638   0.926
 6880TIP3    H142199   5.109   3.599   0.839
 6880TIP3    H242200   5.055   3.590   0.980
 6881TIP3   OH242201   1.046   1.887   1.298
 6881TIP3    H142202   0.968   1.873   1.244
 6881TIP3    H242203   1.048   1.811   1.357
 6882TIP3   OH242204   2.492   4.459   0.748
 6882TIP3    H142205   2.514   4.403   0.674
 6882TIP3    H242206   2.416   4.417   0.788
 6883TIP3   OH242207   2.940   1.109   8.724
 6883TIP3    H142208   2.853   1.145   8.744
 6883TIP3    H242209   2.978   1.088   8.809
 6884TIP3   OH242210   6.088   1.119   7.250
 6884TIP3    H142211   6.088   1.080   7.163
 6884TIP3    H242212   6.072   1.212   7.236
 6885TIP3   OH242213   4.529   0.243   8.764
 6885TIP3    H142214   4.561   0.331   8.745
 6885TIP3    H242215   4.436   0.255   8.782
 6886TIP3   OH242216   2.075   1.264   8.655
 6886TIP3    H142217   2.157   1.217   8.670
 6886TIP3    H242218   2.007   1.202   8.680
 6887TIP3   OH242219   0.674   3.664   6.941
 6887TIP3    H142220   0.656   3.745   6.989
 6887TIP3    H242221   0.696   3.693   6.853
 6888TIP3   OH242222   2.928   2.109   0.166
 6888TIP3    H142223   2.980   2.131   0.243
 6888TIP3    H242224   2.858   2.174   0.165
 6889TIP3   OH242225   3.508   5.264   8.492
 6889TIP3    H142226   3.547   5.187   8.451
 6889TIP3    H242227   3.583   5.319   8.517
 6890TIP3   OH242228   3.013   4.653   7.813
 6890TIP3    H142229   2.947   4.631   7.880
 6890TIP3    H242230   3.028   4.571   7.766
 6891TIP3   OH242231   3.755   4.750   1.409
 6891TIP3    H142232   3.821   4.746   1.478
 6891TIP3    H242233   3.673   4.767   1.455
 6892TIP3   OH242234   5.853   3.045   0.055
 6892TIP3    H142235   5.777   3.027   8.860
 6892TIP3    H242236   5.856   3.140   0.061
 6893TIP3   OH242237   4.319   5.276   1.173
 6893TIP3    H142238   4.308   5.279   1.269
 6893TIP3    H242239   4.347   5.186   1.155
 6894TIP3   OH242240   4.342   2.668   1.105
 6894TIP3    H142241   4.335   2.763   1.118
 6894TIP3    H242242   4.436   2.652   1.099
 6895TIP3   OH242243   0.518   4.641   0.148
 6895TIP3    H142244   0.499   4.552   0.118
 6895TIP3    H242245   0.457   4.696   0.099
 6896TIP3   OH242246   1.217   4.705   1.785
 6896TIP3    H142247   1.274   4.701   1.708
 6896TIP3    H242248   1.154   4.775   1.765
 6897TIP3   OH242249   4.346   2.918   7.946
 6897TIP3    H142250   4.406   2.855   7.906
 6897TIP3    H242251   4.263   2.871   7.953
 6898TIP3   OH242252   4.375   0.930   7.609
 6898TIP3    H142253   4.429   0.967   7.679
 6898TIP3    H242254   4.321   0.864   7.653
 6899TIP3   OH242255   0.451   2.148   7.460
 6899TIP3    H142256   0.526   2.108   7.417
 6899TIP3    H242257   0.462   2.242   7.445
 6900TIP3   OH242258   5.977   2.825   7.171
 6900TIP3    H142259   5.938   2.907   7.142
 6900TIP3    H242260   6.003   2.781   7.090
 6901TIP3   OH242261   5.305   0.754   0.776
 6901TIP3    H142262   5.393   0.753   0.813
 6901TIP3    H242263   5.269   0.668   0.798
 6902TIP3   OH242264   1.144   6.040   1.987
 6902TIP3    H142265   1.049   6.024   1.987
 6902TIP3    H242266   1.169   6.035   2.079
 6903TIP3   OH242267   1.657   0.158   8.307
 6903TIP3    H142268   1.586   0.095   8.309
 6903TIP3    H242269   1.665   0.182   8.214
 6904TIP3   OH242270   5.050   4.398   7.834
 6904TIP3    H142271   4.993   4.435   7.766
 6904TIP3    H242272   5.088   4.320   7.793
 6905TIP3   OH242273   3.345   6.250   7.974
 6905TIP3    H142274   3.328   6.182   8.039
 6905TIP3    H242275   3.355   6.331   8.025
 6906TIP3   OH242276   2.086   5.778   0.132
 6906TIP3    H142277   2.094   5.684   0.142
 6906TIP3    H242278   2.086   5.793   0.037
 6907TIP3   OH242279   3.484   2.991   1.221
 6907TIP3    H142280   3.509   3.083   1.218
 6907TIP3    H242281   3.566   2.944   1.235
 6908TIP3   OH242282   3.476   4.568   1.895
 6908TIP3    H142283   3.402   4.628   1.906
 6908TIP3    H242284   3.444   4.501   1.836
 6909TIP3   OH242285   6.476   5.329   1.636
 6909TIP3    H142286   6.452   5.420   1.653
 6909TIP3    H242287   6.400   5.292   1.592
 6910TIP3   OH242288   6.753   2.386   0.579
 6910TIP3    H142289   6.665   2.396   0.544
 6910TIP3    H242290   6.758   2.295   0.609
 6911TIP3   OH242291   1.167   5.590   6.979
 6911TIP3    H142292   1.253   5.552   6.961
 6911TIP3    H242293   1.106   5.535   6.930
 6912TIP3   OH242294   4.440   4.496   7.494
 6912TIP3    H142295   4.394   4.518   7.575
 6912TIP3    H242296   4.407   4.560   7.430
 6913TIP3   OH242297   0.689   5.292   0.422
 6913TIP3    H142298   0.639   5.246   0.490
 6913TIP3    H242299   0.625   5.351   0.382
 6914TIP3   OH242300   5.781   6.763   2.647
 6914TIP3    H142301   5.698   6.776   2.601
 6914TIP3    H242302   5.839   0.031   2.612
 6915TIP3   OH242303   3.319   6.029   0.817
 6915TIP3    H142304   3.241   6.067   0.856
 6915TIP3    H242305   3.391   6.086   0.846
 6916TIP3   OH242306   4.528   5.655   6.739
 6916TIP3    H142307   4.577   5.573   6.746
 6916TIP3    H242308   4.550   5.703   6.819
 6917TIP3   OH242309   0.803   4.105   8.426
 6917TIP3    H142310   0.871   4.154   8.379
 6917TIP3    H242311   0.847   4.025   8.455
 6918TIP3   OH242312   5.356   2.001   1.239
 6918TIP3    H142313   5.440   1.963   1.215
 6918TIP3    H242314   5.305   1.998   1.157
 6919TIP3   OH242315   5.666   0.088   8.396
 6919TIP3    H142316   5.737   0.084   8.459
 6919TIP3    H242317   5.599   0.142   8.438
 6920TIP3   OH242318   4.333   6.513   0.255
 6920TIP3    H142319   4.248   6.489   0.293
 6920TIP3    H242320   4.323   6.493   0.162
 6921TIP3   OH242321   2.248   2.776   1.373
 6921TIP3    H142322   2.322   2.752   1.428
 6921TIP3    H242323   2.238   2.702   1.313
 6922TIP3   OH242324   2.451   1.698   8.055
 6922TIP3    H142325   2.494   1.614   8.039
 6922TIP3    H242326   2.493   1.733   8.133
 6923TIP3   OH242327   4.098   3.186   7.233
 6923TIP3    H142328   4.158   3.212   7.304
 6923TIP3    H242329   4.012   3.183   7.275
 6924TIP3   OH242330   2.464   2.384   0.235
 6924TIP3    H142331   2.382   2.421   0.202
 6924TIP3    H242332   2.502   2.455   0.288
 6925TIP3   OH242333   4.662   0.228   1.714
 6925TIP3    H142334   4.605   0.163   1.673
 6925TIP3    H242335   4.719   0.177   1.772
 6926TIP3   OH242336   1.467   0.163   7.693
 6926TIP3    H142337   1.432   0.249   7.669
 6926TIP3    H242338   1.561   0.179   7.704
 6927TIP3   OH242339   5.303   1.190   1.287
 6927TIP3    H142340   5.348   1.106   1.276
 6927TIP3    H242341   5.361   1.241   1.343
 6928TIP3   OH242342   4.187   2.211   2.508
 6928TIP3    H142343   4.227   2.289   2.470
 6928TIP3    H242344   4.093   2.227   2.504
 6929TIP3   OH242345   1.600   4.016   7.245
 6929TIP3    H142346   1.631   4.054   7.328
 6929TIP3    H242347   1.508   3.995   7.262
 6930TIP3   OH242348   5.550   2.278   0.277
 6930TIP3    H142349   5.587   2.272   0.189
 6930TIP3    H242350   5.612   2.332   0.326
 6931TIP3   OH242351   1.911   6.506   6.990
 6931TIP3    H142352   1.827   6.537   7.025
 6931TIP3    H242353   1.977   6.557   7.038
 6932TIP3   OH242354   1.688   0.400   8.489
 6932TIP3    H142355   1.765   0.384   8.544
 6932TIP3    H242356   1.702   0.347   8.412
 6933TIP3   OH242357   6.547   6.337   6.502
 6933TIP3    H142358   6.564   6.428   6.477
 6933TIP3    H242359   6.625   6.311   6.550
 6934TIP3   OH242360   0.236   6.334   8.391
 6934TIP3    H142361   0.297   6.296   8.328
 6934TIP3    H242362   0.198   6.409   8.346
 6935TIP3   OH242363   6.771   0.685   1.674
 6935TIP3    H142364   6.758   0.739   1.596
 6935TIP3    H242365   6.699   0.709   1.733
 6936TIP3   OH242366   1.973   4.477   2.319
 6936TIP3    H142367   2.033   4.545   2.289
 6936TIP3    H242368   1.979   4.409   2.252
 6937TIP3   OH242369   5.485   0.323   0.851
 6937TIP3    H142370   5.533   0.378   0.913
 6937TIP3    H242371   5.451   0.251   0.904
 6938TIP3   OH242372   6.585   6.592   0.857
 6938TIP3    H142373   6.560   6.500   0.847
 6938TIP3    H242374   6.509   6.633   0.898
 6939TIP3   OH242375   0.637   5.814   0.755
 6939TIP3    H142376   0.572   5.866   0.708
 6939TIP3    H242377   0.639   5.852   0.843
 6940TIP3   OH242378   2.044   0.888   1.288
 6940TIP3    H142379   2.053   0.796   1.312
 6940TIP3    H242380   2.112   0.932   1.337
 6941TIP3   OH242381   4.572   0.275   2.660
 6941TIP3    H142382   4.526   0.354   2.689
 6941TIP3    H242383   4.558   0.273   2.566
 6942TIP3   OH242384   5.573   5.394   0.197
 6942TIP3    H142385   5.589   5.468   0.138
 6942TIP3    H242386   5.504   5.424   0.255
 6943TIP3   OH242387   6.156   3.334   7.884
 6943TIP3    H142388   6.184   3.248   7.851
 6943TIP3    H242389   6.061   3.329   7.888
 6944TIP3   OH242390   5.063   0.763   7.679
 6944TIP3    H142391   5.064   0.767   7.584
 6944TIP3    H242392   5.028   0.675   7.699
 6945TIP3   OH242393   0.466   2.187   7.731
 6945TIP3    H142394   0.422   2.157   7.651
 6945TIP3    H242395   0.512   2.110   7.764
 6946TIP3   OH242396   5.545   0.137   1.648
 6946TIP3    H142397   5.601   0.191   1.703
 6946TIP3    H242398   5.592   0.054   1.640
 6947TIP3   OH242399   5.589   1.570   6.926
 6947TIP3    H142400   5.524   1.554   6.858
 6947TIP3    H242401   5.538   1.598   7.002
 6948TIP3   OH242402   1.508   3.693   8.442
 6948TIP3    H142403   1.455   3.672   8.519
 6948TIP3    H242404   1.563   3.766   8.471
 6949TIP3   OH242405   2.023   0.049   7.728
 6949TIP3    H142406   2.008   6.768   7.777
 6949TIP3    H242407   2.001   0.118   7.790
 6950TIP3   OH242408   6.423   4.314   7.888
 6950TIP3    H142409   6.330   4.299   7.869
 6950TIP3    H242410   6.424   4.398   7.935
 6951TIP3   OH242411   3.634   2.316   8.811
 6951TIP3    H142412   3.583   2.236   8.807
 6951TIP3    H242413   3.665   2.330   8.722
 6952TIP3   OH242414   3.928   0.987   1.966
 6952TIP3    H142415   3.895   0.910   2.011
 6952TIP3    H242416   3.988   1.028   2.029
 6953TIP3   OH242417   6.220   3.545   1.778
 6953TIP3    H142418   6.243   3.506   1.863
 6953TIP3    H242419   6.201   3.470   1.722
 6954TIP3   OH242420   6.502   5.633   1.953
 6954TIP3    H142421   6.407   5.631   1.956
 6954TIP3    H242422   6.524   5.711   1.902
 6955TIP3   OH242423   3.971   4.781   8.849
 6955TIP3    H142424   3.970   4.686   0.001
 6955TIP3    H242425   4.037   4.796   8.782
 6956TIP3   OH242426   5.245   6.423   2.603
 6956TIP3    H142427   5.314   6.370   2.644
 6956TIP3    H242428   5.211   6.477   2.674
 6957TIP3   OH242429   0.732   6.056   7.267
 6957TIP3    H142430   0.638   6.043   7.280
 6957TIP3    H242431   0.748   6.027   7.177
 6958TIP3   OH242432   4.265   4.822   7.704
 6958TIP3    H142433   4.201   4.752   7.688
 6958TIP3    H242434   4.349   4.776   7.705
 6959TIP3   OH242435   0.229   3.224   1.101
 6959TIP3    H142436   0.300   3.185   1.049
 6959TIP3    H242437   0.234   3.178   1.185
 6960TIP3   OH242438   1.799   4.486   1.160
 6960TIP3    H142439   1.771   4.508   1.249
 6960TIP3    H242440   1.724   4.507   1.105
 6961TIP3   OH242441   3.069   2.587   0.733
 6961TIP3    H142442   3.128   2.573   0.807
 6961TIP3    H242443   3.024   2.668   0.754
 6962TIP3   OH242444   0.055   2.651   1.772
 6962TIP3    H142445   0.111   2.728   1.785
 6962TIP3    H242446   0.021   2.632   1.860
 6963TIP3   OH242447   3.869   2.013   8.267
 6963TIP3    H142448   3.838   1.945   8.326
 6963TIP3    H242449   3.799   2.079   8.267
 6964TIP3   OH242450   0.008   4.053   7.649
 6964TIP3    H142451   0.075   3.987   7.667
 6964TIP3    H242452   0.017   4.071   7.556
 6965TIP3   OH242453   0.877   3.588   7.222
 6965TIP3    H142454   0.924   3.591   7.139
 6965TIP3    H242455   0.871   3.495   7.243
 6966TIP3   OH242456   3.615   5.649   1.891
 6966TIP3    H142457   3.538   5.649   1.948
 6966TIP3    H242458   3.683   5.604   1.942
 6967TIP3   OH242459   4.016   6.111   1.319
 6967TIP3    H142460   3.958   6.037   1.336
 6967TIP3    H242461   4.104   6.074   1.317
 6968TIP3   OH242462   4.534   4.828   8.773
 6968TIP3    H142463   4.588   4.826   8.693
 6968TIP3    H242464   4.574   4.762   8.829
 6969TIP3   OH242465   6.213   2.442   1.476
 6969TIP3    H142466   6.169   2.384   1.538
 6969TIP3    H242467   6.181   2.530   1.498
 6970TIP3   OH242468   4.666   0.153   0.373
 6970TIP3    H142469   4.612   0.075   0.378
 6970TIP3    H242470   4.685   0.163   0.279
 6971TIP3   OH242471   2.315   3.995   2.001
 6971TIP3    H142472   2.236   3.949   2.032
 6971TIP3    H242473   2.383   3.970   2.063
 6972TIP3   OH242474   0.069   1.375   0.525
 6972TIP3    H142475   0.061   1.405   0.434
 6972TIP3    H242476   0.109   1.289   0.518
 6973TIP3   OH242477   5.527   0.937   7.660
 6973TIP3    H142478   5.592   0.930   7.730
 6973TIP3    H242479   5.551   0.867   7.598
 6974TIP3   OH242480   2.433   0.796   0.020
 6974TIP3    H142481   2.404   0.773   8.792
 6974TIP3    H242482   2.367   0.857   0.051
 6975TIP3   OH242483   5.756   4.925   2.032
 6975TIP3    H142484   5.672   4.924   1.985
 6975TIP3    H242485   5.733   4.954   2.120
 6976TIP3   OH242486   5.816   2.607   2.043
 6976TIP3    H142487   5.732   2.607   1.996
 6976TIP3    H242488   5.807   2.676   2.109
 6977TIP3   OH242489   1.568   0.803   1.480
 6977TIP3    H142490   1.644   0.840   1.437
 6977TIP3    H242491   1.600   0.724   1.523
 6978TIP3   OH242492   0.785   1.990   7.857
 6978TIP3    H142493   0.703   1.980   7.905
 6978TIP3    H242494   0.841   1.920   7.890
 6979TIP3   OH242495   0.616   3.951   8.751
 6979TIP3    H142496   0.550   3.947   8.820
 6979TIP3    H242497   0.617   3.862   8.714
 6980TIP3   OH242498   2.223   6.358   0.876
 6980TIP3    H142499   2.208   6.343   0.783
 6980TIP3    H242500   2.216   6.453   0.886
 6981TIP3   OH242501   3.551   2.509   2.234
 6981TIP3    H142502   3.488   2.437   2.226
 6981TIP3    H242503   3.496   2.588   2.234
 6982TIP3   OH242504   6.746   3.657   8.666
 6982TIP3    H142505   6.785   3.737   8.700
 6982TIP3    H242506   0.015   3.591   8.675
 6983TIP3   OH242507   2.315   4.779   0.353
 6983TIP3    H142508   2.381   4.728   0.401
 6983TIP3    H242509   2.239   4.780   0.411
 6984TIP3   OH242510   6.102   0.212   7.884
 6984TIP3    H142511   6.090   0.266   7.962
 6984TIP3    H242512   6.157   0.139   7.913
 6985TIP3   OH242513   6.036   0.562   8.781
 6985TIP3    H142514   6.010   0.533   0.008
 6985TIP3    H242515   6.061   0.654   8.793
 6986TIP3   OH242516   4.742   2.024   7.647
 6986TIP3    H142517   4.693   1.967   7.589
 6986TIP3    H242518   4.750   1.974   7.729
 6987TIP3   OH242519   5.066   2.292   2.063
 6987TIP3    H142520   5.015   2.373   2.064
 6987TIP3    H242521   5.056   2.255   2.150
 6988TIP3   OH242522   2.013   4.574   0.123
 6988TIP3    H142523   2.048   4.541   0.040
 6988TIP3    H242524   1.928   4.532   0.132
 6989TIP3   OH242525   3.712   6.544   1.007
 6989TIP3    H142526   3.653   6.479   1.045
 6989TIP3    H242527   3.654   6.601   0.956
 6990TIP3   OH242528   4.483   6.313   7.744
 6990TIP3    H142529   4.484   6.382   7.677
 6990TIP3    H242530   4.391   6.286   7.747
 6991TIP3   OH242531   6.262   0.867   8.797
 6991TIP3    H142532   6.251   0.828   8.710
 6991TIP3    H242533   6.234   0.958   8.786
 6992TIP3   OH242534   4.761   4.412   7.233
 6992TIP3    H142535   4.792   4.488   7.184
 6992TIP3    H242536   4.832   4.390   7.292
 6993TIP3   OH242537   4.442   6.127   2.066
 6993TIP3    H142538   4.381   6.198   2.048
 6993TIP3    H242539   4.388   6.048   2.069
 6994TIP3   OH242540   3.037   4.363   1.815
 6994TIP3    H142541   2.991   4.281   1.831
 6994TIP3    H242542   3.105   4.365   1.883
 6995TIP3   OH242543   5.365   0.100   8.279
 6995TIP3    H142544   5.284   0.051   8.291
 6995TIP3    H242545   5.424   0.039   8.237
 6996TIP3   OH242546   0.240   5.713   7.681
 6996TIP3    H142547   0.330   5.679   7.680
 6996TIP3    H242548   0.186   5.638   7.658
 6997TIP3   OH242549   4.108   5.754   6.781
 6997TIP3    H142550   4.177   5.692   6.757
 6997TIP3    H242551   4.053   5.760   6.703
 6998TIP3   OH242552   3.542   4.403   5.995
 6998TIP3    H142553   3.478   4.338   5.964
 6998TIP3    H242554   3.548   4.387   6.089
 6999TIP3   OH242555   3.640   3.670   0.942
 6999TIP3    H142556   3.560   3.644   0.988
 6999TIP3    H242557   3.707   3.674   1.011
 7000TIP3   OH242558   1.595   6.489   0.982
 7000TIP3    H142559   1.539   6.490   0.905
 7000TIP3    H242560   1.565   6.563   1.035
 7001TIP3   OH242561   3.945   5.266   7.993
 7001TIP3    H142562   3.871   5.327   7.989
 7001TIP3    H242563   3.958   5.238   7.902
 7002TIP3   OH242564   3.765   3.046   6.489
 7002TIP3    H142565   3.676   3.080   6.478
 7002TIP3    H242566   3.753   2.966   6.540
 7003TIP3   OH242567   4.517   1.379   0.202
 7003TIP3    H142568   4.541   1.466   0.231
 7003TIP3    H242569   4.579   1.320   0.246
 7004TIP3   OH242570   6.633   3.967   8.547
 7004TIP3    H142571   6.592   4.011   8.473
 7004TIP3    H242572   6.696   3.906   8.509
 7005TIP3   OH242573   4.037   4.787   8.334
 7005TIP3    H142574   4.057   4.877   8.360
 7005TIP3    H242575   4.044   4.788   8.239
 7006TIP3   OH242576   5.410   6.287   0.080
 7006TIP3    H142577   5.474   6.312   0.146
 7006TIP3    H242578   5.389   6.196   0.098
 7007TIP3   OH242579   6.684   5.591   7.014
 7007TIP3    H142580   6.777   5.592   7.037
 7007TIP3    H242581   6.675   5.655   6.944
 7008TIP3   OH242582   4.294   2.124   1.382
 7008TIP3    H142583   4.308   2.041   1.335
 7008TIP3    H242584   4.291   2.190   1.313
 7009TIP3   OH242585   6.381   4.942   1.497
 7009TIP3    H142586   6.475   4.930   1.491
 7009TIP3    H242587   6.344   4.877   1.438
 7010TIP3   OH242588   5.369   5.164   8.833
 7010TIP3    H142589   5.356   5.070   8.823
 7010TIP3    H242590   5.395   5.175   0.064
 7011TIP3   OH242591   1.225   5.905   1.751
 7011TIP3    H142592   1.318   5.884   1.766
 7011TIP3    H242593   1.205   5.970   1.819
 7012TIP3   OH242594   1.289   1.343   7.597
 7012TIP3    H142595   1.384   1.348   7.609
 7012TIP3    H242596   1.256   1.313   7.681
 7013TIP3   OH242597   1.187   4.997   0.957
 7013TIP3    H142598   1.208   4.905   0.975
 7013TIP3    H242599   1.256   5.027   0.899
 7014TIP3   OH242600   2.446   5.264   1.455
 7014TIP3    H142601   2.351   5.262   1.470
 7014TIP3    H242602   2.484   5.281   1.540
 7015TIP3   OH242603   5.154   3.382   7.565
 7015TIP3    H142604   5.059   3.381   7.577
 7015TIP3    H242605   5.180   3.472   7.586
 7016TIP3   OH242606   1.026   5.496   7.498
 7016TIP3    H142607   1.070   5.540   7.426
 7016TIP3    H242608   1.096   5.470   7.558
 7017TIP3   OH242609   2.738   2.204   7.899
 7017TIP3    H142610   2.685   2.128   7.921
 7017TIP3    H242611   2.777   2.182   7.814
 7018TIP3   OH242612   0.291   0.390   1.140
 7018TIP3    H142613   0.324   0.304   1.114
 7018TIP3    H242614   0.229   0.413   1.071
 7019TIP3   OH242615   4.671   2.517   0.882
 7019TIP3    H142616   4.648   2.602   0.919
 7019TIP3    H242617   4.588   2.469   0.878
 7020TIP3   OH242618   0.690   3.591   1.306
 7020TIP3    H142619   0.778   3.580   1.342
 7020TIP3    H242620   0.648   3.655   1.364
 7021TIP3   OH242621   5.983   4.043   1.219
 7021TIP3    H142622   5.904   4.025   1.271
 7021TIP3    H242623   6.038   4.096   1.277
 7022TIP3   OH242624   0.742   3.211   6.455
 7022TIP3    H142625   0.788   3.262   6.521
 7022TIP3    H242626   0.751   3.120   6.484
 7023TIP3   OH242627   3.244   2.832   1.032
 7023TIP3    H142628   3.156   2.822   1.068
 7023TIP3    H242629   3.302   2.793   1.097
 7024TIP3   OH242630   4.517   6.660   1.647
 7024TIP3    H142631   4.601   6.657   1.692
 7024TIP3    H242632   4.466   6.725   1.696
 7025TIP3   OH242633   4.645   1.349   7.401
 7025TIP3    H142634   4.555   1.318   7.403
 7025TIP3    H242635   4.695   1.276   7.366
 7026TIP3   OH242636   1.941   1.634   6.889
 7026TIP3    H142637   1.892   1.551   6.881
 7026TIP3    H242638   1.979   1.647   6.802
 7027TIP3   OH242639   0.004   3.921   1.990
 7027TIP3    H142640   0.004   3.825   1.983
 7027TIP3    H242641   6.789   3.951   1.901
 7028TIP3   OH242642   4.381   0.969   8.657
 7028TIP3    H142643   4.430   0.945   8.578
 7028TIP3    H242644   4.310   1.024   8.625
 7029TIP3   OH242645   6.713   3.819   7.399
 7029TIP3    H142646   6.752   3.747   7.350
 7029TIP3    H242647   6.769   3.894   7.381
 7030TIP3   OH242648   0.534   5.725   8.415
 7030TIP3    H142649   0.531   5.786   8.489
 7030TIP3    H242650   0.618   5.744   8.372
 7031TIP3   OH242651   4.669   4.531   6.659
 7031TIP3    H142652   4.688   4.506   6.569
 7031TIP3    H242653   4.600   4.470   6.687
 7032TIP3   OH242654   5.473   6.495   0.550
 7032TIP3    H142655   5.378   6.484   0.548
 7032TIP3    H242656   5.486   6.588   0.567
 7033TIP3   OH242657   6.671   5.727   0.520
 7033TIP3    H142658   6.724   5.760   0.448
 7033TIP3    H242659   6.731   5.674   0.572
 7034TIP3   OH242660   6.442   1.925   7.579
 7034TIP3    H142661   6.394   1.928   7.661
 7034TIP3    H242662   6.440   2.016   7.547
 7035TIP3   OH242663   0.306   0.315   7.025
 7035TIP3    H142664   0.271   0.228   7.005
 7035TIP3    H242665   0.285   0.367   6.948
 7036TIP3   OH242666   2.060   1.059   7.129
 7036TIP3    H142667   2.117   1.129   7.098
 7036TIP3    H242668   2.080   1.053   7.223
 7037TIP3   OH242669   1.635   4.844   7.793
 7037TIP3    H142670   1.648   4.883   7.706
 7037TIP3    H242671   1.719   4.801   7.812
 7038TIP3   OH242672   2.379   1.814   1.393
 7038TIP3    H142673   2.446   1.761   1.436
 7038TIP3    H242674   2.297   1.767   1.409
 7039TIP3   OH242675   0.491   1.333   6.507
 7039TIP3    H142676   0.421   1.286   6.462
 7039TIP3    H242677   0.570   1.286   6.483
 7040TIP3   OH242678   6.617   6.317   6.816
 7040TIP3    H142679   6.703   6.288   6.846
 7040TIP3    H242680   6.609   6.407   6.846
 7041TIP3   OH242681   0.470   1.311   1.375
 7041TIP3    H142682   0.453   1.377   1.442
 7041TIP3    H242683   0.467   1.360   1.292
 7042TIP3   OH242684   0.455   2.840   0.709
 7042TIP3    H142685   0.417   2.776   0.769
 7042TIP3    H242686   0.424   2.813   0.623
 7043TIP3   OH242687   5.291   3.799   8.098
 7043TIP3    H142688   5.257   3.757   8.019
 7043TIP3    H242689   5.224   3.863   8.122
 7044TIP3   OH242690   3.867   2.118   0.037
 7044TIP3    H142691   3.957   2.142   0.014
 7044TIP3    H242692   3.849   2.040   8.846
 7045TIP3   OH242693   2.243   6.715   6.799
 7045TIP3    H142694   2.165   6.676   6.758
 7045TIP3    H242695   2.208   6.787   6.851
 7046TIP3   OH242696   1.677   2.104   7.698
 7046TIP3    H142697   1.728   2.162   7.641
 7046TIP3    H242698   1.687   2.140   7.785
 7047TIP3   OH242699   4.376   2.829   8.502
 7047TIP3    H142700   4.372   2.768   8.577
 7047TIP3    H242701   4.319   2.789   8.437
 7048TIP3   OH242702   2.035   3.136   0.663
 7048TIP3    H142703   2.046   3.149   0.569
 7048TIP3    H242704   2.050   3.043   0.677
 7049TIP3   OH242705   2.110   2.101   8.761
 7049TIP3    H142706   2.080   2.143   8.680
 7049TIP3    H242707   2.058   2.143   8.830
 7050TIP3   OH242708   0.026   5.557   2.065
 7050TIP3    H142709   0.120   5.543   2.079
 7050TIP3    H242710   0.022   5.620   1.992
 7051TIP3   OH242711   5.375   0.695   2.066
 7051TIP3    H142712   5.335   0.777   2.092
 7051TIP3    H242713   5.391   0.648   2.148
 7052TIP3   OH242714   2.081   5.484   7.923
 7052TIP3    H142715   2.147   5.421   7.893
 7052TIP3    H242716   2.000   5.433   7.926
 7053TIP3   OH242717   5.123   6.226   7.444
 7053TIP3    H142718   5.089   6.281   7.514
 7053TIP3    H242719   5.203   6.270   7.415
 7054TIP3   OH242720   6.737   1.338   8.264
 7054TIP3    H142721   6.661   1.389   8.237
 7054TIP3    H242722   6.784   1.320   8.183
 7055TIP3   OH242723   4.205   4.305   7.863
 7055TIP3    H142724   4.214   4.347   7.948
 7055TIP3    H242725   4.113   4.277   7.860
 7056TIP3   OH242726   6.355   0.118   1.521
 7056TIP3    H142727   6.317   0.035   1.551
 7056TIP3    H242728   6.353   0.174   1.598
 7057TIP3   OH242729   0.053   5.207   1.146
 7057TIP3    H142730   0.095   5.152   1.212
 7057TIP3    H242731   6.772   5.160   1.124
 7058TIP3   OH242732   4.553   5.185   2.049
 7058TIP3    H142733   4.565   5.130   2.127
 7058TIP3    H242734   4.594   5.269   2.073
 7059TIP3   OH242735   4.661   2.771   6.531
 7059TIP3    H142736   4.625   2.855   6.559
 7059TIP3    H242737   4.599   2.740   6.465
 7060TIP3   OH242738   6.083   5.248   7.837
 7060TIP3    H142739   6.006   5.297   7.809
 7060TIP3    H242740   6.061   5.215   7.924
 7061TIP3   OH242741   0.879   2.265   1.134
 7061TIP3    H142742   0.828   2.305   1.204
 7061TIP3    H242743   0.879   2.329   1.063
 7062TIP3   OH242744   3.715   4.494   7.804
 7062TIP3    H142745   3.789   4.495   7.865
 7062TIP3    H242746   3.639   4.473   7.858
 7063TIP3   OH242747   6.771   3.501   6.970
 7063TIP3    H142748   6.768   3.413   7.010
 7063TIP3    H242749   6.758   3.486   6.877
 7064TIP3   OH242750   1.858   2.797   8.065
 7064TIP3    H142751   1.874   2.786   8.159
 7064TIP3    H242752   1.776   2.750   8.049
 7065TIP3   OH242753   2.504   0.340   8.785
 7065TIP3    H142754   2.450   0.362   0.001
 7065TIP3    H242755   2.585   0.307   8.822
 7066TIP3   OH242756   1.313   1.887   1.729
 7066TIP3    H142757   1.301   1.839   1.811
 7066TIP3    H242758   1.230   1.934   1.717
 7067TIP3   OH242759   3.877   5.834   6.615
 7067TIP3    H142760   3.849   5.923   6.595
 7067TIP3    H242761   3.892   5.794   6.529
 7068TIP3   OH242762   1.924   2.137   7.154
 7068TIP3    H142763   1.923   2.063   7.215
 7068TIP3    H242764   1.954   2.100   7.071
 7069TIP3   OH242765   1.681   6.686   0.713
 7069TIP3    H142766   1.592   6.652   0.710
 7069TIP3    H242767   1.679   6.765   0.659
 7070TIP3   OH242768   3.844   0.859   7.180
 7070TIP3    H142769   3.901   0.936   7.176
 7070TIP3    H242770   3.787   0.876   7.255
 7071TIP3   OH242771   5.306   1.480   0.337
 7071TIP3    H142772   5.310   1.422   0.413
 7071TIP3    H242773   5.380   1.540   0.348
 7072LIG      O42774   4.649   5.624   4.943
 7072LIG     C142775   4.520   5.670   4.989
 7072LIG     C242776   4.416   5.561   4.992
 7072LIG     C342777   4.546   5.718   5.130
 7072LIG     H142778   4.482   5.749   4.921
 7072LIG     H242779   4.334   5.590   5.062
 7072LIG     H342780   4.462   5.469   5.031
 7072LIG     H442781   4.363   5.533   4.898
 7072LIG     H542782   4.452   5.749   5.182
 7072LIG     H642783   4.612   5.806   5.112
 7072LIG     H742784   4.622   5.657   5.182
 7072LIG     H842785   4.646   5.596   4.851
   6.80040   6.80040   8.86053
