Title t= 2800.00000 step= 1400000
42785
    1SAPS     N    1   4.815   3.675   7.033
    1SAPS   HN1    2   4.854   3.742   7.103
    1SAPS   HN2    3   4.713   3.654   7.034
    1SAPS   HN3    4   4.872   3.589   7.040
    1SAPS   C12    5   4.847   3.739   6.897
    1SAPS  H12A    6   4.774   3.818   6.887
    1SAPS   C13    7   4.988   3.790   6.882
    1SAPS  O13A    8   5.073   3.742   6.960
    1SAPS  O13B    9   5.019   3.849   6.777
    1SAPS   C11   10   4.810   3.644   6.775
    1SAPS  H11A   11   4.851   3.542   6.793
    1SAPS  H11B   12   4.856   3.686   6.683
    1SAPS     P   13   4.587   3.559   6.659
    1SAPS   O13   14   4.613   3.415   6.674
    1SAPS   O14   15   4.451   3.604   6.668
    1SAPS   O12   16   4.671   3.643   6.768
    1SAPS   O11   17   4.646   3.621   6.524
    1SAPS    C1   18   4.605   3.556   6.409
    1SAPS    HA   19   4.696   3.520   6.356
    1SAPS    HB   20   4.527   3.477   6.410
    1SAPS    C2   21   4.541   3.661   6.315
    1SAPS    HS   22   4.508   3.617   6.219
    1SAPS   O21   23   4.627   3.776   6.296
    1SAPS   C21   24   4.726   3.745   6.211
    1SAPS   O22   25   4.725   3.647   6.141
    1SAPS   C22   26   4.847   3.836   6.227
    1SAPS   H2R   27   4.793   3.932   6.210
    1SAPS   H2S   28   4.898   3.830   6.325
    1SAPS    C3   29   4.409   3.700   6.381
    1SAPS    HX   30   4.423   3.761   6.473
    1SAPS    HY   31   4.366   3.604   6.415
    1SAPS   O31   32   4.324   3.763   6.280
    1SAPS   C31   33   4.327   3.893   6.275
    1SAPS   O32   34   4.373   3.970   6.357
    1SAPS   C32   35   4.246   3.937   6.148
    1SAPS   H2X   36   4.203   4.037   6.170
    1SAPS   H2Y   37   4.157   3.873   6.127
    1SAPS   C23   38   4.954   3.806   6.121
    1SAPS   H3R   39   4.983   3.700   6.106
    1SAPS   H3S   40   5.046   3.864   6.146
    1SAPS   C24   41   4.901   3.849   5.983
    1SAPS   H4R   42   4.792   3.826   5.978
    1SAPS   H4S   43   4.937   3.801   5.890
    1SAPS   C25   44   4.905   4.002   5.969
    1SAPS   H5R   45   4.899   4.054   6.066
    1SAPS   C26   46   4.918   4.079   5.863
    1SAPS   H6R   47   4.916   4.188   5.878
    1SAPS   C27   48   4.942   4.020   5.726
    1SAPS   H7R   49   5.039   3.967   5.716
    1SAPS   H7S   50   4.951   4.103   5.653
    1SAPS   C28   51   4.836   3.924   5.678
    1SAPS   H8R   52   4.764   3.884   5.751
    1SAPS   C29   53   4.822   3.863   5.558
    1SAPS   H9R   54   4.742   3.791   5.538
    1SAPS  C210   55   4.911   3.886   5.439
    1SAPS  H10R   56   4.992   3.953   5.473
    1SAPS  H10S   57   4.848   3.932   5.361
    1SAPS  C211   58   4.968   3.766   5.377
    1SAPS  H11R   59   5.008   3.692   5.449
    1SAPS  C212   60   5.011   3.751   5.250
    1SAPS  H12R   61   5.052   3.653   5.221
    1SAPS  C213   62   4.973   3.844   5.136
    1SAPS  H13R   63   5.003   3.945   5.171
    1SAPS  H13S   64   4.865   3.856   5.116
    1SAPS  C214   65   5.036   3.812   5.005
    1SAPS  H14R   66   5.142   3.792   5.024
    1SAPS  C215   67   4.990   3.828   4.882
    1SAPS  H15R   68   5.061   3.786   4.808
    1SAPS  C216   69   4.849   3.846   4.837
    1SAPS  H16R   70   4.788   3.883   4.923
    1SAPS  H16S   71   4.812   3.748   4.801
    1SAPS  C217   72   4.854   3.950   4.726
    1SAPS  H17R   73   4.924   3.913   4.648
    1SAPS  H17S   74   4.911   4.036   4.767
    1SAPS  C218   75   4.708   3.985   4.675
    1SAPS  H18R   76   4.665   3.883   4.664
    1SAPS  H18S   77   4.709   4.035   4.576
    1SAPS  C219   78   4.626   4.068   4.768
    1SAPS  H19R   79   4.641   4.178   4.764
    1SAPS  H19S   80   4.632   4.022   4.869
    1SAPS  C220   81   4.475   4.052   4.739
    1SAPS  H20R   82   4.456   4.107   4.645
    1SAPS  H20S   83   4.405   4.103   4.809
    1SAPS  H20T   84   4.439   3.948   4.727
    1SAPS   C33   85   4.338   3.932   6.027
    1SAPS   H3X   86   4.437   3.980   6.042
    1SAPS   H3Y   87   4.283   3.972   5.939
    1SAPS   C34   88   4.375   3.789   5.974
    1SAPS   H4X   89   4.289   3.722   5.955
    1SAPS   H4Y   90   4.432   3.731   6.050
    1SAPS   C35   91   4.461   3.799   5.850
    1SAPS   H5X   92   4.502   3.697   5.833
    1SAPS   H5Y   93   4.549   3.858   5.882
    1SAPS   C36   94   4.391   3.842   5.718
    1SAPS   H6X   95   4.378   3.952   5.722
    1SAPS   H6Y   96   4.290   3.797   5.709
    1SAPS   C37   97   4.463   3.793   5.588
    1SAPS   H7X   98   4.479   3.684   5.607
    1SAPS   H7Y   99   4.551   3.860   5.591
    1SAPS   C38  100   4.375   3.828   5.465
    1SAPS   H8X  101   4.357   3.938   5.460
    1SAPS   H8Y  102   4.279   3.774   5.467
    1SAPS   C39  103   4.453   3.789   5.329
    1SAPS   H9X  104   4.376   3.759   5.255
    1SAPS   H9Y  105   4.526   3.711   5.360
    1SAPS  C310  106   4.542   3.905   5.275
    1SAPS  H10X  107   4.628   3.879   5.210
    1SAPS  H10Y  108   4.588   3.951   5.365
    1SAPS  C311  109   4.453   4.007   5.201
    1SAPS  H11X  110   4.362   4.012   5.265
    1SAPS  H11Y  111   4.420   3.964   5.104
    1SAPS  C312  112   4.508   4.148   5.182
    1SAPS  H12X  113   4.578   4.157   5.097
    1SAPS  H12Y  114   4.563   4.179   5.273
    1SAPS  C313  115   4.389   4.254   5.171
    1SAPS  H13X  116   4.337   4.256   5.269
    1SAPS  H13Y  117   4.323   4.226   5.087
    1SAPS  C314  118   4.446   4.391   5.118
    1SAPS  H14X  119   4.509   4.361   5.032
    1SAPS  H14Y  120   4.513   4.444   5.189
    1SAPS  C315  121   4.356   4.496   5.065
    1SAPS  H15X  122   4.317   4.554   5.152
    1SAPS  H15Y  123   4.267   4.457   5.012
    1SAPS  C316  124   4.431   4.592   4.971
    1SAPS  H16X  125   4.482   4.527   4.897
    1SAPS  H16Y  126   4.501   4.653   5.033
    1SAPS  C317  127   4.339   4.687   4.890
    1SAPS  H17X  128   4.252   4.724   4.949
    1SAPS  H17Y  129   4.287   4.627   4.813
    1SAPS  C318  130   4.417   4.807   4.826
    1SAPS  H18X  131   4.495   4.846   4.895
    1SAPS  H18Y  132   4.349   4.894   4.809
    1SAPS  H18Z  133   4.459   4.780   4.727
    2SAPS     N  134   4.822   6.614   6.613
    2SAPS   HN1  135   4.838   6.669   6.700
    2SAPS   HN2  136   4.876   6.525   6.622
    2SAPS   HN3  137   4.857   6.673   6.535
    2SAPS   C12  138   4.675   6.591   6.617
    2SAPS  H12A  139   4.650   6.578   6.721
    2SAPS   C13  140   4.606   6.718   6.558
    2SAPS  O13A  141   4.680   6.817   6.530
    2SAPS  O13B  142   4.494   6.707   6.511
    2SAPS   C11  143   4.647   6.460   6.543
    2SAPS  H11A  144   4.695   6.451   6.443
    2SAPS  H11B  145   4.538   6.454   6.519
    2SAPS     P  146   4.810   6.262   6.600
    2SAPS   O13  147   4.914   6.354   6.642
    2SAPS   O14  148   4.804   6.135   6.669
    2SAPS   O12  149   4.673   6.337   6.619
    2SAPS   O11  150   4.817   6.244   6.444
    2SAPS    C1  151   4.704   6.195   6.375
    2SAPS    HA  152   4.616   6.164   6.435
    2SAPS    HB  153   4.658   6.272   6.310
    2SAPS    C2  154   4.749   6.079   6.284
    2SAPS    HS  155   4.798   6.005   6.351
    2SAPS   O21  156   4.845   6.121   6.184
    2SAPS   C21  157   4.895   6.018   6.120
    2SAPS   O22  158   4.896   5.904   6.167
    2SAPS   C22  159   4.936   6.060   5.980
    2SAPS   H2R  160   4.891   6.152   5.936
    2SAPS   H2S  161   5.045   6.072   5.963
    2SAPS    C3  162   4.622   6.015   6.218
    2SAPS    HX  163   4.551   5.978   6.295
    2SAPS    HY  164   4.661   5.926   6.164
    2SAPS   O31  165   4.554   6.106   6.128
    2SAPS   C31  166   4.529   6.075   6.001
    2SAPS   O32  167   4.555   5.967   5.946
    2SAPS   C32  168   4.457   6.181   5.938
    2SAPS   H2X  169   4.525   6.268   5.926
    2SAPS   H2Y  170   4.368   6.213   5.997
    2SAPS   C23  171   4.893   5.947   5.879
    2SAPS   H3R  172   4.783   5.932   5.881
    2SAPS   H3S  173   4.939   5.851   5.914
    2SAPS   C24  174   4.932   5.963   5.726
    2SAPS   H4R  175   5.026   5.910   5.701
    2SAPS   H4S  176   4.949   6.071   5.707
    2SAPS   C25  177   4.826   5.908   5.630
    2SAPS   H5R  178   4.815   5.800   5.648
    2SAPS   C26  179   4.760   5.965   5.529
    2SAPS   H6R  180   4.690   5.912   5.463
    2SAPS   C27  181   4.785   6.103   5.489
    2SAPS   H7R  182   4.836   6.164   5.567
    2SAPS   H7S  183   4.689   6.148   5.456
    2SAPS   C28  184   4.880   6.111   5.375
    2SAPS   H8R  185   4.961   6.036   5.379
    2SAPS   C29  186   4.876   6.194   5.265
    2SAPS   H9R  187   4.954   6.184   5.188
    2SAPS  C210  188   4.782   6.315   5.255
    2SAPS  H10R  189   4.841   6.405   5.227
    2SAPS  H10S  190   4.735   6.339   5.353
    2SAPS  C211  191   4.678   6.291   5.143
    2SAPS  H11R  192   4.596   6.226   5.179
    2SAPS  C212  193   4.665   6.351   5.022
    2SAPS  H12R  194   4.584   6.310   4.960
    2SAPS  C213  195   4.764   6.446   4.961
    2SAPS  H13R  196   4.823   6.381   4.894
    2SAPS  H13S  197   4.840   6.492   5.027
    2SAPS  C214  198   4.695   6.557   4.895
    2SAPS  H14R  199   4.677   6.648   4.954
    2SAPS  C215  200   4.687   6.578   4.763
    2SAPS  H15R  201   4.646   6.675   4.731
    2SAPS  C216  202   4.729   6.486   4.646
    2SAPS  H16R  203   4.642   6.429   4.607
    2SAPS  H16S  204   4.801   6.410   4.684
    2SAPS  C217  205   4.806   6.555   4.530
    2SAPS  H17R  206   4.839   6.476   4.459
    2SAPS  H17S  207   4.901   6.600   4.567
    2SAPS  C218  208   4.712   6.651   4.443
    2SAPS  H18R  209   4.783   6.689   4.367
    2SAPS  H18S  210   4.673   6.733   4.507
    2SAPS  C219  211   4.587   6.592   4.381
    2SAPS  H19R  212   4.546   6.672   4.315
    2SAPS  H19S  213   4.506   6.586   4.457
    2SAPS  C220  214   4.608   6.455   4.305
    2SAPS  H20R  215   4.682   6.457   4.223
    2SAPS  H20S  216   4.512   6.415   4.265
    2SAPS  H20T  217   4.644   6.391   4.389
    2SAPS   C33  218   4.408   6.144   5.791
    2SAPS   H3X  219   4.314   6.087   5.808
    2SAPS   H3Y  220   4.482   6.080   5.738
    2SAPS   C34  221   4.355   6.270   5.715
    2SAPS   H4X  222   4.443   6.337   5.703
    2SAPS   H4Y  223   4.292   6.332   5.783
    2SAPS   C35  224   4.288   6.242   5.580
    2SAPS   H5X  225   4.230   6.332   5.551
    2SAPS   H5Y  226   4.216   6.158   5.586
    2SAPS   C36  227   4.384   6.201   5.464
    2SAPS   H6X  228   4.439   6.109   5.491
    2SAPS   H6Y  229   4.453   6.284   5.438
    2SAPS   C37  230   4.314   6.164   5.331
    2SAPS   H7X  231   4.222   6.105   5.349
    2SAPS   H7Y  232   4.384   6.104   5.269
    2SAPS   C38  233   4.272   6.292   5.246
    2SAPS   H8X  234   4.361   6.334   5.194
    2SAPS   H8Y  235   4.237   6.373   5.313
    2SAPS   C39  236   4.160   6.247   5.145
    2SAPS   H9X  237   4.081   6.199   5.207
    2SAPS   H9Y  238   4.204   6.182   5.067
    2SAPS  C310  239   4.103   6.365   5.060
    2SAPS  H10X  240   4.048   6.436   5.126
    2SAPS  H10Y  241   4.036   6.325   4.981
    2SAPS  C311  242   4.222   6.430   4.992
    2SAPS  H11X  243   4.286   6.350   4.948
    2SAPS  H11Y  244   4.288   6.479   5.067
    2SAPS  C312  245   4.176   6.534   4.883
    2SAPS  H12X  246   4.127   6.616   4.940
    2SAPS  H12Y  247   4.106   6.480   4.816
    2SAPS  C313  248   4.284   6.596   4.798
    2SAPS  H13X  249   4.322   6.521   4.725
    2SAPS  H13Y  250   4.369   6.618   4.865
    2SAPS  C314  251   4.235   6.720   4.726
    2SAPS  H14X  252   4.207   6.789   4.808
    2SAPS  H14Y  253   4.151   6.687   4.662
    2SAPS  C315  254   4.351   6.768   4.637
    2SAPS  H15X  255   4.368   6.694   4.555
    2SAPS  H15Y  256   4.449   6.750   4.685
    2SAPS  C316  257   4.327   0.023   4.568
    2SAPS  H16X  258   4.365   0.110   4.626
    2SAPS  H16Y  259   4.217   0.040   4.556
    2SAPS  C317  260   4.392   0.041   4.432
    2SAPS  H17X  261   4.353   6.844   4.362
    2SAPS  H17Y  262   4.500   0.018   4.443
    2SAPS  C318  263   4.374   0.176   4.363
    2SAPS  H18X  264   4.269   0.184   4.327
    2SAPS  H18Y  265   4.436   0.166   4.272
    2SAPS  H18Z  266   4.408   0.257   4.431
    3SAPS     N  267   5.400   4.249   6.698
    3SAPS   HN1  268   5.485   4.284   6.748
    3SAPS   HN2  269   5.397   4.145   6.706
    3SAPS   HN3  270   5.401   4.277   6.598
    3SAPS   C12  271   5.275   4.299   6.765
    3SAPS  H12A  272   5.218   4.209   6.777
    3SAPS   C13  273   5.295   4.362   6.906
    3SAPS  O13A  274   5.399   4.338   6.972
    3SAPS  O13B  275   5.206   4.432   6.954
    3SAPS   C11  276   5.202   4.401   6.659
    3SAPS  H11A  277   5.268   4.488   6.638
    3SAPS  H11B  278   5.106   4.426   6.710
    3SAPS     P  279   5.231   4.319   6.404
    3SAPS   O13  280   5.376   4.289   6.437
    3SAPS   O14  281   5.147   4.219   6.338
    3SAPS   O12  282   5.158   4.334   6.539
    3SAPS   O11  283   5.218   4.464   6.330
    3SAPS    C1  284   5.106   4.540   6.356
    3SAPS    HA  285   5.015   4.476   6.360
    3SAPS    HB  286   5.109   4.594   6.453
    3SAPS    C2  287   5.082   4.659   6.270
    3SAPS    HS  288   4.974   4.683   6.266
    3SAPS   O21  289   5.139   4.652   6.137
    3SAPS   C21  290   5.074   4.554   6.067
    3SAPS   O22  291   4.979   4.490   6.114
    3SAPS   C22  292   5.122   4.548   5.919
    3SAPS   H2R  293   5.033   4.578   5.859
    3SAPS   H2S  294   5.210   4.616   5.915
    3SAPS    C3  295   5.133   4.797   6.327
    3SAPS    HX  296   5.241   4.787   6.349
    3SAPS    HY  297   5.072   4.814   6.418
    3SAPS   O31  298   5.108   4.907   6.228
    3SAPS   C31  299   5.205   4.940   6.152
    3SAPS   O32  300   5.322   4.916   6.168
    3SAPS   C32  301   5.138   5.015   6.032
    3SAPS   H2X  302   5.089   5.106   6.071
    3SAPS   H2Y  303   5.062   4.941   5.997
    3SAPS   C23  304   5.167   4.404   5.882
    3SAPS   H3R  305   5.077   4.339   5.894
    3SAPS   H3S  306   5.242   4.368   5.954
    3SAPS   C24  307   5.222   4.376   5.738
    3SAPS   H4R  308   5.147   4.422   5.670
    3SAPS   H4S  309   5.232   4.267   5.721
    3SAPS   C25  310   5.356   4.435   5.709
    3SAPS   H5R  311   5.410   4.462   5.801
    3SAPS   C26  312   5.410   4.451   5.590
    3SAPS   H6R  313   5.511   4.495   5.584
    3SAPS   C27  314   5.335   4.425   5.463
    3SAPS   H7R  315   5.279   4.513   5.426
    3SAPS   H7S  316   5.259   4.346   5.480
    3SAPS   C28  317   5.421   4.391   5.341
    3SAPS   H8R  318   5.437   4.472   5.268
    3SAPS   C29  319   5.481   4.277   5.309
    3SAPS   H9R  320   5.532   4.265   5.212
    3SAPS  C210  321   5.484   4.144   5.382
    3SAPS  H10R  322   5.431   4.163   5.478
    3SAPS  H10S  323   5.586   4.108   5.408
    3SAPS  C211  324   5.407   4.036   5.303
    3SAPS  H11R  325   5.349   4.068   5.215
    3SAPS  C212  326   5.409   3.898   5.324
    3SAPS  H12R  327   5.361   3.836   5.248
    3SAPS  C213  328   5.483   3.822   5.428
    3SAPS  H13R  329   5.505   3.892   5.511
    3SAPS  H13S  330   5.580   3.790   5.385
    3SAPS  C214  331   5.423   3.701   5.496
    3SAPS  H14R  332   5.458   3.613   5.440
    3SAPS  C215  333   5.331   3.698   5.595
    3SAPS  H15R  334   5.309   3.597   5.631
    3SAPS  C216  335   5.286   3.816   5.676
    3SAPS  H16R  336   5.183   3.813   5.718
    3SAPS  H16S  337   5.294   3.905   5.610
    3SAPS  C217  338   5.387   3.848   5.788
    3SAPS  H17R  339   5.491   3.844   5.748
    3SAPS  H17S  340   5.375   3.784   5.878
    3SAPS  C218  341   5.380   3.998   5.838
    3SAPS  H18R  342   5.367   4.066   5.752
    3SAPS  H18S  343   5.477   4.022   5.888
    3SAPS  C219  344   5.265   4.025   5.941
    3SAPS  H19R  345   5.206   4.119   5.927
    3SAPS  H19S  346   5.177   3.957   5.936
    3SAPS  C220  347   5.330   4.029   6.081
    3SAPS  H20R  348   5.413   4.100   6.101
    3SAPS  H20S  349   5.349   3.928   6.124
    3SAPS  H20T  350   5.249   4.062   6.149
    3SAPS   C33  351   5.245   5.034   5.921
    3SAPS   H3X  352   5.310   4.944   5.911
    3SAPS   H3Y  353   5.314   5.117   5.946
    3SAPS   C34  354   5.176   5.061   5.788
    3SAPS   H4X  355   5.119   5.152   5.814
    3SAPS   H4Y  356   5.100   4.987   5.752
    3SAPS   C35  357   5.286   5.085   5.679
    3SAPS   H5X  358   5.357   5.160   5.720
    3SAPS   H5Y  359   5.344   4.992   5.661
    3SAPS   C36  360   5.228   5.126   5.542
    3SAPS   H6X  361   5.204   5.234   5.546
    3SAPS   H6Y  362   5.129   5.081   5.520
    3SAPS   C37  363   5.314   5.096   5.426
    3SAPS   H7X  364   5.335   4.987   5.425
    3SAPS   H7Y  365   5.410   5.146   5.453
    3SAPS   C38  366   5.267   5.148   5.287
    3SAPS   H8X  367   5.354   5.138   5.218
    3SAPS   H8Y  368   5.249   5.255   5.313
    3SAPS   C39  369   5.144   5.084   5.228
    3SAPS   H9X  370   5.054   5.111   5.288
    3SAPS   H9Y  371   5.160   4.975   5.240
    3SAPS  C310  372   5.111   5.120   5.079
    3SAPS  H10X  373   5.028   5.058   5.040
    3SAPS  H10Y  374   5.203   5.095   5.022
    3SAPS  C311  375   5.060   5.261   5.054
    3SAPS  H11X  376   5.140   5.321   5.103
    3SAPS  H11Y  377   4.963   5.271   5.105
    3SAPS  C312  378   5.030   5.284   4.908
    3SAPS  H12X  379   4.987   5.188   4.873
    3SAPS  H12Y  380   5.116   5.324   4.850
    3SAPS  C313  381   4.923   5.396   4.888
    3SAPS  H13X  382   4.953   5.479   4.955
    3SAPS  H13Y  383   4.825   5.353   4.920
    3SAPS  C314  384   4.902   5.439   4.741
    3SAPS  H14X  385   4.992   5.471   4.684
    3SAPS  H14Y  386   4.826   5.520   4.743
    3SAPS  C315  387   4.846   5.321   4.667
    3SAPS  H15X  388   4.770   5.273   4.732
    3SAPS  H15Y  389   4.927   5.245   4.657
    3SAPS  C316  390   4.777   5.352   4.534
    3SAPS  H16X  391   4.686   5.413   4.552
    3SAPS  H16Y  392   4.741   5.261   4.483
    3SAPS  C317  393   4.861   5.442   4.442
    3SAPS  H17X  394   4.903   5.522   4.506
    3SAPS  H17Y  395   4.801   5.486   4.360
    3SAPS  C318  396   4.970   5.354   4.382
    3SAPS  H18X  397   5.035   5.322   4.466
    3SAPS  H18Y  398   5.046   5.396   4.312
    3SAPS  H18Z  399   4.928   5.264   4.333
    4SAPS     N  400   1.988   2.487   7.038
    4SAPS   HN1  401   2.009   2.436   7.127
    4SAPS   HN2  402   1.885   2.494   7.024
    4SAPS   HN3  403   2.019   2.428   6.959
    4SAPS   C12  404   2.036   2.628   7.027
    4SAPS  H12A  405   1.974   2.685   7.094
    4SAPS   C13  406   2.190   2.638   7.058
    4SAPS  O13A  407   2.252   2.534   7.095
    4SAPS  O13B  408   2.250   2.744   7.028
    4SAPS   C11  409   2.019   2.675   6.881
    4SAPS  H11A  410   2.074   2.603   6.817
    4SAPS  H11B  411   2.066   2.773   6.860
    4SAPS     P  412   1.805   2.743   6.740
    4SAPS   O13  413   1.691   2.654   6.713
    4SAPS   O14  414   1.778   2.882   6.770
    4SAPS   O12  415   1.878   2.671   6.850
    4SAPS   O11  416   1.905   2.745   6.616
    4SAPS    C1  417   1.963   2.627   6.559
    4SAPS    HA  418   2.073   2.643   6.556
    4SAPS    HB  419   1.953   2.535   6.620
    4SAPS    C2  420   1.919   2.605   6.413
    4SAPS    HS  421   1.988   2.521   6.390
    4SAPS   O21  422   1.940   2.724   6.336
    4SAPS   C21  423   2.065   2.750   6.300
    4SAPS   O22  424   2.160   2.674   6.325
    4SAPS   C22  425   2.075   2.883   6.240
    4SAPS   H2R  426   2.010   2.957   6.293
    4SAPS   H2S  427   2.182   2.911   6.246
    4SAPS    C3  428   1.768   2.560   6.406
    4SAPS    HX  429   1.697   2.645   6.423
    4SAPS    HY  430   1.760   2.485   6.487
    4SAPS   O31  431   1.735   2.487   6.282
    4SAPS   C31  432   1.666   2.553   6.198
    4SAPS   O32  433   1.625   2.670   6.209
    4SAPS   C32  434   1.635   2.462   6.083
    4SAPS   H2X  435   1.576   2.530   6.018
    4SAPS   H2Y  436   1.570   2.384   6.128
    4SAPS   C23  437   2.055   2.886   6.088
    4SAPS   H3R  438   2.100   2.982   6.056
    4SAPS   H3S  439   1.946   2.889   6.069
    4SAPS   C24  440   2.109   2.767   6.006
    4SAPS   H4R  441   2.064   2.776   5.905
    4SAPS   H4S  442   2.081   2.673   6.059
    4SAPS   C25  443   2.260   2.783   5.993
    4SAPS   H5R  444   2.316   2.777   6.087
    4SAPS   C26  445   2.324   2.789   5.879
    4SAPS   H6R  446   2.434   2.787   5.882
    4SAPS   C27  447   2.261   2.793   5.736
    4SAPS   H7R  448   2.178   2.719   5.731
    4SAPS   H7S  449   2.345   2.775   5.666
    4SAPS   C28  450   2.192   2.924   5.694
    4SAPS   H8R  451   2.151   2.986   5.776
    4SAPS   C29  452   2.183   2.966   5.565
    4SAPS   H9R  453   2.133   3.062   5.547
    4SAPS  C210  454   2.231   2.895   5.441
    4SAPS  H10R  455   2.156   2.820   5.408
    4SAPS  H10S  456   2.324   2.839   5.463
    4SAPS  C211  457   2.261   2.983   5.321
    4SAPS  H11R  458   2.310   3.080   5.341
    4SAPS  C212  459   2.216   2.960   5.202
    4SAPS  H12R  460   2.250   3.025   5.120
    4SAPS  C213  461   2.137   2.839   5.147
    4SAPS  H13R  462   2.047   2.887   5.105
    4SAPS  H13S  463   2.100   2.779   5.233
    4SAPS  C214  464   2.209   2.753   5.046
    4SAPS  H14R  465   2.299   2.703   5.085
    4SAPS  C215  466   2.180   2.741   4.913
    4SAPS  H15R  467   2.233   2.658   4.864
    4SAPS  C216  468   2.058   2.796   4.845
    4SAPS  H16R  469   2.070   2.899   4.806
    4SAPS  H16S  470   1.966   2.804   4.907
    4SAPS  C217  471   2.021   2.702   4.730
    4SAPS  H17R  472   1.983   2.604   4.764
    4SAPS  H17S  473   2.106   2.685   4.661
    4SAPS  C218  474   1.907   2.756   4.646
    4SAPS  H18R  475   1.947   2.850   4.602
    4SAPS  H18S  476   1.819   2.778   4.710
    4SAPS  C219  477   1.874   2.664   4.525
    4SAPS  H19R  478   1.964   2.603   4.500
    4SAPS  H19S  479   1.856   2.728   4.436
    4SAPS  C220  480   1.745   2.591   4.563
    4SAPS  H20R  481   1.667   2.664   4.592
    4SAPS  H20S  482   1.760   2.513   4.641
    4SAPS  H20T  483   1.698   2.554   4.469
    4SAPS   C33  484   1.759   2.415   6.022
    4SAPS   H3X  485   1.741   2.309   5.996
    4SAPS   H3Y  486   1.841   2.412   6.097
    4SAPS   C34  487   1.804   2.492   5.896
    4SAPS   H4X  488   1.802   2.601   5.920
    4SAPS   H4Y  489   1.737   2.475   5.809
    4SAPS   C35  490   1.950   2.451   5.849
    4SAPS   H5X  491   2.023   2.481   5.927
    4SAPS   H5Y  492   1.979   2.518   5.765
    4SAPS   C36  493   1.961   2.310   5.786
    4SAPS   H6X  494   1.903   2.300   5.692
    4SAPS   H6Y  495   1.916   2.237   5.857
    4SAPS   C37  496   2.097   2.257   5.735
    4SAPS   H7X  497   2.072   2.161   5.685
    4SAPS   H7Y  498   2.167   2.239   5.820
    4SAPS   C38  499   2.182   2.349   5.637
    4SAPS   H8X  500   2.286   2.311   5.636
    4SAPS   H8Y  501   2.185   2.448   5.688
    4SAPS   C39  502   2.124   2.356   5.495
    4SAPS   H9X  503   2.013   2.366   5.500
    4SAPS   H9Y  504   2.153   2.262   5.443
    4SAPS  C310  505   2.182   2.469   5.406
    4SAPS  H10X  506   2.288   2.494   5.432
    4SAPS  H10Y  507   2.126   2.563   5.424
    4SAPS  C311  508   2.179   2.431   5.251
    4SAPS  H11X  509   2.221   2.329   5.234
    4SAPS  H11Y  510   2.246   2.498   5.194
    4SAPS  C312  511   2.042   2.428   5.187
    4SAPS  H12X  512   1.982   2.517   5.214
    4SAPS  H12Y  513   1.976   2.343   5.215
    4SAPS  C313  514   2.040   2.418   5.031
    4SAPS  H13X  515   2.102   2.497   4.982
    4SAPS  H13Y  516   1.938   2.426   4.988
    4SAPS  C314  517   2.108   2.286   4.990
    4SAPS  H14X  518   2.046   2.200   5.022
    4SAPS  H14Y  519   2.212   2.278   5.029
    4SAPS  C315  520   2.115   2.272   4.834
    4SAPS  H15X  521   2.171   2.356   4.787
    4SAPS  H15Y  522   2.019   2.275   4.780
    4SAPS  C316  523   2.206   2.157   4.785
    4SAPS  H16X  524   2.146   2.065   4.768
    4SAPS  H16Y  525   2.284   2.133   4.862
    4SAPS  C317  526   2.279   2.196   4.647
    4SAPS  H17X  527   2.342   2.112   4.610
    4SAPS  H17Y  528   2.357   2.275   4.655
    4SAPS  C318  529   2.187   2.235   4.541
    4SAPS  H18X  530   2.228   2.212   4.440
    4SAPS  H18Y  531   2.163   2.342   4.554
    4SAPS  H18Z  532   2.094   2.174   4.545
    5SAPS     N  533   5.860   4.877   6.860
    5SAPS   HN1  534   5.869   4.835   6.955
    5SAPS   HN2  535   5.923   4.820   6.799
    5SAPS   HN3  536   5.893   4.975   6.856
    5SAPS   C12  537   5.718   4.871   6.816
    5SAPS  H12A  538   5.674   4.796   6.879
    5SAPS   C13  539   5.635   4.996   6.860
    5SAPS  O13A  540   5.700   5.096   6.901
    5SAPS  O13B  541   5.512   4.996   6.856
    5SAPS   C11  542   5.706   4.853   6.662
    5SAPS  H11A  543   5.760   4.932   6.605
    5SAPS  H11B  544   5.598   4.873   6.645
    5SAPS     P  545   5.646   4.611   6.582
    5SAPS   O13  546   5.724   4.490   6.559
    5SAPS   O14  547   5.537   4.597   6.681
    5SAPS   O12  548   5.747   4.723   6.626
    5SAPS   O11  549   5.599   4.673   6.446
    5SAPS    C1  550   5.505   4.602   6.363
    5SAPS    HA  551   5.470   4.510   6.414
    5SAPS    HB  552   5.409   4.657   6.351
    5SAPS    C2  553   5.565   4.572   6.227
    5SAPS    HS  554   5.661   4.518   6.243
    5SAPS   O21  555   5.573   4.694   6.157
    5SAPS   C21  556   5.688   4.702   6.081
    5SAPS   O22  557   5.787   4.629   6.071
    5SAPS   C22  558   5.661   4.818   5.985
    5SAPS   H2R  559   5.565   4.804   5.931
    5SAPS   H2S  560   5.648   4.912   6.043
    5SAPS    C3  561   5.479   4.469   6.153
    5SAPS    HX  562   5.376   4.511   6.145
    5SAPS    HY  563   5.466   4.375   6.212
    5SAPS   O31  564   5.529   4.444   6.021
    5SAPS   C31  565   5.609   4.338   6.000
    5SAPS   O32  566   5.632   4.249   6.082
    5SAPS   C32  567   5.694   4.343   5.871
    5SAPS   H2X  568   5.685   4.444   5.827
    5SAPS   H2Y  569   5.644   4.273   5.801
    5SAPS   C23  570   5.775   4.834   5.881
    5SAPS   H3R  571   5.796   4.730   5.850
    5SAPS   H3S  572   5.867   4.869   5.933
    5SAPS   C24  573   5.740   4.925   5.765
    5SAPS   H4R  574   5.727   5.030   5.800
    5SAPS   H4S  575   5.636   4.904   5.734
    5SAPS   C25  576   5.857   4.915   5.665
    5SAPS   H5R  577   5.953   4.953   5.702
    5SAPS   C26  578   5.863   4.851   5.546
    5SAPS   H6R  579   5.954   4.848   5.483
    5SAPS   C27  580   5.744   4.784   5.487
    5SAPS   H7R  581   5.680   4.858   5.434
    5SAPS   H7S  582   5.678   4.740   5.565
    5SAPS   C28  583   5.777   4.669   5.399
    5SAPS   H8R  584   5.825   4.587   5.456
    5SAPS   C29  585   5.753   4.655   5.265
    5SAPS   H9R  586   5.807   4.570   5.222
    5SAPS  C210  587   5.679   4.742   5.168
    5SAPS  H10R  588   5.713   4.732   5.063
    5SAPS  H10S  589   5.702   4.850   5.182
    5SAPS  C211  590   5.528   4.721   5.170
    5SAPS  H11R  591   5.494   4.705   5.273
    5SAPS  C212  592   5.440   4.722   5.070
    5SAPS  H12R  593   5.333   4.700   5.084
    5SAPS  C213  594   5.480   4.769   4.933
    5SAPS  H13R  595   5.400   4.746   4.859
    5SAPS  H13S  596   5.569   4.715   4.893
    5SAPS  C214  597   5.506   4.921   4.917
    5SAPS  H14R  598   5.478   4.983   5.003
    5SAPS  C215  599   5.536   4.982   4.807
    5SAPS  H15R  600   5.554   5.091   4.809
    5SAPS  C216  601   5.557   4.925   4.668
    5SAPS  H16R  602   5.510   4.996   4.597
    5SAPS  H16S  603   5.502   4.829   4.658
    5SAPS  C217  604   5.701   4.899   4.616
    5SAPS  H17R  605   5.741   4.818   4.679
    5SAPS  H17S  606   5.766   4.987   4.636
    5SAPS  C218  607   5.708   4.862   4.464
    5SAPS  H18R  608   5.684   4.942   4.390
    5SAPS  H18S  609   5.636   4.780   4.444
    5SAPS  C219  610   5.845   4.808   4.423
    5SAPS  H19R  611   5.835   4.748   4.330
    5SAPS  H19S  612   5.869   4.743   4.510
    5SAPS  C220  613   5.959   4.917   4.389
    5SAPS  H20R  614   5.931   4.988   4.309
    5SAPS  H20S  615   6.056   4.887   4.343
    5SAPS  H20T  616   5.988   4.979   4.477
    5SAPS   C33  617   5.838   4.307   5.886
    5SAPS   H3X  618   5.846   4.207   5.934
    5SAPS   H3Y  619   5.874   4.384   5.958
    5SAPS   C34  620   5.919   4.322   5.759
    5SAPS   H4X  621   6.019   4.273   5.763
    5SAPS   H4Y  622   5.938   4.430   5.742
    5SAPS   C35  623   5.843   4.272   5.628
    5SAPS   H5X  624   5.750   4.333   5.625
    5SAPS   H5Y  625   5.808   4.167   5.635
    5SAPS   C36  626   5.928   4.286   5.507
    5SAPS   H6X  627   6.021   4.227   5.520
    5SAPS   H6Y  628   5.966   4.390   5.498
    5SAPS   C37  629   5.863   4.249   5.370
    5SAPS   H7X  630   5.763   4.294   5.351
    5SAPS   H7Y  631   5.843   4.140   5.361
    5SAPS   C38  632   5.948   4.294   5.251
    5SAPS   H8X  633   6.053   4.259   5.261
    5SAPS   H8Y  634   5.967   4.403   5.255
    5SAPS   C39  635   5.877   4.263   5.121
    5SAPS   H9X  636   5.772   4.295   5.135
    5SAPS   H9Y  637   5.877   4.154   5.097
    5SAPS  C310  638   5.938   4.354   5.009
    5SAPS  H10X  639   6.044   4.323   4.999
    5SAPS  H10Y  640   5.935   4.461   5.039
    5SAPS  C311  641   5.860   4.343   4.878
    5SAPS  H11X  642   5.889   4.244   4.838
    5SAPS  H11Y  643   5.901   4.422   4.812
    5SAPS  C312  644   5.713   4.368   4.887
    5SAPS  H12X  645   5.693   4.474   4.916
    5SAPS  H12Y  646   5.669   4.302   4.964
    5SAPS  C313  647   5.642   4.356   4.750
    5SAPS  H13X  648   5.539   4.392   4.766
    5SAPS  H13Y  649   5.627   4.248   4.730
    5SAPS  C314  650   5.688   4.426   4.623
    5SAPS  H14X  651   5.786   4.377   4.603
    5SAPS  H14Y  652   5.712   4.530   4.652
    5SAPS  C315  653   5.587   4.411   4.512
    5SAPS  H15X  654   5.501   4.478   4.532
    5SAPS  H15Y  655   5.545   4.308   4.514
    5SAPS  C316  656   5.655   4.444   4.382
    5SAPS  H16X  657   5.725   4.358   4.379
    5SAPS  H16Y  658   5.713   4.538   4.373
    5SAPS  C317  659   5.558   4.441   4.261
    5SAPS  H17X  660   5.513   4.340   4.246
    5SAPS  H17Y  661   5.627   4.446   4.174
    5SAPS  C318  662   5.460   4.556   4.263
    5SAPS  H18X  663   5.402   4.551   4.168
    5SAPS  H18Y  664   5.520   4.650   4.268
    5SAPS  H18Z  665   5.384   4.545   4.343
    6SAPS     N  666   3.041   4.169   6.716
    6SAPS   HN1  667   2.956   4.120   6.682
    6SAPS   HN2  668   3.068   4.143   6.814
    6SAPS   HN3  669   3.011   4.267   6.728
    6SAPS   C12  670   3.167   4.175   6.626
    6SAPS  H12A  671   3.234   4.250   6.666
    6SAPS   C13  672   3.240   4.040   6.603
    6SAPS  O13A  673   3.203   3.929   6.652
    6SAPS  O13B  674   3.350   4.045   6.542
    6SAPS   C11  675   3.111   4.223   6.486
    6SAPS  H11A  676   3.030   4.150   6.467
    6SAPS  H11B  677   3.189   4.208   6.408
    6SAPS     P  678   2.975   4.423   6.398
    6SAPS   O13  679   2.851   4.348   6.386
    6SAPS   O14  680   2.963   4.567   6.438
    6SAPS   O12  681   3.066   4.355   6.505
    6SAPS   O11  682   3.055   4.422   6.265
    6SAPS    C1  683   3.193   4.457   6.248
    6SAPS    HA  684   3.212   4.556   6.295
    6SAPS    HB  685   3.265   4.379   6.281
    6SAPS    C2  686   3.208   4.477   6.098
    6SAPS    HS  687   3.296   4.539   6.071
    6SAPS   O21  688   3.084   4.531   6.046
    6SAPS   C21  689   3.060   4.656   6.090
    6SAPS   O22  690   3.135   4.724   6.154
    6SAPS   C22  691   2.922   4.700   6.029
    6SAPS   H2R  692   2.879   4.625   5.959
    6SAPS   H2S  693   2.854   4.698   6.117
    6SAPS    C3  694   3.239   4.339   6.028
    6SAPS    HX  695   3.165   4.271   6.076
    6SAPS    HY  696   3.339   4.303   6.062
    6SAPS   O31  697   3.235   4.347   5.884
    6SAPS   C31  698   3.281   4.232   5.832
    6SAPS   O32  699   3.299   4.129   5.893
    6SAPS   C32  700   3.305   4.254   5.682
    6SAPS   H2X  701   3.408   4.220   5.662
    6SAPS   H2Y  702   3.286   4.362   5.660
    6SAPS   C23  703   2.929   4.843   5.978
    6SAPS   H3R  704   2.967   4.924   6.045
    6SAPS   H3S  705   2.826   4.878   5.958
    6SAPS   C24  706   2.993   4.843   5.839
    6SAPS   H4R  707   2.930   4.782   5.770
    6SAPS   H4S  708   3.092   4.791   5.841
    6SAPS   C25  709   3.010   4.981   5.784
    6SAPS   H5R  710   3.049   5.050   5.860
    6SAPS   C26  711   2.970   5.033   5.664
    6SAPS   H6R  712   3.009   5.130   5.630
    6SAPS   C27  713   2.893   4.969   5.553
    6SAPS   H7R  714   2.813   5.032   5.508
    6SAPS   H7S  715   2.828   4.889   5.595
    6SAPS   C28  716   2.982   4.907   5.444
    6SAPS   H8R  717   3.085   4.876   5.469
    6SAPS   C29  718   2.936   4.884   5.318
    6SAPS   H9R  719   2.994   4.825   5.245
    6SAPS  C210  720   2.798   4.917   5.266
    6SAPS  H10R  721   2.731   4.976   5.331
    6SAPS  H10S  722   2.740   4.823   5.250
    6SAPS  C211  723   2.799   4.997   5.137
    6SAPS  H11R  724   2.757   4.940   5.053
    6SAPS  C212  725   2.842   5.121   5.111
    6SAPS  H12R  726   2.867   5.152   5.009
    6SAPS  C213  727   2.896   5.216   5.218
    6SAPS  H13R  728   2.955   5.159   5.293
    6SAPS  H13S  729   2.815   5.257   5.281
    6SAPS  C214  730   2.970   5.345   5.171
    6SAPS  H14R  731   2.978   5.358   5.063
    6SAPS  C215  732   3.038   5.439   5.245
    6SAPS  H15R  733   3.082   5.530   5.201
    6SAPS  C216  734   3.039   5.432   5.398
    6SAPS  H16R  735   3.112   5.356   5.433
    6SAPS  H16S  736   2.943   5.390   5.435
    6SAPS  C217  737   3.044   5.563   5.481
    6SAPS  H17R  738   2.972   5.628   5.426
    6SAPS  H17S  739   3.138   5.621   5.474
    6SAPS  C218  740   3.013   5.543   5.631
    6SAPS  H18R  741   2.906   5.519   5.650
    6SAPS  H18S  742   3.033   5.641   5.680
    6SAPS  C219  743   3.112   5.454   5.703
    6SAPS  H19R  744   3.219   5.472   5.679
    6SAPS  H19S  745   3.092   5.347   5.686
    6SAPS  C220  746   3.094   5.484   5.851
    6SAPS  H20R  747   3.118   5.591   5.869
    6SAPS  H20S  748   3.169   5.429   5.913
    6SAPS  H20T  749   2.990   5.466   5.884
    6SAPS   C33  750   3.228   4.172   5.578
    6SAPS   H3X  751   3.119   4.181   5.600
    6SAPS   H3Y  752   3.255   4.065   5.587
    6SAPS   C34  753   3.274   4.215   5.444
    6SAPS   H4X  754   3.385   4.208   5.442
    6SAPS   H4Y  755   3.252   4.322   5.424
    6SAPS   C35  756   3.225   4.113   5.340
    6SAPS   H5X  757   3.116   4.095   5.357
    6SAPS   H5Y  758   3.278   4.017   5.356
    6SAPS   C36  759   3.256   4.149   5.197
    6SAPS   H6X  760   3.360   4.180   5.172
    6SAPS   H6Y  761   3.198   4.242   5.181
    6SAPS   C37  762   3.199   4.047   5.097
    6SAPS   H7X  763   3.095   4.022   5.125
    6SAPS   H7Y  764   3.260   3.953   5.094
    6SAPS   C38  765   3.169   4.098   4.947
    6SAPS   H8X  766   3.079   4.163   4.943
    6SAPS   H8Y  767   3.150   4.009   4.883
    6SAPS   C39  768   3.284   4.179   4.891
    6SAPS   H9X  769   3.294   4.277   4.942
    6SAPS   H9Y  770   3.251   4.209   4.789
    6SAPS  C310  771   3.411   4.101   4.865
    6SAPS  H10X  772   3.425   4.044   4.959
    6SAPS  H10Y  773   3.501   4.166   4.858
    6SAPS  C311  774   3.406   3.996   4.760
    6SAPS  H11X  775   3.316   3.936   4.784
    6SAPS  H11Y  776   3.492   3.928   4.777
    6SAPS  C312  777   3.408   4.056   4.625
    6SAPS  H12X  778   3.493   4.124   4.605
    6SAPS  H12Y  779   3.323   4.123   4.600
    6SAPS  C313  780   3.431   3.950   4.515
    6SAPS  H13X  781   3.519   3.885   4.533
    6SAPS  H13Y  782   3.461   4.006   4.424
    6SAPS  C314  783   3.308   3.867   4.473
    6SAPS  H14X  784   3.227   3.940   4.454
    6SAPS  H14Y  785   3.278   3.793   4.550
    6SAPS  C315  786   3.331   3.787   4.347
    6SAPS  H15X  787   3.390   3.696   4.372
    6SAPS  H15Y  788   3.387   3.856   4.280
    6SAPS  C316  789   3.198   3.730   4.286
    6SAPS  H16X  790   3.129   3.815   4.271
    6SAPS  H16Y  791   3.147   3.666   4.362
    6SAPS  C317  792   3.226   3.634   4.165
    6SAPS  H17X  793   3.127   3.610   4.120
    6SAPS  H17Y  794   3.270   3.536   4.193
    6SAPS  C318  795   3.301   3.704   4.054
    6SAPS  H18X  796   3.394   3.751   4.093
    6SAPS  H18Y  797   3.244   3.791   4.013
    6SAPS  H18Z  798   3.337   3.638   3.972
    7SAPS     N  799   2.622   1.125   6.492
    7SAPS   HN1  800   2.580   1.220   6.501
    7SAPS   HN2  801   2.709   1.129   6.436
    7SAPS   HN3  802   2.564   1.058   6.438
    7SAPS   C12  803   2.653   1.086   6.635
    7SAPS  H12A  804   2.735   1.152   6.658
    7SAPS   C13  805   2.547   1.097   6.738
    7SAPS  O13A  806   2.437   1.143   6.707
    7SAPS  O13B  807   2.584   1.081   6.857
    7SAPS   C11  808   2.703   0.939   6.638
    7SAPS  H11A  809   2.617   0.869   6.628
    7SAPS  H11B  810   2.748   0.923   6.738
    7SAPS     P  811   2.886   0.793   6.538
    7SAPS   O13  812   3.020   0.846   6.575
    7SAPS   O14  813   2.836   0.688   6.628
    7SAPS   O12  814   2.792   0.918   6.529
    7SAPS   O11  815   2.903   0.740   6.391
    7SAPS    C1  816   2.847   0.800   6.272
    7SAPS    HA  817   2.787   0.891   6.293
    7SAPS    HB  818   2.935   0.820   6.208
    7SAPS    C2  819   2.754   0.691   6.214
    7SAPS    HS  820   2.675   0.674   6.291
    7SAPS   O21  821   2.835   0.581   6.173
    7SAPS   C21  822   2.766   0.473   6.153
    7SAPS   O22  823   2.645   0.459   6.168
    7SAPS   C22  824   2.860   0.359   6.105
    7SAPS   H2R  825   2.931   0.412   6.037
    7SAPS   H2S  826   2.909   0.308   6.191
    7SAPS    C3  827   2.673   0.745   6.094
    7SAPS    HX  828   2.597   0.813   6.137
    7SAPS    HY  829   2.619   0.659   6.049
    7SAPS   O31  830   2.760   0.817   5.998
    7SAPS   C31  831   2.780   0.742   5.883
    7SAPS   O32  832   2.759   0.622   5.884
    7SAPS   C32  833   2.831   0.827   5.776
    7SAPS   H2X  834   2.894   0.906   5.821
    7SAPS   H2Y  835   2.752   0.882   5.720
    7SAPS   C23  836   2.782   0.260   6.016
    7SAPS   H3R  837   2.715   0.315   5.946
    7SAPS   H3S  838   2.701   0.205   6.069
    7SAPS   C24  839   2.870   0.163   5.939
    7SAPS   H4R  840   2.797   0.090   5.898
    7SAPS   H4S  841   2.932   0.098   6.003
    7SAPS   C25  842   2.958   0.254   5.837
    7SAPS   H5R  843   2.908   0.350   5.819
    7SAPS   C26  844   3.069   0.222   5.766
    7SAPS   H6R  845   3.116   0.305   5.710
    7SAPS   C27  846   3.144   0.091   5.775
    7SAPS   H7R  847   3.091   0.022   5.844
    7SAPS   H7S  848   3.240   0.114   5.825
    7SAPS   C28  849   3.172   0.014   5.645
    7SAPS   H8R  850   3.110   6.805   5.631
    7SAPS   C29  851   3.270   0.047   5.559
    7SAPS   H9R  852   3.281   6.860   5.471
    7SAPS  C210  853   3.362   0.168   5.572
    7SAPS  H10R  854   3.455   0.135   5.623
    7SAPS  H10S  855   3.306   0.240   5.636
    7SAPS  C211  856   3.409   0.220   5.442
    7SAPS  H11R  857   3.508   0.182   5.410
    7SAPS  C212  858   3.333   0.293   5.359
    7SAPS  H12R  859   3.373   0.324   5.262
    7SAPS  C213  860   3.196   0.348   5.391
    7SAPS  H13R  861   3.136   0.275   5.449
    7SAPS  H13S  862   3.141   0.373   5.297
    7SAPS  C214  863   3.223   0.475   5.468
    7SAPS  H14R  864   3.249   0.460   5.574
    7SAPS  C215  865   3.230   0.601   5.418
    7SAPS  H15R  866   3.272   0.682   5.480
    7SAPS  C216  867   3.202   0.639   5.273
    7SAPS  H16R  868   3.176   0.746   5.256
    7SAPS  H16S  869   3.112   0.585   5.237
    7SAPS  C217  870   3.319   0.611   5.171
    7SAPS  H17R  871   3.362   0.509   5.172
    7SAPS  H17S  872   3.406   0.662   5.216
    7SAPS  C218  873   3.281   0.660   5.032
    7SAPS  H18R  874   3.374   0.646   4.973
    7SAPS  H18S  875   3.269   0.770   5.038
    7SAPS  C219  876   3.163   0.594   4.961
    7SAPS  H19R  877   3.139   0.662   4.877
    7SAPS  H19S  878   3.070   0.591   5.022
    7SAPS  C220  879   3.194   0.445   4.925
    7SAPS  H20R  880   3.113   0.397   4.866
    7SAPS  H20S  881   3.231   0.393   5.016
    7SAPS  H20T  882   3.280   0.443   4.855
    7SAPS   C33  883   2.935   0.755   5.677
    7SAPS   H3X  884   3.002   0.682   5.726
    7SAPS   H3Y  885   3.000   0.835   5.636
    7SAPS   C34  886   2.869   0.686   5.554
    7SAPS   H4X  887   2.952   0.630   5.504
    7SAPS   H4Y  888   2.840   0.767   5.484
    7SAPS   C35  889   2.745   0.592   5.566
    7SAPS   H5X  890   2.657   0.650   5.603
    7SAPS   H5Y  891   2.772   0.516   5.643
    7SAPS   C36  892   2.711   0.524   5.438
    7SAPS   H6X  893   2.704   0.585   5.346
    7SAPS   H6Y  894   2.617   0.467   5.455
    7SAPS   C37  895   2.812   0.419   5.390
    7SAPS   H7X  896   2.807   0.335   5.463
    7SAPS   H7Y  897   2.914   0.459   5.375
    7SAPS   C38  898   2.790   0.350   5.255
    7SAPS   H8X  899   2.680   0.345   5.239
    7SAPS   H8Y  900   2.822   0.244   5.257
    7SAPS   C39  901   2.868   0.409   5.139
    7SAPS   H9X  902   2.961   0.351   5.120
    7SAPS   H9Y  903   2.898   0.513   5.161
    7SAPS  C310  904   2.799   0.416   5.007
    7SAPS  H10X  905   2.859   0.480   4.939
    7SAPS  H10Y  906   2.701   0.468   5.004
    7SAPS  C311  907   2.783   0.279   4.937
    7SAPS  H11X  908   2.701   0.220   4.982
    7SAPS  H11Y  909   2.874   0.216   4.945
    7SAPS  C312  910   2.755   0.298   4.788
    7SAPS  H12X  911   2.690   0.388   4.780
    7SAPS  H12Y  912   2.698   0.209   4.753
    7SAPS  C313  913   2.878   0.321   4.700
    7SAPS  H13X  914   2.940   0.229   4.696
    7SAPS  H13Y  915   2.945   0.398   4.744
    7SAPS  C314  916   2.835   0.362   4.557
    7SAPS  H14X  917   2.761   0.445   4.557
    7SAPS  H14Y  918   2.778   0.283   4.504
    7SAPS  C315  919   2.947   0.415   4.472
    7SAPS  H15X  920   2.917   0.432   4.366
    7SAPS  H15Y  921   3.033   0.345   4.467
    7SAPS  C316  922   2.983   0.559   4.512
    7SAPS  H16X  923   2.972   0.571   4.622
    7SAPS  H16Y  924   2.909   0.630   4.468
    7SAPS  C317  925   3.132   0.598   4.488
    7SAPS  H17X  926   3.147   0.596   4.378
    7SAPS  H17Y  927   3.210   0.542   4.545
    7SAPS  C318  928   3.163   0.739   4.540
    7SAPS  H18X  929   3.162   0.765   4.648
    7SAPS  H18Y  930   3.099   0.816   4.493
    7SAPS  H18Z  931   3.268   0.771   4.527
    8SAPS     N  932   1.826   1.746   6.606
    8SAPS   HN1  933   1.791   1.664   6.552
    8SAPS   HN2  934   1.746   1.813   6.613
    8SAPS   HN3  935   1.884   1.797   6.536
    8SAPS   C12  936   1.898   1.711   6.732
    8SAPS  H12A  937   1.937   1.801   6.778
    8SAPS   C13  938   1.809   1.643   6.837
    8SAPS  O13A  939   1.684   1.632   6.825
    8SAPS  O13B  940   1.859   1.612   6.948
    8SAPS   C11  941   2.003   1.610   6.694
    8SAPS  H11A  942   1.953   1.524   6.645
    8SAPS  H11B  943   2.048   1.572   6.787
    8SAPS     P  944   2.248   1.706   6.646
    8SAPS   O13  945   2.243   1.824   6.734
    8SAPS   O14  946   2.307   1.579   6.700
    8SAPS   O12  947   2.102   1.670   6.599
    8SAPS   O11  948   2.322   1.750   6.517
    8SAPS    C1  949   2.465   1.788   6.524
    8SAPS    HA  950   2.461   1.898   6.542
    8SAPS    HB  951   2.528   1.734   6.597
    8SAPS    C2  952   2.534   1.763   6.383
    8SAPS    HS  953   2.460   1.805   6.311
    8SAPS   O21  954   2.554   1.621   6.367
    8SAPS   C21  955   2.563   1.585   6.232
    8SAPS   O22  956   2.521   1.662   6.142
    8SAPS   C22  957   2.602   1.434   6.216
    8SAPS   H2R  958   2.697   1.421   6.273
    8SAPS   H2S  959   2.526   1.377   6.273
    8SAPS    C3  960   2.664   1.843   6.376
    8SAPS    HX  961   2.738   1.815   6.454
    8SAPS    HY  962   2.635   1.945   6.409
    8SAPS   O31  963   2.726   1.846   6.244
    8SAPS   C31  964   2.732   1.962   6.183
    8SAPS   O32  965   2.695   2.066   6.235
    8SAPS   C32  966   2.781   1.952   6.038
    8SAPS   H2X  967   2.712   1.879   5.991
    8SAPS   H2Y  968   2.888   1.921   6.031
    8SAPS   C23  969   2.621   1.386   6.067
    8SAPS   H3R  970   2.687   1.455   6.010
    8SAPS   H3S  971   2.523   1.389   6.014
    8SAPS   C24  972   2.680   1.245   6.056
    8SAPS   H4R  973   2.614   1.183   6.122
    8SAPS   H4S  974   2.784   1.241   6.096
    8SAPS   C25  975   2.650   1.195   5.917
    8SAPS   H5R  976   2.555   1.142   5.898
    8SAPS   C26  977   2.717   1.224   5.801
    8SAPS   H6R  978   2.677   1.184   5.707
    8SAPS   C27  979   2.845   1.305   5.790
    8SAPS   H7R  980   2.919   1.235   5.744
    8SAPS   H7S  981   2.882   1.346   5.886
    8SAPS   C28  982   2.816   1.426   5.703
    8SAPS   H8R  983   2.727   1.479   5.739
    8SAPS   C29  984   2.870   1.473   5.588
    8SAPS   H9R  985   2.839   1.570   5.548
    8SAPS  C210  986   2.988   1.417   5.504
    8SAPS  H10R  987   3.025   1.330   5.563
    8SAPS  H10S  988   3.076   1.484   5.512
    8SAPS  C211  989   2.955   1.377   5.366
    8SAPS  H11R  990   3.000   1.437   5.285
    8SAPS  C212  991   2.900   1.262   5.330
    8SAPS  H12R  992   2.903   1.230   5.224
    8SAPS  C213  993   2.846   1.147   5.421
    8SAPS  H13R  994   2.743   1.115   5.394
    8SAPS  H13S  995   2.847   1.180   5.527
    8SAPS  C214  996   2.936   1.019   5.415
    8SAPS  H14R  997   3.013   1.014   5.492
    8SAPS  C215  998   2.928   0.924   5.317
    8SAPS  H15R  999   2.989   0.833   5.330
    8SAPS  C216 1000   2.817   0.914   5.216
    8SAPS  H16R 1001   2.778   1.016   5.197
    8SAPS  H16S 1002   2.743   0.840   5.252
    8SAPS  C217 1003   2.880   0.850   5.089
    8SAPS  H17R 1004   2.887   0.742   5.110
    8SAPS  H17S 1005   2.978   0.897   5.064
    8SAPS  C218 1006   2.793   0.869   4.966
    8SAPS  H18R 1007   2.744   0.966   4.943
    8SAPS  H18S 1008   2.709   0.796   4.974
    8SAPS  C219 1009   2.868   0.817   4.843
    8SAPS  H19R 1010   2.899   0.714   4.867
    8SAPS  H19S 1011   2.957   0.882   4.831
    8SAPS  C220 1012   2.796   0.823   4.707
    8SAPS  H20R 1013   2.859   0.780   4.626
    8SAPS  H20S 1014   2.774   0.929   4.680
    8SAPS  H20T 1015   2.698   0.772   4.706
    8SAPS   C33 1016   2.757   2.087   5.965
    8SAPS   H3X 1017   2.798   2.179   6.013
    8SAPS   H3Y 1018   2.648   2.104   5.953
    8SAPS   C34 1019   2.835   2.101   5.834
    8SAPS   H4X 1020   2.945   2.086   5.843
    8SAPS   H4Y 1021   2.802   2.198   5.792
    8SAPS   C35 1022   2.784   1.998   5.737
    8SAPS   H5X 1023   2.673   2.004   5.738
    8SAPS   H5Y 1024   2.812   1.895   5.769
    8SAPS   C36 1025   2.831   2.001   5.586
    8SAPS   H6X 1026   2.941   2.007   5.573
    8SAPS   H6Y 1027   2.797   2.093   5.534
    8SAPS   C37 1028   2.773   1.891   5.496
    8SAPS   H7X 1029   2.674   1.864   5.539
    8SAPS   H7Y 1030   2.834   1.799   5.507
    8SAPS   C38 1031   2.765   1.929   5.343
    8SAPS   H8X 1032   2.855   1.985   5.311
    8SAPS   H8Y 1033   2.681   2.000   5.326
    8SAPS   C39 1034   2.743   1.801   5.254
    8SAPS   H9X 1035   2.650   1.754   5.292
    8SAPS   H9Y 1036   2.836   1.744   5.273
    8SAPS  C310 1037   2.714   1.837   5.103
    8SAPS  H10X 1038   2.807   1.885   5.066
    8SAPS  H10Y 1039   2.634   1.914   5.096
    8SAPS  C311 1040   2.690   1.717   5.018
    8SAPS  H11X 1041   2.587   1.676   5.028
    8SAPS  H11Y 1042   2.754   1.633   5.052
    8SAPS  C312 1043   2.707   1.741   4.868
    8SAPS  H12X 1044   2.791   1.807   4.837
    8SAPS  H12Y 1045   2.617   1.803   4.847
    8SAPS  C313 1046   2.708   1.620   4.772
    8SAPS  H13X 1047   2.622   1.553   4.796
    8SAPS  H13Y 1048   2.798   1.564   4.805
    8SAPS  C314 1049   2.710   1.653   4.632
    8SAPS  H14X 1050   2.800   1.707   4.594
    8SAPS  H14Y 1051   2.620   1.716   4.615
    8SAPS  C315 1052   2.695   1.530   4.541
    8SAPS  H15X 1053   2.604   1.477   4.577
    8SAPS  H15Y 1054   2.775   1.455   4.558
    8SAPS  C316 1055   2.667   1.567   4.396
    8SAPS  H16X 1056   2.757   1.611   4.347
    8SAPS  H16Y 1057   2.593   1.649   4.403
    8SAPS  C317 1058   2.605   1.454   4.311
    8SAPS  H17X 1059   2.592   1.482   4.204
    8SAPS  H17Y 1060   2.502   1.430   4.345
    8SAPS  C318 1061   2.693   1.323   4.297
    8SAPS  H18X 1062   2.631   1.242   4.252
    8SAPS  H18Y 1063   2.709   1.279   4.398
    8SAPS  H18Z 1064   2.787   1.336   4.241
    9SAPS     N 1065   1.822   5.035   6.884
    9SAPS   HN1 1066   1.800   4.970   6.805
    9SAPS   HN2 1067   1.901   5.087   6.841
    9SAPS   HN3 1068   1.860   4.974   6.959
    9SAPS   C12 1069   1.705   5.111   6.931
    9SAPS  H12A 1070   1.623   5.042   6.938
    9SAPS   C13 1071   1.726   5.189   7.068
    9SAPS  O13A 1072   1.825   5.159   7.140
    9SAPS  O13B 1073   1.631   5.259   7.112
    9SAPS   C11 1074   1.647   5.201   6.816
    9SAPS  H11A 1075   1.733   5.254   6.770
    9SAPS  H11B 1076   1.559   5.262   6.846
    9SAPS     P 1077   1.537   5.175   6.588
    9SAPS   O13 1078   1.450   5.292   6.616
    9SAPS   O14 1079   1.643   5.202   6.496
    9SAPS   O12 1080   1.597   5.113   6.716
    9SAPS   O11 1081   1.449   5.047   6.554
    9SAPS    C1 1082   1.505   4.917   6.538
    9SAPS    HA 1083   1.558   4.887   6.631
    9SAPS    HB 1084   1.422   4.844   6.536
    9SAPS    C2 1085   1.596   4.900   6.412
    9SAPS    HS 1086   1.690   4.958   6.425
    9SAPS   O21 1087   1.523   4.942   6.292
    9SAPS   C21 1088   1.599   5.003   6.201
    9SAPS   O22 1089   1.723   4.999   6.202
    9SAPS   C22 1090   1.512   5.064   6.087
    9SAPS   H2R 1091   1.488   4.973   6.028
    9SAPS   H2S 1092   1.417   5.098   6.132
    9SAPS    C3 1093   1.638   4.757   6.386
    9SAPS    HX 1094   1.547   4.694   6.389
    9SAPS    HY 1095   1.704   4.725   6.470
    9SAPS   O31 1096   1.699   4.727   6.259
    9SAPS   C31 1097   1.827   4.751   6.242
    9SAPS   O32 1098   1.898   4.790   6.334
    9SAPS   C32 1099   1.873   4.704   6.099
    9SAPS   H2X 1100   1.784   4.689   6.034
    9SAPS   H2Y 1101   1.918   4.603   6.111
    9SAPS   C23 1102   1.575   5.176   5.999
    9SAPS   H3R 1103   1.650   5.230   6.061
    9SAPS   H3S 1104   1.504   5.258   5.974
    9SAPS   C24 1105   1.640   5.132   5.872
    9SAPS   H4R 1106   1.559   5.108   5.799
    9SAPS   H4S 1107   1.689   5.034   5.889
    9SAPS   C25 1108   1.735   5.240   5.824
    9SAPS   H5R 1109   1.839   5.246   5.859
    9SAPS   C26 1110   1.712   5.336   5.733
    9SAPS   H6R 1111   1.797   5.403   5.713
    9SAPS   C27 1112   1.604   5.356   5.628
    9SAPS   H7R 1113   1.604   5.458   5.586
    9SAPS   H7S 1114   1.507   5.348   5.681
    9SAPS   C28 1115   1.619   5.255   5.512
    9SAPS   H8R 1116   1.679   5.165   5.535
    9SAPS   C29 1117   1.580   5.280   5.385
    9SAPS   H9R 1118   1.605   5.202   5.311
    9SAPS  C210 1119   1.515   5.400   5.320
    9SAPS  H10R 1120   1.595   5.471   5.288
    9SAPS  H10S 1121   1.443   5.458   5.382
    9SAPS  C211 1122   1.430   5.366   5.204
    9SAPS  H11R 1123   1.337   5.309   5.218
    9SAPS  C212 1124   1.470   5.380   5.077
    9SAPS  H12R 1125   1.399   5.348   5.000
    9SAPS  C213 1126   1.600   5.434   5.026
    9SAPS  H13R 1127   1.684   5.436   5.099
    9SAPS  H13S 1128   1.595   5.537   4.986
    9SAPS  C214 1129   1.663   5.373   4.901
    9SAPS  H14R 1130   1.742   5.299   4.922
    9SAPS  C215 1131   1.604   5.363   4.781
    9SAPS  H15R 1132   1.644   5.301   4.699
    9SAPS  C216 1133   1.479   5.425   4.737
    9SAPS  H16R 1134   1.488   5.528   4.777
    9SAPS  H16S 1135   1.388   5.382   4.784
    9SAPS  C217 1136   1.463   5.431   4.584
    9SAPS  H17R 1137   1.365   5.481   4.572
    9SAPS  H17S 1138   1.456   5.331   4.538
    9SAPS  C218 1139   1.567   5.513   4.513
    9SAPS  H18R 1140   1.675   5.486   4.521
    9SAPS  H18S 1141   1.552   5.613   4.559
    9SAPS  C219 1142   1.555   5.519   4.359
    9SAPS  H19R 1143   1.458   5.571   4.344
    9SAPS  H19S 1144   1.536   5.416   4.324
    9SAPS  C220 1145   1.671   5.590   4.286
    9SAPS  H20R 1146   1.652   5.598   4.176
    9SAPS  H20S 1147   1.758   5.523   4.300
    9SAPS  H20T 1148   1.687   5.691   4.330
    9SAPS   C33 1149   1.963   4.817   6.052
    9SAPS   H3X 1150   2.042   4.840   6.127
    9SAPS   H3Y 1151   1.893   4.901   6.038
    9SAPS   C34 1152   2.029   4.808   5.910
    9SAPS   H4X 1153   2.074   4.708   5.897
    9SAPS   H4Y 1154   2.114   4.880   5.905
    9SAPS   C35 1155   1.938   4.820   5.784
    9SAPS   H5X 1156   1.866   4.905   5.779
    9SAPS   H5Y 1157   1.873   4.731   5.791
    9SAPS   C36 1158   2.021   4.799   5.658
    9SAPS   H6X 1159   2.070   4.700   5.658
    9SAPS   H6Y 1160   2.109   4.866   5.663
    9SAPS   C37 1161   1.931   4.814   5.530
    9SAPS   H7X 1162   1.882   4.914   5.521
    9SAPS   H7Y 1163   1.851   4.738   5.536
    9SAPS   C38 1164   2.012   4.796   5.398
    9SAPS   H8X 1165   2.059   4.695   5.401
    9SAPS   H8Y 1166   2.086   4.878   5.391
    9SAPS   C39 1167   1.923   4.800   5.275
    9SAPS   H9X 1168   1.994   4.792   5.190
    9SAPS   H9Y 1169   1.878   4.902   5.266
    9SAPS  C310 1170   1.812   4.697   5.275
    9SAPS  H10X 1171   1.739   4.713   5.357
    9SAPS  H10Y 1172   1.845   4.596   5.305
    9SAPS  C311 1173   1.744   4.684   5.142
    9SAPS  H11X 1174   1.666   4.606   5.142
    9SAPS  H11Y 1175   1.828   4.643   5.081
    9SAPS  C312 1176   1.693   4.809   5.078
    9SAPS  H12X 1177   1.779   4.870   5.041
    9SAPS  H12Y 1178   1.641   4.872   5.153
    9SAPS  C313 1179   1.598   4.787   4.962
    9SAPS  H13X 1180   1.544   4.883   4.945
    9SAPS  H13Y 1181   1.522   4.713   4.993
    9SAPS  C314 1182   1.668   4.767   4.833
    9SAPS  H14X 1183   1.733   4.677   4.835
    9SAPS  H14Y 1184   1.735   4.854   4.819
    9SAPS  C315 1185   1.579   4.762   4.707
    9SAPS  H15X 1186   1.522   4.857   4.700
    9SAPS  H15Y 1187   1.514   4.673   4.721
    9SAPS  C316 1188   1.661   4.722   4.588
    9SAPS  H16X 1189   1.735   4.647   4.623
    9SAPS  H16Y 1190   1.723   4.808   4.553
    9SAPS  C317 1191   1.573   4.674   4.473
    9SAPS  H17X 1192   1.486   4.743   4.476
    9SAPS  H17Y 1193   1.530   4.574   4.495
    9SAPS  C318 1194   1.644   4.681   4.343
    9SAPS  H18X 1195   1.753   4.659   4.349
    9SAPS  H18Y 1196   1.648   4.778   4.289
    9SAPS  H18Z 1197   1.613   4.612   4.261
   10SAPS     N 1198   2.640   4.235   6.509
   10SAPS   HN1 1199   2.559   4.281   6.462
   10SAPS   HN2 1200   2.654   4.262   6.608
   10SAPS   HN3 1201   2.728   4.262   6.460
   10SAPS   C12 1202   2.603   4.098   6.498
   10SAPS  H12A 1203   2.596   4.082   6.391
   10SAPS   C13 1204   2.711   4.011   6.577
   10SAPS  O13A 1205   2.807   4.065   6.628
   10SAPS  O13B 1206   2.694   3.884   6.577
   10SAPS   C11 1207   2.456   4.073   6.549
   10SAPS  H11A 1208   2.449   4.097   6.657
   10SAPS  H11B 1209   2.431   3.965   6.539
   10SAPS     P 1210   2.212   4.133   6.461
   10SAPS   O13 1211   2.178   3.996   6.413
   10SAPS   O14 1212   2.136   4.182   6.578
   10SAPS   O12 1213   2.364   4.162   6.480
   10SAPS   O11 1214   2.197   4.233   6.345
   10SAPS    C1 1215   2.229   4.369   6.358
   10SAPS    HA 1216   2.152   4.427   6.412
   10SAPS    HB 1217   2.326   4.390   6.409
   10SAPS    C2 1218   2.250   4.429   6.212
   10SAPS    HS 1219   2.146   4.431   6.172
   10SAPS   O21 1220   2.339   4.355   6.125
   10SAPS   C21 1221   2.468   4.354   6.155
   10SAPS   O22 1222   2.521   4.401   6.256
   10SAPS   C22 1223   2.546   4.285   6.051
   10SAPS   H2R 1224   2.653   4.295   6.078
   10SAPS   H2S 1225   2.518   4.179   6.031
   10SAPS    C3 1226   2.285   4.583   6.213
   10SAPS    HX 1227   2.375   4.604   6.274
   10SAPS    HY 1228   2.210   4.642   6.271
   10SAPS   O31 1229   2.296   4.630   6.082
   10SAPS   C31 1230   2.406   4.712   6.065
   10SAPS   O32 1231   2.493   4.732   6.147
   10SAPS   C32 1232   2.404   4.755   5.921
   10SAPS   H2X 1233   2.311   4.813   5.904
   10SAPS   H2Y 1234   2.390   4.666   5.856
   10SAPS   C23 1235   2.528   4.354   5.913
   10SAPS   H3R 1236   2.547   4.464   5.911
   10SAPS   H3S 1237   2.427   4.331   5.876
   10SAPS   C24 1238   2.634   4.301   5.808
   10SAPS   H4R 1239   2.594   4.340   5.712
   10SAPS   H4S 1240   2.622   4.191   5.806
   10SAPS   C25 1241   2.785   4.337   5.824
   10SAPS   H5R 1242   2.817   4.338   5.930
   10SAPS   C26 1243   2.875   4.368   5.728
   10SAPS   H6R 1244   2.976   4.387   5.768
   10SAPS   C27 1245   2.852   4.351   5.583
   10SAPS   H7R 1246   2.744   4.331   5.564
   10SAPS   H7S 1247   2.906   4.269   5.530
   10SAPS   C28 1248   2.865   4.481   5.507
   10SAPS   H8R 1249   2.864   4.567   5.576
   10SAPS   C29 1250   2.900   4.498   5.378
   10SAPS   H9R 1251   2.925   4.591   5.325
   10SAPS  C210 1252   2.938   4.389   5.282
   10SAPS  H10R 1253   2.986   4.299   5.327
   10SAPS  H10S 1254   3.012   4.434   5.212
   10SAPS  C211 1255   2.820   4.338   5.201
   10SAPS  H11R 1256   2.745   4.286   5.262
   10SAPS  C212 1257   2.799   4.368   5.072
   10SAPS  H12R 1258   2.706   4.319   5.042
   10SAPS  C213 1259   2.882   4.450   4.973
   10SAPS  H13R 1260   2.849   4.413   4.873
   10SAPS  H13S 1261   2.989   4.424   4.968
   10SAPS  C214 1262   2.879   4.596   4.988
   10SAPS  H14R 1263   2.836   4.636   5.082
   10SAPS  C215 1264   2.931   4.684   4.899
   10SAPS  H15R 1265   2.926   4.792   4.914
   10SAPS  C216 1266   3.006   4.628   4.773
   10SAPS  H16R 1267   3.050   4.527   4.787
   10SAPS  H16S 1268   3.095   4.690   4.752
   10SAPS  C217 1269   2.927   4.631   4.641
   10SAPS  H17R 1270   2.826   4.588   4.659
   10SAPS  H17S 1271   2.977   4.578   4.557
   10SAPS  C218 1272   2.909   4.772   4.592
   10SAPS  H18R 1273   3.002   4.830   4.610
   10SAPS  H18S 1274   2.827   4.817   4.652
   10SAPS  C219 1275   2.846   4.774   4.451
   10SAPS  H19R 1276   2.751   4.717   4.450
   10SAPS  H19S 1277   2.908   4.711   4.383
   10SAPS  C220 1278   2.821   4.917   4.391
   10SAPS  H20R 1279   2.859   4.994   4.462
   10SAPS  H20S 1280   2.714   4.934   4.367
   10SAPS  H20T 1281   2.861   4.922   4.287
   10SAPS   C33 1282   2.531   4.826   5.866
   10SAPS   H3X 1283   2.615   4.803   5.935
   10SAPS   H3Y 1284   2.517   4.936   5.876
   10SAPS   C34 1285   2.577   4.775   5.729
   10SAPS   H4X 1286   2.612   4.670   5.731
   10SAPS   H4Y 1287   2.677   4.821   5.715
   10SAPS   C35 1288   2.478   4.804   5.613
   10SAPS   H5X 1289   2.376   4.765   5.636
   10SAPS   H5Y 1290   2.513   4.758   5.518
   10SAPS   C36 1291   2.469   4.954   5.583
   10SAPS   H6X 1292   2.570   4.991   5.554
   10SAPS   H6Y 1293   2.421   5.000   5.672
   10SAPS   C37 1294   2.374   4.995   5.474
   10SAPS   H7X 1295   2.358   5.105   5.473
   10SAPS   H7Y 1296   2.270   4.960   5.489
   10SAPS   C38 1297   2.418   4.965   5.335
   10SAPS   H8X 1298   2.430   4.858   5.307
   10SAPS   H8Y 1299   2.525   4.992   5.323
   10SAPS   C39 1300   2.332   5.029   5.229
   10SAPS   H9X 1301   2.314   5.133   5.264
   10SAPS   H9Y 1302   2.234   4.978   5.233
   10SAPS  C310 1303   2.380   5.025   5.082
   10SAPS  H10X 1304   2.405   4.917   5.072
   10SAPS  H10Y 1305   2.479   5.076   5.075
   10SAPS  C311 1306   2.278   5.075   4.975
   10SAPS  H11X 1307   2.324   5.066   4.874
   10SAPS  H11Y 1308   2.242   5.181   4.972
   10SAPS  C312 1309   2.136   5.005   4.992
   10SAPS  H12X 1310   2.086   5.060   5.075
   10SAPS  H12Y 1311   2.164   4.903   5.026
   10SAPS  C313 1312   2.059   4.989   4.865
   10SAPS  H13X 1313   2.051   5.091   4.823
   10SAPS  H13Y 1314   1.964   4.945   4.903
   10SAPS  C314 1315   2.107   4.889   4.759
   10SAPS  H14X 1316   2.191   4.826   4.795
   10SAPS  H14Y 1317   2.149   4.954   4.680
   10SAPS  C315 1318   1.994   4.797   4.713
   10SAPS  H15X 1319   1.915   4.853   4.659
   10SAPS  H15Y 1320   1.953   4.742   4.800
   10SAPS  C316 1321   2.044   4.706   4.610
   10SAPS  H16X 1322   1.965   4.631   4.590
   10SAPS  H16Y 1323   2.126   4.642   4.650
   10SAPS  C317 1324   2.077   4.782   4.486
   10SAPS  H17X 1325   2.160   4.854   4.502
   10SAPS  H17Y 1326   1.995   4.849   4.453
   10SAPS  C318 1327   2.118   4.691   4.371
   10SAPS  H18X 1328   2.217   4.644   4.395
   10SAPS  H18Y 1329   2.144   4.753   4.283
   10SAPS  H18Z 1330   2.036   4.620   4.348
   11SAPS     N 1331   4.095   3.437   1.778
   11SAPS   HN1 1332   4.169   3.458   1.848
   11SAPS   HN2 1333   4.124   3.511   1.711
   11SAPS   HN3 1334   3.993   3.450   1.797
   11SAPS   C12 1335   4.129   3.302   1.712
   11SAPS  H12A 1336   4.083   3.296   1.615
   11SAPS   C13 1337   4.283   3.297   1.683
   11SAPS  O13A 1338   4.362   3.395   1.702
   11SAPS  O13B 1339   4.324   3.191   1.618
   11SAPS   C11 1340   4.083   3.181   1.802
   11SAPS  H11A 1341   4.105   3.210   1.907
   11SAPS  H11B 1342   4.142   3.089   1.781
   11SAPS     P 1343   3.874   3.028   1.851
   11SAPS   O13 1344   3.728   3.044   1.854
   11SAPS   O14 1345   3.932   2.923   1.763
   11SAPS   O12 1346   3.937   3.166   1.799
   11SAPS   O11 1347   3.928   3.013   1.996
   11SAPS    C1 1348   3.914   3.118   2.094
   11SAPS    HA 1349   4.011   3.124   2.148
   11SAPS    HB 1350   3.892   3.218   2.049
   11SAPS    C2 1351   3.806   3.085   2.204
   11SAPS    HS 1352   3.708   3.120   2.166
   11SAPS   O21 1353   3.843   3.143   2.337
   11SAPS   C21 1354   3.836   3.273   2.344
   11SAPS   O22 1355   3.818   3.348   2.250
   11SAPS   C22 1356   3.854   3.323   2.498
   11SAPS   H2R 1357   3.753   3.363   2.519
   11SAPS   H2S 1358   3.865   3.231   2.559
   11SAPS    C3 1359   3.790   2.932   2.231
   11SAPS    HX 1360   3.880   2.881   2.272
   11SAPS    HY 1361   3.758   2.883   2.136
   11SAPS   O31 1362   3.678   2.907   2.316
   11SAPS   C31 1363   3.641   2.780   2.341
   11SAPS   O32 1364   3.701   2.683   2.297
   11SAPS   C32 1365   3.526   2.772   2.433
   11SAPS   H2X 1366   3.438   2.738   2.373
   11SAPS   H2Y 1367   3.501   2.868   2.484
   11SAPS   C23 1368   3.966   3.427   2.520
   11SAPS   H3R 1369   3.943   3.524   2.470
   11SAPS   H3S 1370   4.059   3.389   2.472
   11SAPS   C24 1371   3.972   3.440   2.671
   11SAPS   H4R 1372   3.993   3.337   2.707
   11SAPS   H4S 1373   3.870   3.458   2.712
   11SAPS   C25 1374   4.077   3.538   2.721
   11SAPS   H5R 1375   4.152   3.567   2.645
   11SAPS   C26 1376   4.102   3.567   2.857
   11SAPS   H6R 1377   4.184   3.638   2.877
   11SAPS   C27 1378   4.016   3.516   2.973
   11SAPS   H7R 1379   3.912   3.495   2.941
   11SAPS   H7S 1380   4.005   3.597   3.048
   11SAPS   C28 1381   4.079   3.401   3.048
   11SAPS   H8R 1382   4.107   3.318   2.981
   11SAPS   C29 1383   4.122   3.400   3.176
   11SAPS   H9R 1384   4.158   3.300   3.205
   11SAPS  C210 1385   4.117   3.511   3.278
   11SAPS  H10R 1386   4.070   3.603   3.237
   11SAPS  H10S 1387   4.219   3.531   3.317
   11SAPS  C211 1388   4.019   3.477   3.384
   11SAPS  H11R 1389   3.915   3.484   3.348
   11SAPS  C212 1390   4.031   3.438   3.513
   11SAPS  H12R 1391   3.943   3.412   3.574
   11SAPS  C213 1392   4.161   3.411   3.580
   11SAPS  H13R 1393   4.145   3.442   3.686
   11SAPS  H13S 1394   4.239   3.481   3.544
   11SAPS  C214 1395   4.210   3.270   3.581
   11SAPS  H14R 1396   4.144   3.195   3.629
   11SAPS  C215 1397   4.334   3.223   3.548
   11SAPS  H15R 1398   4.346   3.113   3.548
   11SAPS  C216 1399   4.449   3.306   3.497
   11SAPS  H16R 1400   4.405   3.369   3.417
   11SAPS  H16S 1401   4.523   3.235   3.454
   11SAPS  C217 1402   4.532   3.398   3.600
   11SAPS  H17R 1403   4.470   3.487   3.623
   11SAPS  H17S 1404   4.613   3.444   3.539
   11SAPS  C218 1405   4.595   3.327   3.729
   11SAPS  H18R 1406   4.510   3.275   3.777
   11SAPS  H18S 1407   4.640   3.409   3.788
   11SAPS  C219 1408   4.691   3.209   3.706
   11SAPS  H19R 1409   4.628   3.137   3.649
   11SAPS  H19S 1410   4.718   3.159   3.801
   11SAPS  C220 1411   4.827   3.243   3.644
   11SAPS  H20R 1412   4.902   3.161   3.645
   11SAPS  H20S 1413   4.887   3.316   3.703
   11SAPS  H20T 1414   4.821   3.279   3.539
   11SAPS   C33 1415   3.540   2.663   2.549
   11SAPS   H3X 1416   3.627   2.597   2.525
   11SAPS   H3Y 1417   3.454   2.594   2.551
   11SAPS   C34 1418   3.553   2.728   2.683
   11SAPS   H4X 1419   3.465   2.793   2.695
   11SAPS   H4Y 1420   3.637   2.801   2.678
   11SAPS   C35 1421   3.584   2.638   2.811
   11SAPS   H5X 1422   3.690   2.604   2.807
   11SAPS   H5Y 1423   3.517   2.550   2.808
   11SAPS   C36 1424   3.573   2.721   2.942
   11SAPS   H6X 1425   3.474   2.765   2.966
   11SAPS   H6Y 1426   3.652   2.799   2.938
   11SAPS   C37 1427   3.610   2.635   3.062
   11SAPS   H7X 1428   3.714   2.597   3.051
   11SAPS   H7Y 1429   3.547   2.544   3.064
   11SAPS   C38 1430   3.589   2.695   3.202
   11SAPS   H8X 1431   3.480   2.712   3.216
   11SAPS   H8Y 1432   3.630   2.798   3.206
   11SAPS   C39 1433   3.653   2.604   3.311
   11SAPS   H9X 1434   3.756   2.566   3.297
   11SAPS   H9Y 1435   3.591   2.512   3.311
   11SAPS  C310 1436   3.646   2.669   3.451
   11SAPS  H10X 1437   3.544   2.708   3.470
   11SAPS  H10Y 1438   3.717   2.755   3.450
   11SAPS  C311 1439   3.690   2.560   3.561
   11SAPS  H11X 1440   3.795   2.529   3.544
   11SAPS  H11Y 1441   3.639   2.463   3.544
   11SAPS  C312 1442   3.669   2.620   3.702
   11SAPS  H12X 1443   3.561   2.643   3.713
   11SAPS  H12Y 1444   3.716   2.719   3.718
   11SAPS  C313 1445   3.732   2.531   3.811
   11SAPS  H13X 1446   3.843   2.522   3.805
   11SAPS  H13Y 1447   3.698   2.426   3.800
   11SAPS  C314 1448   3.689   2.582   3.946
   11SAPS  H14X 1449   3.730   2.685   3.957
   11SAPS  H14Y 1450   3.738   2.515   4.020
   11SAPS  C315 1451   3.540   2.560   3.976
   11SAPS  H15X 1452   3.498   2.477   3.915
   11SAPS  H15Y 1453   3.479   2.651   3.962
   11SAPS  C316 1454   3.507   2.523   4.121
   11SAPS  H16X 1455   3.558   2.595   4.189
   11SAPS  H16Y 1456   3.552   2.423   4.137
   11SAPS  C317 1457   3.365   2.528   4.172
   11SAPS  H17X 1458   3.297   2.464   4.111
   11SAPS  H17Y 1459   3.317   2.627   4.162
   11SAPS  C318 1460   3.346   2.486   4.321
   11SAPS  H18X 1461   3.400   2.558   4.386
   11SAPS  H18Y 1462   3.381   2.380   4.325
   11SAPS  H18Z 1463   3.242   2.493   4.357
   12SAPS     N 1464   3.107   2.869   1.900
   12SAPS   HN1 1465   3.003   2.869   1.892
   12SAPS   HN2 1466   3.131   2.845   1.998
   12SAPS   HN3 1467   3.148   2.960   1.872
   12SAPS   C12 1468   3.158   2.770   1.810
   12SAPS  H12A 1469   3.082   2.693   1.804
   12SAPS   C13 1470   3.184   2.823   1.667
   12SAPS  O13A 1471   3.170   2.945   1.640
   12SAPS  O13B 1472   3.235   2.741   1.586
   12SAPS   C11 1473   3.269   2.691   1.867
   12SAPS  H11A 1474   3.361   2.753   1.879
   12SAPS  H11B 1475   3.317   2.612   1.806
   12SAPS     P 1476   3.169   2.484   1.992
   12SAPS   O13 1477   3.192   2.417   1.863
   12SAPS   O14 1478   3.223   2.419   2.112
   12SAPS   O12 1479   3.232   2.639   1.996
   12SAPS   O11 1480   3.023   2.508   2.011
   12SAPS    C1 1481   2.964   2.585   2.120
   12SAPS    HA 1482   3.036   2.653   2.170
   12SAPS    HB 1483   2.889   2.649   2.070
   12SAPS    C2 1484   2.900   2.500   2.237
   12SAPS    HS 1485   2.840   2.566   2.304
   12SAPS   O21 1486   3.000   2.416   2.314
   12SAPS   C21 1487   3.066   2.487   2.401
   12SAPS   O22 1488   3.049   2.604   2.437
   12SAPS   C22 1489   3.170   2.392   2.461
   12SAPS   H2R 1490   3.259   2.382   2.396
   12SAPS   H2S 1491   3.208   2.453   2.546
   12SAPS    C3 1492   2.802   2.402   2.173
   12SAPS    HX 1493   2.869   2.339   2.110
   12SAPS    HY 1494   2.735   2.462   2.107
   12SAPS   O31 1495   2.714   2.339   2.272
   12SAPS   C31 1496   2.762   2.221   2.307
   12SAPS   O32 1497   2.862   2.167   2.264
   12SAPS   C32 1498   2.674   2.176   2.425
   12SAPS   H2X 1499   2.570   2.192   2.390
   12SAPS   H2Y 1500   2.700   2.232   2.518
   12SAPS   C23 1501   3.130   2.250   2.507
   12SAPS   H3R 1502   3.211   2.180   2.477
   12SAPS   H3S 1503   3.034   2.224   2.457
   12SAPS   C24 1504   3.111   2.241   2.653
   12SAPS   H4R 1505   3.024   2.306   2.678
   12SAPS   H4S 1506   3.188   2.291   2.715
   12SAPS   C25 1507   3.099   2.096   2.695
   12SAPS   H5R 1508   3.124   2.019   2.621
   12SAPS   C26 1509   3.039   2.056   2.810
   12SAPS   H6R 1510   3.018   1.951   2.832
   12SAPS   C27 1511   3.009   2.144   2.927
   12SAPS   H7R 1512   3.069   2.237   2.912
   12SAPS   H7S 1513   3.027   2.100   3.027
   12SAPS   C28 1514   2.862   2.178   2.921
   12SAPS   H8R 1515   2.809   2.173   2.825
   12SAPS   C29 1516   2.778   2.177   3.027
   12SAPS   H9R 1517   2.671   2.198   3.008
   12SAPS  C210 1518   2.817   2.172   3.171
   12SAPS  H10R 1519   2.742   2.237   3.220
   12SAPS  H10S 1520   2.918   2.217   3.185
   12SAPS  C211 1521   2.821   2.037   3.232
   12SAPS  H11R 1522   2.861   1.954   3.172
   12SAPS  C212 1523   2.774   1.998   3.355
   12SAPS  H12R 1524   2.795   1.893   3.380
   12SAPS  C213 1525   2.722   2.086   3.465
   12SAPS  H13R 1526   2.773   2.184   3.451
   12SAPS  H13S 1527   2.768   2.062   3.564
   12SAPS  C214 1528   2.567   2.086   3.455
   12SAPS  H14R 1529   2.525   2.125   3.361
   12SAPS  C215 1530   2.481   2.039   3.550
   12SAPS  H15R 1531   2.377   2.015   3.522
   12SAPS  C216 1532   2.514   1.984   3.684
   12SAPS  H16R 1533   2.459   2.034   3.767
   12SAPS  H16S 1534   2.615   2.019   3.713
   12SAPS  C217 1535   2.499   1.833   3.691
   12SAPS  H17R 1536   2.548   1.790   3.602
   12SAPS  H17S 1537   2.391   1.807   3.700
   12SAPS  C218 1538   2.563   1.771   3.817
   12SAPS  H18R 1539   2.664   1.814   3.834
   12SAPS  H18S 1540   2.580   1.667   3.782
   12SAPS  C219 1541   2.481   1.782   3.941
   12SAPS  H19R 1542   2.381   1.741   3.915
   12SAPS  H19S 1543   2.461   1.889   3.967
   12SAPS  C220 1544   2.538   1.695   4.055
   12SAPS  H20R 1545   2.543   1.587   4.032
   12SAPS  H20S 1546   2.484   1.707   4.152
   12SAPS  H20T 1547   2.634   1.745   4.081
   12SAPS   C33 1548   2.709   2.028   2.460
   12SAPS   H3X 1549   2.820   2.028   2.467
   12SAPS   H3Y 1550   2.678   1.959   2.378
   12SAPS   C34 1551   2.641   1.996   2.593
   12SAPS   H4X 1552   2.531   1.992   2.579
   12SAPS   H4Y 1553   2.674   2.075   2.664
   12SAPS   C35 1554   2.693   1.874   2.655
   12SAPS   H5X 1555   2.640   1.884   2.752
   12SAPS   H5Y 1556   2.801   1.893   2.670
   12SAPS   C36 1557   2.670   1.745   2.569
   12SAPS   H6X 1558   2.761   1.742   2.506
   12SAPS   H6Y 1559   2.582   1.743   2.500
   12SAPS   C37 1560   2.666   1.614   2.650
   12SAPS   H7X 1561   2.737   1.616   2.735
   12SAPS   H7Y 1562   2.703   1.527   2.591
   12SAPS   C38 1563   2.525   1.577   2.694
   12SAPS   H8X 1564   2.467   1.532   2.611
   12SAPS   H8Y 1565   2.477   1.671   2.728
   12SAPS   C39 1566   2.509   1.463   2.798
   12SAPS   H9X 1567   2.543   1.366   2.754
   12SAPS   H9Y 1568   2.401   1.467   2.825
   12SAPS  C310 1569   2.589   1.477   2.926
   12SAPS  H10X 1570   2.699   1.472   2.908
   12SAPS  H10Y 1571   2.567   1.393   2.995
   12SAPS  C311 1572   2.562   1.618   2.988
   12SAPS  H11X 1573   2.454   1.645   2.992
   12SAPS  H11Y 1574   2.599   1.690   2.912
   12SAPS  C312 1575   2.625   1.642   3.127
   12SAPS  H12X 1576   2.642   1.751   3.136
   12SAPS  H12Y 1577   2.722   1.595   3.101
   12SAPS  C313 1578   2.562   1.575   3.245
   12SAPS  H13X 1579   2.473   1.516   3.215
   12SAPS  H13Y 1580   2.523   1.640   3.326
   12SAPS  C314 1581   2.661   1.474   3.320
   12SAPS  H14X 1582   2.705   1.405   3.246
   12SAPS  H14Y 1583   2.585   1.420   3.380
   12SAPS  C315 1584   2.758   1.555   3.401
   12SAPS  H15X 1585   2.713   1.646   3.447
   12SAPS  H15Y 1586   2.839   1.596   3.338
   12SAPS  C316 1587   2.834   1.468   3.508
   12SAPS  H16X 1588   2.933   1.515   3.526
   12SAPS  H16Y 1589   2.851   1.365   3.469
   12SAPS  C317 1590   2.762   1.464   3.642
   12SAPS  H17X 1591   2.656   1.441   3.614
   12SAPS  H17Y 1592   2.772   1.566   3.685
   12SAPS  C318 1593   2.817   1.354   3.730
   12SAPS  H18X 1594   2.804   1.251   3.691
   12SAPS  H18Y 1595   2.787   1.362   3.837
   12SAPS  H18Z 1596   2.927   1.364   3.744
   13SAPS     N 1597   4.982   1.822   2.287
   13SAPS   HN1 1598   4.904   1.891   2.293
   13SAPS   HN2 1599   5.000   1.764   2.371
   13SAPS   HN3 1600   5.069   1.879   2.277
   13SAPS   C12 1601   4.959   1.725   2.173
   13SAPS  H12A 1602   4.934   1.778   2.083
   13SAPS   C13 1603   5.091   1.647   2.137
   13SAPS  O13A 1604   5.194   1.660   2.205
   13SAPS  O13B 1605   5.086   1.579   2.029
   13SAPS   C11 1606   4.848   1.629   2.219
   13SAPS  H11A 1607   4.885   1.582   2.313
   13SAPS  H11B 1608   4.830   1.543   2.151
   13SAPS     P 1609   4.649   1.693   2.382
   13SAPS   O13 1610   4.578   1.821   2.408
   13SAPS   O14 1611   4.572   1.570   2.387
   13SAPS   O12 1612   4.724   1.702   2.242
   13SAPS   O11 1613   4.754   1.673   2.490
   13SAPS    C1 1614   4.743   1.719   2.627
   13SAPS    HA 1615   4.838   1.762   2.666
   13SAPS    HB 1616   4.666   1.799   2.632
   13SAPS    C2 1617   4.730   1.599   2.731
   13SAPS    HS 1618   4.804   1.527   2.692
   13SAPS   O21 1619   4.597   1.552   2.733
   13SAPS   C21 1620   4.594   1.418   2.710
   13SAPS   O22 1621   4.689   1.343   2.694
   13SAPS   C22 1622   4.447   1.382   2.684
   13SAPS   H2R 1623   4.374   1.461   2.712
   13SAPS   H2S 1624   4.441   1.365   2.574
   13SAPS    C3 1625   4.767   1.649   2.873
   13SAPS    HX 1626   4.674   1.701   2.903
   13SAPS    HY 1627   4.853   1.720   2.873
   13SAPS   O31 1628   4.777   1.546   2.976
   13SAPS   C31 1629   4.883   1.463   2.966
   13SAPS   O32 1630   4.975   1.483   2.888
   13SAPS   C32 1631   4.871   1.336   3.051
   13SAPS   H2X 1632   4.798   1.262   3.013
   13SAPS   H2Y 1633   4.830   1.357   3.152
   13SAPS   C23 1634   4.403   1.249   2.751
   13SAPS   H3R 1635   4.472   1.165   2.730
   13SAPS   H3S 1636   4.304   1.218   2.712
   13SAPS   C24 1637   4.364   1.269   2.900
   13SAPS   H4R 1638   4.280   1.341   2.887
   13SAPS   H4S 1639   4.446   1.324   2.952
   13SAPS   C25 1640   4.310   1.155   2.978
   13SAPS   H5R 1641   4.203   1.135   2.967
   13SAPS   C26 1642   4.389   1.068   3.050
   13SAPS   H6R 1643   4.337   0.990   3.108
   13SAPS   C27 1644   4.539   1.069   3.058
   13SAPS   H7R 1645   4.581   1.103   2.960
   13SAPS   H7S 1646   4.562   0.962   3.042
   13SAPS   C28 1647   4.594   1.132   3.181
   13SAPS   H8R 1648   4.590   1.242   3.182
   13SAPS   C29 1649   4.627   1.069   3.299
   13SAPS   H9R 1650   4.660   1.139   3.377
   13SAPS  C210 1651   4.624   0.917   3.326
   13SAPS  H10R 1652   4.707   0.878   3.264
   13SAPS  H10S 1653   4.533   0.869   3.284
   13SAPS  C211 1654   4.636   0.884   3.472
   13SAPS  H11R 1655   4.542   0.844   3.512
   13SAPS  C212 1656   4.751   0.889   3.546
   13SAPS  H12R 1657   4.748   0.880   3.656
   13SAPS  C213 1658   4.891   0.926   3.495
   13SAPS  H13R 1659   4.904   1.030   3.529
   13SAPS  H13S 1660   4.883   0.933   3.384
   13SAPS  C214 1661   4.997   0.831   3.548
   13SAPS  H14R 1662   5.048   0.779   3.465
   13SAPS  C215 1663   5.059   0.850   3.666
   13SAPS  H15R 1664   5.140   0.782   3.695
   13SAPS  C216 1665   5.022   0.935   3.784
   13SAPS  H16R 1666   4.929   0.991   3.756
   13SAPS  H16S 1667   5.099   1.008   3.818
   13SAPS  C217 1668   4.988   0.850   3.908
   13SAPS  H17R 1669   4.964   0.907   4.000
   13SAPS  H17S 1670   5.088   0.808   3.932
   13SAPS  C218 1671   4.886   0.737   3.898
   13SAPS  H18R 1672   4.931   0.663   3.829
   13SAPS  H18S 1673   4.797   0.780   3.846
   13SAPS  C219 1674   4.853   0.668   4.030
   13SAPS  H19R 1675   4.803   0.579   3.988
   13SAPS  H19S 1676   4.780   0.728   4.088
   13SAPS  C220 1677   4.966   0.616   4.125
   13SAPS  H20R 1678   5.045   0.691   4.144
   13SAPS  H20S 1679   5.024   0.540   4.069
   13SAPS  H20T 1680   4.932   0.586   4.226
   13SAPS   C33 1681   5.001   1.263   3.074
   13SAPS   H3X 1682   5.079   1.332   3.113
   13SAPS   H3Y 1683   5.037   1.200   2.990
   13SAPS   C34 1684   4.980   1.150   3.182
   13SAPS   H4X 1685   4.923   1.064   3.140
   13SAPS   H4Y 1686   4.921   1.189   3.268
   13SAPS   C35 1687   5.107   1.076   3.214
   13SAPS   H5X 1688   5.170   1.040   3.129
   13SAPS   H5Y 1689   5.088   0.987   3.278
   13SAPS   C36 1690   5.203   1.166   3.283
   13SAPS   H6X 1691   5.135   1.212   3.358
   13SAPS   H6Y 1692   5.243   1.243   3.214
   13SAPS   C37 1693   5.312   1.090   3.351
   13SAPS   H7X 1694   5.385   1.052   3.277
   13SAPS   H7Y 1695   5.267   1.003   3.404
   13SAPS   C38 1696   5.384   1.175   3.456
   13SAPS   H8X 1697   5.307   1.231   3.515
   13SAPS   H8Y 1698   5.438   1.253   3.398
   13SAPS   C39 1699   5.477   1.101   3.551
   13SAPS   H9X 1700   5.545   1.036   3.491
   13SAPS   H9Y 1701   5.419   1.034   3.618
   13SAPS  C310 1702   5.575   1.198   3.621
   13SAPS  H10X 1703   5.627   1.260   3.545
   13SAPS  H10Y 1704   5.655   1.142   3.675
   13SAPS  C311 1705   5.500   1.295   3.718
   13SAPS  H11X 1706   5.436   1.238   3.789
   13SAPS  H11Y 1707   5.428   1.363   3.667
   13SAPS  C312 1708   5.599   1.384   3.787
   13SAPS  H12X 1709   5.610   1.485   3.742
   13SAPS  H12Y 1710   5.703   1.346   3.790
   13SAPS  C313 1711   5.552   1.424   3.928
   13SAPS  H13X 1712   5.506   1.341   3.985
   13SAPS  H13Y 1713   5.477   1.505   3.911
   13SAPS  C314 1714   5.665   1.482   4.022
   13SAPS  H14X 1715   5.722   1.559   3.966
   13SAPS  H14Y 1716   5.742   1.409   4.054
   13SAPS  C315 1717   5.612   1.565   4.138
   13SAPS  H15X 1718   5.540   1.503   4.195
   13SAPS  H15Y 1719   5.561   1.648   4.085
   13SAPS  C316 1720   5.721   1.614   4.223
   13SAPS  H16X 1721   5.782   1.691   4.171
   13SAPS  H16Y 1722   5.780   1.523   4.247
   13SAPS  C317 1723   5.667   1.670   4.357
   13SAPS  H17X 1724   5.630   1.590   4.425
   13SAPS  H17Y 1725   5.579   1.735   4.337
   13SAPS  C318 1726   5.757   1.751   4.446
   13SAPS  H18X 1727   5.707   1.785   4.539
   13SAPS  H18Y 1728   5.789   1.841   4.389
   13SAPS  H18Z 1729   5.842   1.694   4.488
   14SAPS     N 1730   5.340   3.277   2.126
   14SAPS   HN1 1731   5.353   3.231   2.219
   14SAPS   HN2 1732   5.262   3.344   2.142
   14SAPS   HN3 1733   5.309   3.209   2.054
   14SAPS   C12 1734   5.461   3.362   2.089
   14SAPS  H12A 1735   5.540   3.289   2.098
   14SAPS   C13 1736   5.466   3.418   1.946
   14SAPS  O13A 1737   5.399   3.364   1.852
   14SAPS  O13B 1738   5.551   3.506   1.913
   14SAPS   C11 1739   5.487   3.473   2.195
   14SAPS  H11A 1740   5.453   3.447   2.297
   14SAPS  H11B 1741   5.434   3.564   2.162
   14SAPS     P 1742   5.688   3.636   2.253
   14SAPS   O13 1743   5.830   3.631   2.228
   14SAPS   O14 1744   5.608   3.751   2.191
   14SAPS   O12 1745   5.626   3.498   2.207
   14SAPS   O11 1746   5.666   3.631   2.406
   14SAPS    C1 1747   5.728   3.526   2.487
   14SAPS    HA 1748   5.693   3.425   2.459
   14SAPS    HB 1749   5.837   3.516   2.470
   14SAPS    C2 1750   5.707   3.554   2.644
   14SAPS    HS 1751   5.728   3.461   2.702
   14SAPS   O21 1752   5.574   3.602   2.674
   14SAPS   C21 1753   5.487   3.507   2.645
   14SAPS   O22 1754   5.511   3.393   2.622
   14SAPS   C22 1755   5.347   3.570   2.630
   14SAPS   H2R 1756   5.375   3.672   2.596
   14SAPS   H2S 1757   5.304   3.510   2.546
   14SAPS    C3 1758   5.812   3.649   2.707
   14SAPS    HX 1759   5.792   3.756   2.686
   14SAPS    HY 1760   5.911   3.635   2.659
   14SAPS   O31 1761   5.821   3.627   2.849
   14SAPS   C31 1762   5.747   3.708   2.934
   14SAPS   O32 1763   5.680   3.798   2.892
   14SAPS   C32 1764   5.764   3.677   3.082
   14SAPS   H2X 1765   5.859   3.623   3.102
   14SAPS   H2Y 1766   5.676   3.611   3.100
   14SAPS   C23 1767   5.258   3.575   2.750
   14SAPS   H3R 1768   5.263   3.476   2.798
   14SAPS   H3S 1769   5.153   3.580   2.713
   14SAPS   C24 1770   5.287   3.694   2.849
   14SAPS   H4R 1771   5.285   3.779   2.778
   14SAPS   H4S 1772   5.395   3.674   2.870
   14SAPS   C25 1773   5.198   3.705   2.971
   14SAPS   H5R 1774   5.104   3.753   2.942
   14SAPS   C26 1775   5.221   3.670   3.099
   14SAPS   H6R 1776   5.143   3.689   3.174
   14SAPS   C27 1777   5.339   3.592   3.152
   14SAPS   H7R 1778   5.406   3.566   3.068
   14SAPS   H7S 1779   5.301   3.497   3.195
   14SAPS   C28 1780   5.412   3.649   3.267
   14SAPS   H8R 1781   5.450   3.750   3.250
   14SAPS   C29 1782   5.424   3.601   3.396
   14SAPS   H9R 1783   5.465   3.665   3.475
   14SAPS  C210 1784   5.373   3.466   3.439
   14SAPS  H10R 1785   5.435   3.429   3.523
   14SAPS  H10S 1786   5.393   3.393   3.357
   14SAPS  C211 1787   5.229   3.446   3.475
   14SAPS  H11R 1788   5.154   3.511   3.428
   14SAPS  C212 1789   5.177   3.353   3.554
   14SAPS  H12R 1790   5.069   3.351   3.573
   14SAPS  C213 1791   5.248   3.237   3.617
   14SAPS  H13R 1792   5.337   3.204   3.560
   14SAPS  H13S 1793   5.181   3.150   3.602
   14SAPS  C214 1794   5.272   3.267   3.761
   14SAPS  H14R 1795   5.353   3.340   3.774
   14SAPS  C215 1796   5.224   3.220   3.878
   14SAPS  H15R 1797   5.263   3.276   3.964
   14SAPS  C216 1798   5.114   3.120   3.901
   14SAPS  H16R 1799   5.143   3.043   3.975
   14SAPS  H16S 1800   5.075   3.066   3.811
   14SAPS  C217 1801   4.995   3.193   3.967
   14SAPS  H17R 1802   4.922   3.111   3.986
   14SAPS  H17S 1803   4.951   3.264   3.893
   14SAPS  C218 1804   5.018   3.251   4.105
   14SAPS  H18R 1805   5.098   3.326   4.089
   14SAPS  H18S 1806   5.057   3.162   4.160
   14SAPS  C219 1807   4.896   3.316   4.174
   14SAPS  H19R 1808   4.921   3.357   4.275
   14SAPS  H19S 1809   4.812   3.244   4.181
   14SAPS  C220 1810   4.843   3.438   4.094
   14SAPS  H20R 1811   4.920   3.518   4.084
   14SAPS  H20S 1812   4.743   3.473   4.125
   14SAPS  H20T 1813   4.821   3.400   3.992
   14SAPS   C33 1814   5.764   3.807   3.164
   14SAPS   H3X 1815   5.667   3.859   3.178
   14SAPS   H3Y 1816   5.828   3.886   3.118
   14SAPS   C34 1817   5.811   3.771   3.304
   14SAPS   H4X 1818   5.921   3.762   3.299
   14SAPS   H4Y 1819   5.774   3.667   3.318
   14SAPS   C35 1820   5.782   3.866   3.422
   14SAPS   H5X 1821   5.677   3.899   3.402
   14SAPS   H5Y 1822   5.841   3.960   3.429
   14SAPS   C36 1823   5.772   3.790   3.553
   14SAPS   H6X 1824   5.876   3.764   3.583
   14SAPS   H6Y 1825   5.707   3.699   3.552
   14SAPS   C37 1826   5.699   3.873   3.661
   14SAPS   H7X 1827   5.598   3.903   3.628
   14SAPS   H7Y 1828   5.760   3.967   3.659
   14SAPS   C38 1829   5.678   3.812   3.804
   14SAPS   H8X 1830   5.780   3.796   3.845
   14SAPS   H8Y 1831   5.631   3.711   3.801
   14SAPS   C39 1832   5.600   3.896   3.911
   14SAPS   H9X 1833   5.504   3.914   3.859
   14SAPS   H9Y 1834   5.651   3.994   3.904
   14SAPS  C310 1835   5.585   3.832   4.052
   14SAPS  H10X 1836   5.686   3.809   4.092
   14SAPS  H10Y 1837   5.529   3.737   4.039
   14SAPS  C311 1838   5.520   3.919   4.157
   14SAPS  H11X 1839   5.480   3.851   4.236
   14SAPS  H11Y 1840   5.430   3.965   4.111
   14SAPS  C312 1841   5.614   4.019   4.222
   14SAPS  H12X 1842   5.564   4.098   4.283
   14SAPS  H12Y 1843   5.665   4.083   4.147
   14SAPS  C313 1844   5.721   3.969   4.322
   14SAPS  H13X 1845   5.793   3.902   4.270
   14SAPS  H13Y 1846   5.663   3.915   4.399
   14SAPS  C314 1847   5.796   4.083   4.395
   14SAPS  H14X 1848   5.721   4.131   4.461
   14SAPS  H14Y 1849   5.831   4.160   4.324
   14SAPS  C315 1850   5.897   4.021   4.494
   14SAPS  H15X 1851   5.946   3.927   4.459
   14SAPS  H15Y 1852   5.845   3.988   4.585
   14SAPS  C316 1853   6.019   4.116   4.531
   14SAPS  H16X 1854   6.062   4.094   4.631
   14SAPS  H16Y 1855   5.986   4.222   4.526
   14SAPS  C317 1856   6.140   4.093   4.437
   14SAPS  H17X 1857   6.124   4.133   4.335
   14SAPS  H17Y 1858   6.160   3.984   4.433
   14SAPS  C318 1859   6.268   4.162   4.482
   14SAPS  H18X 1860   6.318   4.130   4.576
   14SAPS  H18Y 1861   6.259   4.273   4.479
   14SAPS  H18Z 1862   6.351   4.144   4.411
   15SAPS     N 1863   4.453   3.667   1.727
   15SAPS   HN1 1864   4.406   3.709   1.645
   15SAPS   HN2 1865   4.554   3.676   1.701
   15SAPS   HN3 1866   4.435   3.564   1.722
   15SAPS   C12 1867   4.444   3.720   1.868
   15SAPS  H12A 1868   4.531   3.692   1.927
   15SAPS   C13 1869   4.448   3.874   1.867
   15SAPS  O13A 1870   4.442   3.939   1.761
   15SAPS  O13B 1871   4.449   3.942   1.978
   15SAPS   C11 1872   4.309   3.689   1.938
   15SAPS  H11A 1873   4.231   3.742   1.880
   15SAPS  H11B 1874   4.303   3.735   2.039
   15SAPS     P 1875   4.339   3.455   2.059
   15SAPS   O13 1876   4.259   3.331   2.052
   15SAPS   O14 1877   4.483   3.452   2.037
   15SAPS   O12 1878   4.286   3.549   1.938
   15SAPS   O11 1879   4.302   3.529   2.189
   15SAPS    C1 1880   4.394   3.591   2.266
   15SAPS    HA 1881   4.477   3.518   2.274
   15SAPS    HB 1882   4.436   3.679   2.213
   15SAPS    C2 1883   4.336   3.633   2.407
   15SAPS    HS 1884   4.413   3.694   2.457
   15SAPS   O21 1885   4.305   3.517   2.487
   15SAPS   C21 1886   4.419   3.461   2.541
   15SAPS   O22 1887   4.530   3.507   2.537
   15SAPS   C22 1888   4.380   3.347   2.633
   15SAPS   H2R 1889   4.271   3.331   2.615
   15SAPS   H2S 1890   4.439   3.257   2.607
   15SAPS    C3 1891   4.208   3.720   2.390
   15SAPS    HX 1892   4.124   3.660   2.349
   15SAPS    HY 1893   4.247   3.805   2.329
   15SAPS   O31 1894   4.161   3.757   2.518
   15SAPS   C31 1895   4.093   3.864   2.523
   15SAPS   O32 1896   4.049   3.923   2.423
   15SAPS   C32 1897   4.080   3.916   2.672
   15SAPS   H2X 1898   4.157   3.995   2.677
   15SAPS   H2Y 1899   4.109   3.832   2.738
   15SAPS   C23 1900   4.402   3.381   2.783
   15SAPS   H3R 1901   4.304   3.396   2.834
   15SAPS   H3S 1902   4.455   3.479   2.788
   15SAPS   C24 1903   4.472   3.273   2.864
   15SAPS   H4R 1904   4.574   3.259   2.823
   15SAPS   H4S 1905   4.424   3.175   2.839
   15SAPS   C25 1906   4.461   3.288   3.009
   15SAPS   H5R 1907   4.360   3.293   3.054
   15SAPS   C26 1908   4.557   3.305   3.099
   15SAPS   H6R 1909   4.524   3.288   3.203
   15SAPS   C27 1910   4.701   3.338   3.071
   15SAPS   H7R 1911   4.738   3.287   2.980
   15SAPS   H7S 1912   4.766   3.301   3.154
   15SAPS   C28 1913   4.710   3.489   3.049
   15SAPS   H8R 1914   4.650   3.520   2.962
   15SAPS   C29 1915   4.764   3.584   3.136
   15SAPS   H9R 1916   4.771   3.688   3.101
   15SAPS  C210 1917   4.828   3.557   3.275
   15SAPS  H10R 1918   4.879   3.459   3.288
   15SAPS  H10S 1919   4.739   3.549   3.340
   15SAPS  C211 1920   4.911   3.672   3.313
   15SAPS  H11R 1921   4.949   3.733   3.229
   15SAPS  C212 1922   4.953   3.704   3.438
   15SAPS  H12R 1923   5.028   3.784   3.448
   15SAPS  C213 1924   4.901   3.639   3.567
   15SAPS  H13R 1925   4.958   3.544   3.574
   15SAPS  H13S 1926   4.795   3.609   3.551
   15SAPS  C214 1927   4.899   3.737   3.678
   15SAPS  H14R 1928   4.823   3.816   3.680
   15SAPS  C215 1929   4.979   3.735   3.787
   15SAPS  H15R 1930   4.978   3.819   3.857
   15SAPS  C216 1931   5.079   3.622   3.800
   15SAPS  H16R 1932   5.089   3.560   3.708
   15SAPS  H16S 1933   5.051   3.545   3.875
   15SAPS  C217 1934   5.224   3.674   3.825
   15SAPS  H17R 1935   5.239   3.753   3.749
   15SAPS  H17S 1936   5.303   3.599   3.799
   15SAPS  C218 1937   5.233   3.741   3.961
   15SAPS  H18R 1938   5.149   3.808   3.988
   15SAPS  H18S 1939   5.324   3.802   3.976
   15SAPS  C219 1940   5.221   3.638   4.081
   15SAPS  H19R 1941   5.315   3.581   4.074
   15SAPS  H19S 1942   5.132   3.573   4.069
   15SAPS  C220 1943   5.209   3.710   4.216
   15SAPS  H20R 1944   5.205   3.630   4.293
   15SAPS  H20S 1945   5.119   3.775   4.218
   15SAPS  H20T 1946   5.301   3.772   4.225
   15SAPS   C33 1947   3.945   3.980   2.710
   15SAPS   H3X 1948   3.873   3.896   2.720
   15SAPS   H3Y 1949   3.912   4.050   2.631
   15SAPS   C34 1950   3.942   4.054   2.843
   15SAPS   H4X 1951   3.839   4.082   2.874
   15SAPS   H4Y 1952   3.998   4.148   2.825
   15SAPS   C35 1953   4.005   3.960   2.948
   15SAPS   H5X 1954   4.114   3.947   2.928
   15SAPS   H5Y 1955   3.954   3.862   2.950
   15SAPS   C36 1956   3.964   4.020   3.081
   15SAPS   H6X 1957   3.853   4.006   3.076
   15SAPS   H6Y 1958   3.984   4.129   3.086
   15SAPS   C37 1959   4.014   3.946   3.212
   15SAPS   H7X 1960   4.108   3.999   3.239
   15SAPS   H7Y 1961   4.030   3.839   3.187
   15SAPS   C38 1962   3.919   3.963   3.320
   15SAPS   H8X 1963   3.815   3.930   3.300
   15SAPS   H8Y 1964   3.912   4.073   3.337
   15SAPS   C39 1965   3.952   3.887   3.448
   15SAPS   H9X 1966   4.053   3.929   3.468
   15SAPS   H9Y 1967   3.959   3.778   3.428
   15SAPS  C310 1968   3.867   3.927   3.564
   15SAPS  H10X 1969   3.896   3.862   3.649
   15SAPS  H10Y 1970   3.757   3.918   3.555
   15SAPS  C311 1971   3.904   4.070   3.603
   15SAPS  H11X 1972   3.859   4.144   3.533
   15SAPS  H11Y 1973   4.014   4.073   3.610
   15SAPS  C312 1974   3.853   4.108   3.750
   15SAPS  H12X 1975   3.763   4.047   3.772
   15SAPS  H12Y 1976   3.827   4.216   3.750
   15SAPS  C313 1977   3.955   4.087   3.860
   15SAPS  H13X 1978   4.037   4.161   3.857
   15SAPS  H13Y 1979   4.001   3.986   3.852
   15SAPS  C314 1980   3.888   4.090   4.002
   15SAPS  H14X 1981   3.825   4.006   4.037
   15SAPS  H14Y 1982   3.821   4.178   4.012
   15SAPS  C315 1983   4.005   4.103   4.105
   15SAPS  H15X 1984   3.960   4.129   4.203
   15SAPS  H15Y 1985   4.076   4.187   4.084
   15SAPS  C316 1986   4.080   3.975   4.132
   15SAPS  H16X 1987   4.144   3.942   4.047
   15SAPS  H16Y 1988   4.018   3.883   4.138
   15SAPS  C317 1989   4.181   3.974   4.253
   15SAPS  H17X 1990   4.253   3.890   4.247
   15SAPS  H17Y 1991   4.114   3.962   4.342
   15SAPS  C318 1992   4.271   4.099   4.263
   15SAPS  H18X 1993   4.348   4.070   4.338
   15SAPS  H18Y 1994   4.209   4.177   4.312
   15SAPS  H18Z 1995   4.313   4.140   4.169
   16SAPS     N 1996   6.021   4.357   2.296
   16SAPS   HN1 1997   6.001   4.296   2.378
   16SAPS   HN2 1998   6.112   4.406   2.305
   16SAPS   HN3 1999   5.946   4.429   2.299
   16SAPS   C12 2000   6.015   4.284   2.165
   16SAPS  H12A 2001   5.927   4.222   2.162
   16SAPS   C13 2002   6.028   4.370   2.037
   16SAPS  O13A 2003   6.069   4.489   2.048
   16SAPS  O13B 2004   6.008   4.318   1.928
   16SAPS   C11 2005   6.137   4.188   2.143
   16SAPS  H11A 2006   6.230   4.245   2.163
   16SAPS  H11B 2007   6.146   4.152   2.039
   16SAPS     P 2008   6.264   3.972   2.225
   16SAPS   O13 2009   6.292   3.916   2.090
   16SAPS   O14 2010   6.388   4.022   2.293
   16SAPS   O12 2011   6.142   4.076   2.232
   16SAPS   O11 2012   6.218   3.848   2.299
   16SAPS    C1 2013   6.091   3.814   2.353
   16SAPS    HA 2014   6.010   3.831   2.279
   16SAPS    HB 2015   6.084   3.706   2.374
   16SAPS    C2 2016   6.070   3.892   2.479
   16SAPS    HS 2017   6.138   3.978   2.460
   16SAPS   O21 2018   6.119   3.815   2.588
   16SAPS   C21 2019   6.154   3.889   2.696
   16SAPS   O22 2020   6.162   4.010   2.692
   16SAPS   C22 2021   6.189   3.798   2.811
   16SAPS   H2R 2022   6.139   3.702   2.786
   16SAPS   H2S 2023   6.299   3.781   2.814
   16SAPS    C3 2024   5.925   3.946   2.491
   16SAPS    HX 2025   5.859   3.856   2.494
   16SAPS    HY 2026   5.879   3.993   2.402
   16SAPS   O31 2027   5.894   4.016   2.612
   16SAPS   C31 2028   5.921   4.143   2.605
   16SAPS   O32 2029   5.976   4.198   2.509
   16SAPS   C32 2030   5.873   4.213   2.729
   16SAPS   H2X 2031   5.762   4.217   2.738
   16SAPS   H2Y 2032   5.906   4.318   2.711
   16SAPS   C23 2033   6.137   3.869   2.945
   16SAPS   H3R 2034   6.028   3.887   2.933
   16SAPS   H3S 2035   6.193   3.964   2.951
   16SAPS   C24 2036   6.163   3.784   3.076
   16SAPS   H4R 2037   6.098   3.694   3.083
   16SAPS   H4S 2038   6.126   3.861   3.146
   16SAPS   C25 2039   6.306   3.753   3.105
   16SAPS   H5R 2040   6.342   3.670   3.042
   16SAPS   C26 2041   6.375   3.810   3.202
   16SAPS   H6R 2042   6.481   3.784   3.217
   16SAPS   C27 2043   6.329   3.919   3.294
   16SAPS   H7R 2044   6.253   3.993   3.260
   16SAPS   H7S 2045   6.421   3.979   3.309
   16SAPS   C28 2046   6.283   3.855   3.423
   16SAPS   H8R 2047   6.343   3.769   3.455
   16SAPS   C29 2048   6.200   3.915   3.513
   16SAPS   H9R 2049   6.197   3.860   3.608
   16SAPS  C210 2050   6.125   4.042   3.500
   16SAPS  H10R 2051   6.018   4.025   3.525
   16SAPS  H10S 2052   6.138   4.078   3.396
   16SAPS  C211 2053   6.188   4.147   3.587
   16SAPS  H11R 2054   6.296   4.143   3.603
   16SAPS  C212 2055   6.130   4.248   3.649
   16SAPS  H12R 2056   6.204   4.304   3.708
   16SAPS  C213 2057   5.983   4.289   3.643
   16SAPS  H13R 2058   5.939   4.238   3.555
   16SAPS  H13S 2059   5.978   4.397   3.618
   16SAPS  C214 2060   5.915   4.254   3.772
   16SAPS  H14R 2061   5.978   4.186   3.832
   16SAPS  C215 2062   5.789   4.273   3.801
   16SAPS  H15R 2063   5.765   4.248   3.905
   16SAPS  C216 2064   5.679   4.340   3.722
   16SAPS  H16R 2065   5.592   4.281   3.683
   16SAPS  H16S 2066   5.725   4.372   3.626
   16SAPS  C217 2067   5.615   4.456   3.790
   16SAPS  H17R 2068   5.686   4.528   3.836
   16SAPS  H17S 2069   5.549   4.417   3.870
   16SAPS  C218 2070   5.519   4.550   3.707
   16SAPS  H18R 2071   5.433   4.487   3.675
   16SAPS  H18S 2072   5.572   4.586   3.617
   16SAPS  C219 2073   5.474   4.678   3.778
   16SAPS  H19R 2074   5.387   4.715   3.720
   16SAPS  H19S 2075   5.552   4.757   3.778
   16SAPS  C220 2076   5.423   4.660   3.919
   16SAPS  H20R 2077   5.505   4.619   3.982
   16SAPS  H20S 2078   5.335   4.592   3.925
   16SAPS  H20T 2079   5.389   4.756   3.964
   16SAPS   C33 2080   5.943   4.176   2.864
   16SAPS   H3X 2081   6.046   4.217   2.859
   16SAPS   H3Y 2082   5.954   4.068   2.885
   16SAPS   C34 2083   5.874   4.241   2.984
   16SAPS   H4X 2084   5.764   4.225   2.978
   16SAPS   H4Y 2085   5.881   4.352   2.979
   16SAPS   C35 2086   5.916   4.187   3.123
   16SAPS   H5X 2087   6.020   4.222   3.142
   16SAPS   H5Y 2088   5.912   4.078   3.104
   16SAPS   C36 2089   5.819   4.217   3.238
   16SAPS   H6X 2090   5.851   4.161   3.329
   16SAPS   H6Y 2091   5.717   4.181   3.212
   16SAPS   C37 2092   5.791   4.368   3.276
   16SAPS   H7X 2093   5.895   4.406   3.271
   16SAPS   H7Y 2094   5.749   4.363   3.379
   16SAPS   C38 2095   5.684   4.454   3.196
   16SAPS   H8X 2096   5.599   4.386   3.172
   16SAPS   H8Y 2097   5.725   4.469   3.095
   16SAPS   C39 2098   5.632   4.570   3.271
   16SAPS   H9X 2099   5.719   4.634   3.298
   16SAPS   H9Y 2100   5.587   4.533   3.366
   16SAPS  C310 2101   5.532   4.646   3.192
   16SAPS  H10X 2102   5.451   4.581   3.151
   16SAPS  H10Y 2103   5.587   4.676   3.100
   16SAPS  C311 2104   5.474   4.767   3.264
   16SAPS  H11X 2105   5.536   4.860   3.264
   16SAPS  H11Y 2106   5.460   4.754   3.374
   16SAPS  C312 2107   5.339   4.804   3.198
   16SAPS  H12X 2108   5.282   4.709   3.214
   16SAPS  H12Y 2109   5.355   4.817   3.089
   16SAPS  C313 2110   5.285   4.929   3.257
   16SAPS  H13X 2111   5.182   4.945   3.218
   16SAPS  H13Y 2112   5.350   5.018   3.252
   16SAPS  C314 2113   5.255   4.923   3.410
   16SAPS  H14X 2114   5.349   4.897   3.463
   16SAPS  H14Y 2115   5.190   4.834   3.427
   16SAPS  C315 2116   5.189   5.043   3.472
   16SAPS  H15X 2117   5.091   5.065   3.424
   16SAPS  H15Y 2118   5.252   5.133   3.459
   16SAPS  C316 2119   5.158   5.010   3.621
   16SAPS  H16X 2120   5.254   4.990   3.674
   16SAPS  H16Y 2121   5.090   4.923   3.624
   16SAPS  C317 2122   5.088   5.137   3.682
   16SAPS  H17X 2123   4.990   5.155   3.634
   16SAPS  H17Y 2124   5.147   5.227   3.657
   16SAPS  C318 2125   5.066   5.118   3.831
   16SAPS  H18X 2126   5.002   5.030   3.854
   16SAPS  H18Y 2127   5.014   5.209   3.869
   16SAPS  H18Z 2128   5.163   5.103   3.883
   17SAPS     N 2129   1.547   2.674   1.780
   17SAPS   HN1 2130   1.477   2.652   1.854
   17SAPS   HN2 2131   1.637   2.635   1.816
   17SAPS   HN3 2132   1.544   2.778   1.775
   17SAPS   C12 2133   1.508   2.615   1.650
   17SAPS  H12A 2134   1.405   2.643   1.636
   17SAPS   C13 2135   1.572   2.662   1.523
   17SAPS  O13A 2136   1.657   2.755   1.528
   17SAPS  O13B 2137   1.533   2.619   1.411
   17SAPS   C11 2138   1.517   2.456   1.648
   17SAPS  H11A 2139   1.628   2.448   1.655
   17SAPS  H11B 2140   1.480   2.406   1.555
   17SAPS     P 2141   1.395   2.258   1.786
   17SAPS   O13 2142   1.249   2.251   1.758
   17SAPS   O14 2143   1.493   2.155   1.728
   17SAPS   O12 2144   1.447   2.408   1.766
   17SAPS   O11 2145   1.405   2.242   1.940
   17SAPS    C1 2146   1.488   2.326   2.015
   17SAPS    HA 2147   1.591   2.337   1.975
   17SAPS    HB 2148   1.447   2.429   2.014
   17SAPS    C2 2149   1.493   2.273   2.161
   17SAPS    HS 2150   1.540   2.350   2.226
   17SAPS   O21 2151   1.556   2.146   2.191
   17SAPS   C21 2152   1.675   2.139   2.152
   17SAPS   O22 2153   1.752   2.222   2.105
   17SAPS   C22 2154   1.712   1.997   2.198
   17SAPS   H2R 2155   1.736   2.008   2.306
   17SAPS   H2S 2156   1.636   1.918   2.182
   17SAPS    C3 2157   1.350   2.259   2.215
   17SAPS    HX 2158   1.309   2.172   2.160
   17SAPS    HY 2159   1.278   2.340   2.187
   17SAPS   O31 2160   1.334   2.233   2.353
   17SAPS   C31 2161   1.358   2.111   2.396
   17SAPS   O32 2162   1.349   2.006   2.327
   17SAPS   C32 2163   1.396   2.100   2.544
   17SAPS   H2X 2164   1.367   2.203   2.574
   17SAPS   H2Y 2165   1.506   2.087   2.551
   17SAPS   C23 2166   1.846   1.956   2.137
   17SAPS   H3R 2167   1.915   2.042   2.148
   17SAPS   H3S 2168   1.836   1.937   2.028
   17SAPS   C24 2169   1.914   1.831   2.201
   17SAPS   H4R 2170   1.848   1.741   2.192
   17SAPS   H4S 2171   1.913   1.852   2.310
   17SAPS   C25 2172   2.050   1.812   2.140
   17SAPS   H5R 2173   2.059   1.795   2.032
   17SAPS   C26 2174   2.167   1.805   2.210
   17SAPS   H6R 2175   2.265   1.802   2.160
   17SAPS   C27 2176   2.181   1.800   2.359
   17SAPS   H7R 2177   2.085   1.830   2.405
   17SAPS   H7S 2178   2.239   1.887   2.398
   17SAPS   C28 2179   2.219   1.662   2.413
   17SAPS   H8R 2180   2.273   1.594   2.345
   17SAPS   C29 2181   2.214   1.627   2.539
   17SAPS   H9R 2182   2.238   1.520   2.550
   17SAPS  C210 2183   2.146   1.700   2.652
   17SAPS  H10R 2184   2.039   1.709   2.624
   17SAPS  H10S 2185   2.191   1.802   2.649
   17SAPS  C211 2186   2.155   1.645   2.790
   17SAPS  H11R 2187   2.228   1.701   2.850
   17SAPS  C212 2188   2.095   1.532   2.836
   17SAPS  H12R 2189   2.116   1.500   2.939
   17SAPS  C213 2190   2.003   1.435   2.762
   17SAPS  H13R 2191   1.984   1.469   2.659
   17SAPS  H13S 2192   1.902   1.428   2.809
   17SAPS  C214 2193   2.068   1.298   2.748
   17SAPS  H14R 2194   2.084   1.272   2.643
   17SAPS  C215 2195   2.098   1.204   2.842
   17SAPS  H15R 2196   2.142   1.107   2.813
   17SAPS  C216 2197   2.074   1.215   2.990
   17SAPS  H16R 2198   2.001   1.297   3.010
   17SAPS  H16S 2199   2.165   1.232   3.051
   17SAPS  C217 2200   2.010   1.085   3.042
   17SAPS  H17R 2201   2.085   1.006   3.023
   17SAPS  H17S 2202   1.922   1.062   2.978
   17SAPS  C218 2203   1.974   1.091   3.191
   17SAPS  H18R 2204   1.887   1.160   3.197
   17SAPS  H18S 2205   2.055   1.141   3.249
   17SAPS  C219 2206   1.953   0.952   3.264
   17SAPS  H19R 2207   2.043   0.896   3.229
   17SAPS  H19S 2208   1.867   0.905   3.212
   17SAPS  C220 2209   1.931   0.963   3.414
   17SAPS  H20R 2210   1.906   0.863   3.458
   17SAPS  H20S 2211   1.862   1.044   3.445
   17SAPS  H20T 2212   2.027   0.984   3.465
   17SAPS   C33 2213   1.308   1.992   2.627
   17SAPS   H3X 2214   1.331   1.891   2.587
   17SAPS   H3Y 2215   1.200   2.014   2.609
   17SAPS   C34 2216   1.331   1.989   2.780
   17SAPS   H4X 2217   1.301   2.086   2.826
   17SAPS   H4Y 2218   1.438   1.975   2.807
   17SAPS   C35 2219   1.249   1.881   2.851
   17SAPS   H5X 2220   1.258   1.778   2.810
   17SAPS   H5Y 2221   1.144   1.897   2.819
   17SAPS   C36 2222   1.259   1.897   3.007
   17SAPS   H6X 2223   1.285   2.004   3.025
   17SAPS   H6Y 2224   1.356   1.851   3.037
   17SAPS   C37 2225   1.139   1.851   3.088
   17SAPS   H7X 2226   1.120   1.744   3.062
   17SAPS   H7Y 2227   1.049   1.912   3.066
   17SAPS   C38 2228   1.155   1.881   3.241
   17SAPS   H8X 2229   1.189   1.985   3.259
   17SAPS   H8Y 2230   1.237   1.822   3.288
   17SAPS   C39 2231   1.029   1.852   3.330
   17SAPS   H9X 2232   0.978   1.761   3.290
   17SAPS   H9Y 2233   0.967   1.943   3.316
   17SAPS  C310 2234   1.053   1.841   3.483
   17SAPS  H10X 2235   1.133   1.766   3.501
   17SAPS  H10Y 2236   0.957   1.817   3.533
   17SAPS  C311 2237   1.093   1.977   3.553
   17SAPS  H11X 2238   1.040   2.065   3.510
   17SAPS  H11Y 2239   1.200   1.994   3.527
   17SAPS  C312 2240   1.074   1.974   3.708
   17SAPS  H12X 2241   1.124   2.062   3.755
   17SAPS  H12Y 2242   1.132   1.892   3.756
   17SAPS  C313 2243   0.935   1.973   3.758
   17SAPS  H13X 2244   0.892   1.878   3.720
   17SAPS  H13Y 2245   0.866   2.049   3.715
   17SAPS  C314 2246   0.932   1.966   3.906
   17SAPS  H14X 2247   0.994   1.882   3.945
   17SAPS  H14Y 2248   0.825   1.948   3.930
   17SAPS  C315 2249   0.973   2.094   3.968
   17SAPS  H15X 2250   0.943   2.178   3.901
   17SAPS  H15Y 2251   1.083   2.101   3.975
   17SAPS  C316 2252   0.915   2.116   4.113
   17SAPS  H16X 2253   0.906   2.016   4.161
   17SAPS  H16Y 2254   0.816   2.165   4.102
   17SAPS  C317 2255   0.999   2.190   4.217
   17SAPS  H17X 2256   1.086   2.125   4.243
   17SAPS  H17Y 2257   0.938   2.205   4.308
   17SAPS  C318 2258   1.060   2.322   4.185
   17SAPS  H18X 2259   1.140   2.354   4.255
   17SAPS  H18Y 2260   0.980   2.398   4.177
   17SAPS  H18Z 2261   1.113   2.322   4.087
   18SAPS     N 2262   4.583   2.565   2.004
   18SAPS   HN1 2263   4.565   2.487   2.071
   18SAPS   HN2 2264   4.535   2.655   2.025
   18SAPS   HN3 2265   4.564   2.527   1.909
   18SAPS   C12 2266   4.729   2.605   2.000
   18SAPS  H12A 2267   4.788   2.514   1.996
   18SAPS   C13 2268   4.770   2.692   1.875
   18SAPS  O13A 2269   4.685   2.715   1.783
   18SAPS  O13B 2270   4.888   2.723   1.865
   18SAPS   C11 2271   4.751   2.690   2.130
   18SAPS  H11A 2272   4.860   2.712   2.132
   18SAPS  H11B 2273   4.721   2.628   2.217
   18SAPS     P 2274   4.554   2.853   2.219
   18SAPS   O13 2275   4.531   2.999   2.217
   18SAPS   O14 2276   4.446   2.767   2.164
   18SAPS   O12 2277   4.681   2.816   2.127
   18SAPS   O11 2278   4.570   2.811   2.360
   18SAPS    C1 2279   4.704   2.833   2.419
   18SAPS    HA 2280   4.777   2.761   2.376
   18SAPS    HB 2281   4.741   2.937   2.408
   18SAPS    C2 2282   4.705   2.816   2.579
   18SAPS    HS 2283   4.812   2.792   2.601
   18SAPS   O21 2284   4.614   2.708   2.619
   18SAPS   C21 2285   4.656   2.639   2.732
   18SAPS   O22 2286   4.757   2.667   2.801
   18SAPS   C22 2287   4.568   2.517   2.743
   18SAPS   H2R 2288   4.463   2.554   2.743
   18SAPS   H2S 2289   4.588   2.445   2.661
   18SAPS    C3 2290   4.669   2.948   2.655
   18SAPS    HX 2291   4.584   2.992   2.599
   18SAPS    HY 2292   4.750   3.024   2.648
   18SAPS   O31 2293   4.625   2.924   2.795
   18SAPS   C31 2294   4.714   2.968   2.886
   18SAPS   O32 2295   4.828   3.013   2.860
   18SAPS   C32 2296   4.668   2.948   3.034
   18SAPS   H2X 2297   4.631   2.844   3.049
   18SAPS   H2Y 2298   4.592   3.025   3.058
   18SAPS   C23 2299   4.603   2.439   2.872
   18SAPS   H3R 2300   4.571   2.500   2.960
   18SAPS   H3S 2301   4.710   2.412   2.881
   18SAPS   C24 2302   4.518   2.308   2.884
   18SAPS   H4R 2303   4.575   2.251   2.961
   18SAPS   H4S 2304   4.535   2.256   2.788
   18SAPS   C25 2305   4.366   2.308   2.902
   18SAPS   H5R 2306   4.308   2.340   2.815
   18SAPS   C26 2307   4.302   2.262   3.015
   18SAPS   H6R 2308   4.193   2.269   3.009
   18SAPS   C27 2309   4.361   2.215   3.141
   18SAPS   H7R 2310   4.442   2.140   3.124
   18SAPS   H7S 2311   4.272   2.174   3.194
   18SAPS   C28 2312   4.412   2.333   3.219
   18SAPS   H8R 2313   4.452   2.411   3.154
   18SAPS   C29 2314   4.429   2.322   3.351
   18SAPS   H9R 2315   4.446   2.406   3.420
   18SAPS  C210 2316   4.373   2.206   3.436
   18SAPS  H10R 2317   4.275   2.180   3.392
   18SAPS  H10S 2318   4.337   2.243   3.534
   18SAPS  C211 2319   4.459   2.081   3.452
   18SAPS  H11R 2320   4.534   2.068   3.372
   18SAPS  C212 2321   4.455   1.996   3.558
   18SAPS  H12R 2322   4.521   1.908   3.552
   18SAPS  C213 2323   4.363   1.998   3.677
   18SAPS  H13R 2324   4.261   2.012   3.637
   18SAPS  H13S 2325   4.385   2.086   3.742
   18SAPS  C214 2326   4.383   1.868   3.756
   18SAPS  H14R 2327   4.433   1.779   3.716
   18SAPS  C215 2328   4.347   1.858   3.885
   18SAPS  H15R 2329   4.370   1.768   3.943
   18SAPS  C216 2330   4.281   1.970   3.967
   18SAPS  H16R 2331   4.189   1.917   3.997
   18SAPS  H16S 2332   4.269   2.063   3.906
   18SAPS  C217 2333   4.339   2.016   4.102
   18SAPS  H17R 2334   4.287   2.101   4.150
   18SAPS  H17S 2335   4.446   2.046   4.091
   18SAPS  C218 2336   4.344   1.893   4.205
   18SAPS  H18R 2337   4.390   1.804   4.157
   18SAPS  H18S 2338   4.243   1.867   4.243
   18SAPS  C219 2339   4.434   1.920   4.327
   18SAPS  H19R 2340   4.394   2.013   4.373
   18SAPS  H19S 2341   4.537   1.944   4.296
   18SAPS  C220 2342   4.432   1.804   4.428
   18SAPS  H20R 2343   4.444   1.700   4.390
   18SAPS  H20S 2344   4.340   1.815   4.488
   18SAPS  H20T 2345   4.522   1.817   4.492
   18SAPS   C33 2346   4.789   2.962   3.125
   18SAPS   H3X 2347   4.835   3.063   3.120
   18SAPS   H3Y 2348   4.875   2.895   3.102
   18SAPS   C34 2349   4.743   2.928   3.268
   18SAPS   H4X 2350   4.681   2.836   3.262
   18SAPS   H4Y 2351   4.665   3.001   3.297
   18SAPS   C35 2352   4.855   2.916   3.371
   18SAPS   H5X 2353   4.910   3.012   3.361
   18SAPS   H5Y 2354   4.929   2.836   3.349
   18SAPS   C36 2355   4.802   2.895   3.512
   18SAPS   H6X 2356   4.712   2.952   3.542
   18SAPS   H6Y 2357   4.886   2.941   3.567
   18SAPS   C37 2358   4.780   2.747   3.549
   18SAPS   H7X 2359   4.877   2.695   3.535
   18SAPS   H7Y 2360   4.719   2.700   3.469
   18SAPS   C38 2361   4.754   2.701   3.692
   18SAPS   H8X 2362   4.825   2.743   3.766
   18SAPS   H8Y 2363   4.769   2.591   3.695
   18SAPS   C39 2364   4.617   2.740   3.744
   18SAPS   H9X 2365   4.552   2.681   3.676
   18SAPS   H9Y 2366   4.599   2.846   3.715
   18SAPS  C310 2367   4.600   2.729   3.898
   18SAPS  H10X 2368   4.506   2.777   3.933
   18SAPS  H10Y 2369   4.677   2.790   3.950
   18SAPS  C311 2370   4.605   2.590   3.957
   18SAPS  H11X 2371   4.707   2.545   3.950
   18SAPS  H11Y 2372   4.530   2.527   3.905
   18SAPS  C312 2373   4.567   2.596   4.107
   18SAPS  H12X 2374   4.480   2.663   4.122
   18SAPS  H12Y 2375   4.646   2.646   4.166
   18SAPS  C313 2376   4.545   2.458   4.169
   18SAPS  H13X 2377   4.458   2.409   4.120
   18SAPS  H13Y 2378   4.508   2.476   4.273
   18SAPS  C314 2379   4.670   2.376   4.176
   18SAPS  H14X 2380   4.758   2.443   4.167
   18SAPS  H14Y 2381   4.680   2.303   4.092
   18SAPS  C315 2382   4.679   2.293   4.306
   18SAPS  H15X 2383   4.596   2.218   4.307
   18SAPS  H15Y 2384   4.687   2.354   4.398
   18SAPS  C316 2385   4.813   2.223   4.316
   18SAPS  H16X 2386   4.897   2.296   4.322
   18SAPS  H16Y 2387   4.830   2.168   4.221
   18SAPS  C317 2388   4.808   2.123   4.429
   18SAPS  H17X 2389   4.717   2.061   4.415
   18SAPS  H17Y 2390   4.798   2.198   4.510
   18SAPS  C318 2391   4.942   2.047   4.455
   18SAPS  H18X 2392   4.911   1.968   4.527
   18SAPS  H18Y 2393   5.013   2.109   4.515
   18SAPS  H18Z 2394   4.992   2.003   4.367
   19SAPS     N 2395   4.653   4.569   2.057
   19SAPS   HN1 2396   4.719   4.488   2.057
   19SAPS   HN2 2397   4.609   4.582   2.151
   19SAPS   HN3 2398   4.576   4.543   1.992
   19SAPS   C12 2399   4.722   4.690   2.005
   19SAPS  H12A 2400   4.792   4.717   2.083
   19SAPS   C13 2401   4.812   4.660   1.888
   19SAPS  O13A 2402   4.823   4.545   1.840
   19SAPS  O13B 2403   4.874   4.756   1.840
   19SAPS   C11 2404   4.631   4.820   1.993
   19SAPS  H11A 2405   4.536   4.804   1.937
   19SAPS  H11B 2406   4.682   4.909   1.949
   19SAPS     P 2407   4.523   4.991   2.165
   19SAPS   O13 2408   4.626   5.091   2.167
   19SAPS   O14 2409   4.403   5.020   2.079
   19SAPS   O12 2410   4.585   4.850   2.127
   19SAPS   O11 2411   4.472   4.970   2.311
   19SAPS    C1 2412   4.507   4.866   2.402
   19SAPS    HA 2413   4.587   4.810   2.350
   19SAPS    HB 2414   4.539   4.918   2.495
   19SAPS    C2 2415   4.390   4.771   2.445
   19SAPS    HS 2416   4.376   4.706   2.356
   19SAPS   O21 2417   4.267   4.844   2.459
   19SAPS   C21 2418   4.159   4.772   2.454
   19SAPS   O22 2419   4.154   4.653   2.420
   19SAPS   C22 2420   4.030   4.842   2.491
   19SAPS   H2R 2421   3.964   4.829   2.403
   19SAPS   H2S 2422   3.990   4.794   2.583
   19SAPS    C3 2423   4.423   4.702   2.578
   19SAPS    HX 2424   4.516   4.642   2.562
   19SAPS    HY 2425   4.346   4.626   2.604
   19SAPS   O31 2426   4.450   4.789   2.691
   19SAPS   C31 2427   4.349   4.814   2.761
   19SAPS   O32 2428   4.236   4.766   2.757
   19SAPS   C32 2429   4.390   4.916   2.863
   19SAPS   H2X 2430   4.428   5.007   2.812
   19SAPS   H2Y 2431   4.479   4.886   2.922
   19SAPS   C23 2432   4.059   4.989   2.529
   19SAPS   H3R 2433   4.125   5.048   2.463
   19SAPS   H3S 2434   4.095   4.985   2.634
   19SAPS   C24 2435   3.938   5.083   2.524
   19SAPS   H4R 2436   3.849   5.045   2.577
   19SAPS   H4S 2437   3.896   5.087   2.421
   19SAPS   C25 2438   3.947   5.227   2.562
   19SAPS   H5R 2439   3.990   5.294   2.486
   19SAPS   C26 2440   3.928   5.268   2.692
   19SAPS   H6R 2441   3.951   5.369   2.729
   19SAPS   C27 2442   3.867   5.187   2.804
   19SAPS   H7R 2443   3.853   5.078   2.790
   19SAPS   H7S 2444   3.764   5.224   2.820
   19SAPS   C28 2445   3.944   5.223   2.935
   19SAPS   H8R 2446   4.051   5.249   2.926
   19SAPS   C29 2447   3.894   5.221   3.063
   19SAPS   H9R 2448   3.958   5.262   3.142
   19SAPS  C210 2449   3.747   5.205   3.106
   19SAPS  H10R 2450   3.738   5.114   3.169
   19SAPS  H10S 2451   3.688   5.174   3.017
   19SAPS  C211 2452   3.686   5.334   3.162
   19SAPS  H11R 2453   3.689   5.418   3.092
   19SAPS  C212 2454   3.618   5.351   3.271
   19SAPS  H12R 2455   3.575   5.449   3.295
   19SAPS  C213 2456   3.578   5.243   3.373
   19SAPS  H13R 2457   3.554   5.146   3.325
   19SAPS  H13S 2458   3.487   5.285   3.420
   19SAPS  C214 2459   3.695   5.235   3.468
   19SAPS  H14R 2460   3.783   5.190   3.421
   19SAPS  C215 2461   3.685   5.277   3.594
   19SAPS  H15R 2462   3.773   5.266   3.659
   19SAPS  C216 2463   3.571   5.340   3.672
   19SAPS  H16R 2464   3.482   5.283   3.637
   19SAPS  H16S 2465   3.566   5.447   3.646
   19SAPS  C217 2466   3.591   5.333   3.819
   19SAPS  H17R 2467   3.507   5.378   3.877
   19SAPS  H17S 2468   3.680   5.390   3.854
   19SAPS  C218 2469   3.615   5.195   3.870
   19SAPS  H18R 2470   3.714   5.150   3.846
   19SAPS  H18S 2471   3.538   5.130   3.824
   19SAPS  C219 2472   3.601   5.178   4.025
   19SAPS  H19R 2473   3.492   5.187   4.046
   19SAPS  H19S 2474   3.648   5.264   4.078
   19SAPS  C220 2475   3.652   5.041   4.070
   19SAPS  H20R 2476   3.609   5.013   4.168
   19SAPS  H20S 2477   3.762   5.031   4.077
   19SAPS  H20T 2478   3.610   4.959   4.008
   19SAPS   C33 2479   4.272   4.964   2.941
   19SAPS   H3X 2480   4.191   4.988   2.870
   19SAPS   H3Y 2481   4.304   5.054   2.998
   19SAPS   C34 2482   4.230   4.875   3.055
   19SAPS   H4X 2483   4.313   4.848   3.124
   19SAPS   H4Y 2484   4.190   4.777   3.021
   19SAPS   C35 2485   4.122   4.934   3.139
   19SAPS   H5X 2486   4.021   4.926   3.092
   19SAPS   H5Y 2487   4.147   5.040   3.163
   19SAPS   C36 2488   4.114   4.865   3.280
   19SAPS   H6X 2489   4.209   4.853   3.336
   19SAPS   H6Y 2490   4.078   4.762   3.264
   19SAPS   C37 2491   4.021   4.958   3.370
   19SAPS   H7X 2492   3.926   4.993   3.324
   19SAPS   H7Y 2493   4.083   5.048   3.387
   19SAPS   C38 2494   3.986   4.888   3.503
   19SAPS   H8X 2495   4.080   4.840   3.536
   19SAPS   H8Y 2496   3.910   4.812   3.477
   19SAPS   C39 2497   3.919   4.972   3.615
   19SAPS   H9X 2498   3.814   4.989   3.582
   19SAPS   H9Y 2499   3.965   5.073   3.616
   19SAPS  C310 2500   3.917   4.901   3.753
   19SAPS  H10X 2501   3.938   4.795   3.730
   19SAPS  H10Y 2502   3.815   4.908   3.797
   19SAPS  C311 2503   4.018   4.953   3.845
   19SAPS  H11X 2504   3.986   4.934   3.950
   19SAPS  H11Y 2505   4.011   5.064   3.839
   19SAPS  C312 2506   4.152   4.896   3.825
   19SAPS  H12X 2507   4.173   4.942   3.726
   19SAPS  H12Y 2508   4.167   4.786   3.820
   19SAPS  C313 2509   4.252   4.937   3.938
   19SAPS  H13X 2510   4.212   4.923   4.041
   19SAPS  H13Y 2511   4.270   5.045   3.921
   19SAPS  C314 2512   4.393   4.876   3.931
   19SAPS  H14X 2513   4.394   4.792   3.858
   19SAPS  H14Y 2514   4.431   4.834   4.027
   19SAPS  C315 2515   4.497   4.986   3.885
   19SAPS  H15X 2516   4.479   5.064   3.962
   19SAPS  H15Y 2517   4.463   5.025   3.787
   19SAPS  C316 2518   4.644   4.941   3.871
   19SAPS  H16X 2519   4.696   5.017   3.809
   19SAPS  H16Y 2520   4.671   4.845   3.822
   19SAPS  C317 2521   4.708   4.930   4.010
   19SAPS  H17X 2522   4.816   4.909   3.993
   19SAPS  H17Y 2523   4.662   4.838   4.053
   19SAPS  C318 2524   4.687   5.046   4.105
   19SAPS  H18X 2525   4.772   5.073   4.172
   19SAPS  H18Y 2526   4.606   5.017   4.176
   19SAPS  H18Z 2527   4.655   5.136   4.049
   20SAPS     N 2528   4.843   5.701   2.201
   20SAPS   HN1 2529   4.764   5.718   2.266
   20SAPS   HN2 2530   4.803   5.654   2.117
   20SAPS   HN3 2531   4.914   5.643   2.250
   20SAPS   C12 2532   4.911   5.823   2.144
   20SAPS  H12A 2533   4.967   5.871   2.223
   20SAPS   C13 2534   5.018   5.786   2.035
   20SAPS  O13A 2535   5.034   5.662   1.998
   20SAPS  O13B 2536   5.089   5.879   1.990
   20SAPS   C11 2537   4.800   5.927   2.094
   20SAPS  H11A 2538   4.744   5.880   2.010
   20SAPS  H11B 2539   4.850   6.013   2.046
   20SAPS     P 2540   4.751   6.082   2.299
   20SAPS   O13 2541   4.815   6.193   2.225
   20SAPS   O14 2542   4.640   6.129   2.383
   20SAPS   O12 2543   4.705   5.973   2.190
   20SAPS   O11 2544   4.864   6.006   2.389
   20SAPS    C1 2545   4.830   5.918   2.493
   20SAPS    HA 2546   4.727   5.878   2.481
   20SAPS    HB 2547   4.903   5.835   2.481
   20SAPS    C2 2548   4.842   5.973   2.632
   20SAPS    HS 2549   4.783   6.067   2.624
   20SAPS   O21 2550   4.973   5.978   2.672
   20SAPS   C21 2551   5.035   6.095   2.645
   20SAPS   O22 2552   4.977   6.192   2.595
   20SAPS   C22 2553   5.177   6.084   2.709
   20SAPS   H2R 2554   5.192   5.984   2.754
   20SAPS   H2S 2555   5.242   6.094   2.619
   20SAPS    C3 2556   4.769   5.883   2.726
   20SAPS    HX 2557   4.774   5.944   2.819
   20SAPS    HY 2558   4.836   5.796   2.744
   20SAPS   O31 2559   4.637   5.841   2.684
   20SAPS   C31 2560   4.545   5.839   2.778
   20SAPS   O32 2561   4.563   5.884   2.890
   20SAPS   C32 2562   4.419   5.762   2.732
   20SAPS   H2X 2563   4.437   5.654   2.715
   20SAPS   H2Y 2564   4.391   5.800   2.631
   20SAPS   C23 2565   5.201   6.191   2.822
   20SAPS   H3R 2566   5.184   6.295   2.789
   20SAPS   H3S 2567   5.311   6.190   2.838
   20SAPS   C24 2568   5.126   6.185   2.959
   20SAPS   H4R 2569   5.185   6.244   3.032
   20SAPS   H4S 2570   5.140   6.082   2.998
   20SAPS   C25 2571   4.974   6.227   2.950
   20SAPS   H5R 2572   4.915   6.193   2.863
   20SAPS   C26 2573   4.915   6.304   3.041
   20SAPS   H6R 2574   4.807   6.318   3.027
   20SAPS   C27 2575   4.969   6.374   3.165
   20SAPS   H7R 2576   5.025   6.297   3.221
   20SAPS   H7S 2577   4.890   6.408   3.235
   20SAPS   C28 2578   5.080   6.478   3.142
   20SAPS   H8R 2579   5.069   6.527   3.045
   20SAPS   C29 2580   5.179   6.498   3.229
   20SAPS   H9R 2581   5.263   6.568   3.215
   20SAPS  C210 2582   5.195   6.442   3.375
   20SAPS  H10R 2583   5.098   6.401   3.408
   20SAPS  H10S 2584   5.214   6.517   3.454
   20SAPS  C211 2585   5.286   6.320   3.400
   20SAPS  H11R 2586   5.310   6.254   3.315
   20SAPS  C212 2587   5.348   6.299   3.521
   20SAPS  H12R 2588   5.422   6.218   3.523
   20SAPS  C213 2589   5.331   6.383   3.643
   20SAPS  H13R 2590   5.223   6.406   3.661
   20SAPS  H13S 2591   5.385   6.479   3.632
   20SAPS  C214 2592   5.378   6.306   3.763
   20SAPS  H14R 2593   5.363   6.197   3.753
   20SAPS  C215 2594   5.433   6.349   3.875
   20SAPS  H15R 2595   5.472   6.272   3.942
   20SAPS  C216 2596   5.459   6.496   3.905
   20SAPS  H16R 2597   5.398   6.560   3.839
   20SAPS  H16S 2598   5.568   6.520   3.902
   20SAPS  C217 2599   5.404   6.532   4.043
   20SAPS  H17R 2600   5.461   6.470   4.115
   20SAPS  H17S 2601   5.301   6.491   4.044
   20SAPS  C218 2602   5.398   6.683   4.063
   20SAPS  H18R 2603   5.313   6.718   4.125
   20SAPS  H18S 2604   5.394   6.748   3.973
   20SAPS  C219 2605   5.519   6.731   4.151
   20SAPS  H19R 2606   5.612   6.688   4.109
   20SAPS  H19S 2607   5.516   6.692   4.255
   20SAPS  C220 2608   5.529   0.006   4.162
   20SAPS  H20R 2609   5.601   0.018   4.245
   20SAPS  H20S 2610   5.428   0.045   4.185
   20SAPS  H20T 2611   5.578   0.050   4.072
   20SAPS   C33 2612   4.298   5.792   2.825
   20SAPS   H3X 2613   4.289   5.898   2.857
   20SAPS   H3Y 2614   4.329   5.743   2.920
   20SAPS   C34 2615   4.165   5.744   2.767
   20SAPS   H4X 2616   4.185   5.646   2.720
   20SAPS   H4Y 2617   4.142   5.819   2.688
   20SAPS   C35 2618   4.040   5.752   2.857
   20SAPS   H5X 2619   3.946   5.717   2.809
   20SAPS   H5Y 2620   4.023   5.859   2.882
   20SAPS   C36 2621   4.057   5.663   2.989
   20SAPS   H6X 2622   4.123   5.736   3.039
   20SAPS   H6Y 2623   4.123   5.576   2.973
   20SAPS   C37 2624   3.937   5.647   3.071
   20SAPS   H7X 2625   3.901   5.543   3.060
   20SAPS   H7Y 2626   3.862   5.715   3.025
   20SAPS   C38 2627   3.969   5.675   3.215
   20SAPS   H8X 2628   3.995   5.782   3.224
   20SAPS   H8Y 2629   4.059   5.618   3.248
   20SAPS   C39 2630   3.858   5.640   3.310
   20SAPS   H9X 2631   3.822   5.537   3.292
   20SAPS   H9Y 2632   3.762   5.694   3.297
   20SAPS  C310 2633   3.902   5.655   3.457
   20SAPS  H10X 2634   3.976   5.736   3.447
   20SAPS  H10Y 2635   3.954   5.564   3.495
   20SAPS  C311 2636   3.785   5.687   3.549
   20SAPS  H11X 2637   3.698   5.619   3.540
   20SAPS  H11Y 2638   3.736   5.780   3.514
   20SAPS  C312 2639   3.829   5.680   3.697
   20SAPS  H12X 2640   3.910   5.754   3.717
   20SAPS  H12Y 2641   3.875   5.586   3.736
   20SAPS  C313 2642   3.716   5.704   3.798
   20SAPS  H13X 2643   3.651   5.613   3.800
   20SAPS  H13Y 2644   3.653   5.790   3.767
   20SAPS  C314 2645   3.764   5.712   3.942
   20SAPS  H14X 2646   3.828   5.801   3.957
   20SAPS  H14Y 2647   3.820   5.617   3.957
   20SAPS  C315 2648   3.646   5.725   4.038
   20SAPS  H15X 2649   3.593   5.627   4.044
   20SAPS  H15Y 2650   3.585   5.804   3.990
   20SAPS  C316 2651   3.693   5.754   4.186
   20SAPS  H16X 2652   3.610   5.753   4.260
   20SAPS  H16Y 2653   3.728   5.860   4.187
   20SAPS  C317 2654   3.814   5.669   4.229
   20SAPS  H17X 2655   3.896   5.684   4.156
   20SAPS  H17Y 2656   3.795   5.560   4.215
   20SAPS  C318 2657   3.866   5.709   4.364
   20SAPS  H18X 2658   3.893   5.816   4.377
   20SAPS  H18Y 2659   3.948   5.640   4.394
   20SAPS  H18Z 2660   3.788   5.695   4.441
   21CHL1    C3 2661   1.900   3.642   5.804
   21CHL1    H3 2662   1.985   3.570   5.803
   21CHL1    O3 2663   1.858   3.670   5.942
   21CHL1   H3' 2664   1.789   3.733   5.921
   21CHL1    C4 2665   1.956   3.766   5.746
   21CHL1   H4A 2666   1.876   3.837   5.778
   21CHL1   H4B 2667   2.039   3.808   5.807
   21CHL1    C5 2668   1.985   3.765   5.598
   21CHL1    C6 2669   2.105   3.800   5.548
   21CHL1    H6 2670   2.182   3.850   5.609
   21CHL1    C7 2671   2.143   3.803   5.405
   21CHL1   H7A 2672   2.200   3.897   5.390
   21CHL1   H7B 2673   2.215   3.725   5.373
   21CHL1    C8 2674   2.018   3.787   5.322
   21CHL1    H8 2675   1.965   3.884   5.330
   21CHL1   C14 2676   2.054   3.762   5.176
   21CHL1   H14 2677   2.110   3.666   5.181
   21CHL1   C15 2678   2.157   3.862   5.102
   21CHL1  H15A 2679   2.131   3.966   5.130
   21CHL1  H15B 2680   2.264   3.849   5.129
   21CHL1   C16 2681   2.138   3.831   4.955
   21CHL1  H16A 2682   2.125   3.932   4.910
   21CHL1  H16B 2683   2.226   3.789   4.903
   21CHL1   C17 2684   2.013   3.742   4.947
   21CHL1   H17 2685   2.043   3.635   4.941
   21CHL1   C13 2686   1.937   3.749   5.079
   21CHL1   C18 2687   1.848   3.880   5.074
   21CHL1  H18A 2688   1.813   3.897   5.178
   21CHL1  H18B 2689   1.907   3.963   5.030
   21CHL1  H18C 2690   1.755   3.867   5.014
   21CHL1   C12 2691   1.862   3.618   5.119
   21CHL1  H12A 2692   1.772   3.592   5.058
   21CHL1  H12B 2693   1.937   3.536   5.108
   21CHL1   C11 2694   1.817   3.634   5.267
   21CHL1  H11A 2695   1.740   3.713   5.254
   21CHL1  H11B 2696   1.765   3.538   5.287
   21CHL1    C9 2697   1.932   3.668   5.367
   21CHL1    H9 2698   1.998   3.579   5.374
   21CHL1   C10 2699   1.879   3.696   5.508
   21CHL1   C19 2700   1.757   3.793   5.493
   21CHL1  H19A 2701   1.764   3.851   5.399
   21CHL1  H19B 2702   1.670   3.727   5.472
   21CHL1  H19C 2703   1.731   3.851   5.584
   21CHL1    C1 2704   1.825   3.570   5.577
   21CHL1   H1A 2705   1.747   3.528   5.511
   21CHL1   H1B 2706   1.904   3.492   5.575
   21CHL1    C2 2707   1.782   3.590   5.726
   21CHL1   H2A 2708   1.737   3.497   5.766
   21CHL1   H2B 2709   1.700   3.666   5.729
   21CHL1   C20 2710   1.934   3.768   4.812
   21CHL1   H20 2711   1.910   3.876   4.805
   21CHL1   C21 2712   1.806   3.676   4.800
   21CHL1  H21A 2713   1.765   3.687   4.698
   21CHL1  H21B 2714   1.727   3.717   4.866
   21CHL1  H21C 2715   1.836   3.571   4.823
   21CHL1   C22 2716   2.021   3.751   4.686
   21CHL1  H22A 2717   2.122   3.788   4.716
   21CHL1  H22B 2718   2.026   3.643   4.659
   21CHL1   C23 2719   1.969   3.823   4.558
   21CHL1  H23A 2720   1.871   3.776   4.535
   21CHL1  H23B 2721   1.946   3.927   4.591
   21CHL1   C24 2722   2.075   3.825   4.437
   21CHL1  H24A 2723   2.168   3.870   4.478
   21CHL1  H24B 2724   2.094   3.715   4.426
   21CHL1   C25 2725   2.038   3.887   4.299
   21CHL1   H25 2726   2.015   3.994   4.323
   21CHL1   C26 2727   2.159   3.874   4.203
   21CHL1  H26A 2728   2.256   3.916   4.236
   21CHL1  H26B 2729   2.171   3.766   4.179
   21CHL1  H26C 2730   2.127   3.939   4.119
   21CHL1   C27 2731   1.908   3.822   4.237
   21CHL1  H27A 2732   1.910   3.712   4.251
   21CHL1  H27B 2733   1.823   3.865   4.294
   21CHL1  H27C 2734   1.906   3.856   4.131
   22CHL1    C3 2735   2.442   1.866   5.887
   22CHL1    H3 2736   2.544   1.860   5.844
   22CHL1    O3 2737   2.463   1.889   6.028
   22CHL1   H3' 2738   2.482   1.802   6.064
   22CHL1    C4 2739   2.367   1.984   5.824
   22CHL1   H4A 2740   2.273   1.990   5.883
   22CHL1   H4B 2741   2.421   2.079   5.843
   22CHL1    C5 2742   2.349   1.955   5.678
   22CHL1    C6 2743   2.396   2.039   5.579
   22CHL1    H6 2744   2.439   2.138   5.600
   22CHL1    C7 2745   2.377   2.015   5.433
   22CHL1   H7A 2746   2.340   2.104   5.378
   22CHL1   H7B 2747   2.473   1.982   5.386
   22CHL1    C8 2748   2.279   1.902   5.401
   22CHL1    H8 2749   2.171   1.928   5.411
   22CHL1   C14 2750   2.311   1.854   5.259
   22CHL1   H14 2751   2.413   1.810   5.269
   22CHL1   C15 2752   2.323   1.960   5.153
   22CHL1  H15A 2753   2.236   2.029   5.146
   22CHL1  H15B 2754   2.419   2.016   5.156
   22CHL1   C16 2755   2.326   1.879   5.016
   22CHL1  H16A 2756   2.246   1.936   4.963
   22CHL1  H16B 2757   2.425   1.885   4.967
   22CHL1   C17 2758   2.283   1.733   5.059
   22CHL1   H17 2759   2.377   1.678   5.081
   22CHL1   C13 2760   2.223   1.743   5.206
   22CHL1   C18 2761   2.075   1.789   5.186
   22CHL1  H18A 2762   2.051   1.851   5.275
   22CHL1  H18B 2763   2.056   1.848   5.094
   22CHL1  H18C 2764   2.015   1.698   5.163
   22CHL1   C12 2765   2.242   1.623   5.304
   22CHL1  H12A 2766   2.191   1.531   5.266
   22CHL1  H12B 2767   2.350   1.603   5.291
   22CHL1   C11 2768   2.214   1.655   5.456
   22CHL1  H11A 2769   2.104   1.664   5.464
   22CHL1  H11B 2770   2.235   1.569   5.523
   22CHL1    C9 2771   2.296   1.783   5.496
   22CHL1    H9 2772   2.402   1.751   5.485
   22CHL1   C10 2773   2.280   1.816   5.649
   22CHL1   C19 2774   2.131   1.828   5.694
   22CHL1  H19A 2775   2.072   1.734   5.692
   22CHL1  H19B 2776   2.117   1.872   5.795
   22CHL1  H19C 2777   2.076   1.891   5.621
   22CHL1    C1 2778   2.351   1.705   5.731
   22CHL1   H1A 2779   2.304   1.606   5.714
   22CHL1   H1B 2780   2.451   1.683   5.687
   22CHL1    C2 2781   2.370   1.738   5.875
   22CHL1   H2A 2782   2.427   1.654   5.921
   22CHL1   H2B 2783   2.269   1.741   5.921
   22CHL1   C20 2784   2.203   1.664   4.948
   22CHL1   H20 2785   2.115   1.730   4.928
   22CHL1   C21 2786   2.149   1.527   4.969
   22CHL1  H21A 2787   2.237   1.461   4.981
   22CHL1  H21B 2788   2.083   1.487   4.888
   22CHL1  H21C 2789   2.086   1.514   5.059
   22CHL1   C22 2790   2.280   1.660   4.814
   22CHL1  H22A 2791   2.350   1.746   4.810
   22CHL1  H22B 2792   2.336   1.565   4.809
   22CHL1   C23 2793   2.197   1.659   4.689
   22CHL1  H23A 2794   2.137   1.566   4.692
   22CHL1  H23B 2795   2.130   1.742   4.720
   22CHL1   C24 2796   2.276   1.669   4.555
   22CHL1  H24A 2797   2.376   1.717   4.567
   22CHL1  H24B 2798   2.290   1.562   4.529
   22CHL1   C25 2799   2.202   1.747   4.437
   22CHL1   H25 2800   2.115   1.684   4.406
   22CHL1   C26 2801   2.149   1.883   4.478
   22CHL1  H26A 2802   2.233   1.956   4.477
   22CHL1  H26B 2803   2.079   1.926   4.404
   22CHL1  H26C 2804   2.088   1.876   4.571
   22CHL1   C27 2805   2.292   1.754   4.313
   22CHL1  H27A 2806   2.371   1.829   4.331
   22CHL1  H27B 2807   2.336   1.659   4.275
   22CHL1  H27C 2808   2.238   1.786   4.221
   23CHL1    C3 2809   1.282   3.435   5.870
   23CHL1    H3 2810   1.178   3.473   5.859
   23CHL1    O3 2811   1.298   3.406   6.005
   23CHL1   H3' 2812   1.391   3.382   6.012
   23CHL1    C4 2813   1.275   3.296   5.790
   23CHL1   H4A 2814   1.376   3.251   5.806
   23CHL1   H4B 2815   1.190   3.238   5.832
   23CHL1    C5 2816   1.266   3.311   5.639
   23CHL1    C6 2817   1.165   3.261   5.573
   23CHL1    H6 2818   1.083   3.205   5.621
   23CHL1    C7 2819   1.144   3.264   5.423
   23CHL1   H7A 2820   1.106   3.165   5.392
   23CHL1   H7B 2821   1.076   3.347   5.395
   23CHL1    C8 2822   1.278   3.314   5.354
   23CHL1    H8 2823   1.337   3.220   5.360
   23CHL1   C14 2824   1.249   3.363   5.213
   23CHL1   H14 2825   1.193   3.459   5.219
   23CHL1   C15 2826   1.157   3.279   5.128
   23CHL1  H15A 2827   1.170   3.168   5.132
   23CHL1  H15B 2828   1.053   3.302   5.158
   23CHL1   C16 2829   1.188   3.311   4.978
   23CHL1  H16A 2830   1.206   3.217   4.921
   23CHL1  H16B 2831   1.104   3.365   4.927
   23CHL1   C17 2832   1.310   3.411   4.990
   23CHL1   H17 2833   1.264   3.511   5.000
   23CHL1   C13 2834   1.377   3.385   5.128
   23CHL1   C18 2835   1.453   3.251   5.112
   23CHL1  H18A 2836   1.538   3.272   5.044
   23CHL1  H18B 2837   1.500   3.216   5.207
   23CHL1  H18C 2838   1.397   3.158   5.087
   23CHL1   C12 2839   1.449   3.499   5.192
   23CHL1  H12A 2840   1.547   3.532   5.151
   23CHL1  H12B 2841   1.387   3.591   5.192
   23CHL1   C11 2842   1.480   3.466   5.341
   23CHL1  H11A 2843   1.562   3.392   5.325
   23CHL1  H11B 2844   1.528   3.557   5.382
   23CHL1    C9 2845   1.353   3.422   5.430
   23CHL1    H9 2846   1.286   3.511   5.422
   23CHL1   C10 2847   1.379   3.387   5.577
   23CHL1   C19 2848   1.515   3.309   5.574
   23CHL1  H19A 2849   1.532   3.267   5.676
   23CHL1  H19B 2850   1.522   3.221   5.506
   23CHL1  H19C 2851   1.601   3.376   5.556
   23CHL1    C1 2852   1.385   3.528   5.660
   23CHL1   H1A 2853   1.466   3.594   5.623
   23CHL1   H1B 2854   1.287   3.579   5.644
   23CHL1    C2 2855   1.391   3.518   5.812
   23CHL1   H2A 2856   1.388   3.622   5.851
   23CHL1   H2B 2857   1.488   3.469   5.836
   23CHL1   C20 2858   1.398   3.414   4.867
   23CHL1   H20 2859   1.434   3.311   4.846
   23CHL1   C21 2860   1.516   3.496   4.885
   23CHL1  H21A 2861   1.582   3.491   4.796
   23CHL1  H21B 2862   1.583   3.467   4.968
   23CHL1  H21C 2863   1.480   3.599   4.909
   23CHL1   C22 2864   1.303   3.466   4.750
   23CHL1  H22A 2865   1.219   3.394   4.744
   23CHL1  H22B 2866   1.271   3.568   4.777
   23CHL1   C23 2867   1.374   3.486   4.620
   23CHL1  H23A 2868   1.430   3.581   4.630
   23CHL1  H23B 2869   1.435   3.397   4.592
   23CHL1   C24 2870   1.270   3.500   4.509
   23CHL1  H24A 2871   1.322   3.510   4.411
   23CHL1  H24B 2872   1.220   3.401   4.516
   23CHL1   C25 2873   1.169   3.609   4.523
   23CHL1   H25 2874   1.118   3.609   4.621
   23CHL1   C26 2875   1.238   3.749   4.515
   23CHL1  H26A 2876   1.265   3.751   4.408
   23CHL1  H26B 2877   1.167   3.825   4.554
   23CHL1  H26C 2878   1.328   3.744   4.579
   23CHL1   C27 2879   1.062   3.597   4.416
   23CHL1  H27A 2880   1.109   3.602   4.315
   23CHL1  H27B 2881   1.026   3.492   4.405
   23CHL1  H27C 2882   0.979   3.669   4.432
   24CHL1    C3 2883   3.668   4.756   5.958
   24CHL1    H3 2884   3.631   4.860   5.946
   24CHL1    O3 2885   3.708   4.747   6.094
   24CHL1   H3' 2886   3.769   4.673   6.093
   24CHL1    C4 2887   3.560   4.652   5.931
   24CHL1   H4A 2888   3.615   4.559   5.954
   24CHL1   H4B 2889   3.483   4.660   6.010
   24CHL1    C5 2890   3.520   4.653   5.784
   24CHL1    C6 2891   3.398   4.688   5.751
   24CHL1    H6 2892   3.323   4.701   5.831
   24CHL1    C7 2893   3.346   4.673   5.607
   24CHL1   H7A 2894   3.246   4.625   5.603
   24CHL1   H7B 2895   3.325   4.775   5.569
   24CHL1    C8 2896   3.443   4.606   5.503
   24CHL1    H8 2897   3.445   4.498   5.531
   24CHL1   C14 2898   3.411   4.652   5.365
   24CHL1   H14 2899   3.424   4.763   5.363
   24CHL1   C15 2900   3.272   4.628   5.303
   24CHL1  H15A 2901   3.241   4.528   5.340
   24CHL1  H15B 2902   3.188   4.694   5.332
   24CHL1   C16 2903   3.291   4.621   5.146
   24CHL1  H16A 2904   3.241   4.526   5.119
   24CHL1  H16B 2905   3.222   4.693   5.097
   24CHL1   C17 2906   3.445   4.640   5.127
   24CHL1   H17 2907   3.450   4.751   5.130
   24CHL1   C13 2908   3.510   4.595   5.258
   24CHL1   C18 2909   3.498   4.440   5.272
   24CHL1  H18A 2910   3.525   4.400   5.372
   24CHL1  H18B 2911   3.399   4.401   5.240
   24CHL1  H18C 2912   3.569   4.394   5.200
   24CHL1   C12 2913   3.649   4.644   5.285
   24CHL1  H12A 2914   3.723   4.609   5.210
   24CHL1  H12B 2915   3.646   4.754   5.271
   24CHL1   C11 2916   3.695   4.611   5.430
   24CHL1  H11A 2917   3.717   4.502   5.429
   24CHL1  H11B 2918   3.795   4.657   5.445
   24CHL1    C9 2919   3.587   4.656   5.535
   24CHL1    H9 2920   3.574   4.766   5.529
   24CHL1   C10 2921   3.628   4.621   5.681
   24CHL1   C19 2922   3.674   4.482   5.697
   24CHL1  H19A 2923   3.765   4.462   5.637
   24CHL1  H19B 2924   3.687   4.464   5.806
   24CHL1  H19C 2925   3.592   4.421   5.654
   24CHL1    C1 2926   3.741   4.726   5.715
   24CHL1   H1A 2927   3.830   4.706   5.652
   24CHL1   H1B 2928   3.715   4.830   5.688
   24CHL1    C2 2929   3.786   4.723   5.862
   24CHL1   H2A 2930   3.863   4.802   5.877
   24CHL1   H2B 2931   3.831   4.628   5.899
   24CHL1   C20 2932   3.510   4.589   5.001
   24CHL1   H20 2933   3.576   4.499   4.999
   24CHL1   C21 2934   3.594   4.705   4.935
   24CHL1  H21A 2935   3.638   4.691   4.834
   24CHL1  H21B 2936   3.679   4.736   5.001
   24CHL1  H21C 2937   3.530   4.794   4.917
   24CHL1   C22 2938   3.401   4.561   4.892
   24CHL1  H22A 2939   3.332   4.483   4.930
   24CHL1  H22B 2940   3.338   4.652   4.883
   24CHL1   C23 2941   3.431   4.520   4.753
   24CHL1  H23A 2942   3.491   4.598   4.701
   24CHL1  H23B 2943   3.483   4.422   4.756
   24CHL1   C24 2944   3.313   4.506   4.657
   24CHL1  H24A 2945   3.241   4.450   4.720
   24CHL1  H24B 2946   3.270   4.606   4.636
   24CHL1   C25 2947   3.338   4.426   4.529
   24CHL1   H25 2948   3.377   4.329   4.565
   24CHL1   C26 2949   3.208   4.382   4.470
   24CHL1  H26A 2950   3.152   4.323   4.547
   24CHL1  H26B 2951   3.144   4.468   4.440
   24CHL1  H26C 2952   3.221   4.326   4.375
   24CHL1   C27 2953   3.434   4.491   4.428
   24CHL1  H27A 2954   3.381   4.581   4.391
   24CHL1  H27B 2955   3.528   4.531   4.472
   24CHL1  H27C 2956   3.455   4.435   4.335
   25CHL1    C3 2957   6.577   5.673   6.155
   25CHL1    H3 2958   6.659   5.746   6.143
   25CHL1    O3 2959   6.597   5.628   6.290
   25CHL1   H3' 2960   6.585   5.706   6.344
   25CHL1    C4 2961   6.444   5.747   6.133
   25CHL1   H4A 2962   6.358   5.683   6.163
   25CHL1   H4B 2963   6.455   5.835   6.200
   25CHL1    C5 2964   6.432   5.774   5.985
   25CHL1    C6 2965   6.402   5.900   5.940
   25CHL1    H6 2966   6.387   5.987   6.006
   25CHL1    C7 2967   6.377   5.937   5.797
   25CHL1   H7A 2968   6.283   5.996   5.791
   25CHL1   H7B 2969   6.454   6.001   5.748
   25CHL1    C8 2970   6.355   5.812   5.712
   25CHL1    H8 2971   6.257   5.763   5.735
   25CHL1   C14 2972   6.353   5.840   5.560
   25CHL1   H14 2973   6.451   5.877   5.525
   25CHL1   C15 2974   6.244   5.942   5.515
   25CHL1  H15A 2975   6.143   5.911   5.551
   25CHL1  H15B 2976   6.254   6.046   5.553
   25CHL1   C16 2977   6.238   5.922   5.364
   25CHL1  H16A 2978   6.132   5.921   5.333
   25CHL1  H16B 2979   6.304   5.996   5.313
   25CHL1   C17 2980   6.298   5.782   5.334
   25CHL1   H17 2981   6.401   5.803   5.298
   25CHL1   C13 2982   6.313   5.717   5.477
   25CHL1   C18 2983   6.181   5.650   5.517
   25CHL1  H18A 2984   6.095   5.721   5.512
   25CHL1  H18B 2985   6.159   5.566   5.448
   25CHL1  H18C 2986   6.184   5.612   5.621
   25CHL1   C12 2987   6.434   5.625   5.487
   25CHL1  H12A 2988   6.424   5.542   5.414
   25CHL1  H12B 2989   6.519   5.682   5.444
   25CHL1   C11 2990   6.466   5.576   5.632
   25CHL1  H11A 2991   6.384   5.501   5.643
   25CHL1  H11B 2992   6.559   5.516   5.625
   25CHL1    C9 2993   6.453   5.696   5.739
   25CHL1    H9 2994   6.551   5.746   5.724
   25CHL1   C10 2995   6.453   5.657   5.887
   25CHL1   C19 2996   6.344   5.548   5.900
   25CHL1  H19A 2997   6.249   5.579   5.852
   25CHL1  H19B 2998   6.370   5.457   5.842
   25CHL1  H19C 2999   6.314   5.525   6.004
   25CHL1    C1 3000   6.585   5.595   5.914
   25CHL1   H1A 3001   6.604   5.503   5.855
   25CHL1   H1B 3002   6.672   5.664   5.905
   25CHL1    C2 3003   6.585   5.543   6.068
   25CHL1   H2A 3004   6.675   5.486   6.100
   25CHL1   H2B 3005   6.496   5.481   6.093
   25CHL1   C20 3006   6.227   5.711   5.222
   25CHL1   H20 3007   6.120   5.689   5.241
   25CHL1   C21 3008   6.297   5.571   5.185
   25CHL1  H21A 3009   6.278   5.532   5.083
   25CHL1  H21B 3010   6.256   5.497   5.257
   25CHL1  H21C 3011   6.408   5.568   5.184
   25CHL1   C22 3012   6.220   5.799   5.094
   25CHL1  H22A 3013   6.164   5.732   5.025
   25CHL1  H22B 3014   6.154   5.887   5.107
   25CHL1   C23 3015   6.353   5.837   5.031
   25CHL1  H23A 3016   6.415   5.904   5.095
   25CHL1  H23B 3017   6.410   5.742   5.034
   25CHL1   C24 3018   6.334   5.903   4.894
   25CHL1  H24A 3019   6.278   5.832   4.830
   25CHL1  H24B 3020   6.277   5.998   4.908
   25CHL1   C25 3021   6.466   5.919   4.827
   25CHL1   H25 3022   6.537   5.983   4.883
   25CHL1   C26 3023   6.528   5.775   4.787
   25CHL1  H26A 3024   6.506   5.701   4.867
   25CHL1  H26B 3025   6.489   5.739   4.689
   25CHL1  H26C 3026   6.638   5.777   4.772
   25CHL1   C27 3027   6.455   6.002   4.699
   25CHL1  H27A 3028   6.544   6.066   4.681
   25CHL1  H27B 3029   6.437   5.957   4.599
   25CHL1  H27C 3030   6.373   6.074   4.721
   26CHL1    C3 3031   4.307   3.278   5.873
   26CHL1    H3 3032   4.296   3.169   5.891
   26CHL1    O3 3033   4.342   3.340   6.000
   26CHL1   H3' 3034   4.432   3.367   5.978
   26CHL1    C4 3035   4.419   3.298   5.770
   26CHL1   H4A 3036   4.437   3.407   5.766
   26CHL1   H4B 3037   4.513   3.252   5.808
   26CHL1    C5 3038   4.382   3.239   5.633
   26CHL1    C6 3039   4.438   3.137   5.572
   26CHL1    H6 3040   4.530   3.098   5.617
   26CHL1    C7 3041   4.402   3.088   5.437
   26CHL1   H7A 3042   4.495   3.051   5.388
   26CHL1   H7B 3043   4.347   2.994   5.458
   26CHL1    C8 3044   4.316   3.192   5.360
   26CHL1    H8 3045   4.382   3.280   5.345
   26CHL1   C14 3046   4.269   3.139   5.223
   26CHL1   H14 3047   4.210   3.048   5.248
   26CHL1   C15 3048   4.387   3.085   5.133
   26CHL1  H15A 3049   4.478   3.149   5.131
   26CHL1  H15B 3050   4.413   2.979   5.156
   26CHL1   C16 3051   4.312   3.088   4.994
   26CHL1  H16A 3052   4.384   3.120   4.915
   26CHL1  H16B 3053   4.288   2.985   4.960
   26CHL1   C17 3054   4.179   3.160   5.003
   26CHL1   H17 3055   4.102   3.081   5.019
   26CHL1   C13 3056   4.190   3.233   5.139
   26CHL1   C18 3057   4.266   3.365   5.120
   26CHL1  H18A 3058   4.285   3.408   5.221
   26CHL1  H18B 3059   4.365   3.348   5.072
   26CHL1  H18C 3060   4.206   3.435   5.058
   26CHL1   C12 3061   4.063   3.243   5.219
   26CHL1  H12A 3062   3.988   3.298   5.157
   26CHL1  H12B 3063   4.028   3.138   5.228
   26CHL1   C11 3064   4.087   3.299   5.358
   26CHL1  H11A 3065   4.111   3.405   5.337
   26CHL1  H11B 3066   3.995   3.304   5.419
   26CHL1    C9 3067   4.199   3.233   5.444
   26CHL1    H9 3068   4.145   3.142   5.477
   26CHL1   C10 3069   4.247   3.309   5.573
   26CHL1   C19 3070   4.282   3.454   5.543
   26CHL1  H19A 3071   4.380   3.443   5.491
   26CHL1  H19B 3072   4.202   3.500   5.481
   26CHL1  H19C 3073   4.302   3.517   5.632
   26CHL1    C1 3074   4.135   3.301   5.683
   26CHL1   H1A 3075   4.061   3.377   5.651
   26CHL1   H1B 3076   4.099   3.196   5.687
   26CHL1    C2 3077   4.176   3.349   5.816
   26CHL1   H2A 3078   4.094   3.331   5.889
   26CHL1   H2B 3079   4.193   3.458   5.809
   26CHL1   C20 3080   4.140   3.235   4.876
   26CHL1   H20 3081   4.215   3.316   4.860
   26CHL1   C21 3082   3.999   3.287   4.880
   26CHL1  H21A 3083   3.972   3.317   4.777
   26CHL1  H21B 3084   3.980   3.375   4.946
   26CHL1  H21C 3085   3.934   3.203   4.910
   26CHL1   C22 3086   4.158   3.151   4.744
   26CHL1  H22A 3087   4.246   3.083   4.742
   26CHL1  H22B 3088   4.070   3.082   4.747
   26CHL1   C23 3089   4.181   3.235   4.613
   26CHL1  H23A 3090   4.105   3.316   4.617
   26CHL1  H23B 3091   4.287   3.265   4.630
   26CHL1   C24 3092   4.174   3.149   4.484
   26CHL1  H24A 3093   4.218   3.206   4.399
   26CHL1  H24B 3094   4.249   3.070   4.506
   26CHL1   C25 3095   4.033   3.111   4.445
   26CHL1   H25 3096   3.980   3.045   4.517
   26CHL1   C26 3097   3.937   3.229   4.435
   26CHL1  H26A 3098   3.846   3.182   4.391
   26CHL1  H26B 3099   3.903   3.266   4.534
   26CHL1  H26C 3100   3.978   3.307   4.367
   26CHL1   C27 3101   4.037   3.031   4.314
   26CHL1  H27A 3102   4.100   3.076   4.235
   26CHL1  H27B 3103   4.084   2.933   4.338
   26CHL1  H27C 3104   3.932   3.022   4.278
   27CHL1    C3 3105   0.738   2.256   6.257
   27CHL1    H3 3106   0.685   2.162   6.231
   27CHL1    O3 3107   0.752   2.282   6.393
   27CHL1   H3' 3108   0.671   2.324   6.422
   27CHL1    C4 3109   0.874   2.219   6.197
   27CHL1   H4A 3110   0.958   2.276   6.242
   27CHL1   H4B 3111   0.898   2.117   6.235
   27CHL1    C5 3112   0.890   2.228   6.043
   27CHL1    C6 3113   0.934   2.120   5.970
   27CHL1    H6 3114   0.960   2.028   6.023
   27CHL1    C7 3115   0.953   2.123   5.822
   27CHL1   H7A 3116   1.059   2.113   5.792
   27CHL1   H7B 3117   0.900   2.037   5.774
   27CHL1    C8 3118   0.911   2.255   5.754
   27CHL1    H8 3119   1.003   2.318   5.756
   27CHL1   C14 3120   0.878   2.230   5.607
   27CHL1   H14 3121   0.782   2.173   5.603
   27CHL1   C15 3122   0.981   2.135   5.531
   27CHL1  H15A 3123   1.079   2.169   5.569
   27CHL1  H15B 3124   0.952   2.031   5.557
   27CHL1   C16 3125   0.968   2.175   5.382
   27CHL1  H16A 3126   1.049   2.237   5.340
   27CHL1  H16B 3127   0.951   2.084   5.320
   27CHL1   C17 3128   0.837   2.270   5.386
   27CHL1   H17 3129   0.749   2.202   5.387
   27CHL1   C13 3130   0.836   2.341   5.517
   27CHL1   C18 3131   0.950   2.449   5.509
   27CHL1  H18A 3132   0.926   2.535   5.442
   27CHL1  H18B 3133   0.972   2.489   5.611
   27CHL1  H18C 3134   1.045   2.402   5.477
   27CHL1   C12 3135   0.711   2.396   5.586
   27CHL1  H12A 3136   0.673   2.489   5.537
   27CHL1  H12B 3137   0.632   2.317   5.587
   27CHL1   C11 3138   0.736   2.430   5.738
   27CHL1  H11A 3139   0.813   2.510   5.745
   27CHL1  H11B 3140   0.655   2.482   5.794
   27CHL1    C9 3141   0.792   2.319   5.826
   27CHL1    H9 3142   0.718   2.236   5.827
   27CHL1   C10 3143   0.822   2.352   5.976
   27CHL1   C19 3144   0.917   2.468   6.000
   27CHL1  H19A 3145   0.928   2.480   6.110
   27CHL1  H19B 3146   1.019   2.460   5.957
   27CHL1  H19C 3147   0.872   2.558   5.952
   27CHL1    C1 3148   0.688   2.367   6.051
   27CHL1   H1A 3149   0.637   2.459   6.015
   27CHL1   H1B 3150   0.630   2.278   6.021
   27CHL1    C2 3151   0.680   2.379   6.200
   27CHL1   H2A 3152   0.574   2.387   6.233
   27CHL1   H2B 3153   0.748   2.459   6.235
   27CHL1   C20 3154   0.835   2.350   5.253
   27CHL1   H20 3155   0.923   2.419   5.256
   27CHL1   C21 3156   0.708   2.439   5.252
   27CHL1  H21A 3157   0.694   2.514   5.332
   27CHL1  H21B 3158   0.624   2.367   5.260
   27CHL1  H21C 3159   0.705   2.493   5.155
   27CHL1   C22 3160   0.847   2.253   5.126
   27CHL1  H22A 3161   0.927   2.177   5.137
   27CHL1  H22B 3162   0.751   2.198   5.130
   27CHL1   C23 3163   0.858   2.314   4.986
   27CHL1  H23A 3164   0.766   2.376   4.986
   27CHL1  H23B 3165   0.943   2.385   4.987
   27CHL1   C24 3166   0.864   2.203   4.880
   27CHL1  H24A 3167   0.965   2.158   4.885
   27CHL1  H24B 3168   0.789   2.125   4.908
   27CHL1   C25 3169   0.841   2.234   4.731
   27CHL1   H25 3170   0.740   2.279   4.718
   27CHL1   C26 3171   0.939   2.347   4.688
   27CHL1  H26A 3172   1.047   2.325   4.693
   27CHL1  H26B 3173   0.917   2.373   4.583
   27CHL1  H26C 3174   0.923   2.436   4.753
   27CHL1   C27 3175   0.857   2.108   4.654
   27CHL1  H27A 3176   0.949   2.059   4.694
   27CHL1  H27B 3177   0.866   2.126   4.545
   27CHL1  H27C 3178   0.766   2.048   4.676
   28CHL1    C3 3179   5.854   2.105   6.329
   28CHL1    H3 3180   5.961   2.135   6.339
   28CHL1    O3 3181   5.802   2.102   6.464
   28CHL1   H3' 3182   5.709   2.098   6.438
   28CHL1    C4 3183   5.774   2.214   6.240
   28CHL1   H4A 3184   5.664   2.213   6.257
   28CHL1   H4B 3185   5.803   2.310   6.289
   28CHL1    C5 3186   5.807   2.209   6.090
   28CHL1    C6 3187   5.859   2.323   6.032
   28CHL1    H6 3188   5.872   2.414   6.092
   28CHL1    C7 3189   5.894   2.349   5.885
   28CHL1   H7A 3190   5.831   2.438   5.862
   28CHL1   H7B 3191   6.003   2.360   5.868
   28CHL1    C8 3192   5.836   2.221   5.805
   28CHL1    H8 3193   5.726   2.232   5.810
   28CHL1   C14 3194   5.879   2.218   5.656
   28CHL1   H14 3195   5.989   2.205   5.664
   28CHL1   C15 3196   5.861   2.344   5.575
   28CHL1  H15A 3197   5.755   2.372   5.589
   28CHL1  H15B 3198   5.923   2.434   5.596
   28CHL1   C16 3199   5.884   2.294   5.426
   28CHL1  H16A 3200   5.795   2.317   5.364
   28CHL1  H16B 3201   5.980   2.327   5.380
   28CHL1   C17 3202   5.897   2.139   5.433
   28CHL1   H17 3203   6.006   2.120   5.442
   28CHL1   C13 3204   5.836   2.104   5.569
   28CHL1   C18 3205   5.679   2.093   5.567
   28CHL1  H18A 3206   5.647   2.007   5.504
   28CHL1  H18B 3207   5.642   2.086   5.671
   28CHL1  H18C 3208   5.643   2.183   5.511
   28CHL1   C12 3209   5.894   1.980   5.639
   28CHL1  H12A 3210   5.859   1.889   5.586
   28CHL1  H12B 3211   6.003   1.972   5.621
   28CHL1   C11 3212   5.844   1.963   5.786
   28CHL1  H11A 3213   5.736   1.939   5.777
   28CHL1  H11B 3214   5.887   1.870   5.828
   28CHL1    C9 3215   5.871   2.091   5.875
   28CHL1    H9 3216   5.982   2.094   5.884
   28CHL1   C10 3217   5.809   2.076   6.015
   28CHL1   C19 3218   5.654   2.033   6.003
   28CHL1  H19A 3219   5.639   1.923   5.995
   28CHL1  H19B 3220   5.593   2.053   6.094
   28CHL1  H19C 3221   5.616   2.095   5.918
   28CHL1    C1 3222   5.883   1.975   6.110
   28CHL1   H1A 3223   5.881   1.871   6.072
   28CHL1   H1B 3224   5.990   2.005   6.118
   28CHL1    C2 3225   5.835   1.975   6.263
   28CHL1   H2A 3226   5.889   1.898   6.322
   28CHL1   H2B 3227   5.725   1.969   6.267
   28CHL1   C20 3228   5.828   2.070   5.308
   28CHL1   H20 3229   5.719   2.091   5.310
   28CHL1   C21 3230   5.848   1.923   5.309
   28CHL1  H21A 3231   5.956   1.903   5.293
   28CHL1  H21B 3232   5.803   1.867   5.224
   28CHL1  H21C 3233   5.816   1.878   5.406
   28CHL1   C22 3234   5.901   2.128   5.181
   28CHL1  H22A 3235   5.882   2.237   5.179
   28CHL1  H22B 3236   6.010   2.109   5.180
   28CHL1   C23 3237   5.852   2.066   5.048
   28CHL1  H23A 3238   5.883   1.961   5.033
   28CHL1  H23B 3239   5.742   2.077   5.051
   28CHL1   C24 3240   5.907   2.129   4.926
   28CHL1  H24A 3241   5.883   2.237   4.936
   28CHL1  H24B 3242   6.017   2.110   4.925
   28CHL1   C25 3243   5.850   2.078   4.787
   28CHL1   H25 3244   5.740   2.062   4.791
   28CHL1   C26 3245   5.874   2.172   4.674
   28CHL1  H26A 3246   5.816   2.265   4.696
   28CHL1  H26B 3247   5.983   2.188   4.670
   28CHL1  H26C 3248   5.839   2.140   4.574
   28CHL1   C27 3249   5.911   1.944   4.749
   28CHL1  H27A 3250   5.842   1.887   4.683
   28CHL1  H27B 3251   5.999   1.967   4.685
   28CHL1  H27C 3252   5.938   1.873   4.830
   29CHL1    C3 3253   2.551   3.749   6.102
   29CHL1    H3 3254   2.636   3.682   6.125
   29CHL1    O3 3255   2.486   3.769   6.224
   29CHL1   H3' 3256   2.411   3.826   6.205
   29CHL1    C4 3257   2.593   3.887   6.050
   29CHL1   H4A 3258   2.511   3.961   6.041
   29CHL1   H4B 3259   2.664   3.930   6.125
   29CHL1    C5 3260   2.637   3.880   5.903
   29CHL1    C6 3261   2.761   3.932   5.871
   29CHL1    H6 3262   2.824   3.968   5.954
   29CHL1    C7 3263   2.809   3.942   5.730
   29CHL1   H7A 3264   2.870   4.032   5.706
   29CHL1   H7B 3265   2.879   3.857   5.714
   29CHL1    C8 3266   2.701   3.915   5.630
   29CHL1    H8 3267   2.635   4.004   5.622
   29CHL1   C14 3268   2.768   3.887   5.501
   29CHL1   H14 3269   2.815   3.790   5.526
   29CHL1   C15 3270   2.865   3.985   5.435
   29CHL1  H15A 3271   2.816   4.083   5.453
   29CHL1  H15B 3272   2.955   3.987   5.500
   29CHL1   C16 3273   2.885   3.933   5.293
   29CHL1  H16A 3274   2.867   4.027   5.237
   29CHL1  H16B 3275   2.979   3.877   5.276
   29CHL1   C17 3276   2.764   3.842   5.271
   29CHL1   H17 3277   2.808   3.744   5.302
   29CHL1   C13 3278   2.667   3.860   5.387
   29CHL1   C18 3279   2.581   3.987   5.354
   29CHL1  H18A 3280   2.516   4.015   5.440
   29CHL1  H18B 3281   2.638   4.076   5.320
   29CHL1  H18C 3282   2.515   3.967   5.267
   29CHL1   C12 3283   2.574   3.748   5.417
   29CHL1  H12A 3284   2.500   3.712   5.343
   29CHL1  H12B 3285   2.633   3.654   5.423
   29CHL1   C11 3286   2.512   3.751   5.552
   29CHL1  H11A 3287   2.441   3.835   5.541
   29CHL1  H11B 3288   2.448   3.668   5.588
   29CHL1    C9 3289   2.610   3.789   5.666
   29CHL1    H9 3290   2.683   3.707   5.684
   29CHL1   C10 3291   2.545   3.805   5.809
   29CHL1   C19 3292   2.403   3.875   5.793
   29CHL1  H19A 3293   2.334   3.810   5.733
   29CHL1  H19B 3294   2.355   3.886   5.893
   29CHL1  H19C 3295   2.411   3.978   5.754
   29CHL1    C1 3296   2.503   3.664   5.869
   29CHL1   H1A 3297   2.431   3.612   5.803
   29CHL1   H1B 3298   2.588   3.594   5.882
   29CHL1    C2 3299   2.447   3.682   6.011
   29CHL1   H2A 3300   2.434   3.580   6.054
   29CHL1   H2B 3301   2.346   3.726   6.025
   29CHL1   C20 3302   2.712   3.827   5.126
   29CHL1   H20 3303   2.612   3.779   5.134
   29CHL1   C21 3304   2.802   3.724   5.055
   29CHL1  H21A 3305   2.826   3.637   5.120
   29CHL1  H21B 3306   2.899   3.771   5.027
   29CHL1  H21C 3307   2.746   3.673   4.974
   29CHL1   C22 3308   2.689   3.959   5.041
   29CHL1  H22A 3309   2.626   4.025   5.104
   29CHL1  H22B 3310   2.787   4.009   5.019
   29CHL1   C23 3311   2.608   3.927   4.920
   29CHL1  H23A 3312   2.656   3.851   4.854
   29CHL1  H23B 3313   2.511   3.881   4.946
   29CHL1   C24 3314   2.588   4.058   4.856
   29CHL1  H24A 3315   2.543   4.130   4.928
   29CHL1  H24B 3316   2.687   4.098   4.824
   29CHL1   C25 3317   2.495   4.047   4.726
   29CHL1   H25 3318   2.527   3.957   4.668
   29CHL1   C26 3319   2.344   4.042   4.761
   29CHL1  H26A 3320   2.311   4.130   4.819
   29CHL1  H26B 3321   2.282   4.031   4.669
   29CHL1  H26C 3322   2.339   3.950   4.823
   29CHL1   C27 3323   2.512   4.170   4.637
   29CHL1  H27A 3324   2.619   4.186   4.612
   29CHL1  H27B 3325   2.458   4.159   4.541
   29CHL1  H27C 3326   2.483   4.265   4.688
   30CHL1    C3 3327   3.381   3.800   5.749
   30CHL1    H3 3328   3.383   3.908   5.726
   30CHL1    O3 3329   3.375   3.814   5.894
   30CHL1   H3' 3330   3.392   3.907   5.909
   30CHL1    C4 3331   3.269   3.717   5.687
   30CHL1   H4A 3332   3.280   3.622   5.744
   30CHL1   H4B 3333   3.174   3.767   5.716
   30CHL1    C5 3334   3.288   3.690   5.539
   30CHL1    C6 3335   3.193   3.719   5.446
   30CHL1    H6 3336   3.095   3.759   5.477
   30CHL1    C7 3337   3.205   3.685   5.305
   30CHL1   H7A 3338   3.109   3.644   5.266
   30CHL1   H7B 3339   3.216   3.775   5.241
   30CHL1    C8 3340   3.322   3.600   5.260
   30CHL1    H8 3341   3.297   3.494   5.282
   30CHL1   C14 3342   3.343   3.613   5.112
   30CHL1   H14 3343   3.375   3.719   5.098
   30CHL1   C15 3344   3.219   3.592   5.026
   30CHL1  H15A 3345   3.159   3.510   5.072
   30CHL1  H15B 3346   3.163   3.687   5.021
   30CHL1   C16 3347   3.275   3.552   4.885
   30CHL1  H16A 3348   3.231   3.451   4.871
   30CHL1  H16B 3349   3.252   3.623   4.803
   30CHL1   C17 3350   3.435   3.551   4.896
   30CHL1   H17 3351   3.485   3.648   4.878
   30CHL1   C13 3352   3.456   3.524   5.054
   30CHL1   C18 3353   3.424   3.374   5.075
   30CHL1  H18A 3354   3.438   3.345   5.182
   30CHL1  H18B 3355   3.322   3.344   5.042
   30CHL1  H18C 3356   3.499   3.315   5.019
   30CHL1   C12 3357   3.590   3.556   5.123
   30CHL1  H12A 3358   3.667   3.482   5.095
   30CHL1  H12B 3359   3.628   3.660   5.107
   30CHL1   C11 3360   3.577   3.562   5.274
   30CHL1  H11A 3361   3.564   3.458   5.311
   30CHL1  H11B 3362   3.672   3.587   5.324
   30CHL1    C9 3363   3.454   3.642   5.335
   30CHL1    H9 3364   3.483   3.747   5.314
   30CHL1   C10 3365   3.431   3.635   5.491
   30CHL1   C19 3366   3.441   3.485   5.532
   30CHL1  H19A 3367   3.364   3.426   5.478
   30CHL1  H19B 3368   3.543   3.442   5.518
   30CHL1  H19C 3369   3.429   3.479   5.642
   30CHL1    C1 3370   3.529   3.720   5.557
   30CHL1   H1A 3371   3.627   3.677   5.526
   30CHL1   H1B 3372   3.521   3.822   5.513
   30CHL1    C2 3373   3.517   3.740   5.704
   30CHL1   H2A 3374   3.598   3.810   5.733
   30CHL1   H2B 3375   3.518   3.642   5.756
   30CHL1   C20 3376   3.497   3.453   4.791
   30CHL1   H20 3377   3.435   3.363   4.812
   30CHL1   C21 3378   3.648   3.441   4.818
   30CHL1  H21A 3379   3.680   3.363   4.745
   30CHL1  H21B 3380   3.666   3.400   4.919
   30CHL1  H21C 3381   3.704   3.537   4.813
   30CHL1   C22 3382   3.473   3.495   4.645
   30CHL1  H22A 3383   3.385   3.561   4.630
   30CHL1  H22B 3384   3.558   3.556   4.610
   30CHL1   C23 3385   3.459   3.383   4.547
   30CHL1  H23A 3386   3.481   3.430   4.448
   30CHL1  H23B 3387   3.540   3.309   4.562
   30CHL1   C24 3388   3.326   3.300   4.547
   30CHL1  H24A 3389   3.312   3.233   4.635
   30CHL1  H24B 3390   3.238   3.367   4.553
   30CHL1   C25 3391   3.302   3.215   4.421
   30CHL1   H25 3392   3.390   3.148   4.408
   30CHL1   C26 3393   3.175   3.126   4.436
   30CHL1  H26A 3394   3.192   3.050   4.515
   30CHL1  H26B 3395   3.088   3.186   4.467
   30CHL1  H26C 3396   3.138   3.087   4.338
   30CHL1   C27 3397   3.291   3.298   4.296
   30CHL1  H27A 3398   3.297   3.233   4.206
   30CHL1  H27B 3399   3.187   3.335   4.285
   30CHL1  H27C 3400   3.361   3.384   4.290
   31CHL1    C3 3401   1.736   4.237   6.029
   31CHL1    H3 3402   1.675   4.297   5.958
   31CHL1    O3 3403   1.664   4.202   6.139
   31CHL1   H3' 3404   1.692   4.115   6.168
   31CHL1    C4 3405   1.766   4.104   5.943
   31CHL1   H4A 3406   1.838   4.042   6.002
   31CHL1   H4B 3407   1.675   4.043   5.924
   31CHL1    C5 3408   1.834   4.142   5.813
   31CHL1    C6 3409   1.775   4.104   5.696
   31CHL1    H6 3410   1.680   4.048   5.701
   31CHL1    C7 3411   1.837   4.149   5.570
   31CHL1   H7A 3412   1.833   4.061   5.501
   31CHL1   H7B 3413   1.778   4.227   5.517
   31CHL1    C8 3414   1.991   4.193   5.578
   31CHL1    H8 3415   2.062   4.108   5.586
   31CHL1   C14 3416   2.020   4.271   5.450
   31CHL1   H14 3417   1.952   4.359   5.448
   31CHL1   C15 3418   1.992   4.196   5.313
   31CHL1  H15A 3419   2.039   4.095   5.319
   31CHL1  H15B 3420   1.884   4.182   5.289
   31CHL1   C16 3421   2.076   4.273   5.207
   31CHL1  H16A 3422   2.154   4.210   5.159
   31CHL1  H16B 3423   2.019   4.322   5.125
   31CHL1   C17 3424   2.156   4.388   5.288
   31CHL1   H17 3425   2.088   4.472   5.312
   31CHL1   C13 3426   2.164   4.329   5.435
   31CHL1   C18 3427   2.270   4.217   5.433
   31CHL1  H18A 3428   2.258   4.157   5.526
   31CHL1  H18B 3429   2.239   4.137   5.362
   31CHL1  H18C 3430   2.377   4.249   5.426
   31CHL1   C12 3431   2.179   4.431   5.550
   31CHL1  H12A 3432   2.272   4.492   5.548
   31CHL1  H12B 3433   2.096   4.504   5.539
   31CHL1   C11 3434   2.151   4.356   5.688
   31CHL1  H11A 3435   2.222   4.274   5.712
   31CHL1  H11B 3436   2.162   4.427   5.773
   31CHL1    C9 3437   2.011   4.287   5.696
   31CHL1    H9 3438   1.940   4.369   5.672
   31CHL1   C10 3439   1.967   4.223   5.831
   31CHL1   C19 3440   2.085   4.149   5.888
   31CHL1  H19A 3441   2.050   4.099   5.981
   31CHL1  H19B 3442   2.115   4.065   5.822
   31CHL1  H19C 3443   2.174   4.209   5.916
   31CHL1    C1 3444   1.945   4.339   5.926
   31CHL1   H1A 3445   2.041   4.389   5.950
   31CHL1   H1B 3446   1.889   4.419   5.874
   31CHL1    C2 3447   1.865   4.309   6.060
   31CHL1   H2A 3448   1.858   4.398   6.125
   31CHL1   H2B 3449   1.929   4.234   6.111
   31CHL1   C20 3450   2.282   4.445   5.218
   31CHL1   H20 3451   2.360   4.369   5.237
   31CHL1   C21 3452   2.322   4.578   5.290
   31CHL1  H21A 3453   2.378   4.563   5.385
   31CHL1  H21B 3454   2.235   4.647   5.291
   31CHL1  H21C 3455   2.399   4.642   5.241
   31CHL1   C22 3456   2.262   4.484   5.071
   31CHL1  H22A 3457   2.207   4.402   5.020
   31CHL1  H22B 3458   2.198   4.575   5.078
   31CHL1   C23 3459   2.391   4.508   5.002
   31CHL1  H23A 3460   2.460   4.566   5.067
   31CHL1  H23B 3461   2.436   4.407   4.990
   31CHL1   C24 3462   2.377   4.578   4.868
   31CHL1  H24A 3463   2.301   4.513   4.820
   31CHL1  H24B 3464   2.334   4.679   4.886
   31CHL1   C25 3465   2.505   4.590   4.781
   31CHL1   H25 3466   2.568   4.499   4.796
   31CHL1   C26 3467   2.476   4.599   4.629
   31CHL1  H26A 3468   2.434   4.699   4.605
   31CHL1  H26B 3469   2.572   4.588   4.573
   31CHL1  H26C 3470   2.412   4.513   4.600
   31CHL1   C27 3471   2.590   4.707   4.818
   31CHL1  H27A 3472   2.527   4.799   4.815
   31CHL1  H27B 3473   2.622   4.688   4.923
   31CHL1  H27C 3474   2.687   4.709   4.765
   32CHL1    C3 3475   2.709   2.492   5.929
   32CHL1    H3 3476   2.772   2.402   5.945
   32CHL1    O3 3477   2.692   2.564   6.048
   32CHL1   H3' 3478   2.775   2.610   6.060
   32CHL1    C4 3479   2.768   2.585   5.828
   32CHL1   H4A 3480   2.705   2.677   5.832
   32CHL1   H4B 3481   2.867   2.616   5.869
   32CHL1    C5 3482   2.780   2.535   5.687
   32CHL1    C6 3483   2.900   2.518   5.630
   32CHL1    H6 3484   2.988   2.559   5.681
   32CHL1    C7 3485   2.923   2.460   5.495
   32CHL1   H7A 3486   2.999   2.513   5.433
   32CHL1   H7B 3487   2.966   2.358   5.500
   32CHL1    C8 3488   2.790   2.459   5.417
   32CHL1    H8 3489   2.771   2.567   5.397
   32CHL1   C14 3490   2.799   2.387   5.280
   32CHL1   H14 3491   2.815   2.281   5.310
   32CHL1   C15 3492   2.923   2.400   5.195
   32CHL1  H15A 3493   2.952   2.506   5.180
   32CHL1  H15B 3494   3.001   2.351   5.257
   32CHL1   C16 3495   2.890   2.325   5.066
   32CHL1  H16A 3496   2.919   2.389   4.980
   32CHL1  H16B 3497   2.941   2.226   5.068
   32CHL1   C17 3498   2.734   2.296   5.071
   32CHL1   H17 3499   2.731   2.195   5.118
   32CHL1   C13 3500   2.680   2.380   5.192
   32CHL1   C18 3501   2.644   2.528   5.142
   32CHL1  H18A 3502   2.547   2.513   5.090
   32CHL1  H18B 3503   2.618   2.586   5.233
   32CHL1  H18C 3504   2.725   2.573   5.082
   32CHL1   C12 3505   2.560   2.325   5.269
   32CHL1  H12A 3506   2.472   2.329   5.201
   32CHL1  H12B 3507   2.590   2.220   5.290
   32CHL1   C11 3508   2.536   2.404   5.404
   32CHL1  H11A 3509   2.489   2.500   5.373
   32CHL1  H11B 3510   2.459   2.357   5.468
   32CHL1    C9 3511   2.666   2.411   5.495
   32CHL1    H9 3512   2.685   2.305   5.524
   32CHL1   C10 3513   2.646   2.483   5.631
   32CHL1   C19 3514   2.559   2.613   5.613
   32CHL1  H19A 3515   2.608   2.687   5.546
   32CHL1  H19B 3516   2.466   2.568   5.572
   32CHL1  H19C 3517   2.531   2.659   5.710
   32CHL1    C1 3518   2.579   2.385   5.733
   32CHL1   H1A 3519   2.476   2.367   5.697
   32CHL1   H1B 3520   2.639   2.292   5.735
   32CHL1    C2 3521   2.570   2.436   5.882
   32CHL1   H2A 3522   2.531   2.361   5.954
   32CHL1   H2B 3523   2.500   2.523   5.886
   32CHL1   C20 3524   2.650   2.292   4.947
   32CHL1   H20 3525   2.543   2.300   4.978
   32CHL1   C21 3526   2.670   2.148   4.888
   32CHL1  H21A 3527   2.668   2.074   4.971
   32CHL1  H21B 3528   2.761   2.134   4.826
   32CHL1  H21C 3529   2.580   2.126   4.828
   32CHL1   C22 3530   2.685   2.395   4.840
   32CHL1  H22A 3531   2.702   2.496   4.883
   32CHL1  H22B 3532   2.785   2.376   4.795
   32CHL1   C23 3533   2.572   2.416   4.733
   32CHL1  H23A 3534   2.547   2.312   4.702
   32CHL1  H23B 3535   2.480   2.447   4.788
   32CHL1   C24 3536   2.605   2.511   4.625
   32CHL1  H24A 3537   2.615   2.613   4.668
   32CHL1  H24B 3538   2.697   2.484   4.569
   32CHL1   C25 3539   2.497   2.495   4.516
   32CHL1   H25 3540   2.487   2.392   4.475
   32CHL1   C26 3541   2.359   2.547   4.564
   32CHL1  H26A 3542   2.295   2.536   4.474
   32CHL1  H26B 3543   2.320   2.492   4.653
   32CHL1  H26C 3544   2.367   2.650   4.603
   32CHL1   C27 3545   2.530   2.584   4.395
   32CHL1  H27A 3546   2.632   2.573   4.352
   32CHL1  H27B 3547   2.457   2.571   4.311
   32CHL1  H27C 3548   2.515   2.690   4.424
   33CHL1    C3 3549   0.900   1.445   5.810
   33CHL1    H3 3550   1.002   1.487   5.819
   33CHL1    O3 3551   0.857   1.411   5.935
   33CHL1   H3' 3552   0.902   1.333   5.969
   33CHL1    C4 3553   0.802   1.552   5.764
   33CHL1   H4A 3554   0.696   1.524   5.782
   33CHL1   H4B 3555   0.804   1.643   5.828
   33CHL1    C5 3556   0.823   1.601   5.627
   33CHL1    C6 3557   0.846   1.734   5.596
   33CHL1    H6 3558   0.840   1.807   5.678
   33CHL1    C7 3559   0.862   1.783   5.453
   33CHL1   H7A 3560   0.799   1.873   5.440
   33CHL1   H7B 3561   0.965   1.821   5.434
   33CHL1    C8 3562   0.822   1.680   5.341
   33CHL1    H8 3563   0.712   1.667   5.340
   33CHL1   C14 3564   0.852   1.720   5.201
   33CHL1   H14 3565   0.963   1.726   5.208
   33CHL1   C15 3566   0.810   1.852   5.144
   33CHL1  H15A 3567   0.699   1.858   5.153
   33CHL1  H15B 3568   0.859   1.941   5.188
   33CHL1   C16 3569   0.831   1.835   4.992
   33CHL1  H16A 3570   0.737   1.858   4.938
   33CHL1  H16B 3571   0.907   1.911   4.964
   33CHL1   C17 3572   0.873   1.685   4.972
   33CHL1   H17 3573   0.984   1.683   4.970
   33CHL1   C13 3574   0.830   1.611   5.093
   33CHL1   C18 3575   0.678   1.576   5.090
   33CHL1  H18A 3576   0.637   1.530   5.183
   33CHL1  H18B 3577   0.621   1.669   5.068
   33CHL1  H18C 3578   0.646   1.502   5.014
   33CHL1   C12 3579   0.922   1.497   5.129
   33CHL1  H12A 3580   0.923   1.417   5.052
   33CHL1  H12B 3581   1.025   1.539   5.132
   33CHL1   C11 3582   0.890   1.440   5.270
   33CHL1  H11A 3583   0.798   1.378   5.259
   33CHL1  H11B 3584   0.971   1.375   5.310
   33CHL1    C9 3585   0.888   1.549   5.387
   33CHL1    H9 3586   0.994   1.581   5.399
   33CHL1   C10 3587   0.837   1.487   5.523
   33CHL1   C19 3588   0.694   1.438   5.508
   33CHL1  H19A 3589   0.683   1.363   5.426
   33CHL1  H19B 3590   0.642   1.397   5.597
   33CHL1  H19C 3591   0.616   1.512   5.483
   33CHL1    C1 3592   0.936   1.378   5.578
   33CHL1   H1A 3593   0.919   1.294   5.508
   33CHL1   H1B 3594   1.044   1.404   5.565
   33CHL1    C2 3595   0.900   1.330   5.719
   33CHL1   H2A 3596   0.979   1.256   5.747
   33CHL1   H2B 3597   0.800   1.282   5.727
   33CHL1   C20 3598   0.829   1.637   4.830
   33CHL1   H20 3599   0.718   1.626   4.833
   33CHL1   C21 3600   0.898   1.497   4.802
   33CHL1  H21A 3601   0.884   1.463   4.697
   33CHL1  H21B 3602   0.850   1.420   4.868
   33CHL1  H21C 3603   1.004   1.511   4.829
   33CHL1   C22 3604   0.856   1.749   4.723
   33CHL1  H22A 3605   0.783   1.831   4.739
   33CHL1  H22B 3606   0.958   1.795   4.730
   33CHL1   C23 3607   0.831   1.707   4.580
   33CHL1  H23A 3608   0.910   1.646   4.532
   33CHL1  H23B 3609   0.736   1.650   4.575
   33CHL1   C24 3610   0.786   1.819   4.486
   33CHL1  H24A 3611   0.702   1.871   4.535
   33CHL1  H24B 3612   0.867   1.893   4.470
   33CHL1   C25 3613   0.738   1.761   4.354
   33CHL1   H25 3614   0.664   1.680   4.372
   33CHL1   C26 3615   0.657   1.857   4.267
   33CHL1  H26A 3616   0.628   1.813   4.170
   33CHL1  H26B 3617   0.579   1.898   4.336
   33CHL1  H26C 3618   0.724   1.940   4.238
   33CHL1   C27 3619   0.854   1.722   4.275
   33CHL1  H27A 3620   0.909   1.811   4.239
   33CHL1  H27B 3621   0.921   1.648   4.325
   33CHL1  H27C 3622   0.825   1.663   4.185
   34CHL1    C3 3623   3.201   2.787   5.715
   34CHL1    H3 3624   3.169   2.684   5.742
   34CHL1    O3 3625   3.229   2.851   5.842
   34CHL1   H3' 3626   3.226   2.944   5.819
   34CHL1    C4 3627   3.320   2.796   5.619
   34CHL1   H4A 3628   3.348   2.903   5.611
   34CHL1   H4B 3629   3.403   2.742   5.668
   34CHL1    C5 3630   3.287   2.747   5.478
   34CHL1    C6 3631   3.359   2.659   5.409
   34CHL1    H6 3632   3.441   2.618   5.469
   34CHL1    C7 3633   3.337   2.621   5.267
   34CHL1   H7A 3634   3.435   2.610   5.215
   34CHL1   H7B 3635   3.309   2.513   5.262
   34CHL1    C8 3636   3.249   2.723   5.193
   34CHL1    H8 3637   3.319   2.802   5.159
   34CHL1   C14 3638   3.190   2.659   5.066
   34CHL1   H14 3639   3.122   2.574   5.091
   34CHL1   C15 3640   3.296   2.603   4.974
   34CHL1  H15A 3641   3.367   2.685   4.950
   34CHL1  H15B 3642   3.346   2.515   5.020
   34CHL1   C16 3643   3.211   2.567   4.846
   34CHL1  H16A 3644   3.261   2.601   4.753
   34CHL1  H16B 3645   3.183   2.459   4.847
   34CHL1   C17 3646   3.079   2.651   4.857
   34CHL1   H17 3647   3.004   2.578   4.893
   34CHL1   C13 3648   3.097   2.747   4.975
   34CHL1   C18 3649   3.174   2.866   4.905
   34CHL1  H18A 3650   3.238   2.836   4.819
   34CHL1  H18B 3651   3.107   2.946   4.867
   34CHL1  H18C 3652   3.249   2.917   4.969
   34CHL1   C12 3653   2.976   2.805   5.062
   34CHL1  H12A 3654   2.916   2.885   5.013
   34CHL1  H12B 3655   2.911   2.722   5.097
   34CHL1   C11 3656   3.040   2.864   5.189
   34CHL1  H11A 3657   3.102   2.950   5.154
   34CHL1  H11B 3658   2.954   2.904   5.247
   34CHL1    C9 3659   3.131   2.778   5.275
   34CHL1    H9 3660   3.060   2.696   5.296
   34CHL1   C10 3661   3.173   2.835   5.413
   34CHL1   C19 3662   3.215   2.988   5.399
   34CHL1  H19A 3663   3.308   2.992   5.339
   34CHL1  H19B 3664   3.139   3.046   5.343
   34CHL1  H19C 3665   3.243   3.027   5.499
   34CHL1    C1 3666   3.055   2.818   5.510
   34CHL1   H1A 3667   2.974   2.885   5.475
   34CHL1   H1B 3668   3.016   2.714   5.516
   34CHL1    C2 3669   3.079   2.865   5.659
   34CHL1   H2A 3670   2.984   2.858   5.717
   34CHL1   H2B 3671   3.113   2.971   5.650
   34CHL1   C20 3672   3.023   2.706   4.721
   34CHL1   H20 3673   3.088   2.777   4.667
   34CHL1   C21 3674   2.883   2.765   4.744
   34CHL1  H21A 3675   2.840   2.788   4.644
   34CHL1  H21B 3676   2.894   2.856   4.807
   34CHL1  H21C 3677   2.822   2.692   4.803
   34CHL1   C22 3678   3.008   2.589   4.618
   34CHL1  H22A 3679   3.105   2.541   4.595
   34CHL1  H22B 3680   2.943   2.510   4.664
   34CHL1   C23 3681   2.955   2.630   4.478
   34CHL1  H23A 3682   2.957   2.540   4.413
   34CHL1  H23B 3683   2.847   2.655   4.486
   34CHL1   C24 3684   3.030   2.747   4.413
   34CHL1  H24A 3685   2.979   2.831   4.465
   34CHL1  H24B 3686   3.140   2.746   4.431
   34CHL1   C25 3687   3.001   2.767   4.262
   34CHL1   H25 3688   3.023   2.674   4.204
   34CHL1   C26 3689   2.850   2.800   4.236
   34CHL1  H26A 3690   2.813   2.889   4.292
   34CHL1  H26B 3691   2.835   2.823   4.129
   34CHL1  H26C 3692   2.787   2.713   4.263
   34CHL1   C27 3693   3.092   2.873   4.201
   34CHL1  H27A 3694   3.108   2.830   4.099
   34CHL1  H27B 3695   3.054   2.977   4.207
   34CHL1  H27C 3696   3.193   2.860   4.246
   35CHL1    C3 3697   4.570   5.215   6.014
   35CHL1    H3 3698   4.545   5.108   6.002
   35CHL1    O3 3699   4.588   5.238   6.156
   35CHL1   H3' 3700   4.597   5.333   6.162
   35CHL1    C4 3701   4.704   5.255   5.947
   35CHL1   H4A 3702   4.725   5.360   5.979
   35CHL1   H4B 3703   4.777   5.183   5.989
   35CHL1    C5 3704   4.697   5.243   5.793
   35CHL1    C6 3705   4.783   5.172   5.726
   35CHL1    H6 3706   4.871   5.135   5.781
   35CHL1    C7 3707   4.775   5.155   5.578
   35CHL1   H7A 3708   4.874   5.177   5.533
   35CHL1   H7B 3709   4.747   5.048   5.568
   35CHL1    C8 3710   4.669   5.236   5.506
   35CHL1    H8 3711   4.720   5.334   5.494
   35CHL1   C14 3712   4.629   5.188   5.365
   35CHL1   H14 3713   4.583   5.087   5.375
   35CHL1   C15 3714   4.745   5.173   5.266
   35CHL1  H15A 3715   4.805   5.266   5.269
   35CHL1  H15B 3716   4.805   5.082   5.292
   35CHL1   C16 3717   4.671   5.145   5.137
   35CHL1  H16A 3718   4.704   5.195   5.043
   35CHL1  H16B 3719   4.666   5.037   5.109
   35CHL1   C17 3720   4.521   5.192   5.165
   35CHL1   H17 3721   4.460   5.100   5.173
   35CHL1   C13 3722   4.523   5.266   5.291
   35CHL1   C18 3723   4.573   5.416   5.272
   35CHL1  H18A 3724   4.654   5.444   5.200
   35CHL1  H18B 3725   4.480   5.466   5.238
   35CHL1  H18C 3726   4.590   5.455   5.375
   35CHL1   C12 3727   4.395   5.257   5.379
   35CHL1  H12A 3728   4.306   5.310   5.339
   35CHL1  H12B 3729   4.369   5.149   5.391
   35CHL1   C11 3730   4.419   5.310   5.520
   35CHL1  H11A 3731   4.412   5.420   5.526
   35CHL1  H11B 3732   4.330   5.262   5.565
   35CHL1    C9 3733   4.543   5.251   5.593
   35CHL1    H9 3734   4.526   5.141   5.601
   35CHL1   C10 3735   4.571   5.310   5.733
   35CHL1   C19 3736   4.597   5.466   5.724
   35CHL1  H19A 3737   4.676   5.483   5.648
   35CHL1  H19B 3738   4.502   5.513   5.689
   35CHL1  H19C 3739   4.626   5.514   5.820
   35CHL1    C1 3740   4.442   5.295   5.818
   35CHL1   H1A 3741   4.361   5.355   5.772
   35CHL1   H1B 3742   4.402   5.192   5.813
   35CHL1    C2 3743   4.457   5.301   5.970
   35CHL1   H2A 3744   4.370   5.260   6.026
   35CHL1   H2B 3745   4.458   5.404   6.012
   35CHL1   C20 3746   4.455   5.260   5.030
   35CHL1   H20 3747   4.522   5.345   5.005
   35CHL1   C21 3748   4.304   5.301   5.053
   35CHL1  H21A 3749   4.318   5.382   5.127
   35CHL1  H21B 3750   4.236   5.228   5.101
   35CHL1  H21C 3751   4.250   5.347   4.967
   35CHL1   C22 3752   4.466   5.174   4.902
   35CHL1  H22A 3753   4.573   5.151   4.880
   35CHL1  H22B 3754   4.426   5.073   4.925
   35CHL1   C23 3755   4.388   5.218   4.786
   35CHL1  H23A 3756   4.280   5.204   4.808
   35CHL1  H23B 3757   4.397   5.328   4.767
   35CHL1   C24 3758   4.438   5.143   4.660
   35CHL1  H24A 3759   4.534   5.192   4.632
   35CHL1  H24B 3760   4.453   5.037   4.688
   35CHL1   C25 3761   4.349   5.157   4.534
   35CHL1   H25 3762   4.331   5.264   4.513
   35CHL1   C26 3763   4.427   5.094   4.417
   35CHL1  H26A 3764   4.357   5.099   4.330
   35CHL1  H26B 3765   4.524   5.137   4.386
   35CHL1  H26C 3766   4.435   4.987   4.446
   35CHL1   C27 3767   4.205   5.094   4.545
   35CHL1  H27A 3768   4.151   5.099   4.448
   35CHL1  H27B 3769   4.211   4.988   4.577
   35CHL1  H27C 3770   4.140   5.151   4.615
   36CHL1    C3 3771   0.843   3.698   5.871
   36CHL1    H3 3772   0.776   3.612   5.849
   36CHL1    O3 3773   0.863   3.702   6.013
   36CHL1   H3' 3774   0.892   3.790   6.038
   36CHL1    C4 3775   0.972   3.724   5.791
   36CHL1   H4A 3776   1.032   3.816   5.808
   36CHL1   H4B 3777   1.041   3.641   5.820
   36CHL1    C5 3778   0.946   3.736   5.641
   36CHL1    C6 3779   0.997   3.637   5.563
   36CHL1    H6 3780   1.052   3.552   5.606
   36CHL1    C7 3781   0.978   3.642   5.418
   36CHL1   H7A 3782   1.075   3.613   5.370
   36CHL1   H7B 3783   0.906   3.562   5.391
   36CHL1    C8 3784   0.935   3.775   5.364
   36CHL1    H8 3785   1.025   3.839   5.377
   36CHL1   C14 3786   0.904   3.773   5.211
   36CHL1   H14 3787   0.817   3.707   5.191
   36CHL1   C15 3788   1.015   3.713   5.118
   36CHL1  H15A 3789   1.120   3.743   5.141
   36CHL1  H15B 3790   1.002   3.602   5.121
   36CHL1   C16 3791   0.982   3.769   4.975
   36CHL1  H16A 3792   1.071   3.829   4.946
   36CHL1  H16B 3793   0.971   3.679   4.911
   36CHL1   C17 3794   0.854   3.863   4.997
   36CHL1   H17 3795   0.768   3.792   4.996
   36CHL1   C13 3796   0.856   3.910   5.148
   36CHL1   C18 3797   0.968   4.007   5.168
   36CHL1  H18A 3798   0.982   4.024   5.277
   36CHL1  H18B 3799   1.062   3.978   5.117
   36CHL1  H18C 3800   0.951   4.110   5.130
   36CHL1   C12 3801   0.727   3.941   5.222
   36CHL1  H12A 3802   0.673   4.026   5.176
   36CHL1  H12B 3803   0.658   3.854   5.215
   36CHL1   C11 3804   0.749   3.956   5.376
   36CHL1  H11A 3805   0.806   4.051   5.389
   36CHL1  H11B 3806   0.656   3.971   5.435
   36CHL1    C9 3807   0.812   3.835   5.446
   36CHL1    H9 3808   0.739   3.753   5.428
   36CHL1   C10 3809   0.838   3.845   5.596
   36CHL1   C19 3810   0.896   3.982   5.620
   36CHL1  H19A 3811   0.916   3.985   5.730
   36CHL1  H19B 3812   0.986   3.992   5.556
   36CHL1  H19C 3813   0.824   4.064   5.600
   36CHL1    C1 3814   0.707   3.827   5.687
   36CHL1   H1A 3815   0.636   3.909   5.666
   36CHL1   H1B 3816   0.648   3.737   5.661
   36CHL1    C2 3817   0.741   3.810   5.838
   36CHL1   H2A 3818   0.644   3.799   5.890
   36CHL1   H2B 3819   0.788   3.904   5.875
   36CHL1   C20 3820   0.834   3.980   4.893
   36CHL1   H20 3821   0.892   4.067   4.932
   36CHL1   C21 3822   0.682   4.021   4.897
   36CHL1  H21A 3823   0.636   3.978   4.806
   36CHL1  H21B 3824   0.674   4.129   4.872
   36CHL1  H21C 3825   0.626   3.990   4.988
   36CHL1   C22 3826   0.896   3.969   4.755
   36CHL1  H22A 3827   1.002   3.949   4.780
   36CHL1  H22B 3828   0.858   3.878   4.705
   36CHL1   C23 3829   0.879   4.100   4.680
   36CHL1  H23A 3830   0.770   4.114   4.659
   36CHL1  H23B 3831   0.913   4.184   4.744
   36CHL1   C24 3832   0.961   4.085   4.550
   36CHL1  H24A 3833   1.061   4.048   4.582
   36CHL1  H24B 3834   0.922   4.019   4.470
   36CHL1   C25 3835   1.003   4.222   4.486
   36CHL1   H25 3836   1.040   4.288   4.567
   36CHL1   C26 3837   1.126   4.202   4.383
   36CHL1  H26A 3838   1.151   4.295   4.328
   36CHL1  H26B 3839   1.215   4.179   4.446
   36CHL1  H26C 3840   1.095   4.121   4.314
   36CHL1   C27 3841   0.886   4.290   4.413
   36CHL1  H27A 3842   0.908   4.399   4.409
   36CHL1  H27B 3843   0.879   4.250   4.309
   36CHL1  H27C 3844   0.788   4.259   4.456
   37CHL1    C3 3845   1.033   0.035   5.669
   37CHL1    H3 3846   1.123   0.005   5.611
   37CHL1    O3 3847   1.030   6.847   5.797
   37CHL1   H3' 3848   0.942   6.855   5.834
   37CHL1    C4 3849   1.035   0.187   5.676
   37CHL1   H4A 3850   0.951   0.229   5.735
   37CHL1   H4B 3851   1.118   0.226   5.739
   37CHL1    C5 3852   1.030   0.249   5.537
   37CHL1    C6 3853   1.129   0.327   5.493
   37CHL1    H6 3854   1.206   0.363   5.563
   37CHL1    C7 3855   1.125   0.393   5.359
   37CHL1   H7A 3856   1.169   0.495   5.369
   37CHL1   H7B 3857   1.201   0.340   5.298
   37CHL1    C8 3858   0.990   0.385   5.283
   37CHL1    H8 3859   0.923   0.462   5.327
   37CHL1   C14 3860   1.009   0.426   5.142
   37CHL1   H14 3861   1.078   0.347   5.107
   37CHL1   C15 3862   1.067   0.560   5.109
   37CHL1  H15A 3863   1.021   0.632   5.181
   37CHL1  H15B 3864   1.174   0.568   5.135
   37CHL1   C16 3865   1.035   0.580   4.959
   37CHL1  H16A 3866   0.983   0.674   4.931
   37CHL1  H16B 3867   1.123   0.578   4.891
   37CHL1   C17 3868   0.941   0.460   4.917
   37CHL1   H17 3869   0.999   0.370   4.887
   37CHL1   C13 3870   0.882   0.419   5.054
   37CHL1   C18 3871   0.777   0.536   5.093
   37CHL1  H18A 3872   0.808   0.637   5.058
   37CHL1  H18B 3873   0.685   0.516   5.035
   37CHL1  H18C 3874   0.747   0.531   5.200
   37CHL1   C12 3875   0.827   0.277   5.060
   37CHL1  H12A 3876   0.728   0.268   5.011
   37CHL1  H12B 3877   0.899   0.211   5.007
   37CHL1   C11 3878   0.807   0.236   5.209
   37CHL1  H11A 3879   0.730   0.298   5.259
   37CHL1  H11B 3880   0.785   0.127   5.216
   37CHL1    C9 3881   0.932   0.245   5.299
   37CHL1    H9 3882   1.009   0.177   5.257
   37CHL1   C10 3883   0.915   0.201   5.445
   37CHL1   C19 3884   0.791   0.272   5.499
   37CHL1  H19A 3885   0.781   0.261   5.609
   37CHL1  H19B 3886   0.802   0.383   5.499
   37CHL1  H19C 3887   0.695   0.253   5.446
   37CHL1    C1 3888   0.914   0.048   5.457
   37CHL1   H1A 3889   0.825   0.016   5.398
   37CHL1   H1B 3890   1.004   0.003   5.411
   37CHL1    C2 3891   0.910   6.875   5.596
   37CHL1   H2A 3892   0.885   6.767   5.593
   37CHL1   H2B 3893   0.816   0.027   5.646
   37CHL1   C20 3894   0.846   0.501   4.798
   37CHL1   H20 3895   0.764   0.567   4.835
   37CHL1   C21 3896   0.794   0.374   4.739
   37CHL1  H21A 3897   0.727   0.316   4.807
   37CHL1  H21B 3898   0.882   0.308   4.726
   37CHL1  H21C 3899   0.745   0.396   4.642
   37CHL1   C22 3900   0.920   0.576   4.684
   37CHL1  H22A 3901   0.847   0.592   4.602
   37CHL1  H22B 3902   0.941   0.679   4.721
   37CHL1   C23 3903   1.046   0.506   4.622
   37CHL1  H23A 3904   1.096   0.445   4.700
   37CHL1  H23B 3905   1.009   0.430   4.550
   37CHL1   C24 3906   1.126   0.611   4.544
   37CHL1  H24A 3907   1.051   0.630   4.464
   37CHL1  H24B 3908   1.136   0.691   4.621
   37CHL1   C25 3909   1.268   0.566   4.493
   37CHL1   H25 3910   1.310   0.661   4.454
   37CHL1   C26 3911   1.357   0.532   4.609
   37CHL1  H26A 3912   1.462   0.523   4.574
   37CHL1  H26B 3913   1.353   0.616   4.682
   37CHL1  H26C 3914   1.333   0.436   4.661
   37CHL1   C27 3915   1.262   0.461   4.382
   37CHL1  H27A 3916   1.361   0.421   4.351
   37CHL1  H27B 3917   1.189   0.391   4.426
   37CHL1  H27C 3918   1.229   0.519   4.293
   38CHL1    C3 3919   1.790   1.082   5.841
   38CHL1    H3 3920   1.726   0.992   5.845
   38CHL1    O3 3921   1.817   1.120   5.977
   38CHL1   H3' 3922   1.783   1.207   6.000
   38CHL1    C4 3923   1.921   1.053   5.777
   38CHL1   H4A 3924   1.989   1.140   5.789
   38CHL1   H4B 3925   1.973   0.966   5.823
   38CHL1    C5 3926   1.897   1.020   5.628
   38CHL1    C6 3927   1.939   0.906   5.577
   38CHL1    H6 3928   1.988   0.830   5.640
   38CHL1    C7 3929   1.941   0.868   5.434
   38CHL1   H7A 3930   2.031   0.810   5.406
   38CHL1   H7B 3931   1.853   0.804   5.408
   38CHL1    C8 3932   1.921   0.992   5.339
   38CHL1    H8 3933   2.010   1.058   5.333
   38CHL1   C14 3934   1.881   0.957   5.194
   38CHL1   H14 3935   1.787   0.899   5.208
   38CHL1   C15 3936   1.977   0.860   5.116
   38CHL1  H15A 3937   2.084   0.887   5.113
   38CHL1  H15B 3938   1.960   0.755   5.151
   38CHL1   C16 3939   1.929   0.882   4.969
   38CHL1  H16A 3940   2.010   0.933   4.913
   38CHL1  H16B 3941   1.906   0.788   4.915
   38CHL1   C17 3942   1.807   0.968   4.971
   38CHL1   H17 3943   1.717   0.906   4.993
   38CHL1   C13 3944   1.832   1.067   5.094
   38CHL1   C18 3945   1.950   1.165   5.064
   38CHL1  H18A 3946   1.947   1.211   4.964
   38CHL1  H18B 3947   1.951   1.246   5.140
   38CHL1  H18C 3948   2.045   1.106   5.060
   38CHL1   C12 3949   1.707   1.128   5.162
   38CHL1  H12A 3950   1.664   1.216   5.109
   38CHL1  H12B 3951   1.629   1.050   5.169
   38CHL1   C11 3952   1.737   1.176   5.306
   38CHL1  H11A 3953   1.803   1.263   5.284
   38CHL1  H11B 3954   1.645   1.210   5.357
   38CHL1    C9 3955   1.806   1.077   5.406
   38CHL1    H9 3956   1.733   0.996   5.425
   38CHL1   C10 3957   1.834   1.130   5.546
   38CHL1   C19 3958   1.934   1.251   5.532
   38CHL1  H19A 3959   1.974   1.287   5.629
   38CHL1  H19B 3960   2.023   1.243   5.466
   38CHL1  H19C 3961   1.882   1.345   5.505
   38CHL1    C1 3962   1.709   1.166   5.621
   38CHL1   H1A 3963   1.664   1.259   5.579
   38CHL1   H1B 3964   1.634   1.084   5.613
   38CHL1    C2 3965   1.721   1.196   5.770
   38CHL1   H2A 3966   1.616   1.200   5.808
   38CHL1   H2B 3967   1.769   1.296   5.773
   38CHL1   C20 3968   1.779   1.035   4.830
   38CHL1   H20 3969   1.865   1.101   4.806
   38CHL1   C21 3970   1.646   1.112   4.840
   38CHL1  H21A 3971   1.569   1.056   4.897
   38CHL1  H21B 3972   1.601   1.140   4.742
   38CHL1  H21C 3973   1.669   1.207   4.892
   38CHL1   C22 3974   1.761   0.920   4.719
   38CHL1  H22A 3975   1.857   0.863   4.719
   38CHL1  H22B 3976   1.675   0.860   4.754
   38CHL1   C23 3977   1.748   0.967   4.571
   38CHL1  H23A 3978   1.682   1.056   4.571
   38CHL1  H23B 3979   1.843   0.997   4.522
   38CHL1   C24 3980   1.670   0.863   4.483
   38CHL1  H24A 3981   1.732   0.773   4.469
   38CHL1  H24B 3982   1.581   0.844   4.546
   38CHL1   C25 3983   1.628   0.923   4.347
   38CHL1   H25 3984   1.598   1.028   4.369
   38CHL1   C26 3985   1.744   0.932   4.247
   38CHL1  H26A 3986   1.826   0.992   4.293
   38CHL1  H26B 3987   1.781   0.830   4.223
   38CHL1  H26C 3988   1.711   0.985   4.156
   38CHL1   C27 3989   1.512   0.848   4.287
   38CHL1  H27A 3990   1.537   0.748   4.247
   38CHL1  H27B 3991   1.430   0.842   4.363
   38CHL1  H27C 3992   1.464   0.918   4.216
   39CHL1    C3 3993   3.916   1.704   6.068
   39CHL1    H3 3994   3.813   1.680   6.033
   39CHL1    O3 3995   3.933   1.709   6.207
   39CHL1   H3' 3996   3.914   1.620   6.238
   39CHL1    C4 3997   4.007   1.584   6.017
   39CHL1   H4A 3998   4.109   1.597   6.058
   39CHL1   H4B 3999   3.972   1.486   6.056
   39CHL1    C5 4000   4.013   1.569   5.869
   39CHL1    C6 4001   3.983   1.455   5.810
   39CHL1    H6 4002   3.938   1.378   5.874
   39CHL1    C7 4003   4.013   1.434   5.656
   39CHL1   H7A 4004   4.077   1.343   5.651
   39CHL1   H7B 4005   3.912   1.423   5.611
   39CHL1    C8 4006   4.093   1.550   5.587
   39CHL1    H8 4007   4.200   1.532   5.611
   39CHL1   C14 4008   4.072   1.546   5.438
   39CHL1   H14 4009   3.965   1.568   5.416
   39CHL1   C15 4010   4.085   1.408   5.366
   39CHL1  H15A 4011   4.176   1.358   5.405
   39CHL1  H15B 4012   3.999   1.343   5.395
   39CHL1   C16 4013   4.097   1.456   5.223
   39CHL1  H16A 4014   4.190   1.431   5.169
   39CHL1  H16B 4015   4.007   1.412   5.175
   39CHL1   C17 4016   4.107   1.612   5.210
   39CHL1   H17 4017   4.001   1.645   5.207
   39CHL1   C13 4018   4.151   1.652   5.347
   39CHL1   C18 4019   4.304   1.640   5.364
   39CHL1  H18A 4020   4.337   1.644   5.470
   39CHL1  H18B 4021   4.329   1.535   5.337
   39CHL1  H18C 4022   4.349   1.713   5.293
   39CHL1   C12 4023   4.107   1.786   5.411
   39CHL1  H12A 4024   4.170   1.870   5.373
   39CHL1  H12B 4025   4.004   1.801   5.373
   39CHL1   C11 4026   4.121   1.794   5.565
   39CHL1  H11A 4027   4.231   1.791   5.579
   39CHL1  H11B 4028   4.088   1.897   5.588
   39CHL1    C9 4029   4.051   1.685   5.643
   39CHL1    H9 4030   3.944   1.694   5.612
   39CHL1   C10 4031   4.067   1.693   5.798
   39CHL1   C19 4032   4.221   1.708   5.837
   39CHL1  H19A 4033   4.277   1.613   5.827
   39CHL1  H19B 4034   4.272   1.787   5.777
   39CHL1  H19C 4035   4.227   1.746   5.941
   39CHL1    C1 4036   3.992   1.817   5.847
   39CHL1   H1A 4037   4.031   1.914   5.809
   39CHL1   H1B 4038   3.893   1.811   5.796
   39CHL1    C2 4039   3.966   1.832   6.001
   39CHL1   H2A 4040   3.896   1.917   6.021
   39CHL1   H2B 4041   4.061   1.862   6.050
   39CHL1   C20 4042   4.157   1.677   5.081
   39CHL1   H20 4043   4.268   1.675   5.085
   39CHL1   C21 4044   4.118   1.828   5.070
   39CHL1  H21A 4045   4.148   1.898   5.151
   39CHL1  H21B 4046   4.010   1.844   5.052
   39CHL1  H21C 4047   4.176   1.869   4.984
   39CHL1   C22 4048   4.108   1.603   4.958
   39CHL1  H22A 4049   4.129   1.496   4.976
   39CHL1  H22B 4050   3.998   1.603   4.942
   39CHL1   C23 4051   4.177   1.632   4.829
   39CHL1  H23A 4052   4.160   1.735   4.789
   39CHL1  H23B 4053   4.286   1.617   4.846
   39CHL1   C24 4054   4.133   1.538   4.718
   39CHL1  H24A 4055   4.108   1.432   4.741
   39CHL1  H24B 4056   4.040   1.581   4.675
   39CHL1   C25 4057   4.233   1.522   4.604
   39CHL1   H25 4058   4.250   1.621   4.556
   39CHL1   C26 4059   4.370   1.463   4.644
   39CHL1  H26A 4060   4.353   1.368   4.700
   39CHL1  H26B 4061   4.429   1.447   4.552
   39CHL1  H26C 4062   4.433   1.525   4.712
   39CHL1   C27 4063   4.160   1.426   4.504
   39CHL1  H27A 4064   4.056   1.459   4.483
   39CHL1  H27B 4065   4.227   1.408   4.417
   39CHL1  H27C 4066   4.138   1.328   4.551
   40CHL1    C3 4067   3.946   4.252   5.932
   40CHL1    H3 4068   3.857   4.318   5.930
   40CHL1    O3 4069   3.973   4.231   6.073
   40CHL1   H3' 4070   3.958   4.315   6.117
   40CHL1    C4 4071   3.912   4.117   5.867
   40CHL1   H4A 4072   4.000   4.048   5.864
   40CHL1   H4B 4073   3.836   4.063   5.927
   40CHL1    C5 4074   3.882   4.143   5.723
   40CHL1    C6 4075   3.763   4.104   5.665
   40CHL1    H6 4076   3.682   4.062   5.726
   40CHL1    C7 4077   3.730   4.121   5.520
   40CHL1   H7A 4078   3.695   4.028   5.470
   40CHL1   H7B 4079   3.659   4.206   5.510
   40CHL1    C8 4080   3.848   4.160   5.432
   40CHL1    H8 4081   3.914   4.071   5.423
   40CHL1   C14 4082   3.806   4.209   5.294
   40CHL1   H14 4083   3.750   4.305   5.305
   40CHL1   C15 4084   3.713   4.118   5.217
   40CHL1  H15A 4085   3.742   4.010   5.220
   40CHL1  H15B 4086   3.606   4.110   5.243
   40CHL1   C16 4087   3.727   4.173   5.071
   40CHL1  H16A 4088   3.745   4.084   5.007
   40CHL1  H16B 4089   3.628   4.212   5.040
   40CHL1   C17 4090   3.833   4.282   5.072
   40CHL1   H17 4091   3.763   4.367   5.087
   40CHL1   C13 4092   3.917   4.249   5.200
   40CHL1   C18 4093   4.024   4.133   5.172
   40CHL1  H18A 4094   4.068   4.083   5.261
   40CHL1  H18B 4095   3.972   4.052   5.116
   40CHL1  H18C 4096   4.106   4.182   5.116
   40CHL1   C12 4097   3.993   4.369   5.265
   40CHL1  H12A 4098   4.078   4.411   5.208
   40CHL1  H12B 4099   3.913   4.446   5.275
   40CHL1   C11 4100   4.045   4.344   5.412
   40CHL1  H11A 4101   4.135   4.281   5.401
   40CHL1  H11B 4102   4.066   4.438   5.468
   40CHL1    C9 4103   3.942   4.266   5.498
   40CHL1    H9 4104   3.860   4.339   5.518
   40CHL1   C10 4105   3.995   4.220   5.641
   40CHL1   C19 4106   4.124   4.142   5.624
   40CHL1  H19A 4107   4.113   4.045   5.571
   40CHL1  H19B 4108   4.195   4.202   5.564
   40CHL1  H19C 4109   4.169   4.129   5.725
   40CHL1    C1 4110   4.034   4.348   5.721
   40CHL1   H1A 4111   4.125   4.385   5.669
   40CHL1   H1B 4112   3.949   4.420   5.717
   40CHL1    C2 4113   4.064   4.328   5.868
   40CHL1   H2A 4114   4.076   4.428   5.913
   40CHL1   H2B 4115   4.147   4.256   5.885
   40CHL1   C20 4116   3.900   4.312   4.943
   40CHL1   H20 4117   3.964   4.228   4.909
   40CHL1   C21 4118   3.987   4.436   4.962
   40CHL1  H21A 4119   3.924   4.509   5.015
   40CHL1  H21B 4120   4.019   4.478   4.864
   40CHL1  H21C 4121   4.081   4.414   5.017
   40CHL1   C22 4122   3.804   4.342   4.825
   40CHL1  H22A 4123   3.720   4.270   4.825
   40CHL1  H22B 4124   3.764   4.445   4.840
   40CHL1   C23 4125   3.869   4.336   4.686
   40CHL1  H23A 4126   3.920   4.431   4.662
   40CHL1  H23B 4127   3.933   4.245   4.689
   40CHL1   C24 4128   3.769   4.305   4.566
   40CHL1  H24A 4129   3.720   4.206   4.580
   40CHL1  H24B 4130   3.685   4.375   4.582
   40CHL1   C25 4131   3.824   4.309   4.420
   40CHL1   H25 4132   3.907   4.236   4.416
   40CHL1   C26 4133   3.719   4.270   4.312
   40CHL1  H26A 4134   3.757   4.236   4.214
   40CHL1  H26B 4135   3.643   4.208   4.364
   40CHL1  H26C 4136   3.671   4.367   4.288
   40CHL1   C27 4137   3.887   4.449   4.394
   40CHL1  H27A 4138   3.972   4.464   4.465
   40CHL1  H27B 4139   3.920   4.453   4.288
   40CHL1  H27C 4140   3.804   4.521   4.405
   41CHL1    C3 4141   1.164   5.019   5.787
   41CHL1    H3 4142   1.104   5.113   5.786
   41CHL1    O3 4143   1.173   4.985   5.928
   41CHL1   H3' 4144   1.195   5.066   5.973
   41CHL1    C4 4145   1.085   4.903   5.710
   41CHL1   H4A 4146   1.133   4.807   5.737
   41CHL1   H4B 4147   0.981   4.907   5.751
   41CHL1    C5 4148   1.082   4.917   5.560
   41CHL1    C6 4149   0.967   4.916   5.488
   41CHL1    H6 4150   0.873   4.910   5.544
   41CHL1    C7 4151   0.944   4.939   5.345
   41CHL1   H7A 4152   0.875   4.860   5.308
   41CHL1   H7B 4153   0.903   5.040   5.325
   41CHL1    C8 4154   1.081   4.919   5.277
   41CHL1    H8 4155   1.093   4.808   5.278
   41CHL1   C14 4156   1.060   4.972   5.137
   41CHL1   H14 4157   1.036   5.080   5.154
   41CHL1   C15 4158   0.942   4.924   5.051
   41CHL1  H15A 4159   0.931   4.814   5.057
   41CHL1  H15B 4160   0.848   4.969   5.092
   41CHL1   C16 4161   0.970   4.968   4.910
   41CHL1  H16A 4162   0.969   4.876   4.849
   41CHL1  H16B 4163   0.896   5.035   4.862
   41CHL1   C17 4164   1.116   5.012   4.911
   41CHL1   H17 4165   1.109   5.123   4.914
   41CHL1   C13 4166   1.182   4.964   5.049
   41CHL1   C18 4167   1.220   4.818   5.032
   41CHL1  H18A 4168   1.300   4.798   4.958
   41CHL1  H18B 4169   1.255   4.774   5.128
   41CHL1  H18C 4170   1.132   4.758   5.001
   41CHL1   C12 4171   1.294   5.042   5.113
   41CHL1  H12A 4172   1.384   5.039   5.048
   41CHL1  H12B 4173   1.265   5.149   5.122
   41CHL1   C11 4174   1.321   4.994   5.258
   41CHL1  H11A 4175   1.369   4.895   5.240
   41CHL1  H11B 4176   1.403   5.057   5.299
   41CHL1    C9 4177   1.196   4.995   5.351
   41CHL1    H9 4178   1.161   5.100   5.360
   41CHL1   C10 4179   1.220   4.944   5.499
   41CHL1   C19 4180   1.290   4.810   5.499
   41CHL1  H19A 4181   1.259   4.741   5.418
   41CHL1  H19B 4182   1.395   4.833   5.473
   41CHL1  H19C 4183   1.283   4.758   5.597
   41CHL1    C1 4184   1.298   5.059   5.571
   41CHL1   H1A 4185   1.400   5.080   5.531
   41CHL1   H1B 4186   1.250   5.159   5.569
   41CHL1    C2 4187   1.299   5.035   5.728
   41CHL1   H2A 4188   1.345   5.124   5.775
   41CHL1   H2B 4189   1.364   4.951   5.760
   41CHL1   C20 4190   1.199   4.981   4.782
   41CHL1   H20 4191   1.217   4.871   4.786
   41CHL1   C21 4192   1.328   5.065   4.787
   41CHL1  H21A 4193   1.306   5.172   4.808
   41CHL1  H21B 4194   1.378   5.055   4.689
   41CHL1  H21C 4195   1.405   5.024   4.857
   41CHL1   C22 4196   1.117   4.997   4.654
   41CHL1  H22A 4197   1.187   4.955   4.579
   41CHL1  H22B 4198   1.022   4.942   4.665
   41CHL1   C23 4199   1.080   5.143   4.620
   41CHL1  H23A 4200   1.008   5.185   4.694
   41CHL1  H23B 4201   1.177   5.196   4.616
   41CHL1   C24 4202   1.004   5.171   4.487
   41CHL1  H24A 4203   0.912   5.110   4.497
   41CHL1  H24B 4204   0.983   5.280   4.473
   41CHL1   C25 4205   1.085   5.135   4.358
   41CHL1   H25 4206   1.116   5.029   4.358
   41CHL1   C26 4207   0.985   5.157   4.239
   41CHL1  H26A 4208   0.918   5.073   4.211
   41CHL1  H26B 4209   0.918   5.244   4.254
   41CHL1  H26C 4210   1.040   5.177   4.145
   41CHL1   C27 4211   1.197   5.238   4.334
   41CHL1  H27A 4212   1.222   5.232   4.226
   41CHL1  H27B 4213   1.163   5.341   4.355
   41CHL1  H27C 4214   1.287   5.230   4.398
   42CHL1    C3 4215   5.744   3.781   5.970
   42CHL1    H3 4216   5.644   3.765   5.924
   42CHL1    O3 4217   5.734   3.785   6.106
   42CHL1   H3' 4218   5.826   3.787   6.133
   42CHL1    C4 4219   5.823   3.656   5.936
   42CHL1   H4A 4220   5.924   3.677   5.977
   42CHL1   H4B 4221   5.779   3.564   5.979
   42CHL1    C5 4222   5.842   3.665   5.778
   42CHL1    C6 4223   5.803   3.568   5.702
   42CHL1    H6 4224   5.728   3.499   5.744
   42CHL1    C7 4225   5.829   3.564   5.553
   42CHL1   H7A 4226   5.870   3.464   5.529
   42CHL1   H7B 4227   5.739   3.584   5.491
   42CHL1    C8 4228   5.938   3.669   5.503
   42CHL1    H8 4229   6.032   3.630   5.548
   42CHL1   C14 4230   5.926   3.682   5.354
   42CHL1   H14 4231   5.833   3.737   5.329
   42CHL1   C15 4232   5.926   3.549   5.284
   42CHL1  H15A 4233   6.005   3.482   5.323
   42CHL1  H15B 4234   5.828   3.498   5.288
   42CHL1   C16 4235   5.962   3.599   5.136
   42CHL1  H16A 4236   6.043   3.541   5.087
   42CHL1  H16B 4237   5.867   3.571   5.086
   42CHL1   C17 4238   5.996   3.749   5.144
   42CHL1   H17 4239   5.899   3.803   5.131
   42CHL1   C13 4240   6.035   3.766   5.296
   42CHL1   C18 4241   6.179   3.698   5.311
   42CHL1  H18A 4242   6.190   3.603   5.255
   42CHL1  H18B 4243   6.272   3.751   5.280
   42CHL1  H18C 4244   6.187   3.685   5.421
   42CHL1   C12 4245   6.028   3.905   5.359
   42CHL1  H12A 4246   6.106   3.976   5.324
   42CHL1  H12B 4247   5.926   3.936   5.329
   42CHL1   C11 4248   6.017   3.903   5.513
   42CHL1  H11A 4249   6.123   3.890   5.545
   42CHL1  H11B 4250   5.986   4.004   5.548
   42CHL1    C9 4251   5.916   3.803   5.569
   42CHL1    H9 4252   5.818   3.844   5.537
   42CHL1   C10 4253   5.918   3.791   5.724
   42CHL1   C19 4254   6.063   3.787   5.779
   42CHL1  H19A 4255   6.068   3.783   5.890
   42CHL1  H19B 4256   6.117   3.701   5.734
   42CHL1  H19C 4257   6.108   3.884   5.750
   42CHL1    C1 4258   5.853   3.918   5.783
   42CHL1   H1A 4259   5.928   3.997   5.762
   42CHL1   H1B 4260   5.759   3.940   5.727
   42CHL1    C2 4261   5.802   3.915   5.929
   42CHL1   H2A 4262   5.729   3.997   5.942
   42CHL1   H2B 4263   5.889   3.945   5.992
   42CHL1   C20 4264   6.089   3.804   5.036
   42CHL1   H20 4265   6.184   3.746   5.038
   42CHL1   C21 4266   6.126   3.947   5.055
   42CHL1  H21A 4267   6.168   3.980   4.957
   42CHL1  H21B 4268   6.206   3.957   5.132
   42CHL1  H21C 4269   6.032   4.000   5.079
   42CHL1   C22 4270   6.031   3.794   4.893
   42CHL1  H22A 4271   5.952   3.716   4.897
   42CHL1  H22B 4272   5.980   3.886   4.857
   42CHL1   C23 4273   6.133   3.742   4.797
   42CHL1  H23A 4274   6.208   3.824   4.785
   42CHL1  H23B 4275   6.176   3.651   4.843
   42CHL1   C24 4276   6.072   3.699   4.666
   42CHL1  H24A 4277   6.006   3.612   4.685
   42CHL1  H24B 4278   6.022   3.787   4.620
   42CHL1   C25 4279   6.170   3.647   4.554
   42CHL1   H25 4280   6.242   3.729   4.536
   42CHL1   C26 4281   6.240   3.518   4.599
   42CHL1  H26A 4282   6.191   3.425   4.564
   42CHL1  H26B 4283   6.339   3.520   4.548
   42CHL1  H26C 4284   6.272   3.512   4.705
   42CHL1   C27 4285   6.108   3.608   4.422
   42CHL1  H27A 4286   6.070   3.700   4.372
   42CHL1  H27B 4287   6.174   3.556   4.349
   42CHL1  H27C 4288   6.016   3.547   4.434
   43CHL1    C3 4289   6.699   1.809   6.106
   43CHL1    H3 4290   6.599   1.785   6.062
   43CHL1    O3 4291   6.707   1.749   6.231
   43CHL1   H3' 4292   6.697   1.823   6.291
   43CHL1    C4 4293   6.805   1.751   6.023
   43CHL1   H4A 4294   0.027   1.763   6.068
   43CHL1   H4B 4295   6.788   1.641   6.021
   43CHL1    C5 4296   6.794   1.816   5.884
   43CHL1    C6 4297   6.763   1.740   5.777
   43CHL1    H6 4298   6.748   1.632   5.791
   43CHL1    C7 4299   6.763   1.794   5.633
   43CHL1   H7A 4300   6.810   1.719   5.565
   43CHL1   H7B 4301   6.658   1.783   5.601
   43CHL1    C8 4302   6.829   1.937   5.618
   43CHL1    H8 4303   0.060   1.923   5.611
   43CHL1   C14 4304   6.781   2.004   5.492
   43CHL1   H14 4305   6.670   2.007   5.498
   43CHL1   C15 4306   6.797   1.923   5.363
   43CHL1  H15A 4307   0.018   1.877   5.377
   43CHL1  H15B 4308   6.727   1.839   5.344
   43CHL1   C16 4309   6.784   2.027   5.252
   43CHL1  H16A 4310   6.877   2.044   5.194
   43CHL1  H16B 4311   6.698   2.002   5.186
   43CHL1   C17 4312   6.752   2.163   5.327
   43CHL1   H17 4313   6.642   2.171   5.343
   43CHL1   C13 4314   6.817   2.144   5.467
   43CHL1   C18 4315   0.089   2.155   5.449
   43CHL1  H18A 4316   0.145   2.116   5.537
   43CHL1  H18B 4317   0.120   2.100   5.357
   43CHL1  H18C 4318   0.120   2.260   5.429
   43CHL1   C12 4319   6.771   2.234   5.584
   43CHL1  H12A 4320   6.800   2.341   5.579
   43CHL1  H12B 4321   6.661   2.225   5.581
   43CHL1   C11 4322   6.828   2.177   5.710
   43CHL1  H11A 4323   0.059   2.168   5.706
   43CHL1  H11B 4324   6.814   2.242   5.800
   43CHL1    C9 4325   6.780   2.026   5.732
   43CHL1    H9 4326   6.669   2.028   5.727
   43CHL1   C10 4327   6.813   1.970   5.873
   43CHL1   C19 4328   0.083   1.997   5.908
   43CHL1  H19A 4329   0.143   1.956   5.824
   43CHL1  H19B 4330   0.092   2.107   5.906
   43CHL1  H19C 4331   0.112   1.963   6.010
   43CHL1    C1 4332   6.716   2.035   5.979
   43CHL1   H1A 4333   6.734   2.144   5.990
   43CHL1   H1B 4334   6.617   2.027   5.929
   43CHL1    C2 4335   6.721   1.958   6.118
   43CHL1   H2A 4336   6.644   2.005   6.184
   43CHL1   H2B 4337   6.821   1.984   6.159
   43CHL1   C20 4338   6.794   2.284   5.250
   43CHL1   H20 4339   0.018   2.317   5.271
   43CHL1   C21 4340   6.703   2.398   5.296
   43CHL1  H21A 4341   6.736   2.493   5.249
   43CHL1  H21B 4342   6.698   2.415   5.406
   43CHL1  H21C 4343   6.604   2.361   5.263
   43CHL1   C22 4344   6.792   2.272   5.093
   43CHL1  H22A 4345   6.870   2.198   5.064
   43CHL1  H22B 4346   6.698   2.239   5.043
   43CHL1   C23 4347   6.821   2.405   5.013
   43CHL1  H23A 4348   6.734   2.472   5.034
   43CHL1  H23B 4349   0.035   2.447   5.057
   43CHL1   C24 4350   6.841   2.379   4.865
   43CHL1  H24A 4351   0.046   2.310   4.844
   43CHL1  H24B 4352   6.749   2.329   4.827
   43CHL1   C25 4353   6.873   2.499   4.780
   43CHL1   H25 4354   0.086   2.561   4.792
   43CHL1   C26 4355   0.023   2.458   4.633
   43CHL1  H26A 4356   6.826   2.389   4.591
   43CHL1  H26B 4357   0.026   2.552   4.574
   43CHL1  H26C 4358   0.116   2.398   4.624
   43CHL1   C27 4359   6.755   2.602   4.789
   43CHL1  H27A 4360   6.657   2.551   4.794
   43CHL1  H27B 4361   6.759   2.649   4.890
   43CHL1  H27C 4362   6.770   2.679   4.711
   44CHL1    C3 4363   0.214   2.784   6.169
   44CHL1    H3 4364   0.183   2.685   6.130
   44CHL1    O3 4365   0.265   2.770   6.305
   44CHL1   H3' 4366   0.281   2.857   6.342
   44CHL1    C4 4367   0.325   2.839   6.080
   44CHL1   H4A 4368   0.379   2.916   6.138
   44CHL1   H4B 4369   0.405   2.762   6.083
   44CHL1    C5 4370   0.292   2.885   5.945
   44CHL1    C6 4371   0.351   2.831   5.834
   44CHL1    H6 4372   0.437   2.764   5.852
   44CHL1    C7 4373   0.319   2.874   5.697
   44CHL1   H7A 4374   0.414   2.885   5.640
   44CHL1   H7B 4375   0.248   2.797   5.659
   44CHL1    C8 4376   0.248   3.013   5.697
   44CHL1    H8 4377   0.308   3.091   5.750
   44CHL1   C14 4378   0.224   3.064   5.556
   44CHL1   H14 4379   0.156   2.990   5.509
   44CHL1   C15 4380   0.343   3.074   5.453
   44CHL1  H15A 4381   0.431   3.111   5.509
   44CHL1  H15B 4382   0.357   2.973   5.410
   44CHL1   C16 4383   0.287   3.166   5.348
   44CHL1  H16A 4384   0.347   3.260   5.343
   44CHL1  H16B 4385   0.281   3.125   5.245
   44CHL1   C17 4386   0.143   3.213   5.396
   44CHL1   H17 4387   0.070   3.140   5.357
   44CHL1   C13 4388   0.149   3.194   5.552
   44CHL1   C18 4389   0.233   3.312   5.608
   44CHL1  H18A 4390   0.275   3.283   5.707
   44CHL1  H18B 4391   0.309   3.356   5.540
   44CHL1  H18C 4392   0.165   3.397   5.631
   44CHL1   C12 4393   0.009   3.169   5.619
   44CHL1  H12A 4394   6.820   3.256   5.607
   44CHL1  H12B 4395   6.840   3.085   5.564
   44CHL1   C11 4396   0.038   3.126   5.772
   44CHL1  H11A 4397   0.076   3.216   5.826
   44CHL1  H11B 4398   6.823   3.099   5.823
   44CHL1    C9 4399   0.129   3.011   5.791
   44CHL1    H9 4400   0.073   2.922   5.756
   44CHL1   C10 4401   0.175   2.988   5.943
   44CHL1   C19 4402   0.229   3.119   6.016
   44CHL1  H19A 4403   0.277   3.096   6.113
   44CHL1  H19B 4404   0.295   3.172   5.944
   44CHL1  H19C 4405   0.146   3.191   6.029
   44CHL1    C1 4406   0.057   2.932   6.030
   44CHL1   H1A 4407   6.860   3.011   6.051
   44CHL1   H1B 4408   0.017   2.857   5.958
   44CHL1    C2 4409   0.099   2.880   6.169
   44CHL1   H2A 4410   0.017   2.824   6.219
   44CHL1   H2B 4411   0.128   2.964   6.235
   44CHL1   C20 4412   0.112   3.348   5.334
   44CHL1   H20 4413   0.185   3.426   5.363
   44CHL1   C21 4414   6.862   3.416   5.386
   44CHL1  H21A 4415   6.867   3.453   5.490
   44CHL1  H21B 4416   6.783   3.338   5.387
   44CHL1  H21C 4417   6.838   3.503   5.322
   44CHL1   C22 4418   0.112   3.336   5.174
   44CHL1  H22A 4419   0.204   3.284   5.140
   44CHL1  H22B 4420   0.023   3.275   5.146
   44CHL1   C23 4421   0.094   3.472   5.104
   44CHL1  H23A 4422   0.088   3.441   4.998
   44CHL1  H23B 4423   0.004   3.531   5.133
   44CHL1   C24 4424   0.211   3.566   5.108
   44CHL1  H24A 4425   0.195   3.623   5.203
   44CHL1  H24B 4426   0.316   3.530   5.104
   44CHL1   C25 4427   0.201   3.661   4.985
   44CHL1   H25 4428   0.184   3.591   4.901
   44CHL1   C26 4429   0.077   3.758   4.983
   44CHL1  H26A 4430   0.047   3.784   5.087
   44CHL1  H26B 4431   0.100   3.847   4.921
   44CHL1  H26C 4432   6.870   3.706   4.938
   44CHL1   C27 4433   0.338   3.735   4.970
   44CHL1  H27A 4434   0.420   3.660   4.971
   44CHL1  H27B 4435   0.327   3.797   4.879
   44CHL1  H27C 4436   0.343   3.804   5.057
   45CHL1    C3 4437   0.524   4.286   5.941
   45CHL1    H3 4438   0.634   4.302   5.943
   45CHL1    O3 4439   0.467   4.255   6.069
   45CHL1   H3' 4440   0.480   4.161   6.081
   45CHL1    C4 4441   0.454   4.411   5.883
   45CHL1   H4A 4442   0.344   4.396   5.895
   45CHL1   H4B 4443   0.477   4.503   5.942
   45CHL1    C5 4444   0.491   4.438   5.738
   45CHL1    C6 4445   0.539   4.561   5.708
   45CHL1    H6 4446   0.551   4.638   5.786
   45CHL1    C7 4447   0.578   4.603   5.569
   45CHL1   H7A 4448   0.539   4.704   5.545
   45CHL1   H7B 4449   0.686   4.604   5.543
   45CHL1    C8 4450   0.519   4.511   5.460
   45CHL1    H8 4451   0.413   4.534   5.436
   45CHL1   C14 4452   0.600   4.526   5.329
   45CHL1   H14 4453   0.699   4.482   5.354
   45CHL1   C15 4454   0.630   4.668   5.277
   45CHL1  H15A 4455   0.537   4.723   5.302
   45CHL1  H15B 4456   0.707   4.723   5.336
   45CHL1   C16 4457   0.650   4.646   5.126
   45CHL1  H16A 4458   0.571   4.712   5.083
   45CHL1  H16B 4459   0.752   4.671   5.091
   45CHL1   C17 4460   0.620   4.498   5.103
   45CHL1   H17 4461   0.716   4.445   5.122
   45CHL1   C13 4462   0.532   4.450   5.210
   45CHL1   C18 4463   0.386   4.491   5.189
   45CHL1  H18A 4464   0.324   4.471   5.278
   45CHL1  H18B 4465   0.377   4.599   5.164
   45CHL1  H18C 4466   0.359   4.438   5.095
   45CHL1   C12 4467   0.550   4.297   5.249
   45CHL1  H12A 4468   0.513   4.245   5.158
   45CHL1  H12B 4469   0.657   4.279   5.271
   45CHL1   C11 4470   0.484   4.266   5.391
   45CHL1  H11A 4471   0.374   4.275   5.375
   45CHL1  H11B 4472   0.503   4.157   5.400
   45CHL1    C9 4473   0.530   4.364   5.504
   45CHL1    H9 4474   0.639   4.348   5.519
   45CHL1   C10 4475   0.461   4.325   5.642
   45CHL1   C19 4476   0.313   4.309   5.617
   45CHL1  H19A 4477   0.254   4.320   5.711
   45CHL1  H19B 4478   0.280   4.401   5.564
   45CHL1  H19C 4479   0.283   4.222   5.556
   45CHL1    C1 4480   0.519   4.190   5.700
   45CHL1   H1A 4481   0.471   4.105   5.647
   45CHL1   H1B 4482   0.627   4.187   5.673
   45CHL1    C2 4483   0.490   4.163   5.848
   45CHL1   H2A 4484   0.543   4.071   5.880
   45CHL1   H2B 4485   0.380   4.151   5.854
   45CHL1   C20 4486   0.581   4.458   4.959
   45CHL1   H20 4487   0.528   4.360   4.954
   45CHL1   C21 4488   0.714   4.428   4.889
   45CHL1  H21A 4489   0.773   4.522   4.877
   45CHL1  H21B 4490   0.679   4.389   4.791
   45CHL1  H21C 4491   0.781   4.356   4.942
   45CHL1   C22 4492   0.496   4.555   4.873
   45CHL1  H22A 4493   0.404   4.578   4.929
   45CHL1  H22B 4494   0.559   4.647   4.870
   45CHL1   C23 4495   0.465   4.515   4.723
   45CHL1  H23A 4496   0.562   4.517   4.670
   45CHL1  H23B 4497   0.436   4.408   4.713
   45CHL1   C24 4498   0.357   4.611   4.666
   45CHL1  H24A 4499   0.259   4.587   4.710
   45CHL1  H24B 4500   0.384   4.717   4.688
   45CHL1   C25 4501   0.339   4.596   4.513
   45CHL1   H25 4502   0.439   4.596   4.464
   45CHL1   C26 4503   0.266   4.458   4.480
   45CHL1  H26A 4504   0.210   4.466   4.385
   45CHL1  H26B 4505   0.339   4.375   4.490
   45CHL1  H26C 4506   0.188   4.446   4.557
   45CHL1   C27 4507   0.259   4.718   4.452
   45CHL1  H27A 4508   0.289   4.722   4.345
   45CHL1  H27B 4509   0.151   4.698   4.462
   45CHL1  H27C 4510   0.279   4.819   4.495
   46CHL1    C3 4511   2.345   6.246   5.760
   46CHL1    H3 4512   2.371   6.138   5.761
   46CHL1    O3 4513   2.343   6.281   5.901
   46CHL1   H3' 4514   2.415   6.236   5.946
   46CHL1    C4 4515   2.452   6.343   5.688
   46CHL1   H4A 4516   2.435   6.448   5.718
   46CHL1   H4B 4517   2.547   6.294   5.719
   46CHL1    C5 4518   2.431   6.340   5.535
   46CHL1    C6 4519   2.534   6.314   5.454
   46CHL1    H6 4520   2.632   6.287   5.496
   46CHL1    C7 4521   2.524   6.312   5.310
   46CHL1   H7A 4522   2.612   6.364   5.268
   46CHL1   H7B 4523   2.528   6.206   5.276
   46CHL1    C8 4524   2.401   6.389   5.256
   46CHL1    H8 4525   2.416   6.498   5.271
   46CHL1   C14 4526   2.372   6.363   5.108
   46CHL1   H14 4527   2.343   6.256   5.097
   46CHL1   C15 4528   2.487   6.383   5.010
   46CHL1  H15A 4529   2.540   6.478   5.031
   46CHL1  H15B 4530   2.567   6.306   5.016
   46CHL1   C16 4531   2.418   6.384   4.872
   46CHL1  H16A 4532   2.441   6.480   4.820
   46CHL1  H16B 4533   2.439   6.303   4.800
   46CHL1   C17 4534   2.263   6.387   4.901
   46CHL1   H17 4535   2.232   6.281   4.895
   46CHL1   C13 4536   2.256   6.432   5.048
   46CHL1   C18 4537   2.275   6.585   5.057
   46CHL1  H18A 4538   2.272   6.606   5.166
   46CHL1  H18B 4539   2.377   6.611   5.020
   46CHL1  H18C 4540   2.200   6.647   5.003
   46CHL1   C12 4541   2.133   6.381   5.124
   46CHL1  H12A 4542   2.047   6.434   5.076
   46CHL1  H12B 4543   2.124   6.272   5.104
   46CHL1   C11 4544   2.143   6.413   5.278
   46CHL1  H11A 4545   2.138   6.523   5.293
   46CHL1  H11B 4546   2.053   6.360   5.317
   46CHL1    C9 4547   2.274   6.352   5.331
   46CHL1    H9 4548   2.269   6.243   5.309
   46CHL1   C10 4549   2.285   6.362   5.487
   46CHL1   C19 4550   2.245   6.507   5.536
   46CHL1  H19A 4551   2.300   6.579   5.473
   46CHL1  H19B 4552   2.136   6.524   5.525
   46CHL1  H19C 4553   2.258   6.540   5.641
   46CHL1    C1 4554   2.190   6.260   5.553
   46CHL1   H1A 4555   2.083   6.279   5.528
   46CHL1   H1B 4556   2.233   6.163   5.521
   46CHL1    C2 4557   2.204   6.268   5.711
   46CHL1   H2A 4558   2.139   6.192   5.760
   46CHL1   H2B 4559   2.172   6.367   5.751
   46CHL1   C20 4560   2.186   6.469   4.793
   46CHL1   H20 4561   2.222   6.574   4.793
   46CHL1   C21 4562   2.028   6.470   4.818
   46CHL1  H21A 4563   1.979   6.371   4.834
   46CHL1  H21B 4564   1.978   6.520   4.732
   46CHL1  H21C 4565   2.018   6.539   4.904
   46CHL1   C22 4566   2.208   6.397   4.662
   46CHL1  H22A 4567   2.309   6.354   4.646
   46CHL1  H22B 4568   2.134   6.314   4.660
   46CHL1   C23 4569   2.175   6.487   4.545
   46CHL1  H23A 4570   2.069   6.491   4.512
   46CHL1  H23B 4571   2.199   6.591   4.573
   46CHL1   C24 4572   2.276   6.461   4.429
   46CHL1  H24A 4573   2.372   6.511   4.455
   46CHL1  H24B 4574   2.297   6.359   4.390
   46CHL1   C25 4575   2.237   6.515   4.294
   46CHL1   H25 4576   2.139   6.468   4.269
   46CHL1   C26 4577   2.215   6.665   4.287
   46CHL1  H26A 4578   2.115   6.695   4.326
   46CHL1  H26B 4579   2.292   6.730   4.335
   46CHL1  H26C 4580   2.222   6.693   4.180
   46CHL1   C27 4581   2.339   6.478   4.193
   46CHL1  H27A 4582   2.345   6.367   4.183
   46CHL1  H27B 4583   2.324   6.534   4.098
   46CHL1  H27C 4584   2.440   6.507   4.228
   47CHL1    C3 4585   4.279   4.905   5.941
   47CHL1    H3 4586   4.286   5.016   5.946
   47CHL1    O3 4587   4.308   4.854   6.069
   47CHL1   H3' 4588   4.221   4.860   6.109
   47CHL1    C4 4589   4.129   4.889   5.912
   47CHL1   H4A 4590   4.102   4.782   5.924
   47CHL1   H4B 4591   4.061   4.938   5.985
   47CHL1    C5 4592   4.088   4.930   5.773
   47CHL1    C6 4593   3.980   5.015   5.752
   47CHL1    H6 4594   3.923   5.049   5.841
   47CHL1    C7 4595   3.924   5.046   5.614
   47CHL1   H7A 4596   3.814   5.031   5.617
   47CHL1   H7B 4597   3.956   5.151   5.597
   47CHL1    C8 4598   3.989   4.953   5.499
   47CHL1    H8 4599   3.943   4.852   5.500
   47CHL1   C14 4600   3.962   5.005   5.355
   47CHL1   H14 4601   3.998   5.110   5.354
   47CHL1   C15 4602   3.813   5.013   5.319
   47CHL1  H15A 4603   3.756   4.922   5.347
   47CHL1  H15B 4604   3.763   5.105   5.356
   47CHL1   C16 4605   3.813   5.013   5.158
   47CHL1  H16A 4606   3.752   4.922   5.141
   47CHL1  H16B 4607   3.764   5.106   5.123
   47CHL1   C17 4608   3.970   5.008   5.113
   47CHL1   H17 4609   4.004   5.113   5.108
   47CHL1   C13 4610   4.031   4.938   5.239
   47CHL1   C18 4611   3.984   4.786   5.234
   47CHL1  H18A 4612   4.038   4.730   5.154
   47CHL1  H18B 4613   4.031   4.742   5.324
   47CHL1  H18C 4614   3.876   4.766   5.218
   47CHL1   C12 4615   4.179   4.944   5.267
   47CHL1  H12A 4616   4.229   4.890   5.185
   47CHL1  H12B 4617   4.217   5.047   5.247
   47CHL1   C11 4618   4.228   4.889   5.400
   47CHL1  H11A 4619   4.226   4.779   5.385
   47CHL1  H11B 4620   4.330   4.923   5.427
   47CHL1    C9 4621   4.138   4.929   5.519
   47CHL1    H9 4622   4.176   5.033   5.530
   47CHL1   C10 4623   4.173   4.870   5.657
   47CHL1   C19 4624   4.139   4.717   5.639
   47CHL1  H19A 4625   4.028   4.708   5.640
   47CHL1  H19B 4626   4.176   4.668   5.547
   47CHL1  H19C 4627   4.177   4.654   5.722
   47CHL1    C1 4628   4.323   4.882   5.693
   47CHL1   H1A 4629   4.368   4.813   5.618
   47CHL1   H1B 4630   4.351   4.989   5.688
   47CHL1    C2 4631   4.362   4.837   5.834
   47CHL1   H2A 4632   4.470   4.846   5.858
   47CHL1   H2B 4633   4.348   4.727   5.844
   47CHL1   C20 4634   3.998   4.936   4.977
   47CHL1   H20 4635   3.985   4.827   4.995
   47CHL1   C21 4636   4.128   4.980   4.928
   47CHL1  H21A 4637   4.154   4.934   4.831
   47CHL1  H21B 4638   4.212   4.970   5.000
   47CHL1  H21C 4639   4.115   5.090   4.918
   47CHL1   C22 4640   3.892   4.970   4.868
   47CHL1  H22A 4641   3.792   4.991   4.912
   47CHL1  H22B 4642   3.925   5.067   4.826
   47CHL1   C23 4643   3.888   4.868   4.759
   47CHL1  H23A 4644   3.995   4.857   4.730
   47CHL1  H23B 4645   3.845   4.777   4.806
   47CHL1   C24 4646   3.809   4.906   4.642
   47CHL1  H24A 4647   3.707   4.920   4.684
   47CHL1  H24B 4648   3.844   5.004   4.603
   47CHL1   C25 4649   3.803   4.800   4.535
   47CHL1   H25 4650   3.789   4.705   4.590
   47CHL1   C26 4651   3.681   4.823   4.448
   47CHL1  H26A 4652   3.664   4.744   4.371
   47CHL1  H26B 4653   3.590   4.827   4.510
   47CHL1  H26C 4654   3.692   4.924   4.402
   47CHL1   C27 4655   3.930   4.800   4.449
   47CHL1  H27A 4656   3.924   4.726   4.366
   47CHL1  H27B 4657   3.931   4.900   4.402
   47CHL1  H27C 4658   4.020   4.793   4.513
   48CHL1    C3 4659   1.572   5.859   5.846
   48CHL1    H3 4660   1.639   5.943   5.819
   48CHL1    O3 4661   1.582   5.829   5.980
   48CHL1   H3' 4662   1.578   5.734   5.994
   48CHL1    C4 4663   1.420   5.895   5.820
   48CHL1   H4A 4664   1.366   5.807   5.860
   48CHL1   H4B 4665   1.385   5.976   5.887
   48CHL1    C5 4666   1.377   5.917   5.680
   48CHL1    C6 4667   1.324   6.037   5.643
   48CHL1    H6 4668   1.318   6.116   5.720
   48CHL1    C7 4669   1.282   6.064   5.503
   48CHL1   H7A 4670   1.175   6.094   5.507
   48CHL1   H7B 4671   1.351   6.143   5.466
   48CHL1    C8 4672   1.285   5.942   5.409
   48CHL1    H8 4673   1.197   5.881   5.439
   48CHL1   C14 4674   1.287   5.986   5.259
   48CHL1   H14 4675   1.383   6.041   5.246
   48CHL1   C15 4676   1.175   6.079   5.208
   48CHL1  H15A 4677   1.076   6.032   5.227
   48CHL1  H15B 4678   1.176   6.181   5.253
   48CHL1   C16 4679   1.199   6.078   5.055
   48CHL1  H16A 4680   1.094   6.067   5.020
   48CHL1  H16B 4681   1.242   6.173   5.017
   48CHL1   C17 4682   1.291   5.961   5.025
   48CHL1   H17 4683   1.393   6.006   5.022
   48CHL1   C13 4684   1.296   5.872   5.154
   48CHL1   C18 4685   1.171   5.785   5.137
   48CHL1  H18A 4686   1.174   5.728   5.232
   48CHL1  H18B 4687   1.079   5.847   5.133
   48CHL1  H18C 4688   1.187   5.730   5.041
   48CHL1   C12 4689   1.426   5.789   5.186
   48CHL1  H12A 4690   1.432   5.702   5.118
   48CHL1  H12B 4691   1.515   5.852   5.161
   48CHL1   C11 4692   1.430   5.738   5.338
   48CHL1  H11A 4693   1.346   5.665   5.340
   48CHL1  H11B 4694   1.522   5.678   5.359
   48CHL1    C9 4695   1.411   5.861   5.434
   48CHL1    H9 4696   1.498   5.929   5.421
   48CHL1   C10 4697   1.426   5.812   5.581
   48CHL1   C19 4698   1.340   5.687   5.607
   48CHL1  H19A 4699   1.331   5.675   5.717
   48CHL1  H19B 4700   1.234   5.697   5.576
   48CHL1  H19C 4701   1.386   5.595   5.566
   48CHL1    C1 4702   1.570   5.769   5.613
   48CHL1   H1A 4703   1.601   5.677   5.558
   48CHL1   H1B 4704   1.633   5.854   5.582
   48CHL1    C2 4705   1.600   5.736   5.759
   48CHL1   H2A 4706   1.706   5.724   5.790
   48CHL1   H2B 4707   1.531   5.658   5.796
   48CHL1   C20 4708   1.279   5.896   4.884
   48CHL1   H20 4709   1.186   5.835   4.879
   48CHL1   C21 4710   1.393   5.793   4.868
   48CHL1  H21A 4711   1.487   5.847   4.889
   48CHL1  H21B 4712   1.396   5.703   4.932
   48CHL1  H21C 4713   1.401   5.769   4.759
   48CHL1   C22 4714   1.284   6.004   4.773
   48CHL1  H22A 4715   1.207   6.080   4.798
   48CHL1  H22B 4716   1.375   6.068   4.777
   48CHL1   C23 4717   1.268   5.963   4.625
   48CHL1  H23A 4718   1.337   5.879   4.605
   48CHL1  H23B 4719   1.160   5.938   4.609
   48CHL1   C24 4720   1.296   6.082   4.520
   48CHL1  H24A 4721   1.216   6.159   4.534
   48CHL1  H24B 4722   1.389   6.130   4.557
   48CHL1   C25 4723   1.286   6.048   4.371
   48CHL1   H25 4724   1.184   6.011   4.346
   48CHL1   C26 4725   1.314   6.170   4.281
   48CHL1  H26A 4726   1.421   6.180   4.254
   48CHL1  H26B 4727   1.260   6.164   4.184
   48CHL1  H26C 4728   1.277   6.261   4.333
   48CHL1   C27 4729   1.375   5.932   4.329
   48CHL1  H27A 4730   1.366   5.910   4.220
   48CHL1  H27B 4731   1.482   5.956   4.345
   48CHL1  H27C 4732   1.353   5.849   4.399
   49CHL1    C3 4733   4.525   4.313   2.834
   49CHL1    H3 4734   4.565   4.219   2.878
   49CHL1    O3 4735   4.543   4.311   2.691
   49CHL1   H3' 4736   4.633   4.280   2.678
   49CHL1    C4 4737   4.381   4.349   2.878
   49CHL1   H4A 4738   4.348   4.446   2.837
   49CHL1   H4B 4739   4.309   4.271   2.843
   49CHL1    C5 4740   4.365   4.357   3.032
   49CHL1    C6 4741   4.289   4.275   3.105
   49CHL1    H6 4742   4.221   4.212   3.046
   49CHL1    C7 4743   4.278   4.267   3.253
   49CHL1   H7A 4744   4.174   4.252   3.287
   49CHL1   H7B 4745   4.346   4.184   3.285
   49CHL1    C8 4746   4.343   4.382   3.326
   49CHL1    H8 4747   4.273   4.467   3.313
   49CHL1   C14 4748   4.359   4.350   3.473
   49CHL1   H14 4749   4.434   4.268   3.479
   49CHL1   C15 4750   4.240   4.294   3.551
   49CHL1  H15A 4751   4.151   4.350   3.516
   49CHL1  H15B 4752   4.231   4.184   3.542
   49CHL1   C16 4753   4.269   4.339   3.701
   49CHL1  H16A 4754   4.196   4.417   3.729
   49CHL1  H16B 4755   4.262   4.253   3.771
   49CHL1   C17 4756   4.413   4.409   3.702
   49CHL1   H17 4757   4.501   4.342   3.703
   49CHL1   C13 4758   4.417   4.467   3.556
   49CHL1   C18 4759   4.333   4.592   3.549
   49CHL1  H18A 4760   4.313   4.620   3.444
   49CHL1  H18B 4761   4.239   4.580   3.606
   49CHL1  H18C 4762   4.393   4.672   3.596
   49CHL1   C12 4763   4.561   4.499   3.498
   49CHL1  H12A 4764   4.613   4.587   3.541
   49CHL1  H12B 4765   4.628   4.412   3.515
   49CHL1   C11 4766   4.564   4.525   3.341
   49CHL1  H11A 4767   4.516   4.621   3.315
   49CHL1  H11B 4768   4.668   4.531   3.304
   49CHL1    C9 4769   4.476   4.423   3.260
   49CHL1    H9 4770   4.536   4.330   3.274
   49CHL1   C10 4771   4.463   4.458   3.104
   49CHL1   C19 4772   4.405   4.595   3.085
   49CHL1  H19A 4773   4.305   4.603   3.132
   49CHL1  H19B 4774   4.480   4.674   3.109
   49CHL1  H19C 4775   4.391   4.609   2.975
   49CHL1    C1 4776   4.607   4.431   3.050
   49CHL1   H1A 4777   4.664   4.520   3.084
   49CHL1   H1B 4778   4.660   4.345   3.097
   49CHL1    C2 4779   4.616   4.425   2.892
   49CHL1   H2A 4780   4.723   4.415   2.862
   49CHL1   H2B 4781   4.584   4.523   2.851
   49CHL1   C20 4782   4.428   4.502   3.818
   49CHL1   H20 4783   4.375   4.598   3.804
   49CHL1   C21 4784   4.579   4.521   3.844
   49CHL1  H21A 4785   4.639   4.429   3.862
   49CHL1  H21B 4786   4.592   4.592   3.929
   49CHL1  H21C 4787   4.625   4.570   3.756
   49CHL1   C22 4788   4.355   4.447   3.942
   49CHL1  H22A 4789   4.245   4.461   3.947
   49CHL1  H22B 4790   4.363   4.337   3.956
   49CHL1   C23 4791   4.393   4.521   4.072
   49CHL1  H23A 4792   4.501   4.501   4.091
   49CHL1  H23B 4793   4.380   4.631   4.069
   49CHL1   C24 4794   4.311   4.485   4.191
   49CHL1  H24A 4795   4.205   4.517   4.182
   49CHL1  H24B 4796   4.321   4.375   4.195
   49CHL1   C25 4797   4.371   4.542   4.323
   49CHL1   H25 4798   4.481   4.526   4.323
   49CHL1   C26 4799   4.341   4.689   4.344
   49CHL1  H26A 4800   4.399   4.730   4.430
   49CHL1  H26B 4801   4.372   4.753   4.259
   49CHL1  H26C 4802   4.232   4.707   4.356
   49CHL1   C27 4803   4.324   4.465   4.456
   49CHL1  H27A 4804   4.220   4.491   4.482
   49CHL1  H27B 4805   4.324   4.356   4.436
   49CHL1  H27C 4806   4.383   4.495   4.546
   50CHL1    C3 4807   3.613   1.786   2.741
   50CHL1    H3 4808   3.525   1.851   2.758
   50CHL1    O3 4809   3.667   1.821   2.614
   50CHL1   H3' 4810   3.595   1.848   2.557
   50CHL1    C4 4811   3.724   1.806   2.846
   50CHL1   H4A 4812   3.804   1.742   2.803
   50CHL1   H4B 4813   3.772   1.906   2.853
   50CHL1    C5 4814   3.674   1.759   2.987
   50CHL1    C6 4815   3.670   1.846   3.088
   50CHL1    H6 4816   3.705   1.948   3.067
   50CHL1    C7 4817   3.623   1.821   3.228
   50CHL1   H7A 4818   3.700   1.859   3.298
   50CHL1   H7B 4819   3.524   1.867   3.247
   50CHL1    C8 4820   3.605   1.668   3.247
   50CHL1    H8 4821   3.707   1.626   3.261
   50CHL1   C14 4822   3.524   1.641   3.366
   50CHL1   H14 4823   3.423   1.682   3.346
   50CHL1   C15 4824   3.576   1.705   3.500
   50CHL1  H15A 4825   3.687   1.703   3.507
   50CHL1  H15B 4826   3.549   1.812   3.513
   50CHL1   C16 4827   3.512   1.632   3.619
   50CHL1  H16A 4828   3.592   1.584   3.680
   50CHL1  H16B 4829   3.448   1.690   3.689
   50CHL1   C17 4830   3.428   1.526   3.550
   50CHL1   H17 4831   3.332   1.573   3.523
   50CHL1   C13 4832   3.493   1.499   3.410
   50CHL1   C18 4833   3.624   1.416   3.434
   50CHL1  H18A 4834   3.678   1.426   3.337
   50CHL1  H18B 4835   3.691   1.461   3.511
   50CHL1  H18C 4836   3.609   1.307   3.449
   50CHL1   C12 4837   3.412   1.440   3.293
   50CHL1  H12A 4838   3.395   1.332   3.314
   50CHL1  H12B 4839   3.319   1.497   3.274
   50CHL1   C11 4840   3.490   1.454   3.159
   50CHL1  H11A 4841   3.581   1.390   3.161
   50CHL1  H11B 4842   3.429   1.404   3.081
   50CHL1    C9 4843   3.538   1.606   3.128
   50CHL1    H9 4844   3.442   1.661   3.114
   50CHL1   C10 4845   3.616   1.614   2.996
   50CHL1   C19 4846   3.739   1.528   3.002
   50CHL1  H19A 4847   3.812   1.560   2.926
   50CHL1  H19B 4848   3.799   1.538   3.095
   50CHL1  H19C 4849   3.730   1.419   2.983
   50CHL1    C1 4850   3.522   1.585   2.875
   50CHL1   H1A 4851   3.516   1.474   2.867
   50CHL1   H1B 4852   3.423   1.629   2.899
   50CHL1    C2 4853   3.569   1.635   2.736
   50CHL1   H2A 4854   3.493   1.613   2.658
   50CHL1   H2B 4855   3.658   1.574   2.709
   50CHL1   C20 4856   3.397   1.398   3.635
   50CHL1   H20 4857   3.469   1.316   3.617
   50CHL1   C21 4858   3.253   1.353   3.591
   50CHL1  H21A 4859   3.227   1.254   3.635
   50CHL1  H21B 4860   3.251   1.342   3.481
   50CHL1  H21C 4861   3.173   1.426   3.617
   50CHL1   C22 4862   3.400   1.416   3.787
   50CHL1  H22A 4863   3.488   1.468   3.829
   50CHL1  H22B 4864   3.318   1.490   3.804
   50CHL1   C23 4865   3.392   1.288   3.865
   50CHL1  H23A 4866   3.300   1.237   3.830
   50CHL1  H23B 4867   3.483   1.226   3.849
   50CHL1   C24 4868   3.373   1.292   4.021
   50CHL1  H24A 4869   3.355   1.187   4.053
   50CHL1  H24B 4870   3.470   1.323   4.064
   50CHL1   C25 4871   3.261   1.389   4.077
   50CHL1   H25 4872   3.281   1.493   4.044
   50CHL1   C26 4873   3.131   1.356   4.017
   50CHL1  H26A 4874   3.103   1.251   4.040
   50CHL1  H26B 4875   3.053   1.428   4.051
   50CHL1  H26C 4876   3.133   1.374   3.908
   50CHL1   C27 4877   3.242   1.391   4.230
   50CHL1  H27A 4878   3.340   1.416   4.276
   50CHL1  H27B 4879   3.160   1.459   4.262
   50CHL1  H27C 4880   3.208   1.292   4.266
   51CHL1    C3 4881   4.152   2.876   2.459
   51CHL1    H3 4882   4.139   2.766   2.453
   51CHL1    O3 4883   4.166   2.919   2.326
   51CHL1   H3' 4884   4.190   3.012   2.331
   51CHL1    C4 4885   4.038   2.932   2.536
   51CHL1   H4A 4886   4.062   3.040   2.528
   51CHL1   H4B 4887   3.944   2.907   2.482
   51CHL1    C5 4888   4.036   2.888   2.679
   51CHL1    C6 4889   3.935   2.816   2.734
   51CHL1    H6 4890   3.841   2.793   2.681
   51CHL1    C7 4891   3.939   2.782   2.879
   51CHL1   H7A 4892   3.839   2.817   2.914
   51CHL1   H7B 4893   3.941   2.673   2.901
   51CHL1    C8 4894   4.045   2.845   2.968
   51CHL1    H8 4895   4.011   2.949   2.988
   51CHL1   C14 4896   4.062   2.784   3.108
   51CHL1   H14 4897   4.087   2.677   3.091
   51CHL1   C15 4898   3.939   2.771   3.201
   51CHL1  H15A 4899   3.878   2.863   3.207
   51CHL1  H15B 4900   3.872   2.691   3.162
   51CHL1   C16 4901   3.999   2.735   3.341
   51CHL1  H16A 4902   3.967   2.815   3.411
   51CHL1  H16B 4903   3.976   2.631   3.375
   51CHL1   C17 4904   4.157   2.750   3.323
   51CHL1   H17 4905   4.205   2.653   3.295
   51CHL1   C13 4906   4.175   2.840   3.201
   51CHL1   C18 4907   4.163   2.987   3.228
   51CHL1  H18A 4908   4.175   3.048   3.136
   51CHL1  H18B 4909   4.063   3.004   3.273
   51CHL1  H18C 4910   4.240   3.023   3.300
   51CHL1   C12 4911   4.306   2.813   3.120
   51CHL1  H12A 4912   4.391   2.847   3.184
   51CHL1  H12B 4913   4.316   2.704   3.100
   51CHL1   C11 4914   4.305   2.876   2.975
   51CHL1  H11A 4915   4.329   2.984   2.985
   51CHL1  H11B 4916   4.396   2.837   2.924
   51CHL1    C9 4917   4.174   2.849   2.891
   51CHL1    H9 4918   4.189   2.740   2.873
   51CHL1   C10 4919   4.168   2.913   2.757
   51CHL1   C19 4920   4.167   3.064   2.781
   51CHL1  H19A 4921   4.078   3.096   2.839
   51CHL1  H19B 4922   4.254   3.098   2.842
   51CHL1  H19C 4923   4.169   3.119   2.684
   51CHL1    C1 4924   4.287   2.855   2.671
   51CHL1   H1A 4925   4.386   2.885   2.712
   51CHL1   H1B 4926   4.290   2.744   2.680
   51CHL1    C2 4927   4.284   2.898   2.522
   51CHL1   H2A 4928   4.367   2.842   2.474
   51CHL1   H2B 4929   4.307   3.006   2.519
   51CHL1   C20 4930   4.212   2.792   3.463
   51CHL1   H20 4931   4.178   2.892   3.498
   51CHL1   C21 4932   4.365   2.796   3.454
   51CHL1  H21A 4933   4.403   2.824   3.554
   51CHL1  H21B 4934   4.382   2.879   3.381
   51CHL1  H21C 4935   4.400   2.698   3.416
   51CHL1   C22 4936   4.170   2.684   3.574
   51CHL1  H22A 4937   4.059   2.673   3.571
   51CHL1  H22B 4938   4.216   2.586   3.551
   51CHL1   C23 4939   4.202   2.729   3.716
   51CHL1  H23A 4940   4.229   2.635   3.770
   51CHL1  H23B 4941   4.295   2.789   3.713
   51CHL1   C24 4942   4.086   2.791   3.789
   51CHL1  H24A 4943   4.045   2.880   3.738
   51CHL1  H24B 4944   4.009   2.713   3.775
   51CHL1   C25 4945   4.114   2.817   3.933
   51CHL1   H25 4946   4.162   2.726   3.975
   51CHL1   C26 4947   4.222   2.928   3.947
   51CHL1  H26A 4948   4.177   3.029   3.935
   51CHL1  H26B 4949   4.263   2.915   4.049
   51CHL1  H26C 4950   4.302   2.919   3.870
   51CHL1   C27 4951   3.989   2.853   4.013
   51CHL1  H27A 4952   3.965   2.960   3.998
   51CHL1  H27B 4953   3.901   2.801   3.970
   51CHL1  H27C 4954   3.997   2.829   4.121
   52CHL1    C3 4955   3.296   4.108   2.353
   52CHL1    H3 4956   3.186   4.113   2.369
   52CHL1    O3 4957   3.318   4.104   2.218
   52CHL1   H3' 4958   3.380   4.033   2.200
   52CHL1    C4 4959   3.363   4.235   2.409
   52CHL1   H4A 4960   3.468   4.243   2.375
   52CHL1   H4B 4961   3.307   4.322   2.369
   52CHL1    C5 4962   3.386   4.251   2.554
   52CHL1    C6 4963   3.351   4.365   2.613
   52CHL1    H6 4964   3.317   4.450   2.550
   52CHL1    C7 4965   3.373   4.402   2.761
   52CHL1   H7A 4966   3.443   4.487   2.779
   52CHL1   H7B 4967   3.274   4.437   2.800
   52CHL1    C8 4968   3.443   4.282   2.834
   52CHL1    H8 4969   3.552   4.292   2.816
   52CHL1   C14 4970   3.417   4.292   2.990
   52CHL1   H14 4971   3.306   4.287   3.000
   52CHL1   C15 4972   3.444   4.426   3.060
   52CHL1  H15A 4973   3.543   4.462   3.026
   52CHL1  H15B 4974   3.366   4.499   3.029
   52CHL1   C16 4975   3.438   4.394   3.209
   52CHL1  H16A 4976   3.526   4.429   3.266
   52CHL1  H16B 4977   3.342   4.417   3.258
   52CHL1   C17 4978   3.434   4.230   3.216
   52CHL1   H17 4979   3.330   4.199   3.238
   52CHL1   C13 4980   3.480   4.186   3.078
   52CHL1   C18 4981   3.635   4.198   3.064
   52CHL1  H18A 4982   3.688   4.135   3.139
   52CHL1  H18B 4983   3.658   4.152   2.965
   52CHL1  H18C 4984   3.674   4.302   3.066
   52CHL1   C12 4985   3.426   4.047   3.023
   52CHL1  H12A 4986   3.469   3.963   3.082
   52CHL1  H12B 4987   3.318   4.061   3.042
   52CHL1   C11 4988   3.455   4.029   2.873
   52CHL1  H11A 4989   3.563   4.011   2.854
   52CHL1  H11B 4990   3.404   3.933   2.853
   52CHL1    C9 4991   3.396   4.137   2.784
   52CHL1    H9 4992   3.286   4.134   2.798
   52CHL1   C10 4993   3.430   4.124   2.629
   52CHL1   C19 4994   3.582   4.104   2.609
   52CHL1  H19A 4995   3.601   4.077   2.503
   52CHL1  H19B 4996   3.639   4.194   2.640
   52CHL1  H19C 4997   3.621   4.016   2.663
   52CHL1    C1 4998   3.341   4.003   2.573
   52CHL1   H1A 4999   3.354   3.907   2.628
   52CHL1   H1B 5000   3.237   4.035   2.595
   52CHL1    C2 5001   3.346   3.981   2.425
   52CHL1   H2A 5002   3.280   3.898   2.392
   52CHL1   H2B 5003   3.451   3.957   2.396
   52CHL1   C20 5004   3.513   4.186   3.336
   52CHL1   H20 5005   3.616   4.228   3.336
   52CHL1   C21 5006   3.527   4.035   3.327
   52CHL1  H21A 5007   3.426   3.988   3.319
   52CHL1  H21B 5008   3.571   3.995   3.420
   52CHL1  H21C 5009   3.591   4.003   3.242
   52CHL1   C22 5010   3.448   4.237   3.466
   52CHL1  H22A 5011   3.418   4.343   3.451
   52CHL1  H22B 5012   3.365   4.168   3.490
   52CHL1   C23 5013   3.538   4.226   3.591
   52CHL1  H23A 5014   3.543   4.120   3.623
   52CHL1  H23B 5015   3.645   4.250   3.570
   52CHL1   C24 5016   3.508   4.320   3.715
   52CHL1  H24A 5017   3.602   4.347   3.768
   52CHL1  H24B 5018   3.466   4.416   3.677
   52CHL1   C25 5019   3.424   4.247   3.820
   52CHL1   H25 5020   3.490   4.173   3.871
   52CHL1   C26 5021   3.375   4.346   3.925
   52CHL1  H26A 5022   3.443   4.431   3.946
   52CHL1  H26B 5023   3.277   4.387   3.890
   52CHL1  H26C 5024   3.348   4.286   4.015
   52CHL1   C27 5025   3.305   4.159   3.774
   52CHL1  H27A 5026   3.264   4.114   3.867
   52CHL1  H27B 5027   3.224   4.208   3.717
   52CHL1  H27C 5028   3.340   4.079   3.706
   53CHL1    C3 5029   3.430   3.284   2.424
   53CHL1    H3 5030   3.491   3.376   2.422
   53CHL1    O3 5031   3.400   3.260   2.282
   53CHL1   H3' 5032   3.333   3.325   2.259
   53CHL1    C4 5033   3.487   3.150   2.473
   53CHL1   H4A 5034   3.411   3.071   2.452
   53CHL1   H4B 5035   3.582   3.130   2.419
   53CHL1    C5 5036   3.515   3.152   2.623
   53CHL1    C6 5037   3.640   3.133   2.667
   53CHL1    H6 5038   3.715   3.101   2.594
   53CHL1    C7 5039   3.688   3.136   2.807
   53CHL1   H7A 5040   3.758   3.052   2.829
   53CHL1   H7B 5041   3.741   3.233   2.817
   53CHL1    C8 5042   3.570   3.134   2.907
   53CHL1    H8 5043   3.529   3.031   2.907
   53CHL1   C14 5044   3.620   3.164   3.053
   53CHL1   H14 5045   3.651   3.271   3.050
   53CHL1   C15 5046   3.740   3.085   3.108
   53CHL1  H15A 5047   3.706   2.980   3.092
   53CHL1  H15B 5048   3.830   3.115   3.050
   53CHL1   C16 5049   3.739   3.124   3.254
   53CHL1  H16A 5050   3.764   3.037   3.318
   53CHL1  H16B 5051   3.824   3.193   3.273
   53CHL1   C17 5052   3.598   3.200   3.283
   53CHL1   H17 5053   3.615   3.308   3.266
   53CHL1   C13 5054   3.509   3.168   3.159
   53CHL1   C18 5055   3.437   3.033   3.167
   53CHL1  H18A 5056   3.357   3.031   3.243
   53CHL1  H18B 5057   3.395   2.997   3.071
   53CHL1  H18C 5058   3.501   2.950   3.203
   53CHL1   C12 5059   3.402   3.275   3.113
   53CHL1  H12A 5060   3.323   3.274   3.191
   53CHL1  H12B 5061   3.457   3.371   3.119
   53CHL1   C11 5062   3.352   3.245   2.974
   53CHL1  H11A 5063   3.298   3.148   2.979
   53CHL1  H11B 5064   3.278   3.320   2.941
   53CHL1    C9 5065   3.462   3.231   2.863
   53CHL1    H9 5066   3.504   3.334   2.853
   53CHL1   C10 5067   3.402   3.190   2.721
   53CHL1   C19 5068   3.298   3.079   2.740
   53CHL1  H19A 5069   3.265   3.036   2.643
   53CHL1  H19B 5070   3.334   3.002   2.812
   53CHL1  H19C 5071   3.203   3.114   2.786
   53CHL1    C1 5072   3.338   3.318   2.659
   53CHL1   H1A 5073   3.245   3.338   2.717
   53CHL1   H1B 5074   3.413   3.398   2.672
   53CHL1    C2 5075   3.298   3.315   2.505
   53CHL1   H2A 5076   3.265   3.419   2.487
   53CHL1   H2B 5077   3.214   3.246   2.481
   53CHL1   C20 5078   3.543   3.187   3.427
   53CHL1   H20 5079   3.519   3.079   3.439
   53CHL1   C21 5080   3.425   3.280   3.446
   53CHL1  H21A 5081   3.450   3.388   3.433
   53CHL1  H21B 5082   3.398   3.264   3.553
   53CHL1  H21C 5083   3.343   3.237   3.385
   53CHL1   C22 5084   3.661   3.216   3.534
   53CHL1  H22A 5085   3.740   3.139   3.518
   53CHL1  H22B 5086   3.710   3.307   3.492
   53CHL1   C23 5087   3.624   3.222   3.681
   53CHL1  H23A 5088   3.557   3.310   3.694
   53CHL1  H23B 5089   3.577   3.124   3.704
   53CHL1   C24 5090   3.747   3.230   3.772
   53CHL1  H24A 5091   3.815   3.151   3.733
   53CHL1  H24B 5092   3.805   3.322   3.755
   53CHL1   C25 5093   3.722   3.212   3.927
   53CHL1   H25 5094   3.696   3.105   3.937
   53CHL1   C26 5095   3.860   3.234   3.993
   53CHL1  H26A 5096   3.937   3.159   3.967
   53CHL1  H26B 5097   3.902   3.328   3.951
   53CHL1  H26C 5098   3.835   3.235   4.101
   53CHL1   C27 5099   3.613   3.298   3.988
   53CHL1  H27A 5100   3.519   3.281   3.933
   53CHL1  H27B 5101   3.599   3.275   4.096
   53CHL1  H27C 5102   3.636   3.406   3.974
   54CHL1    C3 5103   2.765   3.318   2.835
   54CHL1    H3 5104   2.755   3.419   2.880
   54CHL1    O3 5105   2.785   3.334   2.694
   54CHL1   H3' 5106   2.818   3.249   2.663
   54CHL1    C4 5107   2.879   3.230   2.887
   54CHL1   H4A 5108   2.871   3.132   2.836
   54CHL1   H4B 5109   2.982   3.265   2.864
   54CHL1    C5 5110   2.864   3.203   3.036
   54CHL1    C6 5111   2.954   3.253   3.116
   54CHL1    H6 5112   3.042   3.308   3.079
   54CHL1    C7 5113   2.945   3.223   3.267
   54CHL1   H7A 5114   3.041   3.180   3.303
   54CHL1   H7B 5115   2.929   3.317   3.323
   54CHL1    C8 5116   2.841   3.119   3.310
   54CHL1    H8 5117   2.872   3.015   3.288
   54CHL1   C14 5118   2.814   3.124   3.462
   54CHL1   H14 5119   2.774   3.225   3.482
   54CHL1   C15 5120   2.932   3.122   3.558
   54CHL1  H15A 5121   3.015   3.056   3.523
   54CHL1  H15B 5122   2.976   3.223   3.570
   54CHL1   C16 5123   2.874   3.076   3.690
   54CHL1  H16A 5124   2.913   2.975   3.714
   54CHL1  H16B 5125   2.893   3.148   3.772
   54CHL1   C17 5126   2.719   3.062   3.668
   54CHL1   H17 5127   2.675   3.163   3.682
   54CHL1   C13 5128   2.705   3.033   3.516
   54CHL1   C18 5129   2.745   2.886   3.491
   54CHL1  H18A 5130   2.767   2.868   3.384
   54CHL1  H18B 5131   2.838   2.866   3.549
   54CHL1  H18C 5132   2.658   2.823   3.520
   54CHL1   C12 5133   2.570   3.065   3.439
   54CHL1  H12A 5134   2.502   2.982   3.466
   54CHL1  H12B 5135   2.523   3.160   3.472
   54CHL1   C11 5136   2.591   3.071   3.289
   54CHL1  H11A 5137   2.601   2.962   3.274
   54CHL1  H11B 5138   2.491   3.100   3.250
   54CHL1    C9 5139   2.712   3.152   3.236
   54CHL1    H9 5140   2.697   3.259   3.261
   54CHL1   C10 5141   2.734   3.138   3.082
   54CHL1   C19 5142   2.739   2.982   3.051
   54CHL1  H19A 5143   2.827   2.936   3.100
   54CHL1  H19B 5144   2.650   2.919   3.074
   54CHL1  H19C 5145   2.745   2.966   2.941
   54CHL1    C1 5146   2.615   3.208   3.011
   54CHL1   H1A 5147   2.523   3.148   3.029
   54CHL1   H1B 5148   2.609   3.309   3.056
   54CHL1    C2 5149   2.637   3.239   2.855
   54CHL1   H2A 5150   2.551   3.292   2.808
   54CHL1   H2B 5151   2.652   3.141   2.804
   54CHL1   C20 5152   2.658   2.966   3.771
   54CHL1   H20 5153   2.694   2.868   3.735
   54CHL1   C21 5154   2.506   2.969   3.753
   54CHL1  H21A 5155   2.495   2.932   3.649
   54CHL1  H21B 5156   2.452   3.064   3.772
   54CHL1  H21C 5157   2.468   2.894   3.825
   54CHL1   C22 5158   2.710   2.975   3.918
   54CHL1  H22A 5159   2.662   2.894   3.977
   54CHL1  H22B 5160   2.820   2.959   3.922
   54CHL1   C23 5161   2.682   3.118   3.968
   54CHL1  H23A 5162   2.706   3.192   3.889
   54CHL1  H23B 5163   2.576   3.138   3.997
   54CHL1   C24 5164   2.757   3.154   4.095
   54CHL1  H24A 5165   2.731   3.080   4.175
   54CHL1  H24B 5166   2.866   3.136   4.086
   54CHL1   C25 5167   2.736   3.304   4.140
   54CHL1   H25 5168   2.625   3.311   4.144
   54CHL1   C26 5169   2.790   3.322   4.285
   54CHL1  H26A 5170   2.773   3.428   4.312
   54CHL1  H26B 5171   2.742   3.256   4.360
   54CHL1  H26C 5172   2.900   3.307   4.274
   54CHL1   C27 5173   2.801   3.402   4.044
   54CHL1  H27A 5174   2.770   3.501   4.083
   54CHL1  H27B 5175   2.912   3.405   4.050
   54CHL1  H27C 5176   2.782   3.377   3.938
   55CHL1    C3 5177   3.813   6.327   2.605
   55CHL1    H3 5178   3.894   6.391   2.645
   55CHL1    O3 5179   3.802   6.330   2.466
   55CHL1   H3' 5180   3.890   6.303   2.437
   55CHL1    C4 5181   3.842   6.183   2.652
   55CHL1   H4A 5182   3.769   6.107   2.619
   55CHL1   H4B 5183   3.939   6.145   2.614
   55CHL1    C5 5184   3.839   6.175   2.804
   55CHL1    C6 5185   3.940   6.124   2.869
   55CHL1    H6 5186   4.033   6.086   2.824
   55CHL1    C7 5187   3.952   6.109   3.016
   55CHL1   H7A 5188   3.977   6.004   3.042
   55CHL1   H7B 5189   4.044   6.160   3.051
   55CHL1    C8 5190   3.828   6.139   3.092
   55CHL1    H8 5191   3.768   6.045   3.092
   55CHL1   C14 5192   3.856   6.165   3.241
   55CHL1   H14 5193   3.926   6.251   3.241
   55CHL1   C15 5194   3.935   6.056   3.314
   55CHL1  H15A 5195   3.872   5.968   3.287
   55CHL1  H15B 5196   4.036   6.039   3.270
   55CHL1   C16 5197   3.924   6.103   3.455
   55CHL1  H16A 5198   3.904   6.022   3.529
   55CHL1  H16B 5199   4.016   6.155   3.489
   55CHL1   C17 5200   3.809   6.213   3.463
   55CHL1   H17 5201   3.859   6.312   3.461
   55CHL1   C13 5202   3.738   6.198   3.320
   55CHL1   C18 5203   3.637   6.087   3.334
   55CHL1  H18A 5204   3.539   6.136   3.350
   55CHL1  H18B 5205   3.634   6.024   3.242
   55CHL1  H18C 5206   3.658   6.026   3.424
   55CHL1   C12 5207   3.671   6.323   3.261
   55CHL1  H12A 5208   3.585   6.357   3.323
   55CHL1  H12B 5209   3.755   6.396   3.264
   55CHL1   C11 5210   3.625   6.288   3.114
   55CHL1  H11A 5211   3.551   6.205   3.113
   55CHL1  H11B 5212   3.580   6.379   3.069
   55CHL1    C9 5213   3.751   6.254   3.029
   55CHL1    H9 5214   3.821   6.340   3.033
   55CHL1   C10 5215   3.715   6.238   2.873
   55CHL1   C19 5216   3.595   6.149   2.871
   55CHL1  H19A 5217   3.566   6.114   2.770
   55CHL1  H19B 5218   3.600   6.062   2.941
   55CHL1  H19C 5219   3.504   6.206   2.900
   55CHL1    C1 5220   3.677   6.373   2.815
   55CHL1   H1A 5221   3.578   6.410   2.847
   55CHL1   H1B 5222   3.755   6.445   2.848
   55CHL1    C2 5223   3.685   6.376   2.663
   55CHL1   H2A 5224   3.660   6.477   2.623
   55CHL1   H2B 5225   3.598   6.326   2.615
   55CHL1   C20 5226   3.725   6.213   3.595
   55CHL1   H20 5227   3.662   6.122   3.609
   55CHL1   C21 5228   3.635   6.338   3.601
   55CHL1  H21A 5229   3.573   6.346   3.693
   55CHL1  H21B 5230   3.564   6.333   3.516
   55CHL1  H21C 5231   3.698   6.429   3.587
   55CHL1   C22 5232   3.819   6.187   3.721
   55CHL1  H22A 5233   3.861   6.084   3.714
   55CHL1  H22B 5234   3.903   6.259   3.718
   55CHL1   C23 5235   3.753   6.204   3.856
   55CHL1  H23A 5236   3.729   6.312   3.869
   55CHL1  H23B 5237   3.652   6.159   3.857
   55CHL1   C24 5238   3.828   6.143   3.977
   55CHL1  H24A 5239   3.815   6.032   3.980
   55CHL1  H24B 5240   3.938   6.154   3.965
   55CHL1   C25 5241   3.800   6.204   4.107
   55CHL1   H25 5242   3.826   6.313   4.107
   55CHL1   C26 5243   3.650   6.182   4.149
   55CHL1  H26A 5244   3.579   6.217   4.070
   55CHL1  H26B 5245   3.622   6.078   4.175
   55CHL1  H26C 5246   3.627   6.242   4.240
   55CHL1   C27 5247   3.895   6.151   4.221
   55CHL1  H27A 5248   3.867   6.210   4.311
   55CHL1  H27B 5249   3.888   6.042   4.239
   55CHL1  H27C 5250   4.003   6.175   4.207
   56CHL1    C3 5251   5.776   2.069   2.765
   56CHL1    H3 5252   5.790   2.179   2.756
   56CHL1    O3 5253   5.745   2.023   2.632
   56CHL1   H3' 5254   5.812   1.956   2.617
   56CHL1    C4 5255   5.913   2.003   2.807
   56CHL1   H4A 5256   5.902   1.895   2.782
   56CHL1   H4B 5257   5.995   2.037   2.739
   56CHL1    C5 5258   5.942   2.010   2.957
   56CHL1    C6 5259   6.064   2.056   2.997
   56CHL1    H6 5260   6.135   2.092   2.921
   56CHL1    C7 5261   6.114   2.078   3.137
   56CHL1   H7A 5262   6.217   2.038   3.150
   56CHL1   H7B 5263   6.110   2.186   3.160
   56CHL1    C8 5264   6.019   1.994   3.232
   56CHL1    H8 5265   6.037   1.886   3.215
   56CHL1   C14 5266   6.062   2.032   3.377
   56CHL1   H14 5267   6.029   2.138   3.389
   56CHL1   C15 5268   6.208   2.031   3.426
   56CHL1  H15A 5269   6.268   1.950   3.380
   56CHL1  H15B 5270   6.253   2.130   3.403
   56CHL1   C16 5271   6.192   2.011   3.581
   56CHL1  H16A 5272   6.242   1.923   3.627
   56CHL1  H16B 5273   6.241   2.093   3.639
   56CHL1   C17 5274   6.041   2.003   3.611
   56CHL1   H17 5275   6.004   2.105   3.634
   56CHL1   C13 5276   5.978   1.961   3.480
   56CHL1   C18 5277   6.001   1.808   3.456
   56CHL1  H18A 5278   5.992   1.737   3.541
   56CHL1  H18B 5279   5.945   1.768   3.369
   56CHL1  H18C 5280   6.108   1.801   3.427
   56CHL1   C12 5281   5.829   2.000   3.462
   56CHL1  H12A 5282   5.765   1.937   3.528
   56CHL1  H12B 5283   5.801   2.103   3.493
   56CHL1   C11 5284   5.774   1.977   3.318
   56CHL1  H11A 5285   5.752   1.869   3.309
   56CHL1  H11B 5286   5.680   2.036   3.308
   56CHL1    C9 5287   5.866   2.025   3.203
   56CHL1    H9 5288   5.858   2.135   3.211
   56CHL1   C10 5289   5.824   1.976   3.051
   56CHL1   C19 5290   5.795   1.821   3.050
   56CHL1  H19A 5291   5.692   1.800   3.084
   56CHL1  H19B 5292   5.814   1.767   2.954
   56CHL1  H19C 5293   5.851   1.770   3.132
   56CHL1    C1 5294   5.710   2.061   3.006
   56CHL1   H1A 5295   5.624   2.046   3.075
   56CHL1   H1B 5296   5.730   2.170   3.017
   56CHL1    C2 5297   5.666   2.030   2.861
   56CHL1   H2A 5298   5.571   2.084   2.843
   56CHL1   H2B 5299   5.644   1.923   2.840
   56CHL1   C20 5300   6.008   1.924   3.744
   56CHL1   H20 5301   6.045   1.821   3.723
   56CHL1   C21 5302   5.853   1.906   3.769
   56CHL1  H21A 5303   5.824   1.870   3.871
   56CHL1  H21B 5304   5.821   1.829   3.696
   56CHL1  H21C 5305   5.791   1.997   3.758
   56CHL1   C22 5306   6.076   1.983   3.870
   56CHL1  H22A 5307   6.187   1.985   3.867
   56CHL1  H22B 5308   6.032   2.085   3.879
   56CHL1   C23 5309   6.032   1.922   4.004
   56CHL1  H23A 5310   5.922   1.919   4.015
   56CHL1  H23B 5311   6.061   1.815   4.001
   56CHL1   C24 5312   6.095   1.987   4.126
   56CHL1  H24A 5313   6.206   1.983   4.129
   56CHL1  H24B 5314   6.068   2.094   4.139
   56CHL1   C25 5315   6.054   1.912   4.253
   56CHL1   H25 5316   5.943   1.905   4.256
   56CHL1   C26 5317   6.107   1.766   4.251
   56CHL1  H26A 5318   6.217   1.772   4.233
   56CHL1  H26B 5319   6.098   1.704   4.343
   56CHL1  H26C 5320   6.064   1.706   4.169
   56CHL1   C27 5321   6.111   1.986   4.381
   56CHL1  H27A 5322   6.090   1.925   4.471
   56CHL1  H27B 5323   6.220   1.992   4.363
   56CHL1  H27C 5324   6.061   2.084   4.398
   57CHL1    C3 5325   4.535   6.833   2.927
   57CHL1    H3 5326   4.552   0.058   2.961
   57CHL1    O3 5327   4.494   6.829   2.791
   57CHL1   H3' 5328   4.506   6.737   2.765
   57CHL1    C4 5329   4.667   6.753   2.945
   57CHL1   H4A 5330   4.658   6.651   2.901
   57CHL1   H4B 5331   4.744   6.811   2.889
   57CHL1    C5 5332   4.704   6.739   3.088
   57CHL1    C6 5333   4.819   6.793   3.135
   57CHL1    H6 5334   4.887   6.842   3.064
   57CHL1    C7 5335   4.863   6.797   3.278
   57CHL1   H7A 5336   4.974   6.789   3.278
   57CHL1   H7B 5337   4.864   0.022   3.316
   57CHL1    C8 5338   4.791   6.699   3.362
   57CHL1    H8 5339   4.819   6.596   3.331
   57CHL1   C14 5340   4.823   6.711   3.510
   57CHL1   H14 5341   4.794   6.814   3.539
   57CHL1   C15 5342   4.966   6.695   3.546
   57CHL1  H15A 5343   5.011   6.606   3.498
   57CHL1  H15B 5344   5.034   6.774   3.509
   57CHL1   C16 5345   4.954   6.694   3.700
   57CHL1  H16A 5346   5.013   6.607   3.735
   57CHL1  H16B 5347   4.990   6.793   3.737
   57CHL1   C17 5348   4.809   6.668   3.737
   57CHL1   H17 5349   4.774   6.773   3.747
   57CHL1   C13 5350   4.746   6.619   3.603
   57CHL1   C18 5351   4.774   6.473   3.581
   57CHL1  H18A 5352   4.730   6.442   3.483
   57CHL1  H18B 5353   4.883   6.454   3.592
   57CHL1  H18C 5354   4.726   6.413   3.661
   57CHL1   C12 5355   4.593   6.647   3.586
   57CHL1  H12A 5356   4.534   6.587   3.658
   57CHL1  H12B 5357   4.572   6.753   3.609
   57CHL1   C11 5358   4.551   6.625   3.442
   57CHL1  H11A 5359   4.550   6.516   3.420
   57CHL1  H11B 5360   4.442   6.651   3.443
   57CHL1    C9 5361   4.633   6.711   3.337
   57CHL1    H9 5362   4.610   6.818   3.353
   57CHL1   C10 5363   4.596   6.688   3.189
   57CHL1   C19 5364   4.572   6.532   3.157
   57CHL1  H19A 5365   4.486   6.495   3.217
   57CHL1  H19B 5366   4.544   6.524   3.049
   57CHL1  H19C 5367   4.660   6.467   3.177
   57CHL1    C1 5368   4.462   6.759   3.155
   57CHL1   H1A 5369   4.375   6.712   3.204
   57CHL1   H1B 5370   4.465   6.867   3.184
   57CHL1    C2 5371   4.422   6.771   3.005
   57CHL1   H2A 5372   4.321   6.812   2.984
   57CHL1   H2B 5373   4.418   6.671   2.957
   57CHL1   C20 5374   4.797   6.586   3.863
   57CHL1   H20 5375   4.843   6.485   3.853
   57CHL1   C21 5376   4.647   6.560   3.895
   57CHL1  H21A 5377   4.585   6.650   3.873
   57CHL1  H21B 5378   4.645   6.529   4.002
   57CHL1  H21C 5379   4.600   6.488   3.825
   57CHL1   C22 5380   4.872   6.650   3.986
   57CHL1  H22A 5381   4.837   6.598   4.078
   57CHL1  H22B 5382   4.979   6.620   3.990
   57CHL1   C23 5383   4.863   6.799   4.009
   57CHL1  H23A 5384   4.894   6.855   3.918
   57CHL1  H23B 5385   4.758   6.830   4.026
   57CHL1   C24 5386   4.954   6.834   4.119
   57CHL1  H24A 5387   4.928   6.765   4.202
   57CHL1  H24B 5388   5.062   6.818   4.095
   57CHL1   C25 5389   4.956   0.104   4.167
   57CHL1   H25 5390   4.923   0.164   4.079
   57CHL1   C26 5391   4.859   0.136   4.283
   57CHL1  H26A 5392   4.748   0.127   4.271
   57CHL1  H26B 5393   4.891   0.071   4.366
   57CHL1  H26C 5394   4.876   0.240   4.316
   57CHL1   C27 5395   5.094   0.157   4.197
   57CHL1  H27A 5396   5.162   0.155   4.109
   57CHL1  H27B 5397   5.087   0.263   4.229
   57CHL1  H27C 5398   5.143   0.104   4.282
   58CHL1    C3 5399   4.557   0.559   2.653
   58CHL1    H3 5400   4.649   0.526   2.704
   58CHL1    O3 5401   4.573   0.575   2.515
   58CHL1   H3' 5402   4.577   0.482   2.492
   58CHL1    C4 5403   4.438   0.462   2.679
   58CHL1   H4A 5404   4.352   0.502   2.622
   58CHL1   H4B 5405   4.466   0.360   2.643
   58CHL1    C5 5406   4.409   0.444   2.830
   58CHL1    C6 5407   4.434   0.334   2.893
   58CHL1    H6 5408   4.459   0.249   2.827
   58CHL1    C7 5409   4.434   0.310   3.039
   58CHL1   H7A 5410   4.389   0.212   3.062
   58CHL1   H7B 5411   4.537   0.319   3.080
   58CHL1    C8 5412   4.346   0.423   3.109
   58CHL1    H8 5413   4.237   0.414   3.086
   58CHL1   C14 5414   4.358   0.414   3.262
   58CHL1   H14 5415   4.464   0.428   3.292
   58CHL1   C15 5416   4.311   0.287   3.320
   58CHL1  H15A 5417   4.216   0.278   3.264
   58CHL1  H15B 5418   4.379   0.199   3.317
   58CHL1   C16 5419   4.274   0.324   3.470
   58CHL1  H16A 5420   4.173   0.285   3.495
   58CHL1  H16B 5421   4.342   0.277   3.544
   58CHL1   C17 5422   4.291   0.474   3.483
   58CHL1   H17 5423   4.396   0.500   3.507
   58CHL1   C13 5424   4.280   0.520   3.339
   58CHL1   C18 5425   4.127   0.517   3.308
   58CHL1  H18A 5426   4.093   0.533   3.203
   58CHL1  H18B 5427   4.068   0.434   3.352
   58CHL1  H18C 5428   4.077   0.604   3.355
   58CHL1   C12 5429   4.354   0.655   3.295
   58CHL1  H12A 5430   4.327   0.739   3.362
   58CHL1  H12B 5431   4.463   0.645   3.317
   58CHL1   C11 5432   4.349   0.686   3.140
   58CHL1  H11A 5433   4.246   0.710   3.108
   58CHL1  H11B 5434   4.417   0.766   3.105
   58CHL1    C9 5435   4.399   0.559   3.065
   58CHL1    H9 5436   4.505   0.547   3.097
   58CHL1   C10 5437   4.380   0.573   2.911
   58CHL1   C19 5438   4.238   0.609   2.875
   58CHL1  H19A 5439   4.224   0.617   2.765
   58CHL1  H19B 5440   4.166   0.535   2.917
   58CHL1  H19C 5441   4.218   0.713   2.907
   58CHL1    C1 5442   4.488   0.677   2.858
   58CHL1   H1A 5443   4.462   0.776   2.901
   58CHL1   H1B 5444   4.589   0.645   2.893
   58CHL1    C2 5445   4.511   0.694   2.708
   58CHL1   H2A 5446   4.592   0.766   2.682
   58CHL1   H2B 5447   4.418   0.744   2.674
   58CHL1   C20 5448   4.206   0.542   3.591
   58CHL1   H20 5449   4.098   0.556   3.566
   58CHL1   C21 5450   4.263   0.682   3.616
   58CHL1  H21A 5451   4.234   0.723   3.715
   58CHL1  H21B 5452   4.237   0.756   3.538
   58CHL1  H21C 5453   4.374   0.683   3.619
   58CHL1   C22 5454   4.204   0.463   3.727
   58CHL1  H22A 5455   4.177   0.357   3.704
   58CHL1  H22B 5456   4.305   0.447   3.770
   58CHL1   C23 5457   4.102   0.503   3.843
   58CHL1  H23A 5458   4.116   0.604   3.888
   58CHL1  H23B 5459   4.008   0.518   3.787
   58CHL1   C24 5460   4.077   0.379   3.928
   58CHL1  H24A 5461   4.056   0.293   3.860
   58CHL1  H24B 5462   4.171   0.359   3.983
   58CHL1   C25 5463   3.961   0.405   4.026
   58CHL1   H25 5464   3.869   0.415   3.965
   58CHL1   C26 5465   3.932   0.282   4.114
   58CHL1  H26A 5466   3.991   0.291   4.208
   58CHL1  H26B 5467   3.822   0.273   4.127
   58CHL1  H26C 5468   3.976   0.195   4.061
   58CHL1   C27 5469   3.968   0.536   4.110
   58CHL1  H27A 5470   4.066   0.531   4.163
   58CHL1  H27B 5471   3.959   0.631   4.052
   58CHL1  H27C 5472   3.890   0.539   4.188
   59CHL1    C3 5473   2.982   4.780   2.478
   59CHL1    H3 5474   2.946   4.680   2.449
   59CHL1    O3 5475   2.982   4.859   2.360
   59CHL1   H3' 5476   3.016   4.944   2.390
   59CHL1    C4 5477   2.873   4.845   2.574
   59CHL1   H4A 5478   2.889   4.954   2.583
   59CHL1   H4B 5479   2.779   4.827   2.517
   59CHL1    C5 5480   2.874   4.786   2.710
   59CHL1    C6 5481   2.756   4.740   2.766
   59CHL1    H6 5482   2.663   4.744   2.707
   59CHL1    C7 5483   2.743   4.698   2.911
   59CHL1   H7A 5484   2.655   4.734   2.968
   59CHL1   H7B 5485   2.728   4.588   2.909
   59CHL1    C8 5486   2.867   4.726   2.997
   59CHL1    H8 5487   2.865   4.835   3.019
   59CHL1   C14 5488   2.860   4.649   3.130
   59CHL1   H14 5489   2.869   4.543   3.097
   59CHL1   C15 5490   2.738   4.673   3.215
   59CHL1  H15A 5491   2.697   4.775   3.207
   59CHL1  H15B 5492   2.659   4.600   3.185
   59CHL1   C16 5493   2.780   4.626   3.355
   59CHL1  H16A 5494   2.759   4.704   3.431
   59CHL1  H16B 5495   2.729   4.530   3.379
   59CHL1   C17 5496   2.941   4.598   3.350
   59CHL1   H17 5497   2.965   4.492   3.327
   59CHL1   C13 5498   2.983   4.668   3.217
   59CHL1   C18 5499   3.005   4.815   3.254
   59CHL1  H18A 5500   3.094   4.833   3.318
   59CHL1  H18B 5501   3.031   4.869   3.160
   59CHL1  H18C 5502   2.910   4.858   3.292
   59CHL1   C12 5503   3.105   4.606   3.137
   59CHL1  H12A 5504   3.206   4.625   3.178
   59CHL1  H12B 5505   3.102   4.496   3.122
   59CHL1   C11 5506   3.122   4.681   3.003
   59CHL1  H11A 5507   3.158   4.782   3.033
   59CHL1  H11B 5508   3.200   4.634   2.940
   59CHL1    C9 5509   2.996   4.691   2.919
   59CHL1    H9 5510   2.978   4.593   2.871
   59CHL1   C10 5511   3.011   4.774   2.784
   59CHL1   C19 5512   3.051   4.919   2.830
   59CHL1  H19A 5513   3.159   4.918   2.855
   59CHL1  H19B 5514   3.039   4.997   2.751
   59CHL1  H19C 5515   2.998   4.950   2.922
   59CHL1    C1 5516   3.118   4.709   2.682
   59CHL1   H1A 5517   3.218   4.715   2.731
   59CHL1   H1B 5518   3.092   4.601   2.682
   59CHL1    C2 5519   3.118   4.766   2.542
   59CHL1   H2A 5520   3.192   4.713   2.478
   59CHL1   H2B 5521   3.160   4.867   2.563
   59CHL1   C20 5522   3.005   4.625   3.489
   59CHL1   H20 5523   2.994   4.733   3.515
   59CHL1   C21 5524   3.155   4.599   3.480
   59CHL1  H21A 5525   3.199   4.666   3.403
   59CHL1  H21B 5526   3.164   4.500   3.432
   59CHL1  H21C 5527   3.210   4.605   3.576
   59CHL1   C22 5528   2.938   4.543   3.597
   59CHL1  H22A 5529   2.827   4.545   3.593
   59CHL1  H22B 5530   2.960   4.435   3.580
   59CHL1   C23 5531   2.971   4.574   3.743
   59CHL1  H23A 5532   3.078   4.599   3.760
   59CHL1  H23B 5533   2.920   4.667   3.776
   59CHL1   C24 5534   2.931   4.457   3.841
   59CHL1  H24A 5535   2.831   4.413   3.822
   59CHL1  H24B 5536   3.008   4.380   3.818
   59CHL1   C25 5537   2.962   4.500   3.985
   59CHL1   H25 5538   3.052   4.564   3.995
   59CHL1   C26 5539   2.851   4.582   4.058
   59CHL1  H26A 5540   2.874   4.628   4.156
   59CHL1  H26B 5541   2.821   4.660   3.985
   59CHL1  H26C 5542   2.762   4.516   4.064
   59CHL1   C27 5543   2.990   4.366   4.069
   59CHL1  H27A 5544   3.093   4.335   4.042
   59CHL1  H27B 5545   2.993   4.387   4.179
   59CHL1  H27C 5546   2.922   4.289   4.029
   60CHL1    C3 5547   5.476   5.967   3.072
   60CHL1    H3 5548   5.501   6.074   3.058
   60CHL1    O3 5549   5.400   5.921   2.957
   60CHL1   H3' 5550   5.462   5.909   2.885
   60CHL1    C4 5551   5.600   5.876   3.088
   60CHL1   H4A 5552   5.572   5.771   3.064
   60CHL1   H4B 5553   5.667   5.902   3.003
   60CHL1    C5 5554   5.668   5.889   3.222
   60CHL1    C6 5555   5.802   5.917   3.233
   60CHL1    H6 5556   5.860   5.922   3.140
   60CHL1    C7 5557   5.864   5.921   3.369
   60CHL1   H7A 5558   5.956   5.859   3.371
   60CHL1   H7B 5559   5.898   6.024   3.394
   60CHL1    C8 5560   5.784   5.876   3.494
   60CHL1    H8 5561   5.767   5.767   3.505
   60CHL1   C14 5562   5.842   5.930   3.627
   60CHL1   H14 5563   5.853   6.040   3.616
   60CHL1   C15 5564   5.987   5.877   3.650
   60CHL1  H15A 5565   5.997   5.767   3.633
   60CHL1  H15B 5566   6.068   5.925   3.592
   60CHL1   C16 5567   6.001   5.920   3.796
   60CHL1  H16A 5568   6.052   5.840   3.855
   60CHL1  H16B 5569   6.072   6.004   3.811
   60CHL1   C17 5570   5.863   5.968   3.857
   60CHL1   H17 5571   5.866   6.077   3.836
   60CHL1   C13 5572   5.764   5.904   3.756
   60CHL1   C18 5573   5.749   5.749   3.787
   60CHL1  H18A 5574   5.840   5.685   3.788
   60CHL1  H18B 5575   5.696   5.754   3.885
   60CHL1  H18C 5576   5.679   5.699   3.718
   60CHL1   C12 5577   5.630   5.971   3.742
   60CHL1  H12A 5578   5.560   5.942   3.824
   60CHL1  H12B 5579   5.632   6.082   3.737
   60CHL1   C11 5580   5.563   5.927   3.610
   60CHL1  H11A 5581   5.523   5.825   3.623
   60CHL1  H11B 5582   5.472   5.991   3.603
   60CHL1    C9 5583   5.647   5.938   3.478
   60CHL1    H9 5584   5.676   6.045   3.473
   60CHL1   C10 5585   5.582   5.890   3.344
   60CHL1   C19 5586   5.522   5.743   3.346
   60CHL1  H19A 5587   5.594   5.659   3.356
   60CHL1  H19B 5588   5.442   5.735   3.423
   60CHL1  H19C 5589   5.464   5.715   3.256
   60CHL1    C1 5590   5.464   5.990   3.314
   60CHL1   H1A 5591   5.392   5.974   3.397
   60CHL1   H1B 5592   5.510   6.091   3.325
   60CHL1    C2 5593   5.378   5.961   3.189
   60CHL1   H2A 5594   5.307   6.044   3.169
   60CHL1   H2B 5595   5.323   5.866   3.208
   60CHL1   C20 5596   5.857   5.957   4.004
   60CHL1   H20 5597   5.869   5.849   4.026
   60CHL1   C21 5598   5.714   5.992   4.062
   60CHL1  H21A 5599   5.632   5.929   4.022
   60CHL1  H21B 5600   5.689   6.100   4.048
   60CHL1  H21C 5601   5.716   5.973   4.171
   60CHL1   C22 5602   5.967   6.029   4.081
   60CHL1  H22A 5603   6.063   6.006   4.031
   60CHL1  H22B 5604   5.967   6.140   4.081
   60CHL1   C23 5605   5.975   5.995   4.234
   60CHL1  H23A 5606   5.888   6.041   4.286
   60CHL1  H23B 5607   5.961   5.885   4.244
   60CHL1   C24 5608   6.097   6.046   4.312
   60CHL1  H24A 5609   6.181   5.985   4.272
   60CHL1  H24B 5610   6.114   6.150   4.278
   60CHL1   C25 5611   6.082   6.039   4.467
   60CHL1   H25 5612   6.166   6.103   4.502
   60CHL1   C26 5613   5.958   6.105   4.524
   60CHL1  H26A 5614   5.963   6.088   4.634
   60CHL1  H26B 5615   5.957   6.212   4.494
   60CHL1  H26C 5616   5.870   6.062   4.472
   60CHL1   C27 5617   6.090   5.888   4.521
   60CHL1  H27A 5618   5.990   5.856   4.486
   60CHL1  H27B 5619   6.172   5.827   4.477
   60CHL1  H27C 5620   6.111   5.887   4.630
   61CHL1    C3 5621   5.629   2.503   2.727
   61CHL1    H3 5622   5.682   2.408   2.706
   61CHL1    O3 5623   5.647   2.596   2.615
   61CHL1   H3' 5624   5.629   2.684   2.650
   61CHL1    C4 5625   5.486   2.500   2.770
   61CHL1   H4A 5626   5.453   2.606   2.771
   61CHL1   H4B 5627   5.439   2.436   2.692
   61CHL1    C5 5628   5.467   2.441   2.907
   61CHL1    C6 5629   5.383   2.332   2.919
   61CHL1    H6 5630   5.353   2.287   2.823
   61CHL1    C7 5631   5.361   2.259   3.053
   61CHL1   H7A 5632   5.255   2.225   3.054
   61CHL1   H7B 5633   5.426   2.169   3.061
   61CHL1    C8 5634   5.400   2.352   3.175
   61CHL1    H8 5635   5.316   2.422   3.199
   61CHL1   C14 5636   5.418   2.263   3.302
   61CHL1   H14 5637   5.503   2.193   3.287
   61CHL1   C15 5638   5.300   2.175   3.347
   61CHL1  H15A 5639   5.208   2.237   3.350
   61CHL1  H15B 5640   5.284   2.101   3.266
   61CHL1   C16 5641   5.352   2.121   3.481
   61CHL1  H16A 5642   5.268   2.098   3.550
   61CHL1  H16B 5643   5.394   2.019   3.464
   61CHL1   C17 5644   5.456   2.220   3.541
   61CHL1   H17 5645   5.555   2.171   3.524
   61CHL1   C13 5646   5.460   2.334   3.431
   61CHL1   C18 5647   5.360   2.434   3.487
   61CHL1  H18A 5648   5.259   2.396   3.513
   61CHL1  H18B 5649   5.395   2.486   3.579
   61CHL1  H18C 5650   5.351   2.521   3.419
   61CHL1   C12 5651   5.598   2.394   3.399
   61CHL1  H12A 5652   5.640   2.433   3.495
   61CHL1  H12B 5653   5.660   2.306   3.372
   61CHL1   C11 5654   5.587   2.497   3.288
   61CHL1  H11A 5655   5.525   2.587   3.310
   61CHL1  H11B 5656   5.689   2.531   3.259
   61CHL1    C9 5657   5.536   2.429   3.158
   61CHL1    H9 5658   5.607   2.345   3.142
   61CHL1   C10 5659   5.543   2.507   3.026
   61CHL1   C19 5660   5.487   2.650   3.048
   61CHL1  H19A 5661   5.379   2.645   3.075
   61CHL1  H19B 5662   5.544   2.702   3.128
   61CHL1  H19C 5663   5.517   2.705   2.956
   61CHL1    C1 5664   5.690   2.516   2.984
   61CHL1   H1A 5665   5.726   2.607   3.037
   61CHL1   H1B 5666   5.743   2.423   3.014
   61CHL1    C2 5667   5.715   2.559   2.841
   61CHL1   H2A 5668   5.822   2.533   2.825
   61CHL1   H2B 5669   5.714   2.670   2.845
   61CHL1   C20 5670   5.441   2.241   3.689
   61CHL1   H20 5671   5.341   2.285   3.711
   61CHL1   C21 5672   5.553   2.332   3.743
   61CHL1  H21A 5673   5.527   2.358   3.848
   61CHL1  H21B 5674   5.558   2.423   3.680
   61CHL1  H21C 5675   5.657   2.293   3.741
   61CHL1   C22 5676   5.437   2.106   3.768
   61CHL1  H22A 5677   5.371   2.028   3.724
   61CHL1  H22B 5678   5.536   2.055   3.767
   61CHL1   C23 5679   5.370   2.119   3.910
   61CHL1  H23A 5680   5.445   2.165   3.978
   61CHL1  H23B 5681   5.283   2.188   3.907
   61CHL1   C24 5682   5.321   1.978   3.955
   61CHL1  H24A 5683   5.235   1.958   3.888
   61CHL1  H24B 5684   5.402   1.906   3.933
   61CHL1   C25 5685   5.284   1.965   4.107
   61CHL1   H25 5686   5.365   1.996   4.177
   61CHL1   C26 5687   5.174   2.061   4.147
   61CHL1  H26A 5688   5.215   2.163   4.142
   61CHL1  H26B 5689   5.083   2.051   4.084
   61CHL1  H26C 5690   5.157   2.036   4.254
   61CHL1   C27 5691   5.255   1.813   4.142
   61CHL1  H27A 5692   5.343   1.748   4.157
   61CHL1  H27B 5693   5.192   1.820   4.233
   61CHL1  H27C 5694   5.197   1.761   4.063
   62CHL1    C3 5695   1.333   0.642   2.732
   62CHL1    H3 5696   1.297   0.745   2.750
   62CHL1    O3 5697   1.315   0.617   2.595
   62CHL1   H3' 5698   1.347   0.528   2.581
   62CHL1    C4 5699   1.486   0.632   2.765
   62CHL1   H4A 5700   1.534   0.550   2.708
   62CHL1   H4B 5701   1.530   0.718   2.710
   62CHL1    C5 5702   1.521   0.635   2.915
   62CHL1    C6 5703   1.621   0.714   2.971
   62CHL1    H6 5704   1.679   0.784   2.910
   62CHL1    C7 5705   1.636   0.716   3.127
   62CHL1   H7A 5706   1.745   0.708   3.150
   62CHL1   H7B 5707   1.595   0.815   3.155
   62CHL1    C8 5708   1.562   0.610   3.210
   62CHL1    H8 5709   1.631   0.523   3.221
   62CHL1   C14 5710   1.545   0.658   3.352
   62CHL1   H14 5711   1.473   0.740   3.332
   62CHL1   C15 5712   1.659   0.726   3.420
   62CHL1  H15A 5713   1.756   0.671   3.418
   62CHL1  H15B 5714   1.661   0.833   3.389
   62CHL1   C16 5715   1.628   0.721   3.568
   62CHL1  H16A 5716   1.709   0.673   3.627
   62CHL1  H16B 5717   1.610   0.821   3.613
   62CHL1   C17 5718   1.486   0.643   3.571
   62CHL1   H17 5719   1.415   0.725   3.550
   62CHL1   C13 5720   1.479   0.555   3.449
   62CHL1   C18 5721   1.571   0.431   3.465
   62CHL1  H18A 5722   1.514   0.343   3.501
   62CHL1  H18B 5723   1.617   0.398   3.369
   62CHL1  H18C 5724   1.650   0.454   3.539
   62CHL1   C12 5725   1.343   0.514   3.390
   62CHL1  H12A 5726   1.300   0.429   3.448
   62CHL1  H12B 5727   1.274   0.599   3.405
   62CHL1   C11 5728   1.354   0.467   3.241
   62CHL1  H11A 5729   1.399   0.365   3.239
   62CHL1  H11B 5730   1.256   0.444   3.194
   62CHL1    C9 5731   1.424   0.571   3.154
   62CHL1    H9 5732   1.366   0.663   3.176
   62CHL1   C10 5733   1.428   0.548   3.004
   62CHL1   C19 5734   1.468   0.398   2.981
   62CHL1  H19A 5735   1.555   0.374   3.046
   62CHL1  H19B 5736   1.387   0.332   3.017
   62CHL1  H19C 5737   1.487   0.378   2.873
   62CHL1    C1 5738   1.278   0.562   2.961
   62CHL1   H1A 5739   1.219   0.478   3.003
   62CHL1   H1B 5740   1.236   0.661   2.986
   62CHL1    C2 5741   1.253   0.537   2.810
   62CHL1   H2A 5742   1.147   0.553   2.782
   62CHL1   H2B 5743   1.277   0.434   2.775
   62CHL1   C20 5744   1.465   0.575   3.701
   62CHL1   H20 5745   1.537   0.493   3.721
   62CHL1   C21 5746   1.329   0.494   3.712
   62CHL1  H21A 5747   1.250   0.557   3.668
   62CHL1  H21B 5748   1.318   0.470   3.820
   62CHL1  H21C 5749   1.327   0.405   3.645
   62CHL1   C22 5750   1.472   0.671   3.822
   62CHL1  H22A 5751   1.550   0.749   3.814
   62CHL1  H22B 5752   1.376   0.727   3.830
   62CHL1   C23 5753   1.522   0.606   3.958
   62CHL1  H23A 5754   1.512   0.693   4.026
   62CHL1  H23B 5755   1.450   0.525   3.983
   62CHL1   C24 5756   1.671   0.566   3.945
   62CHL1  H24A 5757   1.681   0.476   3.882
   62CHL1  H24B 5758   1.731   0.649   3.902
   62CHL1   C25 5759   1.736   0.540   4.082
   62CHL1   H25 5760   1.734   0.631   4.147
   62CHL1   C26 5761   1.658   0.431   4.161
   62CHL1  H26A 5762   1.724   0.426   4.251
   62CHL1  H26B 5763   1.560   0.470   4.196
   62CHL1  H26C 5764   1.640   0.346   4.092
   62CHL1   C27 5765   1.887   0.510   4.075
   62CHL1  H27A 5766   1.902   0.433   3.996
   62CHL1  H27B 5767   1.946   0.601   4.051
   62CHL1  H27C 5768   1.925   0.465   4.170
   63CHL1    C3 5769   4.703   5.359   2.800
   63CHL1    H3 5770   4.787   5.322   2.862
   63CHL1    O3 5771   4.727   5.349   2.660
   63CHL1   H3' 5772   4.814   5.387   2.645
   63CHL1    C4 5773   4.591   5.258   2.828
   63CHL1   H4A 5774   4.506   5.278   2.759
   63CHL1   H4B 5775   4.624   5.156   2.800
   63CHL1    C5 5776   4.546   5.264   2.977
   63CHL1    C6 5777   4.556   5.156   3.056
   63CHL1    H6 5778   4.591   5.057   3.023
   63CHL1    C7 5779   4.500   5.138   3.194
   63CHL1   H7A 5780   4.444   5.044   3.212
   63CHL1   H7B 5781   4.591   5.121   3.257
   63CHL1    C8 5782   4.406   5.262   3.231
   63CHL1    H8 5783   4.305   5.249   3.187
   63CHL1   C14 5784   4.387   5.268   3.387
   63CHL1   H14 5785   4.483   5.296   3.435
   63CHL1   C15 5786   4.348   5.146   3.462
   63CHL1  H15A 5787   4.288   5.087   3.389
   63CHL1  H15B 5788   4.437   5.089   3.497
   63CHL1   C16 5789   4.269   5.196   3.586
   63CHL1  H16A 5790   4.165   5.157   3.585
   63CHL1  H16B 5791   4.320   5.169   3.681
   63CHL1   C17 5792   4.278   5.344   3.571
   63CHL1   H17 5793   4.373   5.370   3.623
   63CHL1   C13 5794   4.291   5.377   3.428
   63CHL1   C18 5795   4.153   5.358   3.355
   63CHL1  H18A 5796   4.070   5.423   3.389
   63CHL1  H18B 5797   4.159   5.376   3.246
   63CHL1  H18C 5798   4.120   5.253   3.370
   63CHL1   C12 5799   4.351   5.518   3.387
   63CHL1  H12A 5800   4.273   5.597   3.394
   63CHL1  H12B 5801   4.434   5.537   3.457
   63CHL1   C11 5802   4.385   5.515   3.239
   63CHL1  H11A 5803   4.294   5.522   3.176
   63CHL1  H11B 5804   4.439   5.611   3.224
   63CHL1    C9 5805   4.472   5.397   3.187
   63CHL1    H9 5806   4.570   5.410   3.239
   63CHL1   C10 5807   4.498   5.397   3.026
   63CHL1   C19 5808   4.359   5.424   2.958
   63CHL1  H19A 5809   4.288   5.345   2.989
   63CHL1  H19B 5810   4.323   5.527   2.976
   63CHL1  H19C 5811   4.370   5.425   2.848
   63CHL1    C1 5812   4.600   5.506   2.990
   63CHL1   H1A 5813   4.552   5.603   3.015
   63CHL1   H1B 5814   4.686   5.478   3.055
   63CHL1    C2 5815   4.655   5.505   2.838
   63CHL1   H2A 5816   4.726   5.585   2.806
   63CHL1   H2B 5817   4.561   5.524   2.781
   63CHL1   C20 5818   4.163   5.421   3.651
   63CHL1   H20 5819   4.067   5.404   3.597
   63CHL1   C21 5820   4.197   5.571   3.671
   63CHL1  H21A 5821   4.143   5.611   3.759
   63CHL1  H21B 5822   4.151   5.628   3.587
   63CHL1  H21C 5823   4.307   5.589   3.677
   63CHL1   C22 5824   4.153   5.358   3.801
   63CHL1  H22A 5825   4.135   5.248   3.800
   63CHL1  H22B 5826   4.257   5.372   3.837
   63CHL1   C23 5827   4.039   5.401   3.895
   63CHL1  H23A 5828   4.031   5.510   3.916
   63CHL1  H23B 5829   3.950   5.375   3.833
   63CHL1   C24 5830   4.035   5.311   4.020
   63CHL1  H24A 5831   3.932   5.304   4.060
   63CHL1  H24B 5832   4.063   5.205   3.997
   63CHL1   C25 5833   4.126   5.359   4.138
   63CHL1   H25 5834   4.136   5.469   4.134
   63CHL1   C26 5835   4.049   5.324   4.267
   63CHL1  H26A 5836   3.940   5.347   4.266
   63CHL1  H26B 5837   4.064   5.215   4.278
   63CHL1  H26C 5838   4.089   5.378   4.355
   63CHL1   C27 5839   4.261   5.291   4.131
   63CHL1  H27A 5840   4.343   5.312   4.202
   63CHL1  H27B 5841   4.250   5.180   4.126
   63CHL1  H27C 5842   4.307   5.314   4.032
   64CHL1    C3 5843   2.942   2.755   2.729
   64CHL1    H3 5844   2.848   2.783   2.782
   64CHL1    O3 5845   2.919   2.787   2.590
   64CHL1   H3' 5846   2.990   2.749   2.538
   64CHL1    C4 5847   3.079   2.820   2.774
   64CHL1   H4A 5848   3.160   2.786   2.706
   64CHL1   H4B 5849   3.064   2.928   2.755
   64CHL1    C5 5850   3.096   2.788   2.916
   64CHL1    C6 5851   3.096   2.891   3.006
   64CHL1    H6 5852   3.097   2.994   2.969
   64CHL1    C7 5853   3.108   2.858   3.152
   64CHL1   H7A 5854   3.184   2.919   3.205
   64CHL1   H7B 5855   3.011   2.890   3.196
   64CHL1    C8 5856   3.149   2.714   3.193
   64CHL1    H8 5857   3.257   2.710   3.170
   64CHL1   C14 5858   3.122   2.685   3.342
   64CHL1   H14 5859   3.012   2.686   3.360
   64CHL1   C15 5860   3.175   2.781   3.441
   64CHL1  H15A 5861   3.265   2.826   3.394
   64CHL1  H15B 5862   3.105   2.866   3.429
   64CHL1   C16 5863   3.171   2.700   3.573
   64CHL1  H16A 5864   3.273   2.695   3.618
   64CHL1  H16B 5865   3.097   2.752   3.638
   64CHL1   C17 5866   3.124   2.561   3.535
   64CHL1   H17 5867   3.013   2.548   3.538
   64CHL1   C13 5868   3.153   2.549   3.387
   64CHL1   C18 5869   3.305   2.521   3.366
   64CHL1  H18A 5870   3.363   2.595   3.425
   64CHL1  H18B 5871   3.327   2.417   3.400
   64CHL1  H18C 5872   3.330   2.524   3.258
   64CHL1   C12 5873   3.068   2.443   3.316
   64CHL1  H12A 5874   3.103   2.343   3.349
   64CHL1  H12B 5875   2.960   2.455   3.340
   64CHL1   C11 5876   3.087   2.465   3.166
   64CHL1  H11A 5877   3.186   2.418   3.147
   64CHL1  H11B 5878   3.016   2.399   3.111
   64CHL1    C9 5879   3.077   2.613   3.115
   64CHL1    H9 5880   2.969   2.638   3.127
   64CHL1   C10 5881   3.091   2.637   2.960
   64CHL1   C19 5882   3.223   2.576   2.909
   64CHL1  H19A 5883   3.311   2.636   2.942
   64CHL1  H19B 5884   3.230   2.470   2.941
   64CHL1  H19C 5885   3.224   2.572   2.798
   64CHL1    C1 5886   2.974   2.561   2.892
   64CHL1   H1A 5887   3.002   2.454   2.885
   64CHL1   H1B 5888   2.883   2.580   2.952
   64CHL1    C2 5889   2.955   2.599   2.744
   64CHL1   H2A 5890   2.856   2.554   2.719
   64CHL1   H2B 5891   3.035   2.563   2.675
   64CHL1   C20 5892   3.184   2.459   3.634
   64CHL1   H20 5893   3.294   2.458   3.617
   64CHL1   C21 5894   3.133   2.316   3.615
   64CHL1  H21A 5895   3.167   2.253   3.699
   64CHL1  H21B 5896   3.196   2.292   3.526
   64CHL1  H21C 5897   3.024   2.305   3.599
   64CHL1   C22 5898   3.154   2.492   3.783
   64CHL1  H22A 5899   3.240   2.447   3.837
   64CHL1  H22B 5900   3.164   2.601   3.797
   64CHL1   C23 5901   3.015   2.451   3.837
   64CHL1  H23A 5902   2.947   2.480   3.755
   64CHL1  H23B 5903   3.015   2.342   3.860
   64CHL1   C24 5904   2.978   2.525   3.959
   64CHL1  H24A 5905   3.046   2.482   4.035
   64CHL1  H24B 5906   3.004   2.633   3.953
   64CHL1   C25 5907   2.833   2.515   3.996
   64CHL1   H25 5908   2.815   2.585   4.081
   64CHL1   C26 5909   2.738   2.562   3.888
   64CHL1  H26A 5910   2.635   2.573   3.928
   64CHL1  H26B 5911   2.776   2.660   3.853
   64CHL1  H26C 5912   2.743   2.494   3.801
   64CHL1   C27 5913   2.796   2.380   4.066
   64CHL1  H27A 5914   2.886   2.352   4.126
   64CHL1  H27B 5915   2.701   2.392   4.122
   64CHL1  H27C 5916   2.775   2.296   3.997
   65CHL1    C3 5917   0.607   0.628   2.712
   65CHL1    H3 5918   0.503   0.591   2.727
   65CHL1    O3 5919   0.608   0.703   2.592
   65CHL1   H3' 5920   0.697   0.738   2.598
   65CHL1    C4 5921   0.644   0.728   2.818
   65CHL1   H4A 5922   0.733   0.790   2.796
   65CHL1   H4B 5923   0.568   0.809   2.822
   65CHL1    C5 5924   0.652   0.666   2.951
   65CHL1    C6 5925   0.575   0.711   3.052
   65CHL1    H6 5926   0.507   0.795   3.032
   65CHL1    C7 5927   0.583   0.654   3.187
   65CHL1   H7A 5928   0.570   0.741   3.255
   65CHL1   H7B 5929   0.496   0.585   3.196
   65CHL1    C8 5930   0.709   0.567   3.222
   65CHL1    H8 5931   0.796   0.637   3.234
   65CHL1   C14 5932   0.685   0.490   3.354
   65CHL1   H14 5933   0.604   0.416   3.341
   65CHL1   C15 5934   0.644   0.569   3.477
   65CHL1  H15A 5935   0.695   0.668   3.475
   65CHL1  H15B 5936   0.538   0.600   3.487
   65CHL1   C16 5937   0.693   0.481   3.591
   65CHL1  H16A 5938   0.774   0.535   3.645
   65CHL1  H16B 5939   0.608   0.446   3.653
   65CHL1   C17 5940   0.758   0.349   3.531
   65CHL1   H17 5941   0.675   0.280   3.505
   65CHL1   C13 5942   0.807   0.404   3.389
   65CHL1   C18 5943   0.929   0.499   3.421
   65CHL1  H18A 5944   0.965   0.547   3.328
   65CHL1  H18B 5945   0.930   0.578   3.498
   65CHL1  H18C 5946   1.017   0.436   3.446
   65CHL1   C12 5947   0.832   0.300   3.272
   65CHL1  H12A 5948   0.929   0.252   3.296
   65CHL1  H12B 5949   0.751   0.227   3.253
   65CHL1   C11 5950   0.851   0.383   3.144
   65CHL1  H11A 5951   0.950   0.432   3.158
   65CHL1  H11B 5952   0.869   0.301   3.071
   65CHL1    C9 5953   0.736   0.475   3.101
   65CHL1    H9 5954   0.641   0.417   3.091
   65CHL1   C10 5955   0.748   0.548   2.963
   65CHL1   C19 5956   0.894   0.604   2.947
   65CHL1  H19A 5957   0.911   0.666   3.037
   65CHL1  H19B 5958   0.961   0.515   2.943
   65CHL1  H19C 5959   0.909   0.652   2.848
   65CHL1    C1 5960   0.719   0.451   2.844
   65CHL1   H1A 5961   0.800   0.375   2.838
   65CHL1   H1B 5962   0.623   0.397   2.857
   65CHL1    C2 5963   0.713   0.521   2.704
   65CHL1   H2A 5964   0.695   0.451   2.620
   65CHL1   H2B 5965   0.808   0.576   2.688
   65CHL1   C20 5966   0.855   0.286   3.625
   65CHL1   H20 5967   0.944   0.353   3.634
   65CHL1   C21 5968   0.916   0.151   3.572
   65CHL1  H21A 5969   0.856   0.067   3.615
   65CHL1  H21B 5970   1.026   0.143   3.585
   65CHL1  H21C 5971   0.899   0.149   3.462
   65CHL1   C22 5972   0.806   0.276   3.775
   65CHL1  H22A 5973   0.810   0.382   3.809
   65CHL1  H22B 5974   0.701   0.239   3.772
   65CHL1   C23 5975   0.889   0.197   3.869
   65CHL1  H23A 5976   0.846   0.194   3.971
   65CHL1  H23B 5977   0.892   0.093   3.831
   65CHL1   C24 5978   1.038   0.247   3.890
   65CHL1  H24A 5979   1.105   0.212   3.808
   65CHL1  H24B 5980   1.039   0.357   3.903
   65CHL1   C25 5981   1.103   0.203   4.021
   65CHL1   H25 5982   1.046   0.244   4.107
   65CHL1   C26 5983   1.108   0.054   4.053
   65CHL1  H26A 5984   1.170   6.873   3.984
   65CHL1  H26B 5985   1.141   0.030   4.156
   65CHL1  H26C 5986   1.008   0.007   4.043
   65CHL1   C27 5987   1.242   0.264   4.019
   65CHL1  H27A 5988   1.299   0.232   3.928
   65CHL1  H27B 5989   1.221   0.373   4.012
   65CHL1  H27C 5990   1.303   0.233   4.106
   66CHL1    C3 5991   4.286   1.813   2.700
   66CHL1    H3 5992   4.371   1.743   2.717
   66CHL1    O3 5993   4.305   1.852   2.568
   66CHL1   H3' 5994   4.372   1.921   2.570
   66CHL1    C4 5995   4.150   1.748   2.722
   66CHL1   H4A 5996   4.076   1.829   2.703
   66CHL1   H4B 5997   4.130   1.667   2.649
   66CHL1    C5 5998   4.158   1.706   2.863
   66CHL1    C6 5999   4.134   1.575   2.897
   66CHL1    H6 6000   4.095   1.503   2.823
   66CHL1    C7 6001   4.119   1.524   3.037
   66CHL1   H7A 6002   4.031   1.459   3.054
   66CHL1   H7B 6003   4.212   1.470   3.065
   66CHL1    C8 6004   4.106   1.635   3.138
   66CHL1    H8 6005   4.004   1.677   3.130
   66CHL1   C14 6006   4.128   1.581   3.274
   66CHL1   H14 6007   4.235   1.553   3.279
   66CHL1   C15 6008   4.050   1.453   3.322
   66CHL1  H15A 6009   3.943   1.464   3.294
   66CHL1  H15B 6010   4.096   1.362   3.279
   66CHL1   C16 6011   4.056   1.456   3.480
   66CHL1  H16A 6012   3.953   1.469   3.520
   66CHL1  H16B 6013   4.116   1.367   3.508
   66CHL1   C17 6014   4.128   1.591   3.508
   66CHL1   H17 6015   4.236   1.564   3.508
   66CHL1   C13 6016   4.111   1.684   3.385
   66CHL1   C18 6017   3.969   1.740   3.374
   66CHL1  H18A 6018   3.961   1.826   3.445
   66CHL1  H18B 6019   3.935   1.784   3.277
   66CHL1  H18C 6020   3.891   1.665   3.399
   66CHL1   C12 6021   4.212   1.795   3.369
   66CHL1  H12A 6022   4.194   1.874   3.446
   66CHL1  H12B 6023   4.312   1.751   3.386
   66CHL1   C11 6024   4.200   1.861   3.231
   66CHL1  H11A 6025   4.098   1.901   3.212
   66CHL1  H11B 6026   4.278   1.940   3.228
   66CHL1    C9 6027   4.205   1.749   3.115
   66CHL1    H9 6028   4.308   1.707   3.123
   66CHL1   C10 6029   4.193   1.810   2.969
   66CHL1   C19 6030   4.070   1.912   2.974
   66CHL1  H19A 6031   4.102   1.998   3.037
   66CHL1  H19B 6032   4.055   1.950   2.871
   66CHL1  H19C 6033   3.978   1.865   3.014
   66CHL1    C1 6034   4.313   1.894   2.925
   66CHL1   H1A 6035   4.320   1.982   2.992
   66CHL1   H1B 6036   4.399   1.826   2.942
   66CHL1    C2 6037   4.314   1.937   2.779
   66CHL1   H2A 6038   4.413   1.980   2.756
   66CHL1   H2B 6039   4.244   2.020   2.752
   66CHL1   C20 6040   4.111   1.649   3.642
   66CHL1   H20 6041   4.147   1.754   3.634
   66CHL1   C21 6042   4.200   1.569   3.730
   66CHL1  H21A 6043   4.212   1.604   3.835
   66CHL1  H21B 6044   4.303   1.549   3.693
   66CHL1  H21C 6045   4.160   1.466   3.742
   66CHL1   C22 6046   3.965   1.652   3.712
   66CHL1  H22A 6047   3.883   1.682   3.644
   66CHL1  H22B 6048   3.959   1.546   3.743
   66CHL1   C23 6049   3.963   1.750   3.831
   66CHL1  H23A 6050   4.056   1.752   3.891
   66CHL1  H23B 6051   3.972   1.844   3.772
   66CHL1   C24 6052   3.839   1.747   3.913
   66CHL1  H24A 6053   3.751   1.782   3.856
   66CHL1  H24B 6054   3.816   1.645   3.950
   66CHL1   C25 6055   3.863   1.846   4.034
   66CHL1   H25 6056   3.940   1.803   4.101
   66CHL1   C26 6057   3.907   1.991   4.002
   66CHL1  H26A 6058   3.823   2.062   3.993
   66CHL1  H26B 6059   3.962   2.030   4.090
   66CHL1  H26C 6060   3.973   1.991   3.913
   66CHL1   C27 6061   3.735   1.857   4.123
   66CHL1  H27A 6062   3.714   1.753   4.159
   66CHL1  H27B 6063   3.643   1.902   4.079
   66CHL1  H27C 6064   3.769   1.906   4.216
   67CHL1    C3 6065   4.397   6.125   3.087
   67CHL1    H3 6066   4.356   6.227   3.105
   67CHL1    O3 6067   4.418   6.112   2.944
   67CHL1   H3' 6068   4.472   6.033   2.934
   67CHL1    C4 6069   4.540   6.121   3.152
   67CHL1   H4A 6070   4.599   6.040   3.105
   67CHL1   H4B 6071   4.597   6.209   3.116
   67CHL1    C5 6072   4.538   6.112   3.301
   67CHL1    C6 6073   4.611   6.196   3.379
   67CHL1    H6 6074   4.681   6.267   3.332
   67CHL1    C7 6075   4.613   6.195   3.527
   67CHL1   H7A 6076   4.716   6.192   3.568
   67CHL1   H7B 6077   4.568   6.287   3.570
   67CHL1    C8 6078   4.546   6.065   3.588
   67CHL1    H8 6079   4.620   5.983   3.574
   67CHL1   C14 6080   4.513   6.096   3.734
   67CHL1   H14 6081   4.441   6.180   3.722
   67CHL1   C15 6082   4.628   6.156   3.817
   67CHL1  H15A 6083   4.715   6.090   3.799
   67CHL1  H15B 6084   4.649   6.258   3.777
   67CHL1   C16 6085   4.566   6.142   3.959
   67CHL1  H16A 6086   4.636   6.074   4.012
   67CHL1  H16B 6087   4.556   6.237   4.016
   67CHL1   C17 6088   4.432   6.069   3.948
   67CHL1   H17 6089   4.355   6.148   3.929
   67CHL1   C13 6090   4.441   5.988   3.816
   67CHL1   C18 6091   4.534   5.871   3.835
   67CHL1  H18A 6092   4.562   5.822   3.739
   67CHL1  H18B 6093   4.625   5.910   3.885
   67CHL1  H18C 6094   4.496   5.790   3.902
   67CHL1   C12 6095   4.313   5.943   3.736
   67CHL1  H12A 6096   4.264   5.855   3.783
   67CHL1  H12B 6097   4.239   6.027   3.738
   67CHL1   C11 6098   4.334   5.926   3.584
   67CHL1  H11A 6099   4.381   5.826   3.569
   67CHL1  H11B 6100   4.235   5.921   3.535
   67CHL1    C9 6101   4.418   6.031   3.512
   67CHL1    H9 6102   4.356   6.122   3.525
   67CHL1   C10 6103   4.437   6.009   3.364
   67CHL1   C19 6104   4.509   5.872   3.343
   67CHL1  H19A 6105   4.612   5.862   3.383
   67CHL1  H19B 6106   4.452   5.788   3.389
   67CHL1  H19C 6107   4.523   5.846   3.236
   67CHL1    C1 6108   4.302   6.006   3.285
   67CHL1   H1A 6109   4.241   5.922   3.323
   67CHL1   H1B 6110   4.258   6.107   3.305
   67CHL1    C2 6111   4.315   6.009   3.129
   67CHL1   H2A 6112   4.216   6.007   3.078
   67CHL1   H2B 6113   4.366   5.917   3.095
   67CHL1   C20 6114   4.394   6.004   4.078
   67CHL1   H20 6115   4.450   5.908   4.072
   67CHL1   C21 6116   4.242   5.974   4.076
   67CHL1  H21A 6117   4.228   5.892   4.150
   67CHL1  H21B 6118   4.218   5.924   3.980
   67CHL1  H21C 6119   4.177   6.063   4.096
   67CHL1   C22 6120   4.432   6.089   4.207
   67CHL1  H22A 6121   4.543   6.096   4.216
   67CHL1  H22B 6122   4.390   6.191   4.196
   67CHL1   C23 6123   4.384   6.022   4.340
   67CHL1  H23A 6124   4.276   6.000   4.350
   67CHL1  H23B 6125   4.436   5.926   4.357
   67CHL1   C24 6126   4.419   6.111   4.464
   67CHL1  H24A 6127   4.525   6.143   4.459
   67CHL1  H24B 6128   4.363   6.204   4.438
   67CHL1   C25 6129   4.374   6.062   4.602
   67CHL1   H25 6130   4.425   5.966   4.622
   67CHL1   C26 6131   4.433   6.147   4.713
   67CHL1  H26A 6132   4.543   6.136   4.716
   67CHL1  H26B 6133   4.395   6.251   4.701
   67CHL1  H26C 6134   4.388   6.120   4.811
   67CHL1   C27 6135   4.218   6.045   4.606
   67CHL1  H27A 6136   4.189   5.992   4.699
   67CHL1  H27B 6137   4.176   6.148   4.610
   67CHL1  H27C 6138   4.168   5.989   4.524
   68CHL1    C3 6139   2.182   5.473   2.571
   68CHL1    H3 6140   2.258   5.399   2.540
   68CHL1    O3 6141   2.165   5.546   2.445
   68CHL1   H3' 6142   2.100   5.496   2.394
   68CHL1    C4 6143   2.051   5.411   2.620
   68CHL1   H4A 6144   1.972   5.489   2.630
   68CHL1   H4B 6145   2.018   5.344   2.538
   68CHL1    C5 6146   2.081   5.350   2.756
   68CHL1    C6 6147   2.062   5.219   2.777
   68CHL1    H6 6148   2.027   5.164   2.688
   68CHL1    C7 6149   2.080   5.148   2.910
   68CHL1   H7A 6150   1.985   5.089   2.910
   68CHL1   H7B 6151   2.169   5.082   2.915
   68CHL1    C8 6152   2.083   5.250   3.027
   68CHL1    H8 6153   1.982   5.296   3.037
   68CHL1   C14 6154   2.131   5.183   3.158
   68CHL1   H14 6155   2.235   5.149   3.139
   68CHL1   C15 6156   2.055   5.071   3.224
   68CHL1  H15A 6157   1.947   5.091   3.210
   68CHL1  H15B 6158   2.086   4.981   3.166
   68CHL1   C16 6159   2.110   5.057   3.373
   68CHL1  H16A 6160   2.018   5.044   3.434
   68CHL1  H16B 6161   2.170   4.963   3.381
   68CHL1   C17 6162   2.193   5.190   3.404
   68CHL1   H17 6163   2.301   5.175   3.387
   68CHL1   C13 6164   2.148   5.282   3.284
   68CHL1   C18 6165   2.004   5.331   3.317
   68CHL1  H18A 6166   1.940   5.366   3.233
   68CHL1  H18B 6167   1.949   5.254   3.375
   68CHL1  H18C 6168   2.013   5.414   3.390
   68CHL1   C12 6169   2.251   5.392   3.242
   68CHL1  H12A 6170   2.239   5.467   3.323
   68CHL1  H12B 6171   2.350   5.342   3.237
   68CHL1   C11 6172   2.215   5.455   3.112
   68CHL1  H11A 6173   2.118   5.508   3.126
   68CHL1  H11B 6174   2.290   5.529   3.076
   68CHL1    C9 6175   2.174   5.361   2.992
   68CHL1    H9 6176   2.271   5.320   2.955
   68CHL1   C10 6177   2.131   5.443   2.870
   68CHL1   C19 6178   2.025   5.548   2.899
   68CHL1  H19A 6179   2.060   5.615   2.980
   68CHL1  H19B 6180   2.023   5.624   2.818
   68CHL1  H19C 6181   1.922   5.512   2.917
   68CHL1    C1 6182   2.264   5.512   2.815
   68CHL1   H1A 6183   2.298   5.600   2.875
   68CHL1   H1B 6184   2.350   5.441   2.812
   68CHL1    C2 6185   2.249   5.568   2.676
   68CHL1   H2A 6186   2.349   5.601   2.640
   68CHL1   H2B 6187   2.196   5.664   2.688
   68CHL1   C20 6188   2.174   5.240   3.550
   68CHL1   H20 6189   2.069   5.277   3.555
   68CHL1   C21 6190   2.275   5.353   3.570
   68CHL1  H21A 6191   2.378   5.330   3.535
   68CHL1  H21B 6192   2.268   5.378   3.679
   68CHL1  H21C 6193   2.243   5.445   3.516
   68CHL1   C22 6194   2.187   5.122   3.646
   68CHL1  H22A 6195   2.095   5.065   3.623
   68CHL1  H22B 6196   2.280   5.062   3.639
   68CHL1   C23 6197   2.153   5.170   3.786
   68CHL1  H23A 6198   2.221   5.251   3.820
   68CHL1  H23B 6199   2.053   5.218   3.788
   68CHL1   C24 6200   2.166   5.066   3.899
   68CHL1  H24A 6201   2.115   4.976   3.858
   68CHL1  H24B 6202   2.272   5.032   3.904
   68CHL1   C25 6203   2.129   5.124   4.036
   68CHL1   H25 6204   2.052   5.200   4.013
   68CHL1   C26 6205   2.081   4.996   4.115
   68CHL1  H26A 6206   2.171   4.945   4.155
   68CHL1  H26B 6207   2.026   5.033   4.204
   68CHL1  H26C 6208   2.015   4.930   4.054
   68CHL1   C27 6209   2.223   5.211   4.117
   68CHL1  H27A 6210   2.250   5.300   4.057
   68CHL1  H27B 6211   2.161   5.252   4.200
   68CHL1  H27C 6212   2.308   5.153   4.159
   69CHL1    C3 6213   1.120   2.914   2.505
   69CHL1    H3 6214   1.182   2.823   2.492
   69CHL1    O3 6215   1.082   2.975   2.383
   69CHL1   H3' 6216   1.032   2.909   2.334
   69CHL1    C4 6217   0.995   2.874   2.581
   69CHL1   H4A 6218   0.928   2.962   2.585
   69CHL1   H4B 6219   0.949   2.786   2.531
   69CHL1    C5 6220   1.018   2.828   2.724
   69CHL1    C6 6221   0.968   2.719   2.776
   69CHL1    H6 6222   0.914   2.649   2.711
   69CHL1    C7 6223   0.994   2.672   2.908
   69CHL1   H7A 6224   0.902   2.639   2.960
   69CHL1   H7B 6225   1.065   2.587   2.913
   69CHL1    C8 6226   1.060   2.773   3.010
   69CHL1    H8 6227   0.978   2.842   3.039
   69CHL1   C14 6228   1.128   2.708   3.131
   69CHL1   H14 6229   1.224   2.669   3.091
   69CHL1   C15 6230   1.048   2.589   3.193
   69CHL1  H15A 6231   0.940   2.613   3.195
   69CHL1  H15B 6232   1.065   2.502   3.126
   69CHL1   C16 6233   1.116   2.586   3.334
   69CHL1  H16A 6234   1.038   2.576   3.413
   69CHL1  H16B 6235   1.177   2.493   3.331
   69CHL1   C17 6236   1.220   2.705   3.346
   69CHL1   H17 6237   1.323   2.672   3.321
   69CHL1   C13 6238   1.178   2.805   3.239
   69CHL1   C18 6239   1.054   2.889   3.301
   69CHL1  H18A 6240   0.972   2.898   3.226
   69CHL1  H18B 6241   1.003   2.851   3.392
   69CHL1  H18C 6242   1.088   2.992   3.327
   69CHL1   C12 6243   1.279   2.903   3.173
   69CHL1  H12A 6244   1.305   2.987   3.240
   69CHL1  H12B 6245   1.369   2.840   3.163
   69CHL1   C11 6246   1.227   2.961   3.041
   69CHL1  H11A 6247   1.156   3.038   3.077
   69CHL1  H11B 6248   1.306   3.017   2.987
   69CHL1    C9 6249   1.162   2.865   2.938
   69CHL1    H9 6250   1.241   2.795   2.905
   69CHL1   C10 6251   1.115   2.921   2.804
   69CHL1   C19 6252   1.032   3.051   2.841
   69CHL1  H19A 6253   1.095   3.122   2.899
   69CHL1  H19B 6254   0.984   3.108   2.758
   69CHL1  H19C 6255   0.947   3.024   2.907
   69CHL1    C1 6256   1.244   2.960   2.714
   69CHL1   H1A 6257   1.306   3.036   2.766
   69CHL1   H1B 6258   1.301   2.867   2.691
   69CHL1    C2 6259   1.203   3.019   2.580
   69CHL1   H2A 6260   1.285   3.045   2.510
   69CHL1   H2B 6261   1.136   3.104   2.603
   69CHL1   C20 6262   1.249   2.749   3.488
   69CHL1   H20 6263   1.155   2.773   3.543
   69CHL1   C21 6264   1.346   2.870   3.478
   69CHL1  H21A 6265   1.381   2.895   3.581
   69CHL1  H21B 6266   1.296   2.965   3.447
   69CHL1  H21C 6267   1.423   2.843   3.402
   69CHL1   C22 6268   1.322   2.640   3.566
   69CHL1  H22A 6269   1.267   2.544   3.555
   69CHL1  H22B 6270   1.415   2.617   3.510
   69CHL1   C23 6271   1.355   2.667   3.707
   69CHL1  H23A 6272   1.410   2.585   3.759
   69CHL1  H23B 6273   1.415   2.759   3.721
   69CHL1   C24 6274   1.224   2.686   3.786
   69CHL1  H24A 6275   1.188   2.787   3.755
   69CHL1  H24B 6276   1.151   2.605   3.770
   69CHL1   C25 6277   1.238   2.701   3.937
   69CHL1   H25 6278   1.317   2.774   3.962
   69CHL1   C26 6279   1.105   2.752   4.000
   69CHL1  H26A 6280   1.024   2.685   3.965
   69CHL1  H26B 6281   1.108   2.764   4.110
   69CHL1  H26C 6282   1.096   2.854   3.957
   69CHL1   C27 6283   1.278   2.564   4.001
   69CHL1  H27A 6284   1.209   2.484   3.966
   69CHL1  H27B 6285   1.382   2.528   3.988
   69CHL1  H27C 6286   1.260   2.562   4.111
   70CHL1    C3 6287   2.429   0.444   2.566
   70CHL1    H3 6288   2.443   0.335   2.549
   70CHL1    O3 6289   2.360   0.497   2.457
   70CHL1   H3' 6290   2.368   0.591   2.475
   70CHL1    C4 6291   2.338   0.473   2.688
   70CHL1   H4A 6292   2.302   0.578   2.686
   70CHL1   H4B 6293   2.248   0.410   2.671
   70CHL1    C5 6294   2.402   0.434   2.817
   70CHL1    C6 6295   2.355   0.342   2.900
   70CHL1    H6 6296   2.263   0.288   2.876
   70CHL1    C7 6297   2.407   0.321   3.040
   70CHL1   H7A 6298   2.320   0.311   3.108
   70CHL1   H7B 6299   2.463   0.225   3.036
   70CHL1    C8 6300   2.502   0.434   3.080
   70CHL1    H8 6301   2.448   0.531   3.084
   70CHL1   C14 6302   2.577   0.396   3.210
   70CHL1   H14 6303   2.626   0.299   3.188
   70CHL1   C15 6304   2.491   0.359   3.329
   70CHL1  H15A 6305   2.411   0.435   3.339
   70CHL1  H15B 6306   2.451   0.255   3.321
   70CHL1   C16 6307   2.593   0.378   3.449
   70CHL1  H16A 6308   2.551   0.450   3.523
   70CHL1  H16B 6309   2.631   0.280   3.485
   70CHL1   C17 6310   2.725   0.436   3.390
   70CHL1   H17 6311   2.781   0.346   3.359
   70CHL1   C13 6312   2.685   0.491   3.254
   70CHL1   C18 6313   2.624   0.637   3.276
   70CHL1  H18A 6314   2.598   0.684   3.179
   70CHL1  H18B 6315   2.535   0.626   3.342
   70CHL1  H18C 6316   2.705   0.703   3.313
   70CHL1   C12 6317   2.794   0.497   3.150
   70CHL1  H12A 6318   2.864   0.577   3.180
   70CHL1  H12B 6319   2.851   0.401   3.153
   70CHL1   C11 6320   2.732   0.537   3.020
   70CHL1  H11A 6321   2.703   0.643   3.013
   70CHL1  H11B 6322   2.811   0.529   2.942
   70CHL1    C9 6323   2.607   0.459   2.974
   70CHL1    H9 6324   2.637   0.354   2.954
   70CHL1   C10 6325   2.534   0.505   2.847
   70CHL1   C19 6326   2.508   0.660   2.863
   70CHL1  H19A 6327   2.604   0.711   2.888
   70CHL1  H19B 6328   2.471   0.697   2.766
   70CHL1  H19C 6329   2.431   0.682   2.940
   70CHL1    C1 6330   2.626   0.493   2.722
   70CHL1   H1A 6331   2.710   0.566   2.723
   70CHL1   H1B 6332   2.665   0.389   2.719
   70CHL1    C2 6333   2.561   0.520   2.582
   70CHL1   H2A 6334   2.637   0.497   2.504
   70CHL1   H2B 6335   2.552   0.628   2.562
   70CHL1   C20 6336   2.805   0.507   3.498
   70CHL1   H20 6337   2.739   0.586   3.540
   70CHL1   C21 6338   2.931   0.574   3.438
   70CHL1  H21A 6339   3.007   0.592   3.517
   70CHL1  H21B 6340   2.913   0.666   3.378
   70CHL1  H21C 6341   2.967   0.487   3.378
   70CHL1   C22 6342   2.850   0.414   3.618
   70CHL1  H22A 6343   2.765   0.347   3.643
   70CHL1  H22B 6344   2.940   0.358   3.586
   70CHL1   C23 6345   2.889   0.493   3.746
   70CHL1  H23A 6346   2.982   0.552   3.727
   70CHL1  H23B 6347   2.806   0.561   3.775
   70CHL1   C24 6348   2.918   0.385   3.858
   70CHL1  H24A 6349   2.829   0.318   3.863
   70CHL1  H24B 6350   3.009   0.335   3.819
   70CHL1   C25 6351   2.941   0.454   3.996
   70CHL1   H25 6352   3.022   0.526   3.975
   70CHL1   C26 6353   2.807   0.519   4.040
   70CHL1  H26A 6354   2.776   0.548   4.143
   70CHL1  H26B 6355   2.787   0.606   3.974
   70CHL1  H26C 6356   2.727   0.445   4.019
   70CHL1   C27 6357   2.992   0.357   4.101
   70CHL1  H27A 6358   2.898   0.313   4.139
   70CHL1  H27B 6359   3.049   0.274   4.054
   70CHL1  H27C 6360   3.059   0.406   4.175
   71CHL1    C3 6361   6.242   6.099   2.897
   71CHL1    H3 6362   6.170   6.016   2.876
   71CHL1    O3 6363   6.319   6.105   2.780
   71CHL1   H3' 6364   6.245   6.111   2.718
   71CHL1    C4 6365   6.162   6.225   2.910
   71CHL1   H4A 6366   6.228   6.312   2.888
   71CHL1   H4B 6367   6.083   6.232   2.832
   71CHL1    C5 6368   6.095   6.243   3.046
   71CHL1    C6 6369   5.959   6.257   3.062
   71CHL1    H6 6370   5.898   6.258   2.971
   71CHL1    C7 6371   5.893   6.275   3.188
   71CHL1   H7A 6372   5.825   6.362   3.175
   71CHL1   H7B 6373   5.837   6.181   3.211
   71CHL1    C8 6374   5.986   6.327   3.295
   71CHL1    H8 6375   6.012   6.433   3.276
   71CHL1   C14 6376   5.925   6.322   3.434
   71CHL1   H14 6377   5.919   6.212   3.452
   71CHL1   C15 6378   5.778   6.367   3.444
   71CHL1  H15A 6379   5.763   6.475   3.420
   71CHL1  H15B 6380   5.702   6.297   3.403
   71CHL1   C16 6381   5.760   6.375   3.603
   71CHL1  H16A 6382   5.723   6.477   3.628
   71CHL1  H16B 6383   5.686   6.300   3.638
   71CHL1   C17 6384   5.898   6.343   3.665
   71CHL1   H17 6385   5.895   6.233   3.682
   71CHL1   C13 6386   6.002   6.366   3.552
   71CHL1   C18 6387   6.031   6.522   3.537
   71CHL1  H18A 6388   6.099   6.547   3.452
   71CHL1  H18B 6389   5.937   6.577   3.517
   71CHL1  H18C 6390   6.075   6.562   3.631
   71CHL1   C12 6391   6.135   6.291   3.560
   71CHL1  H12A 6392   6.212   6.345   3.620
   71CHL1  H12B 6393   6.123   6.189   3.603
   71CHL1   C11 6394   6.203   6.277   3.424
   71CHL1  H11A 6395   6.236   6.382   3.407
   71CHL1  H11B 6396   6.290   6.208   3.419
   71CHL1    C9 6397   6.113   6.243   3.302
   71CHL1    H9 6398   6.079   6.139   3.321
   71CHL1   C10 6399   6.194   6.237   3.170
   71CHL1   C19 6400   6.298   6.341   3.164
   71CHL1  H19A 6401   6.351   6.329   3.067
   71CHL1  H19B 6402   6.251   6.441   3.172
   71CHL1  H19C 6403   6.375   6.334   3.245
   71CHL1    C1 6404   6.264   6.100   3.157
   71CHL1   H1A 6405   6.344   6.096   3.234
   71CHL1   H1B 6406   6.196   6.013   3.170
   71CHL1    C2 6407   6.330   6.076   3.019
   71CHL1   H2A 6408   6.365   5.971   3.009
   71CHL1   H2B 6409   6.413   6.151   3.016
   71CHL1   C20 6410   5.923   6.426   3.799
   71CHL1   H20 6411   5.907   6.533   3.778
   71CHL1   C21 6412   6.062   6.390   3.848
   71CHL1  H21A 6413   6.142   6.441   3.791
   71CHL1  H21B 6414   6.072   6.279   3.849
   71CHL1  H21C 6415   6.083   6.414   3.954
   71CHL1   C22 6416   5.832   6.387   3.915
   71CHL1  H22A 6417   5.725   6.384   3.884
   71CHL1  H22B 6418   5.836   6.279   3.942
   71CHL1   C23 6419   5.846   6.479   4.037
   71CHL1  H23A 6420   5.952   6.509   4.054
   71CHL1  H23B 6421   5.786   6.565   4.000
   71CHL1   C24 6422   5.787   6.412   4.167
   71CHL1  H24A 6423   5.678   6.401   4.155
   71CHL1  H24B 6424   5.822   6.308   4.186
   71CHL1   C25 6425   5.801   6.502   4.290
   71CHL1   H25 6426   5.767   6.605   4.266
   71CHL1   C26 6427   5.713   6.438   4.400
   71CHL1  H26A 6428   5.606   6.423   4.372
   71CHL1  H26B 6429   5.738   6.339   4.445
   71CHL1  H26C 6430   5.704   6.508   4.486
   71CHL1   C27 6431   5.946   6.523   4.353
   71CHL1  H27A 6432   5.941   6.599   4.434
   71CHL1  H27B 6433   5.986   6.427   4.394
   71CHL1  H27C 6434   6.012   6.563   4.274
   72CHL1    C3 6435   0.550   4.584   2.659
   72CHL1    H3 6436   0.617   4.496   2.671
   72CHL1    O3 6437   0.564   4.623   2.522
   72CHL1   H3' 6438   0.656   4.647   2.510
   72CHL1    C4 6439   0.404   4.546   2.676
   72CHL1   H4A 6440   0.332   4.614   2.627
   72CHL1   H4B 6441   0.391   4.454   2.616
   72CHL1    C5 6442   0.360   4.527   2.822
   72CHL1    C6 6443   0.303   4.411   2.863
   72CHL1    H6 6444   0.308   4.332   2.787
   72CHL1    C7 6445   0.248   4.391   3.001
   72CHL1   H7A 6446   0.146   4.351   2.981
   72CHL1   H7B 6447   0.311   4.319   3.057
   72CHL1    C8 6448   0.234   4.521   3.086
   72CHL1    H8 6449   0.145   4.566   3.038
   72CHL1   C14 6450   0.207   4.486   3.231
   72CHL1   H14 6451   0.293   4.426   3.266
   72CHL1   C15 6452   0.084   4.397   3.253
   72CHL1  H15A 6453   6.878   4.427   3.188
   72CHL1  H15B 6454   0.091   4.287   3.243
   72CHL1   C16 6455   0.051   4.430   3.401
   72CHL1  H16A 6456   6.821   4.450   3.404
   72CHL1  H16B 6457   0.057   4.342   3.469
   72CHL1   C17 6458   0.142   4.538   3.451
   72CHL1   H17 6459   0.234   4.493   3.492
   72CHL1   C13 6460   0.187   4.608   3.318
   72CHL1   C18 6461   0.060   4.700   3.276
   72CHL1  H18A 6462   0.033   4.798   3.322
   72CHL1  H18B 6463   0.060   4.727   3.169
   72CHL1  H18C 6464   6.846   4.642   3.291
   72CHL1   C12 6465   0.309   4.697   3.307
   72CHL1  H12A 6466   0.292   4.793   3.360
   72CHL1  H12B 6467   0.400   4.656   3.356
   72CHL1   C11 6468   0.346   4.732   3.157
   72CHL1  H11A 6469   0.257   4.790   3.125
   72CHL1  H11B 6470   0.435   4.798   3.155
   72CHL1    C9 6471   0.359   4.608   3.062
   72CHL1    H9 6472   0.447   4.554   3.104
   72CHL1   C10 6473   0.392   4.635   2.915
   72CHL1   C19 6474   0.299   4.758   2.870
   72CHL1  H19A 6475   0.315   4.778   2.762
   72CHL1  H19B 6476   0.190   4.749   2.891
   72CHL1  H19C 6477   0.346   4.849   2.912
   72CHL1    C1 6478   0.536   4.673   2.890
   72CHL1   H1A 6479   0.559   4.759   2.956
   72CHL1   H1B 6480   0.616   4.600   2.918
   72CHL1    C2 6481   0.580   4.702   2.749
   72CHL1   H2A 6482   0.690   4.716   2.744
   72CHL1   H2B 6483   0.536   4.797   2.713
   72CHL1   C20 6484   0.086   4.621   3.565
   72CHL1   H20 6485   0.011   4.696   3.532
   72CHL1   C21 6486   0.201   4.702   3.631
   72CHL1  H21A 6487   0.167   4.757   3.722
   72CHL1  H21B 6488   0.242   4.776   3.559
   72CHL1  H21C 6489   0.286   4.638   3.662
   72CHL1   C22 6490   0.030   4.530   3.673
   72CHL1  H22A 6491   6.865   4.592   3.754
   72CHL1  H22B 6492   6.823   4.473   3.631
   72CHL1   C23 6493   0.129   4.438   3.748
   72CHL1  H23A 6494   0.176   4.362   3.683
   72CHL1  H23B 6495   0.212   4.510   3.761
   72CHL1   C24 6496   0.068   4.385   3.876
   72CHL1  H24A 6497   0.051   4.473   3.943
   72CHL1  H24B 6498   6.845   4.348   3.851
   72CHL1   C25 6499   0.149   4.282   3.952
   72CHL1   H25 6500   0.163   4.195   3.885
   72CHL1   C26 6501   0.293   4.335   4.000
   72CHL1  H26A 6502   0.354   4.365   3.912
   72CHL1  H26B 6503   0.269   4.434   4.045
   72CHL1  H26C 6504   0.348   4.270   4.071
   72CHL1   C27 6505   0.066   4.233   4.076
   72CHL1  H27A 6506   0.126   4.153   4.124
   72CHL1  H27B 6507   0.045   4.311   4.153
   72CHL1  H27C 6508   6.858   4.176   4.038
   73CHL1    C3 6509   1.263   5.245   2.966
   73CHL1    H3 6510   1.337   5.324   2.942
   73CHL1    O3 6511   1.189   5.236   2.842
   73CHL1   H3' 6512   1.156   5.320   2.811
   73CHL1    C4 6513   1.332   5.109   2.996
   73CHL1   H4A 6514   1.258   5.026   2.993
   73CHL1   H4B 6515   1.406   5.078   2.920
   73CHL1    C5 6516   1.399   5.111   3.132
   73CHL1    C6 6517   1.535   5.092   3.141
   73CHL1    H6 6518   1.593   5.087   3.047
   73CHL1    C7 6519   1.602   5.093   3.277
   73CHL1   H7A 6520   1.651   4.996   3.300
   73CHL1   H7B 6521   1.677   5.175   3.282
   73CHL1    C8 6522   1.506   5.097   3.402
   73CHL1    H8 6523   1.454   5.000   3.420
   73CHL1   C14 6524   1.580   5.130   3.530
   73CHL1   H14 6525   1.605   5.238   3.530
   73CHL1   C15 6526   1.708   5.047   3.564
   73CHL1  H15A 6527   1.685   4.939   3.561
   73CHL1  H15B 6528   1.788   5.066   3.488
   73CHL1   C16 6529   1.729   5.100   3.707
   73CHL1  H16A 6530   1.764   5.012   3.765
   73CHL1  H16B 6531   1.796   5.188   3.698
   73CHL1   C17 6532   1.602   5.168   3.766
   73CHL1   H17 6533   1.625   5.277   3.770
   73CHL1   C13 6534   1.495   5.137   3.660
   73CHL1   C18 6535   1.431   4.994   3.682
   73CHL1  H18A 6536   1.365   4.990   3.772
   73CHL1  H18B 6537   1.362   4.968   3.599
   73CHL1  H18C 6538   1.503   4.909   3.693
   73CHL1   C12 6539   1.388   5.244   3.638
   73CHL1  H12A 6540   1.316   5.237   3.723
   73CHL1  H12B 6541   1.424   5.349   3.640
   73CHL1   C11 6542   1.301   5.220   3.506
   73CHL1  H11A 6543   1.231   5.136   3.519
   73CHL1  H11B 6544   1.246   5.314   3.484
   73CHL1    C9 6545   1.391   5.197   3.381
   73CHL1    H9 6546   1.441   5.295   3.372
   73CHL1   C10 6547   1.308   5.156   3.253
   73CHL1   C19 6548   1.194   5.047   3.288
   73CHL1  H19A 6549   1.141   5.024   3.193
   73CHL1  H19B 6550   1.238   4.957   3.333
   73CHL1  H19C 6551   1.120   5.089   3.359
   73CHL1    C1 6552   1.236   5.289   3.211
   73CHL1   H1A 6553   1.164   5.316   3.291
   73CHL1   H1B 6554   1.321   5.360   3.203
   73CHL1    C2 6555   1.165   5.292   3.074
   73CHL1   H2A 6556   1.124   5.390   3.041
   73CHL1   H2B 6557   1.083   5.219   3.084
   73CHL1   C20 6558   1.577   5.128   3.908
   73CHL1   H20 6559   1.572   5.017   3.914
   73CHL1   C21 6560   1.448   5.195   3.958
   73CHL1  H21A 6561   1.354   5.145   3.926
   73CHL1  H21B 6562   1.439   5.303   3.931
   73CHL1  H21C 6563   1.456   5.199   4.069
   73CHL1   C22 6564   1.703   5.178   3.989
   73CHL1  H22A 6565   1.793   5.144   3.933
   73CHL1  H22B 6566   1.695   5.288   3.994
   73CHL1   C23 6567   1.711   5.131   4.136
   73CHL1  H23A 6568   1.606   5.130   4.172
   73CHL1  H23B 6569   1.756   5.030   4.135
   73CHL1   C24 6570   1.797   5.227   4.224
   73CHL1  H24A 6571   1.895   5.246   4.176
   73CHL1  H24B 6572   1.745   5.325   4.221
   73CHL1   C25 6573   1.820   5.179   4.370
   73CHL1   H25 6574   1.855   5.075   4.352
   73CHL1   C26 6575   1.942   5.249   4.445
   73CHL1  H26A 6576   1.949   5.216   4.551
   73CHL1  H26B 6577   2.035   5.226   4.388
   73CHL1  H26C 6578   1.917   5.357   4.439
   73CHL1   C27 6579   1.690   5.167   4.453
   73CHL1  H27A 6580   1.723   5.136   4.554
   73CHL1  H27B 6581   1.633   5.263   4.451
   73CHL1  H27C 6582   1.624   5.090   4.408
   74CHL1    C3 6583   1.244   4.355   2.606
   74CHL1    H3 6584   1.160   4.426   2.596
   74CHL1    O3 6585   1.274   4.317   2.472
   74CHL1   H3' 6586   1.233   4.232   2.453
   74CHL1    C4 6587   1.362   4.420   2.676
   74CHL1   H4A 6588   1.447   4.350   2.664
   74CHL1   H4B 6589   1.393   4.509   2.617
   74CHL1    C5 6590   1.349   4.444   2.825
   74CHL1    C6 6591   1.387   4.560   2.878
   74CHL1    H6 6592   1.435   4.636   2.813
   74CHL1    C7 6593   1.371   4.600   3.025
   74CHL1   H7A 6594   1.456   4.656   3.071
   74CHL1   H7B 6595   1.280   4.663   3.031
   74CHL1    C8 6596   1.344   4.473   3.118
   74CHL1    H8 6597   1.437   4.414   3.131
   74CHL1   C14 6598   1.282   4.515   3.250
   74CHL1   H14 6599   1.179   4.551   3.227
   74CHL1   C15 6600   1.349   4.635   3.326
   74CHL1  H15A 6601   1.459   4.617   3.323
   74CHL1  H15B 6602   1.321   4.733   3.280
   74CHL1   C16 6603   1.298   4.624   3.467
   74CHL1  H16A 6604   1.380   4.621   3.542
   74CHL1  H16B 6605   1.240   4.715   3.495
   74CHL1   C17 6606   1.207   4.493   3.465
   74CHL1   H17 6607   1.104   4.530   3.446
   74CHL1   C13 6608   1.261   4.413   3.351
   74CHL1   C18 6609   1.400   4.352   3.385
   74CHL1  H18A 6610   1.467   4.305   3.309
   74CHL1  H18B 6611   1.464   4.427   3.437
   74CHL1  H18C 6612   1.376   4.269   3.454
   74CHL1   C12 6613   1.164   4.302   3.292
   74CHL1  H12A 6614   1.179   4.206   3.347
   74CHL1  H12B 6615   1.056   4.327   3.285
   74CHL1   C11 6616   1.199   4.263   3.147
   74CHL1  H11A 6617   1.286   4.197   3.163
   74CHL1  H11B 6618   1.113   4.202   3.111
   74CHL1    C9 6619   1.243   4.376   3.050
   74CHL1    H9 6620   1.153   4.440   3.038
   74CHL1   C10 6621   1.286   4.329   2.910
   74CHL1   C19 6622   1.397   4.219   2.919
   74CHL1  H19A 6623   1.481   4.257   2.980
   74CHL1  H19B 6624   1.351   4.123   2.951
   74CHL1  H19C 6625   1.433   4.185   2.819
   74CHL1    C1 6626   1.166   4.271   2.838
   74CHL1   H1A 6627   1.117   4.183   2.886
   74CHL1   H1B 6628   1.096   4.357   2.839
   74CHL1    C2 6629   1.189   4.232   2.686
   74CHL1   H2A 6630   1.092   4.209   2.638
   74CHL1   H2B 6631   1.259   4.146   2.685
   74CHL1   C20 6632   1.206   4.424   3.604
   74CHL1   H20 6633   1.301   4.367   3.608
   74CHL1   C21 6634   1.090   4.322   3.615
   74CHL1  H21A 6635   1.105   4.236   3.546
   74CHL1  H21B 6636   0.994   4.375   3.594
   74CHL1  H21C 6637   1.093   4.272   3.715
   74CHL1   C22 6638   1.195   4.530   3.721
   74CHL1  H22A 6639   1.195   4.475   3.817
   74CHL1  H22B 6640   1.272   4.609   3.720
   74CHL1   C23 6641   1.057   4.595   3.710
   74CHL1  H23A 6642   1.049   4.633   3.606
   74CHL1  H23B 6643   0.983   4.512   3.721
   74CHL1   C24 6644   1.016   4.717   3.796
   74CHL1  H24A 6645   0.905   4.725   3.794
   74CHL1  H24B 6646   1.062   4.695   3.895
   74CHL1   C25 6647   1.070   4.854   3.757
   74CHL1   H25 6648   1.180   4.845   3.744
   74CHL1   C26 6649   1.016   4.914   3.626
   74CHL1  H26A 6650   1.046   5.021   3.622
   74CHL1  H26B 6651   1.052   4.858   3.537
   74CHL1  H26C 6652   0.907   4.900   3.642
   74CHL1   C27 6653   1.027   4.951   3.865
   74CHL1  H27A 6654   0.918   4.964   3.882
   74CHL1  H27B 6655   1.073   4.917   3.960
   74CHL1  H27C 6656   1.077   5.050   3.854
   75CHL1    C3 6657   1.384   3.341   2.659
   75CHL1    H3 6658   1.335   3.242   2.654
   75CHL1    O3 6659   1.427   3.374   2.531
   75CHL1   H3' 6660   1.451   3.466   2.525
   75CHL1    C4 6661   1.297   3.452   2.702
   75CHL1   H4A 6662   1.359   3.543   2.712
   75CHL1   H4B 6663   1.217   3.477   2.629
   75CHL1    C5 6664   1.243   3.433   2.839
   75CHL1    C6 6665   1.117   3.423   2.856
   75CHL1    H6 6666   1.050   3.436   2.769
   75CHL1    C7 6667   1.056   3.414   2.991
   75CHL1   H7A 6668   0.978   3.492   3.006
   75CHL1   H7B 6669   1.002   3.318   3.007
   75CHL1    C8 6670   1.157   3.437   3.110
   75CHL1    H8 6671   1.157   3.547   3.126
   75CHL1   C14 6672   1.100   3.374   3.233
   75CHL1   H14 6673   1.093   3.266   3.209
   75CHL1   C15 6674   0.963   3.422   3.290
   75CHL1  H15A 6675   0.960   3.532   3.275
   75CHL1  H15B 6676   0.870   3.392   3.238
   75CHL1   C16 6677   0.960   3.385   3.435
   75CHL1  H16A 6678   0.919   3.470   3.494
   75CHL1  H16B 6679   0.890   3.301   3.454
   75CHL1   C17 6680   1.108   3.340   3.469
   75CHL1   H17 6681   1.112   3.231   3.448
   75CHL1   C13 6682   1.198   3.390   3.351
   75CHL1   C18 6683   1.220   3.543   3.382
   75CHL1  H18A 6684   1.127   3.597   3.408
   75CHL1  H18B 6685   1.302   3.555   3.457
   75CHL1  H18C 6686   1.260   3.592   3.291
   75CHL1   C12 6687   1.327   3.318   3.336
   75CHL1  H12A 6688   1.383   3.338   3.430
   75CHL1  H12B 6689   1.318   3.208   3.331
   75CHL1   C11 6690   1.389   3.366   3.205
   75CHL1  H11A 6691   1.435   3.465   3.225
   75CHL1  H11B 6692   1.465   3.286   3.188
   75CHL1    C9 6693   1.290   3.368   3.086
   75CHL1    H9 6694   1.262   3.262   3.067
   75CHL1   C10 6695   1.357   3.408   2.948
   75CHL1   C19 6696   1.433   3.538   2.963
   75CHL1  H19A 6697   1.359   3.620   2.970
   75CHL1  H19B 6698   1.505   3.537   3.048
   75CHL1  H19C 6699   1.509   3.566   2.887
   75CHL1    C1 6700   1.458   3.302   2.893
   75CHL1   H1A 6701   1.548   3.288   2.956
   75CHL1   H1B 6702   1.399   3.208   2.903
   75CHL1    C2 6703   1.509   3.328   2.752
   75CHL1   H2A 6704   1.554   3.234   2.712
   75CHL1   H2B 6705   1.585   3.406   2.728
   75CHL1   C20 6706   1.144   3.366   3.616
   75CHL1   H20 6707   1.244   3.321   3.636
   75CHL1   C21 6708   1.048   3.276   3.698
   75CHL1  H21A 6709   0.943   3.312   3.701
   75CHL1  H21B 6710   1.090   3.265   3.800
   75CHL1  H21C 6711   1.047   3.177   3.649
   75CHL1   C22 6712   1.144   3.508   3.673
   75CHL1  H22A 6713   1.230   3.573   3.644
   75CHL1  H22B 6714   1.055   3.568   3.643
   75CHL1   C23 6715   1.161   3.518   3.825
   75CHL1  H23A 6716   1.089   3.463   3.889
   75CHL1  H23B 6717   1.262   3.476   3.847
   75CHL1   C24 6718   1.151   3.653   3.876
   75CHL1  H24A 6719   1.219   3.709   3.808
   75CHL1  H24B 6720   1.047   3.689   3.863
   75CHL1   C25 6721   1.190   3.677   4.028
   75CHL1   H25 6722   1.131   3.612   4.095
   75CHL1   C26 6723   1.340   3.637   4.044
   75CHL1  H26A 6724   1.352   3.529   4.024
   75CHL1  H26B 6725   1.398   3.685   3.962
   75CHL1  H26C 6726   1.377   3.660   4.146
   75CHL1   C27 6727   1.150   3.821   4.060
   75CHL1  H27A 6728   1.044   3.844   4.037
   75CHL1  H27B 6729   1.165   3.829   4.170
   75CHL1  H27C 6730   1.217   3.901   4.022
   76CHL1    C3 6731   6.596   4.824   2.952
   76CHL1    H3 6732   6.705   4.804   2.946
   76CHL1    O3 6733   6.553   4.770   2.827
   76CHL1   H3' 6734   6.458   4.780   2.823
   76CHL1    C4 6735   6.511   4.775   3.067
   76CHL1   H4A 6736   6.409   4.791   3.026
   76CHL1   H4B 6737   6.527   4.665   3.072
   76CHL1    C5 6738   6.534   4.846   3.200
   76CHL1    C6 6739   6.575   4.783   3.319
   76CHL1    H6 6740   6.594   4.675   3.326
   76CHL1    C7 6741   6.588   4.858   3.451
   76CHL1   H7A 6742   6.540   4.803   3.535
   76CHL1   H7B 6743   6.695   4.883   3.467
   76CHL1    C8 6744   6.509   4.994   3.448
   76CHL1    H8 6745   6.399   4.982   3.449
   76CHL1   C14 6746   6.547   5.077   3.572
   76CHL1   H14 6747   6.658   5.077   3.568
   76CHL1   C15 6748   6.510   5.006   3.698
   76CHL1  H15A 6749   6.413   4.954   3.709
   76CHL1  H15B 6750   6.585   4.929   3.726
   76CHL1   C16 6751   6.517   5.119   3.798
   76CHL1  H16A 6752   6.422   5.137   3.852
   76CHL1  H16B 6753   6.593   5.090   3.874
   76CHL1   C17 6754   6.555   5.255   3.728
   76CHL1   H17 6755   6.664   5.273   3.729
   76CHL1   C13 6756   6.507   5.224   3.584
   76CHL1   C18 6757   6.349   5.236   3.579
   76CHL1  H18A 6758   6.303   5.187   3.491
   76CHL1  H18B 6759   6.314   5.180   3.669
   76CHL1  H18C 6760   6.314   5.340   3.593
   76CHL1   C12 6761   6.556   5.301   3.464
   76CHL1  H12A 6762   6.512   5.403   3.459
   76CHL1  H12B 6763   6.667   5.304   3.465
   76CHL1   C11 6764   6.525   5.225   3.326
   76CHL1  H11A 6765   6.417   5.247   3.309
   76CHL1  H11B 6766   6.593   5.259   3.246
   76CHL1    C9 6767   6.558   5.071   3.327
   76CHL1    H9 6768   6.669   5.065   3.328
   76CHL1   C10 6769   6.518   4.997   3.190
   76CHL1   C19 6770   6.363   5.026   3.172
   76CHL1  H19A 6771   6.306   5.022   3.267
   76CHL1  H19B 6772   6.342   5.134   3.152
   76CHL1  H19C 6773   6.312   4.978   3.085
   76CHL1    C1 6774   6.599   5.055   3.075
   76CHL1   H1A 6775   6.573   5.162   3.058
   76CHL1   H1B 6776   6.706   5.043   3.101
   76CHL1    C2 6777   6.575   4.976   2.938
   76CHL1   H2A 6778   6.650   5.015   2.866
   76CHL1   H2B 6779   6.474   4.997   2.897
   76CHL1   C20 6780   6.499   5.385   3.794
   76CHL1   H20 6781   6.388   5.382   3.783
   76CHL1   C21 6782   6.552   5.516   3.721
   76CHL1  H21A 6783   6.661   5.503   3.701
   76CHL1  H21B 6784   6.542   5.609   3.782
   76CHL1  H21C 6785   6.497   5.537   3.627
   76CHL1   C22 6786   6.520   5.394   3.947
   76CHL1  H22A 6787   6.519   5.291   3.987
   76CHL1  H22B 6788   6.623   5.436   3.958
   76CHL1   C23 6789   6.421   5.490   4.026
   76CHL1  H23A 6790   6.410   5.588   3.975
   76CHL1  H23B 6791   6.317   5.451   4.029
   76CHL1   C24 6792   6.479   5.509   4.170
   76CHL1  H24A 6793   6.526   5.416   4.208
   76CHL1  H24B 6794   6.549   5.595   4.158
   76CHL1   C25 6795   6.377   5.566   4.270
   76CHL1   H25 6796   6.304   5.484   4.289
   76CHL1   C26 6797   6.449   5.606   4.396
   76CHL1  H26A 6798   6.384   5.673   4.457
   76CHL1  H26B 6799   6.477   5.519   4.459
   76CHL1  H26C 6800   6.542   5.657   4.364
   76CHL1   C27 6801   6.297   5.683   4.218
   76CHL1  H27A 6802   6.239   5.651   4.128
   76CHL1  H27B 6803   6.236   5.708   4.307
   76CHL1  H27C 6804   6.358   5.764   4.172
   77SOPE     N 6805   3.580   2.719   6.474
   77SOPE   HN1 6806   3.565   2.778   6.389
   77SOPE   HN2 6807   3.628   2.633   6.441
   77SOPE   HN3 6808   3.488   2.689   6.511
   77SOPE   C12 6809   3.655   2.787   6.582
   77SOPE  H12A 6810   3.658   2.723   6.673
   77SOPE  H12B 6811   3.610   2.885   6.608
   77SOPE   C11 6812   3.801   2.813   6.539
   77SOPE  H11A 6813   3.845   2.716   6.507
   77SOPE  H11B 6814   3.873   2.851   6.615
   77SOPE     P 6815   3.816   3.051   6.433
   77SOPE   O13 6816   3.915   3.085   6.542
   77SOPE   O14 6817   3.681   3.104   6.456
   77SOPE   O12 6818   3.806   2.893   6.420
   77SOPE   O11 6819   3.866   3.108   6.295
   77SOPE    C1 6820   3.806   3.060   6.174
   77SOPE    HA 6821   3.795   2.950   6.171
   77SOPE    HB 6822   3.873   3.084   6.088
   77SOPE    C2 6823   3.670   3.131   6.139
   77SOPE    HS 6824   3.589   3.096   6.207
   77SOPE   O21 6825   3.646   3.122   5.993
   77SOPE   C21 6826   3.607   3.001   5.951
   77SOPE   O22 6827   3.589   2.905   6.023
   77SOPE   C22 6828   3.570   2.997   5.802
   77SOPE   H2R 6829   3.461   2.976   5.802
   77SOPE   H2S 6830   3.606   2.901   5.759
   77SOPE    C3 6831   3.684   3.283   6.173
   77SOPE    HX 6832   3.718   3.296   6.278
   77SOPE    HY 6833   3.586   3.332   6.155
   77SOPE   O31 6834   3.791   3.348   6.100
   77SOPE   C31 6835   3.755   3.454   6.032
   77SOPE   O32 6836   3.639   3.480   5.999
   77SOPE   C32 6837   3.872   3.543   5.992
   77SOPE   H2X 6838   3.961   3.480   5.975
   77SOPE   H2Y 6839   3.903   3.618   6.068
   77SOPE   C23 6840   3.643   3.099   5.713
   77SOPE   H3R 6841   3.752   3.092   5.736
   77SOPE   H3S 6842   3.613   3.204   5.732
   77SOPE   C24 6843   3.619   3.057   5.562
   77SOPE   H4R 6844   3.683   2.967   5.551
   77SOPE   H4S 6845   3.510   3.047   5.545
   77SOPE   C25 6846   3.673   3.166   5.473
   77SOPE   H5R 6847   3.592   3.238   5.448
   77SOPE   H5S 6848   3.740   3.231   5.534
   77SOPE   C26 6849   3.751   3.117   5.358
   77SOPE   H6R 6850   3.862   3.117   5.366
   77SOPE   H6S 6851   3.716   3.013   5.339
   77SOPE   C27 6852   3.712   3.190   5.231
   77SOPE   H7R 6853   3.601   3.197   5.229
   77SOPE   H7S 6854   3.747   3.295   5.236
   77SOPE   C28 6855   3.761   3.124   5.100
   77SOPE   H8R 6856   3.747   3.191   5.013
   77SOPE   H8S 6857   3.869   3.101   5.106
   77SOPE   C29 6858   3.695   2.993   5.070
   77SOPE   H91 6859   3.676   2.931   5.159
   77SOPE  C210 6860   3.621   2.963   4.966
   77SOPE  H101 6861   3.573   2.864   4.960
   77SOPE  C211 6862   3.607   3.046   4.839
   77SOPE  H11R 6863   3.708   3.077   4.804
   77SOPE  H11S 6864   3.556   3.140   4.866
   77SOPE  C212 6865   3.516   2.996   4.722
   77SOPE  H12R 6866   3.460   3.077   4.670
   77SOPE  H12S 6867   3.434   2.935   4.766
   77SOPE  C213 6868   3.598   2.913   4.616
   77SOPE  H13R 6869   3.654   2.837   4.674
   77SOPE  H13S 6870   3.678   2.978   4.574
   77SOPE  C214 6871   3.503   2.870   4.509
   77SOPE  H14R 6872   3.448   2.957   4.468
   77SOPE  H14S 6873   3.425   2.806   4.556
   77SOPE  C215 6874   3.578   2.781   4.412
   77SOPE  H15R 6875   3.506   2.738   4.339
   77SOPE  H15S 6876   3.611   2.688   4.463
   77SOPE  C216 6877   3.690   2.849   4.329
   77SOPE  H16R 6878   3.730   2.782   4.250
   77SOPE  H16S 6879   3.770   2.893   4.393
   77SOPE  C217 6880   3.653   2.972   4.240
   77SOPE  H17R 6881   3.742   2.988   4.176
   77SOPE  H17S 6882   3.639   3.047   4.320
   77SOPE  C218 6883   3.525   2.961   4.155
   77SOPE  H18R 6884   3.437   2.938   4.220
   77SOPE  H18S 6885   3.531   2.883   4.076
   77SOPE  H18T 6886   3.502   3.060   4.109
   77SOPE   C33 6887   3.836   3.612   5.856
   77SOPE   H3X 6888   3.746   3.677   5.859
   77SOPE   H3Y 6889   3.830   3.537   5.775
   77SOPE   C34 6890   3.948   3.711   5.811
   77SOPE   H4X 6891   4.041   3.650   5.814
   77SOPE   H4Y 6892   3.939   3.794   5.883
   77SOPE   C35 6893   3.918   3.775   5.674
   77SOPE   H5X 6894   3.990   3.858   5.658
   77SOPE   H5Y 6895   3.818   3.822   5.672
   77SOPE   C36 6896   3.924   3.673   5.556
   77SOPE   H6X 6897   3.856   3.586   5.551
   77SOPE   H6Y 6898   4.027   3.632   5.568
   77SOPE   C37 6899   3.916   3.742   5.420
   77SOPE   H7X 6900   3.986   3.828   5.423
   77SOPE   H7Y 6901   3.815   3.787   5.405
   77SOPE   C38 6902   3.975   3.662   5.299
   77SOPE   H8X 6903   3.897   3.585   5.277
   77SOPE   H8Y 6904   4.073   3.625   5.334
   77SOPE   C39 6905   3.995   3.759   5.178
   77SOPE   H9X 6906   4.077   3.827   5.207
   77SOPE   H9Y 6907   3.908   3.826   5.159
   77SOPE  C310 6908   4.033   3.688   5.046
   77SOPE  H10X 6909   3.969   3.597   5.035
   77SOPE  H10Y 6910   4.133   3.641   5.060
   77SOPE  C311 6911   4.032   3.775   4.924
   77SOPE  H11X 6912   4.107   3.743   4.849
   77SOPE  H11Y 6913   4.065   3.877   4.955
   77SOPE  C312 6914   3.894   3.779   4.850
   77SOPE  H12X 6915   3.808   3.792   4.919
   77SOPE  H12Y 6916   3.883   3.677   4.807
   77SOPE  C313 6917   3.881   3.885   4.736
   77SOPE  H13X 6918   3.898   3.991   4.766
   77SOPE  H13Y 6919   3.778   3.892   4.696
   77SOPE  C314 6920   3.977   3.857   4.617
   77SOPE  H14X 6921   4.068   3.895   4.668
   77SOPE  H14Y 6922   3.947   3.922   4.532
   77SOPE  C315 6923   3.986   3.706   4.563
   77SOPE  H15X 6924   4.025   3.650   4.651
   77SOPE  H15Y 6925   4.052   3.710   4.474
   77SOPE  C316 6926   3.853   3.657   4.504
   77SOPE  H16X 6927   3.771   3.685   4.574
   77SOPE  H16Y 6928   3.867   3.548   4.489
   77SOPE  C317 6929   3.821   3.727   4.370
   77SOPE  H17X 6930   3.902   3.711   4.295
   77SOPE  H17Y 6931   3.823   3.838   4.380
   77SOPE  C318 6932   3.686   3.692   4.307
   77SOPE  H18X 6933   3.606   3.691   4.383
   77SOPE  H18Y 6934   3.696   3.598   4.248
   77SOPE  H18Z 6935   3.664   3.772   4.233
   78SOPE     N 6936   2.968   3.779   6.542
   78SOPE   HN1 6937   3.040   3.833   6.595
   78SOPE   HN2 6938   2.875   3.803   6.580
   78SOPE   HN3 6939   2.991   3.678   6.549
   78SOPE   C12 6940   2.945   3.798   6.396
   78SOPE  H12A 6941   3.042   3.802   6.342
   78SOPE  H12B 6942   2.888   3.892   6.388
   78SOPE   C11 6943   2.864   3.683   6.339
   78SOPE  H11A 6944   2.868   3.704   6.230
   78SOPE  H11B 6945   2.761   3.687   6.379
   78SOPE     P 6946   3.050   3.496   6.301
   78SOPE   O13 6947   3.093   3.373   6.367
   78SOPE   O14 6948   3.156   3.595   6.277
   78SOPE   O12 6949   2.925   3.558   6.377
   78SOPE   O11 6950   2.993   3.461   6.153
   78SOPE    C1 6951   2.862   3.404   6.133
   78SOPE    HA 6952   2.788   3.487   6.144
   78SOPE    HB 6953   2.835   3.334   6.215
   78SOPE    C2 6954   2.848   3.330   5.996
   78SOPE    HS 6955   2.912   3.239   6.000
   78SOPE   O21 6956   2.891   3.421   5.891
   78SOPE   C21 6957   2.971   3.371   5.801
   78SOPE   O22 6958   3.017   3.258   5.795
   78SOPE   C22 6959   3.004   3.475   5.695
   78SOPE   H2R 6960   3.112   3.456   5.677
   78SOPE   H2S 6961   2.990   3.576   5.740
   78SOPE    C3 6962   2.697   3.295   5.977
   78SOPE    HX 6963   2.642   3.391   5.985
   78SOPE    HY 6964   2.667   3.236   6.067
   78SOPE   O31 6965   2.668   3.228   5.849
   78SOPE   C31 6966   2.569   3.136   5.847
   78SOPE   O32 6967   2.502   3.109   5.947
   78SOPE   C32 6968   2.579   3.059   5.714
   78SOPE   H2X 6969   2.474   3.035   5.685
   78SOPE   H2Y 6970   2.640   2.968   5.730
   78SOPE   C23 6971   2.923   3.454   5.559
   78SOPE   H3R 6972   2.885   3.547   5.510
   78SOPE   H3S 6973   2.829   3.404   5.589
   78SOPE   C24 6974   2.995   3.363   5.459
   78SOPE   H4R 6975   3.096   3.404   5.435
   78SOPE   H4S 6976   3.019   3.264   5.502
   78SOPE   C25 6977   2.912   3.364   5.332
   78SOPE   H5R 6978   2.825   3.295   5.340
   78SOPE   H5S 6979   2.856   3.459   5.317
   78SOPE   C26 6980   2.988   3.314   5.213
   78SOPE   H6R 6981   3.052   3.402   5.190
   78SOPE   H6S 6982   3.057   3.230   5.235
   78SOPE   C27 6983   2.901   3.280   5.084
   78SOPE   H7R 6984   2.815   3.215   5.111
   78SOPE   H7S 6985   2.857   3.377   5.051
   78SOPE   C28 6986   2.976   3.235   4.964
   78SOPE   H8R 6987   3.056   3.310   4.945
   78SOPE   H8S 6988   3.042   3.148   4.981
   78SOPE   C29 6989   2.890   3.197   4.848
   78SOPE   H91 6990   2.833   3.104   4.855
   78SOPE  C210 6991   2.881   3.267   4.733
   78SOPE  H101 6992   2.819   3.242   4.647
   78SOPE  C211 6993   2.956   3.391   4.692
   78SOPE  H11R 6994   3.007   3.384   4.594
   78SOPE  H11S 6995   3.033   3.407   4.771
   78SOPE  C212 6996   2.864   3.516   4.691
   78SOPE  H12R 6997   2.814   3.525   4.790
   78SOPE  H12S 6998   2.774   3.496   4.629
   78SOPE  C213 6999   2.948   3.642   4.652
   78SOPE  H13R 7000   3.003   3.618   4.559
   78SOPE  H13S 7001   3.024   3.669   4.728
   78SOPE  C214 7002   2.868   3.768   4.622
   78SOPE  H14R 7003   2.821   3.794   4.720
   78SOPE  H14S 7004   2.783   3.756   4.552
   78SOPE  C215 7005   2.953   3.885   4.584
   78SOPE  H15R 7006   3.001   3.878   4.484
   78SOPE  H15S 7007   3.037   3.912   4.652
   78SOPE  C216 7008   2.872   4.019   4.565
   78SOPE  H16R 7009   2.871   4.065   4.666
   78SOPE  H16S 7010   2.767   3.987   4.544
   78SOPE  C217 7011   2.929   4.114   4.457
   78SOPE  H17R 7012   2.938   4.068   4.357
   78SOPE  H17S 7013   3.029   4.132   4.502
   78SOPE  C218 7014   2.856   4.249   4.459
   78SOPE  H18R 7015   2.931   4.319   4.416
   78SOPE  H18S 7016   2.822   4.291   4.556
   78SOPE  H18T 7017   2.772   4.259   4.386
   78SOPE   C33 7018   2.640   3.139   5.599
   78SOPE   H3X 7019   2.750   3.152   5.613
   78SOPE   H3Y 7020   2.601   3.243   5.599
   78SOPE   C34 7021   2.605   3.071   5.464
   78SOPE   H4X 7022   2.619   3.142   5.380
   78SOPE   H4Y 7023   2.497   3.045   5.457
   78SOPE   C35 7024   2.690   2.949   5.440
   78SOPE   H5X 7025   2.709   2.876   5.522
   78SOPE   H5Y 7026   2.790   2.982   5.407
   78SOPE   C36 7027   2.640   2.856   5.328
   78SOPE   H6X 7028   2.541   2.807   5.345
   78SOPE   H6Y 7029   2.719   2.781   5.304
   78SOPE   C37 7030   2.634   2.943   5.194
   78SOPE   H7X 7031   2.743   2.953   5.171
   78SOPE   H7Y 7032   2.582   3.039   5.213
   78SOPE   C38 7033   2.563   2.885   5.072
   78SOPE   H8X 7034   2.458   2.856   5.094
   78SOPE   H8Y 7035   2.611   2.791   5.037
   78SOPE   C39 7036   2.572   2.995   4.962
   78SOPE   H9X 7037   2.676   3.034   4.959
   78SOPE   H9Y 7038   2.502   3.079   4.983
   78SOPE  C310 7039   2.539   2.928   4.828
   78SOPE  H10X 7040   2.431   2.914   4.850
   78SOPE  H10Y 7041   2.595   2.832   4.824
   78SOPE  C311 7042   2.576   3.007   4.701
   78SOPE  H11X 7043   2.687   3.008   4.693
   78SOPE  H11Y 7044   2.549   3.114   4.708
   78SOPE  C312 7045   2.493   2.954   4.575
   78SOPE  H12X 7046   2.386   2.958   4.604
   78SOPE  H12Y 7047   2.518   2.849   4.549
   78SOPE  C313 7048   2.488   3.050   4.455
   78SOPE  H13X 7049   2.589   3.097   4.456
   78SOPE  H13Y 7050   2.406   3.121   4.479
   78SOPE  C314 7051   2.455   2.982   4.318
   78SOPE  H14X 7052   2.538   2.916   4.284
   78SOPE  H14Y 7053   2.449   3.063   4.243
   78SOPE  C315 7054   2.327   2.897   4.318
   78SOPE  H15X 7055   2.253   2.953   4.380
   78SOPE  H15Y 7056   2.344   2.803   4.374
   78SOPE  C316 7057   2.279   2.879   4.174
   78SOPE  H16X 7058   2.355   2.847   4.100
   78SOPE  H16Y 7059   2.239   2.974   4.133
   78SOPE  C317 7060   2.164   2.781   4.161
   78SOPE  H17X 7061   2.208   2.680   4.168
   78SOPE  H17Y 7062   2.122   2.777   4.058
   78SOPE  C318 7063   2.048   2.791   4.254
   78SOPE  H18X 7064   1.967   2.718   4.231
   78SOPE  H18Y 7065   2.008   2.894   4.263
   78SOPE  H18Z 7066   2.077   2.763   4.357
   79SOPE     N 7067   5.149   0.787   6.847
   79SOPE   HN1 7068   5.168   0.872   6.903
   79SOPE   HN2 7069   5.050   0.756   6.854
   79SOPE   HN3 7070   5.218   0.722   6.891
   79SOPE   C12 7071   5.190   0.809   6.704
   79SOPE  H12A 7072   5.213   0.704   6.675
   79SOPE  H12B 7073   5.276   0.879   6.701
   79SOPE   C11 7074   5.072   0.856   6.616
   79SOPE  H11A 7075   4.974   0.808   6.633
   79SOPE  H11B 7076   5.099   0.821   6.514
   79SOPE     P 7077   4.960   1.080   6.704
   79SOPE   O13 7078   5.017   1.201   6.767
   79SOPE   O14 7079   4.879   0.988   6.784
   79SOPE   O12 7080   5.068   0.999   6.625
   79SOPE   O11 7081   4.872   1.129   6.579
   79SOPE    C1 7082   4.933   1.213   6.476
   79SOPE    HA 7083   5.041   1.194   6.456
   79SOPE    HB 7084   4.909   1.321   6.490
   79SOPE    C2 7085   4.865   1.190   6.341
   79SOPE    HS 7086   4.760   1.227   6.336
   79SOPE   O21 7087   4.869   1.058   6.299
   79SOPE   C21 7088   4.751   0.992   6.294
   79SOPE   O22 7089   4.646   1.047   6.320
   79SOPE   C22 7090   4.769   0.851   6.255
   79SOPE   H2R 7091   4.678   0.797   6.289
   79SOPE   H2S 7092   4.855   0.806   6.309
   79SOPE    C3 7093   4.949   1.270   6.230
   79SOPE    HX 7094   5.059   1.260   6.244
   79SOPE    HY 7095   4.929   1.379   6.237
   79SOPE   O31 7096   4.913   1.226   6.107
   79SOPE   C31 7097   4.883   1.313   6.013
   79SOPE   O32 7098   4.860   1.432   6.030
   79SOPE   C32 7099   4.875   1.245   5.877
   79SOPE   H2X 7100   4.846   1.139   5.894
   79SOPE   H2Y 7101   4.976   1.260   5.835
   79SOPE   C23 7102   4.777   0.845   6.101
   79SOPE   H3R 7103   4.793   0.737   6.078
   79SOPE   H3S 7104   4.868   0.900   6.070
   79SOPE   C24 7105   4.642   0.882   6.028
   79SOPE   H4R 7106   4.569   0.810   6.069
   79SOPE   H4S 7107   4.618   0.985   6.064
   79SOPE   C25 7108   4.638   0.851   5.874
   79SOPE   H5R 7109   4.720   0.913   5.831
   79SOPE   H5S 7110   4.668   0.744   5.870
   79SOPE   C26 7111   4.504   0.890   5.806
   79SOPE   H6R 7112   4.426   0.845   5.871
   79SOPE   H6S 7113   4.495   1.001   5.813
   79SOPE   C27 7114   4.501   0.853   5.663
   79SOPE   H7R 7115   4.559   0.926   5.602
   79SOPE   H7S 7116   4.552   0.756   5.646
   79SOPE   C28 7117   4.360   0.836   5.601
   79SOPE   H8R 7118   4.379   0.782   5.505
   79SOPE   H8S 7119   4.299   0.767   5.663
   79SOPE   C29 7120   4.291   0.968   5.600
   79SOPE   H91 7121   4.271   1.016   5.697
   79SOPE  C210 7122   4.253   1.029   5.489
   79SOPE  H101 7123   4.197   1.122   5.500
   79SOPE  C211 7124   4.286   0.991   5.347
   79SOPE  H11R 7125   4.337   0.892   5.344
   79SOPE  H11S 7126   4.356   1.058   5.292
   79SOPE  C212 7127   4.167   0.983   5.255
   79SOPE  H12R 7128   4.132   1.087   5.240
   79SOPE  H12S 7129   4.081   0.925   5.295
   79SOPE  C213 7130   4.204   0.947   5.113
   79SOPE  H13R 7131   4.248   0.846   5.098
   79SOPE  H13S 7132   4.269   1.032   5.081
   79SOPE  C214 7133   4.081   0.970   5.025
   79SOPE  H14R 7134   4.030   1.065   5.049
   79SOPE  H14S 7135   4.010   0.890   5.056
   79SOPE  C215 7136   4.103   0.973   4.869
   79SOPE  H15R 7137   4.196   0.918   4.845
   79SOPE  H15S 7138   4.122   1.074   4.827
   79SOPE  C216 7139   4.000   0.897   4.793
   79SOPE  H16R 7140   3.901   0.940   4.821
   79SOPE  H16S 7141   3.997   0.789   4.820
   79SOPE  C217 7142   4.012   0.906   4.647
   79SOPE  H17R 7143   4.041   1.007   4.611
   79SOPE  H17S 7144   3.915   0.881   4.598
   79SOPE  C218 7145   4.113   0.807   4.603
   79SOPE  H18R 7146   4.218   0.831   4.631
   79SOPE  H18S 7147   4.103   0.798   4.493
   79SOPE  H18T 7148   4.095   0.704   4.640
   79SOPE   C33 7149   4.756   1.297   5.797
   79SOPE   H3X 7150   4.776   1.406   5.783
   79SOPE   H3Y 7151   4.670   1.289   5.867
   79SOPE   C34 7152   4.731   1.233   5.660
   79SOPE   H4X 7153   4.713   1.125   5.676
   79SOPE   H4Y 7154   4.829   1.231   5.608
   79SOPE   C35 7155   4.633   1.306   5.573
   79SOPE   H5X 7156   4.670   1.398   5.523
   79SOPE   H5Y 7157   4.545   1.340   5.632
   79SOPE   C36 7158   4.591   1.214   5.459
   79SOPE   H6X 7159   4.493   1.250   5.420
   79SOPE   H6Y 7160   4.558   1.116   5.498
   79SOPE   C37 7161   4.680   1.195   5.331
   79SOPE   H7X 7162   4.789   1.194   5.350
   79SOPE   H7Y 7163   4.656   1.273   5.257
   79SOPE   C38 7164   4.652   1.056   5.266
   79SOPE   H8X 7165   4.703   1.058   5.167
   79SOPE   H8Y 7166   4.544   1.042   5.247
   79SOPE   C39 7167   4.721   0.944   5.345
   79SOPE   H9X 7168   4.714   0.969   5.453
   79SOPE   H9Y 7169   4.829   0.941   5.320
   79SOPE  C310 7170   4.664   0.807   5.324
   79SOPE  H10X 7171   4.559   0.831   5.353
   79SOPE  H10Y 7172   4.712   0.743   5.400
   79SOPE  C311 7173   4.668   0.762   5.174
   79SOPE  H11X 7174   4.775   0.773   5.147
   79SOPE  H11Y 7175   4.603   0.831   5.116
   79SOPE  C312 7176   4.643   0.610   5.145
   79SOPE  H12X 7177   4.550   0.593   5.203
   79SOPE  H12Y 7178   4.721   0.542   5.185
   79SOPE  C313 7179   4.591   0.584   4.998
   79SOPE  H13X 7180   4.502   0.649   4.983
   79SOPE  H13Y 7181   4.552   0.481   5.005
   79SOPE  C314 7182   4.696   0.596   4.886
   79SOPE  H14X 7183   4.770   0.515   4.897
   79SOPE  H14Y 7184   4.753   0.691   4.890
   79SOPE  C315 7185   4.627   0.587   4.749
   79SOPE  H15X 7186   4.545   0.513   4.741
   79SOPE  H15Y 7187   4.695   0.557   4.667
   79SOPE  C316 7188   4.541   0.717   4.717
   79SOPE  H16X 7189   4.615   0.797   4.736
   79SOPE  H16Y 7190   4.463   0.732   4.795
   79SOPE  C317 7191   4.497   0.723   4.569
   79SOPE  H17X 7192   4.593   0.741   4.515
   79SOPE  H17Y 7193   4.436   0.815   4.560
   79SOPE  C318 7194   4.419   0.600   4.522
   79SOPE  H18X 7195   4.345   0.633   4.447
   79SOPE  H18Y 7196   4.359   0.554   4.604
   79SOPE  H18Z 7197   4.487   0.521   4.483
   80SOPE     N 7198   1.877   3.105   6.609
   80SOPE   HN1 7199   1.931   3.189   6.637
   80SOPE   HN2 7200   1.828   3.064   6.691
   80SOPE   HN3 7201   1.957   3.044   6.581
   80SOPE   C12 7202   1.780   3.131   6.500
   80SOPE  H12A 7203   1.680   3.152   6.544
   80SOPE  H12B 7204   1.786   3.046   6.430
   80SOPE   C11 7205   1.824   3.256   6.420
   80SOPE  H11A 7206   1.813   3.344   6.486
   80SOPE  H11B 7207   1.757   3.259   6.331
   80SOPE     P 7208   2.046   3.355   6.309
   80SOPE   O13 7209   2.173   3.299   6.259
   80SOPE   O14 7210   2.053   3.489   6.374
   80SOPE   O12 7211   1.966   3.257   6.400
   80SOPE   O11 7212   1.953   3.363   6.174
   80SOPE    C1 7213   1.920   3.246   6.101
   80SOPE    HA 7214   1.817   3.212   6.123
   80SOPE    HB 7215   1.982   3.156   6.120
   80SOPE    C2 7216   1.934   3.274   5.949
   80SOPE    HS 7217   1.859   3.347   5.913
   80SOPE   O21 7218   1.913   3.146   5.888
   80SOPE   C21 7219   1.784   3.108   5.869
   80SOPE   O22 7220   1.687   3.170   5.907
   80SOPE   C22 7221   1.790   2.959   5.819
   80SOPE   H2R 7222   1.763   2.912   5.916
   80SOPE   H2S 7223   1.898   2.935   5.804
   80SOPE    C3 7224   2.075   3.320   5.911
   80SOPE    HX 7225   2.137   3.237   5.953
   80SOPE    HY 7226   2.096   3.419   5.958
   80SOPE   O31 7227   2.081   3.330   5.772
   80SOPE   C31 7228   2.205   3.334   5.720
   80SOPE   O32 7229   2.306   3.318   5.782
   80SOPE   C32 7230   2.191   3.382   5.577
   80SOPE   H2X 7231   2.155   3.487   5.577
   80SOPE   H2Y 7232   2.115   3.316   5.531
   80SOPE   C23 7233   1.684   2.933   5.715
   80SOPE   H3R 7234   1.580   2.950   5.751
   80SOPE   H3S 7235   1.685   2.823   5.696
   80SOPE   C24 7236   1.702   3.016   5.590
   80SOPE   H4R 7237   1.609   3.031   5.532
   80SOPE   H4S 7238   1.736   3.116   5.622
   80SOPE   C25 7239   1.802   2.947   5.495
   80SOPE   H5R 7240   1.902   2.952   5.542
   80SOPE   H5S 7241   1.776   2.841   5.472
   80SOPE   C26 7242   1.815   3.018   5.357
   80SOPE   H6R 7243   1.903   2.969   5.311
   80SOPE   H6S 7244   1.722   3.013   5.296
   80SOPE   C27 7245   1.852   3.165   5.365
   80SOPE   H7R 7246   1.765   3.232   5.381
   80SOPE   H7S 7247   1.916   3.169   5.455
   80SOPE   C28 7248   1.936   3.218   5.251
   80SOPE   H8R 7249   1.968   3.319   5.286
   80SOPE   H8S 7250   2.025   3.151   5.250
   80SOPE   C29 7251   1.852   3.228   5.126
   80SOPE   H91 7252   1.744   3.224   5.146
   80SOPE  C210 7253   1.900   3.213   4.999
   80SOPE  H101 7254   1.830   3.221   4.915
   80SOPE  C211 7255   2.048   3.216   4.969
   80SOPE  H11R 7256   2.067   3.107   4.962
   80SOPE  H11S 7257   2.114   3.257   5.048
   80SOPE  C212 7258   2.076   3.300   4.838
   80SOPE  H12R 7259   2.186   3.312   4.842
   80SOPE  H12S 7260   2.033   3.401   4.850
   80SOPE  C213 7261   2.031   3.235   4.712
   80SOPE  H13R 7262   1.920   3.231   4.706
   80SOPE  H13S 7263   2.074   3.133   4.715
   80SOPE  C214 7264   2.088   3.303   4.590
   80SOPE  H14R 7265   2.197   3.283   4.589
   80SOPE  H14S 7266   2.063   3.412   4.596
   80SOPE  C215 7267   2.032   3.250   4.456
   80SOPE  H15R 7268   1.925   3.221   4.465
   80SOPE  H15S 7269   2.089   3.158   4.434
   80SOPE  C216 7270   2.048   3.354   4.346
   80SOPE  H16R 7271   2.017   3.450   4.393
   80SOPE  H16S 7272   1.980   3.335   4.260
   80SOPE  C217 7273   2.193   3.372   4.298
   80SOPE  H17R 7274   2.258   3.412   4.379
   80SOPE  H17S 7275   2.197   3.456   4.225
   80SOPE  C218 7276   2.256   3.248   4.241
   80SOPE  H18R 7277   2.180   3.211   4.168
   80SOPE  H18S 7278   2.269   3.173   4.322
   80SOPE  H18T 7279   2.354   3.253   4.189
   80SOPE   C33 7280   2.330   3.384   5.508
   80SOPE   H3X 7281   2.379   3.285   5.519
   80SOPE   H3Y 7282   2.409   3.452   5.545
   80SOPE   C34 7283   2.322   3.410   5.364
   80SOPE   H4X 7284   2.293   3.513   5.334
   80SOPE   H4Y 7285   2.243   3.344   5.323
   80SOPE   C35 7286   2.454   3.372   5.294
   80SOPE   H5X 7287   2.446   3.263   5.273
   80SOPE   H5Y 7288   2.534   3.388   5.370
   80SOPE   C36 7289   2.465   3.449   5.164
   80SOPE   H6X 7290   2.567   3.422   5.129
   80SOPE   H6Y 7291   2.463   3.560   5.178
   80SOPE   C37 7292   2.373   3.398   5.051
   80SOPE   H7X 7293   2.272   3.444   5.050
   80SOPE   H7Y 7294   2.354   3.289   5.044
   80SOPE   C38 7295   2.433   3.422   4.911
   80SOPE   H8X 7296   2.400   3.361   4.824
   80SOPE   H8Y 7297   2.544   3.422   4.900
   80SOPE   C39 7298   2.401   3.571   4.875
   80SOPE   H9X 7299   2.439   3.632   4.959
   80SOPE   H9Y 7300   2.296   3.608   4.871
   80SOPE  C310 7301   2.462   3.621   4.743
   80SOPE  H10X 7302   2.573   3.622   4.747
   80SOPE  H10Y 7303   2.447   3.731   4.753
   80SOPE  C311 7304   2.408   3.564   4.611
   80SOPE  H11X 7305   2.300   3.539   4.616
   80SOPE  H11Y 7306   2.442   3.460   4.594
   80SOPE  C312 7307   2.427   3.662   4.489
   80SOPE  H12X 7308   2.422   3.766   4.528
   80SOPE  H12Y 7309   2.354   3.633   4.411
   80SOPE  C313 7310   2.559   3.642   4.417
   80SOPE  H13X 7311   2.560   3.566   4.336
   80SOPE  H13Y 7312   2.628   3.625   4.502
   80SOPE  C314 7313   2.600   3.770   4.350
   80SOPE  H14X 7314   2.609   3.851   4.425
   80SOPE  H14Y 7315   2.511   3.802   4.292
   80SOPE  C315 7316   2.730   3.778   4.271
   80SOPE  H15X 7317   2.718   3.702   4.191
   80SOPE  H15Y 7318   2.829   3.766   4.321
   80SOPE  C316 7319   2.746   3.912   4.192
   80SOPE  H16X 7320   2.752   3.993   4.268
   80SOPE  H16Y 7321   2.656   3.922   4.128
   80SOPE  C317 7322   2.870   3.924   4.109
   80SOPE  H17X 7323   2.956   3.944   4.176
   80SOPE  H17Y 7324   2.865   4.015   4.045
   80SOPE  C318 7325   2.894   3.803   4.021
   80SOPE  H18X 7326   2.815   3.775   3.948
   80SOPE  H18Y 7327   2.919   3.710   4.075
   80SOPE  H18Z 7328   2.988   3.828   3.968
   81SOPE     N 7329   4.550   0.732   6.685
   81SOPE   HN1 7330   4.547   0.832   6.657
   81SOPE   HN2 7331   4.504   0.684   6.605
   81SOPE   HN3 7332   4.517   0.705   6.780
   81SOPE   C12 7333   4.686   0.668   6.680
   81SOPE  H12A 7334   4.750   0.729   6.748
   81SOPE  H12B 7335   4.716   0.670   6.573
   81SOPE   C11 7336   4.687   0.520   6.728
   81SOPE  H11A 7337   4.591   0.469   6.703
   81SOPE  H11B 7338   4.688   0.526   6.839
   81SOPE     P 7339   4.947   0.488   6.715
   81SOPE   O13 7340   5.022   0.375   6.772
   81SOPE   O14 7341   4.946   0.610   6.800
   81SOPE   O12 7342   4.794   0.441   6.681
   81SOPE   O11 7343   5.008   0.519   6.573
   81SOPE    C1 7344   4.974   0.423   6.472
   81SOPE    HA 7345   4.868   0.433   6.438
   81SOPE    HB 7346   4.996   0.318   6.502
   81SOPE    C2 7347   5.050   0.437   6.337
   81SOPE    HS 7348   5.152   0.396   6.354
   81SOPE   O21 7349   5.048   0.577   6.290
   81SOPE   C21 7350   5.162   0.623   6.243
   81SOPE   O22 7351   5.270   0.566   6.259
   81SOPE   C22 7352   5.137   0.760   6.186
   81SOPE   H2R 7353   5.080   0.818   6.262
   81SOPE   H2S 7354   5.050   0.749   6.118
   81SOPE    C3 7355   4.987   0.354   6.214
   81SOPE    HX 7356   4.881   0.387   6.199
   81SOPE    HY 7357   4.993   0.253   6.260
   81SOPE   O31 7358   5.056   0.371   6.093
   81SOPE   C31 7359   5.170   0.302   6.086
   81SOPE   O32 7360   5.208   0.228   6.173
   81SOPE   C32 7361   5.248   0.325   5.952
   81SOPE   H2X 7362   5.172   0.311   5.872
   81SOPE   H2Y 7363   5.322   0.242   5.948
   81SOPE   C23 7364   5.246   0.835   6.112
   81SOPE   H3R 7365   5.231   0.808   6.006
   81SOPE   H3S 7366   5.351   0.805   6.135
   81SOPE   C24 7367   5.228   0.983   6.134
   81SOPE   H4R 7368   5.135   1.023   6.089
   81SOPE   H4S 7369   5.223   1.010   6.242
   81SOPE   C25 7370   5.341   1.062   6.069
   81SOPE   H5R 7371   5.439   1.012   6.077
   81SOPE   H5S 7372   5.316   1.063   5.961
   81SOPE   C26 7373   5.349   1.215   6.089
   81SOPE   H6R 7374   5.251   1.265   6.077
   81SOPE   H6S 7375   5.384   1.238   6.192
   81SOPE   C27 7376   5.436   1.278   5.986
   81SOPE   H7R 7377   5.463   1.372   6.039
   81SOPE   H7S 7378   5.530   1.225   5.960
   81SOPE   C28 7379   5.376   1.320   5.847
   81SOPE   H8R 7380   5.454   1.374   5.790
   81SOPE   H8S 7381   5.345   1.227   5.794
   81SOPE   C29 7382   5.261   1.421   5.859
   81SOPE   H91 7383   5.267   1.480   5.952
   81SOPE  C210 7384   5.171   1.452   5.766
   81SOPE  H101 7385   5.098   1.529   5.794
   81SOPE  C211 7386   5.154   1.390   5.631
   81SOPE  H11R 7387   5.067   1.322   5.626
   81SOPE  H11S 7388   5.245   1.334   5.602
   81SOPE  C212 7389   5.119   1.507   5.529
   81SOPE  H12R 7390   5.213   1.540   5.482
   81SOPE  H12S 7391   5.074   1.596   5.578
   81SOPE  C213 7392   5.017   1.456   5.425
   81SOPE  H13R 7393   4.935   1.413   5.486
   81SOPE  H13S 7394   5.062   1.380   5.358
   81SOPE  C214 7395   4.958   1.564   5.348
   81SOPE  H14R 7396   5.042   1.610   5.290
   81SOPE  H14S 7397   4.911   1.642   5.412
   81SOPE  C215 7398   4.843   1.503   5.260
   81SOPE  H15R 7399   4.774   1.460   5.336
   81SOPE  H15S 7400   4.895   1.428   5.196
   81SOPE  C216 7401   4.763   1.611   5.178
   81SOPE  H16R 7402   4.835   1.660   5.109
   81SOPE  H16S 7403   4.709   1.681   5.244
   81SOPE  C217 7404   4.659   1.541   5.089
   81SOPE  H17R 7405   4.619   1.470   5.165
   81SOPE  H17S 7406   4.717   1.482   5.015
   81SOPE  C218 7407   4.554   1.623   5.011
   81SOPE  H18R 7408   4.499   1.689   5.081
   81SOPE  H18S 7409   4.482   1.565   4.949
   81SOPE  H18T 7410   4.610   1.686   4.939
   81SOPE   C33 7411   5.332   0.458   5.944
   81SOPE   H3X 7412   5.395   0.454   6.036
   81SOPE   H3Y 7413   5.267   0.547   5.955
   81SOPE   C34 7414   5.428   0.453   5.829
   81SOPE   H4X 7415   5.471   0.351   5.829
   81SOPE   H4Y 7416   5.507   0.527   5.854
   81SOPE   C35 7417   5.369   0.483   5.691
   81SOPE   H5X 7418   5.266   0.525   5.701
   81SOPE   H5Y 7419   5.366   0.383   5.643
   81SOPE   C36 7420   5.453   0.570   5.599
   81SOPE   H6X 7421   5.545   0.511   5.577
   81SOPE   H6Y 7422   5.477   0.667   5.647
   81SOPE   C37 7423   5.370   0.589   5.475
   81SOPE   H7X 7424   5.280   0.646   5.508
   81SOPE   H7Y 7425   5.340   0.485   5.449
   81SOPE   C38 7426   5.448   0.657   5.361
   81SOPE   H8X 7427   5.554   0.626   5.372
   81SOPE   H8Y 7428   5.436   0.765   5.385
   81SOPE   C39 7429   5.410   0.627   5.210
   81SOPE   H9X 7430   5.300   0.645   5.203
   81SOPE   H9Y 7431   5.425   0.517   5.204
   81SOPE  C310 7432   5.494   0.699   5.102
   81SOPE  H10X 7433   5.453   0.686   5.000
   81SOPE  H10Y 7434   5.592   0.647   5.099
   81SOPE  C311 7435   5.513   0.841   5.137
   81SOPE  H11X 7436   5.565   0.851   5.235
   81SOPE  H11Y 7437   5.414   0.892   5.133
   81SOPE  C312 7438   5.598   0.905   5.022
   81SOPE  H12X 7439   5.571   1.013   5.023
   81SOPE  H12Y 7440   5.571   0.865   4.922
   81SOPE  C313 7441   5.755   0.901   5.043
   81SOPE  H13X 7442   5.798   0.868   4.946
   81SOPE  H13Y 7443   5.777   0.814   5.109
   81SOPE  C314 7444   5.815   1.032   5.103
   81SOPE  H14X 7445   5.759   1.047   5.198
   81SOPE  H14Y 7446   5.811   1.117   5.032
   81SOPE  C315 7447   5.962   1.012   5.147
   81SOPE  H15X 7448   6.038   1.008   5.066
   81SOPE  H15Y 7449   5.958   0.912   5.194
   81SOPE  C316 7450   6.005   1.112   5.258
   81SOPE  H16X 7451   5.919   1.135   5.324
   81SOPE  H16Y 7452   6.036   1.206   5.207
   81SOPE  C317 7453   6.119   1.053   5.335
   81SOPE  H17X 7454   6.201   1.031   5.263
   81SOPE  H17Y 7455   6.084   0.953   5.367
   81SOPE  C318 7456   6.149   1.146   5.451
   81SOPE  H18X 7457   6.214   1.105   5.531
   81SOPE  H18Y 7458   6.048   1.178   5.486
   81SOPE  H18Z 7459   6.197   1.240   5.415
   82SOPE     N 7460   2.240   1.320   6.673
   82SOPE   HN1 7461   2.183   1.299   6.757
   82SOPE   HN2 7462   2.318   1.252   6.659
   82SOPE   HN3 7463   2.284   1.410   6.699
   82SOPE   C12 7464   2.160   1.325   6.542
   82SOPE  H12A 7465   2.080   1.402   6.539
   82SOPE  H12B 7466   2.102   1.230   6.534
   82SOPE   C11 7467   2.258   1.320   6.421
   82SOPE  H11A 7468   2.325   1.407   6.429
   82SOPE  H11B 7469   2.211   1.330   6.321
   82SOPE     P 7470   2.303   1.077   6.350
   82SOPE   O13 7471   2.159   1.045   6.364
   82SOPE   O14 7472   2.399   0.973   6.392
   82SOPE   O12 7473   2.336   1.206   6.427
   82SOPE   O11 7474   2.334   1.125   6.200
   82SOPE    C1 7475   2.249   1.080   6.090
   82SOPE    HA 7476   2.263   1.155   6.009
   82SOPE    HB 7477   2.143   1.066   6.119
   82SOPE    C2 7478   2.304   0.951   6.025
   82SOPE    HS 7479   2.413   0.972   6.022
   82SOPE   O21 7480   2.258   0.933   5.891
   82SOPE   C21 7481   2.346   0.863   5.819
   82SOPE   O22 7482   2.457   0.831   5.852
   82SOPE   C22 7483   2.283   0.837   5.687
   82SOPE   H2R 7484   2.229   0.928   5.651
   82SOPE   H2S 7485   2.211   0.754   5.705
   82SOPE    C3 7486   2.281   0.826   6.109
   82SOPE    HX 7487   2.327   0.836   6.210
   82SOPE    HY 7488   2.333   0.741   6.060
   82SOPE   O31 7489   2.140   0.809   6.132
   82SOPE   C31 7490   2.083   0.726   6.040
   82SOPE   O32 7491   2.141   0.652   5.959
   82SOPE   C32 7492   1.929   0.745   6.047
   82SOPE   H2X 7493   1.915   0.855   6.048
   82SOPE   H2Y 7494   1.893   0.702   6.143
   82SOPE   C23 7495   2.396   0.815   5.582
   82SOPE   H3R 7496   2.432   0.710   5.591
   82SOPE   H3S 7497   2.466   0.898   5.603
   82SOPE   C24 7498   2.353   0.839   5.433
   82SOPE   H4R 7499   2.250   0.803   5.412
   82SOPE   H4S 7500   2.346   0.948   5.413
   82SOPE   C25 7501   2.444   0.767   5.330
   82SOPE   H5R 7502   2.546   0.812   5.338
   82SOPE   H5S 7503   2.458   0.661   5.363
   82SOPE   C26 7504   2.402   0.788   5.185
   82SOPE   H6R 7505   2.293   0.778   5.166
   82SOPE   H6S 7506   2.431   0.893   5.166
   82SOPE   C27 7507   2.480   0.693   5.092
   82SOPE   H7R 7508   2.589   0.707   5.108
   82SOPE   H7S 7509   2.452   0.588   5.116
   82SOPE   C28 7510   2.426   0.704   4.948
   82SOPE   H8R 7511   2.315   0.715   4.949
   82SOPE   H8S 7512   2.456   0.801   4.904
   82SOPE   C29 7513   2.458   0.599   4.850
   82SOPE   H91 7514   2.566   0.581   4.847
   82SOPE  C210 7515   2.377   0.524   4.772
   82SOPE  H101 7516   2.423   0.454   4.701
   82SOPE  C211 7517   2.228   0.532   4.770
   82SOPE  H11R 7518   2.189   0.579   4.864
   82SOPE  H11S 7519   2.187   0.429   4.781
   82SOPE  C212 7520   2.160   0.588   4.649
   82SOPE  H12R 7521   2.051   0.580   4.669
   82SOPE  H12S 7522   2.191   0.539   4.554
   82SOPE  C213 7523   2.190   0.736   4.629
   82SOPE  H13R 7524   2.299   0.742   4.608
   82SOPE  H13S 7525   2.171   0.793   4.722
   82SOPE  C214 7526   2.108   0.794   4.511
   82SOPE  H14R 7527   2.098   0.905   4.517
   82SOPE  H14S 7528   2.007   0.750   4.529
   82SOPE  C215 7529   2.167   0.761   4.374
   82SOPE  H15R 7530   2.113   0.817   4.295
   82SOPE  H15S 7531   2.162   0.650   4.367
   82SOPE  C216 7532   2.308   0.800   4.350
   82SOPE  H16R 7533   2.384   0.726   4.382
   82SOPE  H16S 7534   2.330   0.896   4.401
   82SOPE  C217 7535   2.347   0.822   4.201
   82SOPE  H17R 7536   2.458   0.834   4.201
   82SOPE  H17S 7537   2.299   0.917   4.168
   82SOPE  C218 7538   2.319   0.708   4.106
   82SOPE  H18R 7539   2.213   0.692   4.078
   82SOPE  H18S 7540   2.362   0.615   4.150
   82SOPE  H18T 7541   2.378   0.725   4.013
   82SOPE   C33 7542   1.859   0.692   5.917
   82SOPE   H3X 7543   1.891   0.589   5.889
   82SOPE   H3Y 7544   1.882   0.755   5.829
   82SOPE   C34 7545   1.704   0.689   5.936
   82SOPE   H4X 7546   1.674   0.795   5.956
   82SOPE   H4Y 7547   1.694   0.618   6.020
   82SOPE   C35 7548   1.629   0.632   5.814
   82SOPE   H5X 7549   1.521   0.617   5.836
   82SOPE   H5Y 7550   1.655   0.526   5.793
   82SOPE   C36 7551   1.641   0.722   5.693
   82SOPE   H6X 7552   1.743   0.718   5.650
   82SOPE   H6Y 7553   1.616   0.829   5.708
   82SOPE   C37 7554   1.537   0.694   5.578
   82SOPE   H7X 7555   1.435   0.709   5.621
   82SOPE   H7Y 7556   1.538   0.587   5.548
   82SOPE   C38 7557   1.551   0.774   5.446
   82SOPE   H8X 7558   1.652   0.764   5.400
   82SOPE   H8Y 7559   1.539   0.882   5.472
   82SOPE   C39 7560   1.441   0.744   5.348
   82SOPE   H9X 7561   1.341   0.752   5.396
   82SOPE   H9Y 7562   1.467   0.640   5.317
   82SOPE  C310 7563   1.439   0.836   5.229
   82SOPE  H10X 7564   1.535   0.836   5.174
   82SOPE  H10Y 7565   1.428   0.940   5.265
   82SOPE  C311 7566   1.327   0.800   5.126
   82SOPE  H11X 7567   1.236   0.810   5.190
   82SOPE  H11Y 7568   1.337   0.694   5.095
   82SOPE  C312 7569   1.330   0.898   5.003
   82SOPE  H12X 7570   1.432   0.888   4.958
   82SOPE  H12Y 7571   1.309   0.997   5.048
   82SOPE  C313 7572   1.226   0.876   4.893
   82SOPE  H13X 7573   1.122   0.885   4.930
   82SOPE  H13Y 7574   1.237   0.768   4.866
   82SOPE  C314 7575   1.259   0.950   4.760
   82SOPE  H14X 7576   1.226   0.885   4.676
   82SOPE  H14Y 7577   1.366   0.968   4.737
   82SOPE  C315 7578   1.196   1.082   4.745
   82SOPE  H15X 7579   1.263   1.161   4.786
   82SOPE  H15Y 7580   1.109   1.083   4.814
   82SOPE  C316 7581   1.172   1.123   4.601
   82SOPE  H16X 7582   1.261   1.101   4.539
   82SOPE  H16Y 7583   1.158   1.233   4.609
   82SOPE  C317 7584   1.050   1.055   4.530
   82SOPE  H17X 7585   0.951   1.088   4.569
   82SOPE  H17Y 7586   1.059   0.946   4.546
   82SOPE  C318 7587   1.036   1.092   4.380
   82SOPE  H18X 7588   1.128   1.058   4.327
   82SOPE  H18Y 7589   1.026   1.202   4.367
   82SOPE  H18Z 7590   0.947   1.043   4.333
   83SOPE     N 7591   1.023   2.373   1.807
   83SOPE   HN1 7592   0.969   2.297   1.854
   83SOPE   HN2 7593   0.966   2.398   1.724
   83SOPE   HN3 7594   1.117   2.334   1.785
   83SOPE   C12 7595   1.029   2.492   1.904
   83SOPE  H12A 7596   0.928   2.484   1.950
   83SOPE  H12B 7597   1.046   2.578   1.836
   83SOPE   C11 7598   1.139   2.470   2.019
   83SOPE  H11A 7599   1.239   2.453   1.973
   83SOPE  H11B 7600   1.109   2.384   2.083
   83SOPE     P 7601   1.220   2.718   2.049
   83SOPE   O13 7602   1.100   2.801   2.008
   83SOPE   O14 7603   1.324   2.692   1.938
   83SOPE   O12 7604   1.162   2.580   2.102
   83SOPE   O11 7605   1.292   2.790   2.166
   83SOPE    C1 7606   1.342   2.727   2.283
   83SOPE    HA 7607   1.281   2.638   2.309
   83SOPE    HB 7608   1.331   2.807   2.360
   83SOPE    C2 7609   1.489   2.688   2.273
   83SOPE    HS 7610   1.501   2.631   2.178
   83SOPE   O21 7611   1.527   2.618   2.394
   83SOPE   C21 7612   1.641   2.549   2.376
   83SOPE   O22 7613   1.707   2.551   2.271
   83SOPE   C22 7614   1.680   2.468   2.501
   83SOPE   H2R 7615   1.586   2.445   2.556
   83SOPE   H2S 7616   1.742   2.544   2.554
   83SOPE    C3 7617   1.581   2.808   2.243
   83SOPE    HX 7618   1.542   2.854   2.150
   83SOPE    HY 7619   1.685   2.783   2.212
   83SOPE   O31 7620   1.572   2.905   2.344
   83SOPE   C31 7621   1.679   2.931   2.411
   83SOPE   O32 7622   1.793   2.881   2.400
   83SOPE   C32 7623   1.633   3.027   2.514
   83SOPE   H2X 7624   1.558   3.096   2.469
   83SOPE   H2Y 7625   1.728   3.076   2.540
   83SOPE   C23 7626   1.760   2.344   2.464
   83SOPE   H3R 7627   1.841   2.362   2.390
   83SOPE   H3S 7628   1.682   2.276   2.425
   83SOPE   C24 7629   1.824   2.280   2.585
   83SOPE   H4R 7630   1.856   2.179   2.550
   83SOPE   H4S 7631   1.914   2.340   2.613
   83SOPE   C25 7632   1.734   2.275   2.710
   83SOPE   H5R 7633   1.726   2.366   2.773
   83SOPE   H5S 7634   1.632   2.259   2.669
   83SOPE   C26 7635   1.761   2.153   2.798
   83SOPE   H6R 7636   1.672   2.147   2.865
   83SOPE   H6S 7637   1.750   2.066   2.730
   83SOPE   C27 7638   1.893   2.153   2.866
   83SOPE   H7R 7639   1.974   2.162   2.790
   83SOPE   H7S 7640   1.899   2.245   2.927
   83SOPE   C28 7641   1.921   2.044   2.962
   83SOPE   H8R 7642   2.017   2.067   3.014
   83SOPE   H8S 7643   1.840   2.053   3.037
   83SOPE   C29 7644   1.924   1.898   2.916
   83SOPE   H91 7645   2.014   1.861   2.866
   83SOPE  C210 7646   1.826   1.806   2.931
   83SOPE  H101 7647   1.853   1.709   2.887
   83SOPE  C211 7648   1.707   1.824   3.026
   83SOPE  H11R 7649   1.612   1.797   2.976
   83SOPE  H11S 7650   1.690   1.931   3.047
   83SOPE  C212 7651   1.712   1.738   3.159
   83SOPE  H12R 7652   1.812   1.767   3.198
   83SOPE  H12S 7653   1.703   1.627   3.147
   83SOPE  C213 7654   1.611   1.778   3.262
   83SOPE  H13R 7655   1.520   1.780   3.198
   83SOPE  H13S 7656   1.628   1.885   3.289
   83SOPE  C214 7657   1.604   1.682   3.382
   83SOPE  H14R 7658   1.698   1.688   3.442
   83SOPE  H14S 7659   1.581   1.585   3.333
   83SOPE  C215 7660   1.476   1.731   3.466
   83SOPE  H15R 7661   1.395   1.736   3.390
   83SOPE  H15S 7662   1.481   1.833   3.510
   83SOPE  C216 7663   1.434   1.632   3.575
   83SOPE  H16R 7664   1.400   1.535   3.533
   83SOPE  H16S 7665   1.346   1.681   3.622
   83SOPE  C217 7666   1.550   1.604   3.672
   83SOPE  H17R 7667   1.626   1.546   3.616
   83SOPE  H17S 7668   1.516   1.539   3.756
   83SOPE  C218 7669   1.622   1.721   3.742
   83SOPE  H18R 7670   1.678   1.672   3.825
   83SOPE  H18S 7671   1.554   1.799   3.782
   83SOPE  H18T 7672   1.689   1.769   3.668
   83SOPE   C33 7673   1.563   2.960   2.633
   83SOPE   H3X 7674   1.471   2.913   2.592
   83SOPE   H3Y 7675   1.526   3.036   2.705
   83SOPE   C34 7676   1.662   2.856   2.704
   83SOPE   H4X 7677   1.760   2.903   2.729
   83SOPE   H4Y 7678   1.681   2.773   2.634
   83SOPE   C35 7679   1.587   2.801   2.824
   83SOPE   H5X 7680   1.504   2.744   2.776
   83SOPE   H5Y 7681   1.529   2.884   2.870
   83SOPE   C36 7682   1.690   2.742   2.924
   83SOPE   H6X 7683   1.780   2.808   2.936
   83SOPE   H6Y 7684   1.720   2.643   2.886
   83SOPE   C37 7685   1.624   2.714   3.068
   83SOPE   H7X 7686   1.539   2.647   3.044
   83SOPE   H7Y 7687   1.574   2.809   3.097
   83SOPE   C38 7688   1.729   2.683   3.176
   83SOPE   H8X 7689   1.813   2.754   3.165
   83SOPE   H8Y 7690   1.767   2.578   3.170
   83SOPE   C39 7691   1.674   2.716   3.311
   83SOPE   H9X 7692   1.569   2.679   3.317
   83SOPE   H9Y 7693   1.674   2.826   3.320
   83SOPE  C310 7694   1.754   2.644   3.427
   83SOPE  H10X 7695   1.859   2.680   3.434
   83SOPE  H10Y 7696   1.775   2.538   3.404
   83SOPE  C311 7697   1.680   2.638   3.565
   83SOPE  H11X 7698   1.602   2.560   3.575
   83SOPE  H11Y 7699   1.621   2.732   3.576
   83SOPE  C312 7700   1.771   2.612   3.686
   83SOPE  H12X 7701   1.866   2.671   3.684
   83SOPE  H12Y 7702   1.792   2.503   3.694
   83SOPE  C313 7703   1.711   2.653   3.821
   83SOPE  H13X 7704   1.601   2.642   3.826
   83SOPE  H13Y 7705   1.726   2.761   3.844
   83SOPE  C314 7706   1.766   2.566   3.936
   83SOPE  H14X 7707   1.872   2.533   3.932
   83SOPE  H14Y 7708   1.696   2.479   3.938
   83SOPE  C315 7709   1.755   2.639   4.072
   83SOPE  H15X 7710   1.811   2.735   4.060
   83SOPE  H15Y 7711   1.808   2.573   4.144
   83SOPE  C316 7712   1.618   2.680   4.109
   83SOPE  H16X 7713   1.562   2.592   4.148
   83SOPE  H16Y 7714   1.554   2.727   4.031
   83SOPE  C317 7715   1.612   2.786   4.223
   83SOPE  H17X 7716   1.654   2.883   4.190
   83SOPE  H17Y 7717   1.678   2.753   4.306
   83SOPE  C318 7718   1.473   2.814   4.275
   83SOPE  H18X 7719   1.415   2.839   4.184
   83SOPE  H18Y 7720   1.463   2.906   4.336
   83SOPE  H18Z 7721   1.414   2.736   4.325
   84SOPE     N 7722   6.635   1.079   2.542
   84SOPE   HN1 7723   6.626   1.178   2.570
   84SOPE   HN2 7724   6.559   1.027   2.591
   84SOPE   HN3 7725   6.723   1.046   2.586
   84SOPE   C12 7726   6.628   1.062   2.388
   84SOPE  H12A 7727   6.687   1.145   2.343
   84SOPE  H12B 7728   6.521   1.066   2.358
   84SOPE   C11 7729   6.690   0.927   2.361
   84SOPE  H11A 7730   6.724   0.930   2.256
   84SOPE  H11B 7731   6.620   0.847   2.393
   84SOPE     P 7732   0.008   0.774   2.422
   84SOPE   O13 7733   0.085   0.794   2.300
   84SOPE   O14 7734   6.790   0.660   2.428
   84SOPE   O12 7735   6.811   0.909   2.441
   84SOPE   O11 7736   0.110   0.782   2.547
   84SOPE    C1 7737   0.066   0.723   2.671
   84SOPE    HA 7738   0.101   0.618   2.668
   84SOPE    HB 7739   6.835   0.717   2.681
   84SOPE    C2 7740   0.130   0.800   2.787
   84SOPE    HS 7741   0.062   0.782   2.873
   84SOPE   O21 7742   0.163   0.944   2.772
   84SOPE   C21 7743   0.062   1.028   2.740
   84SOPE   O22 7744   6.825   0.998   2.731
   84SOPE   C22 7745   0.118   1.175   2.716
   84SOPE   H2R 7746   0.070   1.241   2.792
   84SOPE   H2S 7747   0.086   1.201   2.613
   84SOPE    C3 7748   0.265   0.727   2.829
   84SOPE    HX 7749   0.327   0.788   2.898
   84SOPE    HY 7750   0.322   0.735   2.734
   84SOPE   O31 7751   0.251   0.588   2.861
   84SOPE   C31 7752   0.210   0.553   2.972
   84SOPE   O32 7753   0.174   0.625   3.066
   84SOPE   C32 7754   0.223   0.398   2.975
   84SOPE   H2X 7755   0.330   0.378   2.952
   84SOPE   H2Y 7756   0.169   0.358   2.886
   84SOPE   C23 7757   0.269   1.177   2.720
   84SOPE   H3R 7758   0.310   1.269   2.673
   84SOPE   H3S 7759   0.316   1.089   2.671
   84SOPE   C24 7760   0.321   1.177   2.872
   84SOPE   H4R 7761   0.275   1.253   2.939
   84SOPE   H4S 7762   0.291   1.080   2.918
   84SOPE   C25 7763   0.476   1.199   2.869
   84SOPE   H5R 7764   0.527   1.109   2.828
   84SOPE   H5S 7765   0.500   1.292   2.814
   84SOPE   C26 7766   0.529   1.211   3.011
   84SOPE   H6R 7767   0.498   1.308   3.055
   84SOPE   H6S 7768   0.470   1.139   3.072
   84SOPE   C27 7769   0.680   1.177   3.023
   84SOPE   H7R 7770   0.702   1.097   2.950
   84SOPE   H7S 7771   0.729   1.265   2.976
   84SOPE   C28 7772   0.724   1.149   3.164
   84SOPE   H8R 7773   0.695   1.046   3.197
   84SOPE   H8S 7774   0.834   1.149   3.176
   84SOPE   C29 7775   0.673   1.266   3.251
   84SOPE   H91 7776   0.726   1.361   3.234
   84SOPE  C210 7777   0.582   1.252   3.353
   84SOPE  H101 7778   0.556   1.342   3.411
   84SOPE  C211 7779   0.515   1.130   3.397
   84SOPE  H11R 7780   0.498   1.060   3.312
   84SOPE  H11S 7781   0.422   1.155   3.454
   84SOPE  C212 7782   0.594   1.052   3.506
   84SOPE  H12R 7783   0.696   1.038   3.464
   84SOPE  H12S 7784   0.561   0.947   3.521
   84SOPE  C213 7785   0.599   1.120   3.645
   84SOPE  H13R 7786   0.495   1.135   3.682
   84SOPE  H13S 7787   0.642   1.223   3.645
   84SOPE  C214 7788   0.645   1.024   3.757
   84SOPE  H14R 7789   0.745   0.979   3.736
   84SOPE  H14S 7790   0.577   0.937   3.766
   84SOPE  C215 7791   0.647   1.091   3.898
   84SOPE  H15R 7792   0.649   1.006   3.970
   84SOPE  H15S 7793   0.555   1.152   3.916
   84SOPE  C216 7794   0.772   1.187   3.916
   84SOPE  H16R 7795   0.741   1.271   3.850
   84SOPE  H16S 7796   0.872   1.150   3.884
   84SOPE  C217 7797   0.770   1.243   4.057
   84SOPE  H17R 7798   0.793   1.167   4.135
   84SOPE  H17S 7799   0.667   1.277   4.082
   84SOPE  C218 7800   0.857   1.363   4.088
   84SOPE  H18R 7801   0.965   1.336   4.084
   84SOPE  H18S 7802   0.841   1.420   4.182
   84SOPE  H18T 7803   0.835   1.444   4.015
   84SOPE   C33 7804   0.172   0.339   3.100
   84SOPE   H3X 7805   0.156   0.231   3.082
   84SOPE   H3Y 7806   0.070   0.379   3.122
   84SOPE   C34 7807   0.262   0.351   3.222
   84SOPE   H4X 7808   0.255   0.454   3.265
   84SOPE   H4Y 7809   0.365   0.320   3.193
   84SOPE   C35 7810   0.214   0.267   3.339
   84SOPE   H5X 7811   0.199   0.164   3.299
   84SOPE   H5Y 7812   0.110   0.295   3.369
   84SOPE   C36 7813   0.305   0.268   3.466
   84SOPE   H6X 7814   0.343   0.370   3.490
   84SOPE   H6Y 7815   0.390   0.201   3.441
   84SOPE   C37 7816   0.246   0.199   3.587
   84SOPE   H7X 7817   0.228   0.094   3.556
   84SOPE   H7Y 7818   0.146   0.245   3.601
   84SOPE   C38 7819   0.321   0.193   3.723
   84SOPE   H8X 7820   0.368   0.286   3.762
   84SOPE   H8Y 7821   0.414   0.133   3.717
   84SOPE   C39 7822   0.231   0.122   3.838
   84SOPE   H9X 7823   0.211   0.015   3.812
   84SOPE   H9Y 7824   0.133   0.173   3.851
   84SOPE  C310 7825   0.306   0.120   3.970
   84SOPE  H10X 7826   0.329   0.226   3.996
   84SOPE  H10Y 7827   0.404   0.074   3.942
   84SOPE  C311 7828   0.231   0.046   4.087
   84SOPE  H11X 7829   0.248   6.817   4.066
   84SOPE  H11Y 7830   0.122   0.065   4.084
   84SOPE  C312 7831   0.293   0.072   4.230
   84SOPE  H12X 7832   0.289   0.178   4.263
   84SOPE  H12Y 7833   0.398   0.035   4.237
   84SOPE  C313 7834   0.223   6.877   4.346
   84SOPE  H13X 7835   0.208   6.775   4.305
   84SOPE  H13Y 7836   0.124   0.044   4.364
   84SOPE  C314 7837   0.306   6.863   4.475
   84SOPE  H14X 7838   0.331   0.085   4.511
   84SOPE  H14Y 7839   0.407   6.824   4.452
   84SOPE  C315 7840   0.226   6.772   4.579
   84SOPE  H15X 7841   0.300   6.728   4.650
   84SOPE  H15Y 7842   0.177   6.692   4.520
   84SOPE  C316 7843   0.111   6.850   4.641
   84SOPE  H16X 7844   0.056   0.022   4.560
   84SOPE  H16Y 7845   0.152   0.049   4.708
   84SOPE  C317 7846   0.008   6.764   4.721
   84SOPE  H17X 7847   0.059   6.720   4.809
   84SOPE  H17Y 7848   6.860   6.680   4.654
   84SOPE  C318 7849   6.760   6.851   4.763
   84SOPE  H18X 7850   6.724   0.021   4.670
   84SOPE  H18Y 7851   6.789   0.048   4.838
   84SOPE  H18Z 7852   6.682   6.783   4.803
   85SOPE     N 7853   5.872   5.036   2.352
   85SOPE   HN1 7854   5.894   5.065   2.449
   85SOPE   HN2 7855   5.966   5.015   2.313
   85SOPE   HN3 7856   5.827   5.110   2.294
   85SOPE   C12 7857   5.778   4.917   2.354
   85SOPE  H12A 7858   5.769   4.871   2.253
   85SOPE  H12B 7859   5.677   4.951   2.385
   85SOPE   C11 7860   5.831   4.810   2.447
   85SOPE  H11A 7861   5.853   4.850   2.548
   85SOPE  H11B 7862   5.927   4.762   2.418
   85SOPE     P 7863   5.711   4.574   2.405
   85SOPE   O13 7864   5.833   4.535   2.330
   85SOPE   O14 7865   5.590   4.571   2.318
   85SOPE   O12 7866   5.725   4.720   2.466
   85SOPE   O11 7867   5.691   4.465   2.525
   85SOPE    C1 7868   5.591   4.500   2.623
   85SOPE    HA 7869   5.560   4.605   2.637
   85SOPE    HB 7870   5.630   4.463   2.721
   85SOPE    C2 7871   5.459   4.429   2.589
   85SOPE    HS 7872   5.424   4.468   2.492
   85SOPE   O21 7873   5.370   4.472   2.689
   85SOPE   C21 7874   5.244   4.421   2.700
   85SOPE   O22 7875   5.194   4.356   2.607
   85SOPE   C22 7876   5.202   4.445   2.843
   85SOPE   H2R 7877   5.236   4.546   2.873
   85SOPE   H2S 7878   5.247   4.364   2.904
   85SOPE    C3 7879   5.468   4.271   2.579
   85SOPE    HX 7880   5.550   4.246   2.508
   85SOPE    HY 7881   5.374   4.227   2.539
   85SOPE   O31 7882   5.521   4.213   2.703
   85SOPE   C31 7883   5.442   4.143   2.778
   85SOPE   O32 7884   5.335   4.102   2.738
   85SOPE   C32 7885   5.489   4.122   2.919
   85SOPE   H2X 7886   5.548   4.214   2.941
   85SOPE   H2Y 7887   5.560   4.037   2.913
   85SOPE   C23 7888   5.055   4.438   2.863
   85SOPE   H3R 7889   5.015   4.336   2.845
   85SOPE   H3S 7890   5.009   4.507   2.789
   85SOPE   C24 7891   5.009   4.490   2.995
   85SOPE   H4R 7892   5.041   4.596   3.000
   85SOPE   H4S 7893   4.898   4.486   3.004
   85SOPE   C25 7894   5.076   4.426   3.114
   85SOPE   H5R 7895   5.076   4.316   3.102
   85SOPE   H5S 7896   5.185   4.444   3.115
   85SOPE   C26 7897   5.016   4.471   3.247
   85SOPE   H6R 7898   5.044   4.579   3.250
   85SOPE   H6S 7899   4.906   4.463   3.236
   85SOPE   C27 7900   5.068   4.404   3.368
   85SOPE   H7R 7901   5.030   4.299   3.365
   85SOPE   H7S 7902   5.179   4.406   3.371
   85SOPE   C28 7903   5.006   4.458   3.503
   85SOPE   H8R 7904   4.905   4.488   3.468
   85SOPE   H8S 7905   4.988   4.379   3.579
   85SOPE   C29 7906   5.096   4.572   3.553
   85SOPE   H91 7907   5.126   4.626   3.462
   85SOPE  C210 7908   5.140   4.602   3.677
   85SOPE  H101 7909   5.197   4.693   3.699
   85SOPE  C211 7910   5.090   4.523   3.799
   85SOPE  H11R 7911   5.185   4.504   3.854
   85SOPE  H11S 7912   5.057   4.419   3.775
   85SOPE  C212 7913   4.985   4.589   3.886
   85SOPE  H12R 7914   4.887   4.603   3.836
   85SOPE  H12S 7915   5.023   4.682   3.933
   85SOPE  C213 7916   4.947   4.500   4.005
   85SOPE  H13R 7917   5.039   4.481   4.063
   85SOPE  H13S 7918   4.898   4.404   3.979
   85SOPE  C214 7919   4.860   4.559   4.118
   85SOPE  H14R 7920   4.753   4.581   4.094
   85SOPE  H14S 7921   4.901   4.658   4.146
   85SOPE  C215 7922   4.864   4.473   4.250
   85SOPE  H15R 7923   4.966   4.439   4.280
   85SOPE  H15S 7924   4.811   4.378   4.229
   85SOPE  C216 7925   4.788   4.548   4.362
   85SOPE  H16R 7926   4.689   4.570   4.317
   85SOPE  H16S 7927   4.839   4.646   4.372
   85SOPE  C217 7928   4.769   4.486   4.503
   85SOPE  H17R 7929   4.708   4.556   4.565
   85SOPE  H17S 7930   4.857   4.481   4.570
   85SOPE  C218 7931   4.706   4.347   4.511
   85SOPE  H18R 7932   4.729   4.284   4.600
   85SOPE  H18S 7933   4.727   4.287   4.420
   85SOPE  H18T 7934   4.596   4.362   4.518
   85SOPE   C33 7935   5.369   4.099   3.015
   85SOPE   H3X 7936   5.316   4.010   2.975
   85SOPE   H3Y 7937   5.301   4.186   3.004
   85SOPE   C34 7938   5.414   4.079   3.155
   85SOPE   H4X 7939   5.458   4.176   3.188
   85SOPE   H4Y 7940   5.488   3.997   3.151
   85SOPE   C35 7941   5.302   4.044   3.257
   85SOPE   H5X 7942   5.258   3.943   3.249
   85SOPE   H5Y 7943   5.212   4.108   3.246
   85SOPE   C36 7944   5.365   4.054   3.399
   85SOPE   H6X 7945   5.401   4.158   3.415
   85SOPE   H6Y 7946   5.460   3.996   3.402
   85SOPE   C37 7947   5.272   4.012   3.510
   85SOPE   H7X 7948   5.329   3.994   3.604
   85SOPE   H7Y 7949   5.222   3.917   3.481
   85SOPE   C38 7950   5.166   4.122   3.524
   85SOPE   H8X 7951   5.101   4.102   3.437
   85SOPE   H8Y 7952   5.207   4.225   3.511
   85SOPE   C39 7953   5.089   4.099   3.649
   85SOPE   H9X 7954   5.047   3.997   3.640
   85SOPE   H9Y 7955   5.012   4.179   3.642
   85SOPE  C310 7956   5.165   4.126   3.772
   85SOPE  H10X 7957   5.220   4.222   3.763
   85SOPE  H10Y 7958   5.234   4.044   3.802
   85SOPE  C311 7959   5.065   4.136   3.890
   85SOPE  H11X 7960   5.005   4.043   3.882
   85SOPE  H11Y 7961   4.981   4.206   3.868
   85SOPE  C312 7962   5.142   4.140   4.026
   85SOPE  H12X 7963   5.211   4.227   4.030
   85SOPE  H12Y 7964   5.207   4.050   4.034
   85SOPE  C313 7965   5.064   4.133   4.151
   85SOPE  H13X 7966   5.009   4.038   4.138
   85SOPE  H13Y 7967   4.994   4.219   4.155
   85SOPE  C314 7968   5.156   4.141   4.273
   85SOPE  H14X 7969   5.192   4.246   4.285
   85SOPE  H14Y 7970   5.244   4.075   4.267
   85SOPE  C315 7971   5.076   4.104   4.396
   85SOPE  H15X 7972   5.035   4.002   4.375
   85SOPE  H15Y 7973   4.989   4.171   4.413
   85SOPE  C316 7974   5.153   4.120   4.526
   85SOPE  H16X 7975   5.080   4.146   4.606
   85SOPE  H16Y 7976   5.213   4.213   4.515
   85SOPE  C317 7977   5.242   4.003   4.555
   85SOPE  H17X 7978   5.322   3.992   4.479
   85SOPE  H17Y 7979   5.189   3.905   4.545
   85SOPE  C318 7980   5.302   4.007   4.695
   85SOPE  H18X 7981   5.228   3.994   4.777
   85SOPE  H18Y 7982   5.346   4.108   4.710
   85SOPE  H18Z 7983   5.382   3.930   4.709
   86SOPE     N 7984   5.109   1.097   2.244
   86SOPE   HN1 7985   5.174   1.126   2.167
   86SOPE   HN2 7986   5.102   0.993   2.249
   86SOPE   HN3 7987   5.016   1.142   2.246
   86SOPE   C12 7988   5.176   1.139   2.370
   86SOPE  H12A 7989   5.118   1.116   2.462
   86SOPE  H12B 7990   5.206   1.246   2.375
   86SOPE   C11 7991   5.311   1.061   2.382
   86SOPE  H11A 7992   5.361   1.088   2.478
   86SOPE  H11B 7993   5.375   1.099   2.300
   86SOPE     P 7994   5.415   0.817   2.433
   86SOPE   O13 7995   5.551   0.871   2.402
   86SOPE   O14 7996   5.374   0.684   2.376
   86SOPE   O12 7997   5.297   0.917   2.374
   86SOPE   O11 7998   5.408   0.808   2.586
   86SOPE    C1 7999   5.281   0.782   2.648
   86SOPE    HA 8000   5.299   0.724   2.741
   86SOPE    HB 8001   5.213   0.727   2.581
   86SOPE    C2 8002   5.218   0.913   2.700
   86SOPE    HS 8003   5.175   0.957   2.608
   86SOPE   O21 8004   5.313   0.992   2.772
   86SOPE   C21 8005   5.277   1.120   2.790
   86SOPE   O22 8006   5.179   1.171   2.742
   86SOPE   C22 8007   5.365   1.190   2.886
   86SOPE   H2R 8008   5.468   1.172   2.848
   86SOPE   H2S 8009   5.348   1.151   2.988
   86SOPE    C3 8010   5.106   0.863   2.792
   86SOPE    HX 8011   5.049   0.775   2.754
   86SOPE    HY 8012   5.029   0.943   2.790
   86SOPE   O31 8013   5.152   0.827   2.922
   86SOPE   C31 8014   5.135   0.705   2.965
   86SOPE   O32 8015   5.096   0.611   2.899
   86SOPE   C32 8016   5.181   0.699   3.108
   86SOPE   H2X 8017   5.132   0.615   3.161
   86SOPE   H2Y 8018   5.146   0.789   3.164
   86SOPE   C23 8019   5.341   1.346   2.891
   86SOPE   H3R 8020   5.249   1.363   2.952
   86SOPE   H3S 8021   5.327   1.399   2.794
   86SOPE   C24 8022   5.459   1.416   2.963
   86SOPE   H4R 8023   5.545   1.370   2.910
   86SOPE   H4S 8024   5.445   1.525   2.948
   86SOPE   C25 8025   5.476   1.390   3.117
   86SOPE   H5R 8026   5.391   1.442   3.167
   86SOPE   H5S 8027   5.477   1.283   3.147
   86SOPE   C26 8028   5.598   1.458   3.174
   86SOPE   H6R 8029   5.689   1.429   3.118
   86SOPE   H6S 8030   5.589   1.567   3.155
   86SOPE   C27 8031   5.629   1.433   3.323
   86SOPE   H7R 8032   5.531   1.446   3.373
   86SOPE   H7S 8033   5.670   1.330   3.317
   86SOPE   C28 8034   5.732   1.537   3.363
   86SOPE   H8R 8035   5.820   1.506   3.304
   86SOPE   H8S 8036   5.705   1.636   3.320
   86SOPE   C29 8037   5.749   1.562   3.511
   86SOPE   H91 8038   5.677   1.631   3.558
   86SOPE  C210 8039   5.855   1.519   3.582
   86SOPE  H101 8040   5.861   1.539   3.690
   86SOPE  C211 8041   5.962   1.436   3.529
   86SOPE  H11R 8042   6.057   1.493   3.535
   86SOPE  H11S 8043   5.944   1.394   3.427
   86SOPE  C212 8044   5.994   1.316   3.628
   86SOPE  H12R 8045   6.042   1.231   3.576
   86SOPE  H12S 8046   5.897   1.278   3.667
   86SOPE  C213 8047   6.074   1.359   3.755
   86SOPE  H13R 8048   6.030   1.443   3.812
   86SOPE  H13S 8049   6.174   1.393   3.722
   86SOPE  C214 8050   6.107   1.239   3.846
   86SOPE  H14R 8051   6.174   1.163   3.801
   86SOPE  H14S 8052   6.017   1.181   3.874
   86SOPE  C215 8053   6.174   1.279   3.973
   86SOPE  H15R 8054   6.262   1.342   3.948
   86SOPE  H15S 8055   6.221   1.189   4.019
   86SOPE  C216 8056   6.086   1.346   4.077
   86SOPE  H16R 8057   5.999   1.285   4.110
   86SOPE  H16S 8058   6.039   1.443   4.049
   86SOPE  C217 8059   6.165   1.360   4.213
   86SOPE  H17R 8060   6.248   1.432   4.196
   86SOPE  H17S 8061   6.216   1.265   4.241
   86SOPE  C218 8062   6.068   1.404   4.322
   86SOPE  H18R 8063   5.968   1.439   4.287
   86SOPE  H18S 8064   6.100   1.493   4.381
   86SOPE  H18T 8065   6.038   1.328   4.396
   86SOPE   C33 8066   5.336   0.681   3.115
   86SOPE   H3X 8067   5.378   0.781   3.092
   86SOPE   H3Y 8068   5.363   0.618   3.028
   86SOPE   C34 8069   5.401   0.630   3.249
   86SOPE   H4X 8070   5.506   0.664   3.249
   86SOPE   H4Y 8071   5.406   0.519   3.249
   86SOPE   C35 8072   5.351   0.697   3.380
   86SOPE   H5X 8073   5.273   0.627   3.417
   86SOPE   H5Y 8074   5.306   0.794   3.351
   86SOPE   C36 8075   5.467   0.703   3.482
   86SOPE   H6X 8076   5.546   0.773   3.447
   86SOPE   H6Y 8077   5.514   0.603   3.472
   86SOPE   C37 8078   5.430   0.739   3.630
   86SOPE   H7X 8079   5.357   0.662   3.663
   86SOPE   H7Y 8080   5.378   0.837   3.630
   86SOPE   C38 8081   5.554   0.736   3.723
   86SOPE   H8X 8082   5.625   0.819   3.700
   86SOPE   H8Y 8083   5.609   0.640   3.712
   86SOPE   C39 8084   5.514   0.739   3.869
   86SOPE   H9X 8085   5.591   0.703   3.941
   86SOPE   H9Y 8086   5.420   0.681   3.876
   86SOPE  C310 8087   5.463   0.874   3.911
   86SOPE  H10X 8088   5.377   0.918   3.856
   86SOPE  H10Y 8089   5.548   0.945   3.902
   86SOPE  C311 8090   5.415   0.882   4.056
   86SOPE  H11X 8091   5.493   0.839   4.124
   86SOPE  H11Y 8092   5.313   0.841   4.074
   86SOPE  C312 8093   5.412   1.029   4.103
   86SOPE  H12X 8094   5.359   1.095   4.031
   86SOPE  H12Y 8095   5.516   1.066   4.114
   86SOPE  C313 8096   5.335   1.056   4.229
   86SOPE  H13X 8097   5.361   0.972   4.296
   86SOPE  H13Y 8098   5.227   1.051   4.202
   86SOPE  C314 8099   5.351   1.201   4.279
   86SOPE  H14X 8100   5.294   1.272   4.215
   86SOPE  H14Y 8101   5.457   1.227   4.298
   86SOPE  C315 8102   5.288   1.208   4.420
   86SOPE  H15X 8103   5.346   1.146   4.491
   86SOPE  H15Y 8104   5.190   1.157   4.429
   86SOPE  C316 8105   5.298   1.350   4.471
   86SOPE  H16X 8106   5.380   1.406   4.422
   86SOPE  H16Y 8107   5.322   1.365   4.578
   86SOPE  C317 8108   5.170   1.421   4.414
   86SOPE  H17X 8109   5.087   1.384   4.477
   86SOPE  H17Y 8110   5.149   1.392   4.309
   86SOPE  C318 8111   5.181   1.581   4.409
   86SOPE  H18X 8112   5.282   1.616   4.382
   86SOPE  H18Y 8113   5.164   1.612   4.515
   86SOPE  H18Z 8114   5.098   1.626   4.350
   87SOPE     N 8115   6.236   0.508   2.412
   87SOPE   HN1 8116   6.244   0.412   2.374
   87SOPE   HN2 8117   6.155   0.552   2.363
   87SOPE   HN3 8118   6.319   0.558   2.376
   87SOPE   C12 8119   6.216   0.529   2.563
   87SOPE  H12A 8120   6.279   0.453   2.616
   87SOPE  H12B 8121   6.111   0.498   2.582
   87SOPE   C11 8122   6.253   0.664   2.622
   87SOPE  H11A 8123   6.363   0.665   2.638
   87SOPE  H11B 8124   6.204   0.679   2.720
   87SOPE     P 8125   6.284   0.903   2.508
   87SOPE   O13 8126   6.185   1.007   2.515
   87SOPE   O14 8127   6.363   0.892   2.384
   87SOPE   O12 8128   6.201   0.764   2.530
   87SOPE   O11 8129   6.393   0.914   2.625
   87SOPE    C1 8130   6.367   0.974   2.757
   87SOPE    HA 8131   6.264   1.008   2.777
   87SOPE    HB 8132   6.416   1.074   2.761
   87SOPE    C2 8133   6.412   0.888   2.874
   87SOPE    HS 8134   6.351   0.795   2.875
   87SOPE   O21 8135   6.405   0.959   3.003
   87SOPE   C21 8136   6.294   0.933   3.073
   87SOPE   O22 8137   6.195   0.883   3.029
   87SOPE   C22 8138   6.304   0.987   3.215
   87SOPE   H2R 8139   6.399   0.957   3.265
   87SOPE   H2S 8140   6.234   0.919   3.268
   87SOPE    C3 8141   6.567   0.842   2.854
   87SOPE    HX 8142   6.607   0.938   2.814
   87SOPE    HY 8143   6.566   0.754   2.787
   87SOPE   O31 8144   6.634   0.815   2.980
   87SOPE   C31 8145   6.636   0.684   3.020
   87SOPE   O32 8146   6.563   0.594   2.972
   87SOPE   C32 8147   6.746   0.654   3.124
   87SOPE   H2X 8148   6.820   0.737   3.124
   87SOPE   H2Y 8149   6.788   0.558   3.087
   87SOPE   C23 8150   6.270   1.130   3.243
   87SOPE   H3R 8151   6.168   1.166   3.215
   87SOPE   H3S 8152   6.322   1.199   3.172
   87SOPE   C24 8153   6.315   1.185   3.378
   87SOPE   H4R 8154   6.254   1.277   3.395
   87SOPE   H4S 8155   6.275   1.111   3.450
   87SOPE   C25 8156   6.459   1.215   3.412
   87SOPE   H5R 8157   6.525   1.125   3.407
   87SOPE   H5S 8158   6.488   1.289   3.335
   87SOPE   C26 8159   6.501   1.295   3.539
   87SOPE   H6R 8160   6.608   1.313   3.514
   87SOPE   H6S 8161   6.445   1.392   3.539
   87SOPE   C27 8162   6.491   1.223   3.679
   87SOPE   H7R 8163   6.437   1.281   3.757
   87SOPE   H7S 8164   6.430   1.132   3.662
   87SOPE   C28 8165   6.629   1.202   3.742
   87SOPE   H8R 8166   6.669   1.302   3.771
   87SOPE   H8S 8167   6.622   1.135   3.831
   87SOPE   C29 8168   6.734   1.127   3.657
   87SOPE   H91 8169   6.696   1.092   3.560
   87SOPE  C210 8170   6.858   1.113   3.688
   87SOPE  H101 8171   0.041   1.056   3.618
   87SOPE  C211 8172   0.050   1.167   3.804
   87SOPE  H11R 8173   6.861   1.226   3.868
   87SOPE  H11S 8174   0.133   1.232   3.768
   87SOPE  C212 8175   0.129   1.053   3.884
   87SOPE  H12R 8176   0.209   1.007   3.822
   87SOPE  H12S 8177   0.063   0.966   3.904
   87SOPE  C213 8178   0.192   1.107   4.008
   87SOPE  H13R 8179   0.113   1.142   4.077
   87SOPE  H13S 8180   0.254   1.192   3.973
   87SOPE  C214 8181   0.277   1.001   4.083
   87SOPE  H14R 8182   0.354   0.970   4.010
   87SOPE  H14S 8183   0.210   0.917   4.111
   87SOPE  C215 8184   0.338   1.057   4.224
   87SOPE  H15R 8185   0.364   0.968   4.286
   87SOPE  H15S 8186   0.251   1.109   4.268
   87SOPE  C216 8187   0.450   1.167   4.226
   87SOPE  H16R 8188   0.449   1.227   4.133
   87SOPE  H16S 8189   0.551   1.120   4.226
   87SOPE  C217 8190   0.441   1.265   4.347
   87SOPE  H17R 8191   0.429   1.203   4.438
   87SOPE  H17S 8192   0.350   1.329   4.336
   87SOPE  C218 8193   0.563   1.361   4.370
   87SOPE  H18R 8194   0.548   1.401   4.473
   87SOPE  H18S 8195   0.555   1.450   4.303
   87SOPE  H18T 8196   0.662   1.314   4.355
   87SOPE   C33 8197   6.672   0.638   3.255
   87SOPE   H3X 8198   6.594   0.559   3.247
   87SOPE   H3Y 8199   6.640   0.737   3.294
   87SOPE   C34 8200   6.767   0.579   3.364
   87SOPE   H4X 8201   6.866   0.627   3.353
   87SOPE   H4Y 8202   6.794   0.475   3.338
   87SOPE   C35 8203   6.722   0.570   3.508
   87SOPE   H5X 8204   6.612   0.560   3.512
   87SOPE   H5Y 8205   6.752   0.668   3.553
   87SOPE   C36 8206   6.777   0.457   3.587
   87SOPE   H6X 8207   0.006   0.449   3.568
   87SOPE   H6Y 8208   6.741   0.355   3.561
   87SOPE   C37 8209   6.734   0.469   3.732
   87SOPE   H7X 8210   6.623   0.480   3.735
   87SOPE   H7Y 8211   6.778   0.557   3.783
   87SOPE   C38 8212   6.764   0.345   3.819
   87SOPE   H8X 8213   6.868   0.307   3.831
   87SOPE   H8Y 8214   6.724   0.256   3.766
   87SOPE   C39 8215   6.697   0.355   3.963
   87SOPE   H9X 8216   6.592   0.386   3.943
   87SOPE   H9Y 8217   6.751   0.423   4.033
   87SOPE  C310 8218   6.684   0.215   4.023
   87SOPE  H10X 8219   6.782   0.179   4.061
   87SOPE  H10Y 8220   6.640   0.141   3.953
   87SOPE  C311 8221   6.597   0.225   4.146
   87SOPE  H11X 8222   6.498   0.268   4.116
   87SOPE  H11Y 8223   6.641   0.305   4.210
   87SOPE  C312 8224   6.584   0.101   4.232
   87SOPE  H12X 8225   6.688   0.068   4.254
   87SOPE  H12Y 8226   6.550   0.020   4.165
   87SOPE  C313 8227   6.499   0.125   4.361
   87SOPE  H13X 8228   6.409   0.186   4.335
   87SOPE  H13Y 8229   6.565   0.196   4.414
   87SOPE  C314 8230   6.473   6.876   4.446
   87SOPE  H14X 8231   6.565   6.819   4.469
   87SOPE  H14Y 8232   6.395   6.813   4.399
   87SOPE  C315 8233   6.416   0.028   4.582
   87SOPE  H15X 8234   6.478   0.098   4.641
   87SOPE  H15Y 8235   6.404   6.821   4.650
   87SOPE  C316 8236   6.284   0.098   4.574
   87SOPE  H16X 8237   6.212   0.046   4.506
   87SOPE  H16Y 8238   6.306   0.197   4.529
   87SOPE  C317 8239   6.209   0.119   4.705
   87SOPE  H17X 8240   6.283   0.177   4.766
   87SOPE  H17Y 8241   6.200   0.021   4.758
   87SOPE  C318 8242   6.079   0.184   4.682
   87SOPE  H18X 8243   6.005   0.123   4.627
   87SOPE  H18Y 8244   6.092   0.282   4.630
   87SOPE  H18Z 8245   6.027   0.208   4.777
   88SOPE     N 8246   1.027   5.676   2.276
   88SOPE   HN1 8247   1.006   5.590   2.330
   88SOPE   HN2 8248   1.058   5.656   2.179
   88SOPE   HN3 8249   1.103   5.733   2.318
   88SOPE   C12 8250   0.911   5.767   2.262
   88SOPE  H12A 8251   0.888   5.813   2.361
   88SOPE  H12B 8252   0.816   5.716   2.233
   88SOPE   C11 8253   0.930   5.870   2.150
   88SOPE  H11A 8254   0.968   5.811   2.063
   88SOPE  H11B 8255   1.015   5.938   2.169
   88SOPE     P 8256   0.766   6.085   2.174
   88SOPE   O13 8257   0.626   6.115   2.144
   88SOPE   O14 8258   0.868   6.180   2.119
   88SOPE   O12 8259   0.807   5.942   2.110
   88SOPE   O11 8260   0.785   6.057   2.333
   88SOPE    C1 8261   0.743   6.160   2.426
   88SOPE    HA 8262   0.634   6.154   2.443
   88SOPE    HB 8263   0.767   6.263   2.391
   88SOPE    C2 8264   0.809   6.127   2.560
   88SOPE    HS 8265   0.788   6.018   2.564
   88SOPE   O21 8266   0.767   6.215   2.665
   88SOPE   C21 8267   0.758   6.164   2.788
   88SOPE   O22 8268   0.760   6.044   2.809
   88SOPE   C22 8269   0.749   6.277   2.887
   88SOPE   H2R 8270   0.670   6.341   2.843
   88SOPE   H2S 8271   0.841   6.338   2.882
   88SOPE    C3 8272   0.966   6.122   2.547
   88SOPE    HX 8273   0.995   6.219   2.501
   88SOPE    HY 8274   0.994   6.048   2.470
   88SOPE   O31 8275   1.027   6.102   2.676
   88SOPE   C31 8276   1.059   5.978   2.704
   88SOPE   O32 8277   1.041   5.876   2.633
   88SOPE   C32 8278   1.133   5.977   2.843
   88SOPE   H2X 8279   1.052   6.018   2.907
   88SOPE   H2Y 8280   1.211   6.055   2.836
   88SOPE   C23 8281   0.721   6.209   3.021
   88SOPE   H3R 8282   0.633   6.142   3.020
   88SOPE   H3S 8283   0.697   6.290   3.093
   88SOPE   C24 8284   0.839   6.138   3.084
   88SOPE   H4R 8285   0.852   6.043   3.028
   88SOPE   H4S 8286   0.930   6.202   3.081
   88SOPE   C25 8287   0.802   6.090   3.222
   88SOPE   H5R 8288   0.765   6.175   3.283
   88SOPE   H5S 8289   0.724   6.012   3.214
   88SOPE   C26 8290   0.917   6.024   3.297
   88SOPE   H6R 8291   0.930   5.919   3.263
   88SOPE   H6S 8292   1.009   6.081   3.269
   88SOPE   C27 8293   0.903   6.044   3.449
   88SOPE   H7R 8294   0.898   6.154   3.459
   88SOPE   H7S 8295   0.809   6.002   3.491
   88SOPE   C28 8296   1.022   5.980   3.522
   88SOPE   H8R 8297   1.119   6.024   3.490
   88SOPE   H8S 8298   1.023   6.024   3.624
   88SOPE   C29 8299   1.029   5.833   3.543
   88SOPE   H91 8300   1.026   5.775   3.450
   88SOPE  C210 8301   1.042   5.768   3.659
   88SOPE  H101 8302   1.049   5.658   3.656
   88SOPE  C211 8303   1.080   5.817   3.797
   88SOPE  H11R 8304   1.010   5.765   3.866
   88SOPE  H11S 8305   1.064   5.927   3.795
   88SOPE  C212 8306   1.227   5.765   3.825
   88SOPE  H12R 8307   1.301   5.841   3.790
   88SOPE  H12S 8308   1.244   5.672   3.768
   88SOPE  C213 8309   1.247   5.730   3.978
   88SOPE  H13R 8310   1.218   5.816   4.042
   88SOPE  H13S 8311   1.357   5.714   3.989
   88SOPE  C214 8312   1.176   5.602   4.030
   88SOPE  H14R 8313   1.230   5.519   3.980
   88SOPE  H14S 8314   1.072   5.612   3.991
   88SOPE  C215 8315   1.179   5.605   4.183
   88SOPE  H15R 8316   1.274   5.652   4.217
   88SOPE  H15S 8317   1.180   5.500   4.221
   88SOPE  C216 8318   1.062   5.679   4.243
   88SOPE  H16R 8319   0.973   5.633   4.194
   88SOPE  H16S 8320   1.064   5.786   4.213
   88SOPE  C217 8321   1.074   5.671   4.393
   88SOPE  H17R 8322   1.154   5.739   4.429
   88SOPE  H17S 8323   1.081   5.569   4.439
   88SOPE  C218 8324   0.944   5.735   4.457
   88SOPE  H18R 8325   0.939   5.707   4.564
   88SOPE  H18S 8326   0.855   5.687   4.410
   88SOPE  H18T 8327   0.938   5.845   4.444
   88SOPE   C33 8328   1.188   5.851   2.912
   88SOPE   H3X 8329   1.278   5.823   2.853
   88SOPE   H3Y 8330   1.112   5.771   2.906
   88SOPE   C34 8331   1.237   5.887   3.048
   88SOPE   H4X 8332   1.151   5.917   3.111
   88SOPE   H4Y 8333   1.307   5.974   3.046
   88SOPE   C35 8334   1.293   5.770   3.125
   88SOPE   H5X 8335   1.398   5.757   3.092
   88SOPE   H5Y 8336   1.233   5.681   3.098
   88SOPE   C36 8337   1.293   5.773   3.281
   88SOPE   H6X 8338   1.192   5.808   3.311
   88SOPE   H6Y 8339   1.378   5.837   3.311
   88SOPE   C37 8340   1.301   5.631   3.347
   88SOPE   H7X 8341   1.379   5.579   3.288
   88SOPE   H7Y 8342   1.199   5.586   3.348
   88SOPE   C38 8343   1.335   5.650   3.497
   88SOPE   H8X 8344   1.281   5.575   3.558
   88SOPE   H8Y 8345   1.316   5.755   3.526
   88SOPE   C39 8346   1.481   5.628   3.524
   88SOPE   H9X 8347   1.543   5.699   3.465
   88SOPE   H9Y 8348   1.500   5.528   3.480
   88SOPE  C310 8349   1.524   5.645   3.671
   88SOPE  H10X 8350   1.462   5.578   3.735
   88SOPE  H10Y 8351   1.517   5.751   3.701
   88SOPE  C311 8352   1.667   5.608   3.696
   88SOPE  H11X 8353   1.721   5.699   3.663
   88SOPE  H11Y 8354   1.690   5.520   3.632
   88SOPE  C312 8355   1.707   5.573   3.842
   88SOPE  H12X 8356   1.629   5.508   3.889
   88SOPE  H12Y 8357   1.708   5.670   3.895
   88SOPE  C313 8358   1.844   5.504   3.852
   88SOPE  H13X 8359   1.868   5.469   3.750
   88SOPE  H13Y 8360   1.831   5.420   3.924
   88SOPE  C314 8361   1.966   5.586   3.904
   88SOPE  H14X 8362   1.977   5.597   4.013
   88SOPE  H14Y 8363   1.957   5.685   3.855
   88SOPE  C315 8364   2.100   5.540   3.832
   88SOPE  H15X 8365   2.083   5.518   3.725
   88SOPE  H15Y 8366   2.139   5.442   3.867
   88SOPE  C316 8367   2.207   5.647   3.868
   88SOPE  H16X 8368   2.158   5.746   3.860
   88SOPE  H16Y 8369   2.294   5.641   3.800
   88SOPE  C317 8370   2.258   5.643   4.015
   88SOPE  H17X 8371   2.176   5.611   4.082
   88SOPE  H17Y 8372   2.289   5.748   4.038
   88SOPE  C318 8373   2.373   5.548   4.035
   88SOPE  H18X 8374   2.365   5.466   3.960
   88SOPE  H18Y 8375   2.383   5.499   4.134
   88SOPE  H18Z 8376   2.471   5.593   4.006
   89SAPC     N 8377   5.319   2.903   6.980
   89SAPC   C12 8378   5.331   2.979   6.849
   89SAPC  H12A 8379   5.237   2.970   6.797
   89SAPC  H12B 8380   5.403   2.932   6.784
   89SAPC   C13 8381   5.250   2.991   7.084
   89SAPC  H13A 8382   5.148   3.018   7.061
   89SAPC  H13B 8383   5.238   2.945   7.181
   89SAPC  H13C 8384   5.304   3.083   7.096
   89SAPC   C14 8385   5.230   2.781   6.968
   89SAPC  H14A 8386   5.138   2.807   6.919
   89SAPC  H14B 8387   5.257   2.695   6.909
   89SAPC  H14C 8388   5.203   2.742   7.065
   89SAPC   C15 8389   5.450   2.868   7.054
   89SAPC  H15A 8390   5.430   2.830   7.153
   89SAPC  H15B 8391   5.505   2.794   6.998
   89SAPC  H15C 8392   5.506   2.959   7.067
   89SAPC   C11 8393   5.379   3.128   6.864
   89SAPC  H11A 8394   5.433   3.157   6.772
   89SAPC  H11B 8395   5.451   3.130   6.949
   89SAPC     P 8396   5.143   3.218   6.787
   89SAPC   O13 8397   5.052   3.113   6.837
   89SAPC   O14 8398   5.101   3.358   6.806
   89SAPC   O12 8399   5.266   3.218   6.889
   89SAPC   O11 8400   5.195   3.193   6.643
   89SAPC    C1 8401   5.277   3.286   6.581
   89SAPC    HA 8402   5.297   3.382   6.633
   89SAPC    HB 8403   5.380   3.247   6.586
   89SAPC    C2 8404   5.250   3.292   6.433
   89SAPC    HS 8405   5.140   3.305   6.425
   89SAPC   O21 8406   5.292   3.172   6.369
   89SAPC   C21 8407   5.208   3.131   6.278
   89SAPC   O22 8408   5.097   3.170   6.254
   89SAPC   C22 8409   5.281   3.020   6.206
   89SAPC   H2R 8410   5.363   3.067   6.147
   89SAPC   H2S 8411   5.330   2.952   6.279
   89SAPC    C3 8412   5.320   3.413   6.361
   89SAPC    HX 8413   5.426   3.425   6.393
   89SAPC    HY 8414   5.277   3.507   6.402
   89SAPC   O31 8415   5.316   3.399   6.218
   89SAPC   C31 8416   5.216   3.463   6.169
   89SAPC   O32 8417   5.145   3.536   6.229
   89SAPC   C32 8418   5.196   3.413   6.024
   89SAPC   H2X 8419   5.184   3.303   6.026
   89SAPC   H2Y 8420   5.287   3.434   5.963
   89SAPC   C23 8421   5.197   2.948   6.099
   89SAPC   H3R 8422   5.170   3.027   6.026
   89SAPC   H3S 8423   5.107   2.906   6.148
   89SAPC   C24 8424   5.273   2.850   6.019
   89SAPC   H4R 8425   5.328   2.794   6.098
   89SAPC   H4S 8426   5.335   2.904   5.944
   89SAPC   C25 8427   5.180   2.761   5.941
   89SAPC   H5R 8428   5.103   2.705   5.996
   89SAPC   C26 8429   5.176   2.754   5.810
   89SAPC   H6R 8430   5.109   2.684   5.759
   89SAPC   C27 8431   5.272   2.824   5.712
   89SAPC   H7R 8432   5.364   2.853   5.765
   89SAPC   H7S 8433   5.227   2.917   5.670
   89SAPC   C28 8434   5.317   2.751   5.588
   89SAPC   H8R 8435   5.384   2.672   5.624
   89SAPC   C29 8436   5.284   2.758   5.457
   89SAPC   H9R 8437   5.320   2.681   5.387
   89SAPC  C210 8438   5.186   2.852   5.391
   89SAPC  H10R 8439   5.239   2.945   5.363
   89SAPC  H10S 8440   5.110   2.881   5.467
   89SAPC  C211 8441   5.120   2.804   5.265
   89SAPC  H11R 8442   5.023   2.760   5.289
   89SAPC  C212 8443   5.167   2.790   5.141
   89SAPC  H12R 8444   5.092   2.748   5.072
   89SAPC  C213 8445   5.301   2.825   5.084
   89SAPC  H13R 8446   5.338   2.745   5.016
   89SAPC  H13S 8447   5.373   2.835   5.168
   89SAPC  C214 8448   5.285   2.961   5.019
   89SAPC  H14R 8449   5.247   3.037   5.089
   89SAPC  C215 8450   5.311   2.985   4.889
   89SAPC  H15R 8451   5.311   3.090   4.857
   89SAPC  C216 8452   5.366   2.885   4.791
   89SAPC  H16R 8453   5.353   2.776   4.804
   89SAPC  H16S 8454   5.475   2.905   4.779
   89SAPC  C217 8455   5.302   2.924   4.656
   89SAPC  H17R 8456   5.192   2.909   4.665
   89SAPC  H17S 8457   5.329   2.851   4.577
   89SAPC  C218 8458   5.330   3.062   4.597
   89SAPC  H18R 8459   5.440   3.065   4.579
   89SAPC  H18S 8460   5.295   3.138   4.669
   89SAPC  C219 8461   5.251   3.090   4.466
   89SAPC  H19R 8462   5.273   3.014   4.388
   89SAPC  H19S 8463   5.303   3.182   4.430
   89SAPC  C220 8464   5.106   3.118   4.478
   89SAPC  H20R 8465   5.055   3.123   4.380
   89SAPC  H20S 8466   5.078   3.209   4.536
   89SAPC  H20T 8467   5.053   3.039   4.536
   89SAPC   C33 8468   5.079   3.482   5.947
   89SAPC   H3X 8469   5.123   3.583   5.958
   89SAPC   H3Y 8470   4.989   3.482   6.011
   89SAPC   C34 8471   5.067   3.478   5.795
   89SAPC   H4X 8472   5.102   3.375   5.770
   89SAPC   H4Y 8473   5.138   3.549   5.747
   89SAPC   C35 8474   4.921   3.492   5.740
   89SAPC   H5X 8475   4.884   3.595   5.722
   89SAPC   H5Y 8476   4.862   3.450   5.825
   89SAPC   C36 8477   4.878   3.424   5.609
   89SAPC   H6X 8478   4.918   3.321   5.614
   89SAPC   H6Y 8479   4.923   3.483   5.526
   89SAPC   C37 8480   4.736   3.414   5.576
   89SAPC   H7X 8481   4.675   3.503   5.601
   89SAPC   H7Y 8482   4.698   3.334   5.644
   89SAPC   C38 8483   4.702   3.370   5.429
   89SAPC   H8X 8484   4.592   3.357   5.423
   89SAPC   H8Y 8485   4.756   3.273   5.414
   89SAPC   C39 8486   4.731   3.470   5.315
   89SAPC   H9X 8487   4.841   3.469   5.297
   89SAPC   H9Y 8488   4.701   3.570   5.353
   89SAPC  C310 8489   4.656   3.455   5.184
   89SAPC  H10X 8490   4.546   3.453   5.198
   89SAPC  H10Y 8491   4.681   3.354   5.145
   89SAPC  C311 8492   4.699   3.562   5.081
   89SAPC  H11X 8493   4.809   3.550   5.070
   89SAPC  H11Y 8494   4.685   3.669   5.107
   89SAPC  C312 8495   4.630   3.551   4.948
   89SAPC  H12X 8496   4.610   3.448   4.913
   89SAPC  H12Y 8497   4.702   3.588   4.872
   89SAPC  C313 8498   4.493   3.627   4.942
   89SAPC  H13X 8499   4.515   3.727   4.985
   89SAPC  H13Y 8500   4.414   3.571   4.996
   89SAPC  C314 8501   4.455   3.650   4.799
   89SAPC  H14X 8502   4.542   3.698   4.750
   89SAPC  H14Y 8503   4.388   3.738   4.799
   89SAPC  C315 8504   4.405   3.531   4.723
   89SAPC  H15X 8505   4.332   3.474   4.784
   89SAPC  H15Y 8506   4.488   3.461   4.701
   89SAPC  C316 8507   4.341   3.567   4.584
   89SAPC  H16X 8508   4.253   3.633   4.599
   89SAPC  H16Y 8509   4.293   3.474   4.548
   89SAPC  C317 8510   4.427   3.640   4.486
   89SAPC  H17X 8511   4.515   3.579   4.456
   89SAPC  H17Y 8512   4.455   3.736   4.533
   89SAPC  C318 8513   4.351   3.682   4.361
   89SAPC  H18X 8514   4.269   3.750   4.391
   89SAPC  H18Y 8515   4.320   3.590   4.306
   89SAPC  H18Z 8516   4.423   3.748   4.307
   90SAPC     N 8517   3.284   6.354   6.921
   90SAPC   C12 8518   3.316   6.293   6.785
   90SAPC  H12A 8519   3.287   6.188   6.790
   90SAPC  H12B 8520   3.422   6.290   6.768
   90SAPC   C13 8521   3.317   6.502   6.922
   90SAPC  H13A 8522   3.417   6.527   6.890
   90SAPC  H13B 8523   3.250   6.551   6.853
   90SAPC  H13C 8524   3.302   6.542   7.021
   90SAPC   C14 8525   3.141   6.338   6.947
   90SAPC  H14A 8526   3.115   6.388   7.040
   90SAPC  H14B 8527   3.071   6.395   6.888
   90SAPC  H14C 8528   3.121   6.232   6.947
   90SAPC   C15 8529   3.364   6.292   7.025
   90SAPC  H15A 8530   3.468   6.278   6.999
   90SAPC  H15B 8531   3.365   6.342   7.121
   90SAPC  H15C 8532   3.325   6.192   7.040
   90SAPC   C11 8533   3.255   6.360   6.664
   90SAPC  H11A 8534   3.146   6.378   6.678
   90SAPC  H11B 8535   3.266   6.299   6.572
   90SAPC     P 8536   3.469   6.491   6.578
   90SAPC   O13 8537   3.475   6.608   6.488
   90SAPC   O14 8538   3.558   6.504   6.696
   90SAPC   O12 8539   3.317   6.483   6.631
   90SAPC   O11 8540   3.491   6.359   6.490
   90SAPC    C1 8541   3.588   6.333   6.390
   90SAPC    HA 8542   3.628   6.421   6.336
   90SAPC    HB 8543   3.679   6.294   6.442
   90SAPC    C2 8544   3.536   6.207   6.305
   90SAPC    HS 8545   3.612   6.153   6.245
   90SAPC   O21 8546   3.439   6.268   6.217
   90SAPC   C21 8547   3.489   6.313   6.109
   90SAPC   O22 8548   3.610   6.321   6.088
   90SAPC   C22 8549   3.395   6.359   6.000
   90SAPC   H2R 8550   3.295   6.310   6.010
   90SAPC   H2S 8551   3.381   6.467   6.018
   90SAPC    C3 8552   3.459   6.109   6.393
   90SAPC    HX 8553   3.358   6.151   6.413
   90SAPC    HY 8554   3.511   6.088   6.489
   90SAPC   O31 8555   3.433   5.984   6.314
   90SAPC   C31 8556   3.538   5.904   6.288
   90SAPC   O32 8557   3.651   5.932   6.320
   90SAPC   C32 8558   3.487   5.799   6.193
   90SAPC   H2X 8559   3.386   5.767   6.224
   90SAPC   H2Y 8560   3.556   5.712   6.206
   90SAPC   C23 8561   3.444   6.332   5.855
   90SAPC   H3R 8562   3.538   6.391   5.848
   90SAPC   H3S 8563   3.372   6.378   5.784
   90SAPC   C24 8564   3.460   6.185   5.814
   90SAPC   H4R 8565   3.543   6.139   5.872
   90SAPC   H4S 8566   3.500   6.189   5.710
   90SAPC   C25 8567   3.341   6.103   5.829
   90SAPC   H5R 8568   3.294   6.113   5.928
   90SAPC   C26 8569   3.283   6.033   5.728
   90SAPC   H6R 8570   3.189   5.979   5.746
   90SAPC   C27 8571   3.339   6.010   5.583
   90SAPC   H7R 8572   3.319   5.905   5.552
   90SAPC   H7S 8573   3.450   6.012   5.589
   90SAPC   C28 8574   3.297   6.113   5.480
   90SAPC   H8R 8575   3.290   6.214   5.523
   90SAPC   C29 8576   3.270   6.094   5.352
   90SAPC   H9R 8577   3.233   6.178   5.292
   90SAPC  C210 8578   3.286   5.961   5.284
   90SAPC  H10R 8579   3.252   5.874   5.345
   90SAPC  H10S 8580   3.395   5.939   5.287
   90SAPC  C211 8581   3.215   5.954   5.150
   90SAPC  H11R 8582   3.111   5.919   5.157
   90SAPC  C212 8583   3.261   6.000   5.029
   90SAPC  H12R 8584   3.182   5.991   4.953
   90SAPC  C213 8585   3.391   6.071   4.991
   90SAPC  H13R 8586   3.427   6.038   4.891
   90SAPC  H13S 8587   3.468   6.036   5.062
   90SAPC  C214 8588   3.378   6.217   4.995
   90SAPC  H14R 8589   3.352   6.250   5.097
   90SAPC  C215 8590   3.373   6.297   4.882
   90SAPC  H15R 8591   3.362   6.406   4.894
   90SAPC  C216 8592   3.386   6.254   4.740
   90SAPC  H16R 8593   3.471   6.188   4.711
   90SAPC  H16S 8594   3.386   6.348   4.680
   90SAPC  C217 8595   3.258   6.181   4.677
   90SAPC  H17R 8596   3.166   6.240   4.698
   90SAPC  H17S 8597   3.256   6.085   4.733
   90SAPC  C218 8598   3.273   6.159   4.518
   90SAPC  H18R 8599   3.194   6.087   4.487
   90SAPC  H18S 8600   3.377   6.129   4.497
   90SAPC  C219 8601   3.240   6.284   4.431
   90SAPC  H19R 8602   3.280   6.283   4.327
   90SAPC  H19S 8603   3.282   6.371   4.485
   90SAPC  C220 8604   3.089   6.315   4.427
   90SAPC  H20R 8605   3.035   6.238   4.368
   90SAPC  H20S 8606   3.074   6.418   4.390
   90SAPC  H20T 8607   3.040   6.323   4.527
   90SAPC   C33 8608   3.494   5.846   6.040
   90SAPC   H3X 8609   3.597   5.881   6.019
   90SAPC   H3Y 8610   3.420   5.928   6.029
   90SAPC   C34 8611   3.459   5.725   5.947
   90SAPC   H4X 8612   3.450   5.782   5.852
   90SAPC   H4Y 8613   3.360   5.686   5.979
   90SAPC   C35 8614   3.573   5.621   5.938
   90SAPC   H5X 8615   3.599   5.569   6.033
   90SAPC   H5Y 8616   3.666   5.665   5.896
   90SAPC   C36 8617   3.532   5.520   5.831
   90SAPC   H6X 8618   3.452   5.451   5.864
   90SAPC   H6Y 8619   3.620   5.456   5.810
   90SAPC   C37 8620   3.481   5.587   5.697
   90SAPC   H7X 8621   3.538   5.676   5.663
   90SAPC   H7Y 8622   3.374   5.613   5.713
   90SAPC   C38 8623   3.482   5.497   5.572
   90SAPC   H8X 8624   3.407   5.417   5.586
   90SAPC   H8Y 8625   3.578   5.441   5.562
   90SAPC   C39 8626   3.450   5.587   5.454
   90SAPC   H9X 8627   3.543   5.646   5.441
   90SAPC   H9Y 8628   3.368   5.656   5.484
   90SAPC  C310 8629   3.417   5.513   5.319
   90SAPC  H10X 8630   3.323   5.454   5.319
   90SAPC  H10Y 8631   3.506   5.449   5.303
   90SAPC  C311 8632   3.408   5.614   5.201
   90SAPC  H11X 8633   3.509   5.660   5.200
   90SAPC  H11Y 8634   3.332   5.692   5.219
   90SAPC  C312 8635   3.375   5.547   5.061
   90SAPC  H12X 8636   3.265   5.535   5.056
   90SAPC  H12Y 8637   3.421   5.446   5.069
   90SAPC  C313 8638   3.431   5.617   4.933
   90SAPC  H13X 8639   3.530   5.659   4.961
   90SAPC  H13Y 8640   3.370   5.706   4.908
   90SAPC  C314 8641   3.445   5.537   4.798
   90SAPC  H14X 8642   3.352   5.477   4.782
   90SAPC  H14Y 8643   3.520   5.459   4.820
   90SAPC  C315 8644   3.475   5.634   4.688
   90SAPC  H15X 8645   3.568   5.688   4.715
   90SAPC  H15Y 8646   3.398   5.712   4.671
   90SAPC  C316 8647   3.493   5.565   4.554
   90SAPC  H16X 8648   3.557   5.475   4.564
   90SAPC  H16Y 8649   3.542   5.629   4.478
   90SAPC  C317 8650   3.357   5.514   4.496
   90SAPC  H17X 8651   3.293   5.602   4.473
   90SAPC  H17Y 8652   3.309   5.444   4.567
   90SAPC  C318 8653   3.385   5.434   4.361
   90SAPC  H18X 8654   3.461   5.483   4.296
   90SAPC  H18Y 8655   3.288   5.417   4.308
   90SAPC  H18Z 8656   3.428   5.335   4.385
   91SAPC     N 8657   1.308   6.018   6.728
   91SAPC   C12 8658   1.165   5.997   6.669
   91SAPC  H12A 8659   1.126   6.095   6.645
   91SAPC  H12B 8660   1.104   5.959   6.750
   91SAPC   C13 8661   1.365   5.900   6.786
   91SAPC  H13A 8662   1.355   5.823   6.710
   91SAPC  H13B 8663   1.470   5.912   6.806
   91SAPC  H13C 8664   1.322   5.872   6.881
   91SAPC   C14 8665   1.396   6.078   6.621
   91SAPC  H14A 8666   1.398   6.010   6.537
   91SAPC  H14B 8667   1.346   6.169   6.589
   91SAPC  H14C 8668   1.495   6.094   6.661
   91SAPC   C15 8669   1.292   6.124   6.837
   91SAPC  H15A 8670   1.234   6.079   6.916
   91SAPC  H15B 8671   1.394   6.145   6.867
   91SAPC  H15C 8672   1.248   6.211   6.789
   91SAPC   C11 8673   1.146   5.909   6.543
   91SAPC  H11A 8674   1.218   5.928   6.461
   91SAPC  H11B 8675   1.042   5.928   6.509
   91SAPC     P 8676   1.060   5.684   6.658
   91SAPC   O13 8677   1.117   5.552   6.700
   91SAPC   O14 8678   0.993   5.760   6.771
   91SAPC   O12 8679   1.171   5.774   6.594
   91SAPC   O11 8680   0.961   5.665   6.541
   91SAPC    C1 8681   0.995   5.591   6.426
   91SAPC    HA 8682   1.096   5.617   6.387
   91SAPC    HB 8683   0.989   5.485   6.460
   91SAPC    C2 8684   0.895   5.635   6.316
   91SAPC    HS 8685   0.914   5.573   6.225
   91SAPC   O21 8686   0.895   5.779   6.290
   91SAPC   C21 8687   0.959   5.813   6.181
   91SAPC   O22 8688   1.034   5.739   6.118
   91SAPC   C22 8689   0.926   5.962   6.139
   91SAPC   H2R 8690   0.919   5.966   6.029
   91SAPC   H2S 8691   0.827   5.996   6.176
   91SAPC    C3 8692   0.750   5.586   6.352
   91SAPC    HX 8693   0.714   5.629   6.448
   91SAPC    HY 8694   0.753   5.476   6.362
   91SAPC   O31 8695   0.660   5.606   6.241
   91SAPC   C31 8696   0.575   5.712   6.255
   91SAPC   O32 8697   0.567   5.774   6.357
   91SAPC   C32 8698   0.523   5.756   6.112
   91SAPC   H2X 8699   0.440   5.685   6.091
   91SAPC   H2Y 8700   0.612   5.745   6.047
   91SAPC   C23 8701   1.034   6.061   6.188
   91SAPC   H3R 8702   1.016   6.074   6.297
   91SAPC   H3S 8703   1.001   6.163   6.157
   91SAPC   C24 8704   1.177   6.029   6.142
   91SAPC   H4R 8705   1.178   6.050   6.033
   91SAPC   H4S 8706   1.210   5.923   6.154
   91SAPC   C25 8707   1.272   6.111   6.220
   91SAPC   H5R 8708   1.272   6.103   6.329
   91SAPC   C26 8709   1.357   6.198   6.169
   91SAPC   H6R 8710   1.421   6.251   6.240
   91SAPC   C27 8711   1.365   6.240   6.027
   91SAPC   H7R 8712   1.294   6.190   5.957
   91SAPC   H7S 8713   1.468   6.223   5.991
   91SAPC   C28 8714   1.334   6.390   6.021
   91SAPC   H8R 8715   1.287   6.429   6.112
   91SAPC   C29 8716   1.356   6.467   5.915
   91SAPC   H9R 8717   1.335   6.575   5.921
   91SAPC  C210 8718   1.395   6.429   5.777
   91SAPC  H10R 8719   1.319   6.378   5.715
   91SAPC  H10S 8720   1.475   6.353   5.794
   91SAPC  C211 8721   1.471   6.540   5.696
   91SAPC  H11R 8722   1.576   6.560   5.722
   91SAPC  C212 8723   1.419   6.606   5.595
   91SAPC  H12R 8724   1.494   6.667   5.543
   91SAPC  C213 8725   1.286   6.584   5.538
   91SAPC  H13R 8726   1.203   6.607   5.609
   91SAPC  H13S 8727   1.281   6.473   5.542
   91SAPC  C214 8728   1.251   6.647   5.406
   91SAPC  H14R 8729   1.288   6.750   5.394
   91SAPC  C215 8730   1.180   6.592   5.309
   91SAPC  H15R 8731   1.173   6.656   5.220
   91SAPC  C216 8732   1.129   6.449   5.309
   91SAPC  H16R 8733   1.165   6.385   5.393
   91SAPC  H16S 8734   1.164   6.394   5.219
   91SAPC  C217 8735   0.974   6.465   5.311
   91SAPC  H17R 8736   0.950   6.547   5.382
   91SAPC  H17S 8737   0.923   6.370   5.341
   91SAPC  C218 8738   0.921   6.508   5.169
   91SAPC  H18R 8739   0.998   6.489   5.091
   91SAPC  H18S 8740   0.903   6.618   5.167
   91SAPC  C219 8741   0.785   6.448   5.114
   91SAPC  H19R 8742   0.798   6.357   5.052
   91SAPC  H19S 8743   0.734   6.531   5.061
   91SAPC  C220 8744   0.684   6.413   5.230
   91SAPC  H20R 8745   0.583   6.390   5.189
   91SAPC  H20S 8746   0.678   6.505   5.292
   91SAPC  H20T 8747   0.719   6.331   5.296
   91SAPC   C33 8748   0.462   5.903   6.105
   91SAPC   H3X 8749   0.550   5.969   6.121
   91SAPC   H3Y 8750   0.391   5.913   6.189
   91SAPC   C34 8751   0.398   5.946   5.965
   91SAPC   H4X 8752   0.353   6.047   5.956
   91SAPC   H4Y 8753   0.318   5.872   5.942
   91SAPC   C35 8754   0.501   5.921   5.848
   91SAPC   H5X 8755   0.598   5.882   5.886
   91SAPC   H5Y 8756   0.528   6.022   5.813
   91SAPC   C36 8757   0.447   5.854   5.723
   91SAPC   H6X 8758   0.530   5.877   5.653
   91SAPC   H6Y 8759   0.355   5.911   5.700
   91SAPC   C37 8760   0.420   5.703   5.742
   91SAPC   H7X 8761   0.349   5.680   5.824
   91SAPC   H7Y 8762   0.516   5.653   5.766
   91SAPC   C38 8763   0.367   5.634   5.613
   91SAPC   H8X 8764   0.282   5.693   5.575
   91SAPC   H8Y 8765   0.334   5.529   5.628
   91SAPC   C39 8766   0.468   5.641   5.490
   91SAPC   H9X 8767   0.566   5.615   5.536
   91SAPC   H9Y 8768   0.473   5.741   5.442
   91SAPC  C310 8769   0.437   5.547   5.375
   91SAPC  H10X 8770   0.391   5.454   5.414
   91SAPC  H10Y 8771   0.538   5.519   5.337
   91SAPC  C311 8772   0.358   5.619   5.261
   91SAPC  H11X 8773   0.401   5.716   5.227
   91SAPC  H11Y 8774   0.270   5.650   5.321
   91SAPC  C312 8775   0.301   5.538   5.149
   91SAPC  H12X 8776   0.229   5.606   5.099
   91SAPC  H12Y 8777   0.243   5.446   5.172
   91SAPC  C313 8778   0.403   5.495   5.047
   91SAPC  H13X 8779   0.354   5.426   4.975
   91SAPC  H13Y 8780   0.480   5.441   5.106
   91SAPC  C314 8781   0.482   5.608   4.977
   91SAPC  H14X 8782   0.513   5.691   5.043
   91SAPC  H14Y 8783   0.426   5.662   4.897
   91SAPC  C315 8784   0.621   5.575   4.907
   91SAPC  H15X 8785   0.619   5.470   4.871
   91SAPC  H15Y 8786   0.696   5.594   4.987
   91SAPC  C316 8787   0.660   5.668   4.797
   91SAPC  H16X 8788   0.767   5.651   4.773
   91SAPC  H16Y 8789   0.641   5.769   4.839
   91SAPC  C317 8790   0.578   5.645   4.668
   91SAPC  H17X 8791   0.590   5.729   4.596
   91SAPC  H17Y 8792   0.467   5.638   4.678
   91SAPC  C318 8793   0.626   5.523   4.590
   91SAPC  H18X 8794   0.631   5.430   4.651
   91SAPC  H18Y 8795   0.726   5.554   4.552
   91SAPC  H18Z 8796   0.563   5.503   4.501
   92SAPC     N 8797   6.608   4.704   6.875
   92SAPC   C12 8798   6.697   4.774   6.778
   92SAPC  H12A 8799   6.713   4.714   6.689
   92SAPC  H12B 8800   6.791   4.788   6.830
   92SAPC   C13 8801   6.674   4.584   6.933
   92SAPC  H13A 8802   6.776   4.597   6.967
   92SAPC  H13B 8803   6.613   4.536   7.008
   92SAPC  H13C 8804   6.673   4.507   6.857
   92SAPC   C14 8805   6.581   4.797   6.994
   92SAPC  H14A 8806   6.666   4.813   7.058
   92SAPC  H14B 8807   6.549   4.894   6.957
   92SAPC  H14C 8808   6.495   4.761   7.049
   92SAPC   C15 8809   6.480   4.672   6.807
   92SAPC  H15A 8810   6.395   4.647   6.870
   92SAPC  H15B 8811   6.448   4.766   6.764
   92SAPC  H15C 8812   6.498   4.601   6.728
   92SAPC   C11 8813   6.660   4.915   6.736
   92SAPC  H11A 8814   6.551   4.929   6.716
   92SAPC  H11B 8815   6.704   4.944   6.638
   92SAPC     P 8816   6.843   5.057   6.856
   92SAPC   O13 8817   6.854   5.145   6.973
   92SAPC   O14 8818   0.053   4.938   6.862
   92SAPC   O12 8819   6.700   5.008   6.843
   92SAPC   O11 8820   6.874   5.136   6.722
   92SAPC    C1 8821   6.772   5.228   6.687
   92SAPC    HA 8822   6.679   5.172   6.664
   92SAPC    HB 8823   6.745   5.304   6.764
   92SAPC    C2 8824   6.807   5.321   6.566
   92SAPC    HS 8825   6.729   5.400   6.553
   92SAPC   O21 8826   6.820   5.244   6.442
   92SAPC   C21 8827   6.712   5.205   6.371
   92SAPC   O22 8828   6.599   5.206   6.413
   92SAPC   C22 8829   6.758   5.151   6.239
   92SAPC   H2R 8830   6.830   5.224   6.194
   92SAPC   H2S 8831   6.823   5.065   6.265
   92SAPC    C3 8832   0.061   5.393   6.587
   92SAPC    HX 8833   0.137   5.313   6.602
   92SAPC    HY 8834   0.057   5.446   6.684
   92SAPC   O31 8835   0.106   5.484   6.478
   92SAPC   C31 8836   0.055   5.607   6.494
   92SAPC   O32 8837   6.868   5.644   6.586
   92SAPC   C32 8838   0.093   5.698   6.374
   92SAPC   H2X 8839   0.143   5.791   6.409
   92SAPC   H2Y 8840   0.001   5.734   6.323
   92SAPC   C23 8841   6.646   5.115   6.138
   92SAPC   H3R 8842   6.592   5.198   6.087
   92SAPC   H3S 8843   6.565   5.059   6.189
   92SAPC   C24 8844   6.711   5.040   6.022
   92SAPC   H4R 8845   6.757   4.952   6.073
   92SAPC   H4S 8846   6.790   5.099   5.972
   92SAPC   C25 8847   6.612   4.989   5.918
   92SAPC   H5R 8848   6.532   4.928   5.963
   92SAPC   C26 8849   6.598   5.027   5.790
   92SAPC   H6R 8850   6.516   4.985   5.731
   92SAPC   C27 8851   6.687   5.121   5.710
   92SAPC   H7R 8852   6.791   5.142   5.746
   92SAPC   H7S 8853   6.640   5.222   5.703
   92SAPC   C28 8854   6.699   5.061   5.571
   92SAPC   H8R 8855   6.776   4.983   5.567
   92SAPC   C29 8856   6.622   5.090   5.457
   92SAPC   H9R 8857   6.656   5.035   5.368
   92SAPC  C210 8858   6.521   5.196   5.437
   92SAPC  H10R 8859   6.558   5.258   5.352
   92SAPC  H10S 8860   6.527   5.265   5.524
   92SAPC  C211 8861   6.384   5.147   5.422
   92SAPC  H11R 8862   6.349   5.100   5.515
   92SAPC  C212 8863   6.307   5.160   5.306
   92SAPC  H12R 8864   6.210   5.109   5.297
   92SAPC  C213 8865   6.346   5.233   5.171
   92SAPC  H13R 8866   6.419   5.313   5.196
   92SAPC  H13S 8867   6.262   5.285   5.121
   92SAPC  C214 8868   6.413   5.138   5.079
   92SAPC  H14R 8869   6.477   5.068   5.137
   92SAPC  C215 8870   6.392   5.128   4.949
   92SAPC  H15R 8871   6.442   5.042   4.903
   92SAPC  C216 8872   6.311   5.213   4.853
   92SAPC  H16R 8873   6.374   5.296   4.815
   92SAPC  H16S 8874   6.228   5.256   4.913
   92SAPC  C217 8875   6.263   5.133   4.729
   92SAPC  H17R 8876   6.155   5.121   4.753
   92SAPC  H17S 8877   6.314   5.035   4.721
   92SAPC  C218 8878   6.293   5.201   4.594
   92SAPC  H18R 8879   6.396   5.243   4.598
   92SAPC  H18S 8880   6.211   5.275   4.579
   92SAPC  C219 8881   6.299   5.112   4.467
   92SAPC  H19R 8882   6.195   5.075   4.450
   92SAPC  H19S 8883   6.355   5.020   4.496
   92SAPC  C220 8884   6.357   5.181   4.344
   92SAPC  H20R 8885   6.297   5.272   4.324
   92SAPC  H20S 8886   6.357   5.110   4.258
   92SAPC  H20T 8887   6.462   5.216   4.352
   92SAPC   C33 8888   0.170   5.628   6.260
   92SAPC   H3X 8889   0.245   5.557   6.301
   92SAPC   H3Y 8890   0.231   5.707   6.212
   92SAPC   C34 8891   0.087   5.554   6.160
   92SAPC   H4X 8892   0.002   5.614   6.120
   92SAPC   H4Y 8893   0.026   5.487   6.224
   92SAPC   C35 8894   0.155   5.483   6.044
   92SAPC   H5X 8895   0.190   5.383   6.077
   92SAPC   H5Y 8896   0.243   5.549   6.026
   92SAPC   C36 8897   0.068   5.469   5.920
   92SAPC   H6X 8898   0.053   5.570   5.877
   92SAPC   H6Y 8899   6.855   5.415   5.948
   92SAPC   C37 8900   0.129   5.381   5.803
   92SAPC   H7X 8901   0.117   5.279   5.845
   92SAPC   H7Y 8902   0.234   5.412   5.784
   92SAPC   C38 8903   0.067   5.402   5.665
   92SAPC   H8X 8904   0.099   5.505   5.639
   92SAPC   H8Y 8905   6.835   5.400   5.661
   92SAPC   C39 8906   0.128   5.299   5.570
   92SAPC   H9X 8907   0.108   5.197   5.608
   92SAPC   H9Y 8908   0.239   5.305   5.569
   92SAPC  C310 8909   0.059   5.327   5.435
   92SAPC  H10X 8910   0.088   5.428   5.397
   92SAPC  H10Y 8911   6.829   5.318   5.452
   92SAPC  C311 8912   0.085   5.211   5.339
   92SAPC  H11X 8913   0.064   5.120   5.399
   92SAPC  H11Y 8914   0.195   5.210   5.326
   92SAPC  C312 8915   0.020   5.223   5.195
   92SAPC  H12X 8916   0.050   5.314   5.140
   92SAPC  H12Y 8917   6.793   5.242   5.219
   92SAPC  C313 8918   0.048   5.107   5.102
   92SAPC  H13X 8919   0.013   5.126   4.998
   92SAPC  H13Y 8920   6.866   5.022   5.136
   92SAPC  C314 8921   0.202   5.084   5.073
   92SAPC  H14X 8922   0.242   5.038   5.166
   92SAPC  H14Y 8923   0.244   5.184   5.052
   92SAPC  C315 8924   0.236   4.993   4.954
   92SAPC  H15X 8925   0.207   5.051   4.863
   92SAPC  H15Y 8926   0.175   4.901   4.946
   92SAPC  C316 8927   0.381   4.950   4.936
   92SAPC  H16X 8928   0.394   4.896   4.840
   92SAPC  H16Y 8929   0.401   4.889   5.027
   92SAPC  C317 8930   0.492   5.063   4.958
   92SAPC  H17X 8931   0.591   5.015   4.967
   92SAPC  H17Y 8932   0.477   5.108   5.058
   92SAPC  C318 8933   0.503   5.168   4.840
   92SAPC  H18X 8934   0.481   5.134   4.736
   92SAPC  H18Y 8935   0.607   5.206   4.836
   92SAPC  H18Z 8936   0.434   5.253   4.861
   93SAPC     N 8937   0.969   6.812   6.390
   93SAPC   C12 8938   1.099   6.854   6.317
   93SAPC  H12A 8939   1.132   0.066   6.366
   93SAPC  H12B 8940   1.070   6.871   6.215
   93SAPC   C13 8941   0.999   6.801   6.533
   93SAPC  H13A 8942   0.909   6.792   6.592
   93SAPC  H13B 8943   1.052   6.711   6.558
   93SAPC  H13C 8944   1.042   0.009   6.578
   93SAPC   C14 8945   0.854   0.022   6.355
   93SAPC  H14A 8946   0.871   0.117   6.402
   93SAPC  H14B 8947   0.847   0.026   6.247
   93SAPC  H14C 8948   0.761   6.859   6.391
   93SAPC   C15 8949   0.923   6.680   6.344
   93SAPC  H15A 8950   0.873   6.675   6.248
   93SAPC  H15B 8951   1.004   6.608   6.337
   93SAPC  H15C 8952   0.843   6.644   6.407
   93SAPC   C11 8953   1.234   6.762   6.315
   93SAPC  H11A 8954   1.309   6.802   6.244
   93SAPC  H11B 8955   1.201   6.663   6.276
   93SAPC     P 8956   1.360   6.873   6.513
   93SAPC   O13 8957   1.263   0.106   6.541
   93SAPC   O14 8958   1.448   6.838   6.622
   93SAPC   O12 8959   1.292   6.744   6.450
   93SAPC   O11 8960   1.451   0.044   6.397
   93SAPC    C1 8961   1.572   6.840   6.369
   93SAPC    HA 8962   1.651   6.859   6.444
   93SAPC    HB 8963   1.560   6.730   6.378
   93SAPC    C2 8964   1.642   6.865   6.233
   93SAPC    HS 8965   1.668   0.093   6.237
   93SAPC   O21 8966   1.553   6.840   6.132
   93SAPC   C21 8967   1.594   0.019   6.016
   93SAPC   O22 8968   1.688   0.091   6.006
   93SAPC   C22 8969   1.491   6.872   5.905
   93SAPC   H2R 8970   1.549   6.808   5.834
   93SAPC   H2S 8971   1.398   6.824   5.941
   93SAPC    C3 8972   1.785   6.792   6.221
   93SAPC    HX 8973   1.837   6.830   6.312
   93SAPC    HY 8974   1.833   6.832   6.129
   93SAPC   O31 8975   1.782   6.645   6.217
   93SAPC   C31 8976   1.756   6.594   6.098
   93SAPC   O32 8977   1.735   6.654   5.993
   93SAPC   C32 8978   1.768   6.441   6.108
   93SAPC   H2X 8979   1.698   6.405   6.186
   93SAPC   H2Y 8980   1.872   6.428   6.143
   93SAPC   C23 8981   1.454   0.121   5.823
   93SAPC   H3R 8982   1.431   0.213   5.881
   93SAPC   H3S 8983   1.352   0.095   5.788
   93SAPC   C24 8984   1.545   0.139   5.703
   93SAPC   H4R 8985   1.543   0.045   5.645
   93SAPC   H4S 8986   1.641   0.158   5.756
   93SAPC   C25 8987   1.500   0.256   5.626
   93SAPC   H5R 8988   1.463   0.342   5.684
   93SAPC   C26 8989   1.482   0.258   5.493
   93SAPC   H6R 8990   1.430   0.344   5.449
   93SAPC   C27 8991   1.521   0.153   5.392
   93SAPC   H7R 8992   1.473   0.053   5.405
   93SAPC   H7S 8993   1.628   0.135   5.415
   93SAPC   C28 8994   1.521   0.216   5.257
   93SAPC   H8R 8995   1.592   0.297   5.239
   93SAPC   C29 8996   1.431   0.189   5.159
   93SAPC   H9R 8997   1.432   0.254   5.070
   93SAPC  C210 8998   1.315   0.093   5.180
   93SAPC  H10R 8999   1.217   0.143   5.193
   93SAPC  H10S 9000   1.320   0.034   5.274
   93SAPC  C211 9001   1.300   6.868   5.079
   93SAPC  H11R 9002   1.322   6.763   5.106
   93SAPC  C212 9003   1.254   0.003   4.953
   93SAPC  H12R 9004   1.263   6.794   4.889
   93SAPC  C213 9005   1.180   0.127   4.897
   93SAPC  H13R 9006   1.171   0.210   4.971
   93SAPC  H13S 9007   1.073   0.101   4.883
   93SAPC  C214 9008   1.247   0.175   4.771
   93SAPC  H14R 9009   1.344   0.225   4.784
   93SAPC  C215 9010   1.204   0.160   4.644
   93SAPC  H15R 9011   1.258   0.204   4.559
   93SAPC  C216 9012   1.076   0.088   4.596
   93SAPC  H16R 9013   1.003   0.164   4.562
   93SAPC  H16S 9014   1.030   0.017   4.668
   93SAPC  C217 9015   1.114   0.004   4.464
   93SAPC  H17R 9016   1.177   6.801   4.502
   93SAPC  H17S 9017   1.162   0.068   4.388
   93SAPC  C218 9018   0.993   6.812   4.392
   93SAPC  H18R 9019   0.955   6.747   4.474
   93SAPC  H18S 9020   1.024   6.754   4.302
   93SAPC  C219 9021   0.882   0.031   4.350
   93SAPC  H19R 9022   0.933   0.107   4.288
   93SAPC  H19S 9023   0.837   0.086   4.436
   93SAPC  C220 9024   0.764   6.854   4.276
   93SAPC  H20R 9025   0.795   6.783   4.195
   93SAPC  H20S 9026   0.694   0.055   4.245
   93SAPC  H20T 9027   0.703   6.789   4.341
   93SAPC   C33 9028   1.734   6.364   5.976
   93SAPC   H3X 9029   1.650   6.418   5.926
   93SAPC   H3Y 9030   1.703   6.263   6.009
   93SAPC   C34 9031   1.859   6.342   5.881
   93SAPC   H4X 9032   1.924   6.260   5.920
   93SAPC   H4Y 9033   1.905   6.443   5.881
   93SAPC   C35 9034   1.819   6.327   5.732
   93SAPC   H5X 9035   1.916   6.332   5.677
   93SAPC   H5Y 9036   1.764   6.412   5.687
   93SAPC   C36 9037   1.742   6.199   5.710
   93SAPC   H6X 9038   1.661   6.186   5.783
   93SAPC   H6Y 9039   1.810   6.112   5.721
   93SAPC   C37 9040   1.668   6.196   5.570
   93SAPC   H7X 9041   1.593   6.277   5.584
   93SAPC   H7Y 9042   1.611   6.101   5.559
   93SAPC   C38 9043   1.758   6.225   5.457
   93SAPC   H8X 9044   1.842   6.152   5.461
   93SAPC   H8Y 9045   1.797   6.329   5.470
   93SAPC   C39 9046   1.697   6.220   5.314
   93SAPC   H9X 9047   1.663   6.116   5.295
   93SAPC   H9Y 9048   1.780   6.251   5.247
   93SAPC  C310 9049   1.571   6.316   5.302
   93SAPC  H10X 9050   1.599   6.417   5.338
   93SAPC  H10Y 9051   1.482   6.277   5.356
   93SAPC  C311 9052   1.534   6.341   5.153
   93SAPC  H11X 9053   1.450   6.413   5.151
   93SAPC  H11Y 9054   1.491   6.243   5.122
   93SAPC  C312 9055   1.637   6.398   5.066
   93SAPC  H12X 9056   1.725   6.331   5.069
   93SAPC  H12Y 9057   1.675   6.493   5.109
   93SAPC  C313 9058   1.589   6.424   4.920
   93SAPC  H13X 9059   1.559   6.326   4.877
   93SAPC  H13Y 9060   1.676   6.473   4.870
   93SAPC  C314 9061   1.463   6.516   4.906
   93SAPC  H14X 9062   1.502   6.616   4.934
   93SAPC  H14Y 9063   1.386   6.473   4.974
   93SAPC  C315 9064   1.412   6.510   4.760
   93SAPC  H15X 9065   1.415   6.409   4.715
   93SAPC  H15Y 9066   1.475   6.565   4.688
   93SAPC  C316 9067   1.269   6.568   4.733
   93SAPC  H16X 9068   1.279   6.678   4.736
   93SAPC  H16Y 9069   1.215   6.559   4.830
   93SAPC  C317 9070   1.209   6.505   4.602
   93SAPC  H17X 9071   1.266   6.416   4.566
   93SAPC  H17Y 9072   1.205   6.585   4.525
   93SAPC  C318 9073   1.066   6.460   4.628
   93SAPC  H18X 9074   0.994   6.538   4.663
   93SAPC  H18Y 9075   1.077   6.388   4.712
   93SAPC  H18Z 9076   1.019   6.427   4.533
   94SAPC     N 9077   0.957   5.207   6.769
   94SAPC   C12 9078   0.827   5.287   6.776
   94SAPC  H12A 9079   0.859   5.388   6.792
   94SAPC  H12B 9080   0.772   5.253   6.863
   94SAPC   C13 9081   0.935   5.073   6.705
   94SAPC  H13A 9082   1.029   5.021   6.714
   94SAPC  H13B 9083   0.859   5.012   6.752
   94SAPC  H13C 9084   0.900   5.077   6.603
   94SAPC   C14 9085   1.044   5.279   6.674
   94SAPC  H14A 9086   1.136   5.227   6.653
   94SAPC  H14B 9087   1.003   5.295   6.575
   94SAPC  H14C 9088   1.077   5.374   6.714
   94SAPC   C15 9089   1.017   5.185   6.906
   94SAPC  H15A 9090   0.946   5.151   6.980
   94SAPC  H15B 9091   1.094   5.110   6.910
   94SAPC  H15C 9092   1.064   5.276   6.941
   94SAPC   C11 9093   0.739   5.289   6.646
   94SAPC  H11A 9094   0.697   5.188   6.627
   94SAPC  H11B 9095   0.797   5.312   6.555
   94SAPC     P 9096   0.489   5.323   6.700
   94SAPC   O13 9097   0.502   5.218   6.800
   94SAPC   O14 9098   0.404   5.437   6.738
   94SAPC   O12 9099   0.631   5.384   6.672
   94SAPC   O11 9100   0.440   5.264   6.562
   94SAPC    C1 9101   0.476   5.330   6.442
   94SAPC    HA 9102   0.424   5.428   6.440
   94SAPC    HB 9103   0.587   5.340   6.439
   94SAPC    C2 9104   0.421   5.262   6.316
   94SAPC    HS 9105   0.469   5.162   6.318
   94SAPC   O21 9106   0.455   5.331   6.198
   94SAPC   C21 9107   0.589   5.314   6.168
   94SAPC   O22 9108   0.670   5.249   6.236
   94SAPC   C22 9109   0.618   5.348   6.023
   94SAPC   H2R 9110   0.582   5.262   5.964
   94SAPC   H2S 9111   0.554   5.436   5.999
   94SAPC    C3 9112   0.272   5.216   6.316
   94SAPC    HX 9113   0.217   5.310   6.339
   94SAPC    HY 9114   0.258   5.150   6.404
   94SAPC   O31 9115   0.236   5.153   6.188
   94SAPC   C31 9116   0.309   5.042   6.154
   94SAPC   O32 9117   0.392   4.986   6.221
   94SAPC   C32 9118   0.247   4.988   6.027
   94SAPC   H2X 9119   0.277   5.058   5.946
   94SAPC   H2Y 9120   0.136   4.987   6.037
   94SAPC   C23 9121   0.765   5.378   5.997
   94SAPC   H3R 9122   0.834   5.304   6.045
   94SAPC   H3S 9123   0.782   5.472   6.053
   94SAPC   C24 9124   0.797   5.396   5.848
   94SAPC   H4R 9125   0.729   5.471   5.805
   94SAPC   H4S 9126   0.794   5.294   5.803
   94SAPC   C25 9127   0.939   5.447   5.836
   94SAPC   H5R 9128   0.968   5.498   5.929
   94SAPC   C26 9129   1.017   5.441   5.724
   94SAPC   H6R 9130   1.115   5.490   5.737
   94SAPC   C27 9131   0.981   5.367   5.602
   94SAPC   H7R 9132   0.873   5.385   5.581
   94SAPC   H7S 9133   0.979   5.256   5.611
   94SAPC   C28 9134   1.061   5.399   5.478
   94SAPC   H8R 9135   1.113   5.319   5.423
   94SAPC   C29 9136   1.069   5.525   5.426
   94SAPC   H9R 9137   1.146   5.550   5.352
   94SAPC  C210 9138   0.987   5.641   5.468
   94SAPC  H10R 9139   1.042   5.734   5.441
   94SAPC  H10S 9140   0.957   5.648   5.575
   94SAPC  C211 9141   0.863   5.638   5.384
   94SAPC  H11R 9142   0.837   5.535   5.357
   94SAPC  C212 9143   0.776   5.733   5.343
   94SAPC  H12R 9144   0.685   5.719   5.284
   94SAPC  C213 9145   0.795   5.881   5.371
   94SAPC  H13R 9146   0.894   5.910   5.329
   94SAPC  H13S 9147   0.824   5.893   5.478
   94SAPC  C214 9148   0.689   5.978   5.324
   94SAPC  H14R 9149   0.619   6.019   5.398
   94SAPC  C215 9150   0.661   6.005   5.195
   94SAPC  H15R 9151   0.586   6.084   5.177
   94SAPC  C216 9152   0.724   5.947   5.077
   94SAPC  H16R 9153   0.646   5.897   5.014
   94SAPC  H16S 9154   0.799   5.870   5.104
   94SAPC  C217 9155   0.797   6.039   4.980
   94SAPC  H17R 9156   0.855   5.966   4.919
   94SAPC  H17S 9157   0.870   6.105   5.031
   94SAPC  C218 9158   0.702   6.122   4.889
   94SAPC  H18R 9159   0.636   6.168   4.965
   94SAPC  H18S 9160   0.630   6.073   4.820
   94SAPC  C219 9161   0.791   6.223   4.814
   94SAPC  H19R 9162   0.855   6.292   4.874
   94SAPC  H19S 9163   0.716   6.290   4.767
   94SAPC  C220 9164   0.888   6.164   4.707
   94SAPC  H20R 9165   0.945   6.247   4.659
   94SAPC  H20S 9166   0.820   6.116   4.635
   94SAPC  H20T 9167   0.954   6.090   4.757
   94SAPC   C33 9168   0.298   4.843   5.998
   94SAPC   H3X 9169   0.272   4.791   6.093
   94SAPC   H3Y 9170   0.409   4.845   5.985
   94SAPC   C34 9171   0.236   4.768   5.882
   94SAPC   H4X 9172   0.127   4.759   5.900
   94SAPC   H4Y 9173   0.274   4.664   5.889
   94SAPC   C35 9174   0.262   4.833   5.738
   94SAPC   H5X 9175   0.371   4.832   5.713
   94SAPC   H5Y 9176   0.210   4.930   5.746
   94SAPC   C36 9177   0.190   4.754   5.626
   94SAPC   H6X 9178   0.083   4.741   5.653
   94SAPC   H6Y 9179   0.223   4.648   5.624
   94SAPC   C37 9180   0.227   4.821   5.493
   94SAPC   H7X 9181   0.337   4.831   5.482
   94SAPC   H7Y 9182   0.180   4.921   5.483
   94SAPC   C38 9183   0.174   4.747   5.378
   94SAPC   H8X 9184   0.213   4.643   5.377
   94SAPC   H8Y 9185   0.229   4.795   5.294
   94SAPC   C39 9186   0.021   4.755   5.352
   94SAPC   H9X 9187   6.868   4.858   5.381
   94SAPC   H9Y 9188   6.854   4.696   5.433
   94SAPC  C310 9189   6.867   4.721   5.208
   94SAPC  H10X 9190   0.010   4.613   5.196
   94SAPC  H10Y 9191   0.052   4.769   5.131
   94SAPC  C311 9192   6.721   4.739   5.162
   94SAPC  H11X 9193   6.709   4.849   5.151
   94SAPC  H11Y 9194   6.645   4.709   5.237
   94SAPC  C312 9195   6.694   4.680   5.017
   94SAPC  H12X 9196   6.584   4.669   5.004
   94SAPC  H12Y 9197   6.731   4.576   5.009
   94SAPC  C313 9198   6.774   4.741   4.905
   94SAPC  H13X 9199   0.003   4.748   4.929
   94SAPC  H13Y 9200   6.743   4.848   4.905
   94SAPC  C314 9201   6.753   4.679   4.766
   94SAPC  H14X 9202   6.646   4.651   4.759
   94SAPC  H14Y 9203   6.799   4.578   4.776
   94SAPC  C315 9204   6.796   4.762   4.650
   94SAPC  H15X 9205   6.769   4.719   4.552
   94SAPC  H15Y 9206   0.027   4.756   4.659
   94SAPC  C316 9207   6.738   4.903   4.650
   94SAPC  H16X 9208   6.782   4.955   4.737
   94SAPC  H16Y 9209   6.627   4.905   4.664
   94SAPC  C317 9210   6.769   4.982   4.515
   94SAPC  H17X 9211   6.740   4.912   4.434
   94SAPC  H17Y 9212   6.878   5.000   4.502
   94SAPC  C318 9213   6.694   5.109   4.516
   94SAPC  H18X 9214   6.583   5.099   4.516
   94SAPC  H18Y 9215   6.724   5.165   4.424
   94SAPC  H18Z 9216   6.733   5.171   4.599
   95SAPC     N 9217   4.356   5.531   2.193
   95SAPC   C12 9218   4.326   5.579   2.334
   95SAPC  H12A 9219   4.387   5.665   2.353
   95SAPC  H12B 9220   4.371   5.502   2.394
   95SAPC   C13 9221   4.251   5.434   2.140
   95SAPC  H13A 9222   4.240   5.346   2.202
   95SAPC  H13B 9223   4.155   5.485   2.145
   95SAPC  H13C 9224   4.256   5.403   2.036
   95SAPC   C14 9225   4.367   5.640   2.087
   95SAPC  H14A 9226   4.439   5.717   2.109
   95SAPC  H14B 9227   4.391   5.597   1.991
   95SAPC  H14C 9228   4.274   5.693   2.074
   95SAPC   C15 9229   4.486   5.463   2.191
   95SAPC  H15A 9230   4.493   5.387   2.268
   95SAPC  H15B 9231   4.515   5.425   2.094
   95SAPC  H15C 9232   4.568   5.524   2.226
   95SAPC   C11 9233   4.174   5.609   2.365
   95SAPC  H11A 9234   4.188   5.663   2.461
   95SAPC  H11B 9235   4.112   5.517   2.377
   95SAPC     P 9236   4.125   5.849   2.272
   95SAPC   O13 9237   4.258   5.896   2.317
   95SAPC   O14 9238   4.083   5.902   2.140
   95SAPC   O12 9239   4.113   5.690   2.262
   95SAPC   O11 9240   4.022   5.900   2.372
   95SAPC    C1 9241   3.934   5.819   2.448
   95SAPC    HA 9242   3.978   5.717   2.450
   95SAPC    HB 9243   3.922   5.853   2.554
   95SAPC    C2 9244   3.794   5.807   2.382
   95SAPC    HS 9245   3.811   5.803   2.273
   95SAPC   O21 9246   3.728   5.929   2.424
   95SAPC   C21 9247   3.631   5.960   2.341
   95SAPC   O22 9248   3.600   5.892   2.244
   95SAPC   C22 9249   3.554   6.080   2.387
   95SAPC   H2R 9250   3.559   6.085   2.497
   95SAPC   H2S 9251   3.606   6.164   2.335
   95SAPC    C3 9252   3.718   5.684   2.444
   95SAPC    HX 9253   3.778   5.597   2.410
   95SAPC    HY 9254   3.616   5.674   2.400
   95SAPC   O31 9255   3.722   5.681   2.586
   95SAPC   C31 9256   3.608   5.741   2.643
   95SAPC   O32 9257   3.515   5.775   2.576
   95SAPC   C32 9258   3.629   5.758   2.793
   95SAPC   H2X 9259   3.686   5.853   2.800
   95SAPC   H2Y 9260   3.692   5.671   2.821
   95SAPC   C23 9261   3.411   6.086   2.331
   95SAPC   H3R 9262   3.353   6.001   2.373
   95SAPC   H3S 9263   3.419   6.069   2.222
   95SAPC   C24 9264   3.355   6.222   2.342
   95SAPC   H4R 9265   3.415   6.298   2.289
   95SAPC   H4S 9266   3.359   6.247   2.450
   95SAPC   C25 9267   3.214   6.222   2.281
   95SAPC   H5R 9268   3.217   6.209   2.172
   95SAPC   C26 9269   3.095   6.201   2.345
   95SAPC   H6R 9270   3.005   6.199   2.282
   95SAPC   C27 9271   3.076   6.213   2.494
   95SAPC   H7R 9272   3.167   6.199   2.556
   95SAPC   H7S 9273   3.000   6.137   2.522
   95SAPC   C28 9274   3.019   6.342   2.544
   95SAPC   H8R 9275   3.093   6.423   2.541
   95SAPC   C29 9276   2.888   6.377   2.584
   95SAPC   H9R 9277   2.869   6.481   2.613
   95SAPC  C210 9278   2.774   6.287   2.583
   95SAPC  H10R 9279   2.752   6.243   2.683
   95SAPC  H10S 9280   2.806   6.202   2.520
   95SAPC  C211 9281   2.653   6.351   2.534
   95SAPC  H11R 9282   2.629   6.336   2.427
   95SAPC  C212 9283   2.558   6.417   2.606
   95SAPC  H12R 9284   2.471   6.462   2.555
   95SAPC  C213 9285   2.569   6.442   2.754
   95SAPC  H13R 9286   2.583   6.550   2.779
   95SAPC  H13S 9287   2.660   6.395   2.798
   95SAPC  C214 9288   2.441   6.383   2.813
   95SAPC  H14R 9289   2.356   6.396   2.744
   95SAPC  C215 9290   2.432   6.299   2.918
   95SAPC  H15R 9291   2.337   6.262   2.957
   95SAPC  C216 9292   2.555   6.259   3.001
   95SAPC  H16R 9293   2.644   6.242   2.938
   95SAPC  H16S 9294   2.528   6.156   3.034
   95SAPC  C217 9295   2.589   6.359   3.113
   95SAPC  H17R 9296   2.524   6.330   3.198
   95SAPC  H17S 9297   2.574   6.466   3.086
   95SAPC  C218 9298   2.734   6.346   3.163
   95SAPC  H18R 9299   2.804   6.394   3.091
   95SAPC  H18S 9300   2.772   6.242   3.153
   95SAPC  C219 9301   2.756   6.399   3.301
   95SAPC  H19R 9302   2.862   6.423   3.322
   95SAPC  H19S 9303   2.713   6.320   3.366
   95SAPC  C220 9304   2.680   6.528   3.331
   95SAPC  H20R 9305   2.711   6.613   3.267
   95SAPC  H20S 9306   2.703   6.554   3.437
   95SAPC  H20T 9307   2.569   6.529   3.327
   95SAPC   C33 9308   3.506   5.758   2.880
   95SAPC   H3X 9309   3.437   5.675   2.852
   95SAPC   H3Y 9310   3.445   5.850   2.875
   95SAPC   C34 9311   3.551   5.752   3.031
   95SAPC   H4X 9312   3.579   5.854   3.063
   95SAPC   H4Y 9313   3.633   5.677   3.033
   95SAPC   C35 9314   3.430   5.697   3.120
   95SAPC   H5X 9315   3.416   5.588   3.107
   95SAPC   H5Y 9316   3.336   5.745   3.087
   95SAPC   C36 9317   3.461   5.729   3.267
   95SAPC   H6X 9318   3.467   5.840   3.270
   95SAPC   H6Y 9319   3.557   5.682   3.297
   95SAPC   C37 9320   3.352   5.675   3.357
   95SAPC   H7X 9321   3.364   5.565   3.355
   95SAPC   H7Y 9322   3.253   5.696   3.311
   95SAPC   C38 9323   3.365   5.719   3.504
   95SAPC   H8X 9324   3.357   5.829   3.512
   95SAPC   H8Y 9325   3.458   5.684   3.554
   95SAPC   C39 9326   3.237   5.663   3.573
   95SAPC   H9X 9327   3.247   5.553   3.562
   95SAPC   H9Y 9328   3.142   5.695   3.525
   95SAPC  C310 9329   3.239   5.690   3.725
   95SAPC  H10X 9330   3.189   5.786   3.748
   95SAPC  H10Y 9331   3.343   5.696   3.763
   95SAPC  C311 9332   3.167   5.582   3.803
   95SAPC  H11X 9333   3.218   5.486   3.781
   95SAPC  H11Y 9334   3.075   5.567   3.743
   95SAPC  C312 9335   3.151   5.629   3.951
   95SAPC  H12X 9336   3.085   5.719   3.958
   95SAPC  H12Y 9337   3.243   5.632   4.013
   95SAPC  C313 9338   3.061   5.523   4.021
   95SAPC  H13X 9339   3.116   5.427   4.027
   95SAPC  H13Y 9340   2.967   5.505   3.963
   95SAPC  C314 9341   3.030   5.567   4.168
   95SAPC  H14X 9342   2.981   5.667   4.168
   95SAPC  H14Y 9343   3.129   5.579   4.219
   95SAPC  C315 9344   2.950   5.456   4.240
   95SAPC  H15X 9345   2.962   5.464   4.350
   95SAPC  H15Y 9346   2.974   5.356   4.198
   95SAPC  C316 9347   2.804   5.475   4.221
   95SAPC  H16X 9348   2.779   5.481   4.113
   95SAPC  H16Y 9349   2.755   5.564   4.268
   95SAPC  C317 9350   2.735   5.358   4.294
   95SAPC  H17X 9351   2.773   5.362   4.399
   95SAPC  H17Y 9352   2.762   5.257   4.256
   95SAPC  C318 9353   2.581   5.353   4.303
   95SAPC  H18X 9354   2.546   5.284   4.383
   95SAPC  H18Y 9355   2.543   5.302   4.212
   95SAPC  H18Z 9356   2.541   5.457   4.311
   96SAPC     N 9357   4.291   1.772   2.125
   96SAPC   C12 9358   4.345   1.867   2.237
   96SAPC  H12A 9359   4.415   1.815   2.301
   96SAPC  H12B 9360   4.266   1.895   2.305
   96SAPC   C13 9361   4.223   1.657   2.187
   96SAPC  H13A 9362   4.294   1.610   2.253
   96SAPC  H13B 9363   4.136   1.685   2.244
   96SAPC  H13C 9364   4.196   1.579   2.118
   96SAPC   C14 9365   4.194   1.845   2.045
   96SAPC  H14A 9366   4.190   1.804   1.946
   96SAPC  H14B 9367   4.095   1.841   2.089
   96SAPC  H14C 9368   4.213   1.950   2.026
   96SAPC   C15 9369   4.401   1.724   2.031
   96SAPC  H15A 9370   4.363   1.652   1.960
   96SAPC  H15B 9371   4.455   1.807   1.988
   96SAPC  H15C 9372   4.477   1.679   2.093
   96SAPC   C11 9373   4.421   1.989   2.194
   96SAPC  H11A 9374   4.508   1.955   2.134
   96SAPC  H11B 9375   4.456   2.034   2.290
   96SAPC     P 9376   4.215   2.161   2.182
   96SAPC   O13 9377   4.231   2.304   2.160
   96SAPC   O14 9378   4.094   2.097   2.128
   96SAPC   O12 9379   4.342   2.089   2.115
   96SAPC   O11 9380   4.232   2.147   2.338
   96SAPC    C1 9381   4.137   2.079   2.416
   96SAPC    HA 9382   4.103   1.985   2.367
   96SAPC    HB 9383   4.187   2.059   2.513
   96SAPC    C2 9384   4.010   2.167   2.437
   96SAPC    HS 9385   3.974   2.207   2.339
   96SAPC   O21 9386   4.054   2.265   2.530
   96SAPC   C21 9387   4.000   2.385   2.521
   96SAPC   O22 9388   3.932   2.425   2.429
   96SAPC   C22 9389   4.026   2.469   2.653
   96SAPC   H2R 9390   4.121   2.527   2.649
   96SAPC   H2S 9391   3.946   2.545   2.648
   96SAPC    C3 9392   3.897   2.080   2.494
   96SAPC    HX 9393   3.933   2.028   2.585
   96SAPC    HY 9394   3.874   1.993   2.429
   96SAPC   O31 9395   3.783   2.161   2.530
   96SAPC   C31 9396   3.677   2.155   2.454
   96SAPC   O32 9397   3.664   2.075   2.358
   96SAPC   C32 9398   3.560   2.244   2.501
   96SAPC   H2X 9399   3.496   2.268   2.413
   96SAPC   H2Y 9400   3.606   2.341   2.529
   96SAPC   C23 9401   4.032   2.388   2.786
   96SAPC   H3R 9402   4.051   2.455   2.873
   96SAPC   H3S 9403   4.118   2.318   2.797
   96SAPC   C24 9404   3.905   2.311   2.809
   96SAPC   H4R 9405   3.872   2.258   2.717
   96SAPC   H4S 9406   3.819   2.379   2.824
   96SAPC   C25 9407   3.913   2.211   2.920
   96SAPC   H5R 9408   3.911   2.114   2.868
   96SAPC   C26 9409   3.896   2.229   3.053
   96SAPC   H6R 9410   3.898   2.136   3.111
   96SAPC   C27 9411   3.870   2.356   3.135
   96SAPC   H7R 9412   3.767   2.338   3.173
   96SAPC   H7S 9413   3.869   2.444   3.067
   96SAPC   C28 9414   3.985   2.372   3.238
   96SAPC   H8R 9415   4.074   2.428   3.204
   96SAPC   C29 9416   3.987   2.308   3.354
   96SAPC   H9R 9417   4.078   2.323   3.415
   96SAPC  C210 9418   3.892   2.222   3.421
   96SAPC  H10R 9419   3.837   2.170   3.340
   96SAPC  H10S 9420   3.826   2.273   3.494
   96SAPC  C211 9421   3.954   2.115   3.506
   96SAPC  H11R 9422   3.972   2.023   3.449
   96SAPC  C212 9423   4.008   2.128   3.631
   96SAPC  H12R 9424   4.053   2.036   3.671
   96SAPC  C213 9425   4.000   2.252   3.722
   96SAPC  H13R 9426   3.912   2.243   3.790
   96SAPC  H13S 9427   3.983   2.343   3.661
   96SAPC  C214 9428   4.119   2.274   3.811
   96SAPC  H14R 9429   4.211   2.220   3.784
   96SAPC  C215 9430   4.129   2.352   3.922
   96SAPC  H15R 9431   4.227   2.343   3.972
   96SAPC  C216 9432   4.024   2.422   3.994
   96SAPC  H16R 9433   3.920   2.404   3.961
   96SAPC  H16S 9434   4.042   2.531   3.976
   96SAPC  C217 9435   4.024   2.407   4.146
   96SAPC  H17R 9436   3.974   2.311   4.170
   96SAPC  H17S 9437   3.948   2.481   4.178
   96SAPC  C218 9438   4.152   2.423   4.219
   96SAPC  H18R 9439   4.205   2.514   4.184
   96SAPC  H18S 9440   4.216   2.336   4.192
   96SAPC  C219 9441   4.132   2.426   4.372
   96SAPC  H19R 9442   4.078   2.333   4.402
   96SAPC  H19S 9443   4.058   2.503   4.402
   96SAPC  C220 9444   4.264   2.435   4.443
   96SAPC  H20R 9445   4.250   2.427   4.553
   96SAPC  H20S 9446   4.323   2.524   4.412
   96SAPC  H20T 9447   4.319   2.346   4.405
   96SAPC   C33 9448   3.482   2.190   2.624
   96SAPC   H3X 9449   3.460   2.081   2.622
   96SAPC   H3Y 9450   3.387   2.247   2.638
   96SAPC   C34 9451   3.550   2.206   2.769
   96SAPC   H4X 9452   3.606   2.302   2.781
   96SAPC   H4Y 9453   3.638   2.138   2.769
   96SAPC   C35 9454   3.451   2.168   2.882
   96SAPC   H5X 9455   3.442   2.059   2.869
   96SAPC   H5Y 9456   3.348   2.206   2.864
   96SAPC   C36 9457   3.507   2.199   3.017
   96SAPC   H6X 9458   3.528   2.308   3.023
   96SAPC   H6Y 9459   3.605   2.147   3.016
   96SAPC   C37 9460   3.414   2.154   3.128
   96SAPC   H7X 9461   3.380   2.050   3.111
   96SAPC   H7Y 9462   3.323   2.218   3.128
   96SAPC   C38 9463   3.489   2.162   3.260
   96SAPC   H8X 9464   3.518   2.268   3.269
   96SAPC   H8Y 9465   3.588   2.113   3.250
   96SAPC   C39 9466   3.419   2.120   3.385
   96SAPC   H9X 9467   3.360   2.026   3.373
   96SAPC   H9Y 9468   3.348   2.199   3.419
   96SAPC  C310 9469   3.523   2.104   3.496
   96SAPC  H10X 9470   3.573   2.201   3.518
   96SAPC  H10Y 9471   3.600   2.032   3.461
   96SAPC  C311 9472   3.459   2.069   3.626
   96SAPC  H11X 9473   3.407   1.971   3.628
   96SAPC  H11Y 9474   3.385   2.148   3.651
   96SAPC  C312 9475   3.567   2.067   3.739
   96SAPC  H12X 9476   3.611   2.169   3.744
   96SAPC  H12Y 9477   3.648   2.000   3.703
   96SAPC  C313 9478   3.508   2.028   3.878
   96SAPC  H13X 9479   3.592   2.058   3.945
   96SAPC  H13Y 9480   3.484   1.920   3.888
   96SAPC  C314 9481   3.382   2.102   3.915
   96SAPC  H14X 9482   3.297   2.091   3.844
   96SAPC  H14Y 9483   3.403   2.211   3.924
   96SAPC  C315 9484   3.334   2.054   4.048
   96SAPC  H15X 9485   3.415   2.044   4.124
   96SAPC  H15Y 9486   3.300   1.949   4.039
   96SAPC  C316 9487   3.212   2.142   4.096
   96SAPC  H16X 9488   3.122   2.108   4.041
   96SAPC  H16Y 9489   3.236   2.247   4.069
   96SAPC  C317 9490   3.169   2.121   4.247
   96SAPC  H17X 9491   3.069   2.165   4.265
   96SAPC  H17Y 9492   3.240   2.171   4.316
   96SAPC  C318 9493   3.156   1.975   4.288
   96SAPC  H18X 9494   3.064   1.930   4.244
   96SAPC  H18Y 9495   3.153   1.971   4.399
   96SAPC  H18Z 9496   3.239   1.914   4.245
   97SAPC     N 9497   2.885   0.410   1.888
   97SAPC   C12 9498   2.814   0.427   2.028
   97SAPC  H12A 9499   2.712   0.390   2.025
   97SAPC  H12B 9500   2.812   0.531   2.056
   97SAPC   C13 9501   2.802   0.483   1.790
   97SAPC  H13A 9502   2.697   0.466   1.809
   97SAPC  H13B 9503   2.823   0.589   1.797
   97SAPC  H13C 9504   2.806   0.441   1.691
   97SAPC   C14 9505   3.019   0.464   1.890
   97SAPC  H14A 9506   3.070   0.427   1.802
   97SAPC  H14B 9507   3.018   0.571   1.874
   97SAPC  H14C 9508   3.074   0.438   1.978
   97SAPC   C15 9509   2.892   0.264   1.852
   97SAPC  H15A 9510   2.954   0.246   1.765
   97SAPC  H15B 9511   2.938   0.208   1.932
   97SAPC  H15C 9512   2.793   0.221   1.848
   97SAPC   C11 9513   2.880   0.343   2.142
   97SAPC  H11A 9514   2.879   0.233   2.135
   97SAPC  H11B 9515   2.812   0.358   2.229
   97SAPC     P 9516   3.046   0.516   2.260
   97SAPC   O13 9517   3.188   0.522   2.285
   97SAPC   O14 9518   2.984   0.634   2.198
   97SAPC   O12 9519   3.015   0.393   2.167
   97SAPC   O11 9520   2.966   0.483   2.397
   97SAPC    C1 9521   2.976   0.378   2.486
   97SAPC    HA 9522   2.872   0.352   2.515
   97SAPC    HB 9523   3.015   0.291   2.429
   97SAPC    C2 9524   3.059   0.422   2.609
   97SAPC    HS 9525   3.164   0.431   2.575
   97SAPC   O21 9526   3.035   0.325   2.714
   97SAPC   C21 9527   3.139   0.270   2.772
   97SAPC   O22 9528   3.252   0.305   2.765
   97SAPC   C22 9529   3.086   0.158   2.864
   97SAPC   H2R 9530   2.975   0.159   2.874
   97SAPC   H2S 9531   3.107   0.058   2.820
   97SAPC    C3 9532   3.019   0.560   2.660
   97SAPC    HX 9533   2.919   0.551   2.707
   97SAPC    HY 9534   3.002   0.633   2.579
   97SAPC   O31 9535   3.099   0.608   2.774
   97SAPC   C31 9536   3.211   0.670   2.753
   97SAPC   O32 9537   3.262   0.691   2.645
   97SAPC   C32 9538   3.272   0.705   2.892
   97SAPC   H2X 9539   3.230   0.804   2.922
   97SAPC   H2Y 9540   3.379   0.729   2.875
   97SAPC   C23 9541   3.145   0.155   3.008
   97SAPC   H3R 9542   3.122   0.253   3.056
   97SAPC   H3S 9543   3.252   0.128   3.001
   97SAPC   C24 9544   3.080   0.043   3.098
   97SAPC   H4R 9545   3.128   0.035   3.198
   97SAPC   H4S 9546   3.117   6.832   3.045
   97SAPC   C25 9547   2.936   0.054   3.117
   97SAPC   H5R 9548   2.872   0.046   3.028
   97SAPC   C26 9549   2.870   0.071   3.242
   97SAPC   H6R 9550   2.761   0.054   3.242
   97SAPC   C27 9551   2.931   0.074   3.382
   97SAPC   H7R 9552   2.865   0.144   3.438
   97SAPC   H7S 9553   3.029   0.128   3.384
   97SAPC   C28 9554   2.962   6.815   3.435
   97SAPC   H8R 9555   3.013   6.749   3.363
   97SAPC   C29 9556   2.931   6.768   3.556
   97SAPC   H9R 9557   2.964   6.664   3.569
   97SAPC  C210 9558   2.874   6.855   3.668
   97SAPC  H10R 9559   2.853   0.081   3.640
   97SAPC  H10S 9560   2.949   6.863   3.750
   97SAPC  C211 9561   2.747   6.805   3.731
   97SAPC  H11R 9562   2.673   6.758   3.664
   97SAPC  C212 9563   2.705   6.814   3.866
   97SAPC  H12R 9564   2.605   6.776   3.891
   97SAPC  C213 9565   2.791   6.868   3.974
   97SAPC  H13R 9566   2.744   0.083   4.008
   97SAPC  H13S 9567   2.898   0.004   3.949
   97SAPC  C214 9568   2.793   6.761   4.085
   97SAPC  H14R 9569   2.821   6.658   4.062
   97SAPC  C215 9570   2.755   6.787   4.216
   97SAPC  H15R 9571   2.738   6.700   4.281
   97SAPC  C216 9572   2.709   0.043   4.277
   97SAPC  H16R 9573   2.734   0.132   4.215
   97SAPC  H16S 9574   2.771   0.068   4.366
   97SAPC  C217 9575   2.557   0.037   4.303
   97SAPC  H17R 9576   2.532   6.829   4.367
   97SAPC  H17S 9577   2.520   0.024   4.200
   97SAPC  C218 9578   2.498   0.167   4.364
   97SAPC  H18R 9579   2.557   0.190   4.455
   97SAPC  H18S 9580   2.393   0.139   4.388
   97SAPC  C219 9581   2.510   0.295   4.282
   97SAPC  H19R 9582   2.435   0.283   4.200
   97SAPC  H19S 9583   2.608   0.326   4.240
   97SAPC  C220 9584   2.457   0.411   4.366
   97SAPC  H20R 9585   2.465   0.507   4.311
   97SAPC  H20S 9586   2.525   0.433   4.451
   97SAPC  H20T 9587   2.354   0.405   4.406
   97SAPC   C33 9588   3.254   0.594   3.002
   97SAPC   H3X 9589   3.293   0.496   2.968
   97SAPC   H3Y 9590   3.145   0.573   3.008
   97SAPC   C34 9591   3.300   0.626   3.149
   97SAPC   H4X 9592   3.276   0.733   3.170
   97SAPC   H4Y 9593   3.410   0.631   3.157
   97SAPC   C35 9594   3.241   0.541   3.260
   97SAPC   H5X 9595   3.133   0.521   3.240
   97SAPC   H5Y 9596   3.247   0.599   3.354
   97SAPC   C36 9597   3.311   0.406   3.286
   97SAPC   H6X 9598   3.419   0.432   3.298
   97SAPC   H6Y 9599   3.288   0.341   3.200
   97SAPC   C37 9600   3.262   0.335   3.415
   97SAPC   H7X 9601   3.284   0.226   3.407
   97SAPC   H7Y 9602   3.153   0.349   3.432
   97SAPC   C38 9603   3.329   0.395   3.538
   97SAPC   H8X 9604   3.301   0.502   3.545
   97SAPC   H8Y 9605   3.438   0.404   3.516
   97SAPC   C39 9606   3.296   0.323   3.669
   97SAPC   H9X 9607   3.327   0.216   3.678
   97SAPC   H9Y 9608   3.185   0.328   3.677
   97SAPC  C310 9609   3.339   0.410   3.794
   97SAPC  H10X 9610   3.286   0.506   3.782
   97SAPC  H10Y 9611   3.449   0.423   3.787
   97SAPC  C311 9612   3.323   0.345   3.935
   97SAPC  H11X 9613   3.379   0.249   3.927
   97SAPC  H11Y 9614   3.216   0.317   3.941
   97SAPC  C312 9615   3.364   0.425   4.055
   97SAPC  H12X 9616   3.345   0.376   4.153
   97SAPC  H12Y 9617   3.296   0.513   4.063
   97SAPC  C313 9618   3.515   0.456   4.045
   97SAPC  H13X 9619   3.543   0.501   3.947
   97SAPC  H13Y 9620   3.565   0.358   4.060
   97SAPC  C314 9621   3.572   0.558   4.136
   97SAPC  H14X 9622   3.488   0.631   4.142
   97SAPC  H14Y 9623   3.659   0.614   4.097
   97SAPC  C315 9624   3.593   0.505   4.277
   97SAPC  H15X 9625   3.657   0.414   4.287
   97SAPC  H15Y 9626   3.490   0.478   4.308
   97SAPC  C316 9627   3.656   0.615   4.358
   97SAPC  H16X 9628   3.577   0.694   4.351
   97SAPC  H16Y 9629   3.746   0.655   4.306
   97SAPC  C317 9630   3.683   0.578   4.502
   97SAPC  H17X 9631   3.703   0.673   4.558
   97SAPC  H17Y 9632   3.772   0.514   4.518
   97SAPC  C318 9633   3.565   0.509   4.570
   97SAPC  H18X 9634   3.564   0.402   4.539
   97SAPC  H18Y 9635   3.476   0.564   4.533
   97SAPC  H18Z 9636   3.579   0.518   4.680
   98SAPC     N 9637   6.087   1.658   2.052
   98SAPC   C12 9638   6.148   1.765   2.147
   98SAPC  H12A 9639   6.101   1.861   2.134
   98SAPC  H12B 9640   6.251   1.782   2.118
   98SAPC   C13 9641   5.940   1.634   2.089
   98SAPC  H13A 9642   5.914   1.539   2.045
   98SAPC  H13B 9643   5.923   1.632   2.195
   98SAPC  H13C 9644   5.870   1.710   2.060
   98SAPC   C14 9645   6.098   1.696   1.908
   98SAPC  H14A 9646   6.043   1.784   1.878
   98SAPC  H14B 9647   6.201   1.717   1.886
   98SAPC  H14C 9648   6.048   1.624   1.845
   98SAPC   C15 9649   6.154   1.526   2.063
   98SAPC  H15A 9650   6.249   1.524   2.012
   98SAPC  H15B 9651   6.151   1.489   2.164
   98SAPC  H15C 9652   6.083   1.475   2.000
   98SAPC   C11 9653   6.140   1.734   2.301
   98SAPC  H11A 9654   6.183   1.826   2.345
   98SAPC  H11B 9655   6.203   1.648   2.335
   98SAPC     P 9656   5.958   1.724   2.493
   98SAPC   O13 9657   5.924   1.860   2.541
   98SAPC   O14 9658   5.850   1.624   2.497
   98SAPC   O12 9659   6.000   1.728   2.340
   98SAPC   O11 9660   6.088   1.667   2.562
   98SAPC    C1 9661   6.133   1.535   2.554
   98SAPC    HA 9662   6.097   1.486   2.461
   98SAPC    HB 9663   6.244   1.529   2.556
   98SAPC    C2 9664   6.073   1.453   2.676
   98SAPC    HS 9665   5.965   1.479   2.675
   98SAPC   O21 9666   6.145   1.498   2.797
   98SAPC   C21 9667   6.071   1.564   2.884
   98SAPC   O22 9668   5.950   1.563   2.889
   98SAPC   C22 9669   6.151   1.639   2.986
   98SAPC   H2R 9670   6.257   1.624   2.957
   98SAPC   H2S 9671   6.120   1.746   2.983
   98SAPC    C3 9672   6.088   1.305   2.656
   98SAPC    HX 9673   6.187   1.279   2.614
   98SAPC    HY 9674   6.016   1.271   2.579
   98SAPC   O31 9675   6.070   1.241   2.782
   98SAPC   C31 9676   5.945   1.243   2.828
   98SAPC   O32 9677   5.846   1.269   2.758
   98SAPC   C32 9678   5.937   1.210   2.978
   98SAPC   H2X 9679   5.949   1.301   3.040
   98SAPC   H2Y 9680   6.025   1.149   3.007
   98SAPC   C23 9681   6.119   1.610   3.133
   98SAPC   H3R 9682   6.011   1.587   3.146
   98SAPC   H3S 9683   6.145   1.702   3.190
   98SAPC   C24 9684   6.220   1.498   3.192
   98SAPC   H4R 9685   6.205   1.399   3.143
   98SAPC   H4S 9686   6.176   1.501   3.294
   98SAPC   C25 9687   6.364   1.541   3.202
   98SAPC   H5R 9688   6.424   1.505   3.117
   98SAPC   C26 9689   6.429   1.614   3.297
   98SAPC   H6R 9690   6.535   1.642   3.286
   98SAPC   C27 9691   6.366   1.659   3.421
   98SAPC   H7R 9692   6.319   1.574   3.474
   98SAPC   H7S 9693   6.282   1.727   3.397
   98SAPC   C28 9694   6.457   1.727   3.519
   98SAPC   H8R 9695   6.543   1.775   3.470
   98SAPC   C29 9696   6.447   1.721   3.646
   98SAPC   H9R 9697   6.517   1.772   3.714
   98SAPC  C210 9698   6.336   1.645   3.722
   98SAPC  H10R 9699   6.376   1.542   3.722
   98SAPC  H10S 9700   6.244   1.642   3.660
   98SAPC  C211 9701   6.318   1.684   3.868
   98SAPC  H11R 9702   6.236   1.751   3.898
   98SAPC  C212 9703   6.377   1.635   3.970
   98SAPC  H12R 9704   6.341   1.670   4.068
   98SAPC  C213 9705   6.488   1.530   3.985
   98SAPC  H13R 9706   6.582   1.564   3.935
   98SAPC  H13S 9707   6.466   1.437   3.929
   98SAPC  C214 9708   6.522   1.499   4.131
   98SAPC  H14R 9709   6.515   1.592   4.190
   98SAPC  C215 9710   6.556   1.392   4.194
   98SAPC  H15R 9711   6.564   1.389   4.304
   98SAPC  C216 9712   6.582   1.255   4.132
   98SAPC  H16R 9713   6.689   1.229   4.141
   98SAPC  H16S 9714   6.561   1.257   4.023
   98SAPC  C217 9715   6.495   1.140   4.170
   98SAPC  H17R 9716   6.534   1.061   4.103
   98SAPC  H17S 9717   6.391   1.156   4.135
   98SAPC  C218 9718   6.513   1.094   4.312
   98SAPC  H18R 9719   6.450   1.166   4.367
   98SAPC  H18S 9720   6.620   1.090   4.344
   98SAPC  C219 9721   6.453   0.953   4.322
   98SAPC  H19R 9722   6.507   0.874   4.265
   98SAPC  H19S 9723   6.352   0.959   4.278
   98SAPC  C220 9724   6.443   0.893   4.461
   98SAPC  H20R 9725   6.401   0.790   4.461
   98SAPC  H20S 9726   6.376   0.955   4.525
   98SAPC  H20T 9727   6.545   0.884   4.505
   98SAPC   C33 9728   5.800   1.134   3.012
   98SAPC   H3X 9729   5.774   1.043   2.953
   98SAPC   H3Y 9730   5.724   1.210   2.986
   98SAPC   C34 9731   5.802   1.081   3.158
   98SAPC   H4X 9732   5.696   1.068   3.190
   98SAPC   H4Y 9733   5.844   1.159   3.225
   98SAPC   C35 9734   5.898   0.958   3.176
   98SAPC   H5X 9735   6.005   0.987   3.169
   98SAPC   H5Y 9736   5.885   0.896   3.085
   98SAPC   C36 9737   5.879   0.875   3.302
   98SAPC   H6X 9738   5.912   0.774   3.271
   98SAPC   H6Y 9739   5.772   0.875   3.333
   98SAPC   C37 9740   5.954   0.931   3.424
   98SAPC   H7X 9741   5.910   1.028   3.455
   98SAPC   H7Y 9742   6.063   0.946   3.407
   98SAPC   C38 9743   5.933   0.842   3.541
   98SAPC   H8X 9744   5.957   0.736   3.522
   98SAPC   H8Y 9745   5.826   0.856   3.566
   98SAPC   C39 9746   6.004   0.898   3.666
   98SAPC   H9X 9747   5.977   1.005   3.675
   98SAPC   H9Y 9748   6.112   0.897   3.638
   98SAPC  C310 9749   5.971   0.829   3.801
   98SAPC  H10X 9750   5.984   0.719   3.794
   98SAPC  H10Y 9751   5.862   0.840   3.818
   98SAPC  C311 9752   6.050   0.877   3.928
   98SAPC  H11X 9753   6.145   0.934   3.916
   98SAPC  H11Y 9754   6.089   0.783   3.973
   98SAPC  C312 9755   5.952   0.944   4.034
   98SAPC  H12X 9756   5.867   0.873   4.039
   98SAPC  H12Y 9757   5.911   1.043   4.002
   98SAPC  C313 9758   6.025   0.950   4.169
   98SAPC  H13X 9759   6.123   0.990   4.137
   98SAPC  H13Y 9760   6.050   0.848   4.205
   98SAPC  C314 9761   5.944   1.026   4.280
   98SAPC  H14X 9762   5.946   1.132   4.248
   98SAPC  H14Y 9763   5.981   1.007   4.383
   98SAPC  C315 9764   5.793   0.981   4.291
   98SAPC  H15X 9765   5.789   0.872   4.314
   98SAPC  H15Y 9766   5.742   1.005   4.196
   98SAPC  C316 9767   5.721   1.060   4.406
   98SAPC  H16X 9768   5.610   1.046   4.409
   98SAPC  H16Y 9769   5.740   1.166   4.378
   98SAPC  C317 9770   5.770   1.016   4.550
   98SAPC  H17X 9771   5.877   1.046   4.553
   98SAPC  H17Y 9772   5.771   0.907   4.569
   98SAPC  C318 9773   5.695   1.095   4.662
   98SAPC  H18X 9774   5.763   1.089   4.749
   98SAPC  H18Y 9775   5.594   1.054   4.687
   98SAPC  H18Z 9776   5.685   1.203   4.640
   99SAPC     N 9777   3.798   4.768   1.795
   99SAPC   C12 9778   3.703   4.731   1.907
   99SAPC  H12A 9779   3.716   4.806   1.983
   99SAPC  H12B 9780   3.723   4.632   1.946
   99SAPC   C13 9781   3.768   4.896   1.734
   99SAPC  H13A 9782   3.662   4.908   1.714
   99SAPC  H13B 9783   3.794   4.975   1.803
   99SAPC  H13C 9784   3.820   4.921   1.643
   99SAPC   C14 9785   3.938   4.772   1.853
   99SAPC  H14A 9786   4.019   4.798   1.786
   99SAPC  H14B 9787   3.957   4.849   1.926
   99SAPC  H14C 9788   3.962   4.680   1.905
   99SAPC   C15 9789   3.786   4.668   1.688
   99SAPC  H15A 9790   3.684   4.651   1.655
   99SAPC  H15B 9791   3.844   4.687   1.599
   99SAPC  H15C 9792   3.822   4.571   1.718
   99SAPC   C11 9793   3.550   4.742   1.880
   99SAPC  H11A 9794   3.497   4.709   1.972
   99SAPC  H11B 9795   3.528   4.672   1.797
   99SAPC     P 9796   3.479   4.989   1.953
   99SAPC   O13 9797   3.601   5.038   2.025
   99SAPC   O14 9798   3.406   5.091   1.874
   99SAPC   O12 9799   3.520   4.875   1.850
   99SAPC   O11 9800   3.387   4.911   2.046
   99SAPC    C1 9801   3.311   4.971   2.148
   99SAPC    HA 9802   3.296   5.079   2.126
   99SAPC    HB 9803   3.210   4.928   2.130
   99SAPC    C2 9804   3.357   4.935   2.284
   99SAPC    HS 9805   3.281   4.954   2.363
   99SAPC   O21 9806   3.468   5.017   2.311
   99SAPC   C21 9807   3.453   5.134   2.356
   99SAPC   O22 9808   3.345   5.192   2.370
   99SAPC   C22 9809   3.594   5.183   2.407
   99SAPC   H2R 9810   3.635   5.090   2.451
   99SAPC   H2S 9811   3.652   5.209   2.316
   99SAPC    C3 9812   3.398   4.788   2.297
   99SAPC    HX 9813   3.490   4.784   2.234
   99SAPC    HY 9814   3.311   4.731   2.257
   99SAPC   O31 9815   3.418   4.741   2.433
   99SAPC   C31 9816   3.539   4.775   2.482
   99SAPC   O32 9817   3.631   4.820   2.417
   99SAPC   C32 9818   3.537   4.745   2.628
   99SAPC   H2X 9819   3.607   4.667   2.662
   99SAPC   H2Y 9820   3.437   4.705   2.655
   99SAPC   C23 9821   3.581   5.301   2.513
   99SAPC   H3R 9822   3.514   5.385   2.484
   99SAPC   H3S 9823   3.677   5.353   2.534
   99SAPC   C24 9824   3.542   5.248   2.652
   99SAPC   H4R 9825   3.595   5.157   2.687
   99SAPC   H4S 9826   3.438   5.209   2.652
   99SAPC   C25 9827   3.550   5.361   2.755
   99SAPC   H5R 9828   3.651   5.401   2.775
   99SAPC   C26 9829   3.450   5.396   2.844
   99SAPC   H6R 9830   3.466   5.481   2.912
   99SAPC   C27 9831   3.311   5.350   2.858
   99SAPC   H7R 9832   3.302   5.329   2.966
   99SAPC   H7S 9833   3.298   5.247   2.819
   99SAPC   C28 9834   3.209   5.448   2.799
   99SAPC   H8R 9835   3.235   5.499   2.705
   99SAPC   C29 9836   3.083   5.460   2.855
   99SAPC   H9R 9837   3.021   5.541   2.815
   99SAPC  C210 9838   3.035   5.393   2.979
   99SAPC  H10R 9839   3.066   5.287   2.989
   99SAPC  H10S 9840   2.924   5.381   2.970
   99SAPC  C211 9841   3.066   5.470   3.108
   99SAPC  H11R 9842   3.080   5.578   3.090
   99SAPC  C212 9843   3.095   5.415   3.229
   99SAPC  H12R 9844   3.134   5.491   3.298
   99SAPC  C213 9845   3.098   5.275   3.275
   99SAPC  H13R 9846   3.046   5.220   3.193
   99SAPC  H13S 9847   3.030   5.266   3.362
   99SAPC  C214 9848   3.226   5.219   3.315
   99SAPC  H14R 9849   3.311   5.272   3.269
   99SAPC  C215 9850   3.250   5.121   3.410
   99SAPC  H15R 9851   3.354   5.094   3.434
   99SAPC  C216 9852   3.148   5.046   3.490
   99SAPC  H16R 9853   3.175   4.940   3.510
   99SAPC  H16S 9854   3.050   5.041   3.439
   99SAPC  C217 9855   3.134   5.112   3.630
   99SAPC  H17R 9856   3.067   5.201   3.620
   99SAPC  H17S 9857   3.232   5.138   3.674
   99SAPC  C218 9858   3.063   5.024   3.728
   99SAPC  H18R 9859   3.121   4.930   3.741
   99SAPC  H18S 9860   2.964   4.999   3.685
   99SAPC  C219 9861   3.052   5.094   3.866
   99SAPC  H19R 9862   2.989   5.185   3.861
   99SAPC  H19S 9863   3.151   5.111   3.914
   99SAPC  C220 9864   2.977   5.003   3.965
   99SAPC  H20R 9865   2.996   5.034   4.069
   99SAPC  H20S 9866   3.028   4.905   3.958
   99SAPC  H20T 9867   2.871   5.000   3.930
   99SAPC   C33 9868   3.569   4.857   2.721
   99SAPC   H3X 9869   3.527   4.952   2.682
   99SAPC   H3Y 9870   3.678   4.874   2.730
   99SAPC   C34 9871   3.498   4.835   2.857
   99SAPC   H4X 9872   3.526   4.733   2.891
   99SAPC   H4Y 9873   3.391   4.824   2.830
   99SAPC   C35 9874   3.524   4.942   2.965
   99SAPC   H5X 9875   3.543   5.039   2.914
   99SAPC   H5Y 9876   3.611   4.918   3.029
   99SAPC   C36 9877   3.404   4.971   3.061
   99SAPC   H6X 9878   3.314   4.989   2.998
   99SAPC   H6Y 9879   3.420   5.065   3.118
   99SAPC   C37 9880   3.396   4.855   3.165
   99SAPC   H7X 9881   3.369   4.769   3.101
   99SAPC   H7Y 9882   3.308   4.882   3.227
   99SAPC   C38 9883   3.503   4.829   3.279
   99SAPC   H8X 9884   3.554   4.927   3.295
   99SAPC   H8Y 9885   3.577   4.754   3.244
   99SAPC   C39 9886   3.443   4.788   3.416
   99SAPC   H9X 9887   3.415   4.681   3.402
   99SAPC   H9Y 9888   3.358   4.854   3.443
   99SAPC  C310 9889   3.547   4.783   3.526
   99SAPC  H10X 9890   3.647   4.811   3.486
   99SAPC  H10Y 9891   3.555   4.681   3.571
   99SAPC  C311 9892   3.514   4.891   3.635
   99SAPC  H11X 9893   3.491   4.987   3.583
   99SAPC  H11Y 9894   3.603   4.910   3.698
   99SAPC  C312 9895   3.401   4.840   3.726
   99SAPC  H12X 9896   3.343   4.767   3.666
   99SAPC  H12Y 9897   3.338   4.925   3.759
   99SAPC  C313 9898   3.446   4.748   3.843
   99SAPC  H13X 9899   3.533   4.790   3.898
   99SAPC  H13Y 9900   3.489   4.655   3.802
   99SAPC  C314 9901   3.335   4.716   3.938
   99SAPC  H14X 9902   3.367   4.620   3.983
   99SAPC  H14Y 9903   3.234   4.702   3.893
   99SAPC  C315 9904   3.309   4.814   4.048
   99SAPC  H15X 9905   3.268   4.913   4.018
   99SAPC  H15Y 9906   3.402   4.845   4.100
   99SAPC  C316 9907   3.213   4.766   4.158
   99SAPC  H16X 9908   3.264   4.673   4.191
   99SAPC  H16Y 9909   3.108   4.754   4.122
   99SAPC  C317 9910   3.211   4.858   4.282
   99SAPC  H17X 9911   3.145   4.823   4.364
   99SAPC  H17Y 9912   3.158   4.948   4.242
   99SAPC  C318 9913   3.351   4.910   4.322
   99SAPC  H18X 9914   3.358   4.955   4.423
   99SAPC  H18Y 9915   3.379   4.995   4.257
   99SAPC  H18Z 9916   3.429   4.831   4.326
  100SAPC     N 9917   1.823   3.890   1.589
  100SAPC   C12 9918   1.885   4.026   1.561
  100SAPC  H12A 9919   1.834   4.056   1.470
  100SAPC  H12B 9920   1.989   4.005   1.545
  100SAPC   C13 9921   1.855   3.789   1.481
  100SAPC  H13A 9922   1.962   3.772   1.484
  100SAPC  H13B 9923   1.794   3.701   1.495
  100SAPC  H13C 9924   1.835   3.824   1.381
  100SAPC   C14 9925   1.867   3.831   1.718
  100SAPC  H14A 9926   1.857   3.906   1.794
  100SAPC  H14B 9927   1.818   3.739   1.746
  100SAPC  H14C 9928   1.972   3.806   1.711
  100SAPC   C15 9929   1.674   3.915   1.604
  100SAPC  H15A 9930   1.619   3.830   1.639
  100SAPC  H15B 9931   1.649   4.008   1.653
  100SAPC  H15C 9932   1.635   3.937   1.506
  100SAPC   C11 9933   1.867   4.136   1.672
  100SAPC  H11A 9934   1.951   4.208   1.678
  100SAPC  H11B 9935   1.873   4.088   1.772
  100SAPC     P 9936   1.712   4.341   1.735
  100SAPC   O13 9937   1.834   4.423   1.738
  100SAPC   O14 9938   1.590   4.402   1.690
  100SAPC   O12 9939   1.735   4.201   1.658
  100SAPC   O11 9940   1.698   4.293   1.890
  100SAPC    C1 9941   1.586   4.211   1.922
  100SAPC    HA 9942   1.491   4.268   1.931
  100SAPC    HB 9943   1.567   4.128   1.850
  100SAPC    C2 9944   1.620   4.138   2.059
  100SAPC    HS 9945   1.534   4.073   2.087
  100SAPC   O21 9946   1.666   4.224   2.166
  100SAPC   C21 9947   1.572   4.312   2.202
  100SAPC   O22 9948   1.452   4.300   2.179
  100SAPC   C22 9949   1.629   4.427   2.281
  100SAPC   H2R 9950   1.735   4.429   2.247
  100SAPC   H2S 9951   1.578   4.517   2.240
  100SAPC    C3 9952   1.734   4.038   2.035
  100SAPC    HX 9953   1.813   4.095   1.983
  100SAPC    HY 9954   1.715   3.964   1.954
  100SAPC   O31 9955   1.780   3.982   2.159
  100SAPC   C31 9956   1.904   3.991   2.192
  100SAPC   O32 9957   1.992   4.038   2.120
  100SAPC   C32 9958   1.921   3.946   2.331
  100SAPC   H2X 9959   1.978   3.852   2.315
  100SAPC   H2Y 9960   1.824   3.917   2.378
  100SAPC   C23 9961   1.626   4.425   2.439
  100SAPC   H3R 9962   1.643   4.320   2.473
  100SAPC   H3S 9963   1.525   4.457   2.471
  100SAPC   C24 9964   1.733   4.519   2.499
  100SAPC   H4R 9965   1.699   4.532   2.604
  100SAPC   H4S 9966   1.720   4.613   2.441
  100SAPC   C25 9967   1.873   4.475   2.478
  100SAPC   H5R 9968   1.921   4.520   2.390
  100SAPC   C26 9969   1.944   4.404   2.568
  100SAPC   H6R 9970   2.036   4.359   2.529
  100SAPC   C27 9971   1.888   4.331   2.694
  100SAPC   H7R 9972   1.888   4.220   2.699
  100SAPC   H7S 9973   1.779   4.346   2.700
  100SAPC   C28 9974   1.962   4.385   2.828
  100SAPC   H8R 9975   2.021   4.477   2.817
  100SAPC   C29 9976   1.949   4.342   2.954
  100SAPC   H9R 9977   1.993   4.394   3.040
  100SAPC  C210 9978   1.859   4.229   2.986
  100SAPC  H10R 9979   1.911   4.134   3.013
  100SAPC  H10S 9980   1.804   4.202   2.894
  100SAPC  C211 9981   1.765   4.266   3.096
  100SAPC  H11R 9982   1.670   4.307   3.059
  100SAPC  C212 9983   1.786   4.253   3.227
  100SAPC  H12R 9984   1.706   4.286   3.296
  100SAPC  C213 9985   1.906   4.201   3.302
  100SAPC  H13R 9986   1.952   4.291   3.347
  100SAPC  H13S 9987   1.980   4.160   3.231
  100SAPC  C214 9988   1.864   4.108   3.411
  100SAPC  H14R 9989   1.817   4.021   3.363
  100SAPC  C215 9990   1.877   4.117   3.542
  100SAPC  H15R 9991   1.855   4.027   3.599
  100SAPC  C216 9992   1.922   4.246   3.609
  100SAPC  H16R 9993   1.844   4.323   3.591
  100SAPC  H16S 9994   2.017   4.281   3.564
  100SAPC  C217 9995   1.958   4.234   3.756
  100SAPC  H17R 9996   1.996   4.334   3.785
  100SAPC  H17S 9997   2.040   4.160   3.773
  100SAPC  C218 9998   1.842   4.194   3.852
  100SAPC  H18R 9999   1.831   4.085   3.868
  100SAPC  H18S10000   1.746   4.231   3.812
  100SAPC  C21910001   1.867   4.257   3.994
  100SAPC  H19R10002   1.781   4.230   4.059
  100SAPC  H19S10003   1.875   4.366   3.976
  100SAPC  C22010004   1.987   4.208   4.071
  100SAPC  H20R10005   1.982   4.097   4.070
  100SAPC  H20S10006   1.992   4.231   4.180
  100SAPC  H20T10007   2.079   4.240   4.017
  100SAPC   C3310008   1.999   4.035   2.429
  100SAPC   H3X10009   1.936   4.122   2.457
  100SAPC   H3Y10010   2.083   4.090   2.380
  100SAPC   C3410011   2.057   3.960   2.547
  100SAPC   H4X10012   2.134   3.889   2.509
  100SAPC   H4Y10013   1.974   3.909   2.601
  100SAPC   C3510014   2.133   4.040   2.659
  100SAPC   H5X10015   2.064   4.117   2.698
  100SAPC   H5Y10016   2.208   4.111   2.619
  100SAPC   C3610017   2.180   3.949   2.770
  100SAPC   H6X10018   2.262   3.886   2.730
  100SAPC   H6Y10019   2.099   3.886   2.811
  100SAPC   C3710020   2.244   4.020   2.894
  100SAPC   H7X10021   2.179   4.108   2.916
  100SAPC   H7Y10022   2.345   4.060   2.872
  100SAPC   C3810023   2.245   3.928   3.016
  100SAPC   H8X10024   2.299   3.833   2.993
  100SAPC   H8Y10025   2.142   3.890   3.029
  100SAPC   C3910026   2.298   4.002   3.141
  100SAPC   H9X10027   2.225   4.080   3.173
  100SAPC   H9Y10028   2.399   4.042   3.118
  100SAPC  C31010029   2.303   3.913   3.270
  100SAPC  H10X10030   2.351   3.969   3.353
  100SAPC  H10Y10031   2.365   3.824   3.246
  100SAPC  C31110032   2.169   3.855   3.313
  100SAPC  H11X10033   2.144   3.768   3.248
  100SAPC  H11Y10034   2.088   3.931   3.311
  100SAPC  C31210035   2.175   3.787   3.451
  100SAPC  H12X10036   2.149   3.871   3.518
  100SAPC  H12Y10037   2.279   3.752   3.466
  100SAPC  C31310038   2.071   3.674   3.479
  100SAPC  H13X10039   2.098   3.588   3.414
  100SAPC  H13Y10040   1.978   3.724   3.446
  100SAPC  C31410041   2.065   3.626   3.626
  100SAPC  H14X10042   2.074   3.710   3.698
  100SAPC  H14Y10043   2.161   3.569   3.634
  100SAPC  C31510044   1.942   3.536   3.667
  100SAPC  H15X10045   1.968   3.450   3.732
  100SAPC  H15Y10046   1.894   3.486   3.580
  100SAPC  C31610047   1.846   3.619   3.746
  100SAPC  H16X10048   1.779   3.667   3.672
  100SAPC  H16Y10049   1.903   3.698   3.800
  100SAPC  C31710050   1.753   3.549   3.846
  100SAPC  H17X10051   1.812   3.476   3.905
  100SAPC  H17Y10052   1.675   3.503   3.782
  100SAPC  C31810053   1.695   3.651   3.944
  100SAPC  H18X10054   1.647   3.729   3.882
  100SAPC  H18Y10055   1.787   3.699   3.984
  100SAPC  H18Z10056   1.643   3.600   4.029
  101OSM      N10057   4.356   3.062   7.015
  101OSM    C1510058   4.500   3.032   7.052
  101OSM   H15A10059   4.519   2.998   7.153
  101OSM   H15B10060   4.574   3.108   7.035
  101OSM   H15C10061   4.529   2.951   6.986
  101OSM    C1410062   4.271   2.936   7.026
  101OSM   H14A10063   4.293   2.891   7.122
  101OSM   H14B10064   4.302   2.862   6.953
  101OSM   H14C10065   4.169   2.967   7.009
  101OSM    C1310066   4.308   3.176   7.096
  101OSM   H13A10067   4.205   3.204   7.077
  101OSM   H13B10068   4.361   3.269   7.084
  101OSM   H13C10069   4.310   3.149   7.200
  101OSM    C1210070   4.355   3.106   6.870
  101OSM   H12A10071   4.431   3.182   6.863
  101OSM   H12B10072   4.264   3.162   6.855
  101OSM    C1110073   4.373   2.999   6.758
  101OSM   H11A10074   4.339   3.050   6.665
  101OSM   H11B10075   4.307   2.909   6.762
  101OSM      P10076   4.564   2.823   6.720
  101OSM    O1310077   4.708   2.834   6.686
  101OSM    O1410078   4.509   2.735   6.824
  101OSM    O1110079   4.494   2.790   6.587
  101OSM    O1210080   4.513   2.970   6.755
  101OSM    C1S10081   4.516   2.857   6.464
  101OSM    H1S10082   4.626   2.857   6.448
  101OSM    H1T10083   4.479   2.961   6.477
  101OSM     NF10084   4.472   2.862   6.228
  101OSM    HNF10085   4.402   2.922   6.190
  101OSM    C2S10086   4.442   2.797   6.353
  101OSM    H2S10087   4.473   2.691   6.342
  101OSM    C3S10088   4.295   2.798   6.395
  101OSM    H3S10089   4.270   2.900   6.432
  101OSM     O310090   4.262   2.713   6.502
  101OSM    HO310091   4.346   2.700   6.546
  101OSM    C4S10092   4.216   2.751   6.278
  101OSM    H4S10093   4.232   2.646   6.248
  101OSM    C5S10094   4.126   2.824   6.208
  101OSM    H5S10095   4.096   2.915   6.263
  101OSM    C6S10096   4.035   2.770   6.096
  101OSM    H6S10097   3.929   2.795   6.116
  101OSM    H6T10098   4.046   2.660   6.084
  101OSM    C7S10099   4.070   2.844   5.964
  101OSM    H7S10100   4.176   2.832   5.932
  101OSM    H7T10101   4.044   2.952   5.972
  101OSM    C8S10102   3.988   2.790   5.849
  101OSM    H8S10103   3.882   2.822   5.848
  101OSM    H8T10104   3.995   2.681   5.831
  101OSM    C9S10105   4.065   2.835   5.718
  101OSM    H9S10106   4.167   2.791   5.709
  101OSM    H9T10107   4.071   2.946   5.725
  101OSM   C10S10108   3.983   2.785   5.593
  101OSM   H10S10109   3.882   2.830   5.598
  101OSM   H10T10110   3.974   2.677   5.617
  101OSM   C11S10111   4.052   2.816   5.464
  101OSM   H11S10112   4.153   2.771   5.462
  101OSM   H11T10113   4.050   2.927   5.456
  101OSM   C12S10114   3.966   2.766   5.351
  101OSM   H12S10115   3.863   2.804   5.366
  101OSM   H12T10116   3.966   2.656   5.333
  101OSM   C13S10117   4.013   2.814   5.214
  101OSM   H13S10118   4.122   2.798   5.222
  101OSM   H13T10119   3.991   2.923   5.212
  101OSM   C14S10120   3.949   2.741   5.100
  101OSM   H14S10121   3.838   2.740   5.092
  101OSM   H14T10122   3.978   2.633   5.099
  101OSM   C15S10123   3.993   2.793   4.965
  101OSM   H15S10124   4.104   2.790   4.966
  101OSM   H15T10125   3.959   2.895   4.939
  101OSM   C16S10126   3.940   2.700   4.850
  101OSM   H16S10127   3.832   2.676   4.852
  101OSM   H16T10128   3.985   2.599   4.851
  101OSM   C17S10129   3.977   2.764   4.716
  101OSM   H17S10130   4.087   2.764   4.703
  101OSM   H17T10131   3.949   2.871   4.717
  101OSM   C18S10132   3.913   2.710   4.584
  101OSM   H18S10133   3.936   2.605   4.559
  101OSM   H18T10134   3.950   2.774   4.500
  101OSM   H18U10135   3.803   2.721   4.591
  101OSM    C1F10136   4.588   2.861   6.180
  101OSM     OF10137   4.672   2.779   6.225
  101OSM    C2F10138   4.630   2.962   6.070
  101OSM    H2F10139   4.605   3.064   6.105
  101OSM    H2G10140   4.565   2.929   5.986
  101OSM    C3F10141   4.778   2.963   6.025
  101OSM    H3F10142   4.798   2.864   5.980
  101OSM    H3G10143   4.834   2.969   6.121
  101OSM    C4F10144   4.820   3.082   5.938
  101OSM    H4F10145   4.930   3.098   5.933
  101OSM    H4G10146   4.781   3.174   5.986
  101OSM    C5F10147   4.775   3.065   5.782
  101OSM    H5F10148   4.806   3.162   5.739
  101OSM    H5G10149   4.667   3.042   5.772
  101OSM    C6F10150   4.850   2.955   5.702
  101OSM    H6F10151   4.861   2.860   5.758
  101OSM    H6G10152   4.956   2.975   5.676
  101OSM    C7F10153   4.763   2.937   5.576
  101OSM    H7F10154   4.734   3.042   5.556
  101OSM    H7G10155   4.674   2.879   5.609
  101OSM    C8F10156   4.832   2.880   5.446
  101OSM    H8F10157   4.867   2.777   5.470
  101OSM    H8G10158   4.919   2.946   5.427
  101OSM    C9F10159   4.739   2.869   5.328
  101OSM    H9F10160   4.654   2.799   5.339
  101OSM   C10F10161   4.744   2.948   5.217
  101OSM   H10F10162   4.660   2.944   5.146
  101OSM   C11F10163   4.856   3.051   5.181
  101OSM   H11F10164   4.938   3.052   5.255
  101OSM   H11G10165   4.820   3.157   5.183
  101OSM   C12F10166   4.923   3.022   5.044
  101OSM   H12F10167   4.964   2.919   5.040
  101OSM   H12G10168   5.009   3.092   5.055
  101OSM   C13F10169   4.845   3.043   4.919
  101OSM   H13F10170   4.792   2.946   4.912
  101OSM   H13G10171   4.915   3.057   4.834
  101OSM   C14F10172   4.752   3.161   4.927
  101OSM   H14F10173   4.798   3.261   4.940
  101OSM   H14G10174   4.688   3.158   5.018
  101OSM   C15F10175   4.652   3.170   4.810
  101OSM   H15F10176   4.590   3.258   4.836
  101OSM   H15G10177   4.588   3.080   4.813
  101OSM   C16F10178   4.713   3.192   4.671
  101OSM   H16F10179   4.793   3.121   4.644
  101OSM   H16G10180   4.769   3.288   4.665
  101OSM   C17F10181   4.609   3.197   4.561
  101OSM   H17F10182   4.542   3.285   4.561
  101OSM   H17G10183   4.561   3.099   4.581
  101OSM   C18F10184   4.670   3.182   4.425
  101OSM   H18F10185   4.745   3.101   4.422
  101OSM   H18G10186   4.720   3.276   4.394
  101OSM   H18H10187   4.593   3.166   4.347
  102OSM      N10188   4.830   2.506   6.867
  102OSM    C1510189   4.848   2.629   6.952
  102OSM   H15A10190   4.934   2.684   6.917
  102OSM   H15B10191   4.868   2.608   7.056
  102OSM   H15C10192   4.756   2.686   6.944
  102OSM    C1410193   4.944   2.410   6.896
  102OSM   H14A10194   4.930   2.321   6.836
  102OSM   H14B10195   4.951   2.375   6.998
  102OSM   H14C10196   5.040   2.454   6.871
  102OSM    C1310197   4.703   2.452   6.919
  102OSM   H13A10198   4.622   2.514   6.885
  102OSM   H13B10199   4.705   2.451   7.027
  102OSM   H13C10200   4.682   2.354   6.878
  102OSM    C1210201   4.823   2.542   6.722
  102OSM   H12A10202   4.923   2.556   6.684
  102OSM   H12B10203   4.784   2.642   6.709
  102OSM    C1110204   4.750   2.446   6.627
  102OSM   H11A10205   4.732   2.494   6.529
  102OSM   H11B10206   4.646   2.428   6.661
  102OSM      P10207   4.759   2.193   6.583
  102OSM    O1310208   4.873   2.104   6.552
  102OSM    O1410209   4.669   2.165   6.690
  102OSM    O1110210   4.673   2.224   6.459
  102OSM    O1210211   4.823   2.329   6.612
  102OSM    C1S10212   4.745   2.267   6.339
  102OSM    H1S10213   4.821   2.190   6.314
  102OSM    H1T10214   4.794   2.364   6.364
  102OSM     NF10215   4.728   2.341   6.103
  102OSM    HNF10216   4.746   2.439   6.096
  102OSM    C2S10217   4.652   2.290   6.222
  102OSM    H2S10218   4.622   2.189   6.188
  102OSM    C3S10219   4.524   2.364   6.267
  102OSM    H3S10220   4.558   2.456   6.319
  102OSM     O310221   4.445   2.295   6.361
  102OSM    HO310222   4.494   2.217   6.388
  102OSM    C4S10223   4.447   2.399   6.141
  102OSM    H4S10224   4.379   2.332   6.086
  102OSM    C5S10225   4.464   2.519   6.082
  102OSM    H5S10226   4.538   2.592   6.118
  102OSM    C6S10227   4.400   2.568   5.957
  102OSM    H6S10228   4.390   2.679   5.960
  102OSM    H6T10229   4.299   2.523   5.951
  102OSM    C7S10230   4.473   2.541   5.824
  102OSM    H7S10231   4.480   2.431   5.813
  102OSM    H7T10232   4.578   2.575   5.827
  102OSM    C8S10233   4.402   2.612   5.712
  102OSM    H8S10234   4.421   2.720   5.723
  102OSM    H8T10235   4.291   2.598   5.706
  102OSM    C9S10236   4.456   2.564   5.580
  102OSM    H9S10237   4.458   2.452   5.582
  102OSM    H9T10238   4.555   2.614   5.575
  102OSM   C10S10239   4.367   2.599   5.462
  102OSM   H10S10240   4.347   2.708   5.473
  102OSM   H10T10241   4.278   2.537   5.482
  102OSM   C11S10242   4.432   2.570   5.322
  102OSM   H11S10243   4.448   2.461   5.304
  102OSM   H11T10244   4.527   2.624   5.337
  102OSM   C12S10245   4.371   2.638   5.190
  102OSM   H12S10246   4.336   2.742   5.209
  102OSM   H12T10247   4.283   2.584   5.150
  102OSM   C13S10248   4.488   2.647   5.084
  102OSM   H13S10249   4.537   2.547   5.071
  102OSM   H13T10250   4.569   2.716   5.116
  102OSM   C14S10251   4.443   2.712   4.953
  102OSM   H14S10252   4.399   2.814   4.961
  102OSM   H14T10253   4.365   2.645   4.910
  102OSM   C15S10254   4.563   2.729   4.855
  102OSM   H15S10255   4.607   2.632   4.825
  102OSM   H15T10256   4.638   2.790   4.910
  102OSM   C16S10257   4.535   2.802   4.724
  102OSM   H16S10258   4.624   2.836   4.666
  102OSM   H16T10259   4.490   2.898   4.756
  102OSM   C17S10260   4.438   2.724   4.634
  102OSM   H17S10261   4.349   2.717   4.699
  102OSM   H17T10262   4.468   2.619   4.614
  102OSM   C18S10263   4.399   2.800   4.510
  102OSM   H18S10264   4.489   2.807   4.445
  102OSM   H18T10265   4.365   2.904   4.528
  102OSM   H18U10266   4.314   2.751   4.457
  102OSM    C1F10267   4.812   2.253   6.042
  102OSM     OF10268   4.813   2.138   6.076
  102OSM    C2F10269   4.909   2.306   5.938
  102OSM    H2F10270   4.974   2.223   5.903
  102OSM    H2G10271   4.976   2.387   5.974
  102OSM    C3F10272   4.834   2.370   5.825
  102OSM    H3F10273   4.768   2.447   5.871
  102OSM    H3G10274   4.772   2.289   5.779
  102OSM    C4F10275   4.934   2.431   5.722
  102OSM    H4F10276   4.984   2.349   5.667
  102OSM    H4G10277   5.011   2.488   5.777
  102OSM    C5F10278   4.872   2.512   5.602
  102OSM    H5F10279   4.956   2.556   5.543
  102OSM    H5G10280   4.807   2.592   5.641
  102OSM    C6F10281   4.770   2.447   5.504
  102OSM    H6F10282   4.725   2.527   5.442
  102OSM    H6G10283   4.686   2.405   5.563
  102OSM    C7F10284   4.831   2.334   5.411
  102OSM    H7F10285   4.748   2.274   5.370
  102OSM    H7G10286   4.883   2.250   5.461
  102OSM    C8F10287   4.931   2.385   5.301
  102OSM    H8F10288   4.968   2.294   5.249
  102OSM    H8G10289   5.022   2.431   5.347
  102OSM    C9F10290   4.875   2.488   5.202
  102OSM    H9F10291   4.836   2.580   5.248
  102OSM   C10F10292   4.847   2.466   5.072
  102OSM   H10F10293   4.814   2.546   5.004
  102OSM   C11F10294   4.865   2.333   4.999
  102OSM   H11F10295   4.806   2.251   5.046
  102OSM   H11G10296   4.971   2.298   5.006
  102OSM   C12F10297   4.822   2.344   4.851
  102OSM   H12F10298   4.720   2.389   4.841
  102OSM   H12G10299   4.821   2.242   4.807
  102OSM   C13F10300   4.925   2.431   4.769
  102OSM   H13F10301   4.969   2.368   4.689
  102OSM   H13G10302   5.010   2.445   4.839
  102OSM   C14F10303   4.879   2.568   4.717
  102OSM   H14F10304   4.876   2.643   4.799
  102OSM   H14G10305   4.783   2.551   4.665
  102OSM   C15F10306   4.977   2.614   4.604
  102OSM   H15F10307   4.988   2.528   4.534
  102OSM   H15G10308   5.076   2.639   4.647
  102OSM   C16F10309   4.934   2.736   4.528
  102OSM   H16F10310   5.019   2.804   4.505
  102OSM   H16G10311   4.873   2.801   4.594
  102OSM   C17F10312   4.855   2.695   4.400
  102OSM   H17F10313   4.767   2.630   4.423
  102OSM   H17G10314   4.926   2.654   4.326
  102OSM   C18F10315   4.801   2.828   4.346
  102OSM   H18F10316   4.712   2.864   4.402
  102OSM   H18G10317   4.760   2.814   4.244
  102OSM   H18H10318   4.885   2.900   4.334
  103OSM      N10319   4.560   5.140   6.895
  103OSM    C1510320   4.655   5.254   6.902
  103OSM   H15A10321   4.609   5.344   6.941
  103OSM   H15B10322   4.705   5.279   6.809
  103OSM   H15C10323   4.723   5.225   6.980
  103OSM    C1410324   4.538   5.087   7.036
  103OSM   H14A10325   4.630   5.053   7.080
  103OSM   H14B10326   4.462   5.011   7.038
  103OSM   H14C10327   4.487   5.166   7.091
  103OSM    C1310328   4.427   5.191   6.843
  103OSM   H13A10329   4.458   5.274   6.781
  103OSM   H13B10330   4.367   5.243   6.916
  103OSM   H13C10331   4.374   5.118   6.785
  103OSM    C1210332   4.618   5.026   6.819
  103OSM   H12A10333   4.573   4.933   6.853
  103OSM   H12B10334   4.721   5.010   6.846
  103OSM    C1110335   4.602   5.034   6.661
  103OSM   H11A10336   4.680   4.973   6.610
  103OSM   H11B10337   4.617   5.137   6.622
  103OSM      P10338   4.410   4.847   6.622
  103OSM    O1310339   4.495   4.766   6.709
  103OSM    O1410340   4.263   4.850   6.642
  103OSM    O1110341   4.428   4.815   6.477
  103OSM    O1210342   4.469   4.998   6.623
  103OSM    C1S10343   4.448   4.680   6.425
  103OSM    H1S10344   4.357   4.618   6.441
  103OSM    H1T10345   4.528   4.635   6.488
  103OSM     NF10346   4.506   4.526   6.239
  103OSM    HNF10347   4.592   4.477   6.234
  103OSM    C2S10348   4.510   4.664   6.280
  103OSM    H2S10349   4.448   4.714   6.202
  103OSM    C3S10350   4.658   4.719   6.278
  103OSM    H3S10351   4.722   4.652   6.339
  103OSM     O310352   4.681   4.847   6.342
  103OSM    HO310353   4.598   4.867   6.385
  103OSM    C4S10354   4.708   4.708   6.136
  103OSM    H4S10355   4.761   4.616   6.107
  103OSM    C5S10356   4.690   4.806   6.051
  103OSM    H5S10357   4.638   4.895   6.090
  103OSM    C6S10358   4.744   4.824   5.915
  103OSM    H6S10359   4.838   4.884   5.917
  103OSM    H6T10360   4.677   4.893   5.859
  103OSM    C7S10361   4.763   4.696   5.834
  103OSM    H7S10362   4.672   4.632   5.831
  103OSM    H7T10363   4.849   4.631   5.864
  103OSM    C8S10364   4.809   4.719   5.691
  103OSM    H8S10365   4.727   4.761   5.629
  103OSM    H8T10366   4.821   4.613   5.659
  103OSM    C9S10367   4.936   4.794   5.670
  103OSM    H9S10368   5.003   4.778   5.757
  103OSM    H9T10369   4.922   4.905   5.669
  103OSM   C10S10370   5.013   4.760   5.547
  103OSM   H10S10371   5.047   4.656   5.565
  103OSM   H10T10372   5.092   4.834   5.522
  103OSM   C11S10373   4.929   4.760   5.413
  103OSM   H11S10374   4.893   4.862   5.388
  103OSM   H11T10375   4.846   4.686   5.419
  103OSM   C12S10376   5.025   4.725   5.299
  103OSM   H12S10377   5.067   4.626   5.325
  103OSM   H12T10378   5.110   4.795   5.317
  103OSM   C13S10379   4.977   4.755   5.158
  103OSM   H13S10380   5.063   4.750   5.088
  103OSM   H13T10381   4.939   4.860   5.157
  103OSM   C14S10382   4.870   4.658   5.112
  103OSM   H14S10383   4.773   4.693   5.152
  103OSM   H14T10384   4.889   4.554   5.144
  103OSM   C15S10385   4.859   4.657   4.965
  103OSM   H15S10386   4.779   4.589   4.930
  103OSM   H15T10387   4.953   4.633   4.910
  103OSM   C16S10388   4.814   4.802   4.907
  103OSM   H16S10389   4.882   4.882   4.944
  103OSM   H16T10390   4.712   4.820   4.947
  103OSM   C17S10391   4.798   4.795   4.752
  103OSM   H17S10392   4.724   4.716   4.730
  103OSM   H17T10393   4.891   4.765   4.698
  103OSM   C18S10394   4.765   4.936   4.698
  103OSM   H18S10395   4.850   5.005   4.713
  103OSM   H18T10396   4.675   4.981   4.747
  103OSM   H18U10397   4.740   4.940   4.590
  103OSM    C1F10398   4.389   4.467   6.205
  103OSM     OF10399   4.281   4.516   6.230
  103OSM    C2F10400   4.390   4.334   6.145
  103OSM    H2F10401   4.290   4.300   6.112
  103OSM    H2G10402   4.420   4.268   6.229
  103OSM    C3F10403   4.486   4.319   6.023
  103OSM    H3F10404   4.469   4.214   5.991
  103OSM    H3G10405   4.590   4.339   6.057
  103OSM    C4F10406   4.444   4.415   5.918
  103OSM    H4F10407   4.477   4.516   5.952
  103OSM    H4G10408   4.335   4.422   5.897
  103OSM    C5F10409   4.498   4.385   5.776
  103OSM    H5F10410   4.492   4.474   5.709
  103OSM    H5G10411   4.430   4.316   5.721
  103OSM    C6F10412   4.640   4.336   5.761
  103OSM    H6F10413   4.673   4.287   5.855
  103OSM    H6G10414   4.712   4.418   5.740
  103OSM    C7F10415   4.659   4.228   5.653
  103OSM    H7F10416   4.594   4.139   5.670
  103OSM    H7G10417   4.764   4.201   5.678
  103OSM    C8F10418   4.645   4.282   5.513
  103OSM    H8F10419   4.542   4.319   5.491
  103OSM    H8G10420   4.674   4.196   5.449
  103OSM    C9F10421   4.728   4.401   5.468
  103OSM    H9F10422   4.696   4.497   5.509
  103OSM   C10F10423   4.844   4.395   5.395
  103OSM   H10F10424   4.872   4.486   5.339
  103OSM   C11F10425   4.905   4.268   5.338
  103OSM   H11F10426   4.836   4.181   5.336
  103OSM   H11G10427   4.997   4.246   5.396
  103OSM   C12F10428   4.951   4.272   5.188
  103OSM   H12F10429   4.867   4.318   5.130
  103OSM   H12G10430   4.971   4.168   5.154
  103OSM   C13F10431   5.083   4.349   5.159
  103OSM   H13F10432   5.162   4.304   5.223
  103OSM   H13G10433   5.076   4.452   5.201
  103OSM   C14F10434   5.119   4.354   5.017
  103OSM   H14F10435   5.026   4.353   4.956
  103OSM   H14G10436   5.162   4.261   4.974
  103OSM   C15F10437   5.203   4.475   4.973
  103OSM   H15F10438   5.289   4.474   5.043
  103OSM   H15G10439   5.155   4.573   4.996
  103OSM   C16F10440   5.259   4.478   4.831
  103OSM   H16F10441   5.295   4.375   4.811
  103OSM   H16G10442   5.339   4.554   4.816
  103OSM   C17F10443   5.157   4.517   4.718
  103OSM   H17F10444   5.121   4.618   4.749
  103OSM   H17G10445   5.093   4.426   4.724
  103OSM   C18F10446   5.219   4.523   4.572
  103OSM   H18F10447   5.299   4.599   4.567
  103OSM   H18G10448   5.133   4.543   4.504
  103OSM   H18H10449   5.271   4.428   4.546
  104OSM      N10450   5.682   3.432   6.943
  104OSM    C1510451   5.772   3.548   6.912
  104OSM   H15A10452   5.737   3.625   6.845
  104OSM   H15B10453   5.871   3.513   6.886
  104OSM   H15C10454   5.787   3.599   7.006
  104OSM    C1410455   5.542   3.487   6.965
  104OSM   H14A10456   5.547   3.545   7.056
  104OSM   H14B10457   5.482   3.398   6.976
  104OSM   H14C10458   5.514   3.555   6.887
  104OSM    C1310459   5.684   3.340   6.824
  104OSM   H13A10460   5.622   3.252   6.836
  104OSM   H13B10461   5.786   3.315   6.800
  104OSM   H13C10462   5.645   3.398   6.742
  104OSM    C1210463   5.739   3.361   7.057
  104OSM   H12A10464   5.737   3.423   7.146
  104OSM   H12B10465   5.843   3.342   7.038
  104OSM    C1110466   5.680   3.233   7.101
  104OSM   H11A10467   5.569   3.238   7.102
  104OSM   H11B10468   5.700   3.225   7.210
  104OSM      P10469   5.808   3.002   7.055
  104OSM    O1310470   5.914   3.056   7.144
  104OSM    O1410471   5.736   2.879   7.092
  104OSM    O1110472   5.876   2.974   6.918
  104OSM    O1210473   5.714   3.124   7.024
  104OSM    C1S10474   5.812   3.023   6.796
  104OSM    H1S10475   5.833   3.132   6.784
  104OSM    H1T10476   5.702   3.014   6.809
  104OSM     NF10477   5.815   2.993   6.543
  104OSM    HNF10478   5.748   2.938   6.494
  104OSM    C2S10479   5.865   2.936   6.671
  104OSM    H2S10480   5.975   2.948   6.675
  104OSM    C3S10481   5.844   2.784   6.694
  104OSM    H3S10482   5.734   2.764   6.692
  104OSM     O310483   5.878   2.727   6.817
  104OSM    HO310484   5.897   2.806   6.869
  104OSM    C4S10485   5.894   2.696   6.575
  104OSM    H4S10486   5.827   2.683   6.490
  104OSM    C5S10487   6.012   2.624   6.572
  104OSM    H5S10488   6.088   2.644   6.649
  104OSM    C6S10489   6.046   2.534   6.455
  104OSM    H6S10490   5.975   2.450   6.440
  104OSM    H6T10491   6.149   2.493   6.464
  104OSM    C7S10492   6.047   2.607   6.319
  104OSM    H7S10493   6.082   2.713   6.319
  104OSM    H7T10494   5.940   2.629   6.296
  104OSM    C8S10495   6.116   2.528   6.213
  104OSM    H8S10496   6.075   2.425   6.216
  104OSM    H8T10497   6.223   2.511   6.239
  104OSM    C9S10498   6.113   2.594   6.072
  104OSM    H9S10499   6.015   2.645   6.061
  104OSM    H9T10500   6.125   2.515   5.995
  104OSM   C10S10501   6.233   2.685   6.049
  104OSM   H10S10502   6.323   2.653   6.107
  104OSM   H10T10503   6.210   2.785   6.091
  104OSM   C11S10504   6.262   2.687   5.903
  104OSM   H11S10505   6.167   2.679   5.846
  104OSM   H11T10506   6.322   2.594   5.888
  104OSM   C12S10507   6.344   2.811   5.852
  104OSM   H12S10508   6.437   2.830   5.909
  104OSM   H12T10509   6.272   2.893   5.870
  104OSM   C13S10510   6.382   2.804   5.700
  104OSM   H13S10511   6.434   2.707   5.682
  104OSM   H13T10512   6.446   2.894   5.684
  104OSM   C14S10513   6.259   2.806   5.599
  104OSM   H14S10514   6.198   2.893   5.629
  104OSM   H14T10515   6.203   2.717   5.635
  104OSM   C15S10516   6.291   2.787   5.449
  104OSM   H15S10517   6.198   2.794   5.389
  104OSM   H15T10518   6.337   2.687   5.431
  104OSM   C16S10519   6.385   2.886   5.390
  104OSM   H16S10520   6.489   2.869   5.424
  104OSM   H16T10521   6.350   2.982   5.433
  104OSM   C17S10522   6.389   2.884   5.236
  104OSM   H17S10523   6.457   2.961   5.193
  104OSM   H17T10524   6.288   2.915   5.203
  104OSM   C18S10525   6.419   2.748   5.169
  104OSM   H18S10526   6.349   2.675   5.215
  104OSM   H18T10527   6.523   2.719   5.198
  104OSM   H18U10528   6.399   2.763   5.061
  104OSM    C1F10529   5.840   3.115   6.502
  104OSM     OF10530   5.931   3.181   6.551
  104OSM    C2F10531   5.750   3.167   6.400
  104OSM    H2F10532   5.666   3.216   6.453
  104OSM    H2G10533   5.703   3.084   6.344
  104OSM    C3F10534   5.817   3.269   6.295
  104OSM    H3F10535   5.905   3.221   6.248
  104OSM    H3G10536   5.872   3.350   6.347
  104OSM    C4F10537   5.734   3.339   6.190
  104OSM    H4F10538   5.808   3.406   6.141
  104OSM    H4G10539   5.650   3.397   6.232
  104OSM    C5F10540   5.677   3.238   6.091
  104OSM    H5F10541   5.613   3.175   6.157
  104OSM    H5G10542   5.755   3.174   6.045
  104OSM    C6F10543   5.594   3.306   5.986
  104OSM    H6F10544   5.648   3.396   5.953
  104OSM    H6G10545   5.498   3.348   6.023
  104OSM    C7F10546   5.545   3.220   5.874
  104OSM    H7F10547   5.486   3.135   5.914
  104OSM    H7G10548   5.634   3.170   5.831
  104OSM    C8F10549   5.470   3.297   5.767
  104OSM    H8F10550   5.543   3.341   5.696
  104OSM    H8G10551   5.407   3.382   5.803
  104OSM    C9F10552   5.370   3.205   5.703
  104OSM    H9F10553   5.269   3.205   5.748
  104OSM   C10F10554   5.394   3.135   5.587
  104OSM   H10F10555   5.320   3.061   5.554
  104OSM   C11F10556   5.532   3.140   5.518
  104OSM   H11F10557   5.581   3.043   5.541
  104OSM   H11G10558   5.609   3.212   5.552
  104OSM   C12F10559   5.517   3.147   5.367
  104OSM   H12F10560   5.453   3.060   5.338
  104OSM   H12G10561   5.617   3.145   5.318
  104OSM   C13F10562   5.457   3.280   5.318
  104OSM   H13F10563   5.532   3.360   5.338
  104OSM   H13G10564   5.370   3.317   5.377
  104OSM   C14F10565   5.413   3.268   5.171
  104OSM   H14F10566   5.314   3.217   5.175
  104OSM   H14G10567   5.481   3.208   5.107
  104OSM   C15F10568   5.393   3.405   5.101
  104OSM   H15F10569   5.304   3.456   5.142
  104OSM   H15G10570   5.362   3.390   4.995
  104OSM   C16F10571   5.513   3.497   5.092
  104OSM   H16F10572   5.592   3.458   5.025
  104OSM   H16G10573   5.563   3.514   5.190
  104OSM   C17F10574   5.476   3.639   5.049
  104OSM   H17F10575   5.390   3.683   5.103
  104OSM   H17G10576   5.442   3.641   4.944
  104OSM   C18F10577   5.589   3.742   5.049
  104OSM   H18F10578   5.652   3.710   4.963
  104OSM   H18G10579   5.649   3.737   5.142
  104OSM   H18H10580   5.561   3.847   5.028
  105OSM      N10581   6.015   4.020   6.813
  105OSM    C1510582   5.938   3.902   6.753
  105OSM   H15A10583   6.000   3.820   6.721
  105OSM   H15B10584   5.879   3.934   6.668
  105OSM   H15C10585   5.871   3.854   6.823
  105OSM    C1410586   5.914   4.117   6.869
  105OSM   H14A10587   5.857   4.068   6.947
  105OSM   H14B10588   5.837   4.133   6.796
  105OSM   H14C10589   5.956   4.206   6.912
  105OSM    C1310590   6.104   3.969   6.931
  105OSM   H13A10591   6.180   4.038   6.964
  105OSM   H13B10592   6.166   3.890   6.892
  105OSM   H13C10593   6.050   3.928   7.015
  105OSM    C1210594   6.112   4.083   6.708
  105OSM   H12A10595   6.162   3.997   6.668
  105OSM   H12B10596   6.181   4.147   6.762
  105OSM    C1110597   6.060   4.162   6.594
  105OSM   H11A10598   6.133   4.215   6.529
  105OSM   H11B10599   6.005   4.246   6.642
  105OSM      P10600   6.024   3.997   6.392
  105OSM    O1310601   6.031   3.853   6.438
  105OSM    O1410602   5.931   4.022   6.279
  105OSM    O1110603   6.166   4.055   6.364
  105OSM    O1210604   5.980   4.076   6.515
  105OSM    C1S10605   6.260   3.965   6.300
  105OSM    H1S10606   6.264   3.862   6.340
  105OSM    H1T10607   6.363   4.001   6.321
  105OSM     NF10608   6.358   3.885   6.079
  105OSM    HNF10609   6.451   3.918   6.064
  105OSM    C2S10610   6.267   3.979   6.141
  105OSM    H2S10611   6.169   3.962   6.092
  105OSM    C3S10612   6.292   4.126   6.096
  105OSM    H3S10613   6.381   4.154   6.157
  105OSM     O310614   6.194   4.219   6.145
  105OSM    HO310615   6.149   4.173   6.217
  105OSM    C4S10616   6.319   4.141   5.949
  105OSM    H4S10617   6.426   4.151   5.924
  105OSM    C5S10618   6.228   4.131   5.856
  105OSM    H5S10619   6.128   4.105   5.893
  105OSM    C6S10620   6.259   4.144   5.711
  105OSM    H6S10621   6.191   4.220   5.665
  105OSM    H6T10622   6.247   4.049   5.656
  105OSM    C7S10623   6.386   4.218   5.668
  105OSM    H7S10624   6.481   4.175   5.708
  105OSM    H7T10625   6.395   4.325   5.698
  105OSM    C8S10626   6.417   4.209   5.517
  105OSM    H8S10627   6.428   4.100   5.499
  105OSM    H8T10628   6.508   4.263   5.482
  105OSM    C9S10629   6.300   4.259   5.438
  105OSM    H9S10630   6.237   4.335   5.489
  105OSM    H9T10631   6.232   4.181   5.400
  105OSM   C10S10632   6.348   4.333   5.308
  105OSM   H10S10633   6.419   4.410   5.346
  105OSM   H10T10634   6.260   4.389   5.269
  105OSM   C11S10635   6.401   4.230   5.207
  105OSM   H11S10636   6.314   4.164   5.188
  105OSM   H11T10637   6.472   4.160   5.257
  105OSM   C12S10638   6.457   4.286   5.079
  105OSM   H12S10639   6.542   4.222   5.048
  105OSM   H12T10640   6.501   4.387   5.093
  105OSM   C13S10641   6.350   4.271   4.967
  105OSM   H13S10642   6.252   4.289   5.016
  105OSM   H13T10643   6.369   4.167   4.935
  105OSM   C14S10644   6.376   4.366   4.847
  105OSM   H14S10645   6.339   4.320   4.753
  105OSM   H14T10646   6.482   4.393   4.829
  105OSM   C15S10647   6.304   4.498   4.864
  105OSM   H15S10648   6.333   4.532   4.966
  105OSM   H15T10649   6.195   4.478   4.872
  105OSM   C16S10650   6.320   4.606   4.759
  105OSM   H16S10651   6.426   4.620   4.730
  105OSM   H16T10652   6.276   4.705   4.785
  105OSM   C17S10653   6.237   4.575   4.636
  105OSM   H17S10654   6.131   4.562   4.663
  105OSM   H17T10655   6.257   4.477   4.587
  105OSM   C18S10656   6.251   4.678   4.523
  105OSM   H18S10657   6.221   4.779   4.558
  105OSM   H18T10658   6.191   4.661   4.431
  105OSM   H18U10659   6.352   4.681   4.478
  105OSM    C1F10660   6.330   3.757   6.073
  105OSM     OF10661   6.220   3.722   6.123
  105OSM    C2F10662   6.437   3.661   6.015
  105OSM    H2F10663   6.432   3.568   6.075
  105OSM    H2G10664   6.538   3.707   6.016
  105OSM    C3F10665   6.392   3.612   5.877
  105OSM    H3F10666   6.288   3.573   5.887
  105OSM    H3G10667   6.460   3.527   5.856
  105OSM    C4F10668   6.406   3.687   5.741
  105OSM    H4F10669   6.361   3.788   5.742
  105OSM    H4G10670   6.345   3.627   5.669
  105OSM    C5F10671   6.546   3.707   5.692
  105OSM    H5F10672   6.599   3.613   5.666
  105OSM    H5G10673   6.603   3.771   5.763
  105OSM    C6F10674   6.548   3.786   5.552
  105OSM    H6F10675   6.481   3.874   5.555
  105OSM    H6G10676   6.499   3.718   5.478
  105OSM    C7F10677   6.686   3.823   5.505
  105OSM    H7F10678   6.765   3.746   5.513
  105OSM    H7G10679   6.722   3.902   5.574
  105OSM    C8F10680   6.693   3.881   5.361
  105OSM    H8F10681   6.794   3.927   5.353
  105OSM    H8G10682   6.608   3.952   5.348
  105OSM    C9F10683   6.677   3.775   5.265
  105OSM    H9F10684   6.739   3.692   5.302
  105OSM   C10F10685   6.590   3.756   5.169
  105OSM   H10F10686   6.589   3.659   5.117
  105OSM   C11F10687   6.489   3.855   5.126
  105OSM   H11F10688   6.490   3.943   5.194
  105OSM   H11G10689   6.390   3.808   5.109
  105OSM   C12F10690   6.532   3.922   4.999
  105OSM   H12F10691   6.630   3.974   5.002
  105OSM   H12G10692   6.456   3.993   4.960
  105OSM   C13F10693   6.539   3.818   4.884
  105OSM   H13F10694   6.445   3.760   4.877
  105OSM   H13G10695   6.625   3.753   4.912
  105OSM   C14F10696   6.551   3.882   4.745
  105OSM   H14F10697   6.634   3.957   4.745
  105OSM   H14G10698   6.457   3.939   4.731
  105OSM   C15F10699   6.565   3.779   4.632
  105OSM   H15F10700   6.484   3.703   4.640
  105OSM   H15G10701   6.662   3.728   4.650
  105OSM   C16F10702   6.567   3.846   4.502
  105OSM   H16F10703   6.651   3.915   4.483
  105OSM   H16G10704   6.482   3.917   4.509
  105OSM   C17F10705   6.549   3.751   4.381
  105OSM   H17F10706   6.531   3.804   4.285
  105OSM   H17G10707   6.456   3.694   4.402
  105OSM   C18F10708   6.671   3.659   4.337
  105OSM   H18F10709   6.701   3.581   4.409
  105OSM   H18G10710   6.762   3.713   4.302
  105OSM   H18H10711   6.635   3.612   4.243
  106OSM      N10712   4.597   1.811   6.986
  106OSM    C1510713   4.743   1.802   7.002
  106OSM   H15A10714   4.785   1.732   6.930
  106OSM   H15B10715   4.765   1.775   7.104
  106OSM   H15C10716   4.790   1.895   6.974
  106OSM    C1410717   4.539   1.675   6.992
  106OSM   H14A10718   4.600   1.604   6.938
  106OSM   H14B10719   4.442   1.665   6.946
  106OSM   H14C10720   4.516   1.653   7.095
  106OSM    C1310721   4.533   1.887   7.098
  106OSM   H13A10722   4.561   1.848   7.195
  106OSM   H13B10723   4.428   1.866   7.090
  106OSM   H13C10724   4.559   1.990   7.082
  106OSM    C1210725   4.561   1.873   6.852
  106OSM   H12A10726   4.614   1.967   6.845
  106OSM   H12B10727   4.456   1.897   6.841
  106OSM    C1110728   4.595   1.790   6.724
  106OSM   H11A10729   4.565   1.838   6.628
  106OSM   H11B10730   4.514   1.715   6.723
  106OSM      P10731   4.744   1.613   6.618
  106OSM    O1310732   4.878   1.559   6.605
  106OSM    O1410733   4.641   1.511   6.648
  106OSM    O1110734   4.711   1.684   6.479
  106OSM    O1210735   4.732   1.736   6.714
  106OSM    C1S10736   4.783   1.801   6.436
  106OSM    H1S10737   4.878   1.803   6.494
  106OSM    H1T10738   4.724   1.895   6.446
  106OSM     NF10739   4.909   1.899   6.247
  106OSM    HNF10740   4.866   1.979   6.204
  106OSM    C2S10741   4.816   1.789   6.282
  106OSM    H2S10742   4.866   1.692   6.264
  106OSM    C3S10743   4.680   1.783   6.200
  106OSM    H3S10744   4.628   1.881   6.207
  106OSM     O310745   4.580   1.685   6.250
  106OSM    HO310746   4.625   1.646   6.325
  106OSM    C4S10747   4.719   1.743   6.057
  106OSM    H4S10748   4.750   1.638   6.046
  106OSM    C5S10749   4.714   1.816   5.948
  106OSM    H5S10750   4.669   1.917   5.944
  106OSM    C6S10751   4.756   1.760   5.818
  106OSM    H6S10752   4.695   1.825   5.751
  106OSM    H6T10753   4.718   1.656   5.806
  106OSM    C7S10754   4.898   1.770   5.756
  106OSM    H7S10755   4.887   1.712   5.663
  106OSM    H7T10756   4.967   1.728   5.833
  106OSM    C8S10757   4.943   1.920   5.740
  106OSM    H8S10758   5.052   1.900   5.729
  106OSM    H8T10759   4.919   1.976   5.832
  106OSM    C9S10760   4.887   1.991   5.618
  106OSM    H9S10761   4.923   2.095   5.612
  106OSM    H9T10762   4.777   1.986   5.635
  106OSM   C10S10763   4.927   1.918   5.484
  106OSM   H10S10764   4.858   1.836   5.455
  106OSM   H10T10765   5.019   1.860   5.505
  106OSM   C11S10766   4.947   2.008   5.366
  106OSM   H11S10767   5.009   2.097   5.393
  106OSM   H11T10768   4.845   2.043   5.340
  106OSM   C12S10769   4.995   1.939   5.233
  106OSM   H12S10770   4.938   1.846   5.212
  106OSM   H12T10771   5.094   1.898   5.263
  106OSM   C13S10772   5.006   2.029   5.112
  106OSM   H13S10773   5.039   2.132   5.138
  106OSM   H13T10774   4.907   2.056   5.071
  106OSM   C14S10775   5.090   1.978   4.999
  106OSM   H14S10776   5.200   1.986   5.007
  106OSM   H14T10777   5.085   2.047   4.912
  106OSM   C15S10778   5.048   1.838   4.938
  106OSM   H15S10779   5.054   1.757   5.014
  106OSM   H15T10780   5.119   1.820   4.853
  106OSM   C16S10781   4.905   1.855   4.887
  106OSM   H16S10782   4.908   1.926   4.801
  106OSM   H16T10783   4.835   1.885   4.968
  106OSM   C17S10784   4.848   1.729   4.830
  106OSM   H17S10785   4.743   1.753   4.806
  106OSM   H17T10786   4.843   1.635   4.889
  106OSM   C18S10787   4.920   1.689   4.705
  106OSM   H18S10788   5.022   1.647   4.722
  106OSM   H18T10789   4.937   1.779   4.642
  106OSM   H18U10790   4.868   1.611   4.646
  106OSM    C1F10791   5.033   1.889   6.291
  106OSM     OF10792   5.072   1.788   6.338
  106OSM    C2F10793   5.108   2.018   6.291
  106OSM    H2F10794   5.146   2.054   6.389
  106OSM    H2G10795   5.049   2.104   6.252
  106OSM    C3F10796   5.238   1.995   6.203
  106OSM    H3F10797   5.311   1.931   6.258
  106OSM    H3G10798   5.294   2.091   6.194
  106OSM    C4F10799   5.210   1.950   6.061
  106OSM    H4F10800   5.153   2.037   6.021
  106OSM    H4G10801   5.145   1.859   6.065
  106OSM    C5F10802   5.334   1.926   5.971
  106OSM    H5F10803   5.409   1.884   6.041
  106OSM    H5G10804   5.373   2.023   5.932
  106OSM    C6F10805   5.316   1.843   5.845
  106OSM    H6F10806   5.243   1.892   5.777
  106OSM    H6G10807   5.274   1.742   5.864
  106OSM    C7F10808   5.447   1.825   5.768
  106OSM    H7F10809   5.522   1.781   5.837
  106OSM    H7G10810   5.477   1.931   5.750
  106OSM    C8F10811   5.434   1.734   5.642
  106OSM    H8F10812   5.411   1.630   5.673
  106OSM    H8G10813   5.535   1.739   5.595
  106OSM    C9F10814   5.340   1.794   5.533
  106OSM    H9F10815   5.246   1.832   5.577
  106OSM   C10F10816   5.360   1.789   5.405
  106OSM   H10F10817   5.292   1.842   5.337
  106OSM   C11F10818   5.486   1.737   5.333
  106OSM   H11F10819   5.458   1.640   5.288
  106OSM   H11G10820   5.575   1.723   5.399
  106OSM   C12F10821   5.540   1.822   5.223
  106OSM   H12F10822   5.638   1.788   5.185
  106OSM   H12G10823   5.556   1.925   5.261
  106OSM   C13F10824   5.441   1.828   5.103
  106OSM   H13F10825   5.348   1.879   5.138
  106OSM   H13G10826   5.424   1.722   5.074
  106OSM   C14F10827   5.493   1.911   4.980
  106OSM   H14F10828   5.603   1.896   4.971
  106OSM   H14G10829   5.470   2.020   4.986
  106OSM   C15F10830   5.430   1.855   4.855
  106OSM   H15F10831   5.319   1.847   4.848
  106OSM   H15G10832   5.469   1.752   4.842
  106OSM   C16F10833   5.482   1.935   4.740
  106OSM   H16F10834   5.593   1.942   4.739
  106OSM   H16G10835   5.442   2.039   4.745
  106OSM   C17F10836   5.449   1.884   4.597
  106OSM   H17F10837   5.480   1.779   4.576
  106OSM   H17G10838   5.510   1.946   4.528
  106OSM   C18F10839   5.300   1.898   4.573
  106OSM   H18F10840   5.276   2.006   4.568
  106OSM   H18G10841   5.242   1.842   4.650
  106OSM   H18H10842   5.281   1.858   4.471
  107OSM      N10843   3.680   6.862   6.722
  107OSM    C1510844   3.554   6.824   6.788
  107OSM   H15A10845   3.577   6.747   6.859
  107OSM   H15B10846   3.479   6.785   6.721
  107OSM   H15C10847   3.525   0.032   6.844
  107OSM    C1410848   3.666   0.102   6.637
  107OSM   H14A10849   3.573   0.091   6.583
  107OSM   H14B10850   3.757   0.115   6.580
  107OSM   H14C10851   3.659   0.188   6.702
  107OSM    C1310852   3.784   0.011   6.825
  107OSM   H13A10853   3.870   0.052   6.773
  107OSM   H13B10854   3.829   6.806   6.875
  107OSM   H13C10855   3.747   0.076   6.902
  107OSM    C1210856   3.735   6.749   6.629
  107OSM   H12A10857   3.654   6.720   6.563
  107OSM   H12B10858   3.751   6.658   6.685
  107OSM    C1110859   3.856   6.781   6.545
  107OSM   H11A10860   3.943   6.815   6.606
  107OSM   H11B10861   3.835   6.858   6.468
  107OSM      P10862   3.986   6.553   6.526
  107OSM    O1310863   4.120   6.616   6.539
  107OSM    O1410864   3.923   6.491   6.640
  107OSM    O1110865   3.998   6.439   6.410
  107OSM    O1210866   3.880   6.659   6.475
  107OSM    C1S10867   3.930   6.450   6.284
  107OSM    H1S10868   3.955   6.544   6.229
  107OSM    H1T10869   3.821   6.450   6.304
  107OSM     NF10870   3.923   6.357   6.049
  107OSM    HNF10871   3.829   6.332   6.026
  107OSM    C2S10872   3.964   6.328   6.190
  107OSM    H2S10873   4.075   6.317   6.195
  107OSM    C3S10874   3.906   6.200   6.255
  107OSM    H3S10875   3.796   6.203   6.242
  107OSM     O310876   3.928   6.190   6.392
  107OSM    HO310877   3.943   6.281   6.420
  107OSM    C4S10878   3.951   6.075   6.182
  107OSM    H4S10879   4.057   6.058   6.207
  107OSM    C5S10880   3.871   6.004   6.100
  107OSM    H5S10881   3.762   6.013   6.088
  107OSM    C6S10882   3.918   5.887   6.023
  107OSM    H6S10883   3.862   5.797   6.056
  107OSM    H6T10884   4.023   5.855   6.035
  107OSM    C7S10885   3.887   5.886   5.866
  107OSM    H7S10886   3.776   5.893   5.858
  107OSM    H7T10887   3.932   5.787   5.843
  107OSM    C8S10888   3.939   6.002   5.784
  107OSM    H8S10889   4.049   6.018   5.795
  107OSM    H8T10890   3.897   6.098   5.821
  107OSM    C9S10891   3.913   5.979   5.634
  107OSM    H9S10892   3.961   5.881   5.613
  107OSM    H9T10893   3.980   6.057   5.590
  107OSM   C10S10894   3.762   5.985   5.594
  107OSM   H10S10895   3.709   6.072   5.638
  107OSM   H10T10896   3.712   5.891   5.626
  107OSM   C11S10897   3.746   6.007   5.443
  107OSM   H11S10898   3.641   5.978   5.417
  107OSM   H11T10899   3.820   5.942   5.391
  107OSM   C12S10900   3.779   6.153   5.392
  107OSM   H12S10901   3.888   6.171   5.380
  107OSM   H12T10902   3.721   6.225   5.454
  107OSM   C13S10903   3.733   6.188   5.251
  107OSM   H13S10904   3.623   6.172   5.241
  107OSM   H13T10905   3.793   6.127   5.179
  107OSM   C14S10906   3.741   6.343   5.222
  107OSM   H14S10907   3.845   6.381   5.233
  107OSM   H14T10908   3.667   6.397   5.286
  107OSM   C15S10909   3.712   6.381   5.072
  107OSM   H15S10910   3.602   6.377   5.063
  107OSM   H15T10911   3.749   6.294   5.013
  107OSM   C16S10912   3.761   6.521   5.026
  107OSM   H16S10913   3.867   6.519   4.992
  107OSM   H16T10914   3.768   6.587   5.115
  107OSM   C17S10915   3.673   6.590   4.927
  107OSM   H17S10916   3.565   6.591   4.953
  107OSM   H17T10917   3.670   6.537   4.830
  107OSM   C18S10918   3.722   6.743   4.917
  107OSM   H18S10919   3.664   6.786   4.832
  107OSM   H18T10920   3.828   6.737   4.886
  107OSM   H18U10921   3.717   6.793   5.016
  107OSM    C1F10922   3.986   6.454   5.981
  107OSM     OF10923   4.083   6.513   6.030
  107OSM    C2F10924   3.931   6.488   5.850
  107OSM    H2F10925   3.882   6.397   5.809
  107OSM    H2G10926   4.010   6.523   5.780
  107OSM    C3F10927   3.818   6.589   5.854
  107OSM    H3F10928   3.852   6.694   5.847
  107OSM    H3G10929   3.761   6.572   5.948
  107OSM    C4F10930   3.720   6.581   5.725
  107OSM    H4F10931   3.677   6.479   5.713
  107OSM    H4G10932   3.770   6.612   5.631
  107OSM    C5F10933   3.599   6.667   5.742
  107OSM    H5F10934   3.626   6.773   5.726
  107OSM    H5G10935   3.561   6.650   5.845
  107OSM    C6F10936   3.486   6.631   5.638
  107OSM    H6F10937   3.392   6.683   5.667
  107OSM    H6G10938   3.449   6.528   5.656
  107OSM    C7F10939   3.533   6.663   5.498
  107OSM    H7F10940   3.625   6.610   5.465
  107OSM    H7G10941   3.563   6.770   5.496
  107OSM    C8F10942   3.416   6.639   5.402
  107OSM    H8F10943   3.319   6.672   5.445
  107OSM    H8G10944   3.402   6.528   5.397
  107OSM    C9F10945   3.448   6.693   5.263
  107OSM    H9F10946   3.555   6.711   5.246
  107OSM   C10F10947   3.348   6.725   5.174
  107OSM   H10F10948   3.379   6.756   5.073
  107OSM   C11F10949   3.199   6.724   5.199
  107OSM   H11F10950   3.181   6.697   5.305
  107OSM   H11G10951   3.138   6.647   5.147
  107OSM   C12F10952   3.146   6.868   5.173
  107OSM   H12F10953   3.211   0.038   5.098
  107OSM   H12G10954   3.170   0.039   5.269
  107OSM   C13F10955   3.000   6.871   5.137
  107OSM   H13F10956   2.961   0.095   5.151
  107OSM   H13G10957   2.945   6.805   5.208
  107OSM   C14F10958   2.975   6.818   4.995
  107OSM   H14F10959   3.033   6.725   4.981
  107OSM   H14G10960   3.010   0.017   4.924
  107OSM   C15F10961   2.831   6.776   4.959
  107OSM   H15F10962   2.769   6.861   4.992
  107OSM   H15G10963   2.807   6.687   5.020
  107OSM   C16F10964   2.803   6.764   4.809
  107OSM   H16F10965   2.875   6.687   4.774
  107OSM   H16G10966   2.838   6.859   4.763
  107OSM   C17F10967   2.654   6.739   4.779
  107OSM   H17F10968   2.589   6.807   4.838
  107OSM   H17G10969   2.621   6.639   4.814
  107OSM   C18F10970   2.603   6.769   4.637
  107OSM   H18F10971   2.669   6.720   4.563
  107OSM   H18G10972   2.584   6.877   4.622
  107OSM   H18H10973   2.504   6.720   4.620
  108OSM      N10974   6.528   6.117   6.896
  108OSM    C1510975   6.456   5.995   6.857
  108OSM   H15A10976   6.505   5.903   6.886
  108OSM   H15B10977   6.418   5.991   6.756
  108OSM   H15C10978   6.362   5.986   6.911
  108OSM    C1410979   6.442   6.231   6.878
  108OSM   H14A10980   6.397   6.226   6.779
  108OSM   H14B10981   6.499   6.321   6.893
  108OSM   H14C10982   6.360   6.224   6.948
  108OSM    C1310983   6.560   6.103   7.046
  108OSM   H13A10984   6.640   6.033   7.064
  108OSM   H13B10985   6.478   6.057   7.099
  108OSM   H13C10986   6.580   6.198   7.093
  108OSM    C1210987   6.659   6.138   6.816
  108OSM   H12A10988   6.638   6.179   6.718
  108OSM   H12B10989   6.707   6.044   6.795
  108OSM    C1110990   6.756   6.245   6.869
  108OSM   H11A10991   6.844   6.244   6.802
  108OSM   H11B10992   6.790   6.212   6.969
  108OSM      P10993   6.699   6.465   6.753
  108OSM    O1310994   6.575   6.552   6.740
  108OSM    O1410995   6.825   6.538   6.773
  108OSM    O1110996   6.698   6.363   6.627
  108OSM    O1210997   6.693   6.376   6.877
  108OSM    C1S10998   6.631   6.408   6.509
  108OSM    H1S10999   6.645   6.517   6.492
  108OSM    H1T11000   6.520   6.395   6.512
  108OSM     NF11001   6.598   6.364   6.263
  108OSM    HNF11002   6.514   6.312   6.248
  108OSM    C2S11003   6.675   6.332   6.381
  108OSM    H2S11004   6.782   6.356   6.368
  108OSM    C3S11005   6.683   6.176   6.401
  108OSM    H3S11006   6.581   6.137   6.422
  108OSM     O311007   6.747   6.132   6.526
  108OSM    HO311008   6.771   6.212   6.575
  108OSM    C4S11009   6.742   6.108   6.281
  108OSM    H4S11010   6.675   6.111   6.193
  108OSM    C5S11011   6.874   6.075   6.271
  108OSM    H5S11012   0.068   6.093   6.351
  108OSM    C6S11013   0.055   6.031   6.143
  108OSM    H6S11014   0.116   5.939   6.153
  108OSM    H6T11015   0.124   6.113   6.112
  108OSM    C7S11016   6.840   6.009   6.025
  108OSM    H7S11017   6.810   6.109   5.990
  108OSM    H7T11018   6.754   5.953   6.067
  108OSM    C8S11019   0.019   5.929   5.909
  108OSM    H8S11020   0.051   5.826   5.938
  108OSM    H8T11021   0.104   5.997   5.885
  108OSM    C9S11022   6.815   5.926   5.782
  108OSM    H9S11023   6.832   6.020   5.726
  108OSM    H9T11024   6.706   5.915   5.797
  108OSM   C10S11025   6.855   5.813   5.686
  108OSM   H10S11026   6.823   5.718   5.733
  108OSM   H10T11027   0.086   5.819   5.675
  108OSM   C11S11028   6.791   5.833   5.547
  108OSM   H11S11029   6.830   5.928   5.503
  108OSM   H11T11030   6.681   5.828   5.556
  108OSM   C12S11031   6.842   5.718   5.458
  108OSM   H12S11032   6.801   5.623   5.499
  108OSM   H12T11033   0.073   5.713   5.454
  108OSM   C13S11034   6.802   5.749   5.314
  108OSM   H13S11035   6.866   5.830   5.273
  108OSM   H13T11036   6.694   5.776   5.308
  108OSM   C14S11037   6.804   5.626   5.213
  108OSM   H14S11038   6.732   5.546   5.239
  108OSM   H14T11039   0.021   5.572   5.222
  108OSM   C15S11040   6.772   5.676   5.069
  108OSM   H15S11041   6.837   5.766   5.060
  108OSM   H15T11042   6.664   5.704   5.063
  108OSM   C16S11043   6.813   5.580   4.954
  108OSM   H16S11044   0.036   5.541   4.967
  108OSM   H16T11045   6.801   5.639   4.861
  108OSM   C17S11046   6.712   5.468   4.947
  108OSM   H17S11047   6.616   5.519   4.925
  108OSM   H17T11048   6.715   5.407   5.040
  108OSM   C18S11049   6.734   5.373   4.829
  108OSM   H18S11050   6.788   5.416   4.742
  108OSM   H18T11051   6.644   5.315   4.799
  108OSM   H18U11052   6.802   5.299   4.876
  108OSM    C1F11053   6.602   6.484   6.208
  108OSM     OF11054   6.696   6.559   6.239
  108OSM    C2F11055   6.486   6.527   6.126
  108OSM    H2F11056   6.436   6.612   6.176
  108OSM    H2G11057   6.406   6.450   6.127
  108OSM    C3F11058   6.525   6.566   5.978
  108OSM    H3F11059   6.620   6.625   5.976
  108OSM    H3G11060   6.453   6.645   5.948
  108OSM    C4F11061   6.539   6.435   5.898
  108OSM    H4F11062   6.440   6.385   5.897
  108OSM    H4G11063   6.621   6.372   5.940
  108OSM    C5F11064   6.565   6.465   5.749
  108OSM    H5F11065   6.661   6.521   5.741
  108OSM    H5G11066   6.483   6.531   5.712
  108OSM    C6F11067   6.557   6.348   5.660
  108OSM    H6F11068   6.458   6.304   5.684
  108OSM    H6G11069   6.622   6.267   5.700
  108OSM    C7F11070   6.572   6.362   5.508
  108OSM    H7F11071   6.676   6.393   5.481
  108OSM    H7G11072   6.505   6.440   5.468
  108OSM    C8F11073   6.523   6.233   5.433
  108OSM    H8F11074   6.493   6.269   5.333
  108OSM    H8G11075   6.434   6.180   5.473
  108OSM    C9F11076   6.639   6.140   5.418
  108OSM    H9F11077   6.668   6.093   5.513
  108OSM   C10F11078   6.705   6.106   5.304
  108OSM   H10F11079   6.791   6.039   5.316
  108OSM   C11F11080   6.661   6.151   5.170
  108OSM   H11F11081   6.563   6.202   5.168
  108OSM   H11G11082   6.652   6.057   5.113
  108OSM   C12F11083   6.755   6.248   5.092
  108OSM   H12F11084   6.859   6.208   5.099
  108OSM   H12G11085   6.759   6.338   5.156
  108OSM   C13F11086   6.721   6.274   4.945
  108OSM   H13F11087   6.764   6.190   4.887
  108OSM   H13G11088   6.777   6.365   4.913
  108OSM   C14F11089   6.571   6.306   4.922
  108OSM   H14F11090   6.533   6.360   5.011
  108OSM   H14G11091   6.511   6.214   4.912
  108OSM   C15F11092   6.553   6.391   4.798
  108OSM   H15F11093   6.623   6.346   4.724
  108OSM   H15G11094   6.591   6.489   4.834
  108OSM   C16F11095   6.413   6.390   4.743
  108OSM   H16F11096   6.351   6.433   4.825
  108OSM   H16G11097   6.378   6.285   4.734
  108OSM   C17F11098   6.394   6.473   4.613
  108OSM   H17F11099   6.453   6.433   4.528
  108OSM   H17G11100   6.423   6.578   4.633
  108OSM   C18F11101   6.247   6.486   4.585
  108OSM   H18F11102   6.203   6.395   4.537
  108OSM   H18G11103   6.219   6.567   4.514
  108OSM   H18H11104   6.194   6.518   4.677
  109OSM      N11105   3.015   2.835   6.576
  109OSM    C1511106   3.060   2.765   6.703
  109OSM   H15A11107   3.010   2.810   6.788
  109OSM   H15B11108   3.165   2.783   6.715
  109OSM   H15C11109   3.041   2.660   6.691
  109OSM    C1411110   2.875   2.798   6.546
  109OSM   H14A11111   2.827   2.866   6.477
  109OSM   H14B11112   2.821   2.784   6.639
  109OSM   H14C11113   2.868   2.701   6.500
  109OSM    C1311114   3.026   2.983   6.602
  109OSM   H13A11115   2.964   2.992   6.691
  109OSM   H13B11116   2.985   3.036   6.517
  109OSM   H13C11117   3.125   3.019   6.624
  109OSM    C1211118   3.103   2.801   6.459
  109OSM   H12A11119   3.208   2.813   6.484
  109OSM   H12B11120   3.083   2.872   6.380
  109OSM    C1111121   3.081   2.663   6.391
  109OSM   H11A11122   3.147   2.660   6.302
  109OSM   H11B11123   2.975   2.644   6.363
  109OSM      P11124   3.270   2.503   6.487
  109OSM    O1311125   3.343   2.596   6.569
  109OSM    O1411126   3.270   2.365   6.536
  109OSM    O1111127   3.328   2.505   6.340
  109OSM    O1211128   3.113   2.549   6.475
  109OSM    C1S11129   3.308   2.414   6.231
  109OSM    H1S11130   3.204   2.381   6.214
  109OSM    H1T11131   3.365   2.319   6.248
  109OSM     NF11132   3.327   2.378   5.996
  109OSM    HNF11133   3.402   2.313   5.981
  109OSM    C2S11134   3.361   2.472   6.098
  109OSM    H2S11135   3.318   2.571   6.074
  109OSM    C3S11136   3.522   2.505   6.104
  109OSM    H3S11137   3.579   2.412   6.129
  109OSM     O311138   3.559   2.590   6.210
  109OSM    HO311139   3.492   2.575   6.278
  109OSM    C4S11140   3.571   2.556   5.970
  109OSM    H4S11141   3.513   2.641   5.932
  109OSM    C5S11142   3.679   2.515   5.905
  109OSM    H5S11143   3.741   2.435   5.948
  109OSM    C6S11144   3.710   2.577   5.764
  109OSM    H6S11145   3.819   2.590   5.748
  109OSM    H6T11146   3.668   2.678   5.746
  109OSM    C7S11147   3.668   2.472   5.658
  109OSM    H7S11148   3.558   2.481   5.654
  109OSM    H7T11149   3.693   2.367   5.686
  109OSM    C8S11150   3.722   2.497   5.519
  109OSM    H8S11151   3.832   2.503   5.530
  109OSM    H8T11152   3.693   2.600   5.490
  109OSM    C9S11153   3.671   2.413   5.402
  109OSM    H9S11154   3.561   2.397   5.410
  109OSM    H9T11155   3.712   2.310   5.413
  109OSM   C10S11156   3.708   2.476   5.264
  109OSM   H10S11157   3.818   2.462   5.256
  109OSM   H10T11158   3.683   2.584   5.253
  109OSM   C11S11159   3.637   2.413   5.138
  109OSM   H11S11160   3.528   2.433   5.149
  109OSM   H11T11161   3.657   2.303   5.140
  109OSM   C12S11162   3.699   2.470   5.008
  109OSM   H12S11163   3.808   2.449   5.011
  109OSM   H12T11164   3.692   2.579   4.989
  109OSM   C13S11165   3.634   2.407   4.877
  109OSM   H13S11166   3.524   2.416   4.890
  109OSM   H13T11167   3.651   2.297   4.879
  109OSM   C14S11168   3.678   2.488   4.749
  109OSM   H14S11169   3.788   2.498   4.741
  109OSM   H14T11170   3.624   2.585   4.758
  109OSM   C15S11171   3.626   2.406   4.627
  109OSM   H15S11172   3.619   2.470   4.536
  109OSM   H15T11173   3.515   2.400   4.637
  109OSM   C16S11174   3.702   2.281   4.599
  109OSM   H16S11175   3.681   2.205   4.678
  109OSM   H16T11176   3.809   2.309   4.610
  109OSM   C17S11177   3.678   2.226   4.459
  109OSM   H17S11178   3.765   2.169   4.419
  109OSM   H17T11179   3.680   2.316   4.395
  109OSM   C18S11180   3.546   2.158   4.438
  109OSM   H18S11181   3.528   2.056   4.480
  109OSM   H18T11182   3.528   2.151   4.329
  109OSM   H18U11183   3.467   2.221   4.482
  109OSM    C1F11184   3.213   2.384   5.927
  109OSM     OF11185   3.132   2.474   5.950
  109OSM    C2F11186   3.175   2.280   5.824
  109OSM    H2F11187   3.069   2.286   5.794
  109OSM    H2G11188   3.192   2.174   5.855
  109OSM    C3F11189   3.259   2.298   5.690
  109OSM    H3F11190   3.363   2.262   5.709
  109OSM    H3G11191   3.267   2.406   5.661
  109OSM    C4F11192   3.210   2.213   5.574
  109OSM    H4F11193   3.100   2.227   5.574
  109OSM    H4G11194   3.235   2.106   5.592
  109OSM    C5F11195   3.259   2.274   5.440
  109OSM    H5F11196   3.363   2.306   5.458
  109OSM    H5G11197   3.201   2.365   5.412
  109OSM    C6F11198   3.251   2.175   5.325
  109OSM    H6F11199   3.144   2.152   5.305
  109OSM    H6G11200   3.300   2.085   5.368
  109OSM    C7F11201   3.314   2.225   5.198
  109OSM    H7F11202   3.419   2.255   5.222
  109OSM    H7G11203   3.274   2.313   5.142
  109OSM    C8F11204   3.333   2.110   5.097
  109OSM    H8F11205   3.232   2.070   5.071
  109OSM    H8G11206   3.380   2.018   5.137
  109OSM    C9F11207   3.402   2.167   4.973
  109OSM    H9F11208   3.510   2.179   4.985
  109OSM   C10F11209   3.340   2.204   4.862
  109OSM   H10F11210   3.407   2.228   4.778
  109OSM   C11F11211   3.195   2.172   4.833
  109OSM   H11F11212   3.138   2.248   4.890
  109OSM   H11G11213   3.169   2.072   4.875
  109OSM   C12F11214   3.158   2.185   4.688
  109OSM   H12F11215   3.215   2.113   4.626
  109OSM   H12G11216   3.185   2.284   4.645
  109OSM   C13F11217   3.005   2.178   4.679
  109OSM   H13F11218   2.965   2.277   4.710
  109OSM   H13G11219   2.969   2.099   4.749
  109OSM   C14F11220   2.955   2.146   4.541
  109OSM   H14F11221   3.004   2.056   4.499
  109OSM   H14G11222   2.995   2.226   4.475
  109OSM   C15F11223   2.805   2.116   4.536
  109OSM   H15F11224   2.754   2.206   4.577
  109OSM   H15G11225   2.783   2.038   4.612
  109OSM   C16F11226   2.746   2.089   4.395
  109OSM   H16F11227   2.793   1.994   4.362
  109OSM   H16G11228   2.760   2.173   4.325
  109OSM   C17F11229   2.597   2.060   4.386
  109OSM   H17F11230   2.539   2.149   4.419
  109OSM   H17G11231   2.571   1.978   4.456
  109OSM   C18F11232   2.565   2.029   4.240
  109OSM   H18F11233   2.454   2.035   4.237
  109OSM   H18G11234   2.608   1.927   4.228
  109OSM   H18H11235   2.624   2.097   4.175
  110OSM      N11236   5.100   5.956   6.557
  110OSM    C1511237   5.229   5.882   6.546
  110OSM   H15A11238   5.253   5.819   6.631
  110OSM   H15B11239   5.305   5.958   6.538
  110OSM   H15C11240   5.230   5.803   6.472
  110OSM    C1411241   5.068   6.028   6.433
  110OSM   H14A11242   5.065   5.957   6.352
  110OSM   H14B11243   5.133   6.108   6.401
  110OSM   H14C11244   4.971   6.076   6.436
  110OSM    C1311245   4.990   5.852   6.580
  110OSM   H13A11246   5.009   5.784   6.661
  110OSM   H13B11247   4.969   5.796   6.490
  110OSM   H13C11248   4.903   5.903   6.618
  110OSM    C1211249   5.115   6.064   6.670
  110OSM   H12A11250   5.136   6.005   6.758
  110OSM   H12B11251   5.026   6.121   6.689
  110OSM    C1111252   5.225   6.173   6.641
  110OSM   H11A11253   5.202   6.250   6.719
  110OSM   H11B11254   5.191   6.222   6.548
  110OSM      P11255   5.476   6.196   6.559
  110OSM    O1311256   5.518   6.327   6.619
  110OSM    O1411257   5.573   6.094   6.556
  110OSM    O1111258   5.423   6.218   6.411
  110OSM    O1211259   5.359   6.132   6.638
  110OSM    C1S11260   5.386   6.348   6.372
  110OSM    H1S11261   5.453   6.425   6.415
  110OSM    H1T11262   5.283   6.371   6.407
  110OSM     NF11263   5.410   6.475   6.154
  110OSM    HNF11264   5.332   6.512   6.105
  110OSM    C2S11265   5.387   6.346   6.220
  110OSM    H2S11266   5.477   6.287   6.192
  110OSM    C3S11267   5.268   6.262   6.167
  110OSM    H3S11268   5.173   6.315   6.186
  110OSM     O311269   5.251   6.127   6.204
  110OSM    HO311270   5.318   6.123   6.272
  110OSM    C4S11271   5.263   6.248   6.014
  110OSM    H4S11272   5.334   6.169   5.985
  110OSM    C5S11273   5.195   6.307   5.915
  110OSM    H5S11274   5.112   6.373   5.945
  110OSM    C6S11275   5.210   6.280   5.768
  110OSM    H6S11276   5.141   6.200   5.736
  110OSM    H6T11277   5.313   6.250   5.742
  110OSM    C7S11278   5.173   6.400   5.677
  110OSM    H7S11279   5.230   6.494   5.689
  110OSM    H7T11280   5.067   6.425   5.701
  110OSM    C8S11281   5.175   6.363   5.525
  110OSM    H8S11282   5.077   6.319   5.497
  110OSM    H8T11283   5.259   6.291   5.520
  110OSM    C9S11284   5.208   6.478   5.425
  110OSM    H9S11285   5.251   6.426   5.336
  110OSM    H9T11286   5.286   6.550   5.458
  110OSM   C10S11287   5.083   6.554   5.379
  110OSM   H10S11288   5.030   6.594   5.468
  110OSM   H10T11289   5.009   6.497   5.318
  110OSM   C11S11290   5.127   6.682   5.297
  110OSM   H11S11291   5.219   6.656   5.241
  110OSM   H11T11292   5.134   6.774   5.359
  110OSM   C12S11293   5.026   6.709   5.184
  110OSM   H12S11294   4.923   6.738   5.215
  110OSM   H12T11295   5.015   6.617   5.124
  110OSM   C13S11296   5.083   6.823   5.098
  110OSM   H13S11297   5.033   6.822   4.999
  110OSM   H13T11298   5.193   6.806   5.090
  110OSM   C14S11299   5.064   0.081   5.167
  110OSM   H14S11300   5.100   0.077   5.272
  110OSM   H14T11301   4.957   0.110   5.165
  110OSM   C15S11302   5.160   0.173   5.090
  110OSM   H15S11303   5.142   0.159   4.981
  110OSM   H15T11304   5.263   0.137   5.107
  110OSM   C16S11305   5.164   0.318   5.128
  110OSM   H16S11306   5.245   0.379   5.083
  110OSM   H16T11307   5.182   0.320   5.238
  110OSM   C17S11308   5.031   0.381   5.082
  110OSM   H17S11309   4.957   0.348   5.157
  110OSM   H17T11310   4.992   0.337   4.987
  110OSM   C18S11311   5.030   0.540   5.078
  110OSM   H18S11312   4.935   0.588   5.045
  110OSM   H18T11313   5.110   0.582   5.014
  110OSM   H18U11314   5.058   0.564   5.183
  110OSM    C1F11315   5.519   6.552   6.182
  110OSM     OF11316   5.602   6.522   6.268
  110OSM    C2F11317   5.522   6.689   6.117
  110OSM    H2F11318   5.547   6.768   6.191
  110OSM    H2G11319   5.418   6.709   6.084
  110OSM    C3F11320   5.624   6.698   6.000
  110OSM    H3F11321   5.603   6.623   5.921
  110OSM    H3G11322   5.719   6.679   6.055
  110OSM    C4F11323   5.618   6.836   5.932
  110OSM    H4F11324   5.690   6.851   5.849
  110OSM    H4G11325   5.650   0.027   6.012
  110OSM    C5F11326   5.474   0.003   5.888
  110OSM    H5F11327   5.492   0.099   5.834
  110OSM    H5G11328   5.407   0.029   5.973
  110OSM    C6F11329   5.394   6.790   5.796
  110OSM    H6F11330   5.291   6.831   5.791
  110OSM    H6G11331   5.379   6.689   5.839
  110OSM    C7F11332   5.450   6.779   5.653
  110OSM    H7F11333   5.387   6.701   5.605
  110OSM    H7G11334   5.557   6.751   5.642
  110OSM    C8F11335   5.425   0.021   5.561
  110OSM    H8F11336   5.492   0.100   5.603
  110OSM    H8G11337   5.323   0.058   5.584
  110OSM    C9F11338   5.452   6.868   5.416
  110OSM    H9F11339   5.459   6.760   5.395
  110OSM   C10F11340   5.486   0.069   5.316
  110OSM   H10F11341   5.493   0.029   5.214
  110OSM   C11F11342   5.489   0.217   5.336
  110OSM   H11F11343   5.512   0.247   5.440
  110OSM   H11G11344   5.393   0.269   5.314
  110OSM   C12F11345   5.597   0.289   5.255
  110OSM   H12F11346   5.696   0.243   5.276
  110OSM   H12G11347   5.598   0.395   5.288
  110OSM   C13F11348   5.555   0.289   5.102
  110OSM   H13F11349   5.455   0.335   5.090
  110OSM   H13G11350   5.554   0.183   5.067
  110OSM   C14F11351   5.653   0.369   5.012
  110OSM   H14F11352   5.740   0.311   4.974
  110OSM   H14G11353   5.685   0.460   5.067
  110OSM   C15F11354   5.586   0.433   4.884
  110OSM   H15F11355   5.488   0.471   4.920
  110OSM   H15G11356   5.558   0.350   4.816
  110OSM   C16F11357   5.676   0.527   4.816
  110OSM   H16F11358   5.769   0.487   4.770
  110OSM   H16G11359   5.712   0.602   4.889
  110OSM   C17F11360   5.609   0.605   4.705
  110OSM   H17F11361   5.677   0.686   4.673
  110OSM   H17G11362   5.523   0.666   4.741
  110OSM   C18F11363   5.554   0.514   4.595
  110OSM   H18F11364   5.498   0.574   4.520
  110OSM   H18G11365   5.487   0.432   4.630
  110OSM   H18H11366   5.637   0.479   4.529
  111OSM      N11367   1.147   3.870   6.546
  111OSM    C1511368   1.285   3.825   6.592
  111OSM   H15A11369   1.368   3.872   6.541
  111OSM   H15B11370   1.308   3.723   6.568
  111OSM   H15C11371   1.301   3.824   6.699
  111OSM    C1411372   1.142   3.881   6.394
  111OSM   H14A11373   1.140   3.784   6.346
  111OSM   H14B11374   1.230   3.932   6.360
  111OSM   H14C11375   1.054   3.936   6.363
  111OSM    C1311376   1.058   3.758   6.587
  111OSM   H13A11377   1.056   3.679   6.513
  111OSM   H13B11378   0.952   3.779   6.588
  111OSM   H13C11379   1.077   3.730   6.689
  111OSM    C1211380   1.105   4.001   6.612
  111OSM   H12A11381   1.161   4.078   6.561
  111OSM   H12B11382   1.147   4.011   6.710
  111OSM    C1111383   0.956   4.041   6.622
  111OSM   H11A11384   0.952   4.150   6.645
  111OSM   H11B11385   0.912   3.984   6.707
  111OSM      P11386   0.791   4.135   6.434
  111OSM    O1311387   0.744   4.085   6.298
  111OSM    O1411388   0.677   4.156   6.527
  111OSM    O1111389   0.890   4.254   6.417
  111OSM    O1211390   0.887   4.028   6.498
  111OSM    C1S11391   1.000   4.246   6.321
  111OSM    H1S11392   1.035   4.141   6.310
  111OSM    H1T11393   1.080   4.312   6.361
  111OSM     NF11394   1.093   4.306   6.113
  111OSM    HNF11395   1.146   4.389   6.124
  111OSM    C2S11396   0.968   4.304   6.182
  111OSM    H2S11397   0.895   4.229   6.144
  111OSM    C3S11398   0.895   4.443   6.195
  111OSM    H3S11399   0.951   4.489   6.279
  111OSM     O311400   0.757   4.444   6.230
  111OSM    HO311401   0.746   4.365   6.284
  111OSM    C4S11402   0.924   4.530   6.069
  111OSM    H4S11403   1.025   4.574   6.078
  111OSM    C5S11404   0.848   4.554   5.957
  111OSM    H5S11405   0.747   4.511   5.953
  111OSM    C6S11406   0.886   4.652   5.856
  111OSM    H6S11407   0.969   4.712   5.900
  111OSM    H6T11408   0.802   4.719   5.827
  111OSM    C7S11409   0.925   4.582   5.720
  111OSM    H7S11410   0.936   4.670   5.653
  111OSM    H7T11411   0.831   4.534   5.687
  111OSM    C8S11412   1.041   4.484   5.729
  111OSM    H8S11413   1.012   4.395   5.789
  111OSM    H8T11414   1.131   4.525   5.781
  111OSM    C9S11415   1.082   4.440   5.585
  111OSM    H9S11416   1.167   4.370   5.595
  111OSM    H9T11417   1.113   4.537   5.540
  111OSM   C10S11418   0.968   4.371   5.516
  111OSM   H10S11419   0.870   4.422   5.512
  111OSM   H10T11420   0.951   4.276   5.572
  111OSM   C11S11421   0.986   4.327   5.366
  111OSM   H11S11422   0.897   4.272   5.329
  111OSM   H11T11423   1.069   4.255   5.348
  111OSM   C12S11424   1.005   4.448   5.274
  111OSM   H12S11425   1.085   4.515   5.313
  111OSM   H12T11426   0.909   4.505   5.273
  111OSM   C13S11427   1.019   4.395   5.134
  111OSM   H13S11428   0.916   4.357   5.115
  111OSM   H13T11429   1.089   4.308   5.130
  111OSM   C14S11430   1.078   4.490   5.039
  111OSM   H14S11431   1.181   4.519   5.070
  111OSM   H14T11432   1.012   4.578   5.049
  111OSM   C15S11433   1.086   4.442   4.895
  111OSM   H15S11434   0.993   4.399   4.852
  111OSM   H15T11435   1.162   4.361   4.893
  111OSM   C16S11436   1.142   4.562   4.809
  111OSM   H16S11437   1.232   4.594   4.864
  111OSM   H16T11438   1.070   4.646   4.798
  111OSM   C17S11439   1.179   4.541   4.663
  111OSM   H17S11440   1.220   4.636   4.622
  111OSM   H17T11441   1.084   4.523   4.608
  111OSM   C18S11442   1.281   4.431   4.652
  111OSM   H18S11443   1.349   4.422   4.739
  111OSM   H18T11444   1.348   4.440   4.564
  111OSM   H18U11445   1.235   4.331   4.668
  111OSM    C1F11446   1.167   4.199   6.084
  111OSM     OF11447   1.140   4.083   6.112
  111OSM    C2F11448   1.292   4.236   6.004
  111OSM    H2F11449   1.374   4.255   6.076
  111OSM    H2G11450   1.271   4.334   5.956
  111OSM    C3F11451   1.344   4.131   5.901
  111OSM    H3F11452   1.321   4.031   5.942
  111OSM    H3G11453   1.453   4.147   5.883
  111OSM    C4F11454   1.274   4.129   5.762
  111OSM    H4F11455   1.297   4.228   5.718
  111OSM    H4G11456   1.164   4.118   5.759
  111OSM    C5F11457   1.347   4.025   5.677
  111OSM    H5F11458   1.323   3.920   5.706
  111OSM    H5G11459   1.456   4.031   5.693
  111OSM    C6F11460   1.319   4.050   5.528
  111OSM    H6F11461   1.385   4.135   5.500
  111OSM    H6G11462   1.214   4.079   5.508
  111OSM    C7F11463   1.360   3.933   5.440
  111OSM    H7F11464   1.282   3.855   5.429
  111OSM    H7G11465   1.448   3.887   5.490
  111OSM    C8F11466   1.406   3.970   5.297
  111OSM    H8F11467   1.484   4.049   5.293
  111OSM    H8G11468   1.315   4.013   5.251
  111OSM    C9F11469   1.462   3.850   5.222
  111OSM    H9F11470   1.472   3.757   5.278
  111OSM   C10F11471   1.491   3.839   5.094
  111OSM   H10F11472   1.517   3.740   5.054
  111OSM   C11F11473   1.466   3.941   4.994
  111OSM   H11F11474   1.561   3.962   4.941
  111OSM   H11G11475   1.434   4.041   5.029
  111OSM   C12F11476   1.370   3.899   4.883
  111OSM   H12F11477   1.269   3.917   4.926
  111OSM   H12G11478   1.379   3.793   4.852
  111OSM   C13F11479   1.375   3.987   4.759
  111OSM   H13F11480   1.349   4.093   4.781
  111OSM   H13G11481   1.292   3.939   4.703
  111OSM   C14F11482   1.502   3.992   4.684
  111OSM   H14F11483   1.531   3.885   4.676
  111OSM   H14G11484   1.579   4.054   4.735
  111OSM   C15F11485   1.493   4.058   4.544
  111OSM   H15F11486   1.463   4.162   4.572
  111OSM   H15G11487   1.403   4.015   4.496
  111OSM   C16F11488   1.612   4.037   4.446
  111OSM   H16F11489   1.607   3.933   4.406
  111OSM   H16G11490   1.696   4.047   4.517
  111OSM   C17F11491   1.616   4.136   4.332
  111OSM   H17F11492   1.525   4.125   4.270
  111OSM   H17G11493   1.698   4.087   4.275
  111OSM   C18F11494   1.659   4.280   4.361
  111OSM   H18F11495   1.582   4.330   4.423
  111OSM   H18G11496   1.677   4.336   4.268
  111OSM   H18H11497   1.752   4.274   4.422
  112OSM      N11498   4.222   1.118   6.953
  112OSM    C1511499   4.217   1.157   7.098
  112OSM   H15A11500   4.306   1.213   7.123
  112OSM   H15B11501   4.209   1.073   7.165
  112OSM   H15C11502   4.130   1.216   7.123
  112OSM    C1411503   4.299   0.990   6.937
  112OSM   H14A11504   4.405   1.011   6.939
  112OSM   H14B11505   4.271   0.946   6.842
  112OSM   H14C11506   4.266   0.925   7.017
  112OSM    C1311507   4.082   1.093   6.906
  112OSM   H13A11508   4.045   1.021   6.978
  112OSM   H13B11509   4.078   1.057   6.805
  112OSM   H13C11510   4.018   1.181   6.906
  112OSM    C1211511   4.287   1.237   6.881
  112OSM   H12A11512   4.389   1.244   6.916
  112OSM   H12B11513   4.249   1.328   6.926
  112OSM    C1111514   4.291   1.241   6.726
  112OSM   H11A11515   4.330   1.145   6.686
  112OSM   H11B11516   4.361   1.323   6.701
  112OSM      P11517   4.079   1.406   6.669
  112OSM    O1311518   3.985   1.406   6.555
  112OSM    O1411519   4.025   1.421   6.803
  112OSM    O1111520   4.192   1.521   6.641
  112OSM    O1211521   4.166   1.265   6.662
  112OSM    C1S11522   4.278   1.513   6.528
  112OSM    H1S11523   4.287   1.409   6.492
  112OSM    H1T11524   4.380   1.538   6.563
  112OSM     NF11525   4.318   1.582   6.297
  112OSM    HNF11526   4.397   1.640   6.274
  112OSM    C2S11527   4.234   1.616   6.413
  112OSM    H2S11528   4.125   1.601   6.402
  112OSM    C3S11529   4.244   1.758   6.469
  112OSM    H3S11530   4.347   1.776   6.508
  112OSM     O311531   4.150   1.786   6.570
  112OSM    HO311532   4.133   1.699   6.607
  112OSM    C4S11533   4.218   1.859   6.365
  112OSM    H4S11534   4.124   1.836   6.312
  112OSM    C5S11535   4.311   1.945   6.310
  112OSM    H5S11536   4.416   1.941   6.344
  112OSM    C6S11537   4.276   2.021   6.182
  112OSM    H6S11538   4.286   2.130   6.203
  112OSM    H6T11539   4.172   2.003   6.146
  112OSM    C7S11540   4.375   1.991   6.072
  112OSM    H7S11541   4.397   1.885   6.050
  112OSM    H7T11542   4.473   2.039   6.091
  112OSM    C8S11543   4.329   2.049   5.940
  112OSM    H8S11544   4.298   2.155   5.952
  112OSM    H8T11545   4.237   1.999   5.904
  112OSM    C9S11546   4.432   2.028   5.823
  112OSM    H9S11547   4.460   1.923   5.803
  112OSM    H9T11548   4.526   2.066   5.869
  112OSM   C10S11549   4.393   2.085   5.680
  112OSM   H10S11550   4.382   2.196   5.686
  112OSM   H10T11551   4.293   2.049   5.650
  112OSM   C11S11552   4.496   2.054   5.568
  112OSM   H11S11553   4.512   1.945   5.583
  112OSM   H11T11554   4.587   2.111   5.595
  112OSM   C12S11555   4.449   2.086   5.428
  112OSM   H12S11556   4.456   2.196   5.411
  112OSM   H12T11557   4.344   2.056   5.409
  112OSM   C13S11558   4.528   2.019   5.314
  112OSM   H13S11559   4.485   1.917   5.315
  112OSM   H13T11560   4.638   2.022   5.329
  112OSM   C14S11561   4.497   2.084   5.175
  112OSM   H14S11562   4.538   2.187   5.171
  112OSM   H14T11563   4.387   2.092   5.167
  112OSM   C15S11564   4.539   1.998   5.055
  112OSM   H15S11565   4.478   1.905   5.052
  112OSM   H15T11566   4.649   1.985   5.062
  112OSM   C16S11567   4.507   2.075   4.922
  112OSM   H16S11568   4.551   2.177   4.928
  112OSM   H16T11569   4.398   2.092   4.910
  112OSM   C17S11570   4.555   2.002   4.801
  112OSM   H17S11571   4.497   1.910   4.776
  112OSM   H17T11572   4.657   1.966   4.828
  112OSM   C18S11573   4.572   2.091   4.675
  112OSM   H18S11574   4.481   2.153   4.660
  112OSM   H18T11575   4.589   2.040   4.578
  112OSM   H18U11576   4.661   2.156   4.689
  112OSM    C1F11577   4.306   1.469   6.227
  112OSM     OF11578   4.210   1.402   6.238
  112OSM    C2F11579   4.413   1.422   6.129
  112OSM    H2F11580   4.491   1.357   6.171
  112OSM    H2G11581   4.473   1.513   6.107
  112OSM    C3F11582   4.349   1.363   5.998
  112OSM    H3F11583   4.410   1.400   5.913
  112OSM    H3G11584   4.251   1.413   5.985
  112OSM    C4F11585   4.319   1.213   6.012
  112OSM    H4F11586   4.302   1.195   6.120
  112OSM    H4G11587   4.412   1.156   5.988
  112OSM    C5F11588   4.209   1.162   5.928
  112OSM    H5F11589   4.236   1.168   5.821
  112OSM    H5G11590   4.120   1.227   5.936
  112OSM    C6F11591   4.169   1.020   5.968
  112OSM    H6F11592   4.158   1.030   6.078
  112OSM    H6G11593   4.264   0.968   5.944
  112OSM    C7F11594   4.059   0.953   5.896
  112OSM    H7F11595   4.066   0.848   5.931
  112OSM    H7G11596   4.068   0.946   5.785
  112OSM    C8F11597   3.926   1.005   5.940
  112OSM    H8F11598   3.933   1.113   5.917
  112OSM    H8G11599   3.903   0.995   6.048
  112OSM    C9F11600   3.811   0.940   5.871
  112OSM    H9F11601   3.752   0.864   5.925
  112OSM   C10F11602   3.763   0.965   5.746
  112OSM   H10F11603   3.690   0.894   5.705
  112OSM   C11F11604   3.830   1.055   5.647
  112OSM   H11F11605   3.929   1.078   5.692
  112OSM   H11G11606   3.775   1.150   5.629
  112OSM   C12F11607   3.867   1.000   5.508
  112OSM   H12F11608   3.913   0.900   5.521
  112OSM   H12G11609   3.936   1.069   5.455
  112OSM   C13F11610   3.744   0.985   5.412
  112OSM   H13F11611   3.703   1.087   5.402
  112OSM   H13G11612   3.677   0.911   5.462
  112OSM   C14F11613   3.785   0.933   5.274
  112OSM   H14F11614   3.846   0.841   5.288
  112OSM   H14G11615   3.858   0.998   5.222
  112OSM   C15F11616   3.662   0.897   5.188
  112OSM   H15F11617   3.590   0.982   5.189
  112OSM   H15G11618   3.605   0.812   5.233
  112OSM   C16F11619   3.703   0.883   5.040
  112OSM   H16F11620   3.781   0.806   5.021
  112OSM   H16G11621   3.748   0.981   5.013
  112OSM   C17F11622   3.589   0.838   4.952
  112OSM   H17F11623   3.555   0.741   4.994
  112OSM   H17G11624   3.622   0.814   4.849
  112OSM   C18F11625   3.472   0.942   4.952
  112OSM   H18F11626   3.400   0.920   4.870
  112OSM   H18G11627   3.517   1.041   4.934
  112OSM   H18H11628   3.421   0.946   5.051
  113OSM      N11629   1.264   1.641   6.705
  113OSM    C1511630   1.235   1.553   6.819
  113OSM   H15A11631   1.149   1.487   6.814
  113OSM   H15B11632   1.219   1.606   6.912
  113OSM   H15C11633   1.316   1.482   6.826
  113OSM    C1411634   1.383   1.720   6.750
  113OSM   H14A11635   1.477   1.667   6.760
  113OSM   H14B11636   1.373   1.759   6.850
  113OSM   H14C11637   1.408   1.798   6.679
  113OSM    C1311638   1.297   1.553   6.578
  113OSM   H13A11639   1.387   1.496   6.596
  113OSM   H13B11640   1.314   1.617   6.493
  113OSM   H13C11641   1.225   1.481   6.542
  113OSM    C1211642   1.151   1.731   6.686
  113OSM   H12A11643   1.182   1.806   6.615
  113OSM   H12B11644   1.135   1.780   6.781
  113OSM    C1111645   1.016   1.662   6.626
  113OSM   H11A11646   1.043   1.615   6.529
  113OSM   H11B11647   0.938   1.741   6.621
  113OSM      P11648   0.864   1.447   6.669
  113OSM    O1311649   0.940   1.333   6.609
  113OSM    O1411650   0.787   1.419   6.796
  113OSM    O1111651   0.777   1.508   6.549
  113OSM    O1211652   0.973   1.556   6.713
  113OSM    C1S11653   0.798   1.444   6.421
  113OSM    H1S11654   0.761   1.340   6.430
  113OSM    H1T11655   0.902   1.430   6.385
  113OSM     NF11656   0.685   1.435   6.202
  113OSM    HNF11657   0.739   1.436   6.118
  113OSM    C2S11658   0.716   1.525   6.309
  113OSM    H2S11659   0.621   1.552   6.361
  113OSM    C3S11660   0.789   1.661   6.271
  113OSM    H3S11661   0.884   1.624   6.227
  113OSM     O311662   0.844   1.742   6.377
  113OSM    HO311663   0.868   1.684   6.449
  113OSM    C4S11664   0.724   1.736   6.161
  113OSM    H4S11665   0.748   1.699   6.061
  113OSM    C5S11666   0.661   1.858   6.169
  113OSM    H5S11667   0.649   1.900   6.269
  113OSM    C6S11668   0.594   1.933   6.059
  113OSM    H6S11669   0.643   2.032   6.053
  113OSM    H6T11670   0.488   1.944   6.091
  113OSM    C7S11671   0.598   1.882   5.917
  113OSM    H7S11672   0.534   1.792   5.902
  113OSM    H7T11673   0.706   1.863   5.901
  113OSM    C8S11674   0.540   1.980   5.815
  113OSM    H8S11675   0.578   2.082   5.840
  113OSM    H8T11676   0.433   1.991   5.842
  113OSM    C9S11677   0.562   1.932   5.675
  113OSM    H9S11678   0.526   1.828   5.663
  113OSM    H9T11679   0.673   1.929   5.665
  113OSM   C10S11680   0.509   2.038   5.588
  113OSM   H10S11681   0.549   2.139   5.614
  113OSM   H10T11682   0.402   2.037   5.616
  113OSM   C11S11683   0.518   2.013   5.442
  113OSM   H11S11684   0.489   1.907   5.423
  113OSM   H11T11685   0.624   2.028   5.414
  113OSM   C12S11686   0.445   2.122   5.356
  113OSM   H12S11687   0.488   2.223   5.377
  113OSM   H12T11688   0.339   2.129   5.390
  113OSM   C13S11689   0.440   2.099   5.211
  113OSM   H13S11690   0.389   2.003   5.189
  113OSM   H13T11691   0.537   2.091   5.158
  113OSM   C14S11692   0.355   2.197   5.136
  113OSM   H14S11693   0.394   2.298   5.164
  113OSM   H14T11694   0.251   2.186   5.171
  113OSM   C15S11695   0.353   2.208   4.980
  113OSM   H15S11696   0.258   2.176   4.933
  113OSM   H15T11697   0.438   2.150   4.938
  113OSM   C16S11698   0.369   2.361   4.949
  113OSM   H16S11699   0.458   2.389   5.009
  113OSM   H16T11700   0.277   2.412   4.984
  113OSM   C17S11701   0.398   2.399   4.803
  113OSM   H17S11702   0.318   2.380   4.728
  113OSM   H17T11703   0.488   2.345   4.766
  113OSM   C18S11704   0.424   2.549   4.780
  113OSM   H18S11705   0.341   2.605   4.827
  113OSM   H18T11706   0.419   2.579   4.673
  113OSM   H18U11707   0.522   2.582   4.820
  113OSM    C1F11708   0.599   1.328   6.222
  113OSM     OF11709   0.537   1.314   6.329
  113OSM    C2F11710   0.583   1.229   6.114
  113OSM    H2F11711   0.596   1.124   6.148
  113OSM    H2G11712   0.661   1.249   6.037
  113OSM    C3F11713   0.436   1.242   6.072
  113OSM    H3F11714   0.411   1.343   6.033
  113OSM    H3G11715   0.369   1.209   6.154
  113OSM    C4F11716   0.402   1.155   5.945
  113OSM    H4F11717   0.292   1.143   5.956
  113OSM    H4G11718   0.439   1.055   5.976
  113OSM    C5F11719   0.460   1.204   5.817
  113OSM    H5F11720   0.570   1.211   5.830
  113OSM    H5G11721   0.417   1.304   5.796
  113OSM    C6F11722   0.443   1.105   5.704
  113OSM    H6F11723   0.491   1.006   5.720
  113OSM    H6G11724   0.502   1.147   5.620
  113OSM    C7F11725   0.298   1.092   5.647
  113OSM    H7F11726   0.228   1.168   5.687
  113OSM    H7G11727   0.252   0.993   5.672
  113OSM    C8F11728   0.291   1.107   5.493
  113OSM    H8F11729   0.189   1.076   5.462
  113OSM    H8G11730   0.347   1.022   5.449
  113OSM    C9F11731   0.312   1.239   5.424
  113OSM    H9F11732   0.272   1.313   5.495
  113OSM   C10F11733   0.374   1.278   5.312
  113OSM   H10F11734   0.376   1.382   5.277
  113OSM   C11F11735   0.426   1.175   5.210
  113OSM   H11F11736   0.398   1.071   5.235
  113OSM   H11G11737   0.535   1.188   5.221
  113OSM   C12F11738   0.385   1.183   5.057
  113OSM   H12F11739   0.274   1.173   5.055
  113OSM   H12G11740   0.436   1.102   5.000
  113OSM   C13F11741   0.427   1.312   4.996
  113OSM   H13F11742   0.531   1.336   5.027
  113OSM   H13G11743   0.354   1.389   5.031
  113OSM   C14F11744   0.417   1.307   4.845
  113OSM   H14F11745   0.327   1.251   4.813
  113OSM   H14G11746   0.498   1.236   4.819
  113OSM   C15F11747   0.439   1.442   4.772
  113OSM   H15F11748   0.489   1.421   4.675
  113OSM   H15G11749   0.505   1.502   4.838
  113OSM   C16F11750   0.311   1.521   4.752
  113OSM   H16F11751   0.244   1.513   4.840
  113OSM   H16G11752   0.258   1.480   4.663
  113OSM   C17F11753   0.337   1.670   4.716
  113OSM   H17F11754   0.237   1.719   4.714
  113OSM   H17G11755   0.383   1.669   4.615
  113OSM   C18F11756   0.420   1.744   4.821
  113OSM   H18F11757   0.414   1.852   4.797
  113OSM   H18G11758   0.525   1.712   4.838
  113OSM   H18H11759   0.372   1.743   4.922
  114OSM      N11760   6.635   0.086   6.632
  114OSM    C1511761   6.756   0.020   6.570
  114OSM   H15A11762   6.763   6.797   6.606
  114OSM   H15B11763   6.849   0.068   6.595
  114OSM   H15C11764   6.737   0.013   6.464
  114OSM    C1411765   6.596   0.203   6.544
  114OSM   H14A11766   6.495   0.241   6.550
  114OSM   H14B11767   6.611   0.182   6.439
  114OSM   H14C11768   6.654   0.291   6.564
  114OSM    C1311769   6.527   6.857   6.641
  114OSM   H13A11770   6.552   6.769   6.699
  114OSM   H13B11771   6.493   6.812   6.548
  114OSM   H13C11772   6.435   0.012   6.686
  114OSM    C1211773   6.655   0.138   6.766
  114OSM   H12A11774   6.660   0.061   6.841
  114OSM   H12B11775   6.567   0.196   6.789
  114OSM    C1111776   6.778   0.226   6.801
  114OSM   H11A11777   6.786   0.235   6.911
  114OSM   H11B11778   6.763   0.328   6.758
  114OSM      P11779   0.132   0.249   6.687
  114OSM    O1311780   0.144   0.386   6.739
  114OSM    O1411781   0.260   0.174   6.684
  114OSM    O1111782   0.065   0.265   6.548
  114OSM    O1211783   0.024   0.168   6.764
  114OSM    C1S11784   0.124   0.224   6.427
  114OSM    H1S11785   0.144   0.115   6.429
  114OSM    H1T11786   0.220   0.279   6.413
  114OSM     NF11787   0.078   0.192   6.185
  114OSM    HNF11788   0.126   0.257   6.127
  114OSM    C2S11789   0.028   0.253   6.308
  114OSM    H2S11790   6.812   0.198   6.326
  114OSM    C3S11791   0.002   0.403   6.301
  114OSM    H3S11792   0.103   0.439   6.270
  114OSM     O311793   6.833   0.460   6.419
  114OSM    HO311794   6.863   0.402   6.490
  114OSM    C4S11795   6.771   0.430   6.195
  114OSM    H4S11796   6.808   0.455   6.094
  114OSM    C5S11797   6.640   0.416   6.216
  114OSM    H5S11798   6.591   0.415   6.315
  114OSM    C6S11799   6.534   0.429   6.110
  114OSM    H6S11800   6.481   0.527   6.122
  114OSM    H6T11801   6.451   0.360   6.137
  114OSM    C7S11802   6.593   0.405   5.968
  114OSM    H7S11803   6.654   0.313   5.969
  114OSM    H7T11804   6.658   0.489   5.935
  114OSM    C8S11805   6.487   0.380   5.860
  114OSM    H8S11806   6.399   0.446   5.873
  114OSM    H8T11807   6.456   0.274   5.871
  114OSM    C9S11808   6.529   0.415   5.719
  114OSM    H9S11809   6.619   0.360   5.685
  114OSM    H9T11810   6.569   0.519   5.719
  114OSM   C10S11811   6.420   0.393   5.612
  114OSM   H10S11812   6.471   0.420   5.518
  114OSM   H10T11813   6.332   0.459   5.626
  114OSM   C11S11814   6.377   0.241   5.601
  114OSM   H11S11815   6.295   0.243   5.526
  114OSM   H11T11816   6.345   0.193   5.695
  114OSM   C12S11817   6.480   0.160   5.523
  114OSM   H12S11818   6.583   0.181   5.560
  114OSM   H12T11819   6.478   0.188   5.416
  114OSM   C13S11820   6.443   0.007   5.529
  114OSM   H13S11821   6.338   0.002   5.495
  114OSM   H13T11822   6.454   6.859   5.636
  114OSM   C14S11823   6.503   6.784   5.440
  114OSM   H14S11824   6.486   6.680   5.473
  114OSM   H14T11825   6.614   6.776   5.447
  114OSM   C15S11826   6.451   6.797   5.289
  114OSM   H15S11827   6.489   0.009   5.239
  114OSM   H15T11828   6.340   6.795   5.288
  114OSM   C16S11829   6.490   6.674   5.205
  114OSM   H16S11830   6.417   6.590   5.209
  114OSM   H16T11831   6.585   6.639   5.252
  114OSM   C17S11832   6.535   6.704   5.060
  114OSM   H17S11833   6.557   6.600   5.028
  114OSM   H17T11834   6.620   6.775   5.059
  114OSM   C18S11835   6.411   6.757   4.986
  114OSM   H18S11836   6.348   6.817   5.055
  114OSM   H18T11837   6.348   6.679   4.938
  114OSM   H18U11838   6.450   6.813   4.899
  114OSM    C1F11839   0.079   0.061   6.160
  114OSM     OF11840   0.052   6.856   6.245
  114OSM    C2F11841   0.121   0.022   6.020
  114OSM    H2F11842   0.187   6.814   6.035
  114OSM    H2G11843   0.186   0.100   5.974
  114OSM    C3F11844   0.005   0.002   5.925
  114OSM    H3F11845   6.820   0.093   5.930
  114OSM    H3G11846   6.824   6.792   5.951
  114OSM    C4F11847   0.046   6.864   5.772
  114OSM    H4F11848   0.078   6.758   5.772
  114OSM    H4G11849   0.131   0.050   5.741
  114OSM    C5F11850   6.815   6.865   5.666
  114OSM    H5F11851   6.770   0.087   5.660
  114OSM    H5G11852   6.724   6.806   5.689
  114OSM    C6F11853   6.857   6.833   5.522
  114OSM    H6F11854   0.062   0.024   5.509
  114OSM    H6G11855   6.775   6.858   5.452
  114OSM    C7F11856   0.006   6.686   5.491
  114OSM    H7F11857   6.796   6.630   5.456
  114OSM    H7G11858   0.045   6.647   5.587
  114OSM    C8F11859   0.115   6.668   5.385
  114OSM    H8F11860   0.158   6.566   5.393
  114OSM    H8G11861   0.204   6.726   5.418
  114OSM    C9F11862   0.056   6.699   5.245
  114OSM    H9F11863   0.007   6.797   5.239
  114OSM   C10F11864   0.057   6.630   5.131
  114OSM   H10F11865   0.006   6.673   5.044
  114OSM   C11F11866   0.134   6.501   5.104
  114OSM   H11F11867   0.072   6.427   5.050
  114OSM   H11G11868   0.163   6.451   5.199
  114OSM   C12F11869   0.278   6.518   5.049
  114OSM   H12F11870   0.333   6.425   5.077
  114OSM   H12G11871   0.326   6.599   5.109
  114OSM   C13F11872   0.285   6.528   4.899
  114OSM   H13F11873   0.217   6.609   4.867
  114OSM   H13G11874   0.250   6.434   4.852
  114OSM   C14F11875   0.425   6.527   4.845
  114OSM   H14F11876   0.422   6.523   4.734
  114OSM   H14G11877   0.465   6.427   4.870
  114OSM   C15F11878   0.505   6.642   4.901
  114OSM   H15F11879   0.513   6.611   5.007
  114OSM   H15G11880   0.440   6.727   4.870
  114OSM   C16F11881   0.636   6.663   4.838
  114OSM   H16F11882   0.633   6.693   4.731
  114OSM   H16G11883   0.692   6.567   4.830
  114OSM   C17F11884   0.723   6.771   4.915
  114OSM   H17F11885   0.713   6.765   5.026
  114OSM   H17G11886   0.693   6.874   4.886
  114OSM   C18F11887   0.867   6.761   4.874
  114OSM   H18F11888   0.872   6.763   4.763
  114OSM   H18G11889   0.907   6.664   4.911
  114OSM   H18H11890   0.928   6.842   4.920
  115OSM      N11891   0.566   2.582   6.971
  115OSM    C1511892   0.578   2.701   6.881
  115OSM   H15A11893   0.593   2.669   6.779
  115OSM   H15B11894   0.655   2.769   6.917
  115OSM   H15C11895   0.486   2.756   6.880
  115OSM    C1411896   0.702   2.529   7.008
  115OSM   H14A11897   0.759   2.493   6.924
  115OSM   H14B11898   0.695   2.458   7.089
  115OSM   H14C11899   0.748   2.613   7.058
  115OSM    C1311900   0.491   2.638   7.095
  115OSM   H13A11901   0.543   2.708   7.158
  115OSM   H13B11902   0.472   2.554   7.161
  115OSM   H13C11903   0.397   2.680   7.062
  115OSM    C1211904   0.478   2.478   6.906
  115OSM   H12A11905   0.468   2.392   6.971
  115OSM   H12B11906   0.523   2.440   6.815
  115OSM    C1111907   0.336   2.522   6.862
  115OSM   H11A11908   0.339   2.615   6.801
  115OSM   H11B11909   0.280   2.554   6.952
  115OSM      P11910   0.135   2.346   6.826
  115OSM    O1311911   0.114   2.217   6.750
  115OSM    O1411912   0.120   2.330   6.971
  115OSM    O1111913   0.045   2.457   6.764
  115OSM    O1211914   0.280   2.405   6.793
  115OSM    C1S11915   0.067   2.490   6.623
  115OSM    H1S11916   0.058   2.402   6.556
  115OSM    H1T11917   0.173   2.520   6.610
  115OSM     NF11918   6.851   2.605   6.433
  115OSM    HNF11919   0.030   2.671   6.387
  115OSM    C2S11920   6.847   2.600   6.579
  115OSM    H2S11921   6.742   2.594   6.617
  115OSM    C3S11922   0.011   2.730   6.653
  115OSM    H3S11923   0.120   2.746   6.639
  115OSM     O311924   6.874   2.714   6.795
  115OSM    HO311925   6.866   2.619   6.810
  115OSM    C4S11926   6.806   2.858   6.611
  115OSM    H4S11927   6.700   2.870   6.638
  115OSM    C5S11928   6.859   2.969   6.552
  115OSM    H5S11929   0.085   2.978   6.522
  115OSM    C6S11930   6.784   3.094   6.518
  115OSM    H6S11931   6.753   3.152   6.608
  115OSM    H6T11932   6.689   3.071   6.465
  115OSM    C7S11933   6.876   3.183   6.435
  115OSM    H7S11934   0.044   3.126   6.353
  115OSM    H7T11935   0.081   3.218   6.499
  115OSM    C8S11936   6.794   3.292   6.359
  115OSM    H8S11937   6.778   3.379   6.426
  115OSM    H8T11938   6.699   3.247   6.323
  115OSM    C9S11939   0.005   3.353   6.250
  115OSM    H9S11940   0.023   3.264   6.186
  115OSM    H9T11941   0.101   3.393   6.289
  115OSM   C10S11942   6.823   3.452   6.147
  115OSM   H10S11943   6.781   3.538   6.203
  115OSM   H10T11944   6.750   3.393   6.088
  115OSM   C11S11945   0.043   3.497   6.042
  115OSM   H11S11946   0.095   3.411   5.994
  115OSM   H11T11947   0.121   3.553   6.098
  115OSM   C12S11948   6.869   3.585   5.930
  115OSM   H12S11949   6.813   3.671   5.973
  115OSM   H12T11950   6.798   3.531   5.863
  115OSM   C13S11951   0.102   3.632   5.837
  115OSM   H13S11952   0.060   3.694   5.755
  115OSM   H13T11953   0.160   3.549   5.792
  115OSM   C14S11954   0.199   3.722   5.917
  115OSM   H14S11955   0.245   3.671   6.004
  115OSM   H14T11956   0.133   3.803   5.955
  115OSM   C15S11957   0.320   3.791   5.835
  115OSM   H15S11958   0.373   3.695   5.815
  115OSM   H15T11959   0.384   3.853   5.901
  115OSM   C16S11960   0.263   3.876   5.715
  115OSM   H16S11961   0.319   3.971   5.700
  115OSM   H16T11962   0.160   3.910   5.737
  115OSM   C17S11963   0.260   3.806   5.577
  115OSM   H17S11964   0.168   3.745   5.579
  115OSM   H17T11965   0.344   3.733   5.573
  115OSM   C18S11966   0.253   3.898   5.458
  115OSM   H18S11967   0.344   3.961   5.448
  115OSM   H18T11968   0.161   3.960   5.457
  115OSM   H18U11969   0.239   3.845   5.361
  115OSM    C1F11970   6.772   2.528   6.366
  115OSM     OF11971   6.694   2.450   6.420
  115OSM    C2F11972   6.779   2.534   6.220
  115OSM    H2F11973   0.009   2.520   6.206
  115OSM    H2G11974   6.737   2.630   6.184
  115OSM    C3F11975   6.694   2.434   6.134
  115OSM    H3F11976   6.587   2.460   6.147
  115OSM    H3G11977   6.687   2.326   6.159
  115OSM    C4F11978   6.718   2.446   5.982
  115OSM    H4F11979   6.633   2.389   5.939
  115OSM    H4G11980   6.807   2.388   5.951
  115OSM    C5F11981   6.723   2.584   5.920
  115OSM    H5F11982   6.809   2.638   5.963
  115OSM    H5G11983   6.628   2.638   5.941
  115OSM    C6F11984   6.736   2.578   5.771
  115OSM    H6F11985   6.646   2.523   5.736
  115OSM    H6G11986   6.831   2.524   5.750
  115OSM    C7F11987   6.747   2.712   5.711
  115OSM    H7F11988   6.820   2.773   5.769
  115OSM    H7G11989   6.646   2.756   5.722
  115OSM    C8F11990   6.788   2.696   5.565
  115OSM    H8F11991   6.747   2.607   5.512
  115OSM    H8G11992   0.019   2.685   5.552
  115OSM    C9F11993   6.762   2.825   5.498
  115OSM    H9F11994   6.704   2.890   5.564
  115OSM   C10F11995   6.777   2.860   5.373
  115OSM   H10F11996   6.743   2.960   5.343
  115OSM   C11F11997   6.842   2.771   5.265
  115OSM   H11F11998   6.772   2.698   5.220
  115OSM   H11G11999   0.047   2.708   5.300
  115OSM   C12F12000   0.019   2.850   5.148
  115OSM   H12F12001   0.080   2.776   5.093
  115OSM   H12G12002   0.085   2.937   5.170
  115OSM   C13F12003   6.782   2.904   5.058
  115OSM   H13F12004   6.718   2.972   5.117
  115OSM   H13G12005   6.725   2.816   5.019
  115OSM   C14F12006   6.833   3.004   4.951
  115OSM   H14F12007   6.871   2.948   4.864
  115OSM   H14G12008   0.045   3.056   4.989
  115OSM   C15F12009   6.732   3.099   4.890
  115OSM   H15F12010   6.685   3.166   4.965
  115OSM   H15G12011   6.656   3.034   4.843
  115OSM   C16F12012   6.803   3.186   4.785
  115OSM   H16F12013   6.813   3.124   4.693
  115OSM   H16G12014   0.021   3.225   4.823
  115OSM   C17F12015   6.712   3.296   4.725
  115OSM   H17F12016   6.674   3.362   4.806
  115OSM   H17G12017   6.633   3.244   4.666
  115OSM   C18F12018   6.786   3.407   4.640
  115OSM   H18F12019   6.858   3.471   4.695
  115OSM   H18G12020   6.712   3.474   4.591
  115OSM   H18H12021   6.823   3.354   4.549
  116OSM      N12022   1.639   1.160   6.790
  116OSM    C1512023   1.728   1.286   6.797
  116OSM   H15A12024   1.685   1.359   6.731
  116OSM   H15B12025   1.825   1.262   6.755
  116OSM   H15C12026   1.736   1.325   6.897
  116OSM    C1412027   1.710   1.035   6.846
  116OSM   H14A12028   1.806   1.010   6.802
  116OSM   H14B12029   1.651   0.945   6.836
  116OSM   H14C12030   1.717   1.056   6.952
  116OSM    C1312031   1.522   1.192   6.866
  116OSM   H13A12032   1.553   1.227   6.963
  116OSM   H13B12033   1.455   1.107   6.870
  116OSM   H13C12034   1.481   1.281   6.821
  116OSM    C1212035   1.596   1.137   6.647
  116OSM   H12A12036   1.543   1.045   6.625
  116OSM   H12B12037   1.687   1.131   6.590
  116OSM    C1112038   1.512   1.256   6.583
  116OSM   H11A12039   1.421   1.275   6.643
  116OSM   H11B12040   1.481   1.209   6.487
  116OSM      P12041   1.696   1.397   6.453
  116OSM    O1312042   1.715   1.540   6.446
  116OSM    O1412043   1.808   1.303   6.484
  116OSM    O1112044   1.622   1.348   6.325
  116OSM    O1212045   1.586   1.373   6.566
  116OSM    C1S12046   1.492   1.386   6.291
  116OSM    H1S12047   1.422   1.432   6.364
  116OSM    H1T12048   1.438   1.293   6.263
  116OSM     NF12049   1.375   1.528   6.136
  116OSM    HNF12050   1.327   1.493   6.056
  116OSM    C2S12051   1.501   1.480   6.170
  116OSM    H2S12052   1.568   1.565   6.195
  116OSM    C3S12053   1.562   1.410   6.048
  116OSM    H3S12054   1.483   1.338   6.016
  116OSM     O312055   1.678   1.327   6.066
  116OSM    HO312056   1.689   1.331   6.161
  116OSM    C4S12057   1.586   1.505   5.937
  116OSM    H4S12058   1.495   1.509   5.876
  116OSM    C5S12059   1.695   1.575   5.895
  116OSM    H5S12060   1.795   1.559   5.938
  116OSM    C6S12061   1.699   1.647   5.768
  116OSM    H6S12062   1.770   1.733   5.773
  116OSM    H6T12063   1.601   1.691   5.742
  116OSM    C7S12064   1.747   1.559   5.648
  116OSM    H7S12065   1.671   1.483   5.623
  116OSM    H7T12066   1.846   1.515   5.671
  116OSM    C8S12067   1.759   1.648   5.527
  116OSM    H8S12068   1.839   1.725   5.529
  116OSM    H8T12069   1.664   1.703   5.516
  116OSM    C9S12070   1.789   1.574   5.398
  116OSM    H9S12071   1.739   1.475   5.406
  116OSM    H9T12072   1.899   1.562   5.403
  116OSM   C10S12073   1.747   1.647   5.269
  116OSM   H10S12074   1.816   1.731   5.247
  116OSM   H10T12075   1.644   1.686   5.277
  116OSM   C11S12076   1.756   1.563   5.138
  116OSM   H11S12077   1.683   1.479   5.150
  116OSM   H11T12078   1.859   1.523   5.134
  116OSM   C12S12079   1.722   1.630   5.000
  116OSM   H12S12080   1.797   1.712   4.992
  116OSM   H12T12081   1.617   1.664   4.990
  116OSM   C13S12082   1.755   1.531   4.887
  116OSM   H13S12083   1.676   1.453   4.883
  116OSM   H13T12084   1.858   1.492   4.902
  116OSM   C14S12085   1.742   1.607   4.745
  116OSM   H14S12086   1.825   1.680   4.750
  116OSM   H14T12087   1.649   1.667   4.741
  116OSM   C15S12088   1.752   1.518   4.619
  116OSM   H15S12089   1.673   1.440   4.614
  116OSM   H15T12090   1.848   1.462   4.627
  116OSM   C16S12091   1.765   1.605   4.497
  116OSM   H16S12092   1.825   1.694   4.523
  116OSM   H16T12093   1.661   1.639   4.476
  116OSM   C17S12094   1.830   1.539   4.386
  116OSM   H17S12095   1.773   1.447   4.360
  116OSM   H17T12096   1.934   1.522   4.424
  116OSM   C18S12097   1.833   1.625   4.261
  116OSM   H18S12098   1.874   1.575   4.170
  116OSM   H18T12099   1.894   1.715   4.280
  116OSM   H18U12100   1.729   1.646   4.227
  116OSM    C1F12101   1.309   1.624   6.208
  116OSM     OF12102   1.365   1.694   6.294
  116OSM    C2F12103   1.166   1.644   6.188
  116OSM    H2F12104   1.119   1.652   6.289
  116OSM    H2G12105   1.114   1.571   6.123
  116OSM    C3F12106   1.143   1.781   6.123
  116OSM    H3F12107   1.188   1.868   6.175
  116OSM    H3G12108   1.035   1.806   6.123
  116OSM    C4F12109   1.202   1.806   5.976
  116OSM    H4F12110   1.309   1.776   5.971
  116OSM    H4G12111   1.210   1.916   5.968
  116OSM    C5F12112   1.123   1.769   5.856
  116OSM    H5F12113   1.034   1.836   5.865
  116OSM    H5G12114   1.081   1.670   5.882
  116OSM    C6F12115   1.198   1.765   5.724
  116OSM    H6F12116   1.122   1.777   5.644
  116OSM    H6G12117   1.248   1.666   5.723
  116OSM    C7F12118   1.307   1.872   5.696
  116OSM    H7F12119   1.391   1.839   5.760
  116OSM    H7G12120   1.262   1.966   5.735
  116OSM    C8F12121   1.345   1.888   5.552
  116OSM    H8F12122   1.433   1.956   5.552
  116OSM    H8G12123   1.271   1.949   5.497
  116OSM    C9F12124   1.374   1.753   5.493
  116OSM    H9F12125   1.424   1.686   5.564
  116OSM   C10F12126   1.350   1.718   5.359
  116OSM   H10F12127   1.398   1.628   5.317
  116OSM   C11F12128   1.288   1.810   5.260
  116OSM   H11F12129   1.250   1.902   5.309
  116OSM   H11G12130   1.206   1.748   5.217
  116OSM   C12F12131   1.383   1.855   5.145
  116OSM   H12F12132   1.423   1.761   5.102
  116OSM   H12G12133   1.460   1.928   5.177
  116OSM   C13F12134   1.299   1.911   5.029
  116OSM   H13F12135   1.240   2.001   5.058
  116OSM   H13G12136   1.214   1.840   5.018
  116OSM   C14F12137   1.371   1.932   4.894
  116OSM   H14F12138   1.420   1.838   4.862
  116OSM   H14G12139   1.442   2.017   4.899
  116OSM   C15F12140   1.266   1.979   4.790
  116OSM   H15F12141   1.215   2.073   4.822
  116OSM   H15G12142   1.186   1.902   4.792
  116OSM   C16F12143   1.326   1.995   4.646
  116OSM   H16F12144   1.357   1.895   4.609
  116OSM   H16G12145   1.412   2.065   4.643
  116OSM   C17F12146   1.225   2.056   4.549
  116OSM   H17F12147   1.275   2.110   4.466
  116OSM   H17G12148   1.156   2.138   4.580
  116OSM   C18F12149   1.131   1.961   4.476
  116OSM   H18F12150   1.041   2.011   4.434
  116OSM   H18G12151   1.092   1.884   4.546
  116OSM   H18H12152   1.187   1.911   4.394
  117OSM      N12153   0.666   4.572   6.622
  117OSM    C1512154   0.736   4.449   6.567
  117OSM   H15A12155   0.816   4.413   6.631
  117OSM   H15B12156   0.798   4.478   6.483
  117OSM   H15C12157   0.665   4.377   6.531
  117OSM    C1412158   0.572   4.622   6.523
  117OSM   H14A12159   0.510   4.702   6.562
  117OSM   H14B12160   0.514   4.539   6.487
  117OSM   H14C12161   0.625   4.659   6.436
  117OSM    C1312162   0.587   4.529   6.738
  117OSM   H13A12163   0.647   4.455   6.789
  117OSM   H13B12164   0.501   4.484   6.691
  117OSM   H13C12165   0.557   4.610   6.802
  117OSM    C1212166   0.776   4.664   6.667
  117OSM   H12A12167   0.841   4.613   6.737
  117OSM   H12B12168   0.727   4.747   6.715
  117OSM    C1112169   0.865   4.722   6.549
  117OSM   H11A12170   0.906   4.821   6.579
  117OSM   H11B12171   0.807   4.747   6.458
  117OSM      P12172   1.123   4.622   6.547
  117OSM    O1312173   1.155   4.617   6.693
  117OSM    O1412174   1.197   4.520   6.467
  117OSM    O1112175   1.163   4.768   6.493
  117OSM    O1212176   0.970   4.628   6.509
  117OSM    C1S12177   1.229   4.778   6.367
  117OSM    H1S12178   1.312   4.705   6.355
  117OSM    H1T12179   1.285   4.874   6.372
  117OSM     NF12180   1.208   4.770   6.122
  117OSM    HNF12181   1.194   4.851   6.066
  117OSM    C2S12182   1.132   4.785   6.244
  117OSM    H2S12183   1.062   4.699   6.256
  117OSM    C3S12184   1.055   4.918   6.256
  117OSM    H3S12185   1.126   5.000   6.230
  117OSM     O312186   1.021   4.953   6.391
  117OSM    HO312187   1.061   4.881   6.441
  117OSM    C4S12188   0.938   4.932   6.159
  117OSM    H4S12189   0.961   4.968   6.058
  117OSM    C5S12190   0.808   4.910   6.177
  117OSM    H5S12191   0.765   4.884   6.274
  117OSM    C6S12192   0.708   4.929   6.064
  117OSM    H6S12193   0.616   4.980   6.102
  117OSM    H6T12194   0.680   4.828   6.029
  117OSM    C7S12195   0.747   4.996   5.933
  117OSM    H7S12196   0.841   4.960   5.886
  117OSM    H7T12197   0.755   5.106   5.947
  117OSM    C8S12198   0.627   4.980   5.836
  117OSM    H8S12199   0.545   5.025   5.895
  117OSM    H8T12200   0.603   4.872   5.829
  117OSM    C9S12201   0.642   5.045   5.701
  117OSM    H9S12202   0.680   4.962   5.638
  117OSM    H9T12203   0.723   5.119   5.723
  117OSM   C10S12204   0.524   5.106   5.646
  117OSM   H10S12205   0.504   5.211   5.677
  117OSM   H10T12206   0.429   5.056   5.674
  117OSM   C11S12207   0.522   5.116   5.496
  117OSM   H11S12208   0.420   5.155   5.477
  117OSM   H11T12209   0.530   5.022   5.437
  117OSM   C12S12210   0.641   5.196   5.447
  117OSM   H12S12211   0.742   5.162   5.479
  117OSM   H12T12212   0.624   5.294   5.496
  117OSM   C13S12213   0.635   5.223   5.293
  117OSM   H13S12214   0.537   5.272   5.276
  117OSM   H13T12215   0.649   5.132   5.232
  117OSM   C14S12216   0.725   5.333   5.246
  117OSM   H14S12217   0.807   5.341   5.321
  117OSM   H14T12218   0.680   5.435   5.245
  117OSM   C15S12219   0.783   5.300   5.108
  117OSM   H15S12220   0.705   5.339   5.038
  117OSM   H15T12221   0.802   5.193   5.083
  117OSM   C16S12222   0.911   5.378   5.072
  117OSM   H16S12223   0.994   5.335   5.132
  117OSM   H16T12224   0.911   5.484   5.107
  117OSM   C17S12225   0.949   5.365   4.924
  117OSM   H17S12226   0.852   5.399   4.882
  117OSM   H17T12227   0.956   5.260   4.888
  117OSM   C18S12228   1.068   5.445   4.886
  117OSM   H18S12229   1.064   5.552   4.918
  117OSM   H18T12230   1.084   5.439   4.776
  117OSM   H18U12231   1.154   5.398   4.937
  117OSM    C1F12232   1.279   4.668   6.084
  117OSM     OF12233   1.267   4.557   6.131
  117OSM    C2F12234   1.370   4.695   5.969
  117OSM    H2F12235   1.383   4.805   5.961
  117OSM    H2G12236   1.312   4.673   5.876
  117OSM    C3F12237   1.496   4.601   5.978
  117OSM    H3F12238   1.470   4.495   6.002
  117OSM    H3G12239   1.572   4.629   6.054
  117OSM    C4F12240   1.579   4.580   5.849
  117OSM    H4F12241   1.666   4.511   5.860
  117OSM    H4G12242   1.614   4.679   5.813
  117OSM    C5F12243   1.494   4.510   5.744
  117OSM    H5F12244   1.420   4.575   5.693
  117OSM    H5G12245   1.433   4.423   5.776
  117OSM    C6F12246   1.579   4.469   5.625
  117OSM    H6F12247   1.656   4.405   5.673
  117OSM    H6G12248   1.640   4.537   5.562
  117OSM    C7F12249   1.507   4.382   5.520
  117OSM    H7F12250   1.413   4.345   5.566
  117OSM    H7G12251   1.576   4.301   5.489
  117OSM    C8F12252   1.465   4.464   5.394
  117OSM    H8F12253   1.545   4.514   5.337
  117OSM    H8G12254   1.397   4.544   5.429
  117OSM    C9F12255   1.390   4.374   5.296
  117OSM    H9F12256   1.285   4.367   5.326
  117OSM   C10F12257   1.439   4.304   5.191
  117OSM   H10F12258   1.372   4.250   5.122
  117OSM   C11F12259   1.578   4.300   5.141
  117OSM   H11F12260   1.614   4.197   5.156
  117OSM   H11G12261   1.640   4.359   5.212
  117OSM   C12F12262   1.604   4.337   4.988
  117OSM   H12F12263   1.611   4.448   4.981
  117OSM   H12G12264   1.522   4.309   4.919
  117OSM   C13F12265   1.731   4.272   4.939
  117OSM   H13F12266   1.706   4.165   4.957
  117OSM   H13G12267   1.820   4.292   5.003
  117OSM   C14F12268   1.762   4.282   4.788
  117OSM   H14F12269   1.811   4.382   4.779
  117OSM   H14G12270   1.668   4.287   4.728
  117OSM   C15F12271   1.853   4.177   4.733
  117OSM   H15F12272   1.862   4.199   4.625
  117OSM   H15G12273   1.820   4.071   4.745
  117OSM   C16F12274   2.001   4.169   4.782
  117OSM   H16F12275   2.058   4.095   4.721
  117OSM   H16G12276   1.988   4.157   4.892
  117OSM   C17F12277   2.079   4.302   4.754
  117OSM   H17F12278   2.155   4.312   4.833
  117OSM   H17G12279   2.019   4.394   4.767
  117OSM   C18F12280   2.128   4.308   4.611
  117OSM   H18F12281   2.207   4.233   4.591
  117OSM   H18G12282   2.182   4.405   4.606
  117OSM   H18H12283   2.046   4.298   4.537
  118OSM      N12284   0.505   3.824   6.565
  118OSM    C1512285   0.495   3.804   6.417
  118OSM   H15A12286   0.393   3.808   6.383
  118OSM   H15B12287   0.556   3.725   6.376
  118OSM   H15C12288   0.537   3.894   6.375
  118OSM    C1412289   0.652   3.822   6.613
  118OSM   H14A12290   0.649   3.834   6.721
  118OSM   H14B12291   0.715   3.899   6.570
  118OSM   H14C12292   0.693   3.724   6.596
  118OSM    C1312293   0.438   3.960   6.591
  118OSM   H13A12294   0.496   4.034   6.537
  118OSM   H13B12295   0.430   3.978   6.697
  118OSM   H13C12296   0.340   3.955   6.547
  118OSM    C1212297   0.423   3.712   6.641
  118OSM   H12A12298   0.333   3.701   6.583
  118OSM   H12B12299   0.396   3.748   6.739
  118OSM    C1112300   0.470   3.565   6.647
  118OSM   H11A12301   0.399   3.496   6.697
  118OSM   H11B12302   0.563   3.569   6.707
  118OSM      P12303   0.402   3.449   6.432
  118OSM    O1312304   0.363   3.324   6.507
  118OSM    O1412305   0.293   3.536   6.401
  118OSM    O1112306   0.469   3.387   6.302
  118OSM    O1212307   0.514   3.523   6.517
  118OSM    C1S12308   0.583   3.303   6.318
  118OSM    H1S12309   0.551   3.216   6.379
  118OSM    H1T12310   0.669   3.352   6.369
  118OSM     NF12311   0.705   3.135   6.169
  118OSM    HNF12312   0.787   3.150   6.115
  118OSM    C2S12313   0.611   3.248   6.172
  118OSM    H2S12314   0.511   3.208   6.146
  118OSM    C3S12315   0.656   3.363   6.081
  118OSM    H3S12316   0.760   3.390   6.109
  118OSM     O312317   0.585   3.484   6.104
  118OSM    HO312318   0.520   3.452   6.166
  118OSM    C4S12319   0.644   3.333   5.943
  118OSM    H4S12320   0.739   3.285   5.913
  118OSM    C5S12321   0.544   3.348   5.858
  118OSM    H5S12322   0.455   3.404   5.890
  118OSM    C6S12323   0.558   3.331   5.707
  118OSM    H6S12324   0.491   3.406   5.661
  118OSM    H6T12325   0.505   3.239   5.675
  118OSM    C7S12326   0.698   3.353   5.653
  118OSM    H7S12327   0.782   3.296   5.698
  118OSM    H7T12328   0.725   3.460   5.668
  118OSM    C8S12329   0.707   3.317   5.506
  118OSM    H8S12330   0.692   3.208   5.487
  118OSM    H8T12331   0.813   3.336   5.479
  118OSM    C9S12332   0.621   3.409   5.410
  118OSM    H9S12333   0.663   3.512   5.408
  118OSM    H9T12334   0.517   3.410   5.450
  118OSM   C10S12335   0.628   3.353   5.262
  118OSM   H10S12336   0.541   3.387   5.202
  118OSM   H10T12337   0.620   3.242   5.266
  118OSM   C11S12338   0.769   3.374   5.198
  118OSM   H11S12339   0.854   3.334   5.257
  118OSM   H11T12340   0.790   3.483   5.195
  118OSM   C12S12341   0.778   3.337   5.052
  118OSM   H12S12342   0.694   3.270   5.023
  118OSM   H12T12343   0.877   3.291   5.034
  118OSM   C13S12344   0.786   3.450   4.946
  118OSM   H13S12345   0.878   3.509   4.963
  118OSM   H13T12346   0.701   3.519   4.962
  118OSM   C14S12347   0.775   3.382   4.809
  118OSM   H14S12348   0.673   3.343   4.790
  118OSM   H14T12349   0.835   3.289   4.812
  118OSM   C15S12350   0.821   3.471   4.695
  118OSM   H15S12351   0.824   3.415   4.599
  118OSM   H15T12352   0.924   3.505   4.719
  118OSM   C16S12353   0.730   3.594   4.689
  118OSM   H16S12354   0.778   3.679   4.637
  118OSM   H16T12355   0.722   3.643   4.788
  118OSM   C17S12356   0.586   3.571   4.626
  118OSM   H17S12357   0.516   3.653   4.652
  118OSM   H17T12358   0.528   3.486   4.668
  118OSM   C18S12359   0.597   3.544   4.477
  118OSM   H18S12360   0.629   3.439   4.460
  118OSM   H18T12361   0.677   3.603   4.428
  118OSM   H18U12362   0.505   3.567   4.418
  118OSM    C1F12363   0.672   3.012   6.223
  118OSM     OF12364   0.572   2.993   6.286
  118OSM    C2F12365   0.782   2.913   6.222
  118OSM    H2F12366   0.818   2.896   6.326
  118OSM    H2G12367   0.865   2.961   6.167
  118OSM    C3F12368   0.746   2.781   6.158
  118OSM    H3F12369   0.674   2.743   6.233
  118OSM    H3G12370   0.837   2.719   6.145
  118OSM    C4F12371   0.686   2.793   6.018
  118OSM    H4F12372   0.591   2.848   6.031
  118OSM    H4G12373   0.667   2.690   5.981
  118OSM    C5F12374   0.773   2.866   5.925
  118OSM    H5F12375   0.871   2.814   5.924
  118OSM    H5G12376   0.795   2.968   5.964
  118OSM    C6F12377   0.704   2.895   5.786
  118OSM    H6F12378   0.622   2.970   5.799
  118OSM    H6G12379   0.663   2.807   5.733
  118OSM    C7F12380   0.816   2.961   5.697
  118OSM    H7F12381   0.906   2.902   5.726
  118OSM    H7G12382   0.848   3.064   5.722
  118OSM    C8F12383   0.796   2.954   5.542
  118OSM    H8F12384   0.855   3.038   5.500
  118OSM    H8G12385   0.693   2.993   5.524
  118OSM    C9F12386   0.815   2.817   5.471
  118OSM    H9F12387   0.824   2.725   5.530
  118OSM   C10F12388   0.800   2.792   5.342
  118OSM   H10F12389   0.818   2.688   5.309
  118OSM   C11F12390   0.780   2.885   5.222
  118OSM   H11F12391   0.814   2.988   5.248
  118OSM   H11G12392   0.673   2.899   5.193
  118OSM   C12F12393   0.867   2.841   5.101
  118OSM   H12F12394   0.832   2.746   5.054
  118OSM   H12G12395   0.964   2.809   5.145
  118OSM   C13F12396   0.890   2.955   5.002
  118OSM   H13F12397   0.940   3.035   5.060
  118OSM   H13G12398   0.792   3.004   4.984
  118OSM   C14F12399   0.955   2.913   4.869
  118OSM   H14F12400   0.903   2.838   4.806
  118OSM   H14G12401   1.043   2.856   4.906
  118OSM   C15F12402   1.009   3.035   4.799
  118OSM   H15F12403   1.055   3.105   4.872
  118OSM   H15G12404   0.929   3.104   4.765
  118OSM   C16F12405   1.106   3.003   4.679
  118OSM   H16F12406   1.043   2.945   4.608
  118OSM   H16G12407   1.201   2.948   4.694
  118OSM   C17F12408   1.149   3.126   4.615
  118OSM   H17F12409   1.242   3.110   4.556
  118OSM   H17G12410   1.163   3.217   4.677
  118OSM   C18F12411   1.046   3.174   4.506
  118OSM   H18F12412   0.944   3.189   4.547
  118OSM   H18G12413   1.040   3.086   4.438
  118OSM   H18H12414   1.088   3.267   4.460
  119OSM      N12415   3.089   1.665   7.026
  119OSM    C1512416   3.041   1.525   7.004
  119OSM   H15A12417   2.990   1.493   7.094
  119OSM   H15B12418   3.112   1.458   6.958
  119OSM   H15C12419   2.962   1.530   6.930
  119OSM    C1412420   2.971   1.755   7.057
  119OSM   H14A12421   2.917   1.712   7.140
  119OSM   H14B12422   2.907   1.768   6.971
  119OSM   H14C12423   3.013   1.851   7.086
  119OSM    C1312424   3.186   1.667   7.137
  119OSM   H13A12425   3.272   1.603   7.122
  119OSM   H13B12426   3.143   1.631   7.229
  119OSM   H13C12427   3.224   1.766   7.155
  119OSM    C1212428   3.141   1.705   6.885
  119OSM   H12A12429   3.212   1.633   6.847
  119OSM   H12B12430   3.194   1.799   6.890
  119OSM    C1112431   3.027   1.722   6.775
  119OSM   H11A12432   3.077   1.728   6.676
  119OSM   H11B12433   2.974   1.818   6.795
  119OSM      P12434   2.803   1.632   6.696
  119OSM    O1312435   2.716   1.527   6.739
  119OSM    O1412436   2.754   1.771   6.686
  119OSM    O1112437   2.848   1.596   6.550
  119OSM    O1212438   2.937   1.617   6.774
  119OSM    C1S12439   2.901   1.471   6.517
  119OSM    H1S12440   2.821   1.394   6.515
  119OSM    H1T12441   2.984   1.439   6.583
  119OSM     NF12442   3.028   1.335   6.357
  119OSM    HNF12443   3.126   1.329   6.337
  119OSM    C2S12444   2.967   1.469   6.378
  119OSM    H2S12445   2.881   1.470   6.308
  119OSM    C3S12446   3.062   1.587   6.358
  119OSM    H3S12447   3.145   1.568   6.430
  119OSM     O312448   3.016   1.719   6.383
  119OSM    HO312449   2.945   1.702   6.445
  119OSM    C4S12450   3.124   1.576   6.216
  119OSM    H4S12451   3.222   1.528   6.206
  119OSM    C5S12452   3.058   1.623   6.105
  119OSM    H5S12453   2.956   1.664   6.113
  119OSM    C6S12454   3.095   1.601   5.962
  119OSM    H6S12455   3.013   1.540   5.919
  119OSM    H6T12456   3.194   1.553   5.952
  119OSM    C7S12457   3.107   1.728   5.883
  119OSM    H7S12458   3.185   1.794   5.925
  119OSM    H7T12459   3.011   1.783   5.881
  119OSM    C8S12460   3.142   1.695   5.733
  119OSM    H8S12461   3.057   1.660   5.670
  119OSM    H8T12462   3.219   1.616   5.744
  119OSM    C9S12463   3.195   1.822   5.672
  119OSM    H9S12464   3.294   1.844   5.717
  119OSM    H9T12465   3.123   1.899   5.705
  119OSM   C10S12466   3.199   1.823   5.517
  119OSM   H10S12467   3.250   1.912   5.474
  119OSM   H10T12468   3.099   1.814   5.468
  119OSM   C11S12469   3.281   1.710   5.456
  119OSM   H11S12470   3.239   1.612   5.486
  119OSM   H11T12471   3.381   1.718   5.505
  119OSM   C12S12472   3.313   1.727   5.310
  119OSM   H12S12473   3.393   1.654   5.283
  119OSM   H12T12474   3.363   1.822   5.279
  119OSM   C13S12475   3.186   1.706   5.224
  119OSM   H13S12476   3.114   1.791   5.237
  119OSM   H13T12477   3.148   1.609   5.262
  119OSM   C14S12478   3.222   1.704   5.072
  119OSM   H14S12479   3.299   1.626   5.053
  119OSM   H14T12480   3.272   1.802   5.057
  119OSM   C15S12481   3.101   1.700   4.974
  119OSM   H15S12482   3.020   1.772   4.995
  119OSM   H15T12483   3.052   1.600   4.982
  119OSM   C16S12484   3.167   1.722   4.841
  119OSM   H16S12485   3.242   1.644   4.819
  119OSM   H16T12486   3.227   1.816   4.848
  119OSM   C17S12487   3.062   1.737   4.735
  119OSM   H17S12488   2.996   1.825   4.748
  119OSM   H17T12489   3.002   1.644   4.721
  119OSM   C18S12490   3.136   1.771   4.605
  119OSM   H18S12491   3.223   1.702   4.605
  119OSM   H18T12492   3.161   1.879   4.601
  119OSM   H18U12493   3.072   1.738   4.521
  119OSM    C1F12494   2.969   1.222   6.356
  119OSM     OF12495   2.850   1.204   6.377
  119OSM    C2F12496   3.068   1.109   6.345
  119OSM    H2F12497   3.014   1.028   6.398
  119OSM    H2G12498   3.164   1.136   6.394
  119OSM    C3F12499   3.082   1.045   6.204
  119OSM    H3F12500   2.984   1.031   6.153
  119OSM    H3G12501   3.145   0.957   6.227
  119OSM    C4F12502   3.162   1.136   6.101
  119OSM    H4F12503   3.264   1.154   6.141
  119OSM    H4G12504   3.118   1.237   6.088
  119OSM    C5F12505   3.179   1.072   5.962
  119OSM    H5F12506   3.085   1.059   5.905
  119OSM    H5G12507   3.207   0.966   5.981
  119OSM    C6F12508   3.283   1.133   5.866
  119OSM    H6F12509   3.376   1.109   5.921
  119OSM    H6G12510   3.281   1.244   5.863
  119OSM    C7F12511   3.276   1.067   5.729
  119OSM    H7F12512   3.178   1.080   5.679
  119OSM    H7G12513   3.278   0.957   5.744
  119OSM    C8F12514   3.387   1.111   5.626
  119OSM    H8F12515   3.487   1.101   5.673
  119OSM    H8G12516   3.368   1.216   5.593
  119OSM    C9F12517   3.388   1.020   5.504
  119OSM    H9F12518   3.412   0.914   5.520
  119OSM   C10F12519   3.355   1.068   5.383
  119OSM   H10F12520   3.368   0.998   5.299
  119OSM   C11F12521   3.313   1.208   5.346
  119OSM   H11F12522   3.397   1.273   5.380
  119OSM   H11G12523   3.218   1.243   5.391
  119OSM   C12F12524   3.321   1.205   5.193
  119OSM   H12F12525   3.408   1.154   5.147
  119OSM   H12G12526   3.328   1.316   5.185
  119OSM   C13F12527   3.195   1.156   5.124
  119OSM   H13F12528   3.101   1.200   5.165
  119OSM   H13G12529   3.181   1.048   5.147
  119OSM   C14F12530   3.200   1.169   4.969
  119OSM   H14F12531   3.118   1.113   4.917
  119OSM   H14G12532   3.298   1.139   4.927
  119OSM   C15F12533   3.162   1.312   4.940
  119OSM   H15F12534   3.236   1.377   4.991
  119OSM   H15G12535   3.062   1.326   4.986
  119OSM   C16F12536   3.161   1.337   4.784
  119OSM   H16F12537   3.091   1.421   4.764
  119OSM   H16G12538   3.120   1.249   4.730
  119OSM   C17F12539   3.298   1.355   4.716
  119OSM   H17F12540   3.363   1.267   4.735
  119OSM   H17G12541   3.348   1.447   4.753
  119OSM   C18F12542   3.283   1.362   4.566
  119OSM   H18F12543   3.260   1.264   4.518
  119OSM   H18G12544   3.382   1.378   4.520
  119OSM   H18H12545   3.205   1.437   4.541
  120OSM      N12546   5.993   4.491   6.300
  120OSM    C1512547   5.903   4.371   6.310
  120OSM   H15A12548   5.883   4.341   6.411
  120OSM   H15B12549   5.958   4.288   6.267
  120OSM   H15C12550   5.806   4.380   6.263
  120OSM    C1412551   6.128   4.457   6.373
  120OSM   H14A12552   6.187   4.384   6.320
  120OSM   H14B12553   6.106   4.425   6.474
  120OSM   H14C12554   6.183   4.549   6.383
  120OSM    C1312555   6.035   4.510   6.162
  120OSM   H13A12556   6.079   4.419   6.123
  120OSM   H13B12557   6.099   4.597   6.155
  120OSM   H13C12558   5.953   4.539   6.098
  120OSM    C1212559   5.928   4.615   6.366
  120OSM   H12A12560   5.909   4.595   6.470
  120OSM   H12B12561   5.836   4.637   6.312
  120OSM    C1112562   6.001   4.752   6.354
  120OSM   H11A12563   5.930   4.835   6.375
  120OSM   H11B12564   6.029   4.778   6.250
  120OSM      P12565   6.118   4.825   6.577
  120OSM    O1312566   6.018   4.752   6.656
  120OSM    O1412567   6.255   4.831   6.623
  120OSM    O1112568   6.059   4.970   6.541
  120OSM    O1212569   6.119   4.759   6.435
  120OSM    C1S12570   6.129   5.051   6.439
  120OSM    H1S12571   6.213   4.991   6.399
  120OSM    H1T12572   6.181   5.135   6.489
  120OSM     NF12573   6.108   5.169   6.230
  120OSM    HNF12574   6.122   5.268   6.223
  120OSM    C2S12575   6.033   5.106   6.336
  120OSM    H2S12576   5.984   5.011   6.305
  120OSM    C3S12577   5.928   5.214   6.401
  120OSM    H3S12578   5.983   5.308   6.422
  120OSM     O312579   5.878   5.165   6.524
  120OSM    HO312580   5.930   5.086   6.541
  120OSM    C4S12581   5.817   5.246   6.306
  120OSM    H4S12582   5.846   5.332   6.243
  120OSM    C5S12583   5.694   5.194   6.291
  120OSM    H5S12584   5.659   5.115   6.360
  120OSM    C6S12585   5.585   5.249   6.205
  120OSM    H6S12586   5.552   5.347   6.245
  120OSM    H6T12587   5.504   5.172   6.207
  120OSM    C7S12588   5.634   5.267   6.063
  120OSM    H7S12589   5.663   5.173   6.010
  120OSM    H7T12590   5.720   5.337   6.061
  120OSM    C8S12591   5.536   5.342   5.975
  120OSM    H8S12592   5.532   5.453   5.983
  120OSM    H8T12593   5.430   5.318   5.999
  120OSM    C9S12594   5.566   5.323   5.827
  120OSM    H9S12595   5.544   5.219   5.794
  120OSM    H9T12596   5.677   5.332   5.826
  120OSM   C10S12597   5.496   5.424   5.731
  120OSM   H10S12598   5.536   5.526   5.750
  120OSM   H10T12599   5.385   5.426   5.722
  120OSM   C11S12600   5.540   5.394   5.583
  120OSM   H11S12601   5.550   5.284   5.579
  120OSM   H11T12602   5.641   5.439   5.570
  120OSM   C12S12603   5.454   5.445   5.467
  120OSM   H12S12604   5.460   5.556   5.460
  120OSM   H12T12605   5.346   5.427   5.486
  120OSM   C13S12606   5.504   5.411   5.326
  120OSM   H13S12607   5.517   5.302   5.310
  120OSM   H13T12608   5.609   5.444   5.317
  120OSM   C14S12609   5.416   5.472   5.218
  120OSM   H14S12610   5.423   5.583   5.217
  120OSM   H14T12611   5.312   5.444   5.243
  120OSM   C15S12612   5.455   5.411   5.082
  120OSM   H15S12613   5.431   5.302   5.083
  120OSM   H15T12614   5.565   5.418   5.069
  120OSM   C16S12615   5.383   5.474   4.967
  120OSM   H16S12616   5.423   5.578   4.960
  120OSM   H16T12617   5.273   5.476   4.982
  120OSM   C17S12618   5.427   5.416   4.827
  120OSM   H17S12619   5.374   5.473   4.748
  120OSM   H17T12620   5.386   5.312   4.821
  120OSM   C18S12621   5.578   5.430   4.803
  120OSM   H18S12622   5.610   5.528   4.845
  120OSM   H18T12623   5.603   5.432   4.695
  120OSM   H18U12624   5.625   5.341   4.849
  120OSM    C1F12625   6.165   5.092   6.139
  120OSM     OF12626   6.159   4.972   6.144
  120OSM    C2F12627   6.252   5.171   6.044
  120OSM    H2F12628   6.355   5.144   6.075
  120OSM    H2G12629   6.242   5.280   6.066
  120OSM    C3F12630   6.236   5.136   5.896
  120OSM    H3F12631   6.274   5.033   5.881
  120OSM    H3G12632   6.306   5.207   5.847
  120OSM    C4F12633   6.092   5.150   5.849
  120OSM    H4F12634   6.019   5.088   5.906
  120OSM    H4G12635   6.089   5.106   5.747
  120OSM    C5F12636   6.039   5.291   5.832
  120OSM    H5F12637   6.118   5.366   5.810
  120OSM    H5G12638   5.977   5.316   5.921
  120OSM    C6F12639   5.946   5.309   5.709
  120OSM    H6F12640   5.900   5.409   5.694
  120OSM    H6G12641   5.874   5.226   5.727
  120OSM    C7F12642   6.011   5.290   5.570
  120OSM    H7F12643   6.060   5.191   5.560
  120OSM    H7G12644   6.089   5.369   5.573
  120OSM    C8F12645   5.930   5.334   5.455
  120OSM    H8F12646   5.999   5.359   5.371
  120OSM    H8G12647   5.894   5.437   5.475
  120OSM    C9F12648   5.822   5.234   5.423
  120OSM    H9F12649   5.748   5.215   5.502
  120OSM   C10F12650   5.807   5.172   5.304
  120OSM   H10F12651   5.714   5.116   5.287
  120OSM   C11F12652   5.893   5.202   5.180
  120OSM   H11F12653   5.868   5.120   5.109
  120OSM   H11G12654   6.003   5.206   5.197
  120OSM   C12F12655   5.855   5.331   5.114
  120OSM   H12F12656   5.811   5.413   5.175
  120OSM   H12G12657   5.776   5.299   5.042
  120OSM   C13F12658   5.976   5.388   5.039
  120OSM   H13F12659   6.011   5.306   4.973
  120OSM   H13G12660   6.065   5.416   5.099
  120OSM   C14F12661   5.949   5.509   4.953
  120OSM   H14F12662   5.941   5.587   5.032
  120OSM   H14G12663   5.849   5.501   4.907
  120OSM   C15F12664   6.051   5.522   4.842
  120OSM   H15F12665   6.129   5.445   4.861
  120OSM   H15G12666   6.089   5.626   4.847
  120OSM   C16F12667   5.984   5.503   4.702
  120OSM   H16F12668   6.069   5.518   4.632
  120OSM   H16G12669   5.908   5.583   4.692
  120OSM   C17F12670   5.934   5.358   4.673
  120OSM   H17F12671   5.873   5.316   4.756
  120OSM   H17G12672   6.016   5.284   4.663
  120OSM   C18F12673   5.869   5.340   4.538
  120OSM   H18F12674   5.786   5.413   4.536
  120OSM   H18G12675   5.840   5.233   4.527
  120OSM   H18H12676   5.944   5.377   4.465
  121OSM      N12677   0.029   1.419   7.250
  121OSM    C1512678   6.842   1.508   7.351
  121OSM   H15A12679   6.757   1.454   7.390
  121OSM   H15B12680   6.811   1.600   7.304
  121OSM   H15C12681   0.033   1.545   7.424
  121OSM    C1412682   0.159   1.466   7.216
  121OSM   H14A12683   0.199   1.401   7.139
  121OSM   H14B12684   0.230   1.462   7.298
  121OSM   H14C12685   0.166   1.565   7.173
  121OSM    C1312686   0.052   1.287   7.316
  121OSM   H13A12687   6.836   1.254   7.354
  121OSM   H13B12688   0.128   1.286   7.392
  121OSM   H13C12689   0.086   1.220   7.239
  121OSM    C1212690   6.822   1.409   7.132
  121OSM   H12A12691   6.806   1.507   7.090
  121OSM   H12B12692   6.724   1.374   7.162
  121OSM    C1112693   6.869   1.323   7.014
  121OSM   H11A12694   6.790   1.321   6.935
  121OSM   H11B12695   0.013   1.219   7.045
  121OSM      P12696   0.218   1.296   6.883
  121OSM    O1312697   0.333   1.380   6.849
  121OSM    O1412698   0.248   1.183   6.971
  121OSM    O1112699   0.154   1.245   6.748
  121OSM    O1212700   0.104   1.389   6.949
  121OSM    C1S12701   0.056   1.306   6.665
  121OSM    H1S12702   0.099   1.368   6.583
  121OSM    H1T12703   6.862   1.363   6.727
  121OSM     NF12704   6.773   1.250   6.476
  121OSM    HNF12705   6.678   1.278   6.489
  121OSM    C2S12706   6.847   1.195   6.591
  121OSM    H2S12707   0.026   1.109   6.552
  121OSM    C3S12708   6.758   1.123   6.700
  121OSM    H3S12709   6.679   1.191   6.736
  121OSM     O312710   6.829   1.079   6.814
  121OSM    HO312711   0.037   1.118   6.823
  121OSM    C4S12712   6.675   1.008   6.638
  121OSM    H4S12713   6.569   1.006   6.664
  121OSM    C5S12714   6.724   0.897   6.571
  121OSM    H5S12715   6.830   0.874   6.586
  121OSM    C6S12716   6.631   0.784   6.530
  121OSM    H6S12717   6.541   0.779   6.595
  121OSM    H6T12718   6.682   0.686   6.544
  121OSM    C7S12719   6.604   0.807   6.379
  121OSM    H7S12720   6.570   0.911   6.360
  121OSM    H7T12721   6.515   0.746   6.352
  121OSM    C8S12722   6.721   0.775   6.285
  121OSM    H8S12723   6.683   0.750   6.184
  121OSM    H8T12724   6.789   0.698   6.328
  121OSM    C9S12725   6.797   0.905   6.244
  121OSM    H9S12726   6.831   0.954   6.338
  121OSM    H9T12727   6.719   0.970   6.199
  121OSM   C10S12728   0.045   0.876   6.161
  121OSM   H10S12729   0.100   0.789   6.202
  121OSM   H10T12730   0.113   0.964   6.161
  121OSM   C11S12731   0.019   0.845   6.015
  121OSM   H11S12732   6.847   0.930   5.965
  121OSM   H11T12733   6.843   0.749   6.008
  121OSM   C12S12734   0.159   0.827   5.948
  121OSM   H12S12735   0.221   0.765   6.015
  121OSM   H12T12736   0.216   0.923   5.941
  121OSM   C13S12737   0.157   0.767   5.808
  121OSM   H13S12738   0.132   0.659   5.820
  121OSM   H13T12739   0.255   0.768   5.755
  121OSM   C14S12740   0.042   0.825   5.717
  121OSM   H14S12741   0.038   0.934   5.736
  121OSM   H14T12742   6.824   0.776   5.738
  121OSM   C15S12743   0.087   0.793   5.577
  121OSM   H15S12744   0.076   0.683   5.581
  121OSM   H15T12745   0.193   0.817   5.553
  121OSM   C16S12746   6.877   0.849   5.473
  121OSM   H16S12747   6.877   0.960   5.481
  121OSM   H16T12748   6.771   0.815   5.481
  121OSM   C17S12749   0.045   0.809   5.329
  121OSM   H17S12750   0.050   0.698   5.320
  121OSM   H17T12751   0.148   0.846   5.315
  121OSM   C18S12752   6.826   0.861   5.218
  121OSM   H18S12753   6.721   0.826   5.223
  121OSM   H18T12754   6.870   0.851   5.116
  121OSM   H18U12755   6.821   0.969   5.241
  121OSM    C1F12756   6.838   1.281   6.362
  121OSM     OF12757   0.078   1.264   6.345
  121OSM    C2F12758   6.744   1.337   6.256
  121OSM    H2F12759   6.713   1.437   6.291
  121OSM    H2G12760   6.658   1.266   6.254
  121OSM    C3F12761   6.792   1.348   6.117
  121OSM    H3F12762   0.005   1.411   6.120
  121OSM    H3G12763   6.712   1.400   6.059
  121OSM    C4F12764   6.820   1.216   6.037
  121OSM    H4F12765   6.722   1.169   6.014
  121OSM    H4G12766   6.867   1.146   6.109
  121OSM    C5F12767   0.010   1.231   5.903
  121OSM    H5F12768   0.032   1.128   5.869
  121OSM    H5G12769   0.104   1.286   5.926
  121OSM    C6F12770   6.804   1.300   5.798
  121OSM    H6F12771   6.813   1.408   5.824
  121OSM    H6G12772   6.695   1.283   5.808
  121OSM    C7F12773   6.846   1.280   5.658
  121OSM    H7F12774   6.819   1.179   5.621
  121OSM    H7G12775   0.075   1.291   5.636
  121OSM    C8F12776   6.770   1.375   5.572
  121OSM    H8F12777   6.815   1.475   5.563
  121OSM    H8G12778   6.665   1.396   5.604
  121OSM    C9F12779   6.769   1.331   5.426
  121OSM    H9F12780   6.867   1.291   5.396
  121OSM   C10F12781   6.657   1.312   5.358
  121OSM   H10F12782   6.661   1.278   5.254
  121OSM   C11F12783   6.516   1.354   5.397
  121OSM   H11F12784   6.539   1.435   5.470
  121OSM   H11G12785   6.474   1.273   5.461
  121OSM   C12F12786   6.416   1.405   5.289
  121OSM   H12F12787   6.461   1.491   5.233
  121OSM   H12G12788   6.322   1.438   5.339
  121OSM   C13F12789   6.387   1.298   5.184
  121OSM   H13F12790   6.327   1.219   5.233
  121OSM   H13G12791   6.483   1.250   5.156
  121OSM   C14F12792   6.318   1.337   5.054
  121OSM   H14F12793   6.376   1.405   4.988
  121OSM   H14G12794   6.218   1.380   5.075
  121OSM   C15F12795   6.310   1.209   4.952
  121OSM   H15F12796   6.239   1.146   5.008
  121OSM   H15G12797   6.411   1.166   4.934
  121OSM   C16F12798   6.257   1.250   4.816
  121OSM   H16F12799   6.328   1.307   4.752
  121OSM   H16G12800   6.161   1.305   4.828
  121OSM   C17F12801   6.224   1.132   4.722
  121OSM   H17F12802   6.142   1.084   4.780
  121OSM   H17G12803   6.314   1.069   4.707
  121OSM   C18F12804   6.174   1.168   4.587
  121OSM   H18F12805   6.207   1.092   4.514
  121OSM   H18G12806   6.224   1.261   4.552
  121OSM   H18H12807   6.064   1.186   4.595
  122OSM      N12808   6.427   3.450   6.525
  122OSM    C1512809   6.311   3.404   6.609
  122OSM   H15A12810   6.291   3.482   6.682
  122OSM   H15B12811   6.335   3.315   6.665
  122OSM   H15C12812   6.213   3.404   6.565
  122OSM    C1412813   6.555   3.448   6.597
  122OSM   H14A12814   6.632   3.490   6.534
  122OSM   H14B12815   6.582   3.346   6.619
  122OSM   H14C12816   6.556   3.499   6.693
  122OSM    C1312817   6.442   3.351   6.407
  122OSM   H13A12818   6.530   3.388   6.357
  122OSM   H13B12819   6.356   3.350   6.341
  122OSM   H13C12820   6.460   3.251   6.443
  122OSM    C1212821   6.398   3.588   6.474
  122OSM   H12A12822   6.392   3.660   6.555
  122OSM   H12B12823   6.304   3.576   6.423
  122OSM    C1112824   6.500   3.642   6.371
  122OSM   H11A12825   6.455   3.736   6.334
  122OSM   H11B12826   6.498   3.570   6.286
  122OSM      P12827   6.678   3.774   6.493
  122OSM    O1312828   6.603   3.782   6.624
  122OSM    O1412829   6.826   3.766   6.495
  122OSM    O1112830   6.643   3.904   6.417
  122OSM    O1212831   6.635   3.661   6.405
  122OSM    C1S12832   6.706   3.931   6.292
  122OSM    H1S12833   6.678   3.858   6.213
  122OSM    H1T12834   6.816   3.929   6.308
  122OSM     NF12835   6.742   4.103   6.104
  122OSM    HNF12836   6.821   4.163   6.099
  122OSM    C2S12837   6.681   4.074   6.237
  122OSM    H2S12838   6.570   4.069   6.230
  122OSM    C3S12839   6.707   4.179   6.344
  122OSM    H3S12840   6.816   4.194   6.363
  122OSM     O312841   6.644   4.160   6.476
  122OSM    HO312842   6.618   4.068   6.485
  122OSM    C4S12843   6.672   4.314   6.276
  122OSM    H4S12844   6.755   4.364   6.224
  122OSM    C5S12845   6.548   4.372   6.275
  122OSM    H5S12846   6.462   4.329   6.329
  122OSM    C6S12847   6.517   4.496   6.198
  122OSM    H6S12848   6.549   4.586   6.255
  122OSM    H6T12849   6.406   4.501   6.200
  122OSM    C7S12850   6.572   4.487   6.058
  122OSM    H7S12851   6.544   4.389   6.013
  122OSM    H7T12852   6.682   4.495   6.041
  122OSM    C8S12853   6.503   4.602   5.967
  122OSM    H8S12854   6.557   4.696   5.988
  122OSM    H8T12855   6.401   4.619   6.008
  122OSM    C9S12856   6.486   4.564   5.821
  122OSM    H9S12857   6.427   4.471   5.815
  122OSM    H9T12858   6.590   4.538   5.790
  122OSM   C10S12859   6.439   4.675   5.731
  122OSM   H10S12860   6.530   4.737   5.712
  122OSM   H10T12861   6.367   4.736   5.789
  122OSM   C11S12862   6.360   4.636   5.608
  122OSM   H11S12863   6.256   4.602   5.628
  122OSM   H11T12864   6.415   4.557   5.551
  122OSM   C12S12865   6.326   4.753   5.515
  122OSM   H12S12866   6.424   4.785   5.472
  122OSM   H12T12867   6.277   4.838   5.566
  122OSM   C13S12868   6.244   4.702   5.393
  122OSM   H13S12869   6.145   4.706   5.445
  122OSM   H13T12870   6.273   4.599   5.364
  122OSM   C14S12871   6.244   4.802   5.271
  122OSM   H14S12872   6.345   4.809   5.226
  122OSM   H14T12873   6.234   4.906   5.309
  122OSM   C15S12874   6.124   4.773   5.180
  122OSM   H15S12875   6.031   4.792   5.238
  122OSM   H15T12876   6.127   4.662   5.182
  122OSM   C16S12877   6.134   4.840   5.048
  122OSM   H16S12878   6.231   4.819   4.998
  122OSM   H16T12879   6.123   4.950   5.064
  122OSM   C17S12880   6.036   4.787   4.950
  122OSM   H17S12881   5.935   4.796   4.996
  122OSM   H17T12882   6.045   4.679   4.927
  122OSM   C18S12883   6.013   4.871   4.829
  122OSM   H18S12884   5.927   4.827   4.775
  122OSM   H18T12885   6.105   4.880   4.766
  122OSM   H18U12886   5.989   4.975   4.861
  122OSM    C1F12887   6.706   4.047   5.987
  122OSM     OF12888   6.606   3.975   5.976
  122OSM    C2F12889   6.793   4.079   5.868
  122OSM    H2F12890   6.771   4.000   5.794
  122OSM    H2G12891   0.022   4.067   5.887
  122OSM    C3F12892   6.779   4.222   5.814
  122OSM    H3F12893   6.826   4.301   5.877
  122OSM    H3G12894   6.672   4.245   5.833
  122OSM    C4F12895   6.804   4.228   5.664
  122OSM    H4F12896   6.724   4.167   5.616
  122OSM    H4G12897   0.030   4.198   5.642
  122OSM    C5F12898   6.797   4.367   5.609
  122OSM    H5F12899   0.004   4.431   5.634
  122OSM    H5G12900   6.710   4.424   5.648
  122OSM    C6F12901   6.774   4.372   5.456
  122OSM    H6F12902   6.728   4.472   5.442
  122OSM    H6G12903   6.691   4.301   5.436
  122OSM    C7F12904   0.014   4.360   5.368
  122OSM    H7F12905   0.084   4.282   5.404
  122OSM    H7G12906   0.082   4.447   5.373
  122OSM    C8F12907   6.858   4.334   5.224
  122OSM    H8F12908   0.063   4.360   5.157
  122OSM    H8G12909   6.777   4.407   5.200
  122OSM    C9F12910   6.810   4.191   5.205
  122OSM    H9F12911   6.707   4.163   5.233
  122OSM   C10F12912   0.007   4.095   5.152
  122OSM   H10F12913   6.850   3.992   5.149
  122OSM   C11F12914   0.150   4.109   5.108
  122OSM   H11F12915   0.210   4.018   5.132
  122OSM   H11G12916   0.191   4.200   5.158
  122OSM   C12F12917   0.148   4.134   4.947
  122OSM   H12F12918   0.105   4.236   4.935
  122OSM   H12G12919   0.079   4.063   4.896
  122OSM   C13F12920   0.289   4.146   4.873
  122OSM   H13F12921   0.335   4.051   4.906
  122OSM   H13G12922   0.342   4.229   4.924
  122OSM   C14F12923   0.274   4.154   4.724
  122OSM   H14F12924   0.379   4.170   4.689
  122OSM   H14G12925   0.216   4.248   4.709
  122OSM   C15F12926   0.196   4.035   4.658
  122OSM   H15F12927   0.095   4.025   4.702
  122OSM   H15G12928   0.257   3.945   4.683
  122OSM   C16F12929   0.166   4.059   4.510
  122OSM   H16F12930   0.258   4.036   4.452
  122OSM   H16G12931   0.123   4.160   4.494
  122OSM   C17F12932   0.061   3.955   4.465
  122OSM   H17F12933   6.860   3.951   4.541
  122OSM   H17G12934   0.102   3.852   4.471
  122OSM   C18F12935   0.016   3.987   4.322
  122OSM   H18F12936   6.808   3.922   4.299
  122OSM   H18G12937   0.101   3.980   4.251
  122OSM   H18H12938   6.852   4.089   4.317
  123OSM      N12939   2.088   2.147   1.844
  123OSM    C1512940   2.092   2.031   1.759
  123OSM   H15A12941   2.194   2.005   1.736
  123OSM   H15B12942   2.036   2.062   1.672
  123OSM   H15C12943   2.032   1.949   1.795
  123OSM    C1412944   1.941   2.194   1.862
  123OSM   H14A12945   1.942   2.297   1.894
  123OSM   H14B12946   1.896   2.126   1.933
  123OSM   H14C12947   1.887   2.202   1.769
  123OSM    C1312948   2.135   2.113   1.982
  123OSM   H13A12949   2.121   2.187   2.059
  123OSM   H13B12950   2.241   2.091   1.975
  123OSM   H13C12951   2.088   2.022   2.018
  123OSM    C1212952   2.157   2.269   1.779
  123OSM   H12A12953   2.170   2.345   1.855
  123OSM   H12B12954   2.093   2.307   1.701
  123OSM    C1112955   2.297   2.243   1.713
  123OSM   H11A12956   2.333   2.333   1.658
  123OSM   H11B12957   2.281   2.176   1.626
  123OSM      P12958   2.513   2.280   1.868
  123OSM    O1312959   2.600   2.188   1.947
  123OSM    O1412960   2.579   2.347   1.757
  123OSM    O1112961   2.446   2.384   1.960
  123OSM    O1212962   2.399   2.193   1.811
  123OSM    C1S12963   2.363   2.344   2.075
  123OSM    H1S12964   2.372   2.235   2.090
  123OSM    H1T12965   2.257   2.371   2.055
  123OSM     NF12966   2.320   2.378   2.317
  123OSM    HNF12967   2.274   2.457   2.357
  123OSM    C2S12968   2.414   2.406   2.205
  123OSM    H2S12969   2.508   2.348   2.212
  123OSM    C3S12970   2.460   2.557   2.201
  123OSM    H3S12971   2.363   2.611   2.203
  123OSM     O312972   2.524   2.602   2.082
  123OSM    HO312973   2.527   2.523   2.027
  123OSM    C4S12974   2.544   2.596   2.324
  123OSM    H4S12975   2.596   2.508   2.364
  123OSM    C5S12976   2.530   2.717   2.386
  123OSM    H5S12977   2.469   2.799   2.346
  123OSM    C6S12978   2.614   2.752   2.507
  123OSM    H6S12979   2.639   2.860   2.500
  123OSM    H6T12980   2.707   2.694   2.525
  123OSM    C7S12981   2.545   2.739   2.639
  123OSM    H7S12982   2.448   2.793   2.638
  123OSM    H7T12983   2.608   2.789   2.716
  123OSM    C8S12984   2.521   2.597   2.680
  123OSM    H8S12985   2.613   2.534   2.670
  123OSM    H8T12986   2.438   2.550   2.624
  123OSM    C9S12987   2.480   2.590   2.829
  123OSM    H9S12988   2.434   2.489   2.841
  123OSM    H9T12989   2.395   2.661   2.841
  123OSM   C10S12990   2.586   2.607   2.938
  123OSM   H10S12991   2.603   2.715   2.957
  123OSM   H10T12992   2.676   2.546   2.914
  123OSM   C11S12993   2.538   2.543   3.074
  123OSM   H11S12994   2.493   2.445   3.046
  123OSM   H11T12995   2.450   2.596   3.116
  123OSM   C12S12996   2.655   2.520   3.170
  123OSM   H12S12997   2.706   2.618   3.182
  123OSM   H12T12998   2.728   2.450   3.124
  123OSM   C13S12999   2.612   2.469   3.311
  123OSM   H13S13000   2.694   2.426   3.371
  123OSM   H13T13001   2.539   2.386   3.299
  123OSM   C14S13002   2.546   2.576   3.394
  123OSM   H14S13003   2.468   2.630   3.336
  123OSM   H14T13004   2.625   2.650   3.416
  123OSM   C15S13005   2.471   2.527   3.523
  123OSM   H15S13006   2.548   2.488   3.593
  123OSM   H15T13007   2.396   2.450   3.494
  123OSM   C16S13008   2.401   2.639   3.610
  123OSM   H16S13009   2.358   2.712   3.537
  123OSM   H16T13010   2.479   2.692   3.668
  123OSM   C17S13011   2.301   2.584   3.712
  123OSM   H17S13012   2.262   2.673   3.765
  123OSM   H17T13013   2.359   2.517   3.780
  123OSM   C18S13014   2.177   2.520   3.660
  123OSM   H18S13015   2.105   2.477   3.732
  123OSM   H18T13016   2.192   2.440   3.584
  123OSM   H18U13017   2.126   2.596   3.596
  123OSM    C1F13018   2.286   2.257   2.360
  123OSM     OF13019   2.342   2.161   2.313
  123OSM    C2F13020   2.178   2.258   2.461
  123OSM    H2F13021   2.083   2.227   2.414
  123OSM    H2G13022   2.153   2.362   2.492
  123OSM    C3F13023   2.232   2.178   2.581
  123OSM    H3F13024   2.270   2.081   2.542
  123OSM    H3G13025   2.143   2.153   2.642
  123OSM    C4F13026   2.350   2.235   2.666
  123OSM    H4F13027   2.335   2.342   2.691
  123OSM    H4G13028   2.438   2.247   2.600
  123OSM    C5F13029   2.386   2.152   2.786
  123OSM    H5F13030   2.481   2.187   2.831
  123OSM    H5G13031   2.401   2.044   2.768
  123OSM    C6F13032   2.277   2.169   2.897
  123OSM    H6F13033   2.178   2.123   2.874
  123OSM    H6G13034   2.255   2.278   2.903
  123OSM    C7F13035   2.325   2.129   3.035
  123OSM    H7F13036   2.238   2.150   3.101
  123OSM    H7G13037   2.409   2.194   3.066
  123OSM    C8F13038   2.358   1.984   3.047
  123OSM    H8F13039   2.443   1.960   2.979
  123OSM    H8G13040   2.275   1.929   2.998
  123OSM    C9F13041   2.406   1.939   3.185
  123OSM    H9F13042   2.512   1.959   3.207
  123OSM   C10F13043   2.331   1.862   3.263
  123OSM   H10F13044   2.383   1.823   3.351
  123OSM   C11F13045   2.191   1.804   3.249
  123OSM   H11F13046   2.136   1.851   3.165
  123OSM   H11G13047   2.132   1.833   3.338
  123OSM   C12F13048   2.196   1.643   3.242
  123OSM   H12F13049   2.259   1.607   3.326
  123OSM   H12G13050   2.247   1.619   3.146
  123OSM   C13F13051   2.059   1.584   3.231
  123OSM   H13F13052   2.068   1.480   3.193
  123OSM   H13G13053   2.000   1.634   3.152
  123OSM   C14F13054   1.983   1.600   3.362
  123OSM   H14F13055   1.881   1.562   3.337
  123OSM   H14G13056   1.960   1.704   3.393
  123OSM   C15F13057   2.031   1.517   3.487
  123OSM   H15F13058   2.117   1.565   3.539
  123OSM   H15G13059   2.059   1.414   3.456
  123OSM   C16F13060   1.917   1.518   3.593
  123OSM   H16F13061   1.836   1.446   3.568
  123OSM   H16G13062   1.882   1.622   3.608
  123OSM   C17F13063   1.977   1.461   3.733
  123OSM   H17F13064   2.040   1.371   3.718
  123OSM   H17G13065   1.895   1.426   3.799
  123OSM   C18F13066   2.060   1.573   3.798
  123OSM   H18F13067   2.138   1.619   3.734
  123OSM   H18G13068   2.124   1.529   3.877
  123OSM   H18H13069   1.993   1.652   3.839
  124OSM      N13070   2.594   3.424   1.892
  124OSM    C1513071   2.453   3.460   1.952
  124OSM   H15A13072   2.378   3.399   1.905
  124OSM   H15B13073   2.431   3.561   1.922
  124OSM   H15C13074   2.452   3.453   2.060
  124OSM    C1413075   2.643   3.304   1.963
  124OSM   H14A13076   2.740   3.272   1.928
  124OSM   H14B13077   2.581   3.215   1.957
  124OSM   H14C13078   2.648   3.327   2.068
  124OSM    C1313079   2.572   3.384   1.742
  124OSM   H13A13080   2.658   3.322   1.719
  124OSM   H13B13081   2.571   3.474   1.681
  124OSM   H13C13082   2.487   3.320   1.724
  124OSM    C1213083   2.674   3.551   1.904
  124OSM   H12A13084   2.659   3.596   2.001
  124OSM   H12B13085   2.636   3.627   1.838
  124OSM    C1113086   2.828   3.537   1.887
  124OSM   H11A13087   2.861   3.534   1.781
  124OSM   H11B13088   2.878   3.445   1.924
  124OSM      P13089   2.959   3.660   2.072
  124OSM    O1313090   3.108   3.637   2.043
  124OSM    O1413091   2.925   3.786   2.137
  124OSM    O1113092   2.908   3.537   2.155
  124OSM    O1213093   2.887   3.651   1.938
  124OSM    C1S13094   2.937   3.525   2.298
  124OSM    H1S13095   3.033   3.573   2.327
  124OSM    H1T13096   2.948   3.418   2.324
  124OSM     NF13097   2.850   3.585   2.522
  124OSM    HNF13098   2.824   3.507   2.579
  124OSM    C2S13099   2.817   3.575   2.384
  124OSM    H2S13100   2.787   3.670   2.334
  124OSM    C3S13101   2.697   3.471   2.365
  124OSM    H3S13102   2.747   3.379   2.400
  124OSM     O313103   2.653   3.458   2.232
  124OSM    HO313104   2.708   3.523   2.186
  124OSM    C4S13105   2.582   3.507   2.457
  124OSM    H4S13106   2.586   3.451   2.551
  124OSM    C5S13107   2.468   3.578   2.431
  124OSM    H5S13108   2.451   3.609   2.327
  124OSM    C6S13109   2.347   3.583   2.517
  124OSM    H6S13110   2.258   3.614   2.458
  124OSM    H6T13111   2.370   3.664   2.590
  124OSM    C7S13112   2.293   3.460   2.595
  124OSM    H7S13113   2.378   3.394   2.626
  124OSM    H7T13114   2.234   3.405   2.518
  124OSM    C8S13115   2.218   3.483   2.722
  124OSM    H8S13116   2.175   3.387   2.759
  124OSM    H8T13117   2.140   3.557   2.696
  124OSM    C9S13118   2.298   3.535   2.847
  124OSM    H9S13119   2.316   3.644   2.835
  124OSM    H9T13120   2.400   3.493   2.834
  124OSM   C10S13121   2.257   3.503   2.991
  124OSM   H10S13122   2.163   3.560   3.009
  124OSM   H10T13123   2.336   3.547   3.055
  124OSM   C11S13124   2.255   3.357   3.034
  124OSM   H11S13125   2.352   3.311   3.005
  124OSM   H11T13126   2.175   3.310   2.973
  124OSM   C12S13127   2.229   3.342   3.183
  124OSM   H12S13128   2.242   3.235   3.210
  124OSM   H12T13129   2.130   3.382   3.213
  124OSM   C13S13130   2.337   3.407   3.281
  124OSM   H13S13131   2.330   3.518   3.280
  124OSM   H13T13132   2.433   3.377   3.236
  124OSM   C14S13133   2.317   3.350   3.426
  124OSM   H14S13134   2.322   3.239   3.426
  124OSM   H14T13135   2.209   3.361   3.449
  124OSM   C15S13136   2.399   3.414   3.537
  124OSM   H15S13137   2.384   3.523   3.523
  124OSM   H15T13138   2.507   3.386   3.533
  124OSM   C16S13139   2.353   3.362   3.677
  124OSM   H16S13140   2.394   3.259   3.691
  124OSM   H16T13141   2.243   3.357   3.685
  124OSM   C17S13142   2.400   3.446   3.800
  124OSM   H17S13143   2.401   3.553   3.770
  124OSM   H17T13144   2.506   3.423   3.823
  124OSM   C18S13145   2.319   3.428   3.924
  124OSM   H18S13146   2.309   3.319   3.943
  124OSM   H18T13147   2.216   3.468   3.919
  124OSM   H18U13148   2.375   3.461   4.014
  124OSM    C1F13149   2.943   3.670   2.571
  124OSM     OF13150   3.001   3.750   2.501
  124OSM    C2F13151   2.967   3.667   2.720
  124OSM    H2F13152   2.980   3.561   2.749
  124OSM    H2G13153   2.871   3.699   2.768
  124OSM    C3F13154   3.085   3.752   2.762
  124OSM    H3F13155   3.061   3.858   2.739
  124OSM    H3G13156   3.178   3.723   2.710
  124OSM    C4F13157   3.128   3.752   2.909
  124OSM    H4F13158   3.042   3.788   2.970
  124OSM    H4G13159   3.213   3.822   2.915
  124OSM    C5F13160   3.175   3.616   2.958
  124OSM    H5F13161   3.258   3.591   2.888
  124OSM    H5G13162   3.113   3.525   2.942
  124OSM    C6F13163   3.217   3.616   3.105
  124OSM    H6F13164   3.286   3.701   3.118
  124OSM    H6G13165   3.277   3.527   3.132
  124OSM    C7F13166   3.099   3.616   3.196
  124OSM    H7F13167   3.027   3.543   3.153
  124OSM    H7G13168   3.052   3.717   3.200
  124OSM    C8F13169   3.132   3.562   3.335
  124OSM    H8F13170   3.188   3.466   3.332
  124OSM    H8G13171   3.036   3.544   3.388
  124OSM    C9F13172   3.223   3.660   3.409
  124OSM    H9F13173   3.302   3.710   3.351
  124OSM   C10F13174   3.229   3.680   3.543
  124OSM   H10F13175   3.301   3.760   3.570
  124OSM   C11F13176   3.147   3.625   3.656
  124OSM   H11F13177   3.043   3.609   3.620
  124OSM   H11G13178   3.136   3.704   3.733
  124OSM   C12F13179   3.198   3.501   3.726
  124OSM   H12F13180   3.293   3.522   3.779
  124OSM   H12G13181   3.208   3.421   3.650
  124OSM   C13F13182   3.086   3.442   3.822
  124OSM   H13F13183   2.989   3.434   3.769
  124OSM   H13G13184   3.046   3.505   3.904
  124OSM   C14F13185   3.117   3.303   3.887
  124OSM   H14F13186   3.022   3.251   3.912
  124OSM   H14G13187   3.180   3.332   3.974
  124OSM   C15F13188   3.201   3.206   3.801
  124OSM   H15F13189   3.306   3.242   3.802
  124OSM   H15G13190   3.161   3.199   3.697
  124OSM   C16F13191   3.225   3.067   3.866
  124OSM   H16F13192   3.129   3.014   3.882
  124OSM   H16G13193   3.282   3.078   3.961
  124OSM   C17F13194   3.300   2.973   3.778
  124OSM   H17F13195   3.403   3.011   3.760
  124OSM   H17G13196   3.247   2.964   3.681
  124OSM   C18F13197   3.300   2.832   3.842
  124OSM   H18F13198   3.334   2.823   3.947
  124OSM   H18G13199   3.354   2.754   3.785
  124OSM   H18H13200   3.194   2.796   3.846
  125OSM      N13201   4.379   6.195   2.114
  125OSM    C1513202   4.475   6.258   2.016
  125OSM   H15A13203   4.472   6.211   1.919
  125OSM   H15B13204   4.572   6.267   2.063
  125OSM   H15C13205   4.451   6.361   1.992
  125OSM    C1413206   4.240   6.206   2.060
  125OSM   H14A13207   4.210   6.310   2.063
  125OSM   H14B13208   4.175   6.144   2.120
  125OSM   H14C13209   4.224   6.172   1.959
  125OSM    C1313210   4.424   6.053   2.119
  125OSM   H13A13211   4.526   6.048   2.153
  125OSM   H13B13212   4.414   6.006   2.022
  125OSM   H13C13213   4.361   5.996   2.185
  125OSM    C1213214   4.387   6.250   2.252
  125OSM   H12A13215   4.486   6.242   2.295
  125OSM   H12B13216   4.316   6.196   2.314
  125OSM    C1113217   4.352   6.399   2.272
  125OSM   H11A13218   4.416   6.461   2.205
  125OSM   H11B13219   4.377   6.413   2.379
  125OSM      P13220   4.153   6.571   2.266
  125OSM    O1313221   4.194   6.632   2.140
  125OSM    O1413222   4.003   6.560   2.282
  125OSM    O1113223   4.215   6.648   2.389
  125OSM    O1213224   4.213   6.429   2.265
  125OSM    C1S13225   4.194   6.593   2.515
  125OSM    H1S13226   4.268   6.513   2.532
  125OSM    H1T13227   4.102   6.532   2.530
  125OSM     NF13228   4.124   6.639   2.738
  125OSM    HNF13229   4.032   6.676   2.746
  125OSM    C2S13230   4.190   6.695   2.628
  125OSM    H2S13231   4.291   6.718   2.666
  125OSM    C3S13232   4.131   6.842   2.578
  125OSM    H3S13233   4.025   6.818   2.556
  125OSM     O313234   4.179   0.026   2.454
  125OSM    HO313235   4.205   6.834   2.396
  125OSM    C4S13236   4.134   0.059   2.695
  125OSM    H4S13237   4.218   0.045   2.766
  125OSM    C5S13238   4.047   0.154   2.729
  125OSM    H5S13239   3.949   0.151   2.677
  125OSM    C6S13240   4.047   0.255   2.840
  125OSM    H6S13241   3.996   0.344   2.798
  125OSM    H6T13242   4.147   0.294   2.869
  125OSM    C7S13243   3.976   0.199   2.971
  125OSM    H7S13244   3.869   0.172   2.956
  125OSM    H7T13245   3.975   0.279   3.049
  125OSM    C8S13246   4.038   0.074   3.037
  125OSM    H8S13247   4.150   0.076   3.038
  125OSM    H8T13248   4.004   6.861   2.986
  125OSM    C9S13249   4.003   0.068   3.187
  125OSM    H9S13250   4.051   0.154   3.239
  125OSM    H9T13251   4.064   6.865   3.230
  125OSM   C10S13252   3.855   0.062   3.230
  125OSM   H10S13253   3.809   6.862   3.167
  125OSM   H10T13254   3.809   0.159   3.202
  125OSM   C11S13255   3.844   0.037   3.382
  125OSM   H11S13256   3.874   6.816   3.417
  125OSM   H11T13257   3.736   0.049   3.404
  125OSM   C12S13258   3.922   0.139   3.478
  125OSM   H12S13259   3.920   0.235   3.423
  125OSM   H12T13260   4.029   0.111   3.486
  125OSM   C13S13261   3.852   0.151   3.616
  125OSM   H13S13262   3.742   0.146   3.598
  125OSM   H13T13263   3.852   0.256   3.653
  125OSM   C14S13264   3.905   0.050   3.720
  125OSM   H14S13265   4.008   0.081   3.749
  125OSM   H14T13266   3.897   6.828   3.675
  125OSM   C15S13267   3.826   0.043   3.851
  125OSM   H15S13268   3.717   0.037   3.832
  125OSM   H15T13269   3.845   0.137   3.907
  125OSM   C16S13270   3.865   6.798   3.939
  125OSM   H16S13271   3.872   6.831   4.045
  125OSM   H16T13272   3.965   6.763   3.906
  125OSM   C17S13273   3.757   6.690   3.934
  125OSM   H17S13274   3.656   6.736   3.945
  125OSM   H17T13275   3.766   6.625   4.024
  125OSM   C18S13276   3.761   6.606   3.804
  125OSM   H18S13277   3.862   6.560   3.792
  125OSM   H18T13278   3.743   6.665   3.712
  125OSM   H18U13279   3.676   6.535   3.796
  125OSM    C1F13280   4.162   6.538   2.813
  125OSM     OF13281   4.259   6.465   2.791
  125OSM    C2F13282   4.073   6.523   2.937
  125OSM    H2F13283   3.992   6.449   2.920
  125OSM    H2G13284   4.027   6.621   2.959
  125OSM    C3F13285   4.160   6.479   3.056
  125OSM    H3F13286   4.251   6.543   3.067
  125OSM    H3G13287   4.191   6.375   3.035
  125OSM    C4F13288   4.084   6.484   3.185
  125OSM    H4F13289   3.978   6.454   3.172
  125OSM    H4G13290   4.070   6.584   3.233
  125OSM    C5F13291   4.157   6.406   3.295
  125OSM    H5F13292   4.268   6.412   3.283
  125OSM    H5G13293   4.129   6.299   3.301
  125OSM    C6F13294   4.114   6.472   3.429
  125OSM    H6F13295   4.004   6.469   3.444
  125OSM    H6G13296   4.147   6.578   3.427
  125OSM    C7F13297   4.170   6.401   3.552
  125OSM    H7F13298   4.280   6.416   3.550
  125OSM    H7G13299   4.150   6.292   3.542
  125OSM    C8F13300   4.123   6.451   3.685
  125OSM    H8F13301   4.146   6.374   3.762
  125OSM    H8G13302   4.012   6.459   3.678
  125OSM    C9F13303   4.180   6.596   3.719
  125OSM    H9F13304   4.139   6.672   3.652
  125OSM   C10F13305   4.244   6.624   3.832
  125OSM   H10F13306   4.271   6.729   3.851
  125OSM   C11F13307   4.285   6.528   3.952
  125OSM   H11F13308   4.374   6.575   4.000
  125OSM   H11G13309   4.313   6.431   3.907
  125OSM   C12F13310   4.188   6.516   4.061
  125OSM   H12F13311   4.235   6.449   4.135
  125OSM   H12G13312   4.093   6.481   4.015
  125OSM   C13F13313   4.154   6.646   4.125
  125OSM   H13F13314   4.126   6.725   4.052
  125OSM   H13G13315   4.248   6.684   4.170
  125OSM   C14F13316   4.039   6.640   4.223
  125OSM   H14F13317   3.951   6.602   4.167
  125OSM   H14G13318   4.015   6.745   4.251
  125OSM   C15F13319   4.061   6.553   4.343
  125OSM   H15F13320   4.146   6.602   4.397
  125OSM   H15G13321   4.085   6.450   4.308
  125OSM   C16F13322   3.933   6.550   4.424
  125OSM   H16F13323   3.849   6.503   4.369
  125OSM   H16G13324   3.901   6.655   4.442
  125OSM   C17F13325   3.956   6.453   4.544
  125OSM   H17F13326   4.030   6.499   4.612
  125OSM   H17G13327   3.980   6.353   4.500
  125OSM   C18F13328   3.824   6.434   4.614
  125OSM   H18F13329   3.832   6.384   4.714
  125OSM   H18G13330   3.762   6.371   4.547
  125OSM   H18H13331   3.787   6.536   4.639
  126OSM      N13332   3.518   1.210   1.641
  126OSM    C1513333   3.646   1.220   1.715
  126OSM   H15A13334   3.698   1.127   1.698
  126OSM   H15B13335   3.626   1.215   1.821
  126OSM   H15C13336   3.705   1.308   1.691
  126OSM    C1413337   3.543   1.232   1.494
  126OSM   H14A13338   3.618   1.163   1.457
  126OSM   H14B13339   3.579   1.332   1.479
  126OSM   H14C13340   3.450   1.215   1.440
  126OSM    C1313341   3.443   1.077   1.665
  126OSM   H13A13342   3.502   0.990   1.639
  126OSM   H13B13343   3.355   1.066   1.603
  126OSM   H13C13344   3.417   1.068   1.769
  126OSM    C1213345   3.427   1.322   1.692
  126OSM   H12A13346   3.328   1.296   1.658
  126OSM   H12B13347   3.446   1.416   1.641
  126OSM    C1113348   3.402   1.350   1.844
  126OSM   H11A13349   3.326   1.429   1.861
  126OSM   H11B13350   3.503   1.387   1.873
  126OSM      P13351   3.211   1.181   1.903
  126OSM    O1313352   3.146   1.221   1.778
  126OSM    O1413353   3.215   1.028   1.914
  126OSM    O1113354   3.144   1.248   2.028
  126OSM    O1213355   3.358   1.233   1.904
  126OSM    C1S13356   3.220   1.244   2.150
  126OSM    H1S13357   3.270   1.341   2.170
  126OSM    H1T13358   3.306   1.174   2.157
  126OSM     NF13359   3.206   1.224   2.402
  126OSM    HNF13360   3.238   1.143   2.450
  126OSM    C2S13361   3.131   1.205   2.276
  126OSM    H2S13362   3.043   1.272   2.269
  126OSM    C3S13363   3.060   1.069   2.256
  126OSM    H3S13364   3.139   0.991   2.261
  126OSM     O313365   2.987   1.068   2.134
  126OSM    HO313366   3.023   1.140   2.081
  126OSM    C4S13367   2.975   1.039   2.374
  126OSM    H4S13368   2.925   1.127   2.418
  126OSM    C5S13369   2.937   0.924   2.431
  126OSM    H5S13370   2.988   0.830   2.405
  126OSM    C6S13371   2.831   0.909   2.536
  126OSM    H6S13372   2.769   0.818   2.519
  126OSM    H6T13373   2.761   0.994   2.521
  126OSM    C7S13374   2.873   0.938   2.685
  126OSM    H7S13375   2.954   0.865   2.708
  126OSM    H7T13376   2.794   0.913   2.759
  126OSM    C8S13377   2.926   1.079   2.713
  126OSM    H8S13378   2.874   1.159   2.656
  126OSM    H8T13379   3.035   1.077   2.691
  126OSM    C9S13380   2.905   1.126   2.856
  126OSM    H9S13381   2.796   1.113   2.872
  126OSM    H9T13382   2.923   1.235   2.864
  126OSM   C10S13383   2.977   1.056   2.968
  126OSM   H10S13384   3.086   1.078   2.969
  126OSM   H10T13385   2.977   0.946   2.950
  126OSM   C11S13386   2.904   1.098   3.100
  126OSM   H11S13387   2.800   1.058   3.094
  126OSM   H11T13388   2.899   1.209   3.102
  126OSM   C12S13389   2.978   1.058   3.228
  126OSM   H12S13390   3.067   1.122   3.246
  126OSM   H12T13391   3.012   0.953   3.213
  126OSM   C13S13392   2.902   1.071   3.357
  126OSM   H13S13393   2.878   1.176   3.384
  126OSM   H13T13394   2.963   1.032   3.441
  126OSM   C14S13395   2.763   0.998   3.355
  126OSM   H14S13396   2.780   0.895   3.316
  126OSM   H14T13397   2.693   1.050   3.284
  126OSM   C15S13398   2.702   0.989   3.495
  126OSM   H15S13399   2.605   0.936   3.501
  126OSM   H15T13400   2.682   1.091   3.533
  126OSM   C16S13401   2.791   0.912   3.599
  126OSM   H16S13402   2.871   0.980   3.636
  126OSM   H16T13403   2.841   0.826   3.549
  126OSM   C17S13404   2.719   0.854   3.717
  126OSM   H17S13405   2.794   0.812   3.787
  126OSM   H17T13406   2.653   0.766   3.700
  126OSM   C18S13407   2.647   0.966   3.795
  126OSM   H18S13408   2.592   0.930   3.885
  126OSM   H18T13409   2.578   1.023   3.729
  126OSM   H18U13410   2.722   1.038   3.833
  126OSM    C1F13411   3.237   1.341   2.449
  126OSM     OF13412   3.209   1.437   2.382
  126OSM    C2F13413   3.295   1.353   2.585
  126OSM    H2F13414   3.404   1.373   2.573
  126OSM    H2G13415   3.283   1.249   2.623
  126OSM    C3F13416   3.231   1.459   2.684
  126OSM    H3F13417   3.251   1.553   2.629
  126OSM    H3G13418   3.265   1.451   2.789
  126OSM    C4F13419   3.077   1.434   2.698
  126OSM    H4F13420   3.063   1.326   2.716
  126OSM    H4G13421   3.020   1.460   2.606
  126OSM    C5F13422   3.009   1.499   2.822
  126OSM    H5F13423   3.050   1.454   2.915
  126OSM    H5G13424   2.902   1.470   2.817
  126OSM    C6F13425   3.025   1.648   2.831
  126OSM    H6F13426   2.977   1.706   2.748
  126OSM    H6G13427   3.129   1.680   2.811
  126OSM    C7F13428   2.956   1.715   2.956
  126OSM    H7F13429   2.854   1.675   2.939
  126OSM    H7G13430   2.972   1.825   2.956
  126OSM    C8F13431   3.011   1.663   3.094
  126OSM    H8F13432   3.029   1.554   3.087
  126OSM    H8G13433   2.944   1.687   3.179
  126OSM    C9F13434   3.151   1.720   3.108
  126OSM    H9F13435   3.219   1.677   3.033
  126OSM   C10F13436   3.198   1.807   3.194
  126OSM   H10F13437   3.306   1.825   3.191
  126OSM   C11F13438   3.132   1.883   3.306
  126OSM   H11F13439   3.022   1.878   3.292
  126OSM   H11G13440   3.161   1.990   3.305
  126OSM   C12F13441   3.151   1.836   3.457
  126OSM   H12F13442   3.261   1.829   3.475
  126OSM   H12G13443   3.106   1.735   3.463
  126OSM   C13F13444   3.094   1.927   3.564
  126OSM   H13F13445   2.991   1.952   3.531
  126OSM   H13G13446   3.145   2.025   3.565
  126OSM   C14F13447   3.107   1.874   3.707
  126OSM   H14F13448   3.081   1.961   3.771
  126OSM   H14G13449   3.215   1.855   3.726
  126OSM   C15F13450   3.010   1.754   3.731
  126OSM   H15F13451   3.048   1.668   3.672
  126OSM   H15G13452   2.912   1.771   3.682
  126OSM   C16F13453   3.011   1.701   3.874
  126OSM   H16F13454   3.110   1.662   3.907
  126OSM   H16G13455   2.950   1.608   3.878
  126OSM   C17F13456   2.943   1.791   3.988
  126OSM   H17F13457   2.851   1.828   3.938
  126OSM   H17G13458   3.010   1.878   4.003
  126OSM   C18F13459   2.909   1.707   4.111
  126OSM   H18F13460   2.844   1.775   4.170
  126OSM   H18G13461   3.007   1.670   4.148
  126OSM   H18H13462   2.848   1.619   4.079
  127OSM      N13463   2.028   2.841   1.563
  127OSM    C1513464   2.159   2.863   1.620
  127OSM   H15A13465   2.234   2.861   1.542
  127OSM   H15B13466   2.171   2.788   1.697
  127OSM   H15C13467   2.154   2.951   1.681
  127OSM    C1413468   2.007   2.918   1.439
  127OSM   H14A13469   1.903   2.922   1.412
  127OSM   H14B13470   2.050   2.878   1.348
  127OSM   H14C13471   2.042   3.020   1.442
  127OSM    C1313472   2.003   2.696   1.538
  127OSM   H13A13473   2.086   2.647   1.490
  127OSM   H13B13474   1.914   2.682   1.479
  127OSM   H13C13475   1.989   2.653   1.636
  127OSM    C1213476   1.919   2.869   1.666
  127OSM   H12A13477   1.833   2.813   1.634
  127OSM   H12B13478   1.905   2.976   1.668
  127OSM    C1113479   1.949   2.829   1.817
  127OSM   H11A13480   1.863   2.864   1.878
  127OSM   H11B13481   2.040   2.871   1.865
  127OSM      P13482   2.057   2.604   1.895
  127OSM    O1313483   1.993   2.478   1.947
  127OSM    O1413484   2.169   2.581   1.802
  127OSM    O1113485   2.108   2.687   2.024
  127OSM    O1213486   1.941   2.688   1.827
  127OSM    C1S13487   2.030   2.703   2.133
  127OSM    H1S13488   2.013   2.603   2.178
  127OSM    H1T13489   1.938   2.756   2.101
  127OSM     NF13490   2.044   2.767   2.382
  127OSM    HNF13491   1.946   2.784   2.390
  127OSM    C2S13492   2.092   2.800   2.242
  127OSM    H2S13493   2.201   2.777   2.240
  127OSM    C3S13494   2.081   2.956   2.204
  127OSM    H3S13495   1.973   2.982   2.209
  127OSM     O313496   2.138   2.989   2.081
  127OSM    HO313497   2.154   2.905   2.039
  127OSM    C4S13498   2.156   3.023   2.314
  127OSM    H4S13499   2.265   3.028   2.300
  127OSM    C5S13500   2.099   3.061   2.427
  127OSM    H5S13501   1.990   3.052   2.439
  127OSM    C6S13502   2.171   3.124   2.546
  127OSM    H6S13503   2.138   3.222   2.587
  127OSM    H6T13504   2.280   3.128   2.528
  127OSM    C7S13505   2.149   3.030   2.670
  127OSM    H7S13506   2.170   2.924   2.642
  127OSM    H7T13507   2.041   3.048   2.687
  127OSM    C8S13508   2.226   3.064   2.795
  127OSM    H8S13509   2.188   3.166   2.818
  127OSM    H8T13510   2.337   3.072   2.790
  127OSM    C9S13511   2.195   2.962   2.906
  127OSM    H9S13512   2.217   2.865   2.857
  127OSM    H9T13513   2.084   2.959   2.910
  127OSM   C10S13514   2.259   2.983   3.045
  127OSM   H10S13515   2.252   3.093   3.061
  127OSM   H10T13516   2.366   2.966   3.022
  127OSM   C11S13517   2.201   2.884   3.147
  127OSM   H11S13518   2.236   2.782   3.122
  127OSM   H11T13519   2.091   2.897   3.143
  127OSM   C12S13520   2.234   2.925   3.289
  127OSM   H12S13521   2.248   3.034   3.304
  127OSM   H12T13522   2.329   2.878   3.322
  127OSM   C13S13523   2.128   2.901   3.399
  127OSM   H13S13524   2.109   2.794   3.418
  127OSM   H13T13525   2.031   2.927   3.351
  127OSM   C14S13526   2.159   2.974   3.528
  127OSM   H14S13527   2.146   3.085   3.522
  127OSM   H14T13528   2.262   2.953   3.563
  127OSM   C15S13529   2.061   2.928   3.634
  127OSM   H15S13530   2.088   2.827   3.672
  127OSM   H15T13531   1.960   2.939   3.588
  127OSM   C16S13532   2.069   3.021   3.763
  127OSM   H16S13533   2.049   3.125   3.732
  127OSM   H16T13534   2.174   3.007   3.795
  127OSM   C17S13535   1.961   2.983   3.866
  127OSM   H17S13536   1.980   2.877   3.893
  127OSM   H17T13537   1.858   2.989   3.824
  127OSM   C18S13538   1.963   3.059   3.996
  127OSM   H18S13539   1.950   3.168   3.983
  127OSM   H18T13540   2.058   3.035   4.049
  127OSM   H18U13541   1.877   3.034   4.063
  127OSM    C1F13542   2.094   2.671   2.461
  127OSM     OF13543   2.203   2.616   2.437
  127OSM    C2F13544   2.016   2.634   2.578
  127OSM    H2F13545   1.954   2.542   2.571
  127OSM    H2G13546   1.952   2.720   2.607
  127OSM    C3F13547   2.114   2.600   2.693
  127OSM    H3F13548   2.178   2.687   2.718
  127OSM    H3G13549   2.196   2.529   2.670
  127OSM    C4F13550   2.045   2.539   2.821
  127OSM    H4F13551   2.012   2.436   2.796
  127OSM    H4G13552   1.959   2.607   2.839
  127OSM    C5F13553   2.130   2.536   2.950
  127OSM    H5F13554   2.169   2.633   2.986
  127OSM    H5G13555   2.217   2.468   2.938
  127OSM    C6F13556   2.064   2.458   3.065
  127OSM    H6F13557   2.078   2.349   3.049
  127OSM    H6G13558   1.957   2.480   3.043
  127OSM    C7F13559   2.112   2.508   3.194
  127OSM    H7F13560   2.097   2.618   3.198
  127OSM    H7G13561   2.223   2.499   3.205
  127OSM    C8F13562   2.058   2.430   3.317
  127OSM    H8F13563   1.947   2.431   3.322
  127OSM    H8G13564   2.093   2.487   3.405
  127OSM    C9F13565   2.114   2.286   3.322
  127OSM    H9F13566   2.224   2.284   3.320
  127OSM   C10F13567   2.041   2.165   3.326
  127OSM   H10F13568   2.102   2.073   3.333
  127OSM   C11F13569   1.894   2.149   3.329
  127OSM   H11F13570   1.855   2.131   3.227
  127OSM   H11G13571   1.853   2.244   3.369
  127OSM   C12F13572   1.853   2.032   3.418
  127OSM   H12F13573   1.903   1.941   3.378
  127OSM   H12G13574   1.743   2.019   3.424
  127OSM   C13F13575   1.904   2.047   3.570
  127OSM   H13F13576   2.015   2.050   3.565
  127OSM   H13G13577   1.853   1.966   3.625
  127OSM   C14F13578   1.869   2.178   3.636
  127OSM   H14F13579   1.772   2.207   3.590
  127OSM   H14G13580   1.937   2.258   3.600
  127OSM   C15F13581   1.882   2.178   3.785
  127OSM   H15F13582   1.843   2.081   3.824
  127OSM   H15G13583   1.819   2.258   3.828
  127OSM   C16F13584   2.027   2.193   3.853
  127OSM   H16F13585   2.081   2.284   3.819
  127OSM   H16G13586   2.071   2.098   3.816
  127OSM   C17F13587   2.016   2.203   4.005
  127OSM   H17F13588   1.942   2.284   4.024
  127OSM   H17G13589   2.115   2.225   4.051
  127OSM   C18F13590   1.960   2.078   4.081
  127OSM   H18F13591   1.862   2.058   4.032
  127OSM   H18G13592   1.937   2.114   4.183
  127OSM   H18H13593   2.030   1.994   4.096
  128OSM      N13594   2.162   0.455   1.528
  128OSM    C1513595   2.143   0.521   1.389
  128OSM   H15A13596   2.056   0.485   1.336
  128OSM   H15B13597   2.236   0.522   1.335
  128OSM   H15C13598   2.131   0.626   1.414
  128OSM    C1413599   2.174   0.305   1.501
  128OSM   H14A13600   2.081   0.270   1.460
  128OSM   H14B13601   2.181   0.252   1.595
  128OSM   H14C13602   2.258   0.273   1.441
  128OSM    C1313603   2.286   0.500   1.581
  128OSM   H13A13604   2.314   0.439   1.666
  128OSM   H13B13605   2.278   0.598   1.625
  128OSM   H13C13606   2.365   0.502   1.508
  128OSM    C1213607   2.049   0.479   1.629
  128OSM   H12A13608   1.953   0.452   1.589
  128OSM   H12B13609   2.057   0.584   1.653
  128OSM    C1113610   2.059   0.410   1.769
  128OSM   H11A13611   2.156   0.361   1.794
  128OSM   H11B13612   1.993   0.321   1.755
  128OSM      P13613   2.059   0.624   1.904
  128OSM    O1313614   2.196   0.614   1.955
  128OSM    O1413615   2.047   0.708   1.784
  128OSM    O1113616   1.963   0.683   2.009
  128OSM    O1213617   1.992   0.483   1.876
  128OSM    C1S13618   1.872   0.612   2.093
  128OSM    H1S13619   1.914   0.512   2.116
  128OSM    H1T13620   1.771   0.604   2.049
  128OSM     NF13621   1.789   0.614   2.331
  128OSM    HNF13622   1.689   0.624   2.327
  128OSM    C2S13623   1.845   0.692   2.226
  128OSM    H2S13624   1.945   0.729   2.259
  128OSM    C3S13625   1.774   0.823   2.187
  128OSM    H3S13626   1.677   0.819   2.133
  128OSM     O313627   1.854   0.908   2.104
  128OSM    HO313628   1.925   0.847   2.081
  128OSM    C4S13629   1.748   0.895   2.312
  128OSM    H4S13630   1.842   0.899   2.369
  128OSM    C5S13631   1.636   0.942   2.367
  128OSM    H5S13632   1.547   0.948   2.302
  128OSM    C6S13633   1.619   1.003   2.499
  128OSM    H6S13634   1.591   0.920   2.568
  128OSM    H6T13635   1.524   1.059   2.487
  128OSM    C7S13636   1.729   1.101   2.544
  128OSM    H7S13637   1.768   1.164   2.462
  128OSM    H7T13638   1.820   1.044   2.571
  128OSM    C8S13639   1.680   1.191   2.661
  128OSM    H8S13640   1.589   1.251   2.643
  128OSM    H8T13641   1.757   1.269   2.681
  128OSM    C9S13642   1.653   1.108   2.789
  128OSM    H9S13643   1.755   1.074   2.816
  128OSM    H9T13644   1.581   1.027   2.763
  128OSM   C10S13645   1.605   1.181   2.914
  128OSM   H10S13646   1.498   1.206   2.896
  128OSM   H10T13647   1.664   1.273   2.933
  128OSM   C11S13648   1.616   1.097   3.051
  128OSM   H11S13649   1.723   1.079   3.074
  128OSM   H11T13650   1.561   1.001   3.037
  128OSM   C12S13651   1.563   1.173   3.175
  128OSM   H12S13652   1.455   1.195   3.166
  128OSM   H12T13653   1.627   1.264   3.176
  128OSM   C13S13654   1.575   1.097   3.305
  128OSM   H13S13655   1.681   1.071   3.326
  128OSM   H13T13656   1.509   1.008   3.312
  128OSM   C14S13657   1.518   1.189   3.418
  128OSM   H14S13658   1.411   1.218   3.405
  128OSM   H14T13659   1.584   1.278   3.425
  128OSM   C15S13660   1.521   1.133   3.561
  128OSM   H15S13661   1.625   1.096   3.575
  128OSM   H15T13662   1.447   1.052   3.574
  128OSM   C16S13663   1.496   1.241   3.669
  128OSM   H16S13664   1.400   1.294   3.654
  128OSM   H16T13665   1.579   1.315   3.669
  128OSM   C17S13666   1.477   1.192   3.814
  128OSM   H17S13667   1.452   1.281   3.876
  128OSM   H17T13668   1.563   1.136   3.857
  128OSM   C18S13669   1.354   1.096   3.828
  128OSM   H18S13670   1.263   1.141   3.781
  128OSM   H18T13671   1.333   1.064   3.932
  128OSM   H18U13672   1.359   1.004   3.766
  128OSM    C1F13673   1.848   0.516   2.400
  128OSM     OF13674   1.959   0.479   2.382
  128OSM    C2F13675   1.760   0.439   2.495
  128OSM    H2F13676   1.694   0.378   2.430
  128OSM    H2G13677   1.695   0.506   2.554
  128OSM    C3F13678   1.849   0.358   2.596
  128OSM    H3F13679   1.935   0.423   2.622
  128OSM    H3G13680   1.882   0.259   2.559
  128OSM    C4F13681   1.777   0.325   2.734
  128OSM    H4F13682   1.685   0.270   2.707
  128OSM    H4G13683   1.738   0.416   2.784
  128OSM    C5F13684   1.867   0.256   2.837
  128OSM    H5F13685   1.951   0.325   2.857
  128OSM    H5G13686   1.917   0.169   2.791
  128OSM    C6F13687   1.796   0.230   2.972
  128OSM    H6F13688   1.727   0.144   2.971
  128OSM    H6G13689   1.742   0.324   2.998
  128OSM    C7F13690   1.902   0.195   3.082
  128OSM    H7F13691   1.999   0.248   3.070
  128OSM    H7G13692   1.922   0.087   3.066
  128OSM    C8F13693   1.846   0.221   3.218
  128OSM    H8F13694   1.877   0.140   3.288
  128OSM    H8G13695   1.735   0.215   3.217
  128OSM    C9F13696   1.885   0.361   3.277
  128OSM    H9F13697   1.896   0.440   3.201
  128OSM   C10F13698   1.913   0.392   3.404
  128OSM   H10F13699   1.923   0.497   3.433
  128OSM   C11F13700   1.911   0.297   3.524
  128OSM   H11F13701   1.883   0.191   3.503
  128OSM   H11G13702   1.836   0.337   3.596
  128OSM   C12F13703   2.057   0.302   3.589
  128OSM   H12F13704   2.043   0.259   3.690
  128OSM   H12G13705   2.075   0.411   3.605
  128OSM   C13F13706   2.171   0.239   3.518
  128OSM   H13F13707   2.265   0.246   3.576
  128OSM   H13G13708   2.206   0.287   3.424
  128OSM   C14F13709   2.151   0.090   3.492
  128OSM   H14F13710   2.062   0.066   3.429
  128OSM   H14G13711   2.128   0.034   3.585
  128OSM   C15F13712   2.270   0.029   3.422
  128OSM   H15F13713   2.358   0.015   3.489
  128OSM   H15G13714   2.307   0.091   3.338
  128OSM   C16F13715   2.235   6.776   3.359
  128OSM   H16F13716   2.158   6.794   3.281
  128OSM   H16G13717   2.203   6.701   3.434
  128OSM   C17F13718   2.357   6.709   3.295
  128OSM   H17F13719   2.336   6.601   3.281
  128OSM   H17G13720   2.447   6.691   3.358
  128OSM   C18F13721   2.404   6.774   3.164
  128OSM   H18F13722   2.461   6.866   3.189
  128OSM   H18G13723   2.322   6.790   3.091
  128OSM   H18H13724   2.484   6.709   3.125
  129OSM      N13725   3.928   0.037   2.143
  129OSM    C1513726   4.062   0.016   2.074
  129OSM   H15A13727   4.130   0.091   2.110
  129OSM   H15B13728   4.059   0.030   1.967
  129OSM   H15C13729   4.121   6.811   2.106
  129OSM    C1413730   3.854   0.141   2.057
  129OSM   H14A13731   3.840   0.113   1.954
  129OSM   H14B13732   3.898   0.240   2.059
  129OSM   H14C13733   3.750   0.155   2.082
  129OSM    C1313734   3.866   6.787   2.124
  129OSM   H13A13735   3.854   6.758   2.021
  129OSM   H13B13736   3.778   6.779   2.187
  129OSM   H13C13737   3.936   6.717   2.165
  129OSM    C1213738   3.938   0.088   2.286
  129OSM   H12A13739   3.994   0.180   2.281
  129OSM   H12B13740   3.995   0.014   2.339
  129OSM    C1113741   3.803   0.114   2.371
  129OSM   H11A13742   3.835   0.140   2.474
  129OSM   H11B13743   3.735   0.026   2.376
  129OSM      P13744   3.744   0.368   2.337
  129OSM    O1313745   3.883   0.407   2.310
  129OSM    O1413746   3.631   0.439   2.274
  129OSM    O1113747   3.724   0.379   2.487
  129OSM    O1213748   3.722   0.218   2.312
  129OSM    C1S13749   3.603   0.326   2.542
  129OSM    H1S13750   3.580   0.224   2.505
  129OSM    H1T13751   3.519   0.394   2.516
  129OSM     NF13752   3.531   0.206   2.747
  129OSM    HNF13753   3.440   0.240   2.769
  129OSM    C2S13754   3.626   0.303   2.692
  129OSM    H2S13755   3.732   0.272   2.697
  129OSM    C3S13756   3.619   0.441   2.769
  129OSM    H3S13757   3.521   0.491   2.756
  129OSM     O313758   3.709   0.536   2.704
  129OSM    HO313759   3.741   0.490   2.626
  129OSM    C4S13760   3.643   0.426   2.925
  129OSM    H4S13761   3.567   0.361   2.970
  129OSM    C5S13762   3.755   0.468   3.000
  129OSM    H5S13763   3.833   0.529   2.952
  129OSM    C6S13764   3.758   0.444   3.151
  129OSM    H6S13765   3.850   0.394   3.188
  129OSM    H6T13766   3.661   0.396   3.178
  129OSM    C7S13767   3.738   0.576   3.230
  129OSM    H7S13768   3.638   0.618   3.203
  129OSM    H7T13769   3.816   0.648   3.196
  129OSM    C8S13770   3.745   0.554   3.383
  129OSM    H8S13771   3.848   0.543   3.424
  129OSM    H8T13772   3.687   0.462   3.404
  129OSM    C9S13773   3.668   0.672   3.453
  129OSM    H9S13774   3.563   0.673   3.417
  129OSM    H9T13775   3.715   0.769   3.424
  129OSM   C10S13776   3.668   0.666   3.606
  129OSM   H10S13777   3.770   0.679   3.646
  129OSM   H10T13778   3.615   0.576   3.645
  129OSM   C11S13779   3.598   0.797   3.653
  129OSM   H11S13780   3.489   0.792   3.635
  129OSM   H11T13781   3.633   0.885   3.595
  129OSM   C12S13782   3.614   0.825   3.799
  129OSM   H12S13783   3.715   0.795   3.834
  129OSM   H12T13784   3.541   0.772   3.864
  129OSM   C13S13785   3.617   0.969   3.838
  129OSM   H13S13786   3.518   1.007   3.806
  129OSM   H13T13787   3.691   1.028   3.780
  129OSM   C14S13788   3.631   1.006   3.988
  129OSM   H14S13789   3.615   1.115   4.003
  129OSM   H14T13790   3.731   0.978   4.027
  129OSM   C15S13791   3.532   0.938   4.082
  129OSM   H15S13792   3.547   0.828   4.069
  129OSM   H15T13793   3.426   0.961   4.057
  129OSM   C16S13794   3.558   0.994   4.225
  129OSM   H16S13795   3.572   1.104   4.227
  129OSM   H16T13796   3.659   0.958   4.252
  129OSM   C17S13797   3.441   0.943   4.319
  129OSM   H17S13798   3.412   0.841   4.289
  129OSM   H17T13799   3.343   0.994   4.306
  129OSM   C18S13800   3.480   0.954   4.468
  129OSM   H18S13801   3.399   0.930   4.540
  129OSM   H18T13802   3.520   1.055   4.489
  129OSM   H18U13803   3.557   0.875   4.484
  129OSM    C1F13804   3.556   0.070   2.727
  129OSM     OF13805   3.666   0.039   2.698
  129OSM    C2F13806   3.448   6.846   2.744
  129OSM    H2F13807   3.411   6.832   2.641
  129OSM    H2G13808   3.357   0.006   2.795
  129OSM    C3F13809   3.495   6.708   2.799
  129OSM    H3F13810   3.567   6.660   2.730
  129OSM    H3G13811   3.405   6.644   2.789
  129OSM    C4F13812   3.553   6.719   2.940
  129OSM    H4F13813   3.648   6.776   2.934
  129OSM    H4G13814   3.561   6.622   2.995
  129OSM    C5F13815   3.462   6.803   3.025
  129OSM    H5F13816   3.360   6.761   3.019
  129OSM    H5G13817   3.468   0.029   2.992
  129OSM    C6F13818   3.509   6.784   3.171
  129OSM    H6F13819   3.604   6.839   3.187
  129OSM    H6G13820   3.523   6.675   3.182
  129OSM    C7F13821   3.408   6.836   3.273
  129OSM    H7F13822   3.311   6.788   3.248
  129OSM    H7G13823   3.389   0.065   3.261
  129OSM    C8F13824   3.446   6.801   3.419
  129OSM    H8F13825   3.552   6.834   3.428
  129OSM    H8G13826   3.447   6.690   3.434
  129OSM    C9F13827   3.344   6.840   3.517
  129OSM    H9F13828   3.262   0.022   3.476
  129OSM   C10F13829   3.329   6.802   3.650
  129OSM   H10F13830   3.240   6.842   3.701
  129OSM   C11F13831   3.422   6.708   3.721
  129OSM   H11F13832   3.478   6.757   3.803
  129OSM   H11G13833   3.501   6.662   3.659
  129OSM   C12F13834   3.340   6.587   3.771
  129OSM   H12F13835   3.401   6.535   3.849
  129OSM   H12G13836   3.328   6.505   3.697
  129OSM   C13F13837   3.202   6.611   3.844
  129OSM   H13F13838   3.179   6.516   3.896
  129OSM   H13G13839   3.116   6.626   3.774
  129OSM   C14F13840   3.182   6.734   3.938
  129OSM   H14F13841   3.089   6.710   3.994
  129OSM   H14G13842   3.167   6.827   3.880
  129OSM   C15F13843   3.285   6.774   4.043
  129OSM   H15F13844   3.372   6.821   3.992
  129OSM   H15G13845   3.309   6.687   4.107
  129OSM   C16F13846   3.232   0.002   4.138
  129OSM   H16F13847   3.165   0.082   4.098
  129OSM   H16G13848   3.322   0.050   4.182
  129OSM   C17F13849   3.164   6.816   4.261
  129OSM   H17F13850   3.236   6.751   4.315
  129OSM   H17G13851   3.077   6.751   4.239
  129OSM   C18F13852   3.107   0.040   4.363
  129OSM   H18F13853   3.033   0.108   4.315
  129OSM   H18G13854   3.188   0.104   4.404
  129OSM   H18H13855   3.065   6.876   4.456
  130OSM      N13856   3.429   4.279   1.918
  130OSM    C1513857   3.302   4.267   1.842
  130OSM   H15A13858   3.241   4.198   1.900
  130OSM   H15B13859   3.305   4.227   1.742
  130OSM   H15C13860   3.255   4.364   1.837
  130OSM    C1413861   3.524   4.363   1.838
  130OSM   H14A13862   3.469   4.442   1.789
  130OSM   H14B13863   3.568   4.301   1.762
  130OSM   H14C13864   3.591   4.409   1.909
  130OSM    C1313865   3.402   4.346   2.046
  130OSM   H13A13866   3.355   4.282   2.119
  130OSM   H13B13867   3.345   4.438   2.038
  130OSM   H13C13868   3.491   4.381   2.097
  130OSM    C1213869   3.493   4.148   1.941
  130OSM   H12A13870   3.435   4.094   2.014
  130OSM   H12B13871   3.596   4.157   1.974
  130OSM    C1113872   3.501   4.058   1.821
  130OSM   H11A13873   3.412   4.050   1.755
  130OSM   H11B13874   3.524   3.958   1.865
  130OSM      P13875   3.763   4.046   1.756
  130OSM    O1313876   3.792   3.929   1.668
  130OSM    O1413877   3.854   4.163   1.751
  130OSM    O1113878   3.765   3.989   1.899
  130OSM    O1213879   3.614   4.098   1.741
  130OSM    C1S13880   3.819   4.054   2.017
  130OSM    H1S13881   3.797   4.162   2.011
  130OSM    H1T13882   3.929   4.035   2.020
  130OSM     NF13883   3.804   4.073   2.260
  130OSM    HNF13884   3.881   4.036   2.312
  130OSM    C2S13885   3.767   3.984   2.144
  130OSM    H2S13886   3.656   3.983   2.148
  130OSM    C3S13887   3.808   3.837   2.155
  130OSM    H3S13888   3.918   3.825   2.154
  130OSM     O313889   3.777   3.756   2.046
  130OSM    HO313890   3.771   3.817   1.972
  130OSM    C4S13891   3.760   3.778   2.285
  130OSM    H4S13892   3.823   3.775   2.375
  130OSM    C5S13893   3.628   3.747   2.303
  130OSM    H5S13894   3.549   3.779   2.232
  130OSM    C6S13895   3.572   3.695   2.426
  130OSM    H6S13896   3.540   3.590   2.416
  130OSM    H6T13897   3.484   3.759   2.445
  130OSM    C7S13898   3.657   3.698   2.555
  130OSM    H7S13899   3.715   3.793   2.560
  130OSM    H7T13900   3.732   3.619   2.533
  130OSM    C8S13901   3.570   3.678   2.681
  130OSM    H8S13902   3.488   3.604   2.677
  130OSM    H8T13903   3.514   3.769   2.713
  130OSM    C9S13904   3.660   3.648   2.812
  130OSM    H9S13905   3.731   3.729   2.839
  130OSM    H9T13906   3.699   3.544   2.804
  130OSM   C10S13907   3.570   3.650   2.940
  130OSM   H10S13908   3.498   3.566   2.924
  130OSM   H10T13909   3.508   3.743   2.939
  130OSM   C11S13910   3.654   3.634   3.068
  130OSM   H11S13911   3.745   3.698   3.063
  130OSM   H11T13912   3.698   3.532   3.060
  130OSM   C12S13913   3.586   3.670   3.203
  130OSM   H12S13914   3.487   3.619   3.203
  130OSM   H12T13915   3.564   3.779   3.208
  130OSM   C13S13916   3.675   3.642   3.324
  130OSM   H13S13917   3.766   3.706   3.327
  130OSM   H13T13918   3.713   3.538   3.314
  130OSM   C14S13919   3.603   3.651   3.463
  130OSM   H14S13920   3.509   3.591   3.465
  130OSM   H14T13921   3.581   3.757   3.486
  130OSM   C15S13922   3.688   3.609   3.584
  130OSM   H15S13923   3.791   3.648   3.570
  130OSM   H15T13924   3.684   3.498   3.579
  130OSM   C16S13925   3.623   3.652   3.709
  130OSM   H16S13926   3.531   3.596   3.737
  130OSM   H16T13927   3.590   3.758   3.706
  130OSM   C17S13928   3.725   3.638   3.824
  130OSM   H17S13929   3.808   3.708   3.800
  130OSM   H17T13930   3.779   3.541   3.827
  130OSM   C18S13931   3.668   3.686   3.958
  130OSM   H18S13932   3.589   3.620   3.997
  130OSM   H18T13933   3.622   3.783   3.929
  130OSM   H18U13934   3.750   3.696   4.032
  130OSM    C1F13935   3.755   4.198   2.284
  130OSM     OF13936   3.668   4.246   2.213
  130OSM    C2F13937   3.825   4.279   2.393
  130OSM    H2F13938   3.926   4.309   2.359
  130OSM    H2G13939   3.828   4.208   2.478
  130OSM    C3F13940   3.752   4.401   2.434
  130OSM    H3F13941   3.653   4.373   2.476
  130OSM    H3G13942   3.733   4.467   2.347
  130OSM    C4F13943   3.833   4.485   2.534
  130OSM    H4F13944   3.764   4.566   2.564
  130OSM    H4G13945   3.920   4.531   2.482
  130OSM    C5F13946   3.865   4.409   2.672
  130OSM    H5F13947   3.955   4.345   2.667
  130OSM    H5G13948   3.777   4.353   2.711
  130OSM    C6F13949   3.903   4.508   2.787
  130OSM    H6F13950   3.810   4.559   2.820
  130OSM    H6G13951   3.978   4.580   2.747
  130OSM    C7F13952   3.978   4.442   2.903
  130OSM    H7F13953   4.071   4.391   2.870
  130OSM    H7G13954   3.910   4.362   2.941
  130OSM    C8F13955   4.015   4.535   3.020
  130OSM    H8F13956   4.105   4.591   2.988
  130OSM    H8G13957   4.060   4.467   3.096
  130OSM    C9F13958   3.901   4.620   3.075
  130OSM    H9F13959   3.890   4.718   3.027
  130OSM   C10F13960   3.821   4.588   3.173
  130OSM   H10F13961   3.752   4.667   3.207
  130OSM   C11F13962   3.817   4.456   3.239
  130OSM   H11F13963   3.848   4.376   3.168
  130OSM   H11G13964   3.718   4.414   3.265
  130OSM   C12F13965   3.908   4.443   3.367
  130OSM   H12F13966   4.010   4.478   3.340
  130OSM   H12G13967   3.926   4.337   3.393
  130OSM   C13F13968   3.851   4.517   3.489
  130OSM   H13F13969   3.740   4.505   3.494
  130OSM   H13G13970   3.856   4.627   3.478
  130OSM   C14F13971   3.931   4.478   3.612
  130OSM   H14F13972   4.036   4.515   3.615
  130OSM   H14G13973   3.949   4.369   3.616
  130OSM   C15F13974   3.861   4.515   3.746
  130OSM   H15F13975   3.770   4.451   3.747
  130OSM   H15G13976   3.820   4.619   3.753
  130OSM   C16F13977   3.959   4.502   3.863
  130OSM   H16F13978   4.044   4.574   3.870
  130OSM   H16G13979   4.000   4.400   3.846
  130OSM   C17F13980   3.883   4.497   3.996
  130OSM   H17F13981   3.960   4.473   4.073
  130OSM   H17G13982   3.811   4.412   3.987
  130OSM   C18F13983   3.802   4.624   4.026
  130OSM   H18F13984   3.855   4.714   3.989
  130OSM   H18G13985   3.785   4.640   4.135
  130OSM   H18H13986   3.701   4.625   3.979
  131OSM      N13987   0.344   0.536   2.246
  131OSM    C1513988   0.209   0.455   2.243
  131OSM   H15A13989   0.198   0.390   2.330
  131OSM   H15B13990   0.208   0.389   2.158
  131OSM   H15C13991   0.123   0.519   2.229
  131OSM    C1413992   0.344   0.624   2.129
  131OSM   H14A13993   0.437   0.680   2.129
  131OSM   H14B13994   0.265   0.696   2.139
  131OSM   H14C13995   0.332   0.572   2.036
  131OSM    C1313996   0.355   0.626   2.362
  131OSM   H13A13997   0.449   0.679   2.366
  131OSM   H13B13998   0.343   0.575   2.456
  131OSM   H13C13999   0.278   0.700   2.374
  131OSM    C1214000   0.464   0.452   2.239
  131OSM   H12A14001   0.475   0.404   2.143
  131OSM   H12B14002   0.437   0.377   2.313
  131OSM    C1114003   0.596   0.510   2.308
  131OSM   H11A14004   0.674   0.437   2.278
  131OSM   H11B14005   0.596   0.517   2.419
  131OSM      P14006   0.735   0.665   2.123
  131OSM    O1314007   0.721   0.547   2.031
  131OSM    O1414008   0.705   0.789   2.054
  131OSM    O1114009   0.880   0.668   2.174
  131OSM    O1214010   0.634   0.644   2.256
  131OSM    C1S14011   0.927   0.729   2.295
  131OSM    H1S14012   0.849   0.792   2.341
  131OSM    H1T14013   1.001   0.809   2.273
  131OSM     NF14014   1.041   0.702   2.505
  131OSM    HNF14015   1.139   0.684   2.514
  131OSM    C2S14016   0.984   0.625   2.396
  131OSM    H2S14017   0.894   0.575   2.437
  131OSM    C3S14018   1.082   0.520   2.331
  131OSM    H3S14019   1.185   0.562   2.324
  131OSM     O314020   1.046   0.472   2.203
  131OSM    HO314021   0.965   0.517   2.177
  131OSM    C4S14022   1.087   0.412   2.441
  131OSM    H4S14023   1.176   0.418   2.505
  131OSM    C5S14024   1.000   0.317   2.458
  131OSM    H5S14025   0.901   0.324   2.409
  131OSM    C6S14026   0.997   0.213   2.569
  131OSM    H6S14027   1.016   0.111   2.529
  131OSM    H6T14028   0.899   0.221   2.620
  131OSM    C7S14029   1.087   0.235   2.689
  131OSM    H7S14030   1.069   0.337   2.728
  131OSM    H7T14031   1.195   0.228   2.663
  131OSM    C8S14032   1.065   0.137   2.808
  131OSM    H8S14033   1.103   0.037   2.779
  131OSM    H8T14034   0.954   0.132   2.819
  131OSM    C9S14035   1.141   0.189   2.933
  131OSM    H9S14036   1.115   0.296   2.944
  131OSM    H9T14037   1.249   0.184   2.907
  131OSM   C10S14038   1.108   0.098   3.051
  131OSM   H10S14039   1.125   6.874   3.014
  131OSM   H10T14040   0.999   0.103   3.070
  131OSM   C11S14041   1.189   0.137   3.177
  131OSM   H11S14042   1.140   0.232   3.209
  131OSM   H11T14043   1.293   0.162   3.149
  131OSM   C12S14044   1.201   0.025   3.277
  131OSM   H12S14045   1.261   6.821   3.234
  131OSM   H12T14046   1.097   0.003   3.309
  131OSM   C13S14047   1.276   0.078   3.400
  131OSM   H13S14048   1.217   0.165   3.437
  131OSM   H13T14049   1.377   0.117   3.375
  131OSM   C14S14050   1.289   6.865   3.517
  131OSM   H14S14051   1.352   6.774   3.504
  131OSM   H14T14052   1.186   6.834   3.545
  131OSM   C15S14053   1.354   0.051   3.639
  131OSM   H15S14054   1.297   0.017   3.728
  131OSM   H15T14055   1.333   0.160   3.637
  131OSM   C16S14056   1.503   0.036   3.661
  131OSM   H16S14057   1.558   0.060   3.567
  131OSM   H16T14058   1.524   6.806   3.663
  131OSM   C17S14059   1.562   0.109   3.776
  131OSM   H17S14060   1.485   0.180   3.811
  131OSM   H17T14061   1.648   0.167   3.736
  131OSM   C18S14062   1.611   0.015   3.891
  131OSM   H18S14063   1.681   6.820   3.846
  131OSM   H18T14064   1.526   6.839   3.936
  131OSM   H18U14065   1.673   0.065   3.969
  131OSM    C1F14066   0.975   0.792   2.583
  131OSM     OF14067   0.860   0.798   2.567
  131OSM    C2F14068   1.054   0.860   2.689
  131OSM    H2F14069   1.144   0.899   2.637
  131OSM    H2G14070   1.081   0.791   2.772
  131OSM    C3F14071   0.968   0.975   2.751
  131OSM    H3F14072   0.882   0.924   2.799
  131OSM    H3G14073   0.934   1.042   2.670
  131OSM    C4F14074   1.055   1.068   2.847
  131OSM    H4F14075   0.980   1.137   2.892
  131OSM    H4G14076   1.119   1.141   2.793
  131OSM    C5F14077   1.137   0.979   2.946
  131OSM    H5F14078   1.223   0.935   2.891
  131OSM    H5G14079   1.079   0.893   2.987
  131OSM    C6F14080   1.175   1.067   3.058
  131OSM    H6F14081   1.081   1.113   3.094
  131OSM    H6G14082   1.247   1.142   3.019
  131OSM    C7F14083   1.244   0.991   3.176
  131OSM    H7F14084   1.252   1.063   3.261
  131OSM    H7G14085   1.346   0.968   3.140
  131OSM    C8F14086   1.173   0.870   3.235
  131OSM    H8F14087   1.239   0.828   3.313
  131OSM    H8G14088   1.174   0.787   3.161
  131OSM    C9F14089   1.030   0.909   3.277
  131OSM    H9F14090   0.974   0.973   3.208
  131OSM   C10F14091   0.990   0.910   3.400
  131OSM   H10F14092   0.882   0.917   3.417
  131OSM   C11F14093   1.061   0.843   3.507
  131OSM   H11F14094   1.153   0.902   3.526
  131OSM   H11G14095   1.099   0.743   3.477
  131OSM   C12F14096   0.985   0.846   3.641
  131OSM   H12F14097   0.879   0.821   3.617
  131OSM   H12G14098   0.975   0.945   3.692
  131OSM   C13F14099   1.032   0.749   3.750
  131OSM   H13F14100   1.131   0.785   3.787
  131OSM   H13G14101   1.057   0.651   3.704
  131OSM   C14F14102   0.936   0.757   3.872
  131OSM   H14F14103   0.847   0.693   3.854
  131OSM   H14G14104   0.894   0.857   3.894
  131OSM   C15F14105   1.007   0.711   4.001
  131OSM   H15F14106   1.073   0.795   4.031
  131OSM   H15G14107   1.062   0.624   3.960
  131OSM   C16F14108   0.913   0.665   4.112
  131OSM   H16F14109   0.814   0.716   4.101
  131OSM   H16G14110   0.950   0.690   4.214
  131OSM   C17F14111   0.886   0.511   4.109
  131OSM   H17F14112   0.987   0.467   4.122
  131OSM   H17G14113   0.837   0.458   4.024
  131OSM   C18F14114   0.806   0.471   4.233
  131OSM   H18F14115   0.709   0.522   4.247
  131OSM   H18G14116   0.869   0.499   4.320
  131OSM   H18H14117   0.783   0.362   4.234
  132OSM      N14118   5.827   6.688   2.283
  132OSM    C1514119   5.764   6.642   2.414
  132OSM   H15A14120   5.830   6.658   2.497
  132OSM   H15B14121   5.743   6.536   2.411
  132OSM   H15C14122   5.673   6.697   2.434
  132OSM    C1414123   5.920   6.584   2.230
  132OSM   H14A14124   5.957   6.621   2.135
  132OSM   H14B14125   5.873   6.489   2.209
  132OSM   H14C14126   6.009   6.584   2.290
  132OSM    C1314127   5.715   6.709   2.185
  132OSM   H13A14128   5.651   6.788   2.222
  132OSM   H13B14129   5.652   6.622   2.174
  132OSM   H13C14130   5.749   6.740   2.088
  132OSM    C1214131   5.902   6.821   2.322
  132OSM   H12A14132   5.827   0.001   2.373
  132OSM   H12B14133   5.945   6.869   2.235
  132OSM    C1114134   6.029   6.806   2.418
  132OSM   H11A14135   5.991   6.757   2.510
  132OSM   H11B14136   6.079   0.023   2.443
  132OSM      P14137   6.254   6.744   2.282
  132OSM    O1314138   6.297   6.640   2.191
  132OSM    O1414139   6.241   6.877   2.215
  132OSM    O1114140   6.371   6.767   2.387
  132OSM    O1214141   6.130   6.711   2.359
  132OSM    C1S14142   6.366   6.698   2.511
  132OSM    H1S14143   6.361   6.587   2.503
  132OSM    H1T14144   6.274   6.732   2.562
  132OSM     NF14145   6.503   6.620   2.702
  132OSM    HNF14146   6.430   6.595   2.765
  132OSM    C2S14147   6.484   6.729   2.606
  132OSM    H2S14148   6.574   6.745   2.543
  132OSM    C3S14149   6.450   6.874   2.662
  132OSM    H3S14150   6.352   6.868   2.713
  132OSM     O314151   6.434   0.091   2.563
  132OSM    HO314152   6.423   0.047   2.478
  132OSM    C4S14153   6.546   0.049   2.770
  132OSM    H4S14154   6.651   0.019   2.757
  132OSM    C5S14155   6.511   0.105   2.885
  132OSM    H5S14156   6.404   0.124   2.906
  132OSM    C6S14157   6.606   0.136   2.999
  132OSM    H6S14158   6.628   0.244   2.988
  132OSM    H6T14159   6.701   0.080   2.989
  132OSM    C7S14160   6.526   0.112   3.129
  132OSM    H7S14161   6.485   0.009   3.134
  132OSM    H7T14162   6.434   0.173   3.134
  132OSM    C8S14163   6.607   0.140   3.263
  132OSM    H8S14164   6.529   0.130   3.341
  132OSM    H8T14165   6.637   0.246   3.262
  132OSM    C9S14166   6.724   0.034   3.283
  132OSM    H9S14167   6.802   0.049   3.205
  132OSM    H9T14168   6.693   6.807   3.284
  132OSM   C10S14169   6.796   0.062   3.422
  132OSM   H10S14170   6.812   0.172   3.425
  132OSM   H10T14171   0.016   0.016   3.406
  132OSM   C11S14172   6.714   0.000   3.534
  132OSM   H11S14173   6.687   6.773   3.516
  132OSM   H11T14174   6.624   0.062   3.554
  132OSM   C12S14175   6.804   6.865   3.651
  132OSM   H12S14176   6.839   0.085   3.687
  132OSM   H12T14177   0.010   6.809   3.608
  132OSM   C13S14178   6.742   6.791   3.765
  132OSM   H13S14179   6.722   6.690   3.723
  132OSM   H13T14180   6.653   6.852   3.790
  132OSM   C14S14181   6.832   6.769   3.889
  132OSM   H14S14182   6.874   6.867   3.919
  132OSM   H14T14183   0.041   6.704   3.871
  132OSM   C15S14184   6.765   6.701   4.015
  132OSM   H15S14185   6.713   6.611   3.977
  132OSM   H15T14186   6.691   6.772   4.056
  132OSM   C16S14187   6.867   6.662   4.119
  132OSM   H16S14188   0.021   6.760   4.160
  132OSM   H16T14189   0.074   6.620   4.064
  132OSM   C17S14190   6.817   6.568   4.229
  132OSM   H17S14191   0.020   6.510   4.275
  132OSM   H17T14192   6.749   6.493   4.181
  132OSM   C18S14193   6.747   6.638   4.338
  132OSM   H18S14194   6.813   6.700   4.402
  132OSM   H18T14195   6.689   6.559   4.391
  132OSM   H18U14196   6.665   6.702   4.299
  132OSM    C1F14197   6.578   6.524   2.675
  132OSM     OF14198   6.635   6.518   2.565
  132OSM    C2F14199   6.586   6.408   2.772
  132OSM    H2F14200   6.607   6.316   2.713
  132OSM    H2G14201   6.484   6.403   2.817
  132OSM    C3F14202   6.680   6.426   2.889
  132OSM    H3F14203   6.673   6.526   2.936
  132OSM    H3G14204   6.777   6.404   2.838
  132OSM    C4F14205   6.649   6.325   3.000
  132OSM    H4F14206   6.669   6.222   2.965
  132OSM    H4G14207   6.544   6.331   3.036
  132OSM    C5F14208   6.742   6.342   3.125
  132OSM    H5F14209   6.841   6.366   3.083
  132OSM    H5G14210   6.737   6.251   3.187
  132OSM    C6F14211   6.712   6.467   3.212
  132OSM    H6F14212   6.610   6.451   3.253
  132OSM    H6G14213   6.708   6.561   3.153
  132OSM    C7F14214   6.812   6.481   3.324
  132OSM    H7F14215   6.788   6.561   3.397
  132OSM    H7G14216   0.038   6.495   3.290
  132OSM    C8F14217   6.822   6.349   3.408
  132OSM    H8F14218   0.028   6.372   3.476
  132OSM    H8G14219   6.858   6.267   3.343
  132OSM    C9F14220   6.691   6.313   3.474
  132OSM    H9F14221   6.612   6.287   3.401
  132OSM   C10F14222   6.663   6.327   3.605
  132OSM   H10F14223   6.565   6.290   3.638
  132OSM   C11F14224   6.755   6.354   3.723
  132OSM   H11F14225   6.705   6.412   3.803
  132OSM   H11G14226   6.840   6.419   3.693
  132OSM   C12F14227   6.809   6.226   3.794
  132OSM   H12F14228   6.721   6.165   3.822
  132OSM   H12G14229   6.849   6.255   3.893
  132OSM   C13F14230   0.037   6.145   3.720
  132OSM   H13F14231   0.117   6.220   3.703
  132OSM   H13G14232   6.861   6.106   3.632
  132OSM   C14F14233   0.099   6.028   3.799
  132OSM   H14F14234   0.160   5.959   3.737
  132OSM   H14G14235   0.007   5.980   3.841
  132OSM   C15F14236   0.186   6.074   3.916
  132OSM   H15F14237   0.135   6.158   3.968
  132OSM   H15G14238   0.283   6.107   3.874
  132OSM   C16F14239   0.217   5.960   4.018
  132OSM   H16F14240   0.262   5.879   3.957
  132OSM   H16G14241   0.124   5.928   4.071
  132OSM   C17F14242   0.324   6.000   4.120
  132OSM   H17F14243   0.292   6.083   4.186
  132OSM   H17G14244   0.413   6.036   4.065
  132OSM   C18F14245   0.364   5.885   4.207
  132OSM   H18F14246   0.410   5.908   4.305
  132OSM   H18G14247   0.436   5.816   4.159
  132OSM   H18H14248   0.269   5.829   4.222
  133OSM      N14249   4.817   3.160   1.995
  133OSM    C1514250   4.864   3.235   1.880
  133OSM   H15A14251   4.811   3.224   1.786
  133OSM   H15B14252   4.966   3.211   1.854
  133OSM   H15C14253   4.865   3.339   1.907
  133OSM    C1414254   4.675   3.181   2.015
  133OSM   H14A14255   4.637   3.132   2.103
  133OSM   H14B14256   4.619   3.143   1.931
  133OSM   H14C14257   4.649   3.286   2.017
  133OSM    C1314258   4.824   3.019   1.975
  133OSM   H13A14259   4.778   2.963   2.055
  133OSM   H13B14260   4.920   2.970   1.973
  133OSM   H13C14261   4.786   2.999   1.876
  133OSM    C1214262   4.896   3.191   2.126
  133OSM   H12A14263   4.878   3.294   2.154
  133OSM   H12B14264   5.003   3.183   2.108
  133OSM    C1114265   4.875   3.098   2.245
  133OSM   H11A14266   4.765   3.086   2.256
  133OSM   H11B14267   4.915   3.153   2.333
  133OSM      P14268   5.090   2.951   2.242
  133OSM    O1314269   5.112   2.804   2.256
  133OSM    O1414270   5.142   3.028   2.129
  133OSM    O1114271   5.122   3.024   2.383
  133OSM    O1214272   4.931   2.967   2.234
  133OSM    C1S14273   5.079   2.952   2.494
  133OSM    H1S14274   5.132   2.855   2.498
  133OSM    H1T14275   4.969   2.934   2.496
  133OSM     NF14276   5.087   2.935   2.744
  133OSM    HNF14277   5.009   2.960   2.801
  133OSM    C2S14278   5.111   3.029   2.635
  133OSM    H2S14279   5.222   3.037   2.636
  133OSM    C3S14280   5.046   3.167   2.648
  133OSM    H3S14281   4.935   3.160   2.653
  133OSM     O314282   5.082   3.248   2.535
  133OSM    HO314283   5.130   3.194   2.471
  133OSM    C4S14284   5.099   3.235   2.773
  133OSM    H4S14285   5.208   3.252   2.775
  133OSM    C5S14286   5.033   3.282   2.884
  133OSM    H5S14287   4.928   3.257   2.904
  133OSM    C6S14288   5.118   3.339   2.998
  133OSM    H6S14289   5.060   3.421   3.044
  133OSM    H6T14290   5.220   3.375   2.970
  133OSM    C7S14291   5.140   3.253   3.125
  133OSM    H7S14292   5.042   3.204   3.141
  133OSM    H7T14293   5.167   3.317   3.212
  133OSM    C8S14294   5.243   3.146   3.119
  133OSM    H8S14295   5.347   3.180   3.138
  133OSM    H8T14296   5.253   3.105   3.016
  133OSM    C9S14297   5.214   3.037   3.224
  133OSM    H9S14298   5.113   2.995   3.207
  133OSM    H9T14299   5.198   3.096   3.318
  133OSM   C10S14300   5.309   2.914   3.229
  133OSM   H10S14301   5.416   2.945   3.237
  133OSM   H10T14302   5.284   2.865   3.133
  133OSM   C11S14303   5.275   2.811   3.337
  133OSM   H11S14304   5.360   2.740   3.339
  133OSM   H11T14305   5.186   2.750   3.311
  133OSM   C12S14306   5.264   2.871   3.480
  133OSM   H12S14307   5.168   2.925   3.496
  133OSM   H12T14308   5.350   2.939   3.495
  133OSM   C13S14309   5.251   2.753   3.576
  133OSM   H13S14310   5.355   2.712   3.584
  133OSM   H13T14311   5.182   2.677   3.533
  133OSM   C14S14312   5.185   2.795   3.701
  133OSM   H14S14313   5.091   2.847   3.672
  133OSM   H14T14314   5.250   2.862   3.761
  133OSM   C15S14315   5.137   2.686   3.796
  133OSM   H15S14316   5.087   2.612   3.730
  133OSM   H15T14317   5.057   2.713   3.868
  133OSM   C16S14318   5.248   2.611   3.868
  133OSM   H16S14319   5.312   2.685   3.921
  133OSM   H16T14320   5.326   2.572   3.799
  133OSM   C17S14321   5.198   2.513   3.977
  133OSM   H17S14322   5.142   2.560   4.061
  133OSM   H17T14323   5.285   2.453   4.011
  133OSM   C18S14324   5.096   2.416   3.919
  133OSM   H18S14325   5.064   2.339   3.992
  133OSM   H18T14326   5.138   2.368   3.828
  133OSM   H18U14327   5.008   2.475   3.887
  133OSM    C1F14328   5.141   2.811   2.769
  133OSM     OF14329   5.228   2.766   2.692
  133OSM    C2F14330   5.098   2.736   2.892
  133OSM    H2F14331   5.010   2.782   2.942
  133OSM    H2G14332   5.188   2.745   2.956
  133OSM    C3F14333   5.067   2.584   2.851
  133OSM    H3F14334   5.151   2.538   2.795
  133OSM    H3G14335   4.985   2.597   2.777
  133OSM    C4F14336   5.046   2.498   2.978
  133OSM    H4F14337   5.141   2.516   3.032
  133OSM    H4G14338   5.033   2.392   2.950
  133OSM    C5F14339   4.935   2.537   3.076
  133OSM    H5F14340   4.834   2.516   3.035
  133OSM    H5G14341   4.943   2.644   3.103
  133OSM    C6F14342   4.951   2.456   3.212
  133OSM    H6F14343   5.051   2.468   3.257
  133OSM    H6G14344   4.938   2.349   3.183
  133OSM    C7F14345   4.853   2.501   3.321
  133OSM    H7F14346   4.751   2.497   3.276
  133OSM    H7G14347   4.871   2.606   3.349
  133OSM    C8F14348   4.845   2.409   3.444
  133OSM    H8F14349   4.780   2.456   3.521
  133OSM    H8G14350   4.947   2.420   3.484
  133OSM    C9F14351   4.800   2.271   3.404
  133OSM    H9F14352   4.744   2.264   3.309
  133OSM   C10F14353   4.836   2.154   3.466
  133OSM   H10F14354   4.786   2.057   3.448
  133OSM   C11F14355   4.928   2.136   3.581
  133OSM   H11F14356   4.971   2.229   3.623
  133OSM   H11G14357   5.018   2.080   3.548
  133OSM   C12F14358   4.872   2.043   3.695
  133OSM   H12F14359   4.951   2.020   3.769
  133OSM   H12G14360   4.835   1.948   3.652
  133OSM   C13F14361   4.760   2.109   3.774
  133OSM   H13F14362   4.683   2.144   3.703
  133OSM   H13G14363   4.803   2.200   3.822
  133OSM   C14F14364   4.701   2.034   3.892
  133OSM   H14F14365   4.618   1.971   3.854
  133OSM   H14G14366   4.659   2.110   3.961
  133OSM   C15F14367   4.803   1.952   3.970
  133OSM   H15F14368   4.884   2.018   4.005
  133OSM   H15G14369   4.849   1.869   3.912
  133OSM   C16F14370   4.740   1.890   4.096
  133OSM   H16F14371   4.643   1.836   4.087
  133OSM   H16G14372   4.715   1.968   4.171
  133OSM   C17F14373   4.839   1.801   4.172
  133OSM   H17F14374   4.922   1.864   4.209
  133OSM   H17G14375   4.876   1.722   4.102
  133OSM   C18F14376   4.769   1.723   4.283
  133OSM   H18F14377   4.676   1.678   4.245
  133OSM   H18G14378   4.742   1.789   4.368
  133OSM   H18H14379   4.835   1.640   4.316
  134OSM      N14380   5.499   5.962   2.117
  134OSM    C1514381   5.619   5.910   2.180
  134OSM   H15A14382   5.704   5.948   2.126
  134OSM   H15B14383   5.625   5.802   2.180
  134OSM   H15C14384   5.632   5.938   2.283
  134OSM    C1414385   5.488   6.108   2.152
  134OSM   H14A14386   5.571   6.170   2.121
  134OSM   H14B14387   5.478   6.113   2.260
  134OSM   H14C14388   5.401   6.158   2.113
  134OSM    C1314389   5.516   5.973   1.969
  134OSM   H13A14390   5.513   5.878   1.918
  134OSM   H13B14391   5.610   6.026   1.956
  134OSM   H13C14392   5.434   6.036   1.938
  134OSM    C1214393   5.371   5.883   2.159
  134OSM   H12A14394   5.384   5.776   2.148
  134OSM   H12B14395   5.289   5.901   2.091
  134OSM    C1114396   5.337   5.883   2.304
  134OSM   H11A14397   5.330   5.983   2.353
  134OSM   H11B14398   5.414   5.822   2.355
  134OSM      P14399   5.193   5.661   2.346
  134OSM    O1314400   5.047   5.631   2.368
  134OSM    O1414401   5.245   5.581   2.230
  134OSM    O1114402   5.263   5.618   2.477
  134OSM    O1214403   5.209   5.822   2.319
  134OSM    C1S14404   5.231   5.691   2.604
  134OSM    H1S14405   5.121   5.702   2.615
  134OSM    H1T14406   5.290   5.784   2.621
  134OSM     NF14407   5.197   5.678   2.849
  134OSM    HNF14408   5.262   5.743   2.888
  134OSM    C2S14409   5.257   5.606   2.740
  134OSM    H2S14410   5.205   5.510   2.719
  134OSM    C3S14411   5.409   5.586   2.753
  134OSM    H3S14412   5.457   5.683   2.779
  134OSM     O314413   5.479   5.550   2.633
  134OSM    HO314414   5.405   5.546   2.573
  134OSM    C4S14415   5.432   5.473   2.855
  134OSM    H4S14416   5.403   5.371   2.824
  134OSM    C5S14417   5.491   5.490   2.975
  134OSM    H5S14418   5.532   5.587   3.004
  134OSM    C6S14419   5.519   5.384   3.076
  134OSM    H6S14420   5.624   5.347   3.069
  134OSM    H6T14421   5.469   5.286   3.057
  134OSM    C7S14422   5.506   5.429   3.222
  134OSM    H7S14423   5.406   5.477   3.228
  134OSM    H7T14424   5.592   5.492   3.251
  134OSM    C8S14425   5.497   5.311   3.318
  134OSM    H8S14426   5.578   5.243   3.285
  134OSM    H8T14427   5.399   5.262   3.298
  134OSM    C9S14428   5.501   5.334   3.468
  134OSM    H9S14429   5.590   5.397   3.486
  134OSM    H9T14430   5.500   5.237   3.523
  134OSM   C10S14431   5.380   5.408   3.515
  134OSM   H10S14432   5.294   5.346   3.550
  134OSM   H10T14433   5.337   5.471   3.434
  134OSM   C11S14434   5.410   5.507   3.627
  134OSM   H11S14435   5.454   5.598   3.583
  134OSM   H11T14436   5.478   5.451   3.696
  134OSM   C12S14437   5.285   5.541   3.702
  134OSM   H12S14438   5.230   5.448   3.726
  134OSM   H12T14439   5.212   5.600   3.643
  134OSM   C13S14440   5.304   5.621   3.834
  134OSM   H13S14441   5.349   5.721   3.816
  134OSM   H13T14442   5.380   5.557   3.884
  134OSM   C14S14443   5.176   5.633   3.921
  134OSM   H14S14444   5.149   5.528   3.945
  134OSM   H14T14445   5.114   5.672   3.837
  134OSM   C15S14446   5.182   5.717   4.049
  134OSM   H15S14447   5.183   5.821   4.011
  134OSM   H15T14448   5.275   5.693   4.106
  134OSM   C16S14449   5.068   5.709   4.148
  134OSM   H16S14450   5.090   5.775   4.234
  134OSM   H16T14451   5.058   5.607   4.189
  134OSM   C17S14452   4.932   5.755   4.095
  134OSM   H17S14453   4.887   5.675   4.033
  134OSM   H17T14454   4.937   5.839   4.022
  134OSM   C18S14455   4.833   5.787   4.200
  134OSM   H18S14456   4.856   5.872   4.267
  134OSM   H18T14457   4.820   5.698   4.266
  134OSM   H18U14458   4.734   5.790   4.150
  134OSM    C1F14459   5.063   5.695   2.870
  134OSM     OF14460   4.984   5.620   2.808
  134OSM    C2F14461   5.013   5.790   2.979
  134OSM    H2F14462   5.001   5.890   2.933
  134OSM    H2G14463   5.094   5.803   3.054
  134OSM    C3F14464   4.890   5.750   3.060
  134OSM    H3F14465   4.919   5.648   3.094
  134OSM    H3G14466   4.799   5.755   2.997
  134OSM    C4F14467   4.857   5.846   3.181
  134OSM    H4F14468   4.773   5.791   3.227
  134OSM    H4G14469   4.824   5.946   3.147
  134OSM    C5F14470   4.971   5.868   3.285
  134OSM    H5F14471   5.061   5.893   3.226
  134OSM    H5G14472   4.987   5.769   3.333
  134OSM    C6F14473   4.939   5.964   3.400
  134OSM    H6F14474   4.850   5.939   3.462
  134OSM    H6G14475   4.908   6.058   3.350
  134OSM    C7F14476   5.060   5.984   3.499
  134OSM    H7F14477   5.122   6.068   3.462
  134OSM    H7G14478   5.112   5.886   3.501
  134OSM    C8F14479   5.012   6.011   3.645
  134OSM    H8F14480   5.102   5.996   3.709
  134OSM    H8G14481   4.930   5.940   3.670
  134OSM    C9F14482   4.969   6.155   3.668
  134OSM    H9F14483   4.914   6.205   3.587
  134OSM   C10F14484   5.002   6.233   3.777
  134OSM   H10F14485   4.970   6.338   3.771
  134OSM   C11F14486   5.074   6.192   3.900
  134OSM   H11F14487   5.147   6.275   3.915
  134OSM   H11G14488   5.118   6.091   3.889
  134OSM   C12F14489   4.976   6.197   4.017
  134OSM   H12F14490   4.880   6.145   3.992
  134OSM   H12G14491   4.957   6.305   4.039
  134OSM   C13F14492   5.026   6.135   4.148
  134OSM   H13F14493   5.127   6.178   4.166
  134OSM   H13G14494   5.033   6.028   4.118
  134OSM   C14F14495   4.934   6.159   4.271
  134OSM   H14F14496   4.840   6.104   4.246
  134OSM   H14G14497   4.900   6.265   4.280
  134OSM   C15F14498   4.992   6.105   4.400
  134OSM   H15F14499   5.102   6.123   4.406
  134OSM   H15G14500   4.974   5.995   4.398
  134OSM   C16F14501   4.920   6.149   4.529
  134OSM   H16F14502   4.812   6.133   4.513
  134OSM   H16G14503   4.921   6.259   4.544
  134OSM   C17F14504   4.968   6.078   4.655
  134OSM   H17F14505   5.067   6.124   4.677
  134OSM   H17G14506   4.988   5.971   4.636
  134OSM   C18F14507   4.883   6.095   4.777
  134OSM   H18F14508   4.788   6.039   4.773
  134OSM   H18G14509   4.865   6.204   4.793
  134OSM   H18H14510   4.934   6.046   4.863
  135OSM      N14511   0.354   1.112   2.247
  135OSM    C1514512   0.323   1.146   2.102
  135OSM   H15A14513   0.327   1.057   2.042
  135OSM   H15B14514   0.398   1.217   2.070
  135OSM   H15C14515   0.225   1.191   2.096
  135OSM    C1414516   0.460   1.002   2.241
  135OSM   H14A14517   0.555   1.030   2.199
  135OSM   H14B14518   0.424   0.907   2.206
  135OSM   H14C14519   0.486   0.976   2.342
  135OSM    C1314520   0.418   1.228   2.311
  135OSM   H13A14521   0.455   1.202   2.410
  135OSM   H13B14522   0.349   1.310   2.319
  135OSM   H13C14523   0.504   1.271   2.262
  135OSM    C1214524   0.236   1.060   2.316
  135OSM   H12A14525   0.260   1.012   2.410
  135OSM   H12B14526   0.192   0.981   2.258
  135OSM    C1114527   0.122   1.169   2.332
  135OSM   H11A14528   0.173   1.241   2.401
  135OSM   H11B14529   0.040   1.125   2.392
  135OSM      P14530   0.050   1.392   2.206
  135OSM    O1314531   0.171   1.446   2.141
  135OSM    O1414532   6.803   1.432   2.149
  135OSM    O1114533   0.054   1.423   2.358
  135OSM    O1214534   0.067   1.230   2.210
  135OSM    C1S14535   6.824   1.475   2.425
  135OSM    H1S14536   6.741   1.402   2.414
  135OSM    H1T14537   6.798   1.571   2.375
  135OSM     NF14538   6.719   1.529   2.652
  135OSM    HNF14539   6.702   1.627   2.665
  135OSM    C2S14540   6.845   1.507   2.580
  135OSM    H2S14541   0.009   1.423   2.638
  135OSM    C3S14542   0.072   1.618   2.611
  135OSM    H3S14543   0.049   1.710   2.552
  135OSM     O314544   0.204   1.579   2.585
  135OSM    HO314545   0.200   1.510   2.519
  135OSM    C4S14546   0.069   1.666   2.749
  135OSM    H4S14547   0.013   1.761   2.750
  135OSM    C5S14548   0.132   1.618   2.861
  135OSM    H5S14549   0.213   1.549   2.836
  135OSM    C6S14550   0.112   1.679   3.000
  135OSM    H6S14551   0.023   1.746   3.000
  135OSM    H6T14552   0.198   1.744   3.029
  135OSM    C7S14553   0.102   1.577   3.112
  135OSM    H7S14554   0.195   1.517   3.125
  135OSM    H7T14555   0.024   1.499   3.099
  135OSM    C8S14556   0.062   1.646   3.243
  135OSM    H8S14557   6.837   1.680   3.229
  135OSM    H8T14558   0.130   1.732   3.266
  135OSM    C9S14559   0.062   1.530   3.345
  135OSM    H9S14560   0.168   1.501   3.355
  135OSM    H9T14561   6.874   1.447   3.314
  135OSM   C10S14562   0.017   1.570   3.485
  135OSM   H10S14563   0.025   1.478   3.547
  135OSM   H10T14564   6.794   1.608   3.468
  135OSM   C11S14565   0.110   1.679   3.548
  135OSM   H11S14566   0.073   1.779   3.520
  135OSM   H11T14567   0.209   1.668   3.498
  135OSM   C12S14568   0.107   1.668   3.701
  135OSM   H12S14569   0.158   1.758   3.741
  135OSM   H12T14570   0.144   1.566   3.727
  135OSM   C13S14571   6.851   1.678   3.777
  135OSM   H13S14572   6.795   1.583   3.764
  135OSM   H13T14573   6.798   1.764   3.732
  135OSM   C14S14574   6.875   1.712   3.927
  135OSM   H14S14575   6.777   1.735   3.975
  135OSM   H14T14576   0.058   1.802   3.946
  135OSM   C15S14577   0.055   1.592   4.008
  135OSM   H15S14578   0.164   1.594   3.988
  135OSM   H15T14579   0.017   1.496   3.968
  135OSM   C16S14580   0.030   1.597   4.160
  135OSM   H16S14581   6.802   1.574   4.176
  135OSM   H16T14582   0.050   1.700   4.195
  135OSM   C17S14583   0.116   1.493   4.244
  135OSM   H17S14584   0.211   1.465   4.192
  135OSM   H17T14585   0.060   1.398   4.254
  135OSM   C18S14586   0.132   1.561   4.384
  135OSM   H18S14587   0.146   1.478   4.456
  135OSM   H18T14588   0.044   1.619   4.419
  135OSM   H18U14589   0.225   1.622   4.385
  135OSM    C1F14590   6.623   1.440   2.667
  135OSM     OF14591   6.622   1.332   2.603
  135OSM    C2F14592   6.520   1.474   2.770
  135OSM    H2F14593   6.422   1.485   2.720
  135OSM    H2G14594   6.541   1.571   2.819
  135OSM    C3F14595   6.526   1.372   2.888
  135OSM    H3F14596   6.525   1.273   2.838
  135OSM    H3G14597   6.430   1.381   2.943
  135OSM    C4F14598   6.647   1.401   2.970
  135OSM    H4F14599   6.663   1.507   3.000
  135OSM    H4G14600   6.734   1.381   2.904
  135OSM    C5F14601   6.646   1.305   3.089
  135OSM    H5F14602   6.540   1.292   3.120
  135OSM    H5G14603   6.708   1.350   3.170
  135OSM    C6F14604   6.715   1.176   3.049
  135OSM    H6F14605   6.816   1.189   3.006
  135OSM    H6G14606   6.652   1.115   2.980
  135OSM    C7F14607   6.742   1.075   3.163
  135OSM    H7F14608   6.774   0.979   3.118
  135OSM    H7G14609   6.646   1.048   3.213
  135OSM    C8F14610   6.845   1.114   3.276
  135OSM    H8F14611   6.831   1.041   3.358
  135OSM    H8G14612   6.805   1.213   3.308
  135OSM    C9F14613   0.106   1.103   3.221
  135OSM    H9F14614   0.121   1.189   3.155
  135OSM   C10F14615   0.199   1.012   3.245
  135OSM   H10F14616   0.300   1.023   3.203
  135OSM   C11F14617   0.179   0.878   3.311
  135OSM   H11F14618   0.232   0.802   3.249
  135OSM   H11G14619   0.074   0.841   3.307
  135OSM   C12F14620   0.219   0.874   3.454
  135OSM   H12F14621   0.153   0.956   3.490
  135OSM   H12G14622   0.329   0.889   3.459
  135OSM   C13F14623   0.185   0.748   3.523
  135OSM   H13F14624   0.191   0.666   3.448
  135OSM   H13G14625   0.080   0.765   3.557
  135OSM   C14F14626   0.274   0.706   3.648
  135OSM   H14F14627   0.288   0.798   3.709
  135OSM   H14G14628   0.379   0.686   3.618
  135OSM   C15F14629   0.215   0.589   3.729
  135OSM   H15F14630   0.193   0.503   3.662
  135OSM   H15G14631   0.114   0.619   3.763
  135OSM   C16F14632   0.281   0.528   3.845
  135OSM   H16F14633   0.388   0.497   3.835
  135OSM   H16G14634   0.237   0.429   3.869
  135OSM   C17F14635   0.283   0.609   3.980
  135OSM   H17F14636   0.189   0.663   4.002
  135OSM   H17G14637   0.354   0.693   3.966
  135OSM   C18F14638   0.310   0.519   4.102
  135OSM   H18F14639   0.219   0.457   4.115
  135OSM   H18G14640   0.334   0.583   4.190
  135OSM   H18H14641   0.403   0.460   4.095
  136OSM      N14642   2.920   4.210   1.536
  136OSM    C1514643   2.863   4.105   1.622
  136OSM   H15A14644   2.948   4.060   1.671
  136OSM   H15B14645   2.808   4.029   1.570
  136OSM   H15C14646   2.798   4.147   1.698
  136OSM    C1414647   2.978   4.141   1.412
  136OSM   H14A14648   3.021   4.211   1.342
  136OSM   H14B14649   2.895   4.100   1.357
  136OSM   H14C14650   3.039   4.055   1.435
  136OSM    C1314651   2.800   4.294   1.494
  136OSM   H13A14652   2.719   4.228   1.467
  136OSM   H13B14653   2.828   4.352   1.408
  136OSM   H13C14654   2.780   4.367   1.571
  136OSM    C1214655   3.027   4.296   1.601
  136OSM   H12A14656   3.059   4.368   1.527
  136OSM   H12B14657   3.115   4.233   1.608
  136OSM    C1114658   3.001   4.363   1.731
  136OSM   H11A14659   3.086   4.415   1.783
  136OSM   H11B14660   2.961   4.286   1.800
  136OSM      P14661   2.900   4.604   1.653
  136OSM    O1314662   2.963   4.595   1.519
  136OSM    O1414663   2.763   4.654   1.660
  136OSM    O1114664   3.000   4.687   1.750
  136OSM    O1214665   2.893   4.457   1.714
  136OSM    C1S14666   2.943   4.778   1.845
  136OSM    H1S14667   2.852   4.832   1.810
  136OSM    H1T14668   3.010   4.866   1.848
  136OSM     NF14669   2.860   4.808   2.091
  136OSM    HNF14670   2.910   4.832   2.173
  136OSM    C2S14671   2.921   4.716   1.991
  136OSM    H2S14672   2.846   4.635   1.981
  136OSM    C3S14673   3.053   4.653   2.040
  136OSM    H3S14674   3.108   4.735   2.091
  136OSM     O314675   3.143   4.597   1.944
  136OSM    HO314676   3.106   4.618   1.858
  136OSM    C4S14677   3.035   4.555   2.150
  136OSM    H4S14678   3.042   4.595   2.252
  136OSM    C5S14679   3.018   4.423   2.130
  136OSM    H5S14680   3.001   4.377   2.031
  136OSM    C6S14681   3.008   4.321   2.236
  136OSM    H6S14682   3.106   4.271   2.252
  136OSM    H6T14683   2.931   4.243   2.218
  136OSM    C7S14684   2.978   4.381   2.373
  136OSM    H7S14685   2.884   4.439   2.365
  136OSM    H7T14686   3.064   4.446   2.401
  136OSM    C8S14687   2.960   4.274   2.473
  136OSM    H8S14688   3.043   4.201   2.470
  136OSM    H8T14689   2.870   4.211   2.454
  136OSM    C9S14690   2.962   4.338   2.613
  136OSM    H9S14691   2.894   4.422   2.639
  136OSM    H9T14692   3.055   4.399   2.607
  136OSM   C10S14693   2.971   4.233   2.733
  136OSM   H10S14694   3.042   4.150   2.717
  136OSM   H10T14695   2.868   4.192   2.747
  136OSM   C11S14696   3.007   4.294   2.872
  136OSM   H11S14697   2.949   4.384   2.903
  136OSM   H11T14698   3.117   4.307   2.880
  136OSM   C12S14699   2.984   4.186   2.979
  136OSM   H12S14700   3.046   4.097   2.958
  136OSM   H12T14701   2.878   4.154   2.967
  136OSM   C13S14702   3.024   4.229   3.120
  136OSM   H13S14703   2.991   4.332   3.144
  136OSM   H13T14704   3.135   4.233   3.119
  136OSM   C14S14705   2.971   4.133   3.229
  136OSM   H14S14706   3.020   4.034   3.236
  136OSM   H14T14707   2.864   4.113   3.208
  136OSM   C15S14708   2.981   4.187   3.370
  136OSM   H15S14709   2.901   4.264   3.374
  136OSM   H15T14710   3.073   4.246   3.391
  136OSM   C16S14711   2.963   4.084   3.478
  136OSM   H16S14712   3.051   4.016   3.473
  136OSM   H16T14713   2.868   4.028   3.465
  136OSM   C17S14714   2.957   4.153   3.613
  136OSM   H17S14715   2.858   4.203   3.621
  136OSM   H17T14716   3.042   4.226   3.620
  136OSM   C18S14717   2.974   4.062   3.736
  136OSM   H18S14718   3.065   3.998   3.725
  136OSM   H18T14719   2.887   3.993   3.742
  136OSM   H18U14720   2.981   4.101   3.839
  136OSM    C1F14721   2.741   4.864   2.065
  136OSM     OF14722   2.675   4.821   1.973
  136OSM    C2F14723   2.696   4.982   2.146
  136OSM    H2F14724   2.679   5.056   2.065
  136OSM    H2G14725   2.772   5.019   2.218
  136OSM    C3F14726   2.565   4.951   2.222
  136OSM    H3F14727   2.590   4.859   2.279
  136OSM    H3G14728   2.486   4.925   2.148
  136OSM    C4F14729   2.530   5.061   2.320
  136OSM    H4F14730   2.498   5.154   2.269
  136OSM    H4G14731   2.619   5.093   2.377
  136OSM    C5F14732   2.415   5.026   2.410
  136OSM    H5F14733   2.333   4.992   2.344
  136OSM    H5G14734   2.395   5.119   2.469
  136OSM    C6F14735   2.442   4.916   2.516
  136OSM    H6F14736   2.530   4.948   2.576
  136OSM    H6G14737   2.455   4.818   2.466
  136OSM    C7F14738   2.312   4.896   2.597
  136OSM    H7F14739   2.229   4.888   2.523
  136OSM    H7G14740   2.286   4.978   2.667
  136OSM    C8F14741   2.324   4.770   2.684
  136OSM    H8F14742   2.399   4.792   2.763
  136OSM    H8G14743   2.361   4.684   2.626
  136OSM    C9F14744   2.200   4.729   2.749
  136OSM    H9F14745   2.117   4.699   2.683
  136OSM   C10F14746   2.180   4.712   2.876
  136OSM   H10F14747   2.088   4.666   2.917
  136OSM   C11F14748   2.285   4.737   2.983
  136OSM   H11F14749   2.322   4.839   2.962
  136OSM   H11G14750   2.373   4.670   2.971
  136OSM   C12F14751   2.233   4.734   3.128
  136OSM   H12F14752   2.137   4.787   3.138
  136OSM   H12G14753   2.300   4.796   3.192
  136OSM   C13F14754   2.225   4.600   3.193
  136OSM   H13F14755   2.325   4.554   3.200
  136OSM   H13G14756   2.144   4.546   3.139
  136OSM   C14F14757   2.162   4.607   3.331
  136OSM   H14F14758   2.128   4.503   3.342
  136OSM   H14G14759   2.073   4.672   3.347
  136OSM   C15F14760   2.255   4.654   3.446
  136OSM   H15F14761   2.285   4.761   3.432
  136OSM   H15G14762   2.348   4.595   3.434
  136OSM   C16F14763   2.202   4.646   3.588
  136OSM   H16F14764   2.289   4.639   3.657
  136OSM   H16G14765   2.154   4.547   3.594
  136OSM   C17F14766   2.115   4.766   3.624
  136OSM   H17F14767   2.041   4.783   3.544
  136OSM   H17G14768   2.185   4.852   3.631
  136OSM   C18F14769   2.044   4.755   3.756
  136OSM   H18F14770   2.116   4.754   3.841
  136OSM   H18G14771   1.986   4.660   3.756
  136OSM   H18H14772   1.978   4.843   3.767
  137OSM      N14773   1.194   1.881   1.937
  137OSM    C1514774   1.225   1.884   1.788
  137OSM   H15A14775   1.220   1.984   1.749
  137OSM   H15B14776   1.149   1.825   1.738
  137OSM   H15C14777   1.319   1.835   1.765
  137OSM    C1414778   1.202   1.738   1.978
  137OSM   H14A14779   1.233   1.733   2.082
  137OSM   H14B14780   1.273   1.677   1.925
  137OSM   H14C14781   1.113   1.679   1.962
  137OSM    C1314782   1.307   1.957   2.005
  137OSM   H13A14783   1.292   1.946   2.112
  137OSM   H13B14784   1.314   2.059   1.971
  137OSM   H13C14785   1.403   1.911   1.987
  137OSM    C1214786   1.057   1.934   1.962
  137OSM   H12A14787   0.987   1.877   1.903
  137OSM   H12B14788   1.044   2.035   1.925
  137OSM    C1114789   1.004   1.945   2.111
  137OSM   H11A14790   1.072   2.011   2.169
  137OSM   H11B14791   0.989   1.849   2.165
  137OSM      P14792   0.852   2.148   2.078
  137OSM    O1314793   0.910   2.196   1.957
  137OSM    O1414794   0.710   2.171   2.095
  137OSM    O1114795   0.930   2.209   2.205
  137OSM    O1214796   0.870   1.996   2.090
  137OSM    C1S14797   0.878   2.176   2.334
  137OSM    H1S14798   0.897   2.068   2.352
  137OSM    H1T14799   0.770   2.201   2.340
  137OSM     NF14800   0.867   2.216   2.564
  137OSM    HNF14801   0.820   2.297   2.599
  137OSM    C2S14802   0.948   2.245   2.452
  137OSM    H2S14803   1.048   2.200   2.471
  137OSM    C3S14804   0.962   2.398   2.433
  137OSM    H3S14805   0.859   2.439   2.445
  137OSM     O314806   1.017   2.451   2.309
  137OSM    HO314807   1.031   2.371   2.257
  137OSM    C4S14808   1.055   2.449   2.544
  137OSM    H4S14809   1.012   2.465   2.643
  137OSM    C5S14810   1.186   2.457   2.538
  137OSM    H5S14811   1.235   2.434   2.443
  137OSM    C6S14812   1.266   2.494   2.657
  137OSM    H6S14813   1.248   2.596   2.698
  137OSM    H6T14814   1.370   2.510   2.619
  137OSM    C7S14815   1.257   2.390   2.771
  137OSM    H7S14816   1.288   2.289   2.736
  137OSM    H7T14817   1.152   2.395   2.806
  137OSM    C8S14818   1.359   2.411   2.892
  137OSM    H8S14819   1.356   2.518   2.922
  137OSM    H8T14820   1.461   2.383   2.858
  137OSM    C9S14821   1.319   2.317   3.010
  137OSM    H9S14822   1.374   2.221   2.992
  137OSM    H9T14823   1.208   2.312   3.007
  137OSM   C10S14824   1.377   2.356   3.153
  137OSM   H10S14825   1.328   2.449   3.188
  137OSM   H10T14826   1.478   2.393   3.125
  137OSM   C11S14827   1.388   2.249   3.257
  137OSM   H11S14828   1.455   2.170   3.218
  137OSM   H11T14829   1.288   2.208   3.283
  137OSM   C12S14830   1.445   2.318   3.383
  137OSM   H12S14831   1.361   2.382   3.418
  137OSM   H12T14832   1.531   2.384   3.362
  137OSM   C13S14833   1.477   2.209   3.488
  137OSM   H13S14834   1.567   2.152   3.459
  137OSM   H13T14835   1.391   2.140   3.474
  137OSM   C14S14836   1.468   2.292   3.620
  137OSM   H14S14837   1.389   2.370   3.627
  137OSM   H14T14838   1.566   2.342   3.638
  137OSM   C15S14839   1.423   2.198   3.732
  137OSM   H15S14840   1.478   2.102   3.729
  137OSM   H15T14841   1.314   2.176   3.725
  137OSM   C16S14842   1.454   2.251   3.878
  137OSM   H16S14843   1.421   2.357   3.880
  137OSM   H16T14844   1.565   2.253   3.890
  137OSM   C17S14845   1.406   2.166   3.995
  137OSM   H17S14846   1.486   2.089   3.997
  137OSM   H17T14847   1.309   2.114   3.983
  137OSM   C18S14848   1.414   2.250   4.119
  137OSM   H18S14849   1.322   2.310   4.132
  137OSM   H18T14850   1.508   2.308   4.121
  137OSM   H18U14851   1.405   2.190   4.212
  137OSM    C1F14852   0.861   2.105   2.638
  137OSM     OF14853   0.904   1.995   2.601
  137OSM    C2F14854   0.798   2.121   2.774
  137OSM    H2F14855   0.689   2.131   2.757
  137OSM    H2G14856   0.833   2.219   2.813
  137OSM    C3F14857   0.833   2.012   2.880
  137OSM    H3F14858   0.942   1.992   2.886
  137OSM    H3G14859   0.789   1.917   2.842
  137OSM    C4F14860   0.777   2.036   3.020
  137OSM    H4F14861   0.823   1.963   3.090
  137OSM    H4G14862   0.667   2.022   3.032
  137OSM    C5F14863   0.813   2.172   3.076
  137OSM    H5F14864   0.752   2.256   3.035
  137OSM    H5G14865   0.923   2.179   3.065
  137OSM    C6F14866   0.781   2.183   3.226
  137OSM    H6F14867   0.828   2.101   3.285
  137OSM    H6G14868   0.671   2.174   3.240
  137OSM    C7F14869   0.802   2.325   3.281
  137OSM    H7F14870   0.801   2.403   3.202
  137OSM    H7G14871   0.908   2.320   3.314
  137OSM    C8F14872   0.695   2.374   3.390
  137OSM    H8F14873   0.590   2.388   3.357
  137OSM    H8G14874   0.707   2.478   3.428
  137OSM    C9F14875   0.702   2.285   3.510
  137OSM    H9F14876   0.672   2.181   3.488
  137OSM   C10F14877   0.751   2.317   3.628
  137OSM   H10F14878   0.747   2.239   3.706
  137OSM   C11F14879   0.813   2.446   3.680
  137OSM   H11F14880   0.856   2.504   3.595
  137OSM   H11G14881   0.904   2.412   3.734
  137OSM   C12F14882   0.717   2.541   3.764
  137OSM   H12F14883   0.647   2.592   3.696
  137OSM   H12G14884   0.771   2.626   3.811
  137OSM   C13F14885   0.628   2.472   3.868
  137OSM   H13F14886   0.598   2.372   3.830
  137OSM   H13G14887   0.536   2.530   3.888
  137OSM   C14F14888   0.694   2.457   4.006
  137OSM   H14F14889   0.697   2.556   4.056
  137OSM   H14G14890   0.796   2.413   3.997
  137OSM   C15F14891   0.604   2.371   4.102
  137OSM   H15F14892   0.587   2.281   4.038
  137OSM   H15G14893   0.508   2.422   4.124
  137OSM   C16F14894   0.664   2.360   4.240
  137OSM   H16F14895   0.771   2.350   4.210
  137OSM   H16G14896   0.637   2.268   4.297
  137OSM   C17F14897   0.647   2.478   4.338
  137OSM   H17F14898   0.656   2.575   4.286
  137OSM   H17G14899   0.728   2.471   4.414
  137OSM   C18F14900   0.522   2.473   4.426
  137OSM   H18F14901   0.438   2.438   4.362
  137OSM   H18G14902   0.508   2.574   4.471
  137OSM   H18H14903   0.524   2.402   4.511
  138OSM      N14904   6.492   6.068   2.351
  138OSM    C1514905   6.581   5.954   2.382
  138OSM   H15A14906   6.590   5.890   2.295
  138OSM   H15B14907   6.530   5.888   2.450
  138OSM   H15C14908   6.678   5.981   2.421
  138OSM    C1414909   6.576   6.159   2.266
  138OSM   H14A14910   6.516   6.234   2.216
  138OSM   H14B14911   6.629   6.102   2.191
  138OSM   H14C14912   6.653   6.208   2.323
  138OSM    C1314913   6.374   6.021   2.274
  138OSM   H13A14914   6.390   5.985   2.173
  138OSM   H13B14915   6.305   6.104   2.274
  138OSM   H13C14916   6.316   5.945   2.324
  138OSM    C1214917   6.455   6.134   2.486
  138OSM   H12A14918   6.540   6.134   2.552
  138OSM   H12B14919   6.380   6.078   2.539
  138OSM    C1114920   6.405   6.276   2.487
  138OSM   H11A14921   6.485   6.347   2.456
  138OSM   H11B14922   6.402   6.316   2.590
  138OSM      P14923   6.143   6.262   2.491
  138OSM    O1314924   6.041   6.261   2.384
  138OSM    O1414925   6.138   6.149   2.586
  138OSM    O1114926   6.134   6.392   2.573
  138OSM    O1214927   6.285   6.282   2.412
  138OSM    C1S14928   6.003   6.460   2.579
  138OSM    H1S14929   5.921   6.391   2.550
  138OSM    H1T14930   5.998   6.545   2.507
  138OSM     NF14931   5.845   6.559   2.738
  138OSM    HNF14932   5.826   6.657   2.740
  138OSM    C2S14933   5.983   6.511   2.726
  138OSM    H2S14934   5.985   6.422   2.792
  138OSM    C3S14935   6.093   6.610   2.758
  138OSM    H3S14936   6.087   6.692   2.684
  138OSM     O314937   6.223   6.560   2.749
  138OSM    HO314938   6.222   6.503   2.672
  138OSM    C4S14939   6.085   6.665   2.902
  138OSM    H4S14940   6.099   6.590   2.981
  138OSM    C5S14941   6.060   6.787   2.934
  138OSM    H5S14942   6.059   6.864   2.855
  138OSM    C6S14943   6.043   6.834   3.074
  138OSM    H6S14944   5.935   6.831   3.099
  138OSM    H6T14945   6.081   0.059   3.071
  138OSM    C7S14946   6.091   6.756   3.200
  138OSM    H7S14947   6.048   6.654   3.206
  138OSM    H7T14948   6.051   6.820   3.282
  138OSM    C8S14949   6.242   6.744   3.204
  138OSM    H8S14950   6.296   6.841   3.189
  138OSM    H8T14951   6.272   6.689   3.113
  138OSM    C9S14952   6.283   6.677   3.330
  138OSM    H9S14953   6.250   6.572   3.319
  138OSM    H9T14954   6.225   6.729   3.409
  138OSM   C10S14955   6.436   6.685   3.362
  138OSM   H10S14956   6.476   6.787   3.380
  138OSM   H10T14957   6.494   6.659   3.271
  138OSM   C11S14958   6.469   6.594   3.482
  138OSM   H11S14959   6.577   6.609   3.507
  138OSM   H11T14960   6.443   6.493   3.445
  138OSM   C12S14961   6.401   6.621   3.619
  138OSM   H12S14962   6.292   6.599   3.617
  138OSM   H12T14963   6.415   6.726   3.652
  138OSM   C13S14964   6.461   6.543   3.738
  138OSM   H13S14965   6.570   6.566   3.746
  138OSM   H13T14966   6.440   6.434   3.729
  138OSM   C14S14967   6.397   6.586   3.873
  138OSM   H14S14968   6.289   6.570   3.852
  138OSM   H14T14969   6.408   6.694   3.898
  138OSM   C15S14970   6.424   6.490   3.993
  138OSM   H15S14971   6.534   6.471   3.994
  138OSM   H15T14972   6.381   6.391   3.965
  138OSM   C16S14973   6.375   6.560   4.116
  138OSM   H16S14974   6.271   6.592   4.096
  138OSM   H16T14975   6.439   6.648   4.141
  138OSM   C17S14976   6.393   6.472   4.243
  138OSM   H17S14977   6.385   6.531   4.337
  138OSM   H17T14978   6.494   6.425   4.243
  138OSM   C18S14979   6.293   6.350   4.238
  138OSM   H18S14980   6.311   6.284   4.325
  138OSM   H18T14981   6.303   6.295   4.141
  138OSM   H18U14982   6.187   6.383   4.239
  138OSM    C1F14983   5.745   6.463   2.747
  138OSM     OF14984   5.771   6.343   2.759
  138OSM    C2F14985   5.601   6.503   2.727
  138OSM    H2F14986   5.566   6.470   2.627
  138OSM    H2G14987   5.588   6.612   2.740
  138OSM    C3F14988   5.511   6.430   2.833
  138OSM    H3F14989   5.491   6.325   2.801
  138OSM    H3G14990   5.410   6.474   2.827
  138OSM    C4F14991   5.558   6.443   2.982
  138OSM    H4F14992   5.656   6.391   2.996
  138OSM    H4G14993   5.474   6.391   3.033
  138OSM    C5F14994   5.579   6.583   3.031
  138OSM    H5F14995   5.492   6.651   3.017
  138OSM    H5G14996   5.665   6.632   2.981
  138OSM    C6F14997   5.610   6.586   3.187
  138OSM    H6F14998   5.701   6.529   3.217
  138OSM    H6G14999   5.530   6.535   3.244
  138OSM    C7F15000   5.606   6.729   3.239
  138OSM    H7F15001   5.506   6.776   3.225
  138OSM    H7G15002   5.678   6.793   3.184
  138OSM    C8F15003   5.650   6.740   3.387
  138OSM    H8F15004   5.670   6.844   3.418
  138OSM    H8G15005   5.753   6.700   3.400
  138OSM    C9F15006   5.554   6.680   3.481
  138OSM    H9F15007   5.521   6.578   3.455
  138OSM   C10F15008   5.508   6.738   3.593
  138OSM   H10F15009   5.444   6.680   3.661
  138OSM   C11F15010   5.542   0.003   3.638
  138OSM   H11F15011   5.485   0.014   3.733
  138OSM   H11G15012   5.498   0.075   3.565
  138OSM   C12F15013   5.686   0.036   3.677
  138OSM   H12F15014   5.691   0.135   3.727
  138OSM   H12G15015   5.754   0.058   3.592
  138OSM   C13F15016   5.743   6.814   3.775
  138OSM   H13F15017   5.762   6.732   3.702
  138OSM   H13G15018   5.670   6.778   3.851
  138OSM   C14F15019   5.869   6.867   3.851
  138OSM   H14F15020   5.884   6.798   3.936
  138OSM   H14G15021   5.849   0.085   3.899
  138OSM   C15F15022   5.995   6.870   3.765
  138OSM   H15F15023   5.985   0.087   3.711
  138OSM   H15G15024   5.994   6.786   3.691
  138OSM   C16F15025   6.120   6.873   3.850
  138OSM   H16F15026   6.207   0.016   3.784
  138OSM   H16G15027   6.135   6.769   3.888
  138OSM   C17F15028   6.104   0.096   3.963
  138OSM   H17F15029   6.047   0.048   4.045
  138OSM   H17G15030   6.055   0.185   3.919
  138OSM   C18F15031   6.241   0.126   4.023
  138OSM   H18F15032   6.227   0.205   4.100
  138OSM   H18G15033   6.299   0.161   3.935
  138OSM   H18H15034   6.302   0.046   4.069
  139OSM      N15035   1.008   0.909   1.849
  139OSM    C1515036   0.871   0.974   1.843
  139OSM   H15A15037   0.865   1.077   1.873
  139OSM   H15B15038   0.811   0.917   1.912
  139OSM   H15C15039   0.816   0.961   1.751
  139OSM    C1415040   1.008   0.761   1.832
  139OSM   H14A15041   0.988   0.742   1.727
  139OSM   H14B15042   0.932   0.710   1.889
  139OSM   H14C15043   1.098   0.713   1.865
  139OSM    C1315044   1.090   0.973   1.746
  139OSM   H13A15045   1.194   0.944   1.756
  139OSM   H13B15046   1.101   1.077   1.771
  139OSM   H13C15047   1.040   0.964   1.651
  139OSM    C1215048   1.071   0.923   1.990
  139OSM   H12A15049   1.154   0.854   1.996
  139OSM   H12B15050   1.002   0.881   2.062
  139OSM    C1115051   1.095   1.070   2.045
  139OSM   H11A15052   1.107   1.061   2.155
  139OSM   H11B15053   0.998   1.123   2.030
  139OSM      P15054   1.350   1.089   2.012
  139OSM    O1315055   1.356   0.943   2.016
  139OSM    O1415056   1.438   1.153   1.907
  139OSM    O1115057   1.369   1.157   2.158
  139OSM    O1215058   1.202   1.133   1.980
  139OSM    C1S15059   1.317   1.285   2.186
  139OSM    H1S15060   1.211   1.265   2.212
  139OSM    H1T15061   1.313   1.348   2.095
  139OSM     NF15062   1.315   1.444   2.379
  139OSM    HNF15063   1.322   1.542   2.360
  139OSM    C2S15064   1.401   1.357   2.300
  139OSM    H2S15065   1.438   1.274   2.365
  139OSM    C3S15066   1.518   1.433   2.239
  139OSM    H3S15067   1.481   1.514   2.172
  139OSM     O315068   1.616   1.351   2.167
  139OSM    HO315069   1.570   1.268   2.148
  139OSM    C4S15070   1.599   1.488   2.356
  139OSM    H4S15071   1.618   1.425   2.445
  139OSM    C5S15072   1.641   1.615   2.368
  139OSM    H5S15073   1.616   1.691   2.292
  139OSM    C6S15074   1.711   1.671   2.492
  139OSM    H6S15075   1.676   1.776   2.504
  139OSM    H6T15076   1.821   1.665   2.478
  139OSM    C7S15077   1.694   1.600   2.629
  139OSM    H7S15078   1.763   1.635   2.708
  139OSM    H7T15079   1.711   1.490   2.623
  139OSM    C8S15080   1.557   1.625   2.691
  139OSM    H8S15081   1.485   1.604   2.609
  139OSM    H8T15082   1.561   1.732   2.719
  139OSM    C9S15083   1.542   1.538   2.810
  139OSM    H9S15084   1.622   1.562   2.883
  139OSM    H9T15085   1.546   1.429   2.791
  139OSM   C10S15086   1.416   1.570   2.890
  139OSM   H10S15087   1.328   1.564   2.822
  139OSM   H10T15088   1.409   1.678   2.914
  139OSM   C11S15089   1.405   1.484   3.012
  139OSM   H11S15090   1.491   1.491   3.082
  139OSM   H11T15091   1.407   1.379   2.975
  139OSM   C12S15092   1.274   1.514   3.080
  139OSM   H12S15093   1.198   1.501   3.000
  139OSM   H12T15094   1.280   1.623   3.101
  139OSM   C13S15095   1.240   1.434   3.204
  139OSM   H13S15096   1.274   1.463   3.306
  139OSM   H13T15097   1.291   1.336   3.194
  139OSM   C14S15098   1.093   1.399   3.217
  139OSM   H14S15099   1.063   1.333   3.132
  139OSM   H14T15100   1.021   1.482   3.200
  139OSM   C15S15101   1.061   1.315   3.341
  139OSM   H15S15102   1.115   1.218   3.337
  139OSM   H15T15103   0.957   1.279   3.328
  139OSM   C16S15104   1.098   1.371   3.481
  139OSM   H16S15105   1.066   1.478   3.488
  139OSM   H16T15106   1.208   1.375   3.498
  139OSM   C17S15107   1.014   1.311   3.595
  139OSM   H17S15108   1.058   1.209   3.601
  139OSM   H17T15109   0.903   1.308   3.586
  139OSM   C18S15110   1.049   1.375   3.733
  139OSM   H18S15111   1.158   1.373   3.757
  139OSM   H18T15112   0.990   1.319   3.808
  139OSM   H18U15113   1.012   1.479   3.738
  139OSM    C1F15114   1.222   1.405   2.464
  139OSM     OF15115   1.202   1.289   2.491
  139OSM    C2F15116   1.142   1.512   2.542
  139OSM    H2F15117   1.058   1.550   2.480
  139OSM    H2G15118   1.213   1.593   2.570
  139OSM    C3F15119   1.088   1.451   2.672
  139OSM    H3F15120   1.167   1.429   2.746
  139OSM    H3G15121   1.028   1.361   2.647
  139OSM    C4F15122   0.990   1.548   2.736
  139OSM    H4F15123   0.912   1.583   2.664
  139OSM    H4G15124   1.042   1.640   2.768
  139OSM    C5F15125   0.913   1.497   2.858
  139OSM    H5F15126   0.982   1.493   2.945
  139OSM    H5G15127   0.869   1.400   2.828
  139OSM    C6F15128   0.802   1.593   2.902
  139OSM    H6F15129   0.820   1.702   2.886
  139OSM    H6G15130   0.785   1.570   3.009
  139OSM    C7F15131   0.671   1.564   2.823
  139OSM    H7F15132   0.655   1.456   2.805
  139OSM    H7G15133   0.677   1.593   2.716
  139OSM    C8F15134   0.551   1.642   2.882
  139OSM    H8F15135   0.479   1.632   2.798
  139OSM    H8G15136   0.564   1.750   2.903
  139OSM    C9F15137   0.492   1.573   2.998
  139OSM    H9F15138   0.420   1.492   2.980
  139OSM   C10F15139   0.512   1.605   3.131
  139OSM   H10F15140   0.459   1.540   3.202
  139OSM   C11F15141   0.603   1.713   3.190
  139OSM   H11F15142   0.573   1.805   3.134
  139OSM   H11G15143   0.713   1.699   3.181
  139OSM   C12F15144   0.565   1.754   3.332
  139OSM   H12F15145   0.456   1.767   3.348
  139OSM   H12G15146   0.618   1.845   3.367
  139OSM   C13F15147   0.609   1.645   3.425
  139OSM   H13F15148   0.717   1.635   3.404
  139OSM   H13G15149   0.561   1.546   3.413
  139OSM   C14F15150   0.595   1.678   3.570
  139OSM   H14F15151   0.486   1.693   3.587
  139OSM   H14G15152   0.648   1.773   3.593
  139OSM   C15F15153   0.633   1.554   3.650
  139OSM   H15F15154   0.739   1.532   3.626
  139OSM   H15G15155   0.580   1.457   3.645
  139OSM   C16F15156   0.636   1.590   3.803
  139OSM   H16F15157   0.668   1.697   3.807
  139OSM   H16G15158   0.713   1.528   3.854
  139OSM   C17F15159   0.506   1.561   3.878
  139OSM   H17F15160   0.479   1.454   3.872
  139OSM   H17G15161   0.418   1.620   3.846
  139OSM   C18F15162   0.507   1.587   4.031
  139OSM   H18F15163   0.505   1.697   4.044
  139OSM   H18G15164   0.595   1.542   4.082
  139OSM   H18H15165   0.416   1.548   4.083
  140OSM      N15166   5.063   0.324   1.785
  140OSM    C1515167   5.122   0.244   1.680
  140OSM   H15A15168   5.111   0.291   1.583
  140OSM   H15B15169   5.079   0.145   1.687
  140OSM   H15C15170   5.226   0.227   1.702
  140OSM    C1415171   5.130   0.458   1.790
  140OSM   H14A15172   5.122   0.508   1.695
  140OSM   H14B15173   5.236   0.444   1.801
  140OSM   H14C15174   5.105   0.522   1.873
  140OSM    C1315175   4.917   0.347   1.763
  140OSM   H13A15176   4.864   0.254   1.750
  140OSM   H13B15177   4.894   0.396   1.669
  140OSM   H13C15178   4.873   0.412   1.838
  140OSM    C1215179   5.080   0.262   1.927
  140OSM   H12A15180   5.027   0.331   1.990
  140OSM   H12B15181   5.186   0.263   1.948
  140OSM    C1115182   5.010   0.130   1.971
  140OSM   H11A15183   5.060   0.099   2.065
  140OSM   H11B15184   5.047   0.050   1.902
  140OSM      P15185   4.810   0.237   2.088
  140OSM    O1315186   4.816   0.383   2.067
  140OSM    O1415187   4.680   0.179   2.126
  140OSM    O1115188   4.897   0.196   2.217
  140OSM    O1215189   4.869   0.141   1.968
  140OSM    C1S15190   4.878   0.083   2.310
  140OSM    H1S15191   4.965   0.017   2.292
  140OSM    H1T15192   4.788   0.020   2.295
  140OSM     NF15193   4.912   0.006   2.534
  140OSM    HNF15194   4.835   6.830   2.566
  140OSM    C2S15195   4.888   0.125   2.458
  140OSM    H2S15196   4.970   0.199   2.473
  140OSM    C3S15197   4.754   0.198   2.502
  140OSM    H3S15198   4.663   0.142   2.473
  140OSM     O315199   4.725   0.324   2.447
  140OSM    HO315200   4.785   0.330   2.372
  140OSM    C4S15201   4.759   0.205   2.652
  140OSM    H4S15202   4.695   0.133   2.705
  140OSM    C5S15203   4.829   0.288   2.724
  140OSM    H5S15204   4.903   0.355   2.677
  140OSM    C6S15205   4.825   0.285   2.874
  140OSM    H6S15206   4.919   0.249   2.920
  140OSM    H6T15207   4.746   0.212   2.902
  140OSM    C7S15208   4.787   0.422   2.930
  140OSM    H7S15209   4.681   0.446   2.913
  140OSM    H7T15210   4.859   0.497   2.890
  140OSM    C8S15211   4.806   0.428   3.082
  140OSM    H8S15212   4.887   0.362   3.119
  140OSM    H8T15213   4.709   0.390   3.123
  140OSM    C9S15214   4.820   0.571   3.147
  140OSM    H9S15215   4.725   0.629   3.142
  140OSM    H9T15216   4.895   0.638   3.099
  140OSM   C10S15217   4.855   0.552   3.297
  140OSM   H10S15218   4.878   0.648   3.348
  140OSM   H10T15219   4.949   0.493   3.298
  140OSM   C11S15220   4.736   0.490   3.374
  140OSM   H11S15221   4.689   0.406   3.319
  140OSM   H11T15222   4.651   0.561   3.387
  140OSM   C12S15223   4.785   0.448   3.518
  140OSM   H12S15224   4.776   0.546   3.568
  140OSM   H12T15225   4.890   0.420   3.544
  140OSM   C13S15226   4.694   0.329   3.564
  140OSM   H13S15227   4.722   0.231   3.519
  140OSM   H13T15228   4.586   0.344   3.543
  140OSM   C14S15229   4.703   0.310   3.717
  140OSM   H14S15230   4.670   0.409   3.755
  140OSM   H14T15231   4.807   0.307   3.755
  140OSM   C15S15232   4.627   0.201   3.784
  140OSM   H15S15233   4.689   0.109   3.792
  140OSM   H15T15234   4.551   0.175   3.707
  140OSM   C16S15235   4.562   0.234   3.916
  140OSM   H16S15236   4.530   0.338   3.895
  140OSM   H16T15237   4.635   0.228   4.000
  140OSM   C17S15238   4.438   0.153   3.958
  140OSM   H17S15239   4.375   0.129   3.869
  140OSM   H17T15240   4.378   0.223   4.020
  140OSM   C18S15241   4.459   0.023   4.040
  140OSM   H18S15242   4.538   0.036   4.117
  140OSM   H18T15243   4.494   6.828   3.965
  140OSM   H18U15244   4.366   6.853   4.076
  140OSM    C1F15245   5.038   6.842   2.546
  140OSM     OF15246   5.126   0.013   2.479
  140OSM    C2F15247   5.074   6.723   2.625
  140OSM    H2F15248   5.120   6.650   2.555
  140OSM    H2G15249   4.983   6.671   2.663
  140OSM    C3F15250   5.167   6.757   2.747
  140OSM    H3F15251   5.256   6.820   2.726
  140OSM    H3G15252   5.211   6.658   2.772
  140OSM    C4F15253   5.095   6.813   2.878
  140OSM    H4F15254   5.021   6.736   2.908
  140OSM    H4G15255   5.034   0.022   2.850
  140OSM    C5F15256   5.207   6.838   2.986
  140OSM    H5F15257   5.300   6.879   2.940
  140OSM    H5G15258   5.225   6.742   3.039
  140OSM    C6F15259   5.177   0.076   3.079
  140OSM    H6F15260   5.069   0.077   3.105
  140OSM    H6G15261   5.181   0.171   3.021
  140OSM    C7F15262   5.250   0.088   3.217
  140OSM    H7F15263   5.358   0.081   3.193
  140OSM    H7G15264   5.252   0.005   3.291
  140OSM    C8F15265   5.233   0.221   3.298
  140OSM    H8F15266   5.255   0.305   3.228
  140OSM    H8G15267   5.312   0.231   3.376
  140OSM    C9F15268   5.096   0.217   3.358
  140OSM    H9F15269   5.014   0.214   3.285
  140OSM   C10F15270   5.050   0.206   3.485
  140OSM   H10F15271   4.942   0.210   3.503
  140OSM   C11F15272   5.131   0.166   3.608
  140OSM   H11F15273   5.177   0.066   3.594
  140OSM   H11G15274   5.061   0.166   3.695
  140OSM   C12F15275   5.239   0.272   3.637
  140OSM   H12F15276   5.198   0.373   3.615
  140OSM   H12G15277   5.324   0.250   3.569
  140OSM   C13F15278   5.296   0.252   3.777
  140OSM   H13F15279   5.338   0.150   3.792
  140OSM   H13G15280   5.217   0.264   3.854
  140OSM   C14F15281   5.409   0.348   3.806
  140OSM   H14F15282   5.379   0.445   3.761
  140OSM   H14G15283   5.492   0.305   3.746
  140OSM   C15F15284   5.444   0.359   3.953
  140OSM   H15F15285   5.535   0.424   3.950
  140OSM   H15G15286   5.471   0.262   3.999
  140OSM   C16F15287   5.328   0.429   4.035
  140OSM   H16F15288   5.253   0.348   4.050
  140OSM   H16G15289   5.283   0.522   3.992
  140OSM   C17F15290   5.382   0.456   4.172
  140OSM   H17F15291   5.465   0.529   4.161
  140OSM   H17G15292   5.425   0.366   4.221
  140OSM   C18F15293   5.288   0.517   4.276
  140OSM   H18F15294   5.350   0.534   4.367
  140OSM   H18G15295   5.200   0.459   4.313
  140OSM   H18H15296   5.248   0.618   4.251
  141OSM      N15297   0.366   4.168   1.871
  141OSM    C1515298   0.227   4.138   1.920
  141OSM   H15A15299   0.243   4.080   2.010
  141OSM   H15B15300   0.177   4.070   1.853
  141OSM   H15C15301   0.165   4.224   1.944
  141OSM    C1415302   0.424   4.038   1.821
  141OSM   H14A15303   0.375   4.006   1.730
  141OSM   H14B15304   0.409   3.958   1.891
  141OSM   H14C15305   0.530   4.040   1.798
  141OSM    C1315306   0.358   4.264   1.760
  141OSM   H13A15307   0.449   4.315   1.731
  141OSM   H13B15308   0.292   4.344   1.790
  141OSM   H13C15309   0.324   4.220   1.667
  141OSM    C1215310   0.447   4.227   1.988
  141OSM   H12A15311   0.407   4.324   2.017
  141OSM   H12B15312   0.549   4.239   1.955
  141OSM    C1115313   0.459   4.145   2.123
  141OSM   H11A15314   0.366   4.101   2.166
  141OSM   H11B15315   0.501   4.218   2.195
  141OSM      P15316   0.711   4.076   2.095
  141OSM    O1315317   0.786   3.962   2.039
  141OSM    O1415318   0.723   4.203   2.021
  141OSM    O1115319   0.755   4.090   2.245
  141OSM    O1215320   0.560   4.038   2.101
  141OSM    C1S15321   0.745   3.970   2.327
  141OSM    H1S15322   0.825   3.897   2.300
  141OSM    H1T15323   0.652   3.909   2.322
  141OSM     NF15324   0.831   3.887   2.558
  141OSM    HNF15325   0.772   3.839   2.623
  141OSM    C2S15326   0.782   4.002   2.481
  141OSM    H2S15327   0.863   4.076   2.461
  141OSM    C3S15328   0.660   4.078   2.545
  141OSM    H3S15329   0.569   4.015   2.555
  141OSM     O315330   0.600   4.181   2.466
  141OSM    HO315331   0.646   4.173   2.382
  141OSM    C4S15332   0.700   4.127   2.681
  141OSM    H4S15333   0.650   4.064   2.755
  141OSM    C5S15334   0.760   4.238   2.724
  141OSM    H5S15335   0.791   4.309   2.647
  141OSM    C6S15336   0.775   4.287   2.871
  141OSM    H6S15337   0.724   4.386   2.875
  141OSM    H6T15338   0.883   4.299   2.893
  141OSM    C7S15339   0.709   4.195   2.981
  141OSM    H7S15340   0.741   4.089   2.972
  141OSM    H7T15341   0.600   4.217   2.986
  141OSM    C8S15342   0.772   4.230   3.116
  141OSM    H8S15343   0.764   4.339   3.138
  141OSM    H8T15344   0.877   4.195   3.122
  141OSM    C9S15345   0.707   4.160   3.235
  141OSM    H9S15346   0.769   4.166   3.327
  141OSM    H9T15347   0.697   4.051   3.220
  141OSM   C10S15348   0.569   4.218   3.277
  141OSM   H10S15349   0.494   4.220   3.195
  141OSM   H10T15350   0.583   4.320   3.318
  141OSM   C11S15351   0.503   4.135   3.391
  141OSM   H11S15352   0.565   4.170   3.476
  141OSM   H11T15353   0.507   4.026   3.368
  141OSM   C12S15354   0.356   4.163   3.417
  141OSM   H12S15355   0.302   4.154   3.321
  141OSM   H12T15356   0.354   4.273   3.434
  141OSM   C13S15357   0.288   4.072   3.520
  141OSM   H13S15358   0.289   3.967   3.481
  141OSM   H13T15359   0.184   4.110   3.524
  141OSM   C14S15360   0.341   4.069   3.662
  141OSM   H14S15361   0.299   4.151   3.725
  141OSM   H14T15362   0.451   4.078   3.650
  141OSM   C15S15363   0.306   3.939   3.739
  141OSM   H15S15364   0.345   3.854   3.678
  141OSM   H15T15365   0.195   3.932   3.729
  141OSM   C16S15366   0.354   3.936   3.882
  141OSM   H16S15367   0.315   4.022   3.940
  141OSM   H16T15368   0.464   3.943   3.871
  141OSM   C17S15369   0.326   3.804   3.944
  141OSM   H17S15370   0.381   3.801   4.041
  141OSM   H17T15371   0.357   3.716   3.884
  141OSM   C18S15372   0.179   3.784   3.973
  141OSM   H18S15373   0.122   3.783   3.877
  141OSM   H18T15374   0.143   3.868   4.036
  141OSM   H18U15375   0.170   3.682   4.017
  141OSM    C1F15376   0.951   3.830   2.538
  141OSM     OF15377   1.017   3.858   2.440
  141OSM    C2F15378   0.990   3.717   2.629
  141OSM    H2F15379   1.058   3.647   2.577
  141OSM    H2G15380   0.894   3.667   2.655
  141OSM    C3F15381   1.061   3.779   2.751
  141OSM    H3F15382   1.106   3.880   2.740
  141OSM    H3G15383   1.146   3.714   2.779
  141OSM    C4F15384   0.981   3.771   2.878
  141OSM    H4F15385   0.922   3.678   2.896
  141OSM    H4G15386   0.886   3.829   2.880
  141OSM    C5F15387   1.065   3.804   2.996
  141OSM    H5F15388   1.111   3.905   2.994
  141OSM    H5G15389   1.142   3.726   3.014
  141OSM    C6F15390   0.980   3.815   3.124
  141OSM    H6F15391   0.948   3.716   3.165
  141OSM    H6G15392   0.894   3.878   3.094
  141OSM    C7F15393   1.063   3.873   3.238
  141OSM    H7F15394   1.116   3.960   3.196
  141OSM    H7G15395   1.142   3.800   3.267
  141OSM    C8F15396   0.979   3.895   3.365
  141OSM    H8F15397   0.919   3.802   3.372
  141OSM    H8G15398   0.911   3.977   3.333
  141OSM    C9F15399   1.043   3.931   3.498
  141OSM    H9F15400   1.146   3.897   3.514
  141OSM   C10F15401   0.975   3.980   3.599
  141OSM   H10F15402   1.037   3.994   3.689
  141OSM   C11F15403   0.833   4.039   3.597
  141OSM   H11F15404   0.759   3.962   3.568
  141OSM   H11G15405   0.828   4.121   3.522
  141OSM   C12F15406   0.800   4.105   3.730
  141OSM   H12F15407   0.700   4.151   3.711
  141OSM   H12G15408   0.868   4.187   3.760
  141OSM   C13F15409   0.783   4.014   3.848
  141OSM   H13F15410   0.874   3.956   3.873
  141OSM   H13G15411   0.713   3.934   3.815
  141OSM   C14F15412   0.727   4.086   3.974
  141OSM   H14F15413   0.646   4.156   3.943
  141OSM   H14G15414   0.811   4.139   4.024
  141OSM   C15F15415   0.664   3.990   4.075
  141OSM   H15F15416   0.747   3.928   4.112
  141OSM   H15G15417   0.587   3.926   4.027
  141OSM   C16F15418   0.603   4.070   4.188
  141OSM   H16F15419   0.522   4.134   4.147
  141OSM   H16G15420   0.677   4.130   4.245
  141OSM   C17F15421   0.531   3.971   4.286
  141OSM   H17F15422   0.453   3.923   4.223
  141OSM   H17G15423   0.480   4.032   4.363
  141OSM   C18F15424   0.616   3.861   4.336
  141OSM   H18F15425   0.608   3.776   4.266
  141OSM   H18G15426   0.589   3.830   4.439
  141OSM   H18H15427   0.725   3.880   4.349
  142OSM      N15428   0.938   5.210   1.721
  142OSM    C1515429   0.917   5.347   1.661
  142OSM   H15A15430   0.988   5.417   1.702
  142OSM   H15B15431   0.817   5.372   1.694
  142OSM   H15C15432   0.922   5.340   1.554
  142OSM    C1415433   0.831   5.124   1.663
  142OSM   H14A15434   0.727   5.138   1.688
  142OSM   H14B15435   0.858   5.024   1.692
  142OSM   H14C15436   0.848   5.128   1.556
  142OSM    C1315437   1.074   5.164   1.680
  142OSM   H13A15438   1.101   5.065   1.715
  142OSM   H13B15439   1.147   5.230   1.723
  142OSM   H13C15440   1.093   5.161   1.574
  142OSM    C1215441   0.936   5.204   1.870
  142OSM   H12A15442   0.931   5.103   1.907
  142OSM   H12B15443   0.837   5.239   1.898
  142OSM    C1115444   1.045   5.280   1.949
  142OSM   H11A15445   1.144   5.230   1.946
  142OSM   H11B15446   1.017   5.272   2.056
  142OSM      P15447   1.170   5.517   1.947
  142OSM    O1315448   1.237   5.571   1.823
  142OSM    O1415449   1.112   5.623   2.030
  142OSM    O1115450   1.281   5.444   2.040
  142OSM    O1215451   1.054   5.417   1.908
  142OSM    C1S15452   1.380   5.531   2.095
  142OSM    H1S15453   1.331   5.606   2.162
  142OSM    H1T15454   1.428   5.597   2.020
  142OSM     NF15455   1.577   5.537   2.233
  142OSM    HNF15456   1.669   5.508   2.210
  142OSM    C2S15457   1.483   5.452   2.172
  142OSM    H2S15458   1.423   5.392   2.244
  142OSM    C3S15459   1.557   5.344   2.083
  142OSM    H3S15460   1.617   5.398   2.007
  142OSM     O315461   1.478   5.246   2.027
  142OSM    HO315462   1.391   5.283   2.043
  142OSM    C4S15463   1.659   5.274   2.168
  142OSM    H4S15464   1.763   5.304   2.149
  142OSM    C5S15465   1.634   5.179   2.263
  142OSM    H5S15466   1.529   5.154   2.281
  142OSM    C6S15467   1.745   5.113   2.350
  142OSM    H6S15468   1.835   5.098   2.286
  142OSM    H6T15469   1.721   5.018   2.402
  142OSM    C7S15470   1.782   5.206   2.469
  142OSM    H7S15471   1.832   5.293   2.422
  142OSM    H7T15472   1.863   5.159   2.529
  142OSM    C8S15473   1.665   5.246   2.565
  142OSM    H8S15474   1.631   5.148   2.603
  142OSM    H8T15475   1.581   5.276   2.498
  142OSM    C9S15476   1.693   5.341   2.684
  142OSM    H9S15477   1.758   5.425   2.652
  142OSM    H9T15478   1.762   5.288   2.753
  142OSM   C10S15479   1.562   5.385   2.754
  142OSM   H10S15480   1.504   5.302   2.799
  142OSM   H10T15481   1.500   5.444   2.683
  142OSM   C11S15482   1.591   5.483   2.875
  142OSM   H11S15483   1.498   5.539   2.900
  142OSM   H11T15484   1.672   5.547   2.834
  142OSM   C12S15485   1.638   5.421   3.005
  142OSM   H12S15486   1.745   5.394   2.991
  142OSM   H12T15487   1.574   5.331   3.017
  142OSM   C13S15488   1.626   5.513   3.127
  142OSM   H13S15489   1.628   5.453   3.220
  142OSM   H13T15490   1.532   5.572   3.138
  142OSM   C14S15491   1.744   5.614   3.132
  142OSM   H14S15492   1.722   5.683   3.048
  142OSM   H14T15493   1.843   5.566   3.111
  142OSM   C15S15494   1.756   5.697   3.263
  142OSM   H15S15495   1.778   5.634   3.352
  142OSM   H15T15496   1.659   5.746   3.282
  142OSM   C16S15497   1.875   5.797   3.260
  142OSM   H16S15498   1.843   5.882   3.196
  142OSM   H16T15499   1.959   5.748   3.207
  142OSM   C17S15500   1.914   5.853   3.395
  142OSM   H17S15501   1.823   5.888   3.448
  142OSM   H17T15502   1.973   5.947   3.387
  142OSM   C18S15503   2.000   5.751   3.466
  142OSM   H18S15504   2.071   5.696   3.401
  142OSM   H18T15505   1.945   5.674   3.525
  142OSM   H18U15506   2.070   5.787   3.544
  142OSM    C1F15507   1.547   5.611   2.340
  142OSM     OF15508   1.436   5.631   2.383
  142OSM    C2F15509   1.669   5.672   2.408
  142OSM    H2F15510   1.687   5.767   2.352
  142OSM    H2G15511   1.759   5.610   2.394
  142OSM    C3F15512   1.668   5.703   2.557
  142OSM    H3F15513   1.672   5.610   2.617
  142OSM    H3G15514   1.577   5.762   2.583
  142OSM    C4F15515   1.794   5.783   2.596
  142OSM    H4F15516   1.801   5.877   2.536
  142OSM    H4G15517   1.874   5.717   2.556
  142OSM    C5F15518   1.799   5.823   2.747
  142OSM    H5F15519   1.799   5.733   2.812
  142OSM    H5G15520   1.716   5.882   2.791
  142OSM    C6F15521   1.916   5.906   2.774
  142OSM    H6F15522   1.919   5.998   2.712
  142OSM    H6G15523   2.003   5.848   2.739
  142OSM    C7F15524   1.928   5.935   2.924
  142OSM    H7F15525   1.943   5.844   2.985
  142OSM    H7G15526   1.834   5.982   2.962
  142OSM    C8F15527   2.049   6.020   2.969
  142OSM    H8F15528   2.047   6.030   3.079
  142OSM    H8G15529   2.044   6.122   2.925
  142OSM    C9F15530   2.176   5.944   2.938
  142OSM    H9F15531   2.200   5.945   2.830
  142OSM   C10F15532   2.258   5.872   3.026
  142OSM   H10F15533   2.334   5.816   2.969
  142OSM   C11F15534   2.250   5.840   3.179
  142OSM   H11F15535   2.242   5.730   3.194
  142OSM   H11G15536   2.165   5.896   3.224
  142OSM   C12F15537   2.368   5.881   3.274
  142OSM   H12F15538   2.388   5.990   3.264
  142OSM   H12G15539   2.458   5.823   3.242
  142OSM   C13F15540   2.338   5.854   3.423
  142OSM   H13F15541   2.289   5.756   3.439
  142OSM   H13G15542   2.260   5.927   3.453
  142OSM   C14F15543   2.469   5.874   3.507
  142OSM   H14F15544   2.511   5.971   3.471
  142OSM   H14G15545   2.546   5.800   3.477
  142OSM   C15F15546   2.448   5.877   3.661
  142OSM   H15F15547   2.552   5.884   3.699
  142OSM   H15G15548   2.412   5.777   3.693
  142OSM   C16F15549   2.356   5.986   3.714
  142OSM   H16F15550   2.248   5.964   3.703
  142OSM   H16G15551   2.380   6.085   3.669
  142OSM   C17F15552   2.373   6.011   3.861
  142OSM   H17F15553   2.480   6.037   3.871
  142OSM   H17G15554   2.362   5.914   3.915
  142OSM   C18F15555   2.292   6.127   3.928
  142OSM   H18F15556   2.332   6.218   3.877
  142OSM   H18G15557   2.297   6.130   4.038
  142OSM   H18H15558   2.183   6.116   3.905
  143OSM      N15559   1.100   4.756   1.943
  143OSM    C1515560   0.969   4.809   1.882
  143OSM   H15A15561   0.919   4.886   1.938
  143OSM   H15B15562   0.901   4.727   1.899
  143OSM   H15C15563   0.996   4.835   1.780
  143OSM    C1415564   1.071   4.650   2.037
  143OSM   H14A15565   1.016   4.693   2.120
  143OSM   H14B15566   1.163   4.608   2.073
  143OSM   H14C15567   1.020   4.562   1.999
  143OSM    C1315568   1.176   4.696   1.830
  143OSM   H13A15569   1.197   4.771   1.756
  143OSM   H13B15570   1.126   4.613   1.781
  143OSM   H13C15571   1.268   4.658   1.872
  143OSM    C1215572   1.187   4.873   1.995
  143OSM   H12A15573   1.188   4.937   1.908
  143OSM   H12B15574   1.292   4.854   2.012
  143OSM    C1115575   1.130   4.943   2.121
  143OSM   H11A15576   1.203   5.017   2.160
  143OSM   H11B15577   1.121   4.860   2.194
  143OSM      P15578   0.910   5.030   2.225
  143OSM    O1315579   0.834   5.160   2.218
  143OSM    O1415580   0.830   4.908   2.255
  143OSM    O1115581   1.016   5.041   2.340
  143OSM    O1215582   0.996   4.996   2.098
  143OSM    C1S15583   0.990   5.039   2.479
  143OSM    H1S15584   0.902   4.975   2.502
  143OSM    H1T15585   0.963   5.143   2.509
  143OSM     NF15586   1.090   4.986   2.695
  143OSM    HNF15587   1.110   5.067   2.749
  143OSM    C2S15588   1.120   4.993   2.558
  143OSM    H2S15589   1.139   4.891   2.519
  143OSM    C3S15590   1.240   5.090   2.526
  143OSM    H3S15591   1.224   5.183   2.585
  143OSM     O315592   1.255   5.125   2.390
  143OSM    HO315593   1.180   5.084   2.345
  143OSM    C4S15594   1.355   5.018   2.587
  143OSM    H4S15595   1.373   5.047   2.692
  143OSM    C5S15596   1.431   4.924   2.528
  143OSM    H5S15597   1.409   4.895   2.424
  143OSM    C6S15598   1.548   4.843   2.578
  143OSM    H6S15599   1.638   4.848   2.513
  143OSM    H6T15600   1.516   4.737   2.572
  143OSM    C7S15601   1.591   4.877   2.719
  143OSM    H7S15602   1.514   4.829   2.783
  143OSM    H7T15603   1.605   4.985   2.743
  143OSM    C8S15604   1.735   4.827   2.740
  143OSM    H8S15605   1.807   4.867   2.665
  143OSM    H8T15606   1.731   4.716   2.731
  143OSM    C9S15607   1.800   4.835   2.885
  143OSM    H9S15608   1.852   4.930   2.910
  143OSM    H9T15609   1.882   4.762   2.871
  143OSM   C10S15610   1.722   4.787   3.010
  143OSM   H10S15611   1.667   4.693   2.987
  143OSM   H10T15612   1.646   4.865   3.032
  143OSM   C11S15613   1.812   4.764   3.125
  143OSM   H11S15614   1.844   4.857   3.177
  143OSM   H11T15615   1.900   4.718   3.075
  143OSM   C12S15616   1.767   4.655   3.224
  143OSM   H12S15617   1.846   4.577   3.222
  143OSM   H12T15618   1.668   4.609   3.200
  143OSM   C13S15619   1.760   4.710   3.369
  143OSM   H13S15620   1.681   4.788   3.370
  143OSM   H13T15621   1.850   4.761   3.408
  143OSM   C14S15622   1.722   4.603   3.469
  143OSM   H14S15623   1.820   4.552   3.484
  143OSM   H14T15624   1.654   4.536   3.412
  143OSM   C15S15625   1.685   4.659   3.607
  143OSM   H15S15626   1.617   4.746   3.599
  143OSM   H15T15627   1.774   4.713   3.645
  143OSM   C16S15628   1.634   4.554   3.701
  143OSM   H16S15629   1.671   4.451   3.681
  143OSM   H16T15630   1.523   4.539   3.702
  143OSM   C17S15631   1.662   4.586   3.850
  143OSM   H17S15632   1.650   4.693   3.876
  143OSM   H17T15633   1.767   4.556   3.867
  143OSM   C18S15634   1.577   4.502   3.942
  143OSM   H18S15635   1.467   4.513   3.948
  143OSM   H18T15636   1.616   4.517   4.045
  143OSM   H18U15637   1.598   4.395   3.920
  143OSM    C1F15638   1.020   4.886   2.743
  143OSM     OF15639   0.946   4.817   2.678
  143OSM    C2F15640   1.023   4.865   2.890
  143OSM    H2F15641   0.997   4.962   2.938
  143OSM    H2G15642   1.132   4.850   2.902
  143OSM    C3F15643   0.935   4.749   2.936
  143OSM    H3F15644   0.944   4.663   2.866
  143OSM    H3G15645   0.827   4.774   2.926
  143OSM    C4F15646   0.955   4.703   3.083
  143OSM    H4F15647   0.986   4.790   3.146
  143OSM    H4G15648   1.050   4.646   3.089
  143OSM    C5F15649   0.836   4.633   3.143
  143OSM    H5F15650   0.823   4.537   3.087
  143OSM    H5G15651   0.742   4.691   3.126
  143OSM    C6F15652   0.855   4.602   3.295
  143OSM    H6F15653   0.892   4.700   3.331
  143OSM    H6G15654   0.914   4.508   3.300
  143OSM    C7F15655   0.716   4.582   3.361
  143OSM    H7F15656   0.658   4.507   3.304
  143OSM    H7G15657   0.667   4.682   3.352
  143OSM    C8F15658   0.719   4.552   3.508
  143OSM    H8F15659   0.793   4.616   3.562
  143OSM    H8G15660   0.770   4.453   3.515
  143OSM    C9F15661   0.588   4.536   3.575
  143OSM    H9F15662   0.495   4.553   3.518
  143OSM   C10F15663   0.562   4.507   3.703
  143OSM   H10F15664   0.458   4.486   3.735
  143OSM   C11F15665   0.656   4.472   3.814
  143OSM   H11F15666   0.753   4.423   3.790
  143OSM   H11G15667   0.608   4.389   3.871
  143OSM   C12F15668   0.680   4.589   3.913
  143OSM   H12F15669   0.591   4.634   3.962
  143OSM   H12G15670   0.727   4.672   3.856
  143OSM   C13F15671   0.783   4.545   4.020
  143OSM   H13F15672   0.866   4.492   3.968
  143OSM   H13G15673   0.737   4.467   4.084
  143OSM   C14F15674   0.851   4.659   4.098
  143OSM   H14F15675   0.779   4.692   4.176
  143OSM   H14G15676   0.873   4.751   4.041
  143OSM   C15F15677   0.982   4.609   4.164
  143OSM   H15F15678   1.048   4.557   4.092
  143OSM   H15G15679   0.955   4.537   4.244
  143OSM   C16F15680   1.049   4.730   4.233
  143OSM   H16F15681   0.985   4.762   4.318
  143OSM   H16G15682   1.053   4.815   4.162
  143OSM   C17F15683   1.189   4.692   4.288
  143OSM   H17F15684   1.187   4.607   4.359
  143OSM   H17G15685   1.222   4.783   4.342
  143OSM   C18F15686   1.292   4.659   4.181
  143OSM   H18F15687   1.279   4.554   4.149
  143OSM   H18G15688   1.393   4.690   4.216
  143OSM   H18H15689   1.283   4.724   4.091
  144OSM      N15690   0.002   5.650   2.107
  144OSM    C1515691   6.843   5.766   2.018
  144OSM   H15A15692   0.036   5.793   1.942
  144OSM   H15B15693   6.814   5.853   2.075
  144OSM   H15C15694   6.758   5.742   1.956
  144OSM    C1415695   6.777   5.648   2.216
  144OSM   H14A15696   6.782   5.744   2.265
  144OSM   H14B15697   6.798   5.573   2.291
  144OSM   H14C15698   6.677   5.629   2.180
  144OSM    C1315699   6.870   5.523   2.027
  144OSM   H13A15700   0.028   5.431   2.069
  144OSM   H13B15701   0.043   5.527   1.933
  144OSM   H13C15702   6.763   5.509   2.017
  144OSM    C1215703   0.138   5.675   2.164
  144OSM   H12A15704   0.135   5.769   2.216
  144OSM   H12B15705   0.207   5.678   2.081
  144OSM    C1115706   0.189   5.567   2.254
  144OSM   H11A15707   0.224   5.474   2.204
  144OSM   H11B15708   0.115   5.536   2.331
  144OSM      P15709   0.445   5.628   2.283
  144OSM    O1315710   0.488   5.501   2.225
  144OSM    O1415711   0.461   5.741   2.194
  144OSM    O1115712   0.532   5.650   2.415
  144OSM    O1215713   0.294   5.623   2.339
  144OSM    C1S15714   0.511   5.773   2.475
  144OSM    H1S15715   0.404   5.799   2.466
  144OSM    H1T15716   0.572   5.851   2.424
  144OSM     NF15717   0.525   5.891   2.699
  144OSM    HNF15718   0.603   5.950   2.717
  144OSM    C2S15719   0.561   5.770   2.628
  144OSM    H2S15720   0.499   5.691   2.674
  144OSM    C3S15721   0.706   5.727   2.635
  144OSM    H3S15722   0.766   5.803   2.580
  144OSM     O315723   0.741   5.614   2.559
  144OSM    HO315724   0.668   5.587   2.504
  144OSM    C4S15725   0.754   5.716   2.776
  144OSM    H4S15726   0.774   5.807   2.835
  144OSM    C5S15727   0.749   5.604   2.845
  144OSM    H5S15728   0.707   5.515   2.796
  144OSM    C6S15729   0.780   5.592   2.991
  144OSM    H6S15730   0.775   5.489   3.032
  144OSM    H6T15731   0.703   5.655   3.041
  144OSM    C7S15732   0.898   5.656   3.062
  144OSM    H7S15733   0.916   5.764   3.045
  144OSM    H7T15734   0.993   5.600   3.049
  144OSM    C8S15735   0.879   5.650   3.223
  144OSM    H8S15736   0.791   5.707   3.258
  144OSM    H8T15737   0.965   5.705   3.268
  144OSM    C9S15738   0.866   5.503   3.274
  144OSM    H9S15739   0.961   5.454   3.243
  144OSM    H9T15740   0.781   5.450   3.225
  144OSM   C10S15741   0.855   5.487   3.418
  144OSM   H10S15742   0.759   5.536   3.444
  144OSM   H10T15743   0.931   5.545   3.474
  144OSM   C11S15744   0.867   5.339   3.466
  144OSM   H11S15745   0.944   5.280   3.412
  144OSM   H11T15746   0.768   5.290   3.452
  144OSM   C12S15747   0.913   5.333   3.613
  144OSM   H12S15748   1.017   5.371   3.607
  144OSM   H12T15749   0.904   5.226   3.640
  144OSM   C13S15750   0.839   5.427   3.703
  144OSM   H13S15751   0.735   5.387   3.693
  144OSM   H13T15752   0.835   5.532   3.667
  144OSM   C14S15753   0.889   5.413   3.850
  144OSM   H14S15754   0.990   5.456   3.866
  144OSM   H14T15755   0.896   5.302   3.851
  144OSM   C15S15756   0.794   5.473   3.954
  144OSM   H15S15757   0.775   5.574   3.912
  144OSM   H15T15758   0.851   5.490   4.047
  144OSM   C16S15759   0.664   5.398   3.974
  144OSM   H16S15760   0.691   5.303   4.027
  144OSM   H16T15761   0.610   5.376   3.880
  144OSM   C17S15762   0.575   5.473   4.081
  144OSM   H17S15763   0.482   5.413   4.089
  144OSM   H17T15764   0.555   5.578   4.051
  144OSM   C18S15765   0.618   5.457   4.228
  144OSM   H18S15766   0.583   5.359   4.269
  144OSM   H18T15767   0.572   5.539   4.287
  144OSM   H18U15768   0.727   5.470   4.243
  144OSM    C1F15769   0.406   5.934   2.722
  144OSM     OF15770   0.314   5.849   2.709
  144OSM    C2F15771   0.385   6.077   2.763
  144OSM    H2F15772   0.343   6.142   2.682
  144OSM    H2G15773   0.484   6.105   2.803
  144OSM    C3F15774   0.288   6.091   2.875
  144OSM    H3F15775   0.322   6.017   2.951
  144OSM    H3G15776   0.185   6.062   2.844
  144OSM    C4F15777   0.297   6.236   2.923
  144OSM    H4F15778   0.233   6.289   2.850
  144OSM    H4G15779   0.397   6.281   2.902
  144OSM    C5F15780   0.238   6.262   3.059
  144OSM    H5F15781   0.157   6.188   3.079
  144OSM    H5G15782   0.197   6.365   3.058
  144OSM    C6F15783   0.342   6.251   3.176
  144OSM    H6F15784   0.392   6.350   3.191
  144OSM    H6G15785   0.424   6.188   3.135
  144OSM    C7F15786   0.288   6.200   3.313
  144OSM    H7F15787   0.242   6.101   3.292
  144OSM    H7G15788   0.211   6.270   3.351
  144OSM    C8F15789   0.387   6.181   3.428
  144OSM    H8F15790   0.323   6.145   3.511
  144OSM    H8G15791   0.438   6.278   3.445
  144OSM    C9F15792   0.484   6.076   3.382
  144OSM    H9F15793   0.534   6.100   3.287
  144OSM   C10F15794   0.520   5.968   3.449
  144OSM   H10F15795   0.595   5.906   3.396
  144OSM   C11F15796   0.462   5.922   3.584
  144OSM   H11F15797   0.418   5.820   3.572
  144OSM   H11G15798   0.379   5.979   3.632
  144OSM   C12F15799   0.581   5.911   3.682
  144OSM   H12F15800   0.634   6.009   3.685
  144OSM   H12G15801   0.652   5.835   3.643
  144OSM   C13F15802   0.536   5.882   3.818
  144OSM   H13F15803   0.486   5.784   3.806
  144OSM   H13G15804   0.462   5.955   3.859
  144OSM   C14F15805   0.655   5.879   3.909
  144OSM   H14F15806   0.738   5.819   3.865
  144OSM   H14G15807   0.625   5.824   4.001
  144OSM   C15F15808   0.715   6.016   3.954
  144OSM   H15F15809   0.638   6.090   3.984
  144OSM   H15G15810   0.774   6.058   3.869
  144OSM   C16F15811   0.815   5.998   4.073
  144OSM   H16F15812   0.882   5.912   4.055
  144OSM   H16G15813   0.770   5.991   4.175
  144OSM   C17F15814   0.912   6.120   4.091
  144OSM   H17F15815   0.952   6.105   4.193
  144OSM   H17G15816   0.860   6.218   4.089
  144OSM   C18F15817   1.037   6.103   4.001
  144OSM   H18F15818   1.089   6.009   4.028
  144OSM   H18G15819   1.110   6.185   4.023
  144OSM   H18H15820   1.007   6.114   3.895
  145SAPE     N15821   1.902   1.060   6.427
  145SAPE   HN115822   2.003   1.064   6.405
  145SAPE   HN215823   1.875   1.151   6.471
  145SAPE   HN315824   1.878   0.981   6.490
  145SAPE   C1215825   1.838   1.045   6.292
  145SAPE  H12A15826   1.901   0.966   6.246
  145SAPE  H12B15827   1.859   1.137   6.234
  145SAPE   C1115828   1.689   1.007   6.284
  145SAPE  H11A15829   1.674   0.939   6.197
  145SAPE  H11B15830   1.630   1.101   6.279
  145SAPE     P15831   1.541   0.844   6.431
  145SAPE   O1315832   1.611   0.712   6.451
  145SAPE   O1415833   1.451   0.891   6.539
  145SAPE   O1215834   1.644   0.956   6.407
  145SAPE   O1115835   1.462   0.837   6.298
  145SAPE    C115836   1.374   0.947   6.269
  145SAPE    HA15837   1.277   0.931   6.319
  145SAPE    HB15838   1.418   1.048   6.289
  145SAPE    C215839   1.328   0.930   6.116
  145SAPE    HS15840   1.253   1.012   6.106
  145SAPE   O2115841   1.292   0.793   6.083
  145SAPE   C2115842   1.193   0.795   5.986
  145SAPE   O2215843   1.128   0.893   5.959
  145SAPE   C2215844   1.183   0.659   5.923
  145SAPE   H2R15845   1.283   0.624   5.890
  145SAPE   H2S15846   1.151   0.582   5.996
  145SAPE    C315847   1.450   0.969   6.036
  145SAPE    HX15848   1.531   0.902   6.069
  145SAPE    HY15849   1.481   1.074   6.058
  145SAPE   O3115850   1.428   0.962   5.892
  145SAPE   C3115851   1.374   1.074   5.842
  145SAPE   O3215852   1.342   1.172   5.905
  145SAPE   C3215853   1.354   1.048   5.693
  145SAPE   H2X15854   1.261   0.990   5.679
  145SAPE   H2Y15855   1.438   0.999   5.638
  145SAPE   C2315856   1.078   0.655   5.806
  145SAPE   H3R15857   1.015   0.747   5.802
  145SAPE   H3S15858   1.006   0.574   5.826
  145SAPE   C2415859   1.146   0.640   5.671
  145SAPE   H4R15860   1.215   0.553   5.665
  145SAPE   H4S15861   1.205   0.734   5.664
  145SAPE   C2515862   1.043   0.638   5.560
  145SAPE   H5R15863   0.984   0.545   5.559
  145SAPE   C2615864   1.019   0.737   5.472
  145SAPE   H6R15865   0.925   0.727   5.416
  145SAPE   C2715866   1.088   0.877   5.459
  145SAPE   H7R15867   1.137   0.873   5.359
  145SAPE   H7S15868   1.175   0.880   5.528
  145SAPE   C2815869   0.984   0.988   5.476
  145SAPE   H8R15870   0.961   1.022   5.578
  145SAPE   C2915871   0.898   1.031   5.377
  145SAPE   H9R15872   0.837   1.121   5.392
  145SAPE  C21015873   0.895   0.978   5.235
  145SAPE  H10R15874   0.791   0.946   5.212
  145SAPE  H10S15875   0.960   0.888   5.224
  145SAPE  C21115876   0.953   1.081   5.138
  145SAPE  H11R15877   1.053   1.122   5.159
  145SAPE  C21215878   0.894   1.120   5.022
  145SAPE  H12R15879   0.951   1.197   4.967
  145SAPE  C21315880   0.767   1.081   4.950
  145SAPE  H13R15881   0.782   1.108   4.843
  145SAPE  H13S15882   0.682   1.146   4.981
  145SAPE  C21415883   0.720   0.940   4.955
  145SAPE  H14R15884   0.785   0.872   5.012
  145SAPE  C21515885   0.632   0.880   4.871
  145SAPE  H15R15886   0.609   0.773   4.883
  145SAPE  C21615887   0.547   0.944   4.765
  145SAPE  H16R15888   0.599   1.034   4.727
  145SAPE  H16S15889   0.453   0.977   4.814
  145SAPE  C21715890   0.502   0.849   4.660
  145SAPE  H17R15891   0.433   0.901   4.590
  145SAPE  H17S15892   0.434   0.772   4.701
  145SAPE  C21815893   0.614   0.761   4.592
  145SAPE  H18R15894   0.571   0.680   4.530
  145SAPE  H18S15895   0.669   0.711   4.674
  145SAPE  C21915896   0.712   0.851   4.511
  145SAPE  H19R15897   0.778   0.774   4.467
  145SAPE  H19S15898   0.758   0.921   4.583
  145SAPE  C22015899   0.657   0.935   4.394
  145SAPE  H20R15900   0.731   0.941   4.312
  145SAPE  H20S15901   0.636   1.040   4.425
  145SAPE  H20T15902   0.561   0.896   4.354
  145SAPE   C3315903   1.318   1.181   5.613
  145SAPE   H3X15904   1.383   1.265   5.646
  145SAPE   H3Y15905   1.219   1.221   5.644
  145SAPE   C3415906   1.330   1.164   5.457
  145SAPE   H4X15907   1.254   1.090   5.426
  145SAPE   H4Y15908   1.422   1.102   5.447
  145SAPE   C3515909   1.338   1.299   5.384
  145SAPE   H5X15910   1.407   1.364   5.441
  145SAPE   H5Y15911   1.236   1.343   5.387
  145SAPE   C3615912   1.384   1.291   5.237
  145SAPE   H6X15913   1.406   1.189   5.199
  145SAPE   H6Y15914   1.487   1.334   5.236
  145SAPE   C3715915   1.300   1.368   5.136
  145SAPE   H7X15916   1.264   1.458   5.190
  145SAPE   H7Y15917   1.209   1.308   5.118
  145SAPE   C3815918   1.377   1.389   5.008
  145SAPE   H8X15919   1.419   1.296   4.966
  145SAPE   H8Y15920   1.467   1.452   5.024
  145SAPE   C3915921   1.289   1.467   4.918
  145SAPE   H9X15922   1.248   1.556   4.970
  145SAPE   H9Y15923   1.203   1.401   4.894
  145SAPE  C31015924   1.371   1.510   4.802
  145SAPE  H10X15925   1.437   1.424   4.778
  145SAPE  H10Y15926   1.441   1.588   4.838
  145SAPE  C31115927   1.286   1.547   4.688
  145SAPE  H11X15928   1.239   1.646   4.708
  145SAPE  H11Y15929   1.215   1.463   4.671
  145SAPE  C31215930   1.367   1.560   4.556
  145SAPE  H12X15931   1.433   1.470   4.552
  145SAPE  H12Y15932   1.441   1.643   4.559
  145SAPE  C31315933   1.272   1.591   4.435
  145SAPE  H13X15934   1.226   1.686   4.470
  145SAPE  H13Y15935   1.196   1.511   4.436
  145SAPE  C31415936   1.350   1.600   4.304
  145SAPE  H14X15937   1.413   1.508   4.294
  145SAPE  H14Y15938   1.419   1.687   4.305
  145SAPE  C31515939   1.250   1.602   4.183
  145SAPE  H15X15940   1.187   1.513   4.204
  145SAPE  H15Y15941   1.288   1.576   4.082
  145SAPE  C31615942   1.176   1.736   4.163
  145SAPE  H16X15943   1.136   1.771   4.261
  145SAPE  H16Y15944   1.085   1.715   4.103
  145SAPE  C31715945   1.261   1.850   4.091
  145SAPE  H17X15946   1.338   1.888   4.162
  145SAPE  H17Y15947   1.192   1.934   4.072
  145SAPE  C31815948   1.325   1.807   3.958
  145SAPE  H18X15949   1.396   1.721   3.952
  145SAPE  H18Y15950   1.377   1.896   3.917
  145SAPE  H18Z15951   1.246   1.784   3.884
  146SAPE     N15952   4.618   0.188   6.639
  146SAPE   HN115953   4.631   0.271   6.579
  146SAPE   HN215954   4.689   0.171   6.714
  146SAPE   HN315955   4.640   0.103   6.582
  146SAPE   C1215956   4.472   0.198   6.667
  146SAPE  H12A15957   4.462   0.274   6.748
  146SAPE  H12B15958   4.438   0.098   6.700
  146SAPE   C1115959   4.398   0.251   6.542
  146SAPE  H11A15960   4.288   0.248   6.558
  146SAPE  H11B15961   4.411   0.179   6.458
  146SAPE     P15962   4.379   0.491   6.425
  146SAPE   O1315963   4.231   0.477   6.431
  146SAPE   O1415964   4.430   0.626   6.466
  146SAPE   O1215965   4.454   0.381   6.512
  146SAPE   O1115966   4.428   0.462   6.272
  146SAPE    C115967   4.441   0.585   6.191
  146SAPE    HA15968   4.371   0.662   6.228
  146SAPE    HB15969   4.541   0.634   6.198
  146SAPE    C215970   4.412   0.559   6.039
  146SAPE    HS15971   4.422   0.660   5.993
  146SAPE   O2115972   4.289   0.487   6.010
  146SAPE   C2115973   4.183   0.561   6.022
  146SAPE   O2215974   4.196   0.683   6.047
  146SAPE   C2215975   4.058   0.476   6.001
  146SAPE   H2R15976   4.091   0.370   6.003
  146SAPE   H2S15977   3.991   0.505   6.085
  146SAPE    C315978   4.538   0.489   5.959
  146SAPE    HX15979   4.544   0.384   5.995
  146SAPE    HY15980   4.632   0.535   5.997
  146SAPE   O3115981   4.517   0.491   5.819
  146SAPE   C3115982   4.447   0.391   5.759
  146SAPE   O3215983   4.402   0.291   5.813
  146SAPE   C3215984   4.423   0.420   5.614
  146SAPE   H2X15985   4.525   0.420   5.569
  146SAPE   H2Y15986   4.384   0.523   5.600
  146SAPE   C2315987   3.980   0.520   5.870
  146SAPE   H3R15988   3.940   0.623   5.882
  146SAPE   H3S15989   3.887   0.459   5.867
  146SAPE   C2415990   4.051   0.505   5.744
  146SAPE   H4R15991   4.021   0.404   5.708
  146SAPE   H4S15992   4.156   0.487   5.774
  146SAPE   C2515993   4.016   0.612   5.641
  146SAPE   H5R15994   4.047   0.713   5.671
  146SAPE   C2615995   3.945   0.604   5.529
  146SAPE   H6R15996   3.934   0.690   5.462
  146SAPE   C2715997   3.881   0.481   5.470
  146SAPE   H7R15998   3.880   0.387   5.530
  146SAPE   H7S15999   3.943   0.463   5.380
  146SAPE   C2816000   3.746   0.498   5.423
  146SAPE   H8R16001   3.694   0.581   5.474
  146SAPE   C2916002   3.694   0.435   5.317
  146SAPE   H9R16003   3.588   0.455   5.296
  146SAPE  C21016004   3.756   0.327   5.232
  146SAPE  H10R16005   3.854   0.300   5.277
  146SAPE  H10S16006   3.779   0.366   5.131
  146SAPE  C21116007   3.683   0.198   5.219
  146SAPE  H11R16008   3.728   0.117   5.277
  146SAPE  C21216009   3.591   0.168   5.132
  146SAPE  H12R16010   3.567   0.062   5.120
  146SAPE  C21316011   3.520   0.254   5.030
  146SAPE  H13R16012   3.516   0.353   5.080
  146SAPE  H13S16013   3.417   0.221   5.006
  146SAPE  C21416014   3.599   0.247   4.894
  146SAPE  H14R16015   3.690   0.308   4.883
  146SAPE  C21516016   3.555   0.200   4.777
  146SAPE  H15R16017   3.624   0.220   4.694
  146SAPE  C21616018   3.422   0.139   4.734
  146SAPE  H16R16019   3.400   0.121   4.626
  146SAPE  H16S16020   3.336   0.201   4.766
  146SAPE  C21716021   3.389   0.001   4.790
  146SAPE  H17R16022   3.379   0.014   4.900
  146SAPE  H17S16023   3.466   6.805   4.762
  146SAPE  C21816024   3.261   6.814   4.740
  146SAPE  H18R16025   3.264   6.809   4.629
  146SAPE  H18S16026   3.172   6.873   4.771
  146SAPE  C21916027   3.254   6.666   4.783
  146SAPE  H19R16028   3.215   6.657   4.887
  146SAPE  H19S16029   3.359   6.629   4.785
  146SAPE  C22016030   3.166   6.575   4.693
  146SAPE  H20R16031   3.058   6.597   4.687
  146SAPE  H20S16032   3.161   6.474   4.738
  146SAPE  H20T16033   3.210   6.568   4.591
  146SAPE   C3316034   4.329   0.309   5.553
  146SAPE   H3X16035   4.230   0.328   5.600
  146SAPE   H3Y16036   4.358   0.203   5.568
  146SAPE   C3416037   4.324   0.311   5.400
  146SAPE   H4X16038   4.253   0.227   5.385
  146SAPE   H4Y16039   4.424   0.293   5.356
  146SAPE   C3516040   4.271   0.443   5.346
  146SAPE   H5X16041   4.339   0.527   5.374
  146SAPE   H5Y16042   4.179   0.470   5.403
  146SAPE   C3616043   4.244   0.442   5.195
  146SAPE   H6X16044   4.202   0.342   5.171
  146SAPE   H6Y16045   4.334   0.462   5.134
  146SAPE   C3716046   4.137   0.542   5.143
  146SAPE   H7X16047   4.184   0.636   5.107
  146SAPE   H7Y16048   4.079   0.577   5.231
  146SAPE   C3816049   4.058   0.481   5.023
  146SAPE   H8X16050   3.972   0.551   5.018
  146SAPE   H8Y16051   4.024   0.377   5.043
  146SAPE   C3916052   4.143   0.497   4.899
  146SAPE   H9X16053   4.237   0.442   4.921
  146SAPE   H9Y16054   4.164   0.601   4.865
  146SAPE  C31016055   4.069   0.440   4.776
  146SAPE  H10X16056   4.078   0.496   4.681
  146SAPE  H10Y16057   3.962   0.441   4.804
  146SAPE  C31116058   4.101   0.289   4.752
  146SAPE  H11X16059   4.140   0.249   4.848
  146SAPE  H11Y16060   4.178   0.296   4.671
  146SAPE  C31216061   3.985   0.194   4.718
  146SAPE  H12X16062   3.917   0.177   4.803
  146SAPE  H12Y16063   4.024   0.091   4.701
  146SAPE  C31316064   3.915   0.233   4.586
  146SAPE  H13X16065   3.991   0.275   4.517
  146SAPE  H13Y16066   3.834   0.309   4.588
  146SAPE  C31416067   3.861   0.110   4.513
  146SAPE  H14X16068   3.829   0.027   4.579
  146SAPE  H14Y16069   3.942   0.072   4.447
  146SAPE  C31516070   3.738   0.130   4.422
  146SAPE  H15X16071   3.769   0.207   4.348
  146SAPE  H15Y16072   3.653   0.174   4.478
  146SAPE  C31616073   3.684   0.007   4.348
  146SAPE  H16X16074   3.770   6.833   4.303
  146SAPE  H16Y16075   3.614   0.049   4.272
  146SAPE  C31716076   3.610   6.794   4.453
  146SAPE  H17X16077   3.519   6.847   4.489
  146SAPE  H17Y16078   3.690   6.766   4.526
  146SAPE  C31816079   3.568   6.663   4.383
  146SAPE  H18X16080   3.518   6.682   4.285
  146SAPE  H18Y16081   3.502   6.597   4.444
  146SAPE  H18Z16082   3.660   6.602   4.371
  147SAPE     N16083   5.534   5.308   6.968
  147SAPE   HN116084   5.596   5.232   6.934
  147SAPE   HN216085   5.583   5.397   6.945
  147SAPE   HN316086   5.519   5.290   7.069
  147SAPE   C1216087   5.432   5.316   6.861
  147SAPE  H12A16088   5.354   5.240   6.885
  147SAPE  H12B16089   5.486   5.282   6.771
  147SAPE   C1116090   5.382   5.455   6.834
  147SAPE  H11A16091   5.315   5.488   6.916
  147SAPE  H11B16092   5.320   5.458   6.741
  147SAPE     P16093   5.503   5.667   6.737
  147SAPE   O1316094   5.434   5.780   6.816
  147SAPE   O1416095   5.641   5.692   6.693
  147SAPE   O1216096   5.494   5.539   6.822
  147SAPE   O1116097   5.414   5.628   6.612
  147SAPE    C116098   5.464   5.540   6.506
  147SAPE    HA16099   5.567   5.572   6.479
  147SAPE    HB16100   5.468   5.437   6.548
  147SAPE    C216101   5.370   5.530   6.376
  147SAPE    HS16102   5.396   5.450   6.303
  147SAPE   O2116103   5.355   5.656   6.307
  147SAPE   C2116104   5.473   5.696   6.259
  147SAPE   O2216105   5.565   5.627   6.233
  147SAPE   C2216106   5.468   5.846   6.234
  147SAPE   H2R16107   5.361   5.875   6.224
  147SAPE   H2S16108   5.497   5.897   6.329
  147SAPE    C316109   5.234   5.492   6.429
  147SAPE    HX16110   5.188   5.564   6.501
  147SAPE    HY16111   5.246   5.391   6.473
  147SAPE   O3116112   5.150   5.481   6.317
  147SAPE   C3116113   5.032   5.540   6.310
  147SAPE   O3216114   4.980   5.612   6.391
  147SAPE   C3216115   4.972   5.503   6.171
  147SAPE   H2X16116   4.867   5.538   6.165
  147SAPE   H2Y16117   4.957   5.393   6.173
  147SAPE   C2316118   5.568   5.892   6.122
  147SAPE   H3R16119   5.657   5.826   6.113
  147SAPE   H3S16120   5.605   5.995   6.138
  147SAPE   C2416121   5.502   5.908   5.984
  147SAPE   H4R16122   5.566   5.960   5.909
  147SAPE   H4S16123   5.417   5.977   6.004
  147SAPE   C2516124   5.446   5.780   5.925
  147SAPE   H5R16125   5.473   5.685   5.972
  147SAPE   C2616126   5.378   5.772   5.806
  147SAPE   H6R16127   5.356   5.674   5.762
  147SAPE   C2716128   5.329   5.889   5.721
  147SAPE   H7R16129   5.326   5.973   5.793
  147SAPE   H7S16130   5.222   5.872   5.699
  147SAPE   C2816131   5.421   5.923   5.607
  147SAPE   H8R16132   5.528   5.911   5.630
  147SAPE   C2916133   5.376   5.949   5.480
  147SAPE   H9R16134   5.450   5.977   5.404
  147SAPE  C21016135   5.236   5.977   5.431
  147SAPE  H10R16136   5.170   6.013   5.513
  147SAPE  H10S16137   5.181   5.889   5.390
  147SAPE  C21116138   5.241   6.077   5.317
  147SAPE  H11R16139   5.235   6.180   5.356
  147SAPE  C21216140   5.252   6.050   5.182
  147SAPE  H12R16141   5.236   6.132   5.111
  147SAPE  C21316142   5.263   5.919   5.103
  147SAPE  H13R16143   5.278   5.836   5.176
  147SAPE  H13S16144   5.343   5.903   5.028
  147SAPE  C21416145   5.130   5.885   5.044
  147SAPE  H14R16146   5.041   5.888   5.108
  147SAPE  C21516147   5.114   5.836   4.919
  147SAPE  H15R16148   5.017   5.797   4.885
  147SAPE  C21616149   5.227   5.808   4.827
  147SAPE  H16R16150   5.305   5.742   4.870
  147SAPE  H16S16151   5.262   5.907   4.789
  147SAPE  C21716152   5.188   5.710   4.708
  147SAPE  H17R16153   5.094   5.729   4.653
  147SAPE  H17S16154   5.174   5.613   4.761
  147SAPE  C21816155   5.303   5.691   4.609
  147SAPE  H18R16156   5.401   5.662   4.652
  147SAPE  H18S16157   5.306   5.785   4.549
  147SAPE  C21916158   5.271   5.593   4.490
  147SAPE  H19R16159   5.172   5.623   4.451
  147SAPE  H19S16160   5.261   5.487   4.522
  147SAPE  C22016161   5.378   5.601   4.382
  147SAPE  H20R16162   5.384   5.698   4.329
  147SAPE  H20S16163   5.345   5.530   4.303
  147SAPE  H20T16164   5.475   5.566   4.426
  147SAPE   C3316165   5.059   5.557   6.052
  147SAPE   H3X16166   5.162   5.517   6.058
  147SAPE   H3Y16167   5.053   5.667   6.059
  147SAPE   C3416168   5.004   5.505   5.919
  147SAPE   H4X16169   4.900   5.542   5.909
  147SAPE   H4Y16170   5.024   5.395   5.915
  147SAPE   C3516171   5.076   5.563   5.795
  147SAPE   H5X16172   5.186   5.561   5.809
  147SAPE   H5Y16173   5.050   5.671   5.794
  147SAPE   C3616174   5.032   5.502   5.669
  147SAPE   H6X16175   4.922   5.491   5.659
  147SAPE   H6Y16176   5.083   5.404   5.663
  147SAPE   C3716177   5.071   5.597   5.554
  147SAPE   H7X16178   5.181   5.600   5.544
  147SAPE   H7Y16179   5.031   5.697   5.582
  147SAPE   C3816180   5.006   5.562   5.420
  147SAPE   H8X16181   4.910   5.512   5.444
  147SAPE   H8Y16182   5.077   5.493   5.371
  147SAPE   C3916183   4.985   5.685   5.327
  147SAPE   H9X16184   5.085   5.728   5.304
  147SAPE   H9Y16185   4.923   5.760   5.380
  147SAPE  C31016186   4.922   5.650   5.188
  147SAPE  H10X16187   4.871   5.551   5.183
  147SAPE  H10Y16188   5.000   5.658   5.110
  147SAPE  C31116189   4.808   5.748   5.171
  147SAPE  H11X16190   4.833   5.847   5.214
  147SAPE  H11Y16191   4.716   5.713   5.224
  147SAPE  C31216192   4.758   5.768   5.023
  147SAPE  H12X16193   4.841   5.759   4.950
  147SAPE  H12Y16194   4.715   5.870   5.022
  147SAPE  C31316195   4.645   5.670   4.986
  147SAPE  H13X16196   4.569   5.668   5.066
  147SAPE  H13Y16197   4.680   5.567   4.963
  147SAPE  C31416198   4.576   5.714   4.856
  147SAPE  H14X16199   4.642   5.738   4.770
  147SAPE  H14Y16200   4.525   5.809   4.882
  147SAPE  C31516201   4.463   5.619   4.814
  147SAPE  H15X16202   4.415   5.571   4.901
  147SAPE  H15Y16203   4.499   5.545   4.739
  147SAPE  C31616204   4.345   5.678   4.731
  147SAPE  H16X16205   4.391   5.717   4.637
  147SAPE  H16Y16206   4.296   5.764   4.782
  147SAPE  C31716207   4.245   5.568   4.704
  147SAPE  H17X16208   4.194   5.530   4.795
  147SAPE  H17Y16209   4.297   5.479   4.662
  147SAPE  C31816210   4.136   5.613   4.599
  147SAPE  H18X16211   4.082   5.523   4.562
  147SAPE  H18Y16212   4.196   5.641   4.510
  147SAPE  H18Z16213   4.075   5.700   4.628
  148SAPE     N16214   1.587   0.470   6.559
  148SAPE   HN116215   1.599   0.557   6.503
  148SAPE   HN216216   1.499   0.483   6.614
  148SAPE   HN316217   1.671   0.473   6.620
  148SAPE   C1216218   1.585   0.357   6.460
  148SAPE  H12A16219   1.484   0.347   6.415
  148SAPE  H12B16220   1.619   0.267   6.515
  148SAPE   C1116221   1.679   0.387   6.348
  148SAPE  H11A16222   1.656   0.485   6.299
  148SAPE  H11B16223   1.671   0.319   6.260
  148SAPE     P16224   1.915   0.274   6.415
  148SAPE   O1316225   2.044   0.318   6.471
  148SAPE   O1416226   1.844   0.164   6.486
  148SAPE   O1216227   1.816   0.396   6.399
  148SAPE   O1116228   1.940   0.233   6.266
  148SAPE    C116229   1.990   0.326   6.171
  148SAPE    HA16230   1.925   0.314   6.082
  148SAPE    HB16231   1.991   0.432   6.203
  148SAPE    C216232   2.148   0.283   6.149
  148SAPE    HS16233   2.193   0.276   6.250
  148SAPE   O2116234   2.213   0.380   6.061
  148SAPE   C2116235   2.345   0.349   6.052
  148SAPE   O2216236   2.403   0.270   6.120
  148SAPE   C2216237   2.401   0.411   5.932
  148SAPE   H2R16238   2.325   0.484   5.898
  148SAPE   H2S16239   2.492   0.469   5.961
  148SAPE    C316240   2.141   0.144   6.076
  148SAPE    HX16241   2.087   0.075   6.144
  148SAPE    HY16242   2.241   0.101   6.054
  148SAPE   O3116243   2.069   0.151   5.948
  148SAPE   C3116244   2.047   0.032   5.897
  148SAPE   O3216245   2.081   6.804   5.949
  148SAPE   C3216246   1.970   0.043   5.766
  148SAPE   H2X16247   2.033   0.091   5.689
  148SAPE   H2Y16248   1.880   0.106   5.785
  148SAPE   C2316249   2.420   0.314   5.814
  148SAPE   H3R16250   2.323   0.262   5.798
  148SAPE   H3S16251   2.479   0.224   5.840
  148SAPE   C2416252   2.460   0.382   5.677
  148SAPE   H4R16253   2.571   0.389   5.674
  148SAPE   H4S16254   2.418   0.485   5.683
  148SAPE   C2516255   2.413   0.286   5.569
  148SAPE   H5R16256   2.472   0.193   5.558
  148SAPE   C2616257   2.314   0.328   5.496
  148SAPE   H6R16258   2.289   0.274   5.403
  148SAPE   C2716259   2.227   0.451   5.520
  148SAPE   H7R16260   2.172   0.452   5.423
  148SAPE   H7S16261   2.283   0.547   5.516
  148SAPE   C2816262   2.132   0.442   5.632
  148SAPE   H8R16263   2.182   0.475   5.724
  148SAPE   C2916264   2.005   0.400   5.624
  148SAPE   H9R16265   1.940   0.411   5.712
  148SAPE  C21016266   1.924   0.359   5.504
  148SAPE  H10R16267   1.842   0.300   5.549
  148SAPE  H10S16268   1.989   0.293   5.443
  148SAPE  C21116269   1.876   0.470   5.418
  148SAPE  H11R16270   1.824   0.554   5.466
  148SAPE  C21216271   1.883   0.466   5.284
  148SAPE  H12R16272   1.840   0.557   5.239
  148SAPE  C21316273   1.923   0.357   5.184
  148SAPE  H13R16274   1.958   0.264   5.234
  148SAPE  H13S16275   2.018   0.386   5.133
  148SAPE  C21416276   1.813   0.314   5.092
  148SAPE  H14R16277   1.762   0.221   5.121
  148SAPE  C21516278   1.755   0.379   4.990
  148SAPE  H15R16279   1.666   0.331   4.945
  148SAPE  C21616280   1.790   0.510   4.927
  148SAPE  H16R16281   1.899   0.525   4.944
  148SAPE  H16S16282   1.737   0.591   4.981
  148SAPE  C21716283   1.741   0.514   4.787
  148SAPE  H17R16284   1.736   0.620   4.753
  148SAPE  H17S16285   1.639   0.472   4.776
  148SAPE  C21816286   1.836   0.428   4.695
  148SAPE  H18R16287   1.801   0.324   4.712
  148SAPE  H18S16288   1.942   0.416   4.728
  148SAPE  C21916289   1.824   0.449   4.545
  148SAPE  H19R16290   1.855   0.554   4.524
  148SAPE  H19S16291   1.717   0.442   4.516
  148SAPE  C22016292   1.904   0.350   4.462
  148SAPE  H20R16293   2.012   0.364   4.484
  148SAPE  H20S16294   1.884   0.356   4.353
  148SAPE  H20T16295   1.884   0.244   4.489
  148SAPE   C3316296   1.928   6.790   5.714
  148SAPE   H3X16297   1.843   6.745   5.770
  148SAPE   H3Y16298   2.007   6.712   5.717
  148SAPE   C3416299   1.875   6.782   5.569
  148SAPE   H4X16300   1.779   6.837   5.557
  148SAPE   H4Y16301   1.865   6.672   5.557
  148SAPE   C3516302   1.977   6.820   5.458
  148SAPE   H5X16303   2.072   6.772   5.489
  148SAPE   H5Y16304   1.990   0.050   5.442
  148SAPE   C3616305   1.943   6.769   5.320
  148SAPE   H6X16306   1.931   6.659   5.324
  148SAPE   H6Y16307   2.022   6.796   5.248
  148SAPE   C3716308   1.814   6.829   5.264
  148SAPE   H7X16309   1.804   0.060   5.275
  148SAPE   H7Y16310   1.718   6.803   5.314
  148SAPE   C3816311   1.810   6.797   5.108
  148SAPE   H8X16312   1.813   6.689   5.084
  148SAPE   H8Y16313   1.897   6.849   5.062
  148SAPE   C3916314   1.679   6.842   5.050
  148SAPE   H9X16315   1.636   0.047   5.108
  148SAPE   H9Y16316   1.607   6.758   5.051
  148SAPE  C31016317   1.704   0.009   4.911
  148SAPE  H10X16318   1.771   6.814   4.862
  148SAPE  H10Y16319   1.747   0.111   4.899
  148SAPE  C31116320   1.578   0.010   4.829
  148SAPE  H11X16321   1.505   0.050   4.902
  148SAPE  H11Y16322   1.554   6.782   4.812
  148SAPE  C31216323   1.583   0.093   4.695
  148SAPE  H12X16324   1.587   0.201   4.720
  148SAPE  H12Y16325   1.500   0.081   4.623
  148SAPE  C31316326   1.701   0.056   4.603
  148SAPE  H13X16327   1.798   0.072   4.656
  148SAPE  H13Y16328   1.689   0.126   4.518
  148SAPE  C31416329   1.694   6.794   4.542
  148SAPE  H14X16330   1.588   6.771   4.521
  148SAPE  H14Y16331   1.724   6.720   4.620
  148SAPE  C31516332   1.793   6.777   4.422
  148SAPE  H15X16333   1.818   6.669   4.412
  148SAPE  H15Y16334   1.885   6.836   4.441
  148SAPE  C31616335   1.740   6.829   4.287
  148SAPE  H16X16336   1.704   0.053   4.307
  148SAPE  H16Y16337   1.650   6.770   4.258
  148SAPE  C31716338   1.854   6.822   4.179
  148SAPE  H17X16339   1.807   6.793   4.082
  148SAPE  H17Y16340   1.919   6.739   4.216
  148SAPE  C31816341   1.927   0.074   4.172
  148SAPE  H18X16342   2.019   0.064   4.112
  148SAPE  H18Y16343   1.966   0.100   4.273
  148SAPE  H18Z16344   1.858   0.147   4.125
  149SAPE     N16345   2.461   2.433   6.519
  149SAPE   HN116346   2.406   2.506   6.468
  149SAPE   HN216347   2.560   2.437   6.487
  149SAPE   HN316348   2.415   2.348   6.480
  149SAPE   C1216349   2.454   2.452   6.666
  149SAPE  H12A16350   2.527   2.527   6.704
  149SAPE  H12B16351   2.489   2.355   6.708
  149SAPE   C1116352   2.316   2.499   6.711
  149SAPE  H11A16353   2.309   2.607   6.687
  149SAPE  H11B16354   2.313   2.494   6.822
  149SAPE     P16355   2.136   2.315   6.722
  149SAPE   O1316356   2.230   2.247   6.814
  149SAPE   O1416357   2.016   2.365   6.792
  149SAPE   O1216358   2.206   2.430   6.641
  149SAPE   O1116359   2.095   2.205   6.614
  149SAPE    C116360   2.007   2.255   6.515
  149SAPE    HA16361   1.908   2.293   6.549
  149SAPE    HB16362   2.053   2.325   6.443
  149SAPE    C216363   1.964   2.136   6.423
  149SAPE    HS16364   1.890   2.082   6.484
  149SAPE   O2116365   2.078   2.060   6.370
  149SAPE   C2116366   2.053   1.931   6.343
  149SAPE   O2216367   1.959   1.871   6.396
  149SAPE   C2216368   2.161   1.873   6.251
  149SAPE   H2R16369   2.155   1.920   6.151
  149SAPE   H2S16370   2.261   1.901   6.291
  149SAPE    C316371   1.882   2.189   6.299
  149SAPE    HX16372   1.971   2.232   6.249
  149SAPE    HY16373   1.815   2.273   6.329
  149SAPE   O3116374   1.824   2.089   6.219
  149SAPE   C3116375   1.699   2.041   6.250
  149SAPE   O3216376   1.623   2.096   6.332
  149SAPE   C3216377   1.671   1.916   6.159
  149SAPE   H2X16378   1.659   1.829   6.228
  149SAPE   H2Y16379   1.757   1.906   6.090
  149SAPE   C2316380   2.157   1.718   6.232
  149SAPE   H3R16381   2.162   1.684   6.337
  149SAPE   H3S16382   2.248   1.675   6.185
  149SAPE   C2416383   2.048   1.672   6.136
  149SAPE   H4R16384   2.070   1.689   6.028
  149SAPE   H4S16385   1.951   1.719   6.161
  149SAPE   C2516386   2.018   1.531   6.160
  149SAPE   H5R16387   1.998   1.510   6.266
  149SAPE   C2616388   2.042   1.429   6.075
  149SAPE   H6R16389   2.017   1.327   6.108
  149SAPE   C2716390   2.090   1.424   5.933
  149SAPE   H7R16391   2.053   1.520   5.893
  149SAPE   H7S16392   2.054   1.331   5.884
  149SAPE   C2816393   2.238   1.437   5.925
  149SAPE   H8R16394   2.284   1.498   6.004
  149SAPE   C2916395   2.312   1.371   5.841
  149SAPE   H9R16396   2.410   1.417   5.826
  149SAPE  C21016397   2.277   1.285   5.720
  149SAPE  H10R16398   2.235   1.344   5.636
  149SAPE  H10S16399   2.193   1.219   5.747
  149SAPE  C21116400   2.381   1.194   5.669
  149SAPE  H11R16401   2.392   1.102   5.728
  149SAPE  C21216402   2.446   1.199   5.549
  149SAPE  H12R16403   2.518   1.117   5.532
  149SAPE  C21316404   2.458   1.322   5.459
  149SAPE  H13R16405   2.563   1.324   5.423
  149SAPE  H13S16406   2.443   1.415   5.519
  149SAPE  C21416407   2.361   1.309   5.346
  149SAPE  H14R16408   2.258   1.342   5.365
  149SAPE  C21516409   2.397   1.285   5.217
  149SAPE  H15R16410   2.316   1.271   5.144
  149SAPE  C21616411   2.539   1.256   5.166
  149SAPE  H16R16412   2.584   1.158   5.193
  149SAPE  H16S16413   2.617   1.332   5.187
  149SAPE  C21716414   2.532   1.247   5.018
  149SAPE  H17R16415   2.484   1.341   4.982
  149SAPE  H17S16416   2.467   1.174   4.966
  149SAPE  C21816417   2.676   1.252   4.966
  149SAPE  H18R16418   2.734   1.178   5.026
  149SAPE  H18S16419   2.729   1.349   4.982
  149SAPE  C21916420   2.685   1.219   4.813
  149SAPE  H19R16421   2.629   1.300   4.761
  149SAPE  H19S16422   2.623   1.129   4.793
  149SAPE  C22016423   2.820   1.204   4.742
  149SAPE  H20R16424   2.869   1.132   4.811
  149SAPE  H20S16425   2.877   1.298   4.728
  149SAPE  H20T16426   2.809   1.153   4.644
  149SAPE   C3316427   1.548   1.915   6.070
  149SAPE   H3X16428   1.461   1.939   6.135
  149SAPE   H3Y16429   1.539   1.811   6.031
  149SAPE   C3416430   1.562   2.024   5.960
  149SAPE   H4X16431   1.572   2.124   6.008
  149SAPE   H4Y16432   1.461   2.023   5.913
  149SAPE   C3516433   1.664   1.999   5.855
  149SAPE   H5X16434   1.638   1.905   5.803
  149SAPE   H5Y16435   1.764   1.997   5.902
  149SAPE   C3616436   1.666   2.099   5.737
  149SAPE   H6X16437   1.683   2.204   5.770
  149SAPE   H6Y16438   1.560   2.111   5.705
  149SAPE   C3716439   1.765   2.057   5.619
  149SAPE   H7X16440   1.751   1.955   5.576
  149SAPE   H7Y16441   1.874   2.053   5.640
  149SAPE   C3816442   1.746   2.142   5.492
  149SAPE   H8X16443   1.787   2.244   5.506
  149SAPE   H8Y16444   1.638   2.137   5.468
  149SAPE   C3916445   1.824   2.087   5.366
  149SAPE   H9X16446   1.830   1.976   5.373
  149SAPE   H9Y16447   1.929   2.126   5.364
  149SAPE  C31016448   1.751   2.114   5.229
  149SAPE  H10X16449   1.762   2.224   5.214
  149SAPE  H10Y16450   1.642   2.094   5.230
  149SAPE  C31116451   1.816   2.046   5.103
  149SAPE  H11X16452   1.793   1.938   5.117
  149SAPE  H11Y16453   1.927   2.050   5.102
  149SAPE  C31216454   1.760   2.106   4.970
  149SAPE  H12X16455   1.813   2.199   4.941
  149SAPE  H12Y16456   1.650   2.120   4.974
  149SAPE  C31316457   1.777   2.010   4.853
  149SAPE  H13X16458   1.701   1.930   4.865
  149SAPE  H13Y16459   1.876   1.959   4.855
  149SAPE  C31416460   1.738   2.078   4.719
  149SAPE  H14X16461   1.801   2.167   4.697
  149SAPE  H14Y16462   1.637   2.122   4.733
  149SAPE  C31516463   1.746   1.987   4.595
  149SAPE  H15X16464   1.687   1.896   4.617
  149SAPE  H15Y16465   1.852   1.951   4.589
  149SAPE  C31616466   1.698   2.050   4.468
  149SAPE  H16X16467   1.761   2.141   4.454
  149SAPE  H16Y16468   1.598   2.096   4.463
  149SAPE  C31716469   1.698   1.943   4.351
  149SAPE  H17X16470   1.635   1.855   4.375
  149SAPE  H17Y16471   1.802   1.905   4.341
  149SAPE  C31816472   1.633   1.998   4.228
  149SAPE  H18X16473   1.631   1.913   4.157
  149SAPE  H18Y16474   1.699   2.073   4.179
  149SAPE  H18Z16475   1.529   2.034   4.239
  150SAPE     N16476   4.898   2.994   6.635
  150SAPE   HN116477   4.818   2.945   6.679
  150SAPE   HN216478   4.994   2.982   6.673
  150SAPE   HN316479   4.876   3.094   6.656
  150SAPE   C1216480   4.897   2.963   6.492
  150SAPE  H12A16481   4.965   3.027   6.431
  150SAPE  H12B16482   4.796   2.994   6.458
  150SAPE   C1116483   4.928   2.822   6.465
  150SAPE  H11A16484   4.885   2.799   6.366
  150SAPE  H11B16485   4.867   2.758   6.534
  150SAPE     P16486   5.159   2.760   6.585
  150SAPE   O1316487   5.136   2.876   6.674
  150SAPE   O1416488   5.144   2.623   6.639
  150SAPE   O1216489   5.063   2.780   6.462
  150SAPE   O1116490   5.296   2.776   6.514
  150SAPE    C116491   5.359   2.662   6.453
  150SAPE    HA16492   5.373   2.592   6.538
  150SAPE    HB16493   5.301   2.616   6.370
  150SAPE    C216494   5.508   2.680   6.409
  150SAPE    HS16495   5.570   2.720   6.492
  150SAPE   O2116496   5.513   2.752   6.286
  150SAPE   C2116497   5.627   2.804   6.258
  150SAPE   O2216498   5.711   2.829   6.344
  150SAPE   C2216499   5.643   2.857   6.116
  150SAPE   H2R16500   5.563   2.816   6.050
  150SAPE   H2S16501   5.598   2.958   6.124
  150SAPE    C316502   5.575   2.542   6.396
  150SAPE    HX16503   5.592   2.495   6.496
  150SAPE    HY16504   5.680   2.553   6.362
  150SAPE   O3116505   5.497   2.456   6.303
  150SAPE   C3116506   5.541   2.474   6.171
  150SAPE   O3216507   5.635   2.542   6.137
  150SAPE   C3216508   5.458   2.396   6.072
  150SAPE   H2X16509   5.358   2.378   6.118
  150SAPE   H2Y16510   5.501   2.293   6.068
  150SAPE   C2316511   5.786   2.859   6.060
  150SAPE   H3R16512   5.827   2.755   6.060
  150SAPE   H3S16513   5.848   2.919   6.130
  150SAPE   C2416514   5.785   2.915   5.915
  150SAPE   H4R16515   5.789   3.026   5.923
  150SAPE   H4S16516   5.681   2.899   5.880
  150SAPE   C2516517   5.905   2.868   5.822
  150SAPE   H5R16518   6.004   2.910   5.844
  150SAPE   C2616519   5.912   2.770   5.733
  150SAPE   H6R16520   6.008   2.746   5.686
  150SAPE   C2716521   5.790   2.700   5.677
  150SAPE   H7R16522   5.717   2.684   5.759
  150SAPE   H7S16523   5.818   2.600   5.638
  150SAPE   C2816524   5.724   2.783   5.569
  150SAPE   H8R16525   5.672   2.870   5.612
  150SAPE   C2916526   5.717   2.759   5.441
  150SAPE   H9R16527   5.647   2.814   5.376
  150SAPE  C21016528   5.788   2.642   5.379
  150SAPE  H10R16529   5.736   2.621   5.283
  150SAPE  H10S16530   5.760   2.551   5.437
  150SAPE  C21116531   5.941   2.642   5.370
  150SAPE  H11R16532   6.000   2.645   5.463
  150SAPE  C21216533   6.006   2.623   5.251
  150SAPE  H12R16534   6.115   2.631   5.258
  150SAPE  C21316535   5.947   2.618   5.110
  150SAPE  H13R16536   5.893   2.713   5.091
  150SAPE  H13S16537   5.870   2.539   5.106
  150SAPE  C21416538   6.046   2.604   5.004
  150SAPE  H14R16539   6.150   2.617   5.037
  150SAPE  C21516540   6.018   2.578   4.875
  150SAPE  H15R16541   6.105   2.578   4.807
  150SAPE  C21616542   5.882   2.549   4.811
  150SAPE  H16R16543   5.822   2.642   4.813
  150SAPE  H16S16544   5.825   2.461   4.849
  150SAPE  C21716545   5.885   2.526   4.655
  150SAPE  H17R16546   5.786   2.495   4.615
  150SAPE  H17S16547   5.958   2.446   4.630
  150SAPE  C21816548   5.930   2.641   4.564
  150SAPE  H18R16549   5.913   2.606   4.460
  150SAPE  H18S16550   6.039   2.666   4.565
  150SAPE  C21916551   5.862   2.774   4.597
  150SAPE  H19R16552   5.903   2.837   4.515
  150SAPE  H19S16553   5.896   2.816   4.694
  150SAPE  C22016554   5.704   2.769   4.604
  150SAPE  H20R16555   5.676   2.733   4.706
  150SAPE  H20S16556   5.670   2.688   4.536
  150SAPE  H20T16557   5.661   2.869   4.582
  150SAPE   C3316558   5.465   2.442   5.921
  150SAPE   H3X16559   5.563   2.481   5.885
  150SAPE   H3Y16560   5.394   2.527   5.918
  150SAPE   C3416561   5.422   2.332   5.814
  150SAPE   H4X16562   5.506   2.261   5.798
  150SAPE   H4Y16563   5.427   2.389   5.718
  150SAPE   C3516564   5.295   2.265   5.846
  150SAPE   H5X16565   5.220   2.344   5.871
  150SAPE   H5Y16566   5.305   2.212   5.943
  150SAPE   C3616567   5.229   2.177   5.736
  150SAPE   H6X16568   5.128   2.139   5.761
  150SAPE   H6Y16569   5.294   2.087   5.733
  150SAPE   C3716570   5.225   2.240   5.593
  150SAPE   H7X16571   5.262   2.343   5.608
  150SAPE   H7Y16572   5.117   2.246   5.567
  150SAPE   C3816573   5.299   2.162   5.485
  150SAPE   H8X16574   5.244   2.068   5.464
  150SAPE   H8Y16575   5.403   2.140   5.517
  150SAPE   C3916576   5.308   2.239   5.348
  150SAPE   H9X16577   5.213   2.264   5.296
  150SAPE   H9Y16578   5.360   2.173   5.275
  150SAPE  C31016579   5.401   2.368   5.357
  150SAPE  H10X16580   5.497   2.345   5.408
  150SAPE  H10Y16581   5.349   2.440   5.423
  150SAPE  C31116582   5.434   2.431   5.218
  150SAPE  H11X16583   5.510   2.511   5.228
  150SAPE  H11Y16584   5.344   2.487   5.183
  150SAPE  C31216585   5.493   2.335   5.113
  150SAPE  H12X16586   5.418   2.270   5.063
  150SAPE  H12Y16587   5.575   2.277   5.160
  150SAPE  C31316588   5.557   2.412   4.999
  150SAPE  H13X16589   5.631   2.342   4.956
  150SAPE  H13Y16590   5.619   2.501   5.021
  150SAPE  C31416591   5.458   2.448   4.888
  150SAPE  H14X16592   5.504   2.530   4.829
  150SAPE  H14Y16593   5.358   2.486   4.915
  150SAPE  C31516594   5.442   2.332   4.790
  150SAPE  H15X16595   5.373   2.256   4.834
  150SAPE  H15Y16596   5.545   2.297   4.767
  150SAPE  C31616597   5.370   2.382   4.664
  150SAPE  H16X16598   5.433   2.449   4.601
  150SAPE  H16Y16599   5.281   2.438   4.698
  150SAPE  C31716600   5.329   2.262   4.570
  150SAPE  H17X16601   5.261   2.186   4.615
  150SAPE  H17Y16602   5.425   2.213   4.541
  150SAPE  C31816603   5.264   2.303   4.444
  150SAPE  H18X16604   5.315   2.392   4.401
  150SAPE  H18Y16605   5.159   2.327   4.471
  150SAPE  H18Z16606   5.262   2.222   4.368
  151SAPE     N16607   4.316   6.632   6.328
  151SAPE   HN116608   4.404   6.669   6.370
  151SAPE   HN216609   4.288   6.679   6.240
  151SAPE   HN316610   4.230   6.644   6.387
  151SAPE   C1216611   4.321   6.484   6.300
  151SAPE  H12A16612   4.219   6.462   6.260
  151SAPE  H12B16613   4.353   6.429   6.390
  151SAPE   C1116614   4.429   6.463   6.192
  151SAPE  H11A16615   4.401   6.522   6.102
  151SAPE  H11B16616   4.433   6.356   6.159
  151SAPE     P16617   4.655   6.574   6.150
  151SAPE   O1316618   4.585   6.697   6.108
  151SAPE   O1416619   4.780   6.588   6.225
  151SAPE   O1216620   4.553   6.500   6.243
  151SAPE   O1116621   4.675   6.474   6.027
  151SAPE    C116622   4.795   6.473   5.944
  151SAPE    HA16623   4.885   6.500   6.003
  151SAPE    HB16624   4.806   6.371   5.902
  151SAPE    C216625   4.779   6.564   5.821
  151SAPE    HS16626   4.867   6.552   5.754
  151SAPE   O2116627   4.758   6.702   5.865
  151SAPE   C2116628   4.874   6.757   5.899
  151SAPE   O2216629   4.987   6.706   5.903
  151SAPE   C2216630   4.842   0.012   5.953
  151SAPE   H2R16631   4.753   0.012   6.020
  151SAPE   H2S16632   4.929   0.041   6.016
  151SAPE    C316633   4.663   6.519   5.732
  151SAPE    HX16634   4.563   6.503   5.779
  151SAPE    HY16635   4.689   6.417   5.697
  151SAPE   O3116636   4.660   6.592   5.608
  151SAPE   C3116637   4.573   6.698   5.594
  151SAPE   O3216638   4.507   6.736   5.688
  151SAPE   C3216639   4.582   6.771   5.462
  151SAPE   H2X16640   4.606   6.878   5.480
  151SAPE   H2Y16641   4.482   6.765   5.414
  151SAPE   C2316642   4.826   0.118   5.844
  151SAPE   H3R16643   4.795   0.217   5.883
  151SAPE   H3S16644   4.748   0.083   5.773
  151SAPE   C2416645   4.959   0.151   5.766
  151SAPE   H4R16646   5.037   0.145   5.845
  151SAPE   H4S16647   4.958   0.255   5.726
  151SAPE   C2516648   4.985   0.060   5.652
  151SAPE   H5R16649   5.050   6.851   5.663
  151SAPE   C2616650   4.939   0.081   5.526
  151SAPE   H6R16651   4.984   0.020   5.446
  151SAPE   C2716652   4.855   0.197   5.483
  151SAPE   H7R16653   4.780   0.219   5.562
  151SAPE   H7S16654   4.798   0.191   5.387
  151SAPE   C2816655   4.949   0.314   5.463
  151SAPE   H8R16656   5.029   0.278   5.396
  151SAPE   C2916657   4.938   0.445   5.501
  151SAPE   H9R16658   5.017   0.516   5.475
  151SAPE  C21016659   4.827   0.511   5.586
  151SAPE  H10R16660   4.734   0.450   5.591
  151SAPE  H10S16661   4.809   0.614   5.547
  151SAPE  C21116662   4.874   0.527   5.733
  151SAPE  H11R16663   4.817   0.467   5.804
  151SAPE  C21216664   4.962   0.622   5.783
  151SAPE  H12R16665   4.995   0.603   5.886
  151SAPE  C21316666   5.040   0.724   5.702
  151SAPE  H13R16667   5.048   0.677   5.602
  151SAPE  H13S16668   5.147   0.728   5.734
  151SAPE  C21416669   4.978   0.858   5.701
  151SAPE  H14R16670   4.872   0.856   5.731
  151SAPE  C21516671   5.046   0.963   5.660
  151SAPE  H15R16672   4.992   1.058   5.651
  151SAPE  C21616673   5.186   0.963   5.603
  151SAPE  H16R16674   5.228   0.862   5.583
  151SAPE  H16S16675   5.247   1.011   5.682
  151SAPE  C21716676   5.193   1.041   5.469
  151SAPE  H17R16677   5.296   1.058   5.431
  151SAPE  H17S16678   5.146   1.139   5.488
  151SAPE  C21816679   5.111   0.968   5.362
  151SAPE  H18R16680   5.011   0.938   5.399
  151SAPE  H18S16681   5.163   0.871   5.353
  151SAPE  C21916682   5.097   1.042   5.227
  151SAPE  H19R16683   5.187   1.106   5.220
  151SAPE  H19S16684   5.006   1.106   5.223
  151SAPE  C22016685   5.117   0.945   5.108
  151SAPE  H20R16686   5.143   1.007   5.020
  151SAPE  H20S16687   5.033   0.883   5.070
  151SAPE  H20T16688   5.202   0.877   5.131
  151SAPE   C3316689   4.687   6.713   5.371
  151SAPE   H3X16690   4.697   6.603   5.374
  151SAPE   H3Y16691   4.789   6.752   5.391
  151SAPE   C3416692   4.656   6.725   5.221
  151SAPE   H4X16693   4.564   6.667   5.198
  151SAPE   H4Y16694   4.736   6.669   5.168
  151SAPE   C3516695   4.634   6.874   5.176
  151SAPE   H5X16696   4.696   0.069   5.230
  151SAPE   H5Y16697   4.527   0.023   5.185
  151SAPE   C3616698   4.674   0.031   5.034
  151SAPE   H6X16699   4.616   6.861   4.954
  151SAPE   H6Y16700   4.782   0.005   5.027
  151SAPE   C3716701   4.678   0.183   5.014
  151SAPE   H7X16702   4.763   0.225   5.072
  151SAPE   H7Y16703   4.584   0.224   5.056
  151SAPE   C3816704   4.694   0.218   4.871
  151SAPE   H8X16705   4.735   0.321   4.876
  151SAPE   H8Y16706   4.604   0.221   4.807
  151SAPE   C3916707   4.805   0.134   4.804
  151SAPE   H9X16708   4.751   0.041   4.778
  151SAPE   H9Y16709   4.897   0.106   4.862
  151SAPE  C31016710   4.856   0.196   4.677
  151SAPE  H10X16711   4.770   0.244   4.625
  151SAPE  H10Y16712   4.901   0.122   4.608
  151SAPE  C31116713   4.960   0.311   4.710
  151SAPE  H11X16714   5.042   0.276   4.777
  151SAPE  H11Y16715   4.914   0.400   4.758
  151SAPE  C31216716   5.033   0.367   4.588
  151SAPE  H12X16717   4.964   0.380   4.502
  151SAPE  H12Y16718   5.108   0.289   4.563
  151SAPE  C31316719   5.109   0.489   4.623
  151SAPE  H13X16720   5.187   0.510   4.547
  151SAPE  H13Y16721   5.160   0.479   4.721
  151SAPE  C31416722   5.023   0.616   4.612
  151SAPE  H14X16723   4.938   0.620   4.684
  151SAPE  H14Y16724   4.980   0.624   4.510
  151SAPE  C31516725   5.104   0.749   4.633
  151SAPE  H15X16726   5.132   0.795   4.536
  151SAPE  H15Y16727   5.198   0.720   4.684
  151SAPE  C31616728   5.031   0.850   4.723
  151SAPE  H16X16729   5.020   0.797   4.821
  151SAPE  H16Y16730   4.928   0.864   4.683
  151SAPE  C31716731   5.087   0.990   4.730
  151SAPE  H17X16732   5.022   1.056   4.792
  151SAPE  H17Y16733   5.083   1.029   4.626
  151SAPE  C31816734   5.238   0.992   4.768
  151SAPE  H18X16735   5.278   1.096   4.760
  151SAPE  H18Y16736   5.296   0.921   4.706
  151SAPE  H18Z16737   5.254   0.957   4.872
  152SAPE     N16738   0.344   1.535   6.623
  152SAPE   HN116739   0.302   1.485   6.704
  152SAPE   HN216740   0.304   1.631   6.623
  152SAPE   HN316741   0.307   1.484   6.541
  152SAPE   C1216742   0.490   1.553   6.629
  152SAPE  H12A16743   0.535   1.529   6.531
  152SAPE  H12B16744   0.530   1.472   6.694
  152SAPE   C1116745   0.526   1.682   6.696
  152SAPE  H11A16746   0.635   1.677   6.671
  152SAPE  H11B16747   0.515   1.673   6.806
  152SAPE     P16748   0.528   1.916   6.577
  152SAPE   O1316749   0.468   2.037   6.628
  152SAPE   O1416750   0.674   1.905   6.591
  152SAPE   O1216751   0.459   1.794   6.642
  152SAPE   O1116752   0.493   1.907   6.420
  152SAPE    C116753   0.408   2.011   6.366
  152SAPE    HA16754   0.430   2.116   6.396
  152SAPE    HB16755   0.420   1.998   6.256
  152SAPE    C216756   0.253   1.971   6.393
  152SAPE    HS16757   0.255   1.933   6.497
  152SAPE   O2116758   0.221   1.871   6.294
  152SAPE   C2116759   0.203   1.744   6.342
  152SAPE   O2216760   0.169   1.726   6.457
  152SAPE   C2216761   0.221   1.639   6.232
  152SAPE   H2R16762   0.262   1.543   6.271
  152SAPE   H2S16763   0.117   1.618   6.199
  152SAPE    C316764   0.147   2.086   6.375
  152SAPE    HX16765   0.160   2.159   6.458
  152SAPE    HY16766   0.047   2.043   6.397
  152SAPE   O3116767   0.149   2.146   6.242
  152SAPE   C3116768   0.210   2.262   6.233
  152SAPE   O3216769   0.240   2.339   6.324
  152SAPE   C3216770   0.226   2.291   6.086
  152SAPE   H2X16771   0.121   2.317   6.061
  152SAPE   H2Y16772   0.256   2.196   6.037
  152SAPE   C2316773   0.304   1.673   6.110
  152SAPE   H3R16774   0.412   1.656   6.132
  152SAPE   H3S16775   0.300   1.779   6.078
  152SAPE   C2416776   0.275   1.583   5.982
  152SAPE   H4R16777   0.180   1.620   5.938
  152SAPE   H4S16778   0.249   1.484   6.024
  152SAPE   C2516779   0.379   1.578   5.873
  152SAPE   H5R16780   0.478   1.547   5.910
  152SAPE   C2616781   0.357   1.563   5.747
  152SAPE   H6R16782   0.445   1.548   5.682
  152SAPE   C2716783   0.236   1.584   5.667
  152SAPE   H7R16784   0.143   1.582   5.729
  152SAPE   H7S16785   0.212   1.506   5.592
  152SAPE   C2816786   0.263   1.720   5.605
  152SAPE   H8R16787   0.277   1.807   5.672
  152SAPE   C2916788   0.272   1.746   5.474
  152SAPE   H9R16789   0.284   1.849   5.438
  152SAPE  C21016790   0.259   1.632   5.373
  152SAPE  H10R16791   0.164   1.577   5.394
  152SAPE  H10S16792   0.347   1.567   5.391
  152SAPE  C21116793   0.253   1.665   5.226
  152SAPE  H11R16794   0.342   1.711   5.182
  152SAPE  C21216795   0.147   1.641   5.150
  152SAPE  H12R16796   0.154   1.674   5.045
  152SAPE  C21316797   0.017   1.579   5.189
  152SAPE  H13R16798   6.854   1.626   5.280
  152SAPE  H13S16799   0.020   1.471   5.217
  152SAPE  C21416800   6.791   1.593   5.084
  152SAPE  H14R16801   6.754   1.695   5.069
  152SAPE  C21516802   6.742   1.493   5.012
  152SAPE  H15R16803   6.665   1.515   4.937
  152SAPE  C21616804   6.778   1.344   5.011
  152SAPE  H16R16805   6.682   1.288   5.011
  152SAPE  H16S16806   6.832   1.315   5.104
  152SAPE  C21716807   6.850   1.280   4.893
  152SAPE  H17R16808   6.823   1.172   4.898
  152SAPE  H17S16809   0.078   1.309   4.901
  152SAPE  C21816810   6.791   1.322   4.754
  152SAPE  H18R16811   6.864   1.280   4.680
  152SAPE  H18S16812   6.790   1.433   4.750
  152SAPE  C21916813   6.644   1.278   4.728
  152SAPE  H19R16814   6.566   1.278   4.807
  152SAPE  H19S16815   6.638   1.176   4.687
  152SAPE  C22016816   6.597   1.377   4.618
  152SAPE  H20R16817   6.491   1.360   4.592
  152SAPE  H20S16818   6.665   1.363   4.531
  152SAPE  H20T16819   6.619   1.483   4.644
  152SAPE   C3316820   0.315   2.410   6.048
  152SAPE   H3X16821   0.421   2.382   6.061
  152SAPE   H3Y16822   0.292   2.501   6.109
  152SAPE   C3416823   0.294   2.440   5.894
  152SAPE   H4X16824   0.327   2.541   5.865
  152SAPE   H4Y16825   0.185   2.425   5.878
  152SAPE   C3516826   0.370   2.339   5.798
  152SAPE   H5X16827   0.342   2.237   5.830
  152SAPE   H5Y16828   0.481   2.346   5.802
  152SAPE   C3616829   0.328   2.356   5.649
  152SAPE   H6X16830   0.226   2.317   5.629
  152SAPE   H6Y16831   0.402   2.297   5.591
  152SAPE   C3716832   0.342   2.496   5.583
  152SAPE   H7X16833   0.437   2.538   5.623
  152SAPE   H7Y16834   0.262   2.565   5.616
  152SAPE   C3816835   0.344   2.501   5.432
  152SAPE   H8X16836   0.257   2.451   5.384
  152SAPE   H8Y16837   0.435   2.441   5.413
  152SAPE   C3916838   0.360   2.644   5.381
  152SAPE   H9X16839   0.427   2.696   5.453
  152SAPE   H9Y16840   0.264   2.693   5.409
  152SAPE  C31016841   0.391   2.658   5.239
  152SAPE  H10X16842   0.315   2.600   5.182
  152SAPE  H10Y16843   0.493   2.619   5.218
  152SAPE  C31116844   0.381   2.805   5.192
  152SAPE  H11X16845   0.470   2.862   5.227
  152SAPE  H11Y16846   0.288   2.846   5.236
  152SAPE  C31216847   0.393   2.819   5.036
  152SAPE  H12X16848   0.305   2.766   4.992
  152SAPE  H12Y16849   0.491   2.779   5.004
  152SAPE  C31316850   0.377   2.956   4.988
  152SAPE  H13X16851   0.469   3.019   4.994
  152SAPE  H13Y16852   0.305   3.000   5.060
  152SAPE  C31416853   0.326   2.957   4.840
  152SAPE  H14X16854   0.224   2.913   4.844
  152SAPE  H14Y16855   0.388   2.885   4.781
  152SAPE  C31516856   0.323   3.101   4.793
  152SAPE  H15X16857   0.411   3.151   4.838
  152SAPE  H15Y16858   0.230   3.140   4.840
  152SAPE  C31616859   0.329   3.115   4.642
  152SAPE  H16X16860   0.347   3.222   4.618
  152SAPE  H16Y16861   0.240   3.073   4.590
  152SAPE  C31716862   0.438   3.025   4.575
  152SAPE  H17X16863   0.398   2.921   4.576
  152SAPE  H17Y16864   0.533   3.027   4.632
  152SAPE  C31816865   0.462   3.078   4.433
  152SAPE  H18X16866   0.360   3.082   4.388
  152SAPE  H18Y16867   0.515   3.001   4.373
  152SAPE  H18Z16868   0.501   3.182   4.440
  153SAPE     N16869   6.633   1.931   6.797
  153SAPE   HN116870   6.731   1.898   6.785
  153SAPE   HN216871   6.644   2.021   6.746
  153SAPE   HN316872   6.615   1.956   6.896
  153SAPE   C1216873   6.522   1.852   6.731
  153SAPE  H12A16874   6.564   1.766   6.676
  153SAPE  H12B16875   6.474   1.925   6.663
  153SAPE   C1116876   6.411   1.813   6.834
  153SAPE  H11A16877   6.329   1.753   6.790
  153SAPE  H11B16878   6.348   1.898   6.867
  153SAPE     P16879   6.496   1.612   6.990
  153SAPE   O1316880   6.648   1.607   6.994
  153SAPE   O1416881   6.423   1.557   7.103
  153SAPE   O1216882   6.458   1.763   6.961
  153SAPE   O1116883   6.451   1.537   6.861
  153SAPE    C116884   6.499   1.419   6.810
  153SAPE    HA16885   6.601   1.437   6.770
  153SAPE    HB16886   6.499   1.339   6.887
  153SAPE    C216887   6.423   1.372   6.679
  153SAPE    HS16888   6.480   1.288   6.635
  153SAPE   O2116889   6.409   1.477   6.582
  153SAPE   C2116890   6.422   1.435   6.457
  153SAPE   O2216891   6.459   1.322   6.434
  153SAPE   C2216892   6.417   1.556   6.366
  153SAPE   H2R16893   6.320   1.609   6.379
  153SAPE   H2S16894   6.514   1.606   6.384
  153SAPE    C316895   6.280   1.332   6.726
  153SAPE    HX16896   6.234   1.432   6.745
  153SAPE    HY16897   6.302   1.270   6.815
  153SAPE   O3116898   6.193   1.272   6.631
  153SAPE   C3116899   6.228   1.142   6.602
  153SAPE   O3216900   6.295   1.066   6.674
  153SAPE   C3216901   6.175   1.108   6.463
  153SAPE   H2X16902   6.158   1.196   6.397
  153SAPE   H2Y16903   6.081   1.049   6.472
  153SAPE   C2316904   6.407   1.500   6.222
  153SAPE   H3R16905   6.466   1.407   6.203
  153SAPE   H3S16906   6.456   1.578   6.161
  153SAPE   C2416907   6.265   1.469   6.173
  153SAPE   H4R16908   6.217   1.405   6.249
  153SAPE   H4S16909   6.279   1.395   6.091
  153SAPE   C2516910   6.178   1.586   6.141
  153SAPE   H5R16911   6.120   1.627   6.226
  153SAPE   C2616912   6.157   1.642   6.018
  153SAPE   H6R16913   6.064   1.701   6.020
  153SAPE   C2716914   6.231   1.614   5.889
  153SAPE   H7R16915   6.158   1.612   5.806
  153SAPE   H7S16916   6.276   1.512   5.898
  153SAPE   C2816917   6.347   1.707   5.861
  153SAPE   H8R16918   6.375   1.765   5.949
  153SAPE   C2916919   6.397   1.729   5.738
  153SAPE   H9R16920   6.477   1.803   5.727
  153SAPE  C21016921   6.356   1.655   5.615
  153SAPE  H10R16922   6.300   1.561   5.638
  153SAPE  H10S16923   6.442   1.617   5.556
  153SAPE  C21116924   6.260   1.747   5.544
  153SAPE  H11R16925   6.169   1.772   5.602
  153SAPE  C21216926   6.268   1.797   5.417
  153SAPE  H12R16927   6.189   1.863   5.378
  153SAPE  C21316928   6.388   1.782   5.326
  153SAPE  H13R16929   6.381   1.687   5.268
  153SAPE  H13S16930   6.476   1.769   5.392
  153SAPE  C21416931   6.422   1.901   5.237
  153SAPE  H14R16932   6.480   1.977   5.291
  153SAPE  C21516933   6.376   1.908   5.115
  153SAPE  H15R16934   6.399   1.999   5.057
  153SAPE  C21616935   6.293   1.807   5.043
  153SAPE  H16R16936   6.204   1.864   5.010
  153SAPE  H16S16937   6.259   1.719   5.101
  153SAPE  C21716938   6.361   1.740   4.919
  153SAPE  H17R16939   6.439   1.668   4.951
  153SAPE  H17S16940   6.411   1.817   4.855
  153SAPE  C21816941   6.262   1.663   4.838
  153SAPE  H18R16942   6.189   1.612   4.904
  153SAPE  H18S16943   6.317   1.580   4.789
  153SAPE  C21916944   6.193   1.733   4.728
  153SAPE  H19R16945   6.258   1.773   4.647
  153SAPE  H19S16946   6.146   1.821   4.776
  153SAPE  C22016947   6.094   1.648   4.658
  153SAPE  H20R16948   6.023   1.702   4.592
  153SAPE  H20S16949   6.039   1.580   4.727
  153SAPE  H20T16950   6.143   1.566   4.600
  153SAPE   C3316951   6.269   1.010   6.382
  153SAPE   H3X16952   6.303   0.931   6.452
  153SAPE   H3Y16953   6.361   1.063   6.350
  153SAPE   C3416954   6.199   0.950   6.261
  153SAPE   H4X16955   6.194   1.029   6.184
  153SAPE   H4Y16956   6.095   0.916   6.279
  153SAPE   C3516957   6.272   0.839   6.185
  153SAPE   H5X16958   6.286   0.755   6.256
  153SAPE   H5Y16959   6.372   0.882   6.163
  153SAPE   C3616960   6.203   0.786   6.057
  153SAPE   H6X16961   6.136   0.867   6.022
  153SAPE   H6Y16962   6.138   0.700   6.082
  153SAPE   C3716963   6.300   0.748   5.953
  153SAPE   H7X16964   6.376   0.687   6.006
  153SAPE   H7Y16965   6.344   0.842   5.913
  153SAPE   C3816966   6.245   0.665   5.831
  153SAPE   H8X16967   6.204   0.567   5.866
  153SAPE   H8Y16968   6.332   0.649   5.764
  153SAPE   C3916969   6.150   0.742   5.739
  153SAPE   H9X16970   6.205   0.789   5.654
  153SAPE   H9Y16971   6.086   0.814   5.794
  153SAPE  C31016972   6.047   0.655   5.660
  153SAPE  H10X16973   5.964   0.620   5.724
  153SAPE  H10Y16974   6.102   0.564   5.626
  153SAPE  C31116975   5.986   0.744   5.551
  153SAPE  H11X16976   6.074   0.792   5.503
  153SAPE  H11Y16977   5.921   0.823   5.594
  153SAPE  C31216978   5.895   0.664   5.453
  153SAPE  H12X16979   5.829   0.739   5.405
  153SAPE  H12Y16980   5.833   0.582   5.496
  153SAPE  C31316981   5.991   0.601   5.350
  153SAPE  H13X16982   6.069   0.547   5.408
  153SAPE  H13Y16983   6.029   0.688   5.291
  153SAPE  C31416984   5.908   0.503   5.266
  153SAPE  H14X16985   5.827   0.562   5.218
  153SAPE  H14Y16986   5.870   0.416   5.324
  153SAPE  C31516987   5.982   0.445   5.143
  153SAPE  H15X16988   5.990   0.528   5.070
  153SAPE  H15Y16989   5.922   0.360   5.103
  153SAPE  C31616990   6.125   0.385   5.159
  153SAPE  H16X16991   6.118   0.297   5.226
  153SAPE  H16Y16992   6.191   0.459   5.209
  153SAPE  C31716993   6.198   0.345   5.032
  153SAPE  H17X16994   6.218   0.431   4.964
  153SAPE  H17Y16995   6.121   0.294   4.969
  153SAPE  C31816996   6.328   0.263   5.046
  153SAPE  H18X16997   6.305   0.176   5.110
  153SAPE  H18Y16998   6.416   0.307   5.097
  153SAPE  H18Z16999   6.367   0.217   4.953
  154SAPE     N17000   4.145   1.090   6.454
  154SAPE   HN117001   4.148   1.148   6.540
  154SAPE   HN217002   4.154   0.990   6.481
  154SAPE   HN317003   4.231   1.109   6.399
  154SAPE   C1217004   4.009   1.114   6.387
  154SAPE  H12A17005   4.016   1.070   6.285
  154SAPE  H12B17006   3.997   1.223   6.370
  154SAPE   C1117007   3.893   1.062   6.469
  154SAPE  H11A17008   3.796   1.097   6.426
  154SAPE  H11B17009   3.906   1.094   6.575
  154SAPE     P17010   3.797   0.837   6.538
  154SAPE   O1317011   3.878   0.759   6.638
  154SAPE   O1417012   3.693   0.925   6.597
  154SAPE   O1217013   3.892   0.921   6.447
  154SAPE   O1117014   3.723   0.741   6.437
  154SAPE    C117015   3.724   0.762   6.296
  154SAPE    HA17016   3.807   0.823   6.254
  154SAPE    HB17017   3.739   0.663   6.247
  154SAPE    C217018   3.591   0.813   6.243
  154SAPE    HS17019   3.524   0.759   6.312
  154SAPE   O2117020   3.559   0.772   6.109
  154SAPE   C2117021   3.424   0.762   6.081
  154SAPE   O2217022   3.333   0.784   6.156
  154SAPE   C2217023   3.421   0.730   5.925
  154SAPE   H2R17024   3.448   0.831   5.886
  154SAPE   H2S17025   3.498   0.657   5.896
  154SAPE    C317026   3.567   0.965   6.265
  154SAPE    HX17027   3.575   0.978   6.375
  154SAPE    HY17028   3.459   0.972   6.239
  154SAPE   O3117029   3.661   1.046   6.190
  154SAPE   C3117030   3.622   1.175   6.183
  154SAPE   O3217031   3.520   1.213   6.237
  154SAPE   C3217032   3.713   1.247   6.090
  154SAPE   H2X17033   3.727   1.191   5.995
  154SAPE   H2Y17034   3.811   1.257   6.142
  154SAPE   C2317035   3.283   0.697   5.864
  154SAPE   H3R17036   3.283   0.741   5.762
  154SAPE   H3S17037   3.195   0.735   5.921
  154SAPE   C2417038   3.268   0.543   5.840
  154SAPE   H4R17039   3.356   0.525   5.775
  154SAPE   H4S17040   3.175   0.528   5.781
  154SAPE   C2517041   3.263   0.466   5.967
  154SAPE   H5R17042   3.177   0.495   6.030
  154SAPE   C2617043   3.351   0.368   6.012
  154SAPE   H6R17044   3.333   0.337   6.116
  154SAPE   C2717045   3.471   0.321   5.938
  154SAPE   H7R17046   3.560   0.383   5.960
  154SAPE   H7S17047   3.461   0.340   5.829
  154SAPE   C2817048   3.504   0.175   5.953
  154SAPE   H8R17049   3.427   0.113   6.002
  154SAPE   C2917050   3.605   0.114   5.891
  154SAPE   H9R17051   3.614   0.006   5.906
  154SAPE  C21017052   3.712   0.180   5.809
  154SAPE  H10R17053   3.691   0.286   5.782
  154SAPE  H10S17054   3.729   0.141   5.706
  154SAPE  C21117055   3.840   0.174   5.893
  154SAPE  H11R17056   3.821   0.185   6.001
  154SAPE  C21217057   3.956   0.130   5.844
  154SAPE  H12R17058   4.045   0.130   5.908
  154SAPE  C21317059   3.971   0.084   5.697
  154SAPE  H13R17060   3.938   0.167   5.630
  154SAPE  H13S17061   3.897   0.001   5.691
  154SAPE  C21417062   4.112   0.039   5.674
  154SAPE  H14R17063   4.193   0.070   5.742
  154SAPE  C21517064   4.153   6.819   5.605
  154SAPE  H15R17065   4.262   6.803   5.604
  154SAPE  C21617066   4.071   6.730   5.520
  154SAPE  H16R17067   3.986   6.786   5.474
  154SAPE  H16S17068   4.029   6.642   5.574
  154SAPE  C21717069   4.137   6.658   5.405
  154SAPE  H17R17070   4.073   6.584   5.354
  154SAPE  H17S17071   4.221   6.607   5.456
  154SAPE  C21817072   4.194   6.756   5.304
  154SAPE  H18R17073   4.264   6.695   5.242
  154SAPE  H18S17074   4.266   6.828   5.349
  154SAPE  C21917075   4.087   6.822   5.213
  154SAPE  H19R17076   4.019   0.004   5.277
  154SAPE  H19S17077   4.031   6.749   5.150
  154SAPE  C22017078   4.164   0.031   5.117
  154SAPE  H20R17079   4.208   6.838   5.045
  154SAPE  H20S17080   4.246   0.086   5.170
  154SAPE  H20T17081   4.099   0.094   5.054
  154SAPE   C3317082   3.679   1.392   6.047
  154SAPE   H3X17083   3.747   1.435   5.972
  154SAPE   H3Y17084   3.661   1.455   6.138
  154SAPE   C3417085   3.546   1.405   5.965
  154SAPE   H4X17086   3.464   1.371   6.031
  154SAPE   H4Y17087   3.549   1.323   5.889
  154SAPE   C3517088   3.516   1.534   5.895
  154SAPE   H5X17089   3.522   1.618   5.968
  154SAPE   H5Y17090   3.413   1.527   5.853
  154SAPE   C3617091   3.614   1.566   5.779
  154SAPE   H6X17092   3.722   1.568   5.807
  154SAPE   H6Y17093   3.579   1.665   5.744
  154SAPE   C3717094   3.605   1.465   5.663
  154SAPE   H7X17095   3.497   1.439   5.651
  154SAPE   H7Y17096   3.664   1.372   5.676
  154SAPE   C3817097   3.648   1.531   5.533
  154SAPE   H8X17098   3.740   1.592   5.547
  154SAPE   H8Y17099   3.571   1.602   5.495
  154SAPE   C3917100   3.682   1.420   5.429
  154SAPE   H9X17101   3.596   1.350   5.435
  154SAPE   H9Y17102   3.775   1.370   5.463
  154SAPE  C31017103   3.682   1.476   5.282
  154SAPE  H10X17104   3.768   1.544   5.263
  154SAPE  H10Y17105   3.584   1.523   5.260
  154SAPE  C31117106   3.688   1.363   5.179
  154SAPE  H11X17107   3.606   1.295   5.210
  154SAPE  H11Y17108   3.776   1.296   5.187
  154SAPE  C31217109   3.661   1.400   5.034
  154SAPE  H12X17110   3.726   1.488   5.015
  154SAPE  H12Y17111   3.555   1.432   5.017
  154SAPE  C31317112   3.702   1.301   4.930
  154SAPE  H13X17113   3.622   1.223   4.921
  154SAPE  H13Y17114   3.799   1.252   4.955
  154SAPE  C31417115   3.720   1.368   4.787
  154SAPE  H14X17116   3.803   1.443   4.792
  154SAPE  H14Y17117   3.627   1.423   4.763
  154SAPE  C31517118   3.758   1.262   4.683
  154SAPE  H15X17119   3.687   1.179   4.702
  154SAPE  H15Y17120   3.857   1.215   4.706
  154SAPE  C31617121   3.752   1.315   4.539
  154SAPE  H16X17122   3.831   1.393   4.533
  154SAPE  H16Y17123   3.657   1.365   4.513
  154SAPE  C31717124   3.799   1.213   4.440
  154SAPE  H17X17125   3.736   1.121   4.449
  154SAPE  H17Y17126   3.901   1.186   4.474
  154SAPE  C31817127   3.804   1.261   4.298
  154SAPE  H18X17128   3.878   1.343   4.293
  154SAPE  H18Y17129   3.701   1.297   4.280
  154SAPE  H18Z17130   3.825   1.184   4.220
  155SAPE     N17131   5.909   6.221   7.023
  155SAPE   HN117132   5.882   6.173   7.111
  155SAPE   HN217133   5.822   6.258   6.978
  155SAPE   HN317134   5.951   6.148   6.962
  155SAPE   C1217135   5.996   6.343   7.053
  155SAPE  H12A17136   6.078   6.307   7.117
  155SAPE  H12B17137   5.939   6.419   7.111
  155SAPE   C1117138   6.051   6.389   6.914
  155SAPE  H11A17139   6.123   6.471   6.933
  155SAPE  H11B17140   5.969   6.440   6.859
  155SAPE     P17141   6.158   6.307   6.687
  155SAPE   O1317142   6.219   6.447   6.666
  155SAPE   O1417143   6.243   6.197   6.647
  155SAPE   O1217144   6.114   6.283   6.838
  155SAPE   O1117145   6.014   6.308   6.612
  155SAPE    C117146   5.961   6.185   6.564
  155SAPE    HA17147   5.986   6.091   6.618
  155SAPE    HB17148   5.851   6.201   6.561
  155SAPE    C217149   5.993   6.141   6.411
  155SAPE    HS17150   6.104   6.138   6.411
  155SAPE   O2117151   5.939   6.246   6.324
  155SAPE   C2117152   6.007   6.247   6.206
  155SAPE   O2217153   6.110   6.190   6.185
  155SAPE   C2217154   5.942   6.348   6.107
  155SAPE   H2R17155   5.836   6.361   6.139
  155SAPE   H2S17156   6.009   6.434   6.126
  155SAPE    C317157   5.934   6.006   6.379
  155SAPE    HX17158   5.826   6.028   6.397
  155SAPE    HY17159   5.969   5.922   6.443
  155SAPE   O3117160   5.934   5.974   6.236
  155SAPE   C3117161   6.035   5.893   6.202
  155SAPE   O3217162   6.106   5.835   6.279
  155SAPE   C3217163   6.043   5.884   6.050
  155SAPE   H2X17164   6.144   5.927   6.030
  155SAPE   H2Y17165   5.966   5.953   6.009
  155SAPE   C2317166   5.954   6.293   5.958
  155SAPE   H3R17167   6.027   6.211   5.945
  155SAPE   H3S17168   5.973   6.374   5.884
  155SAPE   C2417169   5.825   6.223   5.911
  155SAPE   H4R17170   5.816   6.130   5.971
  155SAPE   H4S17171   5.848   6.176   5.813
  155SAPE   C2517172   5.692   6.289   5.903
  155SAPE   H5R17173   5.627   6.272   5.991
  155SAPE   C2617174   5.651   6.356   5.795
  155SAPE   H6R17175   5.557   6.411   5.816
  155SAPE   C2717176   5.723   6.387   5.664
  155SAPE   H7R17177   5.829   6.357   5.675
  155SAPE   H7S17178   5.718   6.496   5.646
  155SAPE   C2817179   5.661   6.310   5.542
  155SAPE   H8R17180   5.671   6.200   5.539
  155SAPE   C2917181   5.596   6.366   5.434
  155SAPE   H9R17182   5.567   6.297   5.354
  155SAPE  C21017183   5.567   6.511   5.409
  155SAPE  H10R17184   5.592   6.573   5.498
  155SAPE  H10S17185   5.460   6.519   5.382
  155SAPE  C21117186   5.649   6.558   5.285
  155SAPE  H11R17187   5.739   6.621   5.296
  155SAPE  C21217188   5.615   6.538   5.158
  155SAPE  H12R17189   5.670   6.597   5.083
  155SAPE  C21317190   5.506   6.446   5.107
  155SAPE  H13R17191   5.462   6.388   5.191
  155SAPE  H13S17192   5.553   6.370   5.041
  155SAPE  C21417193   5.395   6.523   5.043
  155SAPE  H14R17194   5.393   6.625   5.083
  155SAPE  C21517195   5.308   6.478   4.955
  155SAPE  H15R17196   5.231   6.550   4.922
  155SAPE  C21617197   5.299   6.332   4.919
  155SAPE  H16R17198   5.194   6.301   4.898
  155SAPE  H16S17199   5.334   6.276   5.008
  155SAPE  C21717200   5.382   6.299   4.799
  155SAPE  H17R17201   5.369   6.189   4.794
  155SAPE  H17S17202   5.489   6.303   4.827
  155SAPE  C21817203   5.345   6.371   4.668
  155SAPE  H18R17204   5.415   6.332   4.591
  155SAPE  H18S17205   5.372   6.478   4.682
  155SAPE  C21917206   5.202   6.360   4.627
  155SAPE  H19R17207   5.124   6.357   4.707
  155SAPE  H19S17208   5.174   6.266   4.575
  155SAPE  C22017209   5.153   6.474   4.537
  155SAPE  H20R17210   5.147   6.571   4.592
  155SAPE  H20S17211   5.050   6.457   4.499
  155SAPE  H20T17212   5.216   6.492   4.448
  155SAPE   C3317213   6.015   5.740   6.003
  155SAPE   H3X17214   5.926   5.699   6.055
  155SAPE   H3Y17215   6.100   5.674   6.030
  155SAPE   C3417216   5.996   5.739   5.852
  155SAPE   H4X17217   6.015   5.640   5.803
  155SAPE   H4Y17218   6.074   5.807   5.812
  155SAPE   C3517219   5.851   5.783   5.809
  155SAPE   H5X17220   5.822   5.864   5.880
  155SAPE   H5Y17221   5.779   5.700   5.824
  155SAPE   C3617222   5.840   5.833   5.668
  155SAPE   H6X17223   5.940   5.871   5.637
  155SAPE   H6Y17224   5.761   5.908   5.651
  155SAPE   C3717225   5.790   5.711   5.581
  155SAPE   H7X17226   5.704   5.672   5.640
  155SAPE   H7Y17227   5.868   5.635   5.562
  155SAPE   C3817228   5.729   5.743   5.438
  155SAPE   H8X17229   5.630   5.791   5.452
  155SAPE   H8Y17230   5.712   5.643   5.393
  155SAPE   C3917231   5.823   5.822   5.350
  155SAPE   H9X17232   5.911   5.755   5.336
  155SAPE   H9Y17233   5.864   5.915   5.396
  155SAPE  C31017234   5.770   5.862   5.213
  155SAPE  H10X17235   5.695   5.939   5.242
  155SAPE  H10Y17236   5.728   5.772   5.165
  155SAPE  C31117237   5.868   5.939   5.120
  155SAPE  H11X17238   5.935   5.869   5.066
  155SAPE  H11Y17239   5.934   6.014   5.168
  155SAPE  C31217240   5.787   6.018   5.008
  155SAPE  H12X17241   5.860   6.077   4.948
  155SAPE  H12Y17242   5.734   6.097   5.065
  155SAPE  C31317243   5.695   5.933   4.918
  155SAPE  H13X17244   5.592   5.925   4.961
  155SAPE  H13Y17245   5.732   5.829   4.913
  155SAPE  C31417246   5.680   5.995   4.774
  155SAPE  H14X17247   5.784   5.993   4.735
  155SAPE  H14Y17248   5.654   6.103   4.783
  155SAPE  C31517249   5.588   5.909   4.692
  155SAPE  H15X17250   5.494   5.900   4.751
  155SAPE  H15Y17251   5.640   5.811   4.688
  155SAPE  C31617252   5.567   5.945   4.538
  155SAPE  H16X17253   5.512   5.857   4.498
  155SAPE  H16Y17254   5.670   5.944   4.495
  155SAPE  C31717255   5.492   6.077   4.518
  155SAPE  H17X17256   5.539   6.172   4.552
  155SAPE  H17Y17257   5.402   6.069   4.583
  155SAPE  C31817258   5.455   6.104   4.373
  155SAPE  H18X17259   5.399   6.195   4.343
  155SAPE  H18Y17260   5.396   6.019   4.332
  155SAPE  H18Z17261   5.553   6.105   4.321
  156SAPE     N17262   0.320   0.567   6.653
  156SAPE   HN117263   0.355   0.473   6.627
  156SAPE   HN217264   0.232   0.539   6.701
  156SAPE   HN317265   0.283   0.622   6.573
  156SAPE   C1217266   0.422   0.646   6.729
  156SAPE  H12A17267   0.463   0.577   6.807
  156SAPE  H12B17268   0.370   0.721   6.792
  156SAPE   C1117269   0.538   0.699   6.635
  156SAPE  H11A17270   0.611   0.755   6.697
  156SAPE  H11B17271   0.482   0.774   6.575
  156SAPE     P17272   0.715   0.662   6.446
  156SAPE   O1317273   0.795   0.772   6.505
  156SAPE   O1417274   0.795   0.557   6.382
  156SAPE   O1217275   0.614   0.600   6.557
  156SAPE   O1117276   0.622   0.723   6.338
  156SAPE    C117277   0.501   0.666   6.292
  156SAPE    HA17278   0.469   0.581   6.355
  156SAPE    HB17279   0.422   0.744   6.291
  156SAPE    C217280   0.516   0.617   6.147
  156SAPE    HS17281   0.601   0.545   6.152
  156SAPE   O2117282   0.543   0.734   6.057
  156SAPE   C2117283   0.661   0.734   5.998
  156SAPE   O2217284   0.755   0.655   6.017
  156SAPE   C2217285   0.668   0.851   5.899
  156SAPE   H2R17286   0.576   0.913   5.899
  156SAPE   H2S17287   0.754   0.899   5.950
  156SAPE    C317288   0.395   0.543   6.089
  156SAPE    HX17289   0.304   0.606   6.081
  156SAPE    HY17290   0.379   0.468   6.169
  156SAPE   O3117291   0.421   0.476   5.957
  156SAPE   C3117292   0.336   0.374   5.939
  156SAPE   O3217293   0.239   0.349   6.009
  156SAPE   C3217294   0.370   0.313   5.801
  156SAPE   H2X17295   0.330   0.209   5.801
  156SAPE   H2Y17296   0.480   0.299   5.797
  156SAPE   C2317297   0.701   0.804   5.761
  156SAPE   H3R17298   0.805   0.765   5.761
  156SAPE   H3S17299   0.698   0.891   5.691
  156SAPE   C2417300   0.596   0.714   5.692
  156SAPE   H4R17301   0.511   0.781   5.668
  156SAPE   H4S17302   0.558   0.640   5.766
  156SAPE   C2517303   0.635   0.639   5.570
  156SAPE   H5R17304   0.716   0.567   5.586
  156SAPE   C2617305   0.581   0.649   5.452
  156SAPE   H6R17306   0.629   0.592   5.371
  156SAPE   C2717307   0.456   0.726   5.412
  156SAPE   H7R17308   0.430   0.804   5.488
  156SAPE   H7S17309   0.365   0.662   5.411
  156SAPE   C2817310   0.468   0.789   5.271
  156SAPE   H8R17311   0.504   0.893   5.277
  156SAPE   C2917312   0.421   0.731   5.157
  156SAPE   H9R17313   0.433   0.795   5.068
  156SAPE  C21017314   0.377   0.587   5.153
  156SAPE  H10R17315   0.397   0.528   5.245
  156SAPE  H10S17316   0.434   0.531   5.076
  156SAPE  C21117317   0.229   0.584   5.135
  156SAPE  H11R17318   0.181   0.540   5.223
  156SAPE  C21217319   0.149   0.607   5.034
  156SAPE  H12R17320   0.041   0.617   5.049
  156SAPE  C21317321   0.199   0.665   4.909
  156SAPE  H13R17322   0.132   0.630   4.827
  156SAPE  H13S17323   0.304   0.632   4.892
  156SAPE  C21417324   0.196   0.818   4.914
  156SAPE  H14R17325   0.250   0.876   4.990
  156SAPE  C21517326   0.120   0.900   4.835
  156SAPE  H15R17327   0.129   1.006   4.865
  156SAPE  C21617328   0.039   0.865   4.717
  156SAPE  H16R17329   0.040   0.755   4.702
  156SAPE  H16S17330   0.089   0.924   4.637
  156SAPE  C21717331   6.770   0.907   4.737
  156SAPE  H17R17332   6.723   0.888   4.639
  156SAPE  H17S17333   6.766   1.018   4.747
  156SAPE  C21817334   6.684   0.838   4.849
  156SAPE  H18R17335   6.743   0.831   4.942
  156SAPE  H18S17336   6.661   0.738   4.806
  156SAPE  C21917337   6.557   0.913   4.873
  156SAPE  H19R17338   6.506   0.949   4.781
  156SAPE  H19S17339   6.594   1.004   4.926
  156SAPE  C22017340   6.447   0.835   4.958
  156SAPE  H20R17341   6.353   0.893   4.966
  156SAPE  H20S17342   6.486   0.825   5.061
  156SAPE  H20T17343   6.404   0.742   4.915
  156SAPE   C3317344   0.306   0.378   5.680
  156SAPE   H3X17345   0.350   0.318   5.598
  156SAPE   H3Y17346   0.349   0.480   5.674
  156SAPE   C3417347   0.150   0.380   5.675
  156SAPE   H4X17348   0.126   0.470   5.736
  156SAPE   H4Y17349   0.111   0.288   5.724
  156SAPE   C3517350   0.111   0.398   5.534
  156SAPE   H5X17351   0.163   0.320   5.474
  156SAPE   H5Y17352   0.154   0.497   5.510
  156SAPE   C3617353   6.839   0.377   5.516
  156SAPE   H6X17354   6.784   0.449   5.581
  156SAPE   H6Y17355   6.799   0.278   5.547
  156SAPE   C3717356   6.795   0.387   5.364
  156SAPE   H7X17357   6.871   0.451   5.314
  156SAPE   H7Y17358   6.697   0.439   5.357
  156SAPE   C3817359   6.778   0.254   5.293
  156SAPE   H8X17360   6.715   0.192   5.360
  156SAPE   H8Y17361   6.874   0.199   5.284
  156SAPE   C3917362   6.706   0.264   5.156
  156SAPE   H9X17363   6.626   0.340   5.161
  156SAPE   H9Y17364   6.658   0.165   5.141
  156SAPE  C31017365   6.794   0.294   5.032
  156SAPE  H10X17366   6.876   0.220   5.024
  156SAPE  H10Y17367   6.858   0.383   5.046
  156SAPE  C31117368   6.717   0.329   4.910
  156SAPE  H11X17369   6.644   0.411   4.926
  156SAPE  H11Y17370   6.659   0.240   4.877
  156SAPE  C31217371   6.801   0.347   4.782
  156SAPE  H12X17372   6.866   0.257   4.779
  156SAPE  H12Y17373   6.874   0.430   4.796
  156SAPE  C31317374   6.723   0.366   4.649
  156SAPE  H13X17375   6.637   0.436   4.659
  156SAPE  H13Y17376   6.695   0.268   4.605
  156SAPE  C31417377   6.809   0.417   4.528
  156SAPE  H14X17378   6.770   0.371   4.435
  156SAPE  H14Y17379   0.036   0.385   4.531
  156SAPE  C31517380   6.790   0.559   4.505
  156SAPE  H15X17381   6.865   0.621   4.560
  156SAPE  H15Y17382   6.685   0.585   4.530
  156SAPE  C31617383   6.820   0.599   4.360
  156SAPE  H16X17384   6.766   0.534   4.287
  156SAPE  H16Y17385   0.049   0.592   4.337
  156SAPE  C31717386   6.771   0.737   4.315
  156SAPE  H17X17387   6.826   0.816   4.370
  156SAPE  H17Y17388   6.662   0.745   4.335
  156SAPE  C31817389   6.791   0.757   4.168
  156SAPE  H18X17390   6.758   0.671   4.106
  156SAPE  H18Y17391   0.018   0.784   4.148
  156SAPE  H18Z17392   6.732   0.842   4.127
  157SAPE     N17393   0.763   5.928   6.764
  157SAPE   HN117394   0.703   5.900   6.844
  157SAPE   HN217395   0.834   5.853   6.754
  157SAPE   HN317396   0.810   6.018   6.785
  157SAPE   C1217397   0.673   5.937   6.643
  157SAPE  H12A17398   0.578   5.990   6.662
  157SAPE  H12B17399   0.638   5.834   6.622
  157SAPE   C1117400   0.755   5.986   6.527
  157SAPE  H11A17401   0.684   5.986   6.441
  157SAPE  H11B17402   0.834   5.916   6.493
  157SAPE     P17403   0.771   6.246   6.489
  157SAPE   O1317404   0.730   6.350   6.585
  157SAPE   O1417405   0.898   6.284   6.412
  157SAPE   O1217406   0.806   6.115   6.558
  157SAPE   O1117407   0.650   6.216   6.396
  157SAPE    C117408   0.641   6.228   6.256
  157SAPE    HA17409   0.731   6.181   6.212
  157SAPE    HB17410   0.553   6.166   6.227
  157SAPE    C217411   0.622   6.368   6.209
  157SAPE    HS17412   0.707   6.425   6.252
  157SAPE   O2117413   0.489   6.403   6.248
  157SAPE   C2117414   0.460   6.531   6.276
  157SAPE   O2217415   0.541   6.620   6.278
  157SAPE   C2217416   0.322   6.534   6.331
  157SAPE   H2R17417   0.320   6.484   6.430
  157SAPE   H2S17418   0.287   6.633   6.367
  157SAPE    C317419   0.627   6.380   6.050
  157SAPE    HX17420   0.595   6.480   6.013
  157SAPE    HY17421   0.552   6.313   6.003
  157SAPE   O3117422   0.757   6.342   5.988
  157SAPE   C3117423   0.842   6.447   5.996
  157SAPE   O3217424   0.818   6.549   6.057
  157SAPE   C3217425   0.957   6.428   5.906
  157SAPE   H2X17426   1.034   6.390   5.976
  157SAPE   H2Y17427   0.998   6.526   5.872
  157SAPE   C2317428   0.227   6.454   6.240
  157SAPE   H3R17429   0.138   6.436   6.305
  157SAPE   H3S17430   0.259   6.350   6.215
  157SAPE   C2417431   0.178   6.529   6.110
  157SAPE   H4R17432   0.139   6.627   6.145
  157SAPE   H4S17433   0.082   6.482   6.079
  157SAPE   C2517434   0.264   6.542   5.994
  157SAPE   H5R17435   0.323   6.634   6.000
  157SAPE   C2617436   0.293   6.451   5.898
  157SAPE   H6R17437   0.362   6.488   5.821
  157SAPE   C2717438   0.231   6.314   5.885
  157SAPE   H7R17439   0.179   6.289   5.980
  157SAPE   H7S17440   0.307   6.234   5.868
  157SAPE   C2817441   0.127   6.320   5.776
  157SAPE   H8R17442   0.048   6.395   5.789
  157SAPE   C2917443   0.123   6.263   5.657
  157SAPE   H9R17444   0.044   6.298   5.589
  157SAPE  C21017445   0.229   6.174   5.595
  157SAPE  H10R17446   0.180   6.088   5.544
  157SAPE  H10S17447   0.295   6.121   5.667
  157SAPE  C21117448   0.317   6.253   5.498
  157SAPE  H11R17449   0.385   6.324   5.546
  157SAPE  C21217450   0.303   6.265   5.368
  157SAPE  H12R17451   0.375   6.313   5.300
  157SAPE  C21317452   0.206   6.189   5.281
  157SAPE  H13R17453   0.189   6.247   5.187
  157SAPE  H13S17454   0.104   6.188   5.325
  157SAPE  C21417455   0.246   6.047   5.260
  157SAPE  H14R17456   0.218   5.980   5.342
  157SAPE  C21517457   0.298   5.980   5.152
  157SAPE  H15R17458   0.316   5.872   5.151
  157SAPE  C21617459   0.330   6.041   5.015
  157SAPE  H16R17460   0.416   5.985   4.972
  157SAPE  H16S17461   0.361   6.146   5.034
  157SAPE  C21717462   0.219   6.041   4.909
  157SAPE  H17R17463   0.255   6.083   4.813
  157SAPE  H17S17464   0.144   6.113   4.950
  157SAPE  C21817465   0.146   5.904   4.892
  157SAPE  H18R17466   0.045   5.930   4.854
  157SAPE  H18S17467   0.135   5.839   4.981
  157SAPE  C21917468   0.202   5.820   4.772
  157SAPE  H19R17469   0.151   5.721   4.775
  157SAPE  H19S17470   0.310   5.801   4.786
  157SAPE  C22017471   0.183   5.876   4.631
  157SAPE  H20R17472   0.076   5.893   4.604
  157SAPE  H20S17473   0.237   5.810   4.559
  157SAPE  H20T17474   0.223   5.980   4.631
  157SAPE   C3317475   0.930   6.354   5.776
  157SAPE   H3X17476   0.885   6.257   5.804
  157SAPE   H3Y17477   1.032   6.339   5.735
  157SAPE   C3417478   0.865   6.434   5.657
  157SAPE   H4X17479   0.850   6.366   5.570
  157SAPE   H4Y17480   0.929   6.518   5.622
  157SAPE   C3517481   0.726   6.494   5.687
  157SAPE   H5X17482   0.729   6.567   5.771
  157SAPE   H5Y17483   0.664   6.409   5.722
  157SAPE   C3617484   0.658   6.560   5.572
  157SAPE   H6X17485   0.615   6.493   5.494
  157SAPE   H6Y17486   0.737   6.624   5.526
  157SAPE   C3717487   0.549   6.654   5.616
  157SAPE   H7X17488   0.600   6.729   5.680
  157SAPE   H7Y17489   0.473   6.598   5.675
  157SAPE   C3817490   0.461   6.718   5.507
  157SAPE   H8X17491   0.381   6.781   5.552
  157SAPE   H8Y17492   0.408   6.636   5.454
  157SAPE   C3917493   0.541   6.806   5.408
  157SAPE   H9X17494   0.624   6.747   5.363
  157SAPE   H9Y17495   0.590   0.006   5.468
  157SAPE  C31017496   0.464   6.862   5.293
  157SAPE  H10X17497   0.411   6.778   5.244
  157SAPE  H10Y17498   0.543   0.016   5.223
  157SAPE  C31117499   0.360   0.087   5.328
  157SAPE  H11X17500   0.393   0.172   5.392
  157SAPE  H11Y17501   0.284   0.034   5.389
  157SAPE  C31217502   0.281   0.123   5.197
  157SAPE  H12X17503   0.203   0.201   5.211
  157SAPE  H12Y17504   0.234   0.037   5.146
  157SAPE  C31317505   0.378   0.185   5.085
  157SAPE  H13X17506   0.458   0.119   5.048
  157SAPE  H13Y17507   0.432   0.271   5.131
  157SAPE  C31417508   0.289   0.241   4.968
  157SAPE  H14X17509   0.232   0.333   4.993
  157SAPE  H14Y17510   0.235   0.156   4.920
  157SAPE  C31517511   0.374   0.299   4.854
  157SAPE  H15X17512   0.442   0.218   4.820
  157SAPE  H15Y17513   0.434   0.385   4.892
  157SAPE  C31617514   0.295   0.342   4.733
  157SAPE  H16X17515   0.211   0.403   4.774
  157SAPE  H16Y17516   0.254   0.253   4.680
  157SAPE  C31717517   0.385   0.434   4.641
  157SAPE  H17X17518   0.474   0.379   4.604
  157SAPE  H17Y17519   0.430   0.506   4.712
  157SAPE  C31817520   0.309   0.497   4.525
  157SAPE  H18X17521   0.370   0.563   4.461
  157SAPE  H18Y17522   0.217   0.550   4.558
  157SAPE  H18Z17523   0.276   0.413   4.459
  158SAPE     N17524   2.966   5.241   6.956
  158SAPE   HN117525   2.901   5.279   6.884
  158SAPE   HN217526   3.056   5.290   6.942
  158SAPE   HN317527   2.984   5.139   6.947
  158SAPE   C1217528   2.920   5.281   7.092
  158SAPE  H12A17529   2.965   5.205   7.159
  158SAPE  H12B17530   2.810   5.270   7.084
  158SAPE   C1117531   2.956   5.431   7.125
  158SAPE  H11A17532   3.063   5.436   7.154
  158SAPE  H11B17533   2.900   5.462   7.216
  158SAPE     P17534   3.022   5.591   6.926
  158SAPE   O1317535   3.090   5.692   7.004
  158SAPE   O1417536   3.101   5.483   6.858
  158SAPE   O1217537   2.914   5.519   7.021
  158SAPE   O1117538   2.921   5.646   6.818
  158SAPE    C117539   2.842   5.550   6.746
  158SAPE    HA17540   2.822   5.451   6.794
  158SAPE    HB17541   2.744   5.597   6.726
  158SAPE    C217542   2.896   5.526   6.611
  158SAPE    HS17543   3.002   5.495   6.625
  158SAPE   O2117544   2.877   5.652   6.540
  158SAPE   C2117545   2.989   5.697   6.483
  158SAPE   O2217546   3.094   5.629   6.481
  158SAPE   C2217547   2.965   5.821   6.408
  158SAPE   H2R17548   2.859   5.821   6.377
  158SAPE   H2S17549   2.973   5.913   6.470
  158SAPE    C317550   2.826   5.414   6.530
  158SAPE    HX17551   2.724   5.449   6.503
  158SAPE    HY17552   2.804   5.326   6.595
  158SAPE   O3117553   2.898   5.369   6.405
  158SAPE   C3117554   3.006   5.290   6.438
  158SAPE   O3217555   3.033   5.263   6.552
  158SAPE   C3217556   3.072   5.223   6.316
  158SAPE   H2X17557   2.992   5.199   6.242
  158SAPE   H2Y17558   3.117   5.124   6.339
  158SAPE   C2317559   3.066   5.847   6.289
  158SAPE   H3R17560   3.165   5.839   6.339
  158SAPE   H3S17561   3.048   5.955   6.268
  158SAPE   C2417562   3.058   5.758   6.167
  158SAPE   H4R17563   3.090   5.658   6.204
  158SAPE   H4S17564   3.136   5.791   6.095
  158SAPE   C2517565   2.926   5.745   6.095
  158SAPE   H5R17566   2.856   5.683   6.152
  158SAPE   C2617567   2.885   5.792   5.975
  158SAPE   H6R17568   2.799   5.738   5.933
  158SAPE   C2717569   2.955   5.900   5.900
  158SAPE   H7R17570   3.021   5.850   5.826
  158SAPE   H7S17571   3.011   5.962   5.974
  158SAPE   C2817572   2.854   5.996   5.831
  158SAPE   H8R17573   2.798   6.068   5.894
  158SAPE   C2917574   2.825   5.996   5.703
  158SAPE   H9R17575   2.755   6.074   5.669
  158SAPE  C21017576   2.873   5.911   5.587
  158SAPE  H10R17577   2.789   5.847   5.552
  158SAPE  H10S17578   2.946   5.843   5.635
  158SAPE  C21117579   2.942   5.983   5.479
  158SAPE  H11R17580   3.045   6.011   5.505
  158SAPE  C21217581   2.893   5.995   5.357
  158SAPE  H12R17582   2.940   6.066   5.287
  158SAPE  C21317583   2.765   5.939   5.291
  158SAPE  H13R17584   2.731   6.010   5.213
  158SAPE  H13S17585   2.688   5.932   5.372
  158SAPE  C21417586   2.778   5.793   5.236
  158SAPE  H14R17587   2.752   5.717   5.312
  158SAPE  C21517588   2.820   5.752   5.116
  158SAPE  H15R17589   2.831   5.642   5.111
  158SAPE  C21617590   2.864   5.826   4.996
  158SAPE  H16R17591   2.951   5.893   5.014
  158SAPE  H16S17592   2.772   5.878   4.963
  158SAPE  C21717593   2.903   5.729   4.872
  158SAPE  H17R17594   2.918   5.793   4.783
  158SAPE  H17S17595   2.822   5.655   4.859
  158SAPE  C21817596   3.034   5.650   4.892
  158SAPE  H18R17597   3.052   5.622   4.998
  158SAPE  H18S17598   3.122   5.712   4.866
  158SAPE  C21917599   3.033   5.518   4.814
  158SAPE  H19R17600   2.935   5.469   4.834
  158SAPE  H19S17601   3.103   5.449   4.864
  158SAPE  C22017602   3.079   5.527   4.671
  158SAPE  H20R17603   2.997   5.556   4.602
  158SAPE  H20S17604   3.116   5.430   4.631
  158SAPE  H20T17605   3.172   5.586   4.661
  158SAPE   C3317606   3.189   5.318   6.268
  158SAPE   H3X17607   3.232   5.384   6.347
  158SAPE   H3Y17608   3.154   5.382   6.184
  158SAPE   C3417609   3.314   5.251   6.214
  158SAPE   H4X17610   3.350   5.173   6.284
  158SAPE   H4Y17611   3.390   5.332   6.214
  158SAPE   C3517612   3.290   5.205   6.072
  158SAPE   H5X17613   3.288   5.299   6.012
  158SAPE   H5Y17614   3.199   5.142   6.056
  158SAPE   C3617615   3.408   5.134   6.001
  158SAPE   H6X17616   3.429   5.036   6.050
  158SAPE   H6Y17617   3.503   5.189   6.017
  158SAPE   C3717618   3.386   5.119   5.848
  158SAPE   H7X17619   3.356   5.219   5.811
  158SAPE   H7Y17620   3.308   5.043   5.827
  158SAPE   C3817621   3.514   5.084   5.778
  158SAPE   H8X17622   3.541   4.976   5.777
  158SAPE   H8Y17623   3.590   5.141   5.835
  158SAPE   C3917624   3.529   5.140   5.639
  158SAPE   H9X17625   3.632   5.128   5.600
  158SAPE   H9Y17626   3.521   5.250   5.654
  158SAPE  C31017627   3.422   5.092   5.537
  158SAPE  H10X17628   3.319   5.114   5.573
  158SAPE  H10Y17629   3.427   4.984   5.511
  158SAPE  C31117630   3.432   5.160   5.401
  158SAPE  H11X17631   3.537   5.151   5.365
  158SAPE  H11Y17632   3.415   5.270   5.405
  158SAPE  C31217633   3.348   5.078   5.302
  158SAPE  H12X17634   3.245   5.071   5.342
  158SAPE  H12Y17635   3.382   4.972   5.295
  158SAPE  C31317636   3.349   5.138   5.160
  158SAPE  H13X17637   3.452   5.138   5.118
  158SAPE  H13Y17638   3.331   5.247   5.159
  158SAPE  C31417639   3.258   5.070   5.053
  158SAPE  H14X17640   3.151   5.066   5.083
  158SAPE  H14Y17641   3.298   4.967   5.057
  158SAPE  C31517642   3.269   5.137   4.911
  158SAPE  H15X17643   3.378   5.146   4.892
  158SAPE  H15Y17644   3.241   5.243   4.923
  158SAPE  C31617645   3.194   5.061   4.807
  158SAPE  H16X17646   3.090   5.049   4.844
  158SAPE  H16Y17647   3.240   4.962   4.790
  158SAPE  C31717648   3.187   5.148   4.676
  158SAPE  H17X17649   3.289   5.136   4.635
  158SAPE  H17Y17650   3.177   5.252   4.714
  158SAPE  C31817651   3.075   5.101   4.586
  158SAPE  H18X17652   3.098   4.995   4.562
  158SAPE  H18Y17653   3.062   5.162   4.494
  158SAPE  H18Z17654   2.980   5.112   4.643
  159SAPE     N17655   5.889   2.832   1.945
  159SAPE   HN117656   5.865   2.924   1.986
  159SAPE   HN217657   5.975   2.795   1.989
  159SAPE   HN317658   5.902   2.841   1.842
  159SAPE   C1217659   5.769   2.746   1.964
  159SAPE  H12A17660   5.789   2.644   1.925
  159SAPE  H12B17661   5.683   2.795   1.914
  159SAPE   C1117662   5.738   2.739   2.111
  159SAPE  H11A17663   5.828   2.707   2.169
  159SAPE  H11B17664   5.656   2.664   2.115
  159SAPE     P17665   5.534   2.905   2.153
  159SAPE   O1317666   5.514   3.004   2.044
  159SAPE   O1417667   5.451   2.788   2.156
  159SAPE   O1217668   5.691   2.870   2.150
  159SAPE   O1117669   5.506   2.977   2.289
  159SAPE    C117670   5.530   2.912   2.416
  159SAPE    HA17671   5.437   2.889   2.471
  159SAPE    HB17672   5.568   2.808   2.405
  159SAPE    C217673   5.625   2.996   2.503
  159SAPE    HS17674   5.716   2.942   2.538
  159SAPE   O2117675   5.547   3.049   2.616
  159SAPE   C2117676   5.539   2.953   2.708
  159SAPE   O2217677   5.587   2.841   2.691
  159SAPE   C2217678   5.471   3.006   2.833
  159SAPE   H2R17679   5.429   3.108   2.816
  159SAPE   H2S17680   5.392   2.936   2.866
  159SAPE    C317681   5.690   3.114   2.422
  159SAPE    HX17682   5.609   3.190   2.410
  159SAPE    HY17683   5.716   3.082   2.319
  159SAPE   O3117684   5.782   3.179   2.503
  159SAPE   C3117685   5.909   3.173   2.460
  159SAPE   O3217686   5.953   3.106   2.370
  159SAPE   C3217687   6.000   3.259   2.541
  159SAPE   H2X17688   6.014   3.354   2.485
  159SAPE   H2Y17689   6.098   3.206   2.534
  159SAPE   C2317690   5.579   3.007   2.947
  159SAPE   H3R17691   5.637   2.913   2.940
  159SAPE   H3S17692   5.521   3.011   3.041
  159SAPE   C2417693   5.681   3.125   2.939
  159SAPE   H4R17694   5.739   3.127   2.844
  159SAPE   H4S17695   5.752   3.102   3.021
  159SAPE   C2517696   5.609   3.257   2.962
  159SAPE   H5R17697   5.581   3.314   2.872
  159SAPE   C2617698   5.602   3.323   3.081
  159SAPE   H6R17699   5.547   3.419   3.081
  159SAPE   C2717700   5.659   3.270   3.208
  159SAPE   H7R17701   5.680   3.161   3.207
  159SAPE   H7S17702   5.566   3.274   3.270
  159SAPE   C2817703   5.777   3.341   3.272
  159SAPE   H8R17704   5.840   3.375   3.189
  159SAPE   C2917705   5.808   3.369   3.403
  159SAPE   H9R17706   5.910   3.399   3.427
  159SAPE  C21017707   5.720   3.331   3.518
  159SAPE  H10R17708   5.629   3.285   3.473
  159SAPE  H10S17709   5.675   3.413   3.577
  159SAPE  C21117710   5.783   3.222   3.600
  159SAPE  H11R17711   5.787   3.127   3.545
  159SAPE  C21217712   5.821   3.224   3.720
  159SAPE  H12R17713   5.886   3.141   3.753
  159SAPE  C21317714   5.810   3.341   3.809
  159SAPE  H13R17715   5.707   3.384   3.814
  159SAPE  H13S17716   5.869   3.425   3.767
  159SAPE  C21417717   5.864   3.322   3.952
  159SAPE  H14R17718   5.789   3.274   4.016
  159SAPE  C21517719   5.966   3.388   4.014
  159SAPE  H15R17720   5.991   3.369   4.119
  159SAPE  C21617721   6.065   3.477   3.943
  159SAPE  H16R17722   6.075   3.436   3.841
  159SAPE  H16S17723   6.160   3.462   3.999
  159SAPE  C21717724   6.010   3.624   3.929
  159SAPE  H17R17725   5.962   3.660   4.023
  159SAPE  H17S17726   5.932   3.623   3.850
  159SAPE  C21817727   6.119   3.726   3.893
  159SAPE  H18R17728   6.142   3.704   3.787
  159SAPE  H18S17729   6.199   3.720   3.970
  159SAPE  C21917730   6.069   3.874   3.911
  159SAPE  H19R17731   5.970   3.889   3.862
  159SAPE  H19S17732   6.138   3.949   3.866
  159SAPE  C22017733   6.054   3.924   4.054
  159SAPE  H20R17734   5.979   3.860   4.106
  159SAPE  H20S17735   6.013   4.026   4.049
  159SAPE  H20T17736   6.155   3.915   4.101
  159SAPE   C3317737   5.977   3.273   2.691
  159SAPE   H3X17738   5.990   3.176   2.744
  159SAPE   H3Y17739   5.871   3.296   2.715
  159SAPE   C3417740   6.071   3.380   2.755
  159SAPE   H4X17741   6.065   3.475   2.697
  159SAPE   H4Y17742   6.172   3.341   2.733
  159SAPE   C3517743   6.051   3.418   2.901
  159SAPE   H5X17744   5.943   3.433   2.922
  159SAPE   H5Y17745   6.101   3.517   2.906
  159SAPE   C3617746   6.102   3.319   3.005
  159SAPE   H6X17747   6.203   3.286   2.975
  159SAPE   H6Y17748   6.031   3.234   3.017
  159SAPE   C3717749   6.115   3.386   3.141
  159SAPE   H7X17750   6.017   3.430   3.169
  159SAPE   H7Y17751   6.178   3.477   3.132
  159SAPE   C3817752   6.179   3.297   3.248
  159SAPE   H8X17753   6.271   3.243   3.215
  159SAPE   H8Y17754   6.105   3.218   3.268
  159SAPE   C3917755   6.201   3.378   3.377
  159SAPE   H9X17756   6.199   3.305   3.461
  159SAPE   H9Y17757   6.121   3.449   3.404
  159SAPE  C31017758   6.327   3.455   3.379
  159SAPE  H10X17759   6.320   3.539   3.306
  159SAPE  H10Y17760   6.405   3.385   3.344
  159SAPE  C31117761   6.350   3.503   3.521
  159SAPE  H11X17762   6.265   3.558   3.567
  159SAPE  H11Y17763   6.436   3.573   3.515
  159SAPE  C31217764   6.396   3.392   3.619
  159SAPE  H12X17765   6.462   3.315   3.573
  159SAPE  H12Y17766   6.309   3.333   3.657
  159SAPE  C31317767   6.471   3.460   3.734
  159SAPE  H13X17768   6.416   3.541   3.787
  159SAPE  H13Y17769   6.562   3.495   3.681
  159SAPE  C31417770   6.511   3.363   3.851
  159SAPE  H14X17771   6.600   3.404   3.902
  159SAPE  H14Y17772   6.545   3.261   3.821
  159SAPE  C31517773   6.395   3.354   3.954
  159SAPE  H15X17774   6.322   3.291   3.900
  159SAPE  H15Y17775   6.374   3.456   3.992
  159SAPE  C31617776   6.442   3.274   4.076
  159SAPE  H16X17777   6.527   3.333   4.117
  159SAPE  H16Y17778   6.472   3.170   4.050
  159SAPE  C31717779   6.321   3.272   4.183
  159SAPE  H17X17780   6.241   3.209   4.140
  159SAPE  H17Y17781   6.276   3.374   4.192
  159SAPE  C31817782   6.378   3.216   4.315
  159SAPE  H18X17783   6.300   3.212   4.394
  159SAPE  H18Y17784   6.465   3.279   4.343
  159SAPE  H18Z17785   6.419   3.117   4.289
  160SAPE     N17786   5.372   2.545   2.258
  160SAPE   HN117787   5.460   2.529   2.312
  160SAPE   HN217788   5.379   2.632   2.203
  160SAPE   HN317789   5.306   2.565   2.337
  160SAPE   C1217790   5.341   2.436   2.163
  160SAPE  H12A17791   5.385   2.342   2.203
  160SAPE  H12B17792   5.389   2.461   2.066
  160SAPE   C1117793   5.189   2.434   2.146
  160SAPE  H11A17794   5.165   2.372   2.057
  160SAPE  H11B17795   5.151   2.532   2.110
  160SAPE     P17796   5.054   2.255   2.275
  160SAPE   O1317797   4.908   2.271   2.275
  160SAPE   O1417798   5.107   2.175   2.165
  160SAPE   O1217799   5.124   2.398   2.271
  160SAPE   O1117800   5.101   2.193   2.408
  160SAPE    C117801   5.173   2.255   2.509
  160SAPE    HA17802   5.277   2.216   2.518
  160SAPE    HB17803   5.179   2.366   2.514
  160SAPE    C217804   5.110   2.213   2.648
  160SAPE    HS17805   5.181   2.257   2.721
  160SAPE   O2117806   5.096   2.070   2.657
  160SAPE   C2117807   5.202   2.009   2.703
  160SAPE   O2217808   5.316   2.055   2.712
  160SAPE   C2217809   5.166   1.873   2.751
  160SAPE   H2R17810   5.072   1.875   2.810
  160SAPE   H2S17811   5.140   1.816   2.659
  160SAPE    C317812   4.964   2.263   2.679
  160SAPE    HX17813   4.883   2.225   2.613
  160SAPE    HY17814   4.956   2.373   2.660
  160SAPE   O3117815   4.928   2.241   2.812
  160SAPE   C3117816   4.856   2.139   2.836
  160SAPE   O3217817   4.797   2.064   2.755
  160SAPE   C3217818   4.840   2.113   2.984
  160SAPE   H2X17819   4.786   2.202   3.024
  160SAPE   H2Y17820   4.940   2.113   3.032
  160SAPE   C2317821   5.284   1.809   2.831
  160SAPE   H3R17822   5.385   1.807   2.784
  160SAPE   H3S17823   5.259   1.706   2.862
  160SAPE   C2417824   5.296   1.883   2.968
  160SAPE   H4R17825   5.195   1.886   3.014
  160SAPE   H4S17826   5.319   1.991   2.950
  160SAPE   C2517827   5.405   1.836   3.065
  160SAPE   H5R17828   5.501   1.856   3.017
  160SAPE   C2617829   5.408   1.788   3.191
  160SAPE   H6R17830   5.499   1.757   3.245
  160SAPE   C2717831   5.280   1.765   3.267
  160SAPE   H7R17832   5.190   1.741   3.206
  160SAPE   H7S17833   5.257   1.848   3.337
  160SAPE   C2817834   5.301   1.639   3.351
  160SAPE   H8R17835   5.328   1.538   3.317
  160SAPE   C2917836   5.287   1.632   3.485
  160SAPE   H9R17837   5.296   1.534   3.534
  160SAPE  C21017838   5.260   1.737   3.595
  160SAPE  H10R17839   5.316   1.830   3.569
  160SAPE  H10S17840   5.320   1.710   3.685
  160SAPE  C21117841   5.116   1.778   3.613
  160SAPE  H11R17842   5.077   1.841   3.531
  160SAPE  C21217843   5.031   1.725   3.715
  160SAPE  H12R17844   4.923   1.748   3.713
  160SAPE  C21317845   5.073   1.633   3.823
  160SAPE  H13R17846   5.012   1.645   3.915
  160SAPE  H13S17847   5.171   1.679   3.845
  160SAPE  C21417848   5.083   1.490   3.770
  160SAPE  H14R17849   5.080   1.470   3.662
  160SAPE  C21517850   5.127   1.390   3.845
  160SAPE  H15R17851   5.142   1.290   3.800
  160SAPE  C21617852   5.139   1.382   3.999
  160SAPE  H16R17853   5.144   1.484   4.041
  160SAPE  H16S17854   5.230   1.324   4.024
  160SAPE  C21717855   5.026   1.295   4.058
  160SAPE  H17R17856   5.052   1.261   4.161
  160SAPE  H17S17857   5.002   1.202   4.002
  160SAPE  C21817858   4.894   1.368   4.073
  160SAPE  H18R17859   4.846   1.397   3.978
  160SAPE  H18S17860   4.916   1.462   4.128
  160SAPE  C21917861   4.789   1.295   4.163
  160SAPE  H19R17862   4.831   1.288   4.266
  160SAPE  H19S17863   4.779   1.193   4.119
  160SAPE  C22017864   4.650   1.362   4.172
  160SAPE  H20R17865   4.603   1.378   4.072
  160SAPE  H20S17866   4.647   1.455   4.233
  160SAPE  H20T17867   4.589   1.283   4.220
  160SAPE   C3317868   4.761   1.983   3.013
  160SAPE   H3X17869   4.836   1.906   2.985
  160SAPE   H3Y17870   4.671   1.984   2.947
  160SAPE   C3417871   4.717   1.963   3.148
  160SAPE   H4X17872   4.636   2.034   3.173
  160SAPE   H4Y17873   4.800   1.993   3.217
  160SAPE   C3517874   4.682   1.818   3.170
  160SAPE   H5X17875   4.779   1.764   3.163
  160SAPE   H5Y17876   4.620   1.774   3.088
  160SAPE   C3617877   4.622   1.785   3.307
  160SAPE   H6X17878   4.517   1.823   3.306
  160SAPE   H6Y17879   4.691   1.833   3.380
  160SAPE   C3717880   4.623   1.633   3.326
  160SAPE   H7X17881   4.722   1.584   3.335
  160SAPE   H7Y17882   4.581   1.603   3.228
  160SAPE   C3817883   4.543   1.579   3.444
  160SAPE   H8X17884   4.444   1.543   3.409
  160SAPE   H8Y17885   4.524   1.667   3.510
  160SAPE   C3917886   4.625   1.470   3.521
  160SAPE   H9X17887   4.729   1.505   3.537
  160SAPE   H9Y17888   4.626   1.382   3.453
  160SAPE  C31017889   4.557   1.415   3.650
  160SAPE  H10X17890   4.448   1.399   3.633
  160SAPE  H10Y17891   4.577   1.483   3.735
  160SAPE  C31117892   4.605   1.273   3.681
  160SAPE  H11X17893   4.714   1.276   3.698
  160SAPE  H11Y17894   4.603   1.209   3.590
  160SAPE  C31217895   4.531   1.190   3.788
  160SAPE  H12X17896   4.422   1.207   3.781
  160SAPE  H12Y17897   4.565   1.228   3.887
  160SAPE  C31317898   4.554   1.039   3.788
  160SAPE  H13X17899   4.663   1.018   3.800
  160SAPE  H13Y17900   4.527   0.983   3.696
  160SAPE  C31417901   4.484   0.966   3.905
  160SAPE  H14X17902   4.377   0.980   3.881
  160SAPE  H14Y17903   4.511   1.020   3.998
  160SAPE  C31517904   4.528   0.826   3.912
  160SAPE  H15X17905   4.634   0.816   3.941
  160SAPE  H15Y17906   4.512   0.772   3.816
  160SAPE  C31617907   4.449   0.757   4.031
  160SAPE  H16X17908   4.351   0.809   4.038
  160SAPE  H16Y17909   4.491   0.793   4.127
  160SAPE  C31717910   4.457   0.603   4.018
  160SAPE  H17X17911   4.562   0.570   4.008
  160SAPE  H17Y17912   4.404   0.580   3.923
  160SAPE  C31817913   4.390   0.525   4.130
  160SAPE  H18X17914   4.445   0.529   4.226
  160SAPE  H18Y17915   4.397   0.422   4.089
  160SAPE  H18Z17916   4.279   0.534   4.134
  161SAPE     N17917   1.917   4.515   1.982
  161SAPE   HN117918   1.939   4.430   2.038
  161SAPE   HN217919   1.815   4.533   1.991
  161SAPE   HN317920   1.948   4.514   1.882
  161SAPE   C1217921   1.993   4.624   2.040
  161SAPE  H12A17922   1.957   4.657   2.140
  161SAPE  H12B17923   1.972   4.710   1.972
  161SAPE   C1117924   2.145   4.587   2.039
  161SAPE  H11A17925   2.168   4.522   2.126
  161SAPE  H11B17926   2.203   4.680   2.055
  161SAPE     P17927   2.322   4.444   1.903
  161SAPE   O1317928   2.286   4.306   1.861
  161SAPE   O1417929   2.414   4.516   1.808
  161SAPE   O1217930   2.183   4.526   1.916
  161SAPE   O1117931   2.375   4.443   2.050
  161SAPE    C117932   2.511   4.420   2.060
  161SAPE    HA17933   2.543   4.337   1.994
  161SAPE    HB17934   2.571   4.505   2.022
  161SAPE    C217935   2.543   4.395   2.207
  161SAPE    HS17936   2.648   4.359   2.209
  161SAPE   O2117937   2.463   4.295   2.263
  161SAPE   C2117938   2.478   4.171   2.211
  161SAPE   O2217939   2.572   4.128   2.141
  161SAPE   C2217940   2.369   4.087   2.266
  161SAPE   H2R17941   2.305   4.149   2.332
  161SAPE   H2S17942   2.305   4.060   2.179
  161SAPE    C317943   2.543   4.529   2.292
  161SAPE    HX17944   2.439   4.569   2.293
  161SAPE    HY17945   2.616   4.600   2.250
  161SAPE   O3117946   2.576   4.506   2.431
  161SAPE   C3117947   2.470   4.478   2.510
  161SAPE   O3217948   2.355   4.494   2.484
  161SAPE   C3217949   2.521   4.397   2.628
  161SAPE   H2X17950   2.610   4.449   2.672
  161SAPE   H2Y17951   2.529   4.290   2.602
  161SAPE   C2317952   2.421   3.959   2.341
  161SAPE   H3R17953   2.472   3.887   2.274
  161SAPE   H3S17954   2.328   3.903   2.361
  161SAPE   C2417955   2.473   3.988   2.485
  161SAPE   H4R17956   2.425   3.922   2.561
  161SAPE   H4S17957   2.429   4.089   2.505
  161SAPE   C2517958   2.624   3.983   2.486
  161SAPE   H5R17959   2.680   4.026   2.402
  161SAPE   C2617960   2.687   3.914   2.584
  161SAPE   H6R17961   2.796   3.914   2.572
  161SAPE   C2717962   2.645   3.839   2.708
  161SAPE   H7R17963   2.674   3.732   2.700
  161SAPE   H7S17964   2.534   3.848   2.707
  161SAPE   C2817965   2.709   3.910   2.828
  161SAPE   H8R17966   2.783   3.992   2.822
  161SAPE   C2917967   2.672   3.884   2.955
  161SAPE   H9R17968   2.731   3.927   3.037
  161SAPE  C21017969   2.567   3.783   3.007
  161SAPE  H10R17970   2.492   3.781   2.925
  161SAPE  H10S17971   2.514   3.825   3.095
  161SAPE  C21117972   2.618   3.649   3.032
  161SAPE  H11R17973   2.608   3.576   2.950
  161SAPE  C21217974   2.645   3.602   3.157
  161SAPE  H12R17975   2.666   3.494   3.162
  161SAPE  C21317976   2.664   3.684   3.288
  161SAPE  H13R17977   2.562   3.697   3.330
  161SAPE  H13S17978   2.712   3.782   3.269
  161SAPE  C21417979   2.750   3.623   3.398
  161SAPE  H14R17980   2.811   3.540   3.359
  161SAPE  C21517981   2.767   3.665   3.526
  161SAPE  H15R17982   2.831   3.606   3.593
  161SAPE  C21617983   2.711   3.786   3.583
  161SAPE  H16R17984   2.669   3.858   3.509
  161SAPE  H16S17985   2.792   3.839   3.638
  161SAPE  C21717986   2.586   3.762   3.676
  161SAPE  H17R17987   2.631   3.706   3.761
  161SAPE  H17S17988   2.512   3.700   3.620
  161SAPE  C21817989   2.523   3.891   3.713
  161SAPE  H18R17990   2.479   3.943   3.626
  161SAPE  H18S17991   2.598   3.965   3.749
  161SAPE  C21917992   2.407   3.876   3.815
  161SAPE  H19R17993   2.443   3.880   3.920
  161SAPE  H19S17994   2.350   3.782   3.799
  161SAPE  C22017995   2.299   3.990   3.811
  161SAPE  H20R17996   2.245   3.985   3.714
  161SAPE  H20S17997   2.352   4.086   3.825
  161SAPE  H20T17998   2.231   3.984   3.899
  161SAPE   C3317999   2.413   4.403   2.741
  161SAPE   H3X18000   2.325   4.357   2.691
  161SAPE   H3Y18001   2.397   4.510   2.767
  161SAPE   C3418002   2.447   4.314   2.866
  161SAPE   H4X18003   2.470   4.214   2.824
  161SAPE   H4Y18004   2.357   4.313   2.930
  161SAPE   C3518005   2.567   4.357   2.942
  161SAPE   H5X18006   2.566   4.464   2.969
  161SAPE   H5Y18007   2.651   4.327   2.875
  161SAPE   C3618008   2.590   4.269   3.066
  161SAPE   H6X18009   2.700   4.276   3.084
  161SAPE   H6Y18010   2.564   4.164   3.042
  161SAPE   C3718011   2.504   4.309   3.189
  161SAPE   H7X18012   2.399   4.277   3.174
  161SAPE   H7Y18013   2.509   4.418   3.208
  161SAPE   C3818014   2.560   4.247   3.318
  161SAPE   H8X18015   2.667   4.272   3.337
  161SAPE   H8Y18016   2.552   4.136   3.319
  161SAPE   C3918017   2.503   4.305   3.448
  161SAPE   H9X18018   2.400   4.262   3.440
  161SAPE   H9Y18019   2.494   4.416   3.442
  161SAPE  C31018020   2.575   4.261   3.579
  161SAPE  H10X18021   2.675   4.309   3.580
  161SAPE  H10Y18022   2.615   4.159   3.561
  161SAPE  C31118023   2.495   4.285   3.700
  161SAPE  H11X18024   2.549   4.234   3.783
  161SAPE  H11Y18025   2.393   4.243   3.686
  161SAPE  C31218026   2.475   4.435   3.732
  161SAPE  H12X18027   2.420   4.481   3.647
  161SAPE  H12Y18028   2.568   4.486   3.763
  161SAPE  C31318029   2.369   4.447   3.845
  161SAPE  H13X18030   2.270   4.428   3.799
  161SAPE  H13Y18031   2.365   4.556   3.864
  161SAPE  C31418032   2.392   4.358   3.967
  161SAPE  H14X18033   2.381   4.250   3.947
  161SAPE  H14Y18034   2.322   4.379   4.051
  161SAPE  C31518035   2.526   4.389   4.038
  161SAPE  H15X18036   2.524   4.498   4.060
  161SAPE  H15Y18037   2.609   4.362   3.970
  161SAPE  C31618038   2.547   4.298   4.164
  161SAPE  H16X18039   2.640   4.336   4.212
  161SAPE  H16Y18040   2.588   4.203   4.124
  161SAPE  C31718041   2.426   4.280   4.259
  161SAPE  H17X18042   2.455   4.203   4.333
  161SAPE  H17Y18043   2.333   4.241   4.212
  161SAPE  C31818044   2.384   4.409   4.340
  161SAPE  H18X18045   2.326   4.384   4.430
  161SAPE  H18Y18046   2.309   4.463   4.278
  161SAPE  H18Z18047   2.469   4.468   4.381
  162SAPE     N18048   2.362   0.438   2.061
  162SAPE   HN118049   2.300   0.372   2.112
  162SAPE   HN218050   2.296   0.512   2.030
  162SAPE   HN318051   2.394   0.387   1.977
  162SAPE   C1218052   2.474   0.487   2.152
  162SAPE  H12A18053   2.424   0.551   2.228
  162SAPE  H12B18054   2.546   0.539   2.085
  162SAPE   C1118055   2.536   0.374   2.227
  162SAPE  H11A18056   2.456   0.328   2.289
  162SAPE  H11B18057   2.604   0.413   2.305
  162SAPE     P18058   2.558   0.121   2.157
  162SAPE   O1318059   2.412   0.118   2.143
  162SAPE   O1418060   2.641   0.040   2.063
  162SAPE   O1218061   2.605   0.273   2.149
  162SAPE   O1118062   2.594   0.088   2.307
  162SAPE    C118063   2.704   0.135   2.386
  162SAPE    HA18064   2.798   0.116   2.329
  162SAPE    HB18065   2.706   0.244   2.407
  162SAPE    C218066   2.707   0.055   2.518
  162SAPE    HS18067   2.727   6.827   2.497
  162SAPE   O2118068   2.592   0.093   2.599
  162SAPE   C2118069   2.507   6.871   2.614
  162SAPE   O2218070   2.526   6.757   2.571
  162SAPE   C2218071   2.384   0.032   2.695
  162SAPE   H2R18072   2.419   0.044   2.800
  162SAPE   H2S18073   2.341   0.132   2.672
  162SAPE    C318074   2.835   0.094   2.605
  162SAPE    HX18075   2.808   0.191   2.650
  162SAPE    HY18076   2.927   0.117   2.547
  162SAPE   O3118077   2.851   6.878   2.709
  162SAPE   C3118078   2.880   6.757   2.678
  162SAPE   O3218079   2.904   6.712   2.565
  162SAPE   C3218080   2.875   6.665   2.803
  162SAPE   H2X18081   2.812   6.576   2.779
  162SAPE   H2Y18082   2.827   6.719   2.888
  162SAPE   C2318083   2.265   6.811   2.684
  162SAPE   H3R18084   2.304   6.708   2.702
  162SAPE   H3S18085   2.240   6.803   2.576
  162SAPE   C2418086   2.154   6.859   2.775
  162SAPE   H4R18087   2.139   0.086   2.747
  162SAPE   H4S18088   2.198   6.856   2.877
  162SAPE   C2518089   2.022   6.793   2.762
  162SAPE   H5R18090   1.975   6.794   2.662
  162SAPE   C2618091   1.966   6.721   2.851
  162SAPE   H6R18092   1.874   6.667   2.823
  162SAPE   C2718093   2.010   6.682   2.996
  162SAPE   H7R18094   1.924   6.655   3.062
  162SAPE   H7S18095   2.072   6.761   3.042
  162SAPE   C2818096   2.113   6.567   3.003
  162SAPE   H8R18097   2.196   6.579   2.933
  162SAPE   C2918098   2.109   6.466   3.094
  162SAPE   H9R18099   2.205   6.414   3.108
  162SAPE  C21018100   2.003   6.444   3.195
  162SAPE  H10R18101   1.915   6.436   3.129
  162SAPE  H10S18102   1.994   6.534   3.260
  162SAPE  C21118103   2.008   6.316   3.272
  162SAPE  H11R18104   1.933   6.245   3.235
  162SAPE  C21218105   2.095   6.260   3.361
  162SAPE  H12R18106   2.081   6.157   3.396
  162SAPE  C21318107   2.219   6.336   3.413
  162SAPE  H13R18108   2.241   6.427   3.353
  162SAPE  H13S18109   2.307   6.270   3.398
  162SAPE  C21418110   2.206   6.351   3.565
  162SAPE  H14R18111   2.113   6.342   3.623
  162SAPE  C21518112   2.303   6.401   3.648
  162SAPE  H15R18113   2.286   6.398   3.757
  162SAPE  C21618114   2.454   6.419   3.618
  162SAPE  H16R18115   2.477   6.516   3.667
  162SAPE  H16S18116   2.475   6.423   3.509
  162SAPE  C21718117   2.539   6.307   3.682
  162SAPE  H17R18118   2.513   6.215   3.625
  162SAPE  H17S18119   2.515   6.297   3.790
  162SAPE  C21818120   2.696   6.331   3.672
  162SAPE  H18R18121   2.722   6.373   3.572
  162SAPE  H18S18122   2.745   6.232   3.679
  162SAPE  C21918123   2.754   6.430   3.775
  162SAPE  H19R18124   2.720   6.410   3.878
  162SAPE  H19S18125   2.712   6.529   3.746
  162SAPE  C22018126   2.901   6.430   3.769
  162SAPE  H20R18127   2.951   6.494   3.844
  162SAPE  H20S18128   2.932   6.453   3.665
  162SAPE  H20T18129   2.937   6.329   3.800
  162SAPE   C3318130   3.021   6.631   2.835
  162SAPE   H3X18131   3.079   6.723   2.857
  162SAPE   H3Y18132   3.070   6.584   2.747
  162SAPE   C3418133   3.028   6.536   2.959
  162SAPE   H4X18134   2.953   6.455   2.948
  162SAPE   H4Y18135   2.989   6.589   3.048
  162SAPE   C3518136   3.168   6.476   2.972
  162SAPE   H5X18137   3.250   6.552   2.982
  162SAPE   H5Y18138   3.192   6.415   2.883
  162SAPE   C3618139   3.183   6.385   3.096
  162SAPE   H6X18140   3.279   6.333   3.074
  162SAPE   H6Y18141   3.096   6.319   3.117
  162SAPE   C3718142   3.193   6.457   3.230
  162SAPE   H7X18143   3.118   6.538   3.229
  162SAPE   H7Y18144   3.296   6.498   3.224
  162SAPE   C3818145   3.173   6.371   3.353
  162SAPE   H8X18146   3.066   6.339   3.356
  162SAPE   H8Y18147   3.184   6.436   3.442
  162SAPE   C3918148   3.262   6.248   3.357
  162SAPE   H9X18149   3.355   6.285   3.309
  162SAPE   H9Y18150   3.213   6.168   3.296
  162SAPE  C31018151   3.305   6.189   3.495
  162SAPE  H10X18152   3.377   6.260   3.541
  162SAPE  H10Y18153   3.350   6.087   3.490
  162SAPE  C31118154   3.183   6.173   3.582
  162SAPE  H11X18155   3.096   6.133   3.526
  162SAPE  H11Y18156   3.145   6.273   3.614
  162SAPE  C31218157   3.209   6.089   3.702
  162SAPE  H12X18158   3.204   5.983   3.670
  162SAPE  H12Y18159   3.124   6.108   3.771
  162SAPE  C31318160   3.341   6.119   3.775
  162SAPE  H13X18161   3.346   6.227   3.799
  162SAPE  H13Y18162   3.428   6.106   3.707
  162SAPE  C31418163   3.386   6.029   3.894
  162SAPE  H14X18164   3.491   6.049   3.926
  162SAPE  H14Y18165   3.381   5.927   3.852
  162SAPE  C31518166   3.283   6.033   4.009
  162SAPE  H15X18167   3.192   5.990   3.962
  162SAPE  H15Y18168   3.256   6.138   4.033
  162SAPE  C31618169   3.314   5.938   4.124
  162SAPE  H16X18170   3.405   5.971   4.178
  162SAPE  H16Y18171   3.341   5.836   4.090
  162SAPE  C31718172   3.196   5.928   4.225
  162SAPE  H17X18173   3.104   5.896   4.171
  162SAPE  H17Y18174   3.177   6.029   4.266
  162SAPE  C31818175   3.217   5.826   4.336
  162SAPE  H18X18176   3.251   5.725   4.306
  162SAPE  H18Y18177   3.134   5.815   4.409
  162SAPE  H18Z18178   3.306   5.857   4.396
  163SAPE     N18179   2.054   3.240   1.950
  163SAPE   HN118180   2.086   3.155   2.001
  163SAPE   HN218181   2.087   3.220   1.854
  163SAPE   HN318182   2.108   3.321   1.986
  163SAPE   C1218183   1.906   3.258   1.961
  163SAPE  H12A18184   1.866   3.156   1.942
  163SAPE  H12B18185   1.871   3.326   1.881
  163SAPE   C1118186   1.865   3.309   2.092
  163SAPE  H11A18187   1.884   3.232   2.171
  163SAPE  H11B18188   1.754   3.318   2.094
  163SAPE     P18189   1.869   3.572   2.105
  163SAPE   O1318190   1.982   3.654   2.062
  163SAPE   O1418191   1.756   3.549   2.012
  163SAPE   O1218192   1.940   3.431   2.124
  163SAPE   O1118193   1.818   3.610   2.246
  163SAPE    C118194   1.729   3.517   2.313
  163SAPE    HA18195   1.624   3.533   2.281
  163SAPE    HB18196   1.753   3.409   2.303
  163SAPE    C218197   1.750   3.543   2.468
  163SAPE    HS18198   1.678   3.478   2.522
  163SAPE   O2118199   1.735   3.684   2.495
  163SAPE   C2118200   1.606   3.722   2.503
  163SAPE   O2218201   1.511   3.645   2.506
  163SAPE   C2218202   1.590   3.874   2.495
  163SAPE   H2R18203   1.684   3.917   2.535
  163SAPE   H2S18204   1.578   3.909   2.390
  163SAPE    C318205   1.890   3.497   2.518
  163SAPE    HX18206   1.958   3.580   2.490
  163SAPE    HY18207   1.931   3.404   2.472
  163SAPE   O3118208   1.885   3.489   2.662
  163SAPE   C3118209   1.876   3.358   2.711
  163SAPE   O3218210   1.858   3.264   2.637
  163SAPE   C3218211   1.868   3.366   2.861
  163SAPE   H2X18212   1.768   3.411   2.877
  163SAPE   H2Y18213   1.956   3.430   2.886
  163SAPE   C2318214   1.460   3.920   2.570
  163SAPE   H3R18215   1.368   3.872   2.530
  163SAPE   H3S18216   1.451   4.029   2.546
  163SAPE   C2418217   1.487   3.893   2.725
  163SAPE   H4R18218   1.477   3.784   2.746
  163SAPE   H4S18219   1.400   3.944   2.772
  163SAPE   C2518220   1.611   3.955   2.793
  163SAPE   H5R18221   1.614   4.065   2.787
  163SAPE   C2618222   1.706   3.897   2.857
  163SAPE   H6R18223   1.789   3.955   2.900
  163SAPE   C2718224   1.725   3.750   2.881
  163SAPE   H7R18225   1.703   3.694   2.788
  163SAPE   H7S18226   1.647   3.705   2.947
  163SAPE   C2818227   1.861   3.707   2.936
  163SAPE   H8R18228   1.936   3.691   2.857
  163SAPE   C2918229   1.903   3.709   3.065
  163SAPE   H9R18230   1.997   3.665   3.101
  163SAPE  C21018231   1.804   3.730   3.182
  163SAPE  H10R18232   1.712   3.774   3.138
  163SAPE  H10S18233   1.860   3.793   3.254
  163SAPE  C21118234   1.763   3.590   3.244
  163SAPE  H11R18235   1.829   3.511   3.205
  163SAPE  C21218236   1.670   3.572   3.338
  163SAPE  H12R18237   1.640   3.471   3.369
  163SAPE  C21318238   1.575   3.673   3.401
  163SAPE  H13R18239   1.519   3.621   3.482
  163SAPE  H13S18240   1.507   3.695   3.316
  163SAPE  C21418241   1.628   3.799   3.465
  163SAPE  H14R18242   1.718   3.839   3.416
  163SAPE  C21518243   1.582   3.860   3.577
  163SAPE  H15R18244   1.641   3.942   3.620
  163SAPE  C21618245   1.450   3.824   3.637
  163SAPE  H16R18246   1.465   3.754   3.721
  163SAPE  H16S18247   1.391   3.764   3.565
  163SAPE  C21718248   1.366   3.946   3.676
  163SAPE  H17R18249   1.263   3.924   3.711
  163SAPE  H17S18250   1.362   4.009   3.584
  163SAPE  C21818251   1.426   4.025   3.798
  163SAPE  H18R18252   1.532   4.055   3.779
  163SAPE  H18S18253   1.415   3.954   3.882
  163SAPE  C21918254   1.343   4.137   3.867
  163SAPE  H19R18255   1.236   4.106   3.864
  163SAPE  H19S18256   1.339   4.236   3.816
  163SAPE  C22018257   1.392   4.166   4.007
  163SAPE  H20R18258   1.496   4.206   4.003
  163SAPE  H20S18259   1.404   4.075   4.070
  163SAPE  H20T18260   1.341   4.246   4.065
  163SAPE   C3318261   1.867   3.234   2.936
  163SAPE   H3X18262   1.973   3.200   2.938
  163SAPE   H3Y18263   1.797   3.159   2.895
  163SAPE   C3418264   1.823   3.240   3.091
  163SAPE   H4X18265   1.745   3.318   3.077
  163SAPE   H4Y18266   1.906   3.291   3.146
  163SAPE   C3518267   1.768   3.118   3.160
  163SAPE   H5X18268   1.845   3.038   3.170
  163SAPE   H5Y18269   1.682   3.082   3.100
  163SAPE   C3618270   1.710   3.143   3.304
  163SAPE   H6X18271   1.656   3.053   3.338
  163SAPE   H6Y18272   1.629   3.218   3.291
  163SAPE   C3718273   1.819   3.185   3.407
  163SAPE   H7X18274   1.891   3.261   3.371
  163SAPE   H7Y18275   1.885   3.097   3.421
  163SAPE   C3818276   1.753   3.226   3.536
  163SAPE   H8X18277   1.676   3.306   3.526
  163SAPE   H8Y18278   1.831   3.262   3.607
  163SAPE   C3918279   1.673   3.110   3.597
  163SAPE   H9X18280   1.742   3.024   3.609
  163SAPE   H9Y18281   1.585   3.089   3.532
  163SAPE  C31018282   1.615   3.149   3.731
  163SAPE  H10X18283   1.545   3.235   3.720
  163SAPE  H10Y18284   1.691   3.191   3.801
  163SAPE  C31118285   1.542   3.031   3.792
  163SAPE  H11X18286   1.606   2.942   3.773
  163SAPE  H11Y18287   1.460   3.009   3.720
  163SAPE  C31218288   1.492   3.046   3.937
  163SAPE  H12X18289   1.580   3.053   4.005
  163SAPE  H12Y18290   1.430   2.962   3.974
  163SAPE  C31318291   1.404   3.170   3.963
  163SAPE  H13X18292   1.296   3.147   3.944
  163SAPE  H13Y18293   1.437   3.250   3.893
  163SAPE  C31418294   1.394   3.223   4.112
  163SAPE  H14X18295   1.352   3.146   4.180
  163SAPE  H14Y18296   1.318   3.303   4.120
  163SAPE  C31518297   1.534   3.270   4.169
  163SAPE  H15X18298   1.590   3.308   4.082
  163SAPE  H15Y18299   1.569   3.184   4.230
  163SAPE  C31618300   1.531   3.393   4.269
  163SAPE  H16X18301   1.465   3.354   4.349
  163SAPE  H16Y18302   1.481   3.481   4.223
  163SAPE  C31718303   1.670   3.430   4.324
  163SAPE  H17X18304   1.729   3.444   4.231
  163SAPE  H17Y18305   1.717   3.344   4.378
  163SAPE  C31818306   1.670   3.560   4.413
  163SAPE  H18X18307   1.774   3.585   4.441
  163SAPE  H18Y18308   1.605   3.543   4.501
  163SAPE  H18Z18309   1.630   3.649   4.360
  164SAPE     N18310   6.592   4.015   2.479
  164SAPE   HN118311   6.691   4.044   2.468
  164SAPE   HN218312   6.569   3.922   2.438
  164SAPE   HN318313   6.531   4.081   2.426
  164SAPE   C1218314   6.547   4.011   2.619
  164SAPE  H12A18315   6.630   3.986   2.688
  164SAPE  H12B18316   6.463   3.939   2.631
  164SAPE   C1118317   6.510   4.154   2.642
  164SAPE  H11A18318   6.476   4.158   2.748
  164SAPE  H11B18319   6.421   4.173   2.578
  164SAPE     P18320   6.591   4.360   2.520
  164SAPE   O1318321   6.676   4.476   2.551
  164SAPE   O1418322   6.600   4.293   2.386
  164SAPE   O1218323   6.609   4.257   2.633
  164SAPE   O1118324   6.438   4.407   2.542
  164SAPE    C118325   6.413   4.507   2.641
  164SAPE    HA18326   6.498   4.525   2.710
  164SAPE    HB18327   6.404   4.608   2.594
  164SAPE    C218328   6.278   4.482   2.727
  164SAPE    HS18329   6.269   4.574   2.789
  164SAPE   O2118330   6.290   4.368   2.812
  164SAPE   C2118331   6.372   4.385   2.919
  164SAPE   O2218332   6.442   4.481   2.940
  164SAPE   C2218333   6.348   4.272   3.021
  164SAPE   H2R18334   6.270   4.203   2.982
  164SAPE   H2S18335   6.440   4.213   3.040
  164SAPE    C318336   6.144   4.470   2.650
  164SAPE    HX18337   6.124   4.363   2.627
  164SAPE    HY18338   6.161   4.526   2.555
  164SAPE   O3118339   6.040   4.516   2.732
  164SAPE   C3118340   6.011   4.645   2.735
  164SAPE   O3218341   6.050   4.728   2.657
  164SAPE   C3218342   5.911   4.662   2.845
  164SAPE   H2X18343   5.890   4.565   2.894
  164SAPE   H2Y18344   5.815   4.708   2.812
  164SAPE   C2318345   6.305   4.313   3.164
  164SAPE   H3R18346   6.263   4.220   3.209
  164SAPE   H3S18347   6.220   4.384   3.165
  164SAPE   C2418348   6.415   4.375   3.255
  164SAPE   H4R18349   6.361   4.426   3.338
  164SAPE   H4S18350   6.472   4.448   3.194
  164SAPE   C2518351   6.512   4.275   3.313
  164SAPE   H5R18352   6.533   4.199   3.236
  164SAPE   C2618353   6.552   4.253   3.438
  164SAPE   H6R18354   6.613   4.165   3.466
  164SAPE   C2718355   6.519   4.339   3.557
  164SAPE   H7R18356   6.558   4.284   3.646
  164SAPE   H7S18357   6.410   4.344   3.575
  164SAPE   C2818358   6.560   4.484   3.556
  164SAPE   H8R18359   6.606   4.526   3.465
  164SAPE   C2918360   6.576   4.560   3.670
  164SAPE   H9R18361   6.583   4.669   3.666
  164SAPE  C21018362   6.534   4.501   3.805
  164SAPE  H10R18363   6.624   4.460   3.856
  164SAPE  H10S18364   6.463   4.416   3.806
  164SAPE  C21118365   6.469   4.610   3.881
  164SAPE  H11R18366   6.383   4.665   3.839
  164SAPE  C21218367   6.494   4.640   4.009
  164SAPE  H12R18368   6.427   4.708   4.063
  164SAPE  C21318369   6.613   4.572   4.084
  164SAPE  H13R18370   6.704   4.600   4.026
  164SAPE  H13S18371   6.605   4.462   4.072
  164SAPE  C21418372   6.624   4.619   4.228
  164SAPE  H14R18373   6.656   4.724   4.230
  164SAPE  C21518374   6.603   4.558   4.340
  164SAPE  H15R18375   6.614   4.611   4.436
  164SAPE  C21618376   6.567   4.416   4.356
  164SAPE  H16R18377   6.564   4.366   4.257
  164SAPE  H16S18378   6.476   4.399   4.417
  164SAPE  C21718379   6.677   4.338   4.425
  164SAPE  H17R18380   6.778   4.384   4.418
  164SAPE  H17S18381   6.696   4.240   4.376
  164SAPE  C21818382   6.634   4.311   4.571
  164SAPE  H18R18383   6.546   4.243   4.575
  164SAPE  H18S18384   6.615   4.414   4.608
  164SAPE  C21918385   6.747   4.231   4.639
  164SAPE  H19R18386   6.842   4.287   4.622
  164SAPE  H19S18387   6.747   4.128   4.597
  164SAPE  C22018388   6.712   4.226   4.790
  164SAPE  H20R18389   6.695   4.328   4.829
  164SAPE  H20S18390   6.799   4.183   4.844
  164SAPE  H20T18391   6.614   4.175   4.804
  164SAPE   C3318392   5.980   4.744   2.964
  164SAPE   H3X18393   5.896   4.793   3.017
  164SAPE   H3Y18394   6.041   4.832   2.932
  164SAPE   C3418395   6.064   4.657   3.055
  164SAPE   H4X18396   6.163   4.635   3.010
  164SAPE   H4Y18397   6.005   4.563   3.067
  164SAPE   C3518398   6.094   4.720   3.196
  164SAPE   H5X18399   6.000   4.748   3.249
  164SAPE   H5Y18400   6.142   4.818   3.176
  164SAPE   C3618401   6.188   4.641   3.280
  164SAPE   H6X18402   6.282   4.626   3.221
  164SAPE   H6Y18403   6.144   4.539   3.289
  164SAPE   C3718404   6.220   4.696   3.415
  164SAPE   H7X18405   6.279   4.786   3.387
  164SAPE   H7Y18406   6.299   4.640   3.469
  164SAPE   C3818407   6.105   4.727   3.508
  164SAPE   H8X18408   6.039   4.640   3.530
  164SAPE   H8Y18409   6.039   4.800   3.457
  164SAPE   C3918410   6.149   4.779   3.643
  164SAPE   H9X18411   6.211   4.871   3.638
  164SAPE   H9Y18412   6.232   4.709   3.668
  164SAPE  C31018413   6.039   4.782   3.750
  164SAPE  H10X18414   5.982   4.687   3.742
  164SAPE  H10Y18415   5.973   4.868   3.727
  164SAPE  C31118416   6.094   4.795   3.894
  164SAPE  H11X18417   6.167   4.879   3.898
  164SAPE  H11Y18418   6.147   4.700   3.916
  164SAPE  C31218419   5.991   4.819   4.006
  164SAPE  H12X18420   5.955   4.923   3.990
  164SAPE  H12Y18421   6.050   4.836   4.099
  164SAPE  C31318422   5.879   4.713   4.010
  164SAPE  H13X18423   5.816   4.705   3.919
  164SAPE  H13Y18424   5.817   4.737   4.098
  164SAPE  C31418425   5.918   4.569   4.043
  164SAPE  H14X18426   5.973   4.544   3.949
  164SAPE  H14Y18427   5.822   4.514   4.041
  164SAPE  C31518428   5.991   4.553   4.180
  164SAPE  H15X18429   5.919   4.556   4.265
  164SAPE  H15Y18430   6.053   4.645   4.182
  164SAPE  C31618431   6.070   4.424   4.191
  164SAPE  H16X18432   6.020   4.337   4.142
  164SAPE  H16Y18433   6.085   4.397   4.297
  164SAPE  C31718434   6.205   4.432   4.111
  164SAPE  H17X18435   6.260   4.517   4.157
  164SAPE  H17Y18436   6.181   4.467   4.009
  164SAPE  C31818437   6.286   4.305   4.109
  164SAPE  H18X18438   6.221   4.221   4.075
  164SAPE  H18Y18439   6.318   4.275   4.211
  164SAPE  H18Z18440   6.374   4.308   4.041
  165SAPE     N18441   5.750   0.979   2.531
  165SAPE   HN118442   5.680   0.923   2.479
  165SAPE   HN218443   5.772   0.928   2.619
  165SAPE   HN318444   5.711   1.075   2.538
  165SAPE   C1218445   5.876   0.982   2.445
  165SAPE  H12A18446   5.962   0.964   2.513
  165SAPE  H12B18447   5.884   1.082   2.396
  165SAPE   C1118448   5.863   0.877   2.336
  165SAPE  H11A18449   5.948   0.880   2.264
  165SAPE  H11B18450   5.764   0.894   2.289
  165SAPE     P18451   5.885   0.623   2.324
  165SAPE   O1318452   5.770   0.603   2.229
  165SAPE   O1418453   6.014   0.611   2.260
  165SAPE   O1218454   5.865   0.754   2.414
  165SAPE   O1118455   5.874   0.502   2.429
  165SAPE    C118456   5.749   0.482   2.495
  165SAPE    HA18457   5.661   0.476   2.427
  165SAPE    HB18458   5.745   0.385   2.548
  165SAPE    C218459   5.719   0.587   2.609
  165SAPE    HS18460   5.713   0.688   2.564
  165SAPE   O2118461   5.822   0.582   2.707
  165SAPE   C2118462   5.855   0.690   2.766
  165SAPE   O2218463   5.835   0.805   2.722
  165SAPE   C2218464   5.942   0.656   2.889
  165SAPE   H2R18465   6.018   0.736   2.899
  165SAPE   H2S18466   5.872   0.680   2.972
  165SAPE    C318467   5.576   0.549   2.677
  165SAPE    HX18468   5.495   0.542   2.601
  165SAPE    HY18469   5.538   0.626   2.748
  165SAPE   O3118470   5.577   0.413   2.733
  165SAPE   C3118471   5.623   0.408   2.863
  165SAPE   O3218472   5.611   0.500   2.943
  165SAPE   C3218473   5.674   0.273   2.906
  165SAPE   H2X18474   5.752   0.246   2.831
  165SAPE   H2Y18475   5.589   0.202   2.910
  165SAPE   C2318476   5.999   0.513   2.894
  165SAPE   H3R18477   6.026   0.488   2.789
  165SAPE   H3S18478   5.922   0.446   2.935
  165SAPE   C2418479   6.137   0.513   2.961
  165SAPE   H4R18480   6.198   0.583   2.900
  165SAPE   H4S18481   6.188   0.418   2.936
  165SAPE   C2518482   6.139   0.559   3.105
  165SAPE   H5R18483   6.123   0.667   3.111
  165SAPE   C2618484   6.146   0.475   3.207
  165SAPE   H6R18485   6.138   0.518   3.308
  165SAPE   C2718486   6.154   0.323   3.191
  165SAPE   H7R18487   6.262   0.296   3.187
  165SAPE   H7S18488   6.102   0.279   3.103
  165SAPE   C2818489   6.096   0.258   3.315
  165SAPE   H8R18490   5.994   0.221   3.296
  165SAPE   C2918491   6.152   0.240   3.444
  165SAPE   H9R18492   6.103   0.161   3.503
  165SAPE  C21018493   6.283   0.291   3.493
  165SAPE  H10R18494   6.298   0.390   3.445
  165SAPE  H10S18495   6.365   0.221   3.468
  165SAPE  C21118496   6.292   0.305   3.647
  165SAPE  H11R18497   6.283   0.204   3.689
  165SAPE  C21218498   6.299   0.408   3.735
  165SAPE  H12R18499   6.318   0.385   3.841
  165SAPE  C21318500   6.296   0.557   3.697
  165SAPE  H13R18501   6.205   0.606   3.738
  165SAPE  H13S18502   6.299   0.564   3.586
  165SAPE  C21418503   6.404   0.641   3.751
  165SAPE  H14R18504   6.471   0.683   3.675
  165SAPE  C21518505   6.416   0.683   3.881
  165SAPE  H15R18506   6.503   0.746   3.905
  165SAPE  C21618507   6.327   0.643   3.994
  165SAPE  H16R18508   6.231   0.593   3.972
  165SAPE  H16S18509   6.294   0.734   4.049
  165SAPE  C21718510   6.403   0.553   4.098
  165SAPE  H17R18511   6.513   0.563   4.096
  165SAPE  H17S18512   6.373   0.456   4.053
  165SAPE  C21818513   6.335   0.569   4.234
  165SAPE  H18R18514   6.232   0.528   4.238
  165SAPE  H18S18515   6.333   0.678   4.256
  165SAPE  C21918516   6.421   0.497   4.343
  165SAPE  H19R18517   6.521   0.543   4.356
  165SAPE  H19S18518   6.447   0.394   4.311
  165SAPE  C22018519   6.359   0.494   4.482
  165SAPE  H20R18520   6.434   0.466   4.558
  165SAPE  H20S18521   6.269   0.430   4.492
  165SAPE  H20T18522   6.319   0.594   4.509
  165SAPE   C3318523   5.727   0.265   3.045
  165SAPE   H3X18524   5.787   0.353   3.078
  165SAPE   H3Y18525   5.814   0.196   3.051
  165SAPE   C3418526   5.625   0.250   3.159
  165SAPE   H4X18527   5.553   0.171   3.129
  165SAPE   H4Y18528   5.557   0.338   3.167
  165SAPE   C3518529   5.677   0.236   3.304
  165SAPE   H5X18530   5.757   0.159   3.304
  165SAPE   H5Y18531   5.600   0.188   3.368
  165SAPE   C3618532   5.726   0.366   3.365
  165SAPE   H6X18533   5.643   0.439   3.361
  165SAPE   H6Y18534   5.818   0.396   3.311
  165SAPE   C3718535   5.775   0.343   3.510
  165SAPE   H7X18536   5.838   0.252   3.515
  165SAPE   H7Y18537   5.687   0.323   3.574
  165SAPE   C3818538   5.861   0.460   3.556
  165SAPE   H8X18539   5.805   0.556   3.554
  165SAPE   H8Y18540   5.941   0.477   3.480
  165SAPE   C3918541   5.919   0.429   3.698
  165SAPE   H9X18542   5.996   0.509   3.714
  165SAPE   H9Y18543   5.963   0.329   3.678
  165SAPE  C31018544   5.810   0.437   3.814
  165SAPE  H10X18545   5.738   0.354   3.799
  165SAPE  H10Y18546   5.757   0.534   3.803
  165SAPE  C31118547   5.875   0.416   3.953
  165SAPE  H11X18548   5.986   0.403   3.946
  165SAPE  H11Y18549   5.829   0.325   3.997
  165SAPE  C31218550   5.839   0.525   4.055
  165SAPE  H12X18551   5.731   0.532   4.080
  165SAPE  H12Y18552   5.877   0.621   4.014
  165SAPE  C31318553   5.926   0.505   4.177
  165SAPE  H13X18554   6.029   0.533   4.147
  165SAPE  H13Y18555   5.932   0.396   4.199
  165SAPE  C31418556   5.886   0.587   4.293
  165SAPE  H14X18557   5.791   0.552   4.340
  165SAPE  H14Y18558   5.868   0.688   4.252
  165SAPE  C31518559   6.000   0.593   4.404
  165SAPE  H15X18560   6.079   0.651   4.351
  165SAPE  H15Y18561   6.038   0.493   4.432
  165SAPE  C31618562   5.944   0.666   4.528
  165SAPE  H16X18563   5.854   0.613   4.565
  165SAPE  H16Y18564   5.915   0.766   4.490
  165SAPE  C31718565   6.045   0.673   4.643
  165SAPE  H17X18566   6.137   0.721   4.601
  165SAPE  H17Y18567   6.065   0.571   4.680
  165SAPE  C31818568   5.999   0.734   4.781
  165SAPE  H18X18569   5.900   0.693   4.808
  165SAPE  H18Y18570   5.989   0.844   4.769
  165SAPE  H18Z18571   6.060   0.694   4.865
  166SAPE     N18572   0.056   5.790   2.706
  166SAPE   HN118573   0.021   5.783   2.804
  166SAPE   HN218574   0.158   5.812   2.701
  166SAPE   HN318575   0.009   5.874   2.666
  166SAPE   C1218576   0.035   5.669   2.616
  166SAPE  H12A18577   0.075   5.587   2.680
  166SAPE  H12B18578   0.089   5.693   2.522
  166SAPE   C1118579   6.770   5.631   2.575
  166SAPE  H11A18580   6.717   5.706   2.512
  166SAPE  H11B18581   6.710   5.612   2.666
  166SAPE     P18582   6.685   5.390   2.507
  166SAPE   O1318583   6.565   5.434   2.434
  166SAPE   O1418584   6.742   5.262   2.468
  166SAPE   O1218585   6.789   5.508   2.499
  166SAPE   O1118586   6.640   5.379   2.655
  166SAPE    C118587   6.719   5.378   2.771
  166SAPE    HA18588   6.726   5.271   2.801
  166SAPE    HB18589   6.827   5.395   2.750
  166SAPE    C218590   6.662   5.448   2.892
  166SAPE    HS18591   6.645   5.557   2.877
  166SAPE   O2118592   6.755   5.426   3.002
  166SAPE   C2118593   6.848   5.518   3.007
  166SAPE   O2218594   6.858   5.612   2.927
  166SAPE   C2218595   0.057   5.485   3.126
  166SAPE   H2R18596   6.878   5.449   3.213
  166SAPE   H2S18597   0.133   5.406   3.108
  166SAPE    C318598   6.521   5.389   2.917
  166SAPE    HX18599   6.511   5.279   2.912
  166SAPE    HY18600   6.458   5.422   2.832
  166SAPE   O3118601   6.471   5.420   3.048
  166SAPE   C3118602   6.412   5.540   3.059
  166SAPE   O3218603   6.390   5.610   2.963
  166SAPE   C3218604   6.359   5.564   3.194
  166SAPE   H2X18605   6.433   5.521   3.264
  166SAPE   H2Y18606   6.268   5.505   3.214
  166SAPE   C2318607   0.139   5.609   3.184
  166SAPE   H3R18608   0.190   5.576   3.277
  166SAPE   H3S18609   0.065   5.688   3.208
  166SAPE   C2418610   0.246   5.678   3.099
  166SAPE   H4R18611   0.274   5.769   3.156
  166SAPE   H4S18612   0.199   5.722   3.007
  166SAPE   C2518613   0.368   5.598   3.062
  166SAPE   H5R18614   0.385   5.584   2.954
  166SAPE   C2618615   0.466   5.558   3.150
  166SAPE   H6R18616   0.540   5.491   3.103
  166SAPE   C2718617   0.470   5.573   3.297
  166SAPE   H7R18618   0.396   5.640   3.347
  166SAPE   H7S18619   0.564   5.629   3.317
  166SAPE   C2818620   0.479   5.450   3.384
  166SAPE   H8R18621   0.511   5.358   3.331
  166SAPE   C2918622   0.431   5.430   3.506
  166SAPE   H9R18623   0.435   5.324   3.536
  166SAPE  C21018624   0.382   5.542   3.599
  166SAPE  H10R18625   0.311   5.607   3.543
  166SAPE  H10S18626   0.467   5.611   3.621
  166SAPE  C21118627   0.334   5.486   3.735
  166SAPE  H11R18628   0.410   5.422   3.782
  166SAPE  C21218629   0.215   5.513   3.788
  166SAPE  H12R18630   0.192   5.484   3.891
  166SAPE  C21318631   0.111   5.612   3.740
  166SAPE  H13R18632   0.154   5.713   3.723
  166SAPE  H13S18633   0.047   5.630   3.830
  166SAPE  C21418634   0.036   5.578   3.617
  166SAPE  H14R18635   0.042   5.472   3.586
  166SAPE  C21518636   6.853   5.665   3.530
  166SAPE  H15R18637   6.792   5.622   3.448
  166SAPE  C21618638   6.837   5.817   3.537
  166SAPE  H16R18639   0.039   5.862   3.478
  166SAPE  H16S18640   6.841   5.844   3.645
  166SAPE  C21718641   6.707   5.881   3.482
  166SAPE  H17R18642   6.688   5.987   3.511
  166SAPE  H17S18643   6.624   5.816   3.518
  166SAPE  C21818644   6.688   5.892   3.327
  166SAPE  H18R18645   6.584   5.926   3.307
  166SAPE  H18S18646   6.696   5.794   3.277
  166SAPE  C21918647   6.794   5.982   3.259
  166SAPE  H19R18648   0.016   5.939   3.271
  166SAPE  H19S18649   6.784   6.077   3.315
  166SAPE  C22018650   6.754   6.005   3.113
  166SAPE  H20R18651   6.649   6.028   3.089
  166SAPE  H20S18652   6.775   5.911   3.058
  166SAPE  H20T18653   6.814   6.084   3.062
  166SAPE   C3318654   6.326   5.710   3.223
  166SAPE   H3X18655   6.243   5.745   3.159
  166SAPE   H3Y18656   6.414   5.778   3.215
  166SAPE   C3418657   6.277   5.721   3.372
  166SAPE   H4X18658   6.340   5.651   3.431
  166SAPE   H4Y18659   6.171   5.689   3.372
  166SAPE   C3518660   6.307   5.854   3.434
  166SAPE   H5X18661   6.231   5.929   3.404
  166SAPE   H5Y18662   6.402   5.897   3.396
  166SAPE   C3618663   6.326   5.837   3.580
  166SAPE   H6X18664   6.418   5.779   3.602
  166SAPE   H6Y18665   6.237   5.781   3.615
  166SAPE   C3718666   6.328   5.973   3.659
  166SAPE   H7X18667   6.236   6.033   3.644
  166SAPE   H7Y18668   6.410   6.042   3.632
  166SAPE   C3818669   6.353   5.958   3.807
  166SAPE   H8X18670   6.324   5.852   3.828
  166SAPE   H8Y18671   6.287   6.017   3.873
  166SAPE   C3918672   6.495   5.985   3.856
  166SAPE   H9X18673   6.511   6.095   3.853
  166SAPE   H9Y18674   6.556   5.932   3.780
  166SAPE  C31018675   6.518   5.933   3.996
  166SAPE  H10X18676   6.497   5.824   3.998
  166SAPE  H10Y18677   6.463   5.995   4.070
  166SAPE  C31118678   6.667   5.955   4.038
  166SAPE  H11X18679   6.702   6.060   4.042
  166SAPE  H11Y18680   6.725   5.904   3.958
  166SAPE  C31218681   6.703   5.886   4.164
  166SAPE  H12X18682   6.812   5.888   4.187
  166SAPE  H12Y18683   6.687   5.776   4.157
  166SAPE  C31318684   6.624   5.931   4.291
  166SAPE  H13X18685   6.629   5.857   4.373
  166SAPE  H13Y18686   6.516   5.937   4.265
  166SAPE  C31418687   6.657   6.068   4.342
  166SAPE  H14X18688   6.595   6.085   4.433
  166SAPE  H14Y18689   6.626   6.142   4.266
  166SAPE  C31518690   6.809   6.096   4.364
  166SAPE  H15X18691   6.861   6.089   4.266
  166SAPE  H15Y18692   6.855   6.020   4.431
  166SAPE  C31618693   6.834   6.236   4.427
  166SAPE  H16X18694   6.783   6.238   4.525
  166SAPE  H16Y18695   6.789   6.317   4.366
  166SAPE  C31718696   0.099   6.276   4.452
  166SAPE  H17X18697   0.149   6.280   4.352
  166SAPE  H17Y18698   0.154   6.189   4.494
  166SAPE  C31818699   0.121   6.393   4.543
  166SAPE  H18X18700   0.077   6.488   4.508
  166SAPE  H18Y18701   0.231   6.409   4.543
  166SAPE  H18Z18702   0.094   6.377   4.649
  167SAPE     N18703   6.223   3.158   1.899
  167SAPE   HN118704   6.146   3.111   1.847
  167SAPE   HN218705   6.226   3.258   1.870
  167SAPE   HN318706   6.310   3.106   1.873
  167SAPE   C1218707   6.197   3.133   2.042
  167SAPE  H12A18708   6.157   3.030   2.056
  167SAPE  H12B18709   6.109   3.198   2.064
  167SAPE   C1118710   6.319   3.184   2.122
  167SAPE  H11A18711   6.394   3.104   2.107
  167SAPE  H11B18712   6.309   3.187   2.233
  167SAPE     P18713   6.509   3.366   2.121
  167SAPE   O1318714   6.622   3.298   2.050
  167SAPE   O1418715   6.496   3.511   2.100
  167SAPE   O1218716   6.373   3.308   2.076
  167SAPE   O1118717   6.518   3.330   2.273
  167SAPE    C118718   6.426   3.391   2.368
  167SAPE    HA18719   6.319   3.384   2.338
  167SAPE    HB18720   6.445   3.353   2.471
  167SAPE    C218721   6.467   3.543   2.401
  167SAPE    HS18722   6.459   3.601   2.307
  167SAPE   O2118723   6.602   3.539   2.432
  167SAPE   C2118724   6.670   3.654   2.436
  167SAPE   O2218725   6.634   3.761   2.384
  167SAPE   C2218726   6.803   3.623   2.504
  167SAPE   H2R18727   6.802   3.541   2.578
  167SAPE   H2S18728   6.879   3.608   2.424
  167SAPE    C318729   6.372   3.617   2.503
  167SAPE    HX18730   6.265   3.614   2.473
  167SAPE    HY18731   6.403   3.724   2.507
  167SAPE   O3118732   6.378   3.548   2.626
  167SAPE   C3118733   6.461   3.596   2.715
  167SAPE   O3218734   6.514   3.704   2.707
  167SAPE   C3218735   6.455   3.505   2.837
  167SAPE   H2X18736   6.466   3.400   2.803
  167SAPE   H2Y18737   6.356   3.500   2.889
  167SAPE   C2318738   6.853   3.748   2.576
  167SAPE   H3R18739   6.775   3.779   2.649
  167SAPE   H3S18740   6.864   3.828   2.499
  167SAPE   C2418741   0.102   3.732   2.648
  167SAPE   H4R18742   0.140   3.836   2.652
  167SAPE   H4S18743   0.173   3.670   2.589
  167SAPE   C2518744   0.084   3.669   2.791
  167SAPE   H5R18745   0.051   3.565   2.806
  167SAPE   C2618746   0.093   3.735   2.910
  167SAPE   H6R18747   0.058   3.688   3.003
  167SAPE   C2718748   0.142   3.881   2.923
  167SAPE   H7R18749   0.191   3.919   2.830
  167SAPE   H7S18750   0.232   3.887   2.988
  167SAPE   C2818751   0.043   3.983   2.980
  167SAPE   H8R18752   0.003   4.052   2.904
  167SAPE   C2918753   6.878   3.998   3.112
  167SAPE   H9R18754   6.810   4.082   3.135
  167SAPE  C21018755   0.020   3.897   3.222
  167SAPE  H10R18756   0.072   3.944   3.308
  167SAPE  H10S18757   0.090   3.816   3.192
  167SAPE  C21118758   6.768   3.829   3.251
  167SAPE  H11R18759   6.690   3.834   3.174
  167SAPE  C21218760   6.746   3.764   3.369
  167SAPE  H12R18761   6.645   3.720   3.375
  167SAPE  C21318762   6.843   3.764   3.487
  167SAPE  H13R18763   6.849   3.868   3.526
  167SAPE  H13S18764   0.069   3.738   3.463
  167SAPE  C21418765   6.793   3.676   3.596
  167SAPE  H14R18766   6.803   3.568   3.579
  167SAPE  C21518767   6.731   3.716   3.706
  167SAPE  H15R18768   6.700   3.640   3.780
  167SAPE  C21618769   6.728   3.858   3.761
  167SAPE  H16R18770   6.821   3.908   3.727
  167SAPE  H16S18771   6.726   3.848   3.871
  167SAPE  C21718772   6.610   3.951   3.724
  167SAPE  H17R18773   6.613   3.929   3.616
  167SAPE  H17S18774   6.650   4.052   3.746
  167SAPE  C21818775   6.466   3.920   3.781
  167SAPE  H18R18776   6.436   3.820   3.743
  167SAPE  H18S18777   6.390   3.994   3.749
  167SAPE  C21918778   6.460   3.916   3.935
  167SAPE  H19R18779   6.353   3.933   3.959
  167SAPE  H19S18780   6.520   4.002   3.971
  167SAPE  C22018781   6.492   3.782   3.997
  167SAPE  H20R18782   6.431   3.769   4.089
  167SAPE  H20S18783   6.599   3.766   4.020
  167SAPE  H20T18784   6.450   3.706   3.927
  167SAPE   C3318785   6.569   3.527   2.934
  167SAPE   H3X18786   6.585   3.634   2.959
  167SAPE   H3Y18787   6.664   3.498   2.885
  167SAPE   C3418788   6.553   3.452   3.063
  167SAPE   H4X18789   6.548   3.345   3.032
  167SAPE   H4Y18790   6.452   3.469   3.106
  167SAPE   C3518791   6.648   3.466   3.176
  167SAPE   H5X18792   6.620   3.380   3.240
  167SAPE   H5Y18793   6.631   3.564   3.226
  167SAPE   C3618794   6.802   3.468   3.141
  167SAPE   H6X18795   6.831   3.567   3.099
  167SAPE   H6Y18796   6.818   3.395   3.058
  167SAPE   C3718797   0.007   3.426   3.260
  167SAPE   H7X18798   6.871   3.318   3.283
  167SAPE   H7Y18799   6.856   3.477   3.353
  167SAPE   C3818800   0.152   3.458   3.244
  167SAPE   H8X18801   0.169   3.568   3.236
  167SAPE   H8Y18802   0.181   3.419   3.144
  167SAPE   C3918803   0.238   3.398   3.355
  167SAPE   H9X18804   0.343   3.406   3.320
  167SAPE   H9Y18805   0.214   3.291   3.371
  167SAPE  C31018806   0.217   3.470   3.493
  167SAPE  H10X18807   0.109   3.474   3.520
  167SAPE  H10Y18808   0.255   3.574   3.491
  167SAPE  C31118809   0.298   3.393   3.596
  167SAPE  H11X18810   0.399   3.395   3.550
  167SAPE  H11Y18811   0.257   3.289   3.601
  167SAPE  C31218812   0.305   3.462   3.732
  167SAPE  H12X18813   0.199   3.493   3.749
  167SAPE  H12Y18814   0.358   3.559   3.725
  167SAPE  C31318815   0.352   3.366   3.844
  167SAPE  H13X18816   0.460   3.389   3.856
  167SAPE  H13Y18817   0.336   3.259   3.816
  167SAPE  C31418818   0.290   3.399   3.975
  167SAPE  H14X18819   0.181   3.385   3.957
  167SAPE  H14Y18820   0.302   3.507   4.000
  167SAPE  C31518821   0.326   3.303   4.089
  167SAPE  H15X18822   0.430   3.326   4.121
  167SAPE  H15Y18823   0.318   3.200   4.048
  167SAPE  C31618824   0.237   3.324   4.208
  167SAPE  H16X18825   0.289   3.260   4.283
  167SAPE  H16Y18826   0.135   3.287   4.184
  167SAPE  C31718827   0.226   3.471   4.254
  167SAPE  H17X18828   0.165   3.521   4.176
  167SAPE  H17Y18829   0.327   3.516   4.245
  167SAPE  C31818830   0.145   3.493   4.380
  167SAPE  H18X18831   0.188   3.435   4.465
  167SAPE  H18Y18832   0.045   3.454   4.353
  167SAPE  H18Z18833   0.146   3.602   4.404
  168SAPE     N18834   3.660   5.739   2.048
  168SAPE   HN118835   3.633   5.646   2.086
  168SAPE   HN218836   3.763   5.735   2.039
  168SAPE   HN318837   3.634   5.811   2.118
  168SAPE   C1218838   3.594   5.776   1.919
  168SAPE  H12A18839   3.672   5.786   1.840
  168SAPE  H12B18840   3.539   5.870   1.938
  168SAPE   C1118841   3.489   5.658   1.897
  168SAPE  H11A18842   3.551   5.572   1.863
  168SAPE  H11B18843   3.436   5.687   1.803
  168SAPE     P18844   3.265   5.569   1.975
  168SAPE   O1318845   3.193   5.678   1.906
  168SAPE   O1418846   3.279   5.440   1.897
  168SAPE   O1218847   3.414   5.617   2.008
  168SAPE   O1118848   3.202   5.550   2.122
  168SAPE    C118849   3.254   5.628   2.233
  168SAPE    HA18850   3.355   5.592   2.260
  168SAPE    HB18851   3.264   5.734   2.202
  168SAPE    C218852   3.154   5.623   2.350
  168SAPE    HS18853   3.053   5.652   2.312
  168SAPE   O2118854   3.194   5.718   2.445
  168SAPE   C2118855   3.102   5.772   2.517
  168SAPE   O2218856   2.985   5.752   2.511
  168SAPE   C2218857   3.168   5.865   2.623
  168SAPE   H2R18858   3.275   5.878   2.598
  168SAPE   H2S18859   3.123   5.966   2.612
  168SAPE    C318860   3.141   5.487   2.416
  168SAPE    HX18861   3.232   5.478   2.481
  168SAPE    HY18862   3.136   5.409   2.337
  168SAPE   O3118863   3.029   5.472   2.507
  168SAPE   C3118864   2.913   5.425   2.474
  168SAPE   O3218865   2.880   5.397   2.359
  168SAPE   C3218866   2.822   5.411   2.594
  168SAPE   H2X18867   2.845   5.503   2.652
  168SAPE   H2Y18868   2.873   5.328   2.648
  168SAPE   C2318869   3.136   5.812   2.764
  168SAPE   H3R18870   3.192   5.720   2.790
  168SAPE   H3S18871   3.027   5.789   2.767
  168SAPE   C2418872   3.164   5.909   2.882
  168SAPE   H4R18873   3.268   5.947   2.870
  168SAPE   H4S18874   3.171   5.847   2.974
  168SAPE   C2518875   3.075   6.029   2.876
  168SAPE   H5R18876   3.099   6.099   2.795
  168SAPE   C2618877   2.976   6.060   2.962
  168SAPE   H6R18878   2.911   6.148   2.950
  168SAPE   C2718879   2.934   5.973   3.082
  168SAPE   H7R18880   2.896   5.874   3.048
  168SAPE   H7S18881   2.851   6.025   3.135
  168SAPE   C2818882   3.036   5.934   3.191
  168SAPE   H8R18883   3.144   5.941   3.172
  168SAPE   C2918884   3.002   5.907   3.320
  168SAPE   H9R18885   3.083   5.900   3.395
  168SAPE  C21018886   2.861   5.905   3.376
  168SAPE  H10R18887   2.845   5.796   3.393
  168SAPE  H10S18888   2.781   5.924   3.302
  168SAPE  C21118889   2.816   5.985   3.494
  168SAPE  H11R18890   2.768   6.081   3.467
  168SAPE  C21218891   2.819   5.960   3.627
  168SAPE  H12R18892   2.758   6.030   3.685
  168SAPE  C21318893   2.872   5.849   3.707
  168SAPE  H13R18894   2.956   5.888   3.768
  168SAPE  H13S18895   2.916   5.771   3.642
  168SAPE  C21418896   2.768   5.797   3.808
  168SAPE  H14R18897   2.704   5.712   3.779
  168SAPE  C21518898   2.761   5.851   3.934
  168SAPE  H15R18899   2.682   5.815   4.001
  168SAPE  C21618900   2.837   5.970   3.997
  168SAPE  H16R18901   2.875   6.045   3.925
  168SAPE  H16S18902   2.913   5.938   4.071
  168SAPE  C21718903   2.729   6.054   4.075
  168SAPE  H17R18904   2.707   5.996   4.167
  168SAPE  H17S18905   2.632   6.059   4.020
  168SAPE  C21818906   2.782   6.195   4.108
  168SAPE  H18R18907   2.800   6.251   4.014
  168SAPE  H18S18908   2.878   6.187   4.163
  168SAPE  C21918909   2.681   6.276   4.181
  168SAPE  H19R18910   2.656   6.226   4.277
  168SAPE  H19S18911   2.579   6.284   4.137
  168SAPE  C22018912   2.745   6.412   4.205
  168SAPE  H20R18913   2.683   6.469   4.278
  168SAPE  H20S18914   2.746   6.469   4.110
  168SAPE  H20T18915   2.852   6.409   4.235
  168SAPE   C3318916   2.677   5.378   2.559
  168SAPE   H3X18917   2.680   5.291   2.490
  168SAPE   H3Y18918   2.627   5.455   2.497
  168SAPE   C3418919   2.593   5.340   2.681
  168SAPE   H4X18920   2.504   5.298   2.629
  168SAPE   H4Y18921   2.557   5.428   2.740
  168SAPE   C3518922   2.650   5.236   2.768
  168SAPE   H5X18923   2.735   5.283   2.822
  168SAPE   H5Y18924   2.691   5.145   2.721
  168SAPE   C3618925   2.546   5.192   2.876
  168SAPE   H6X18926   2.459   5.134   2.838
  168SAPE   H6Y18927   2.526   5.285   2.934
  168SAPE   C3718928   2.620   5.107   2.978
  168SAPE   H7X18929   2.690   5.052   2.911
  168SAPE   H7Y18930   2.556   5.028   3.021
  168SAPE   C3818931   2.701   5.182   3.075
  168SAPE   H8X18932   2.662   5.286   3.082
  168SAPE   H8Y18933   2.804   5.202   3.036
  168SAPE   C3918934   2.738   5.104   3.206
  168SAPE   H9X18935   2.794   5.176   3.269
  168SAPE   H9Y18936   2.792   5.010   3.181
  168SAPE  C31018937   2.620   5.070   3.297
  168SAPE  H10X18938   2.551   5.003   3.241
  168SAPE  H10Y18939   2.548   5.153   3.308
  168SAPE  C31118940   2.658   5.002   3.433
  168SAPE  H11X18941   2.719   5.075   3.490
  168SAPE  H11Y18942   2.720   4.912   3.410
  168SAPE  C31218943   2.547   4.962   3.539
  168SAPE  H12X18944   2.491   4.879   3.490
  168SAPE  H12Y18945   2.478   5.048   3.546
  168SAPE  C31318946   2.609   4.910   3.670
  168SAPE  H13X18947   2.679   4.991   3.700
  168SAPE  H13Y18948   2.675   4.824   3.644
  168SAPE  C31418949   2.507   4.889   3.782
  168SAPE  H14X18950   2.435   4.817   3.739
  168SAPE  H14Y18951   2.446   4.982   3.782
  168SAPE  C31518952   2.565   4.850   3.921
  168SAPE  H15X18953   2.630   4.933   3.954
  168SAPE  H15Y18954   2.626   4.759   3.906
  168SAPE  C31618955   2.465   4.840   4.035
  168SAPE  H16X18956   2.405   4.750   4.013
  168SAPE  H16Y18957   2.406   4.930   4.063
  168SAPE  C31718958   2.540   4.831   4.171
  168SAPE  H17X18959   2.579   4.931   4.202
  168SAPE  H17Y18960   2.619   4.760   4.139
  168SAPE  C31818961   2.460   4.775   4.300
  168SAPE  H18X18962   2.440   4.666   4.288
  168SAPE  H18Y18963   2.365   4.832   4.309
  168SAPE  H18Z18964   2.517   4.788   4.394
  169SAPE     N18965   6.873   3.218   2.146
  169SAPE   HN118966   6.774   3.201   2.119
  169SAPE   HN218967   0.002   3.236   2.248
  169SAPE   HN318968   0.016   3.313   2.110
  169SAPE   C1218969   0.073   3.105   2.087
  169SAPE  H12A18970   0.126   3.060   2.174
  169SAPE  H12B18971   0.151   3.147   2.020
  169SAPE   C1118972   6.856   3.006   2.029
  169SAPE  H11A18973   0.034   2.913   2.010
  169SAPE  H11B18974   6.810   3.046   1.936
  169SAPE     P18975   6.672   2.852   2.098
  169SAPE   O1318976   6.626   2.831   1.959
  169SAPE   O1418977   6.768   2.749   2.156
  169SAPE   O1218978   6.747   2.989   2.114
  169SAPE   O1118979   6.554   2.871   2.194
  169SAPE    C118980   6.564   2.954   2.311
  169SAPE    HA18981   6.668   2.983   2.337
  169SAPE    HB18982   6.509   3.046   2.282
  169SAPE    C218983   6.522   2.875   2.438
  169SAPE    HS18984   6.416   2.842   2.430
  169SAPE   O2118985   6.538   2.962   2.549
  169SAPE   C2118986   6.439   3.045   2.573
  169SAPE   O2218987   6.344   3.076   2.505
  169SAPE   C2218988   6.463   3.094   2.722
  169SAPE   H2R18989   6.565   3.138   2.719
  169SAPE   H2S18990   6.386   3.170   2.750
  169SAPE    C318991   6.609   2.748   2.455
  169SAPE    HX18992   6.712   2.787   2.468
  169SAPE    HY18993   6.612   2.691   2.360
  169SAPE   O3118994   6.568   2.670   2.568
  169SAPE   C3118995   6.665   2.602   2.630
  169SAPE   O3218996   6.780   2.601   2.593
  169SAPE   C3218997   6.607   2.508   2.734
  169SAPE   H2X18998   6.600   2.411   2.680
  169SAPE   H2Y18999   6.500   2.531   2.753
  169SAPE   C2319000   6.457   2.980   2.835
  169SAPE   H3R19001   6.563   2.947   2.830
  169SAPE   H3S19002   6.386   2.902   2.800
  169SAPE   C2419003   6.419   3.035   2.980
  169SAPE   H4R19004   6.319   3.082   2.970
  169SAPE   H4S19005   6.491   3.110   3.019
  169SAPE   C2519006   6.419   2.908   3.065
  169SAPE   H5R19007   6.373   2.822   3.014
  169SAPE   C2619008   6.452   2.897   3.192
  169SAPE   H6R19009   6.434   2.798   3.237
  169SAPE   C2719010   6.509   3.005   3.282
  169SAPE   H7R19011   6.436   3.088   3.293
  169SAPE   H7S19012   6.603   3.037   3.232
  169SAPE   C2819013   6.546   2.948   3.416
  169SAPE   H8R19014   6.653   2.931   3.429
  169SAPE   C2919015   6.470   2.938   3.527
  169SAPE   H9R19016   6.515   2.897   3.619
  169SAPE  C21019017   6.327   2.975   3.541
  169SAPE  H10R19018   6.291   3.007   3.441
  169SAPE  H10S19019   6.310   3.059   3.611
  169SAPE  C21119020   6.243   2.853   3.581
  169SAPE  H11R19021   6.247   2.764   3.517
  169SAPE  C21219022   6.161   2.856   3.683
  169SAPE  H12R19023   6.087   2.775   3.690
  169SAPE  C21319024   6.129   2.972   3.773
  169SAPE  H13R19025   6.022   2.968   3.799
  169SAPE  H13S19026   6.145   3.072   3.727
  169SAPE  C21419027   6.223   2.958   3.894
  169SAPE  H14R19028   6.331   2.953   3.874
  169SAPE  C21519029   6.189   2.944   4.018
  169SAPE  H15R19030   6.262   2.941   4.100
  169SAPE  C21619031   6.042   2.953   4.069
  169SAPE  H16R19032   5.986   2.877   4.010
  169SAPE  H16S19033   5.996   3.050   4.041
  169SAPE  C21719034   6.016   2.917   4.218
  169SAPE  H17R19035   6.073   2.832   4.262
  169SAPE  H17S19036   5.909   2.893   4.234
  169SAPE  C21819037   6.049   3.031   4.318
  169SAPE  H18R19038   6.146   3.080   4.299
  169SAPE  H18S19039   6.041   2.994   4.422
  169SAPE  C21919040   5.936   3.135   4.321
  169SAPE  H19R19041   5.846   3.075   4.344
  169SAPE  H19S19042   5.920   3.179   4.220
  169SAPE  C22019043   5.938   3.245   4.430
  169SAPE  H20R19044   5.838   3.292   4.442
  169SAPE  H20S19045   6.019   3.320   4.417
  169SAPE  H20T19046   5.967   3.193   4.524
  169SAPE   C3319047   6.695   2.500   2.864
  169SAPE   H3X19048   6.806   2.496   2.853
  169SAPE   H3Y19049   6.672   2.403   2.913
  169SAPE   C3419050   6.670   2.613   2.959
  169SAPE   H4X19051   6.561   2.612   2.982
  169SAPE   H4Y19052   6.688   2.712   2.913
  169SAPE   C3519053   6.751   2.606   3.089
  169SAPE   H5X19054   6.699   2.673   3.160
  169SAPE   H5Y19055   6.855   2.635   3.064
  169SAPE   C3619056   6.747   2.466   3.157
  169SAPE   H6X19057   6.796   2.396   3.086
  169SAPE   H6Y19058   6.640   2.437   3.165
  169SAPE   C3719059   6.828   2.466   3.289
  169SAPE   H7X19060   0.040   2.529   3.287
  169SAPE   H7Y19061   6.860   2.362   3.314
  169SAPE   C3819062   6.759   2.491   3.428
  169SAPE   H8X19063   6.802   2.431   3.511
  169SAPE   H8Y19064   6.658   2.445   3.416
  169SAPE   C3919065   6.745   2.641   3.466
  169SAPE   H9X19066   6.696   2.701   3.386
  169SAPE   H9Y19067   6.853   2.666   3.461
  169SAPE  C31019068   6.695   2.665   3.603
  169SAPE  H10X19069   6.680   2.774   3.622
  169SAPE  H10Y19070   6.771   2.625   3.674
  169SAPE  C31119071   6.565   2.586   3.643
  169SAPE  H11X19072   6.561   2.479   3.614
  169SAPE  H11Y19073   6.483   2.636   3.588
  169SAPE  C31219074   6.555   2.617   3.790
  169SAPE  H12X19075   6.566   2.721   3.828
  169SAPE  H12Y19076   6.623   2.542   3.835
  169SAPE  C31319077   6.419   2.570   3.847
  169SAPE  H13X19078   6.393   2.470   3.807
  169SAPE  H13Y19079   6.344   2.641   3.807
  169SAPE  C31419080   6.422   2.550   3.998
  169SAPE  H14X19081   6.480   2.631   4.046
  169SAPE  H14Y19082   6.469   2.450   4.011
  169SAPE  C31519083   6.276   2.546   4.058
  169SAPE  H15X19084   6.215   2.464   4.014
  169SAPE  H15Y19085   6.228   2.640   4.026
  169SAPE  C31619086   6.291   2.545   4.210
  169SAPE  H16X19087   6.364   2.615   4.256
  169SAPE  H16Y19088   6.333   2.446   4.240
  169SAPE  C31719089   6.163   2.565   4.294
  169SAPE  H17X19090   6.097   2.628   4.231
  169SAPE  H17Y19091   6.178   2.624   4.387
  169SAPE  C31819092   6.098   2.435   4.326
  169SAPE  H18X19093   6.086   2.368   4.238
  169SAPE  H18Y19094   5.993   2.453   4.355
  169SAPE  H18Z19095   6.152   2.378   4.405
  170SAPE     N19096   0.804   3.739   1.892
  170SAPE   HN119097   0.784   3.828   1.943
  170SAPE   HN219098   0.829   3.763   1.794
  170SAPE   HN319099   0.718   3.681   1.906
  170SAPE   C1219100   0.923   3.651   1.938
  170SAPE  H12A19101   1.014   3.713   1.950
  170SAPE  H12B19102   0.931   3.569   1.864
  170SAPE   C1119103   0.891   3.579   2.069
  170SAPE  H11A19104   0.889   3.648   2.156
  170SAPE  H11B19105   0.965   3.497   2.084
  170SAPE     P19106   0.688   3.417   2.135
  170SAPE   O1319107   0.546   3.386   2.090
  170SAPE   O1419108   0.775   3.297   2.142
  170SAPE   O1219109   0.756   3.527   2.054
  170SAPE   O1119110   0.693   3.474   2.285
  170SAPE    C119111   0.601   3.579   2.318
  170SAPE    HA19112   0.651   3.678   2.312
  170SAPE    HB19113   0.506   3.574   2.262
  170SAPE    C219114   0.566   3.567   2.468
  170SAPE    HS19115   0.667   3.572   2.514
  170SAPE   O2119116   0.501   3.442   2.489
  170SAPE   C2119117   0.530   3.382   2.605
  170SAPE   O2219118   0.619   3.418   2.682
  170SAPE   C2219119   0.429   3.279   2.635
  170SAPE   H2R19120   0.385   3.244   2.540
  170SAPE   H2S19121   0.465   3.185   2.682
  170SAPE    C319122   0.483   3.685   2.531
  170SAPE    HX19123   0.384   3.679   2.480
  170SAPE    HY19124   0.515   3.788   2.505
  170SAPE   O3119125   0.460   3.665   2.667
  170SAPE   C3119126   0.558   3.701   2.746
  170SAPE   O3219127   0.658   3.763   2.726
  170SAPE   C3219128   0.518   3.655   2.891
  170SAPE   H2X19129   0.529   3.544   2.895
  170SAPE   H2Y19130   0.410   3.681   2.900
  170SAPE   C2319131   0.321   3.334   2.733
  170SAPE   H3R19132   0.302   3.435   2.690
  170SAPE   H3S19133   0.367   3.355   2.832
  170SAPE   C2419134   0.198   3.244   2.722
  170SAPE   H4R19135   0.170   3.227   2.616
  170SAPE   H4S19136   0.106   3.294   2.759
  170SAPE   C2519137   0.216   3.110   2.789
  170SAPE   H5R19138   0.288   3.042   2.739
  170SAPE   C2619139   0.140   3.058   2.884
  170SAPE   H6R19140   0.164   2.957   2.922
  170SAPE   C2719141   0.025   3.118   2.953
  170SAPE   H7R19142   6.836   3.178   2.890
  170SAPE   H7S19143   0.069   3.197   3.018
  170SAPE   C2819144   6.821   3.017   3.024
  170SAPE   H8R19145   6.744   2.968   2.963
  170SAPE   C2919146   6.851   2.965   3.141
  170SAPE   H9R19147   6.783   2.891   3.187
  170SAPE  C21019148   0.077   3.015   3.236
  170SAPE  H10R19149   0.032   3.101   3.291
  170SAPE  H10S19150   0.164   3.052   3.177
  170SAPE  C21119151   0.121   2.905   3.335
  170SAPE  H11R19152   0.131   2.808   3.284
  170SAPE  C21219153   0.137   2.921   3.466
  170SAPE  H12R19154   0.193   2.841   3.515
  170SAPE  C21319155   0.119   3.048   3.547
  170SAPE  H13R19156   0.159   3.133   3.488
  170SAPE  H13S19157   0.178   3.039   3.641
  170SAPE  C21419158   6.851   3.066   3.585
  170SAPE  H14R19159   6.788   3.102   3.503
  170SAPE  C21519160   6.787   3.044   3.702
  170SAPE  H15R19161   6.678   3.049   3.718
  170SAPE  C21619162   6.857   3.002   3.833
  170SAPE  H16R19163   0.085   3.030   3.838
  170SAPE  H16S19164   6.848   2.896   3.864
  170SAPE  C21719165   6.797   3.090   3.944
  170SAPE  H17R19166   6.687   3.075   3.946
  170SAPE  H17S19167   6.809   3.200   3.932
  170SAPE  C21819168   6.843   3.034   4.077
  170SAPE  H18R19169   0.071   3.057   4.092
  170SAPE  H18S19170   6.824   2.925   4.089
  170SAPE  C21919171   6.744   3.088   4.187
  170SAPE  H19R19172   6.641   3.074   4.147
  170SAPE  H19S19173   6.771   3.196   4.191
  170SAPE  C22019174   6.770   3.005   4.316
  170SAPE  H20R19175   6.724   3.054   4.404
  170SAPE  H20S19176   0.000   3.003   4.329
  170SAPE  H20T19177   6.728   2.902   4.317
  170SAPE   C3319178   0.604   3.699   3.015
  170SAPE   H3X19179   0.594   3.809   3.018
  170SAPE   H3Y19180   0.710   3.665   3.004
  170SAPE   C3419181   0.545   3.634   3.142
  170SAPE   H4X19182   0.516   3.529   3.117
  170SAPE   H4Y19183   0.449   3.684   3.163
  170SAPE   C3519184   0.643   3.650   3.260
  170SAPE   H5X19185   0.663   3.756   3.285
  170SAPE   H5Y19186   0.739   3.599   3.239
  170SAPE   C3619187   0.588   3.590   3.389
  170SAPE   H6X19188   0.614   3.483   3.393
  170SAPE   H6Y19189   0.477   3.583   3.378
  170SAPE   C3719190   0.654   3.661   3.505
  170SAPE   H7X19191   0.632   3.770   3.512
  170SAPE   H7Y19192   0.764   3.655   3.488
  170SAPE   C3819193   0.641   3.597   3.650
  170SAPE   H8X19194   0.625   3.488   3.637
  170SAPE   H8Y19195   0.550   3.641   3.697
  170SAPE   C3919196   0.768   3.638   3.738
  170SAPE   H9X19197   0.789   3.747   3.742
  170SAPE   H9Y19198   0.854   3.577   3.702
  170SAPE  C31019199   0.754   3.588   3.886
  170SAPE  H10X19200   0.653   3.624   3.916
  170SAPE  H10Y19201   0.833   3.637   3.946
  170SAPE  C31119202   0.768   3.433   3.895
  170SAPE  H11X19203   0.875   3.403   3.887
  170SAPE  H11Y19204   0.706   3.385   3.816
  170SAPE  C31219205   0.730   3.393   4.039
  170SAPE  H12X19206   0.628   3.430   4.061
  170SAPE  H12Y19207   0.798   3.441   4.113
  170SAPE  C31319208   0.742   3.243   4.055
  170SAPE  H13X19209   0.832   3.218   3.995
  170SAPE  H13Y19210   0.651   3.197   4.010
  170SAPE  C31419211   0.757   3.187   4.193
  170SAPE  H14X19212   0.692   3.236   4.269
  170SAPE  H14Y19213   0.857   3.211   4.233
  170SAPE  C31519214   0.743   3.035   4.195
  170SAPE  H15X19215   0.791   2.996   4.103
  170SAPE  H15Y19216   0.638   2.997   4.191
  170SAPE  C31619217   0.817   2.983   4.316
  170SAPE  H16X19218   0.779   3.023   4.412
  170SAPE  H16Y19219   0.926   2.998   4.304
  170SAPE  C31719220   0.806   2.830   4.322
  170SAPE  H17X19221   0.849   2.780   4.232
  170SAPE  H17Y19222   0.700   2.799   4.312
  170SAPE  C31819223   0.877   2.786   4.448
  170SAPE  H18X19224   0.983   2.822   4.443
  170SAPE  H18Y19225   0.872   2.677   4.466
  170SAPE  H18Z19226   0.830   2.843   4.530
  171SAPE     N19227   0.375   2.828   1.932
  171SAPE   HN119228   0.303   2.796   2.000
  171SAPE   HN219229   0.388   2.930   1.942
  171SAPE   HN319230   0.342   2.813   1.834
  171SAPE   C1219231   0.497   2.743   1.960
  171SAPE  H12A19232   0.576   2.779   1.891
  171SAPE  H12B19233   0.477   2.639   1.929
  171SAPE   C1119234   0.530   2.747   2.109
  171SAPE  H11A19235   0.555   2.853   2.132
  171SAPE  H11B19236   0.623   2.694   2.136
  171SAPE     P19237   0.386   2.577   2.245
  171SAPE   O1319238   0.244   2.555   2.273
  171SAPE   O1419239   0.463   2.480   2.162
  171SAPE   O1219240   0.411   2.719   2.187
  171SAPE   O1119241   0.449   2.595   2.384
  171SAPE    C119242   0.584   2.552   2.406
  171SAPE    HA19243   0.574   2.449   2.447
  171SAPE    HB19244   0.654   2.580   2.325
  171SAPE    C219245   0.637   2.634   2.523
  171SAPE    HS19246   0.745   2.611   2.525
  171SAPE   O2119247   0.569   2.589   2.646
  171SAPE   C2119248   0.623   2.480   2.700
  171SAPE   O2219249   0.732   2.437   2.675
  171SAPE   C2219250   0.531   2.425   2.810
  171SAPE   H2R19251   0.429   2.464   2.791
  171SAPE   H2S19252   0.522   2.314   2.800
  171SAPE    C319253   0.618   2.786   2.513
  171SAPE    HX19254   0.513   2.809   2.482
  171SAPE    HY19255   0.675   2.825   2.426
  171SAPE   O3119256   0.664   2.874   2.627
  171SAPE   C3119257   0.582   2.904   2.730
  171SAPE   O3219258   0.466   2.864   2.738
  171SAPE   C3219259   0.652   3.005   2.820
  171SAPE   H2X19260   0.644   3.106   2.773
  171SAPE   H2Y19261   0.759   2.980   2.833
  171SAPE   C2319262   0.585   2.475   2.942
  171SAPE   H3R19263   0.696   2.477   2.939
  171SAPE   H3S19264   0.556   2.410   3.028
  171SAPE   C2419265   0.546   2.616   2.995
  171SAPE   H4R19266   0.435   2.616   2.995
  171SAPE   H4S19267   0.567   2.683   2.909
  171SAPE   C2519268   0.602   2.670   3.128
  171SAPE   H5R19269   0.710   2.692   3.131
  171SAPE   C2619270   0.518   2.687   3.238
  171SAPE   H6R19271   0.581   2.706   3.326
  171SAPE   C2719272   0.371   2.658   3.254
  171SAPE   H7R19273   0.329   2.670   3.152
  171SAPE   H7S19274   0.335   2.734   3.326
  171SAPE   C2819275   0.317   2.520   3.307
  171SAPE   H8R19276   0.314   2.445   3.226
  171SAPE   C2919277   0.283   2.488   3.432
  171SAPE   H9R19278   0.229   2.395   3.452
  171SAPE  C21019279   0.293   2.581   3.557
  171SAPE  H10R19280   0.189   2.619   3.562
  171SAPE  H10S19281   0.366   2.661   3.533
  171SAPE  C21119282   0.333   2.499   3.678
  171SAPE  H11R19283   0.442   2.488   3.684
  171SAPE  C21219284   0.252   2.464   3.782
  171SAPE  H12R19285   0.301   2.398   3.855
  171SAPE  C21319286   0.105   2.486   3.797
  171SAPE  H13R19287   0.062   2.534   3.707
  171SAPE  H13S19288   0.084   2.548   3.887
  171SAPE  C21419289   0.040   2.356   3.807
  171SAPE  H14R19290   0.026   2.305   3.710
  171SAPE  C21519291   6.876   2.291   3.918
  171SAPE  H15R19292   6.821   2.197   3.903
  171SAPE  C21619293   6.870   2.340   4.057
  171SAPE  H16R19294   0.092   2.379   4.078
  171SAPE  H16S19295   6.857   2.254   4.127
  171SAPE  C21719296   6.775   2.452   4.087
  171SAPE  H17R19297   6.675   2.404   4.081
  171SAPE  H17S19298   6.770   2.534   4.012
  171SAPE  C21819299   6.797   2.498   4.233
  171SAPE  H18R19300   0.016   2.548   4.240
  171SAPE  H18S19301   6.787   2.413   4.304
  171SAPE  C21919302   6.688   2.604   4.274
  171SAPE  H19R19303   6.590   2.569   4.236
  171SAPE  H19S19304   6.689   2.703   4.223
  171SAPE  C22019305   6.669   2.609   4.422
  171SAPE  H20R19306   6.757   2.657   4.470
  171SAPE  H20S19307   6.660   2.505   4.462
  171SAPE  H20T19308   6.579   2.665   4.456
  171SAPE   C3319309   0.569   3.020   2.953
  171SAPE   H3X19310   0.578   2.927   3.013
  171SAPE   H3Y19311   0.461   3.039   2.935
  171SAPE   C3419312   0.617   3.133   3.045
  171SAPE   H4X19313   0.638   3.227   2.990
  171SAPE   H4Y19314   0.709   3.110   3.102
  171SAPE   C3519315   0.498   3.173   3.135
  171SAPE   H5X19316   0.411   3.193   3.069
  171SAPE   H5Y19317   0.510   3.271   3.187
  171SAPE   C3619318   0.442   3.072   3.240
  171SAPE   H6X19319   0.413   2.971   3.204
  171SAPE   H6Y19320   0.353   3.112   3.292
  171SAPE   C3719321   0.553   3.031   3.343
  171SAPE   H7X19322   0.647   2.993   3.297
  171SAPE   H7Y19323   0.507   2.954   3.409
  171SAPE   C3819324   0.602   3.149   3.427
  171SAPE   H8X19325   0.522   3.215   3.467
  171SAPE   H8Y19326   0.652   3.217   3.355
  171SAPE   C3919327   0.697   3.106   3.544
  171SAPE   H9X19328   0.707   3.195   3.609
  171SAPE   H9Y19329   0.794   3.080   3.496
  171SAPE  C31019330   0.663   2.985   3.632
  171SAPE  H10X19331   0.739   2.963   3.710
  171SAPE  H10Y19332   0.661   2.894   3.569
  171SAPE  C31119333   0.518   2.996   3.702
  171SAPE  H11X19334   0.434   2.981   3.631
  171SAPE  H11Y19335   0.503   3.098   3.744
  171SAPE  C31219336   0.492   2.896   3.816
  171SAPE  H12X19337   0.550   2.918   3.908
  171SAPE  H12Y19338   0.521   2.794   3.782
  171SAPE  C31319339   0.341   2.894   3.845
  171SAPE  H13X19340   0.292   2.875   3.747
  171SAPE  H13Y19341   0.318   2.999   3.872
  171SAPE  C31419342   0.295   2.796   3.955
  171SAPE  H14X19343   0.333   2.698   3.921
  171SAPE  H14Y19344   0.186   2.802   3.934
  171SAPE  C31519345   0.315   2.836   4.105
  171SAPE  H15X19346   0.264   2.935   4.111
  171SAPE  H15Y19347   0.423   2.847   4.128
  171SAPE  C31619348   0.251   2.739   4.209
  171SAPE  H16X19349   0.310   2.646   4.197
  171SAPE  H16Y19350   0.147   2.732   4.170
  171SAPE  C31719351   0.269   2.800   4.349
  171SAPE  H17X19352   0.219   2.900   4.351
  171SAPE  H17Y19353   0.378   2.819   4.359
  171SAPE  C31819354   0.234   2.703   4.461
  171SAPE  H18X19355   0.129   2.667   4.448
  171SAPE  H18Y19356   0.242   2.747   4.563
  171SAPE  H18Z19357   0.303   2.616   4.462
  172SAPE     N19358   0.587   5.077   2.165
  172SAPE   HN119359   0.680   5.111   2.196
  172SAPE   HN219360   0.594   5.030   2.072
  172SAPE   HN319361   0.518   5.155   2.166
  172SAPE   C1219362   0.539   4.987   2.281
  172SAPE  H12A19363   0.586   5.036   2.368
  172SAPE  H12B19364   0.568   4.881   2.265
  172SAPE   C1119365   0.390   4.988   2.294
  172SAPE  H11A19366   0.365   4.954   2.397
  172SAPE  H11B19367   0.343   4.914   2.225
  172SAPE     P19368   0.187   5.139   2.294
  172SAPE   O1319369   0.142   5.204   2.171
  172SAPE   O1419370   0.119   5.015   2.325
  172SAPE   O1219371   0.340   5.118   2.276
  172SAPE   O1119372   0.175   5.235   2.418
  172SAPE    C119373   0.281   5.323   2.458
  172SAPE    HA19374   0.343   5.356   2.372
  172SAPE    HB19375   0.242   5.420   2.494
  172SAPE    C219376   0.380   5.262   2.557
  172SAPE    HS19377   0.434   5.179   2.507
  172SAPE   O2119378   0.315   5.207   2.669
  172SAPE   C2119379   0.228   5.283   2.737
  172SAPE   O2219380   0.209   5.400   2.733
  172SAPE   C2219381   0.166   5.194   2.845
  172SAPE   H2R19382   0.068   5.241   2.869
  172SAPE   H2S19383   0.143   5.093   2.806
  172SAPE    C319384   0.483   5.377   2.593
  172SAPE    HX19385   0.415   5.459   2.627
  172SAPE    HY19386   0.535   5.414   2.502
  172SAPE   O3119387   0.570   5.347   2.707
  172SAPE   C3119388   0.663   5.265   2.663
  172SAPE   O3219389   0.687   5.233   2.549
  172SAPE   C3219390   0.743   5.220   2.783
  172SAPE   H2X19391   0.815   5.303   2.795
  172SAPE   H2Y19392   0.792   5.122   2.763
  172SAPE   C2319393   0.261   5.188   2.963
  172SAPE   H3R19394   0.309   5.284   2.992
  172SAPE   H3S19395   0.346   5.127   2.926
  172SAPE   C2419396   0.195   5.108   3.075
  172SAPE   H4R19397   0.193   5.008   3.026
  172SAPE   H4S19398   0.092   5.149   3.087
  172SAPE   C2519399   0.274   5.109   3.202
  172SAPE   H5R19400   0.383   5.108   3.192
  172SAPE   C2619401   0.223   5.094   3.326
  172SAPE   H6R19402   0.293   5.089   3.411
  172SAPE   C2719403   0.083   5.085   3.368
  172SAPE   H7R19404   0.050   4.990   3.416
  172SAPE   H7S19405   0.017   5.097   3.279
  172SAPE   C2819406   0.067   5.199   3.462
  172SAPE   H8R19407   0.039   5.297   3.420
  172SAPE   C2919408   0.076   5.191   3.596
  172SAPE   H9R19409   0.072   5.292   3.639
  172SAPE  C21019410   0.121   5.083   3.690
  172SAPE  H10R19411   0.180   5.133   3.769
  172SAPE  H10S19412   0.192   5.007   3.651
  172SAPE  C21119413   0.005   5.003   3.745
  172SAPE  H11R19414   6.808   4.978   3.670
  172SAPE  C21219415   6.862   4.975   3.875
  172SAPE  H12R19416   6.787   4.898   3.896
  172SAPE  C21319417   0.064   5.005   4.002
  172SAPE  H13R19418   0.159   5.054   3.970
  172SAPE  H13S19419   0.084   4.908   4.052
  172SAPE  C21419420   6.865   5.110   4.080
  172SAPE  H14R19421   6.757   5.119   4.064
  172SAPE  C21519422   0.042   5.211   4.158
  172SAPE  H15R19423   6.842   5.271   4.206
  172SAPE  C21619424   0.185   5.229   4.205
  172SAPE  H16R19425   0.241   5.316   4.164
  172SAPE  H16S19426   0.244   5.146   4.161
  172SAPE  C21719427   0.195   5.208   4.364
  172SAPE  H17R19428   0.297   5.183   4.399
  172SAPE  H17S19429   0.126   5.133   4.408
  172SAPE  C21819430   0.171   5.340   4.431
  172SAPE  H18R19431   0.069   5.381   4.415
  172SAPE  H18S19432   0.251   5.409   4.395
  172SAPE  C21919433   0.180   5.323   4.587
  172SAPE  H19R19434   0.269   5.266   4.622
  172SAPE  H19S19435   0.091   5.267   4.621
  172SAPE  C22019436   0.188   5.461   4.644
  172SAPE  H20R19437   0.276   5.519   4.610
  172SAPE  H20S19438   0.199   5.452   4.754
  172SAPE  H20T19439   0.093   5.516   4.626
  172SAPE   C3319440   0.677   5.199   2.920
  172SAPE   H3X19441   0.593   5.128   2.913
  172SAPE   H3Y19442   0.634   5.291   2.964
  172SAPE   C3419443   0.782   5.155   3.025
  172SAPE   H4X19444   0.871   5.221   3.016
  172SAPE   H4Y19445   0.815   5.054   2.991
  172SAPE   C3519446   0.725   5.130   3.165
  172SAPE   H5X19447   0.620   5.105   3.142
  172SAPE   H5Y19448   0.724   5.218   3.234
  172SAPE   C3619449   0.801   5.020   3.237
  172SAPE   H6X19450   0.908   5.048   3.233
  172SAPE   H6Y19451   0.792   4.920   3.189
  172SAPE   C3719452   0.748   5.002   3.380
  172SAPE   H7X19453   0.758   5.093   3.443
  172SAPE   H7Y19454   0.806   4.932   3.444
  172SAPE   C3819455   0.596   4.972   3.390
  172SAPE   H8X19456   0.587   4.884   3.322
  172SAPE   H8Y19457   0.529   5.056   3.363
  172SAPE   C3919458   0.549   4.909   3.527
  172SAPE   H9X19459   0.613   4.821   3.546
  172SAPE   H9Y19460   0.452   4.855   3.517
  172SAPE  C31019461   0.561   5.006   3.648
  172SAPE  H10X19462   0.488   5.089   3.637
  172SAPE  H10Y19463   0.657   5.061   3.649
  172SAPE  C31119464   0.551   4.927   3.780
  172SAPE  H11X19465   0.624   4.843   3.776
  172SAPE  H11Y19466   0.446   4.895   3.798
  172SAPE  C31219467   0.593   5.006   3.900
  172SAPE  H12X19468   0.549   5.108   3.902
  172SAPE  H12Y19469   0.702   5.021   3.883
  172SAPE  C31319470   0.547   4.937   4.025
  172SAPE  H13X19471   0.562   4.828   4.009
  172SAPE  H13Y19472   0.441   4.970   4.031
  172SAPE  C31419473   0.621   4.988   4.152
  172SAPE  H14X19474   0.622   5.099   4.148
  172SAPE  H14Y19475   0.727   4.956   4.144
  172SAPE  C31519476   0.571   4.914   4.281
  172SAPE  H15X19477   0.582   4.805   4.262
  172SAPE  H15Y19478   0.463   4.933   4.298
  172SAPE  C31619479   0.654   4.929   4.403
  172SAPE  H16X19480   0.641   5.032   4.441
  172SAPE  H16Y19481   0.763   4.918   4.384
  172SAPE  C31719482   0.624   4.816   4.502
  172SAPE  H17X19483   0.649   4.719   4.453
  172SAPE  H17Y19484   0.515   4.810   4.524
  172SAPE  C31819485   0.709   4.815   4.637
  172SAPE  H18X19486   0.705   4.921   4.670
  172SAPE  H18Y19487   0.816   4.793   4.617
  172SAPE  H18Z19488   0.675   4.734   4.705
  173SLPC     N19489   5.956   6.794   6.564
  173SLPC   C1319490   5.810   6.822   6.581
  173SLPC  H13A19491   5.746   6.756   6.525
  173SLPC  H13B19492   5.793   6.815   6.688
  173SLPC  H13C19493   5.799   0.046   6.553
  173SLPC   C1419494   5.985   6.776   6.419
  173SLPC  H14A19495   5.975   6.873   6.372
  173SLPC  H14B19496   6.084   6.738   6.404
  173SLPC  H14C19497   5.916   6.706   6.373
  173SLPC   C1519498   5.981   6.662   6.635
  173SLPC  H15A19499   5.923   6.579   6.599
  173SLPC  H15B19500   6.084   6.630   6.632
  173SLPC  H15C19501   5.969   6.679   6.741
  173SLPC   C1219502   6.042   0.021   6.624
  173SLPC  H12A19503   5.989   0.042   6.716
  173SLPC  H12B19504   6.028   0.105   6.558
  173SLPC   C1119505   6.195   0.004   6.650
  173SLPC  H11A19506   6.256   0.027   6.560
  173SLPC  H11B19507   6.209   6.775   6.666
  173SLPC     P19508   6.261   0.244   6.738
  173SLPC   O1319509   6.134   0.325   6.753
  173SLPC   O1419510   6.375   0.286   6.821
  173SLPC   O1219511   6.231   0.087   6.765
  173SLPC   O1119512   6.306   0.253   6.588
  173SLPC    C119513   6.300   0.367   6.505
  173SLPC    HA19514   6.252   0.453   6.556
  173SLPC    HB19515   6.399   0.402   6.471
  173SLPC    C219516   6.218   0.337   6.376
  173SLPC    HS19517   6.119   0.293   6.398
  173SLPC   O2119518   6.304   0.248   6.307
  173SLPC   C2119519   6.244   0.148   6.242
  173SLPC   O2219520   6.127   0.121   6.237
  173SLPC   C2219521   6.353   0.076   6.170
  173SLPC   H2R19522   6.457   0.115   6.174
  173SLPC   H2S19523   6.364   6.857   6.220
  173SLPC    C319524   6.207   0.462   6.280
  173SLPC    HX19525   6.303   0.519   6.280
  173SLPC    HY19526   6.134   0.536   6.319
  173SLPC   O3119527   6.174   0.434   6.139
  173SLPC   C3119528   6.040   0.408   6.131
  173SLPC   O3219529   5.962   0.396   6.227
  173SLPC   C3219530   6.000   0.413   5.986
  173SLPC   H2X19531   6.079   0.368   5.923
  173SLPC   H2Y19532   5.993   0.519   5.954
  173SLPC   C2319533   6.325   0.049   6.020
  173SLPC   H3R19534   6.418   0.009   5.975
  173SLPC   H3S19535   6.294   0.145   5.972
  173SLPC   C2419536   6.221   6.821   5.993
  173SLPC   H4R19537   6.119   6.837   6.033
  173SLPC   H4S19538   6.257   6.724   6.034
  173SLPC   C2519539   6.220   6.808   5.843
  173SLPC   H5R19540   6.323   6.779   5.811
  173SLPC   H5S19541   6.205   0.022   5.784
  173SLPC   C2619542   6.127   6.693   5.795
  173SLPC   H6R19543   6.025   6.725   5.825
  173SLPC   H6S19544   6.155   6.600   5.850
  173SLPC   C2719545   6.123   6.674   5.645
  173SLPC   H7R19546   6.229   6.671   5.613
  173SLPC   H7S19547   6.069   6.760   5.600
  173SLPC   C2819548   6.056   6.545   5.598
  173SLPC   H8R19549   6.013   6.555   5.496
  173SLPC   H8S19550   5.970   6.533   5.668
  173SLPC   C2919551   6.135   6.422   5.593
  173SLPC   H9R19552   6.186   6.403   5.689
  173SLPC  C21019553   6.160   6.334   5.492
  173SLPC  H10R19554   6.215   6.240   5.508
  173SLPC  C21119555   6.109   6.341   5.354
  173SLPC  H11R19556   6.081   6.447   5.338
  173SLPC  H11S19557   6.026   6.268   5.345
  173SLPC  C21219558   6.206   6.295   5.250
  173SLPC  H12R19559   6.253   6.196   5.261
  173SLPC  C21319560   6.224   6.363   5.133
  173SLPC  H13R19561   6.277   6.319   5.047
  173SLPC  C21419562   6.161   6.489   5.102
  173SLPC  H14R19563   6.219   6.539   5.021
  173SLPC  H14S19564   6.167   6.556   5.191
  173SLPC  C21519565   6.018   6.482   5.035
  173SLPC  H15R19566   6.002   6.578   4.981
  173SLPC  H15S19567   5.940   6.475   5.114
  173SLPC  C21619568   6.010   6.363   4.930
  173SLPC  H16R19569   6.048   6.276   4.988
  173SLPC  H16S19570   6.082   6.372   4.846
  173SLPC  C21719571   5.866   6.356   4.875
  173SLPC  H17R19572   5.797   6.336   4.960
  173SLPC  H17S19573   5.853   6.265   4.811
  173SLPC  C21819574   5.812   6.482   4.796
  173SLPC  H18R19575   5.805   6.570   4.864
  173SLPC  H18S19576   5.709   6.463   4.758
  173SLPC  H18T19577   5.881   6.507   4.713
  173SLPC   C3319578   5.871   0.320   5.956
  173SLPC   H3X19579   5.791   0.357   6.023
  173SLPC   H3Y19580   5.888   0.213   5.980
  173SLPC   C3419581   5.817   0.335   5.813
  173SLPC   H4X19582   5.789   0.437   5.780
  173SLPC   H4Y19583   5.713   0.296   5.813
  173SLPC   C3519584   5.919   0.266   5.710
  173SLPC   H5X19585   5.961   0.174   5.756
  173SLPC   H5Y19586   6.000   0.336   5.679
  173SLPC   C3619587   5.850   0.229   5.577
  173SLPC   H6X19588   5.830   0.321   5.519
  173SLPC   H6Y19589   5.758   0.168   5.589
  173SLPC   C3719590   5.935   0.134   5.489
  173SLPC   H7X19591   6.027   0.101   5.541
  173SLPC   H7Y19592   5.973   0.194   5.403
  173SLPC   C3819593   5.869   0.007   5.422
  173SLPC   H8X19594   5.778   0.041   5.368
  173SLPC   H8Y19595   5.845   6.821   5.508
  173SLPC   C3919596   5.969   6.823   5.320
  173SLPC   H9X19597   5.947   6.714   5.311
  173SLPC   H9Y19598   6.073   6.828   5.358
  173SLPC  C31019599   5.983   0.003   5.183
  173SLPC  H10X19600   6.062   6.836   5.121
  173SLPC  H10Y19601   6.003   0.111   5.200
  173SLPC  C31119602   5.852   6.861   5.103
  173SLPC  H11X19603   5.772   0.045   5.147
  173SLPC  H11Y19604   5.818   6.758   5.128
  173SLPC  C31219605   5.859   0.008   4.948
  173SLPC  H12X19606   5.930   6.820   4.896
  173SLPC  H12Y19607   5.913   0.103   4.930
  173SLPC  C31319608   5.719   6.875   4.877
  173SLPC  H13X19609   5.643   0.027   4.952
  173SLPC  H13Y19610   5.705   6.767   4.855
  173SLPC  C31419611   5.707   0.091   4.762
  173SLPC  H14X19612   5.785   0.065   4.687
  173SLPC  H14Y19613   5.712   0.193   4.805
  173SLPC  C31519614   5.569   0.082   4.689
  173SLPC  H15X19615   5.553   0.179   4.638
  173SLPC  H15Y19616   5.484   0.080   4.761
  173SLPC  C31619617   5.563   6.839   4.602
  173SLPC  H16X19618   5.625   6.760   4.649
  173SLPC  H16Y19619   5.618   6.867   4.509
  173SLPC  C31719620   5.426   6.776   4.571
  173SLPC  H17X19621   5.375   6.766   4.669
  173SLPC  H17Y19622   5.436   6.674   4.527
  173SLPC  C31819623   5.340   6.871   4.487
  173SLPC  H18X19624   5.282   0.066   4.546
  173SLPC  H18Y19625   5.253   6.822   4.439
  173SLPC  H18Z19626   5.402   0.045   4.412
  174SLPC     N19627   3.724   1.898   6.751
  174SLPC   C1319628   3.870   1.931   6.727
  174SLPC  H13A19629   3.894   1.926   6.622
  174SLPC  H13B19630   3.896   2.033   6.750
  174SLPC  H13C19631   3.927   1.859   6.785
  174SLPC   C1419632   3.652   1.986   6.654
  174SLPC  H14A19633   3.677   2.090   6.662
  174SLPC  H14B19634   3.654   1.961   6.549
  174SLPC  H14C19635   3.546   1.989   6.674
  174SLPC   C1519636   3.687   1.938   6.889
  174SLPC  H15A19637   3.732   2.034   6.911
  174SLPC  H15B19638   3.579   1.927   6.892
  174SLPC  H15C19639   3.738   1.874   6.959
  174SLPC   C1219640   3.705   1.754   6.732
  174SLPC  H12A19641   3.605   1.723   6.758
  174SLPC  H12B19642   3.752   1.702   6.814
  174SLPC   C1119643   3.744   1.671   6.604
  174SLPC  H11A19644   3.739   1.565   6.637
  174SLPC  H11B19645   3.853   1.691   6.594
  174SLPC     P19646   3.530   1.677   6.458
  174SLPC   O1319647   3.529   1.544   6.396
  174SLPC   O1419648   3.448   1.695   6.581
  174SLPC   O1219649   3.677   1.710   6.487
  174SLPC   O1119650   3.492   1.785   6.351
  174SLPC    C119651   3.565   1.800   6.233
  174SLPC    HA19652   3.674   1.807   6.250
  174SLPC    HB19653   3.534   1.736   6.148
  174SLPC    C219654   3.530   1.939   6.178
  174SLPC    HS19655   3.420   1.945   6.171
  174SLPC   O2119656   3.581   1.939   6.045
  174SLPC   C2119657   3.565   2.061   5.984
  174SLPC   O2219658   3.504   2.159   6.022
  174SLPC   C2219659   3.645   2.053   5.857
  174SLPC   H2R19660   3.727   2.129   5.863
  174SLPC   H2S19661   3.683   1.951   5.835
  174SLPC    C319662   3.583   2.055   6.263
  174SLPC    HX19663   3.562   2.029   6.369
  174SLPC    HY19664   3.526   2.150   6.250
  174SLPC   O3119665   3.724   2.082   6.237
  174SLPC   C3119666   3.779   2.161   6.331
  174SLPC   O3219667   3.712   2.215   6.418
  174SLPC   C3219668   3.926   2.179   6.306
  174SLPC   H2X19669   3.971   2.084   6.271
  174SLPC   H2Y19670   3.973   2.204   6.404
  174SLPC   C2319671   3.547   2.096   5.741
  174SLPC   H3R19672   3.522   2.202   5.759
  174SLPC   H3S19673   3.452   2.039   5.740
  174SLPC   C2419674   3.612   2.082   5.606
  174SLPC   H4R19675   3.712   2.130   5.602
  174SLPC   H4S19676   3.551   2.133   5.529
  174SLPC   C2519677   3.630   1.941   5.561
  174SLPC   H5R19678   3.536   1.892   5.530
  174SLPC   H5S19679   3.668   1.873   5.641
  174SLPC   C2619680   3.732   1.923   5.445
  174SLPC   H6R19681   3.746   1.815   5.427
  174SLPC   H6S19682   3.827   1.953   5.493
  174SLPC   C2719683   3.688   2.000   5.318
  174SLPC   H7R19684   3.695   2.110   5.334
  174SLPC   H7S19685   3.586   1.969   5.288
  174SLPC   C2819686   3.785   1.972   5.202
  174SLPC   H8R19687   3.798   1.862   5.196
  174SLPC   H8S19688   3.889   1.992   5.236
  174SLPC   C2919689   3.761   2.029   5.066
  174SLPC   H9R19690   3.755   2.138   5.061
  174SLPC  C21019691   3.752   1.957   4.950
  174SLPC  H10R19692   3.734   2.015   4.858
  174SLPC  C21119693   3.761   1.805   4.931
  174SLPC  H11R19694   3.807   1.751   5.016
  174SLPC  H11S19695   3.814   1.774   4.839
  174SLPC  C21219696   3.632   1.740   4.916
  174SLPC  H12R19697   3.595   1.702   5.013
  174SLPC  C21319698   3.555   1.716   4.808
  174SLPC  H13R19699   3.468   1.649   4.817
  174SLPC  C21419700   3.594   1.758   4.665
  174SLPC  H14R19701   3.697   1.800   4.673
  174SLPC  H14S19702   3.526   1.838   4.628
  174SLPC  C21519703   3.607   1.636   4.570
  174SLPC  H15R19704   3.536   1.562   4.613
  174SLPC  H15S19705   3.711   1.605   4.591
  174SLPC  C21619706   3.585   1.662   4.421
  174SLPC  H16R19707   3.623   1.582   4.354
  174SLPC  H16S19708   3.646   1.751   4.394
  174SLPC  C21719709   3.440   1.670   4.378
  174SLPC  H17R19710   3.410   1.769   4.417
  174SLPC  H17S19711   3.375   1.588   4.417
  174SLPC  C21819712   3.414   1.682   4.224
  174SLPC  H18R19713   3.470   1.772   4.190
  174SLPC  H18S19714   3.306   1.703   4.208
  174SLPC  H18T19715   3.454   1.589   4.180
  174SLPC   C3319716   3.957   2.288   6.201
  174SLPC   H3X19717   4.061   2.323   6.222
  174SLPC   H3Y19718   3.888   2.374   6.211
  174SLPC   C3419719   3.941   2.232   6.052
  174SLPC   H4X19720   3.838   2.216   6.015
  174SLPC   H4Y19721   3.989   2.131   6.053
  174SLPC   C3519722   4.010   2.323   5.953
  174SLPC   H5X19723   4.121   2.325   5.966
  174SLPC   H5Y19724   3.985   2.431   5.959
  174SLPC   C3619725   3.978   2.269   5.812
  174SLPC   H6X19726   3.868   2.279   5.801
  174SLPC   H6Y19727   4.005   2.161   5.814
  174SLPC   C3719728   4.046   2.334   5.691
  174SLPC   H7X19729   4.156   2.337   5.707
  174SLPC   H7Y19730   4.027   2.443   5.687
  174SLPC   C3819731   4.001   2.263   5.566
  174SLPC   H8X19732   3.893   2.279   5.548
  174SLPC   H8Y19733   4.015   2.154   5.583
  174SLPC   C3919734   4.071   2.308   5.446
  174SLPC   H9X19735   4.182   2.299   5.455
  174SLPC   H9Y19736   4.040   2.411   5.419
  174SLPC  C31019737   4.047   2.235   5.315
  174SLPC  H10X19738   3.941   2.250   5.287
  174SLPC  H10Y19739   4.062   2.125   5.325
  174SLPC  C31119740   4.126   2.289   5.198
  174SLPC  H11X19741   4.236   2.274   5.200
  174SLPC  H11Y19742   4.110   2.398   5.189
  174SLPC  C31219743   4.069   2.235   5.065
  174SLPC  H12X19744   3.962   2.262   5.054
  174SLPC  H12Y19745   4.091   2.127   5.053
  174SLPC  C31319746   4.140   2.295   4.949
  174SLPC  H13X19747   4.237   2.242   4.942
  174SLPC  H13Y19748   4.153   2.404   4.966
  174SLPC  C31419749   4.068   2.261   4.822
  174SLPC  H14X19750   4.114   2.329   4.747
  174SLPC  H14Y19751   3.960   2.286   4.824
  174SLPC  C31519752   4.081   2.117   4.775
  174SLPC  H15X19753   4.015   2.052   4.836
  174SLPC  H15Y19754   4.183   2.076   4.795
  174SLPC  C31619755   4.045   2.101   4.622
  174SLPC  H16X19756   4.129   2.141   4.559
  174SLPC  H16Y19757   3.960   2.167   4.592
  174SLPC  C31719758   4.032   1.955   4.593
  174SLPC  H17X19759   3.958   1.913   4.665
  174SLPC  H17Y19760   4.126   1.904   4.622
  174SLPC  C31819761   4.001   1.917   4.448
  174SLPC  H18X19762   4.000   1.806   4.445
  174SLPC  H18Y19763   4.081   1.949   4.378
  174SLPC  H18Z19764   3.901   1.956   4.422
  175SLPC     N19765   6.272   2.991   7.070
  175SLPC   C1319766   6.283   3.139   7.036
  175SLPC  H13A19767   6.368   3.183   7.086
  175SLPC  H13B19768   6.292   3.146   6.928
  175SLPC  H13C19769   6.194   3.195   7.058
  175SLPC   C1419770   6.204   2.984   7.203
  175SLPC  H14A19771   6.100   3.009   7.187
  175SLPC  H14B19772   6.209   2.884   7.244
  175SLPC  H14C19773   6.255   3.045   7.276
  175SLPC   C1519774   6.409   2.920   7.072
  175SLPC  H15A19775   6.388   2.814   7.081
  175SLPC  H15B19776   6.470   2.942   6.986
  175SLPC  H15C19777   6.452   2.947   7.167
  175SLPC   C1219778   6.183   2.912   6.970
  175SLPC  H12A19779   6.089   2.965   6.961
  175SLPC  H12B19780   6.154   2.817   7.012
  175SLPC   C1119781   6.237   2.888   6.825
  175SLPC  H11A19782   6.153   2.839   6.772
  175SLPC  H11B19783   6.310   2.805   6.827
  175SLPC     P19784   6.417   3.045   6.717
  175SLPC   O1319785   6.460   3.168   6.784
  175SLPC   O1419786   6.503   2.923   6.746
  175SLPC   O1219787   6.268   3.011   6.756
  175SLPC   O1119788   6.404   3.073   6.560
  175SLPC    C119789   6.435   2.972   6.469
  175SLPC    HA19790   6.544   2.953   6.466
  175SLPC    HB19791   6.385   2.879   6.505
  175SLPC    C219792   6.365   2.985   6.326
  175SLPC    HS19793   6.363   2.885   6.279
  175SLPC   O2119794   6.435   3.082   6.237
  175SLPC   C2119795   6.546   3.049   6.183
  175SLPC   O2219796   6.604   2.944   6.201
  175SLPC   C2219797   6.567   3.158   6.073
  175SLPC   H2R19798   6.498   3.242   6.098
  175SLPC   H2S19799   6.673   3.186   6.090
  175SLPC    C319800   6.214   3.027   6.336
  175SLPC    HX19801   6.197   3.110   6.408
  175SLPC    HY19802   6.167   2.940   6.388
  175SLPC   O3119803   6.149   3.047   6.212
  175SLPC   C3119804   6.154   3.172   6.173
  175SLPC   O3219805   6.192   3.269   6.234
  175SLPC   C3219806   6.103   3.176   6.029
  175SLPC   H2X19807   6.024   3.099   6.016
  175SLPC   H2Y19808   6.195   3.140   5.977
  175SLPC   C2319809   6.529   3.107   5.939
  175SLPC   H3R19810   6.426   3.065   5.937
  175SLPC   H3S19811   6.595   3.025   5.902
  175SLPC   C2419812   6.539   3.224   5.846
  175SLPC   H4R19813   6.644   3.258   5.850
  175SLPC   H4S19814   6.464   3.297   5.884
  175SLPC   C2519815   6.487   3.180   5.712
  175SLPC   H5R19816   6.396   3.116   5.704
  175SLPC   H5S19817   6.567   3.129   5.656
  175SLPC   C2619818   6.469   3.299   5.616
  175SLPC   H6R19819   6.573   3.332   5.595
  175SLPC   H6S19820   6.427   3.389   5.667
  175SLPC   C2719821   6.395   3.265   5.486
  175SLPC   H7R19822   6.303   3.214   5.521
  175SLPC   H7S19823   6.457   3.192   5.429
  175SLPC   C2819824   6.367   3.381   5.390
  175SLPC   H8R19825   6.334   3.474   5.441
  175SLPC   H8S19826   6.280   3.352   5.327
  175SLPC   C2919827   6.475   3.413   5.294
  175SLPC   H9R19828   6.543   3.492   5.328
  175SLPC  C21019829   6.488   3.347   5.172
  175SLPC  H10R19830   6.576   3.376   5.112
  175SLPC  C21119831   6.398   3.242   5.119
  175SLPC  H11R19832   6.350   3.180   5.197
  175SLPC  H11S19833   6.456   3.162   5.069
  175SLPC  C21219834   6.287   3.305   5.028
  175SLPC  H12R19835   6.223   3.378   5.079
  175SLPC  C21319836   6.262   3.278   4.896
  175SLPC  H13R19837   6.182   3.332   4.844
  175SLPC  C21419838   6.326   3.178   4.807
  175SLPC  H14R19839   6.434   3.170   4.835
  175SLPC  H14S19840   6.327   3.218   4.704
  175SLPC  C21519841   6.282   3.032   4.821
  175SLPC  H15R19842   6.176   3.021   4.787
  175SLPC  H15S19843   6.271   3.000   4.927
  175SLPC  C21619844   6.345   2.942   4.721
  175SLPC  H16R19845   6.455   2.935   4.735
  175SLPC  H16S19846   6.336   2.992   4.622
  175SLPC  C21719847   6.280   2.807   4.694
  175SLPC  H17R19848   6.183   2.838   4.650
  175SLPC  H17S19849   6.260   2.756   4.791
  175SLPC  C21819850   6.357   2.728   4.586
  175SLPC  H18R19851   6.291   2.642   4.561
  175SLPC  H18S19852   6.446   2.695   4.644
  175SLPC  H18T19853   6.388   2.783   4.495
  175SLPC   C3319854   6.062   3.312   5.974
  175SLPC   H3X19855   6.120   3.391   6.026
  175SLPC   H3Y19856   5.955   3.327   5.999
  175SLPC   C3419857   6.080   3.322   5.819
  175SLPC   H4X19858   6.184   3.293   5.794
  175SLPC   H4Y19859   6.071   3.430   5.796
  175SLPC   C3519860   5.971   3.249   5.734
  175SLPC   H5X19861   5.882   3.315   5.728
  175SLPC   H5Y19862   5.944   3.157   5.790
  175SLPC   C3619863   6.029   3.207   5.597
  175SLPC   H6X19864   6.114   3.137   5.615
  175SLPC   H6Y19865   6.070   3.301   5.554
  175SLPC   C3719866   5.933   3.150   5.494
  175SLPC   H7X19867   5.852   3.220   5.465
  175SLPC   H7Y19868   5.879   3.065   5.542
  175SLPC   C3819869   6.009   3.108   5.364
  175SLPC   H8X19870   6.084   3.034   5.399
  175SLPC   H8Y19871   6.051   3.196   5.311
  175SLPC   C3919872   5.906   3.051   5.263
  175SLPC   H9X19873   5.819   3.116   5.244
  175SLPC   H9Y19874   5.872   2.960   5.316
  175SLPC  C31019875   5.975   3.000   5.135
  175SLPC  H10X19876   6.016   2.898   5.151
  175SLPC  H10Y19877   6.069   3.051   5.105
  175SLPC  C31119878   5.881   3.000   5.009
  175SLPC  H11X19879   5.778   2.967   5.035
  175SLPC  H11Y19880   5.922   2.923   4.941
  175SLPC  C31219881   5.877   3.145   4.956
  175SLPC  H12X19882   5.983   3.174   4.938
  175SLPC  H12Y19883   5.845   3.213   5.037
  175SLPC  C31319884   5.783   3.160   4.835
  175SLPC  H13X19885   5.682   3.135   4.874
  175SLPC  H13Y19886   5.813   3.095   4.750
  175SLPC  C31419887   5.780   3.307   4.791
  175SLPC  H14X19888   5.874   3.314   4.733
  175SLPC  H14Y19889   5.783   3.381   4.873
  175SLPC  C31519890   5.671   3.339   4.692
  175SLPC  H15X19891   5.570   3.329   4.738
  175SLPC  H15Y19892   5.672   3.259   4.615
  175SLPC  C31619893   5.670   3.478   4.630
  175SLPC  H16X19894   5.755   3.497   4.561
  175SLPC  H16Y19895   5.673   3.547   4.717
  175SLPC  C31719896   5.540   3.513   4.557
  175SLPC  H17X19897   5.453   3.504   4.625
  175SLPC  H17Y19898   5.517   3.447   4.470
  175SLPC  C31819899   5.528   3.662   4.513
  175SLPC  H18X19900   5.612   3.693   4.447
  175SLPC  H18Y19901   5.517   3.729   4.600
  175SLPC  H18Z19902   5.433   3.657   4.456
  176SLPC     N19903   5.410   0.234   6.458
  176SLPC   C1319904   5.488   0.201   6.582
  176SLPC  H13A19905   5.430   0.227   6.669
  176SLPC  H13B19906   5.506   0.094   6.581
  176SLPC  H13C19907   5.579   0.259   6.583
  176SLPC   C1419908   5.265   0.188   6.480
  176SLPC  H14A19909   5.201   0.239   6.550
  176SLPC  H14B19910   5.222   0.204   6.382
  176SLPC  H14C19911   5.265   0.082   6.500
  176SLPC   C1519912   5.468   0.156   6.346
  176SLPC  H15A19913   5.425   0.059   6.366
  176SLPC  H15B19914   5.437   0.190   6.248
  176SLPC  H15C19915   5.575   0.165   6.360
  176SLPC   C1219916   5.403   0.376   6.424
  176SLPC  H12A19917   5.343   0.388   6.335
  176SLPC  H12B19918   5.500   0.406   6.388
  176SLPC   C1119919   5.371   0.481   6.530
  176SLPC  H11A19920   5.276   0.454   6.582
  176SLPC  H11B19921   5.350   0.576   6.475
  176SLPC     P19922   5.619   0.538   6.588
  176SLPC   O1319923   5.673   0.620   6.703
  176SLPC   O1419924   5.699   0.421   6.551
  176SLPC   O1219925   5.467   0.483   6.633
  176SLPC   O1119926   5.601   0.619   6.456
  176SLPC    C119927   5.709   0.608   6.368
  176SLPC    HA19928   5.805   0.617   6.423
  176SLPC    HB19929   5.700   0.512   6.313
  176SLPC    C219930   5.703   0.722   6.248
  176SLPC    HS19931   5.804   0.728   6.204
  176SLPC   O2119932   5.669   0.855   6.294
  176SLPC   C2119933   5.746   0.901   6.395
  176SLPC   O2219934   5.844   0.846   6.434
  176SLPC   C2219935   5.694   1.035   6.447
  176SLPC   H2R19936   5.597   1.058   6.398
  176SLPC   H2S19937   5.679   1.034   6.557
  176SLPC    C319938   5.596   0.681   6.142
  176SLPC    HX19939   5.510   0.650   6.205
  176SLPC    HY19940   5.634   0.587   6.096
  176SLPC   O3119941   5.563   0.781   6.037
  176SLPC   C3119942   5.650   0.800   5.943
  176SLPC   O3219943   5.752   0.736   5.924
  176SLPC   C3219944   5.606   0.921   5.868
  176SLPC   H2X19945   5.610   1.012   5.930
  176SLPC   H2Y19946   5.504   0.899   5.828
  176SLPC   C2319947   5.791   1.147   6.425
  176SLPC   H3R19948   5.869   1.136   6.504
  176SLPC   H3S19949   5.742   1.244   6.444
  176SLPC   C2419950   5.861   1.150   6.286
  176SLPC   H4R19951   5.924   1.059   6.270
  176SLPC   H4S19952   5.929   1.238   6.294
  176SLPC   C2519953   5.764   1.185   6.175
  176SLPC   H5R19954   5.733   1.291   6.190
  176SLPC   H5S19955   5.673   1.121   6.180
  176SLPC   C2619956   5.815   1.175   6.034
  176SLPC   H6R19957   5.737   1.220   5.969
  176SLPC   H6S19958   5.828   1.072   5.997
  176SLPC   C2719959   5.949   1.251   6.016
  176SLPC   H7R19960   6.037   1.208   6.070
  176SLPC   H7S19961   5.942   1.352   6.062
  176SLPC   C2819962   5.985   1.267   5.869
  176SLPC   H8R19963   6.052   1.355   5.865
  176SLPC   H8S19964   5.888   1.281   5.818
  176SLPC   C2919965   6.058   1.146   5.807
  176SLPC   H9R19966   5.987   1.079   5.756
  176SLPC  C21019967   6.190   1.116   5.795
  176SLPC  H10R19968   6.226   1.032   5.735
  176SLPC  C21119969   6.302   1.195   5.855
  176SLPC  H11R19970   6.266   1.250   5.945
  176SLPC  H11S19971   6.348   1.268   5.786
  176SLPC  C21219972   6.416   1.106   5.894
  176SLPC  H12R19973   6.413   1.091   6.002
  176SLPC  C21319974   6.515   1.043   5.827
  176SLPC  H13R19975   6.591   0.987   5.884
  176SLPC  C21419976   6.523   1.045   5.675
  176SLPC  H14R19977   6.621   1.085   5.640
  176SLPC  H14S19978   6.448   1.110   5.625
  176SLPC  C21519979   6.517   0.906   5.615
  176SLPC  H15R19980   6.428   0.850   5.653
  176SLPC  H15S19981   6.613   0.862   5.649
  176SLPC  C21619982   6.509   0.925   5.460
  176SLPC  H16R19983   6.596   0.978   5.417
  176SLPC  H16S19984   6.423   0.989   5.431
  176SLPC  C21719985   6.503   0.792   5.379
  176SLPC  H17R19986   6.603   0.742   5.385
  176SLPC  H17S19987   6.500   0.833   5.276
  176SLPC  C21819988   6.386   0.695   5.394
  176SLPC  H18R19989   6.301   0.766   5.382
  176SLPC  H18S19990   6.376   0.653   5.497
  176SLPC  H18T19991   6.362   0.621   5.315
  176SLPC   C3319992   5.700   0.950   5.745
  176SLPC   H3X19993   5.668   0.878   5.666
  176SLPC   H3Y19994   5.806   0.938   5.777
  176SLPC   C3419995   5.679   1.090   5.691
  176SLPC   H4X19996   5.718   1.168   5.759
  176SLPC   H4Y19997   5.569   1.101   5.679
  176SLPC   C3519998   5.756   1.114   5.556
  176SLPC   H5X19999   5.742   1.014   5.511
  176SLPC   H5Y20000   5.863   1.126   5.585
  176SLPC   C3620001   5.716   1.246   5.492
  176SLPC   H6X20002   5.784   1.274   5.409
  176SLPC   H6Y20003   5.713   1.330   5.564
  176SLPC   C3720004   5.573   1.235   5.438
  176SLPC   H7X20005   5.505   1.251   5.524
  176SLPC   H7Y20006   5.567   1.132   5.398
  176SLPC   C3820007   5.532   1.345   5.338
  176SLPC   H8X20008   5.620   1.397   5.294
  176SLPC   H8Y20009   5.478   1.415   5.404
  176SLPC   C3920010   5.427   1.303   5.238
  176SLPC   H9X20011   5.365   1.227   5.291
  176SLPC   H9Y20012   5.461   1.239   5.153
  176SLPC  C31020013   5.335   1.420   5.185
  176SLPC  H10X20014   5.400   1.470   5.110
  176SLPC  H10Y20015   5.314   1.486   5.272
  176SLPC  C31120016   5.210   1.391   5.103
  176SLPC  H11X20017   5.173   1.490   5.071
  176SLPC  H11Y20018   5.124   1.346   5.158
  176SLPC  C31220019   5.238   1.313   4.976
  176SLPC  H12X20020   5.197   1.210   4.980
  176SLPC  H12Y20021   5.342   1.309   4.936
  176SLPC  C31320022   5.158   1.366   4.859
  176SLPC  H13X20023   5.193   1.311   4.769
  176SLPC  H13Y20024   5.170   1.476   4.850
  176SLPC  C31420025   5.005   1.335   4.875
  176SLPC  H14X20026   4.960   1.418   4.933
  176SLPC  H14Y20027   4.981   1.240   4.927
  176SLPC  C31520028   4.938   1.329   4.740
  176SLPC  H15X20029   4.994   1.255   4.679
  176SLPC  H15Y20030   4.958   1.426   4.690
  176SLPC  C31620031   4.787   1.300   4.741
  176SLPC  H16X20032   4.752   1.284   4.637
  176SLPC  H16Y20033   4.740   1.396   4.768
  176SLPC  C31720034   4.737   1.179   4.817
  176SLPC  H17X20035   4.745   1.200   4.926
  176SLPC  H17Y20036   4.802   1.093   4.790
  176SLPC  C31820037   4.591   1.151   4.799
  176SLPC  H18X20038   4.569   1.094   4.706
  176SLPC  H18Y20039   4.539   1.249   4.801
  176SLPC  H18Z20040   4.542   1.104   4.886
  177SLPC     N20041   6.071   1.687   7.270
  177SLPC   C1320042   6.162   1.705   7.387
  177SLPC  H13A20043   6.106   1.693   7.479
  177SLPC  H13B20044   6.259   1.658   7.379
  177SLPC  H13C20045   6.183   1.810   7.403
  177SLPC   C1420046   5.976   1.804   7.285
  177SLPC  H14A20047   5.927   1.811   7.381
  177SLPC  H14B20048   6.034   1.894   7.271
  177SLPC  H14C20049   5.898   1.814   7.211
  177SLPC   C1520050   6.005   1.555   7.286
  177SLPC  H15A20051   5.942   1.527   7.203
  177SLPC  H15B20052   6.084   1.480   7.285
  177SLPC  H15C20053   5.950   1.541   7.378
  177SLPC   C1220054   6.137   1.694   7.136
  177SLPC  H12A20055   6.215   1.619   7.135
  177SLPC  H12B20056   6.188   1.789   7.124
  177SLPC   C1120057   6.049   1.677   7.007
  177SLPC  H11A20058   6.016   1.574   6.984
  177SLPC  H11B20059   6.116   1.698   6.921
  177SLPC     P20060   5.948   1.901   6.938
  177SLPC   O1320061   5.853   1.993   6.996
  177SLPC   O1420062   6.088   1.938   6.948
  177SLPC   O1220063   5.933   1.763   7.005
  177SLPC   O1120064   5.911   1.889   6.783
  177SLPC    C120065   5.882   1.770   6.713
  177SLPC    HA20066   5.922   1.684   6.770
  177SLPC    HB20067   5.771   1.762   6.712
  177SLPC    C220068   5.943   1.781   6.575
  177SLPC    HS20069   5.911   1.878   6.531
  177SLPC   O2120070   5.897   1.670   6.503
  177SLPC   C2120071   5.768   1.691   6.460
  177SLPC   O2220072   5.705   1.793   6.475
  177SLPC   C2220073   5.707   1.566   6.411
  177SLPC   H2R20074   5.774   1.478   6.422
  177SLPC   H2S20075   5.626   1.541   6.483
  177SLPC    C320076   6.101   1.784   6.582
  177SLPC    HX20077   6.138   1.683   6.611
  177SLPC    HY20078   6.137   1.847   6.666
  177SLPC   O3120079   6.158   1.801   6.455
  177SLPC   C3120080   6.189   1.924   6.424
  177SLPC   O3220081   6.189   2.021   6.499
  177SLPC   C3220082   6.232   1.933   6.275
  177SLPC   H2X20083   6.141   1.901   6.220
  177SLPC   H2Y20084   6.313   1.856   6.269
  177SLPC   C2320085   5.658   1.563   6.269
  177SLPC   H3R20086   5.573   1.634   6.261
  177SLPC   H3S20087   5.621   1.459   6.268
  177SLPC   C2420088   5.771   1.576   6.165
  177SLPC   H4R20089   5.844   1.498   6.197
  177SLPC   H4S20090   5.817   1.673   6.191
  177SLPC   C2520091   5.713   1.560   6.027
  177SLPC   H5R20092   5.618   1.618   6.021
  177SLPC   H5S20093   5.699   1.451   6.018
  177SLPC   C2620094   5.787   1.599   5.897
  177SLPC   H6R20095   5.895   1.575   5.908
  177SLPC   H6S20096   5.798   1.709   5.892
  177SLPC   C2720097   5.726   1.539   5.764
  177SLPC   H7R20098   5.626   1.587   5.759
  177SLPC   H7S20099   5.708   1.430   5.763
  177SLPC   C2820100   5.799   1.593   5.638
  177SLPC   H8R20101   5.792   1.704   5.641
  177SLPC   H8S20102   5.743   1.558   5.548
  177SLPC   C2920103   5.942   1.543   5.623
  177SLPC   H9R20104   5.999   1.541   5.717
  177SLPC  C21020105   5.996   1.484   5.508
  177SLPC  H10R20106   6.097   1.441   5.505
  177SLPC  C21120107   5.935   1.472   5.372
  177SLPC  H11R20108   5.825   1.480   5.372
  177SLPC  H11S20109   5.952   1.367   5.337
  177SLPC  C21220110   6.006   1.573   5.282
  177SLPC  H12R20111   6.086   1.631   5.330
  177SLPC  C21320112   5.958   1.615   5.161
  177SLPC  H13R20113   6.003   1.699   5.105
  177SLPC  C21420114   5.836   1.548   5.112
  177SLPC  H14R20115   5.753   1.608   5.156
  177SLPC  H14S20116   5.827   1.440   5.138
  177SLPC  C21520117   5.840   1.551   4.960
  177SLPC  H15R20118   5.909   1.469   4.933
  177SLPC  H15S20119   5.881   1.641   4.909
  177SLPC  C21620120   5.702   1.516   4.905
  177SLPC  H16R20121   5.630   1.587   4.949
  177SLPC  H16S20122   5.681   1.410   4.932
  177SLPC  C21720123   5.702   1.508   4.751
  177SLPC  H17R20124   5.783   1.448   4.704
  177SLPC  H17S20125   5.721   1.608   4.708
  177SLPC  C21820126   5.571   1.448   4.703
  177SLPC  H18R20127   5.577   1.433   4.593
  177SLPC  H18S20128   5.484   1.514   4.723
  177SLPC  H18T20129   5.548   1.350   4.749
  177SLPC   C3320130   6.266   2.073   6.214
  177SLPC   H3X20131   6.351   2.122   6.265
  177SLPC   H3Y20132   6.183   2.146   6.222
  177SLPC   C3420133   6.291   2.059   6.062
  177SLPC   H4X20134   6.211   1.987   6.033
  177SLPC   H4Y20135   6.388   2.006   6.049
  177SLPC   C3520136   6.293   2.190   5.982
  177SLPC   H5X20137   6.380   2.254   6.008
  177SLPC   H5Y20138   6.210   2.260   6.007
  177SLPC   C3620139   6.294   2.176   5.831
  177SLPC   H6X20140   6.211   2.110   5.799
  177SLPC   H6Y20141   6.387   2.118   5.813
  177SLPC   C3720142   6.282   2.304   5.750
  177SLPC   H7X20143   6.360   2.377   5.780
  177SLPC   H7Y20144   6.183   2.341   5.781
  177SLPC   C3820145   6.277   2.274   5.599
  177SLPC   H8X20146   6.178   2.232   5.573
  177SLPC   H8Y20147   6.367   2.210   5.582
  177SLPC   C3920148   6.300   2.388   5.506
  177SLPC   H9X20149   6.359   2.470   5.553
  177SLPC   H9Y20150   6.206   2.445   5.490
  177SLPC  C31020151   6.375   2.354   5.380
  177SLPC  H10X20152   6.464   2.289   5.398
  177SLPC  H10Y20153   6.411   2.448   5.333
  177SLPC  C31120154   6.287   2.288   5.278
  177SLPC  H11X20155   6.194   2.346   5.259
  177SLPC  H11Y20156   6.255   2.191   5.321
  177SLPC  C31220157   6.368   2.272   5.145
  177SLPC  H12X20158   6.447   2.194   5.151
  177SLPC  H12Y20159   6.418   2.370   5.132
  177SLPC  C31320160   6.281   2.241   5.021
  177SLPC  H13X20161   6.197   2.313   5.025
  177SLPC  H13Y20162   6.241   2.142   5.047
  177SLPC  C31420163   6.348   2.246   4.884
  177SLPC  H14X20164   6.298   2.173   4.817
  177SLPC  H14Y20165   6.451   2.207   4.899
  177SLPC  C31520166   6.362   2.383   4.812
  177SLPC  H15X20167   6.410   2.463   4.872
  177SLPC  H15Y20168   6.256   2.403   4.787
  177SLPC  C31620169   6.441   2.370   4.680
  177SLPC  H16X20170   6.551   2.373   4.698
  177SLPC  H16Y20171   6.427   2.469   4.631
  177SLPC  C31720172   6.398   2.266   4.575
  177SLPC  H17X20173   6.288   2.275   4.562
  177SLPC  H17Y20174   6.424   2.164   4.609
  177SLPC  C31820175   6.462   2.290   4.434
  177SLPC  H18X20176   6.425   2.213   4.364
  177SLPC  H18Y20177   6.573   2.294   4.434
  177SLPC  H18Z20178   6.418   2.381   4.388
  178SLPC     N20179   2.554   0.158   6.469
  178SLPC   C1320180   2.423   0.097   6.452
  178SLPC  H13A20181   2.369   0.075   6.543
  178SLPC  H13B20182   2.363   0.158   6.387
  178SLPC  H13C20183   2.422   0.001   6.402
  178SLPC   C1420184   2.537   0.283   6.550
  178SLPC  H14A20185   2.515   0.262   6.654
  178SLPC  H14B20186   2.629   0.339   6.550
  178SLPC  H14C20187   2.455   0.345   6.515
  178SLPC   C1520188   2.593   0.206   6.331
  178SLPC  H15A20189   2.647   0.130   6.277
  178SLPC  H15B20190   2.504   0.239   6.279
  178SLPC  H15C20191   2.670   0.281   6.340
  178SLPC   C1220192   2.662   0.071   6.525
  178SLPC  H12A20193   2.753   0.128   6.511
  178SLPC  H12B20194   2.674   6.866   6.459
  178SLPC   C1120195   2.667   0.016   6.671
  178SLPC  H11A20196   2.654   0.096   6.746
  178SLPC  H11B20197   2.774   6.871   6.689
  178SLPC     P20198   2.619   6.654   6.641
  178SLPC   O1320199   2.713   6.600   6.752
  178SLPC   O1420200   2.501   6.565   6.607
  178SLPC   O1220201   2.568   6.797   6.686
  178SLPC   O1120202   2.702   6.681   6.511
  178SLPC    C120203   2.772   6.559   6.453
  178SLPC    HA20204   2.876   6.556   6.492
  178SLPC    HB20205   2.719   6.467   6.486
  178SLPC    C220206   2.772   6.578   6.299
  178SLPC    HS20207   2.841   6.659   6.270
  178SLPC   O2120208   2.634   6.602   6.254
  178SLPC   C2120209   2.613   6.721   6.211
  178SLPC   O2220210   2.690   6.815   6.228
  178SLPC   C2220211   2.464   6.739   6.167
  178SLPC   H2R20212   2.402   6.666   6.223
  178SLPC   H2S20213   2.438   6.843   6.199
  178SLPC    C320214   2.821   6.443   6.234
  178SLPC    HX20215   2.731   6.381   6.212
  178SLPC    HY20216   2.892   6.401   6.308
  178SLPC   O3120217   2.887   6.481   6.113
  178SLPC   C3120218   2.908   6.369   6.031
  178SLPC   O3220219   2.864   6.257   6.059
  178SLPC   C3220220   2.997   6.403   5.917
  178SLPC   H2X20221   3.098   6.371   5.951
  178SLPC   H2Y20222   2.987   6.512   5.899
  178SLPC   C2320223   2.427   6.720   6.019
  178SLPC   H3R20224   2.320   6.744   6.003
  178SLPC   H3S20225   2.455   6.616   5.988
  178SLPC   C2420226   2.509   6.803   5.925
  178SLPC   H4R20227   2.616   6.801   5.953
  178SLPC   H4S20228   2.468   0.026   5.936
  178SLPC   C2520229   2.492   6.742   5.785
  178SLPC   H5R20230   2.390   6.768   5.749
  178SLPC   H5S20231   2.508   6.632   5.789
  178SLPC   C2620232   2.580   6.807   5.678
  178SLPC   H6R20233   2.686   6.798   5.712
  178SLPC   H6S20234   2.558   0.036   5.672
  178SLPC   C2720235   2.570   6.753   5.537
  178SLPC   H7R20236   2.475   6.785   5.489
  178SLPC   H7S20237   2.558   6.644   5.552
  178SLPC   C2820238   2.698   6.778   5.454
  178SLPC   H8R20239   2.782   6.729   5.507
  178SLPC   H8S20240   2.720   0.007   5.447
  178SLPC   C2920241   2.668   6.714   5.317
  178SLPC   H9R20242   2.698   6.609   5.303
  178SLPC  C21020243   2.604   6.778   5.220
  178SLPC  H10R20244   2.575   6.724   5.129
  178SLPC  C21120245   2.544   0.040   5.219
  178SLPC  H11R20246   2.553   0.087   5.119
  178SLPC  H11S20247   2.598   0.106   5.291
  178SLPC  C21220248   2.400   0.047   5.266
  178SLPC  H12R20249   2.368   0.002   5.362
  178SLPC  C21320250   2.301   0.114   5.202
  178SLPC  H13R20251   2.203   0.124   5.252
  178SLPC  C21420252   2.313   0.169   5.059
  178SLPC  H14R20253   2.414   0.203   5.031
  178SLPC  H14S20254   2.245   0.256   5.046
  178SLPC  C21520255   2.268   0.063   4.950
  178SLPC  H15R20256   2.168   0.021   4.974
  178SLPC  H15S20257   2.341   6.859   4.950
  178SLPC  C21620258   2.259   0.129   4.814
  178SLPC  H16R20259   2.357   0.178   4.795
  178SLPC  H16S20260   2.181   0.207   4.822
  178SLPC  C21720261   2.219   0.043   4.696
  178SLPC  H17R20262   2.156   6.847   4.748
  178SLPC  H17S20263   2.305   6.873   4.646
  178SLPC  C21820264   2.144   0.110   4.578
  178SLPC  H18R20265   2.117   0.033   4.503
  178SLPC  H18S20266   2.216   0.186   4.540
  178SLPC  H18T20267   2.049   0.158   4.612
  178SLPC   C3320268   2.953   6.319   5.792
  178SLPC   H3X20269   2.842   6.323   5.787
  178SLPC   H3Y20270   2.976   6.212   5.811
  178SLPC   C3420271   3.033   6.364   5.665
  178SLPC   H4X20272   3.013   6.287   5.588
  178SLPC   H4Y20273   3.143   6.378   5.670
  178SLPC   C3520274   2.962   6.488   5.610
  178SLPC   H5X20275   2.961   6.571   5.684
  178SLPC   H5Y20276   2.853   6.469   5.605
  178SLPC   C3620277   3.031   6.539   5.482
  178SLPC   H6X20278   3.122   6.586   5.524
  178SLPC   H6Y20279   2.978   6.627   5.439
  178SLPC   C3720280   3.074   6.432   5.376
  178SLPC   H7X20281   3.123   6.345   5.425
  178SLPC   H7Y20282   3.149   6.481   5.312
  178SLPC   C3820283   2.944   6.392   5.293
  178SLPC   H8X20284   2.885   6.482   5.267
  178SLPC   H8Y20285   2.888   6.322   5.359
  178SLPC   C3920286   2.981   6.333   5.156
  178SLPC   H9X20287   3.023   6.233   5.179
  178SLPC   H9Y20288   3.046   6.402   5.097
  178SLPC  C31020289   2.860   6.313   5.057
  178SLPC  H10X20290   2.818   6.416   5.066
  178SLPC  H10Y20291   2.784   6.236   5.081
  178SLPC  C31120292   2.903   6.280   4.914
  178SLPC  H11X20293   2.978   6.199   4.906
  178SLPC  H11Y20294   2.960   6.366   4.873
  178SLPC  C31220295   2.792   6.248   4.808
  178SLPC  H12X20296   2.734   6.342   4.818
  178SLPC  H12Y20297   2.738   6.155   4.838
  178SLPC  C31320298   2.830   6.254   4.662
  178SLPC  H13X20299   2.917   6.185   4.648
  178SLPC  H13Y20300   2.882   6.350   4.645
  178SLPC  C31420301   2.723   6.228   4.560
  178SLPC  H14X20302   2.767   6.234   4.458
  178SLPC  H14Y20303   2.644   6.306   4.559
  178SLPC  C31520304   2.660   6.086   4.575
  178SLPC  H15X20305   2.566   6.087   4.516
  178SLPC  H15Y20306   2.627   6.084   4.681
  178SLPC  C31620307   2.766   5.980   4.533
  178SLPC  H16X20308   2.852   6.000   4.601
  178SLPC  H16Y20309   2.809   6.009   4.435
  178SLPC  C31720310   2.715   5.843   4.536
  178SLPC  H17X20311   2.626   5.847   4.470
  178SLPC  H17Y20312   2.673   5.815   4.635
  178SLPC  C31820313   2.807   5.728   4.485
  178SLPC  H18X20314   2.901   5.727   4.545
  178SLPC  H18Y20315   2.845   5.751   4.383
  178SLPC  H18Z20316   2.745   5.636   4.491
  179SLPC     N20317   3.723   0.758   2.190
  179SLPC   C1320318   3.639   0.667   2.096
  179SLPC  H13A20319   3.617   0.569   2.137
  179SLPC  H13B20320   3.541   0.710   2.084
  179SLPC  H13C20321   3.683   0.659   1.998
  179SLPC   C1420322   3.743   0.878   2.104
  179SLPC  H14A20323   3.787   0.851   2.009
  179SLPC  H14B20324   3.644   0.921   2.105
  179SLPC  H14C20325   3.799   0.958   2.150
  179SLPC   C1520326   3.860   0.701   2.206
  179SLPC  H15A20327   3.915   0.686   2.114
  179SLPC  H15B20328   3.913   0.769   2.272
  179SLPC  H15C20329   3.844   0.612   2.265
  179SLPC   C1220330   3.654   0.777   2.319
  179SLPC  H12A20331   3.640   0.680   2.363
  179SLPC  H12B20332   3.555   0.817   2.302
  179SLPC   C1120333   3.718   0.874   2.418
  179SLPC  H11A20334   3.827   0.852   2.426
  179SLPC  H11B20335   3.675   0.863   2.520
  179SLPC     P20336   3.588   1.104   2.351
  179SLPC   O1320337   3.634   1.214   2.253
  179SLPC   O1420338   3.472   1.018   2.325
  179SLPC   O1220339   3.708   1.007   2.363
  179SLPC   O1120340   3.570   1.165   2.496
  179SLPC    C120341   3.671   1.230   2.572
  179SLPC    HA20342   3.770   1.234   2.523
  179SLPC    HB20343   3.650   1.335   2.601
  179SLPC    C220344   3.697   1.152   2.703
  179SLPC    HS20345   3.735   1.051   2.677
  179SLPC   O2120346   3.583   1.152   2.790
  179SLPC   C2120347   3.495   1.054   2.779
  179SLPC   O2220348   3.518   0.947   2.726
  179SLPC   C2220349   3.362   1.092   2.846
  179SLPC   H2R20350   3.310   1.181   2.804
  179SLPC   H2S20351   3.292   1.006   2.834
  179SLPC    C320352   3.822   1.208   2.786
  179SLPC    HX20353   3.814   1.317   2.806
  179SLPC    HY20354   3.907   1.184   2.718
  179SLPC   O3120355   3.818   1.130   2.912
  179SLPC   C3120356   3.922   1.042   2.924
  179SLPC   O3220357   4.009   1.030   2.842
  179SLPC   C3220358   3.933   0.970   3.066
  179SLPC   H2X20359   4.038   0.933   3.063
  179SLPC   H2Y20360   3.861   0.886   3.072
  179SLPC   C2320361   3.373   1.101   2.997
  179SLPC   H3R20362   3.271   1.099   3.040
  179SLPC   H3S20363   3.420   1.194   3.035
  179SLPC   C2420364   3.453   0.981   3.063
  179SLPC   H4R20365   3.558   0.989   3.026
  179SLPC   H4S20366   3.406   0.882   3.045
  179SLPC   C2520367   3.474   0.993   3.215
  179SLPC   H5R20368   3.551   1.072   3.228
  179SLPC   H5S20369   3.526   0.899   3.242
  179SLPC   C2620370   3.340   1.005   3.302
  179SLPC   H6R20371   3.274   0.923   3.267
  179SLPC   H6S20372   3.293   1.105   3.290
  179SLPC   C2720373   3.371   0.966   3.446
  179SLPC   H7R20374   3.463   1.024   3.466
  179SLPC   H7S20375   3.404   0.860   3.452
  179SLPC   C2820376   3.262   0.995   3.545
  179SLPC   H8R20377   3.199   1.081   3.513
  179SLPC   H8S20378   3.318   1.005   3.641
  179SLPC   C2920379   3.188   0.864   3.574
  179SLPC   H9R20380   3.180   0.794   3.490
  179SLPC  C21020381   3.137   0.821   3.691
  179SLPC  H10R20382   3.096   0.720   3.692
  179SLPC  C21120383   3.138   0.893   3.823
  179SLPC  H11R20384   3.035   0.904   3.865
  179SLPC  H11S20385   3.168   1.000   3.818
  179SLPC  C21220386   3.226   0.824   3.922
  179SLPC  H12R20387   3.317   0.772   3.888
  179SLPC  C21320388   3.201   0.801   4.050
  179SLPC  H13R20389   3.284   0.766   4.112
  179SLPC  C21420390   3.088   0.848   4.131
  179SLPC  H14R20391   3.122   0.824   4.234
  179SLPC  H14S20392   2.990   0.795   4.129
  179SLPC  C21520393   3.060   0.997   4.114
  179SLPC  H15R20394   3.052   1.026   4.007
  179SLPC  H15S20395   3.151   1.053   4.143
  179SLPC  C21620396   2.929   1.045   4.185
  179SLPC  H16R20397   2.850   0.995   4.126
  179SLPC  H16S20398   2.912   1.155   4.175
  179SLPC  C21720399   2.928   1.007   4.333
  179SLPC  H17R20400   2.943   0.897   4.341
  179SLPC  H17S20401   2.824   1.024   4.368
  179SLPC  C21820402   3.029   1.085   4.414
  179SLPC  H18R20403   3.011   1.063   4.522
  179SLPC  H18S20404   3.007   1.193   4.409
  179SLPC  H18T20405   3.136   1.077   4.387
  179SLPC   C3320406   3.921   1.060   3.194
  179SLPC   H3X20407   3.831   1.123   3.175
  179SLPC   H3Y20408   4.005   1.129   3.172
  179SLPC   C3420409   3.944   0.981   3.326
  179SLPC   H4X20410   4.035   0.919   3.310
  179SLPC   H4Y20411   3.860   0.909   3.343
  179SLPC   C3520412   3.970   1.059   3.451
  179SLPC   H5X20413   4.046   1.135   3.425
  179SLPC   H5Y20414   3.875   1.111   3.476
  179SLPC   C3620415   4.001   0.981   3.579
  179SLPC   H6X20416   4.083   0.907   3.566
  179SLPC   H6Y20417   3.909   0.921   3.599
  179SLPC   C3720418   4.021   1.076   3.704
  179SLPC   H7X20419   3.936   1.147   3.712
  179SLPC   H7Y20420   4.122   1.123   3.706
  179SLPC   C3820421   4.009   0.984   3.830
  179SLPC   H8X20422   4.084   0.903   3.821
  179SLPC   H8Y20423   3.912   0.932   3.838
  179SLPC   C3920424   4.051   1.061   3.964
  179SLPC   H9X20425   3.997   1.157   3.979
  179SLPC   H9Y20426   4.160   1.077   3.960
  179SLPC  C31020427   4.037   0.965   4.087
  179SLPC  H10X20428   4.095   0.876   4.057
  179SLPC  H10Y20429   3.930   0.936   4.099
  179SLPC  C31120430   4.080   1.010   4.227
  179SLPC  H11X20431   4.074   0.918   4.288
  179SLPC  H11Y20432   4.007   1.083   4.269
  179SLPC  C31220433   4.222   1.057   4.240
  179SLPC  H12X20434   4.215   1.164   4.211
  179SLPC  H12Y20435   4.299   1.010   4.175
  179SLPC  C31320436   4.268   1.051   4.386
  179SLPC  H13X20437   4.254   0.946   4.421
  179SLPC  H13Y20438   4.207   1.116   4.452
  179SLPC  C31420439   4.415   1.087   4.414
  179SLPC  H14X20440   4.439   1.073   4.522
  179SLPC  H14Y20441   4.423   1.195   4.390
  179SLPC  C31520442   4.521   1.009   4.332
  179SLPC  H15X20443   4.518   1.027   4.223
  179SLPC  H15Y20444   4.497   0.901   4.337
  179SLPC  C31620445   4.666   1.022   4.386
  179SLPC  H16X20446   4.667   0.972   4.485
  179SLPC  H16Y20447   4.692   1.129   4.404
  179SLPC  C31720448   4.770   0.954   4.292
  179SLPC  H17X20449   4.758   0.988   4.187
  179SLPC  H17Y20450   4.741   0.848   4.303
  179SLPC  C31820451   4.909   0.976   4.345
  179SLPC  H18X20452   4.902   0.978   4.456
  179SLPC  H18Y20453   4.956   1.066   4.301
  179SLPC  H18Z20454   4.968   0.888   4.312
  180SLPC     N20455   2.722   1.275   1.897
  180SLPC   C1320456   2.815   1.391   1.912
  180SLPC  H13A20457   2.913   1.357   1.944
  180SLPC  H13B20458   2.829   1.431   1.812
  180SLPC  H13C20459   2.768   1.462   1.979
  180SLPC   C1420460   2.779   1.196   1.786
  180SLPC  H14A20461   2.878   1.159   1.807
  180SLPC  H14B20462   2.723   1.106   1.769
  180SLPC  H14C20463   2.775   1.253   1.694
  180SLPC   C1520464   2.591   1.323   1.845
  180SLPC  H15A20465   2.590   1.377   1.752
  180SLPC  H15B20466   2.522   1.240   1.834
  180SLPC  H15C20467   2.544   1.386   1.919
  180SLPC   C1220468   2.706   1.199   2.025
  180SLPC  H12A20469   2.681   1.268   2.104
  180SLPC  H12B20470   2.795   1.143   2.049
  180SLPC   C1120471   2.595   1.088   2.034
  180SLPC  H11A20472   2.615   1.022   2.121
  180SLPC  H11B20473   2.602   1.023   1.945
  180SLPC     P20474   2.343   1.060   2.103
  180SLPC   O1320475   2.225   1.156   2.129
  180SLPC   O1420476   2.314   0.946   2.014
  180SLPC   O1220477   2.461   1.140   2.039
  180SLPC   O1120478   2.399   1.010   2.244
  180SLPC    C120479   2.433   1.104   2.347
  180SLPC    HA20480   2.543   1.118   2.342
  180SLPC    HB20481   2.377   1.199   2.330
  180SLPC    C220482   2.395   1.047   2.488
  180SLPC    HS20483   2.476   0.977   2.518
  180SLPC   O2120484   2.264   0.998   2.496
  180SLPC   C2120485   2.262   0.864   2.493
  180SLPC   O2220486   2.363   0.792   2.499
  180SLPC   C2220487   2.121   0.824   2.459
  180SLPC   H2R20488   2.086   0.880   2.370
  180SLPC   H2S20489   2.127   0.719   2.421
  180SLPC    C320490   2.397   1.160   2.589
  180SLPC    HX20491   2.324   1.243   2.575
  180SLPC    HY20492   2.497   1.208   2.584
  180SLPC   O3120493   2.378   1.124   2.726
  180SLPC   C3120494   2.467   1.063   2.782
  180SLPC   O3220495   2.584   1.052   2.738
  180SLPC   C3220496   2.411   1.017   2.911
  180SLPC   H2X20497   2.453   0.919   2.943
  180SLPC   H2Y20498   2.300   1.004   2.908
  180SLPC   C2320499   2.028   0.841   2.580
  180SLPC   H3R20500   1.922   0.824   2.549
  180SLPC   H3S20501   2.026   0.949   2.608
  180SLPC   C2420502   2.066   0.740   2.685
  180SLPC   H4R20503   2.172   0.747   2.717
  180SLPC   H4S20504   2.051   0.637   2.647
  180SLPC   C2520505   1.965   0.747   2.803
  180SLPC   H5R20506   1.866   0.714   2.764
  180SLPC   H5S20507   1.958   0.848   2.849
  180SLPC   C2620508   2.011   0.649   2.920
  180SLPC   H6R20509   2.017   0.546   2.877
  180SLPC   H6S20510   1.934   0.645   3.000
  180SLPC   C2720511   2.128   0.698   3.005
  180SLPC   H7R20512   2.117   0.805   3.034
  180SLPC   H7S20513   2.219   0.694   2.942
  180SLPC   C2820514   2.148   0.606   3.129
  180SLPC   H8R20515   2.190   0.505   3.114
  180SLPC   H8S20516   2.057   0.604   3.192
  180SLPC   C2920517   2.244   0.678   3.215
  180SLPC   H9R20518   2.319   0.726   3.151
  180SLPC  C21020519   2.253   0.712   3.342
  180SLPC  H10R20520   2.347   0.764   3.366
  180SLPC  C21120521   2.184   0.656   3.462
  180SLPC  H11R20522   2.120   0.568   3.437
  180SLPC  H11S20523   2.113   0.727   3.510
  180SLPC  C21220524   2.279   0.582   3.564
  180SLPC  H12R20525   2.303   0.475   3.557
  180SLPC  C21320526   2.315   0.641   3.684
  180SLPC  H13R20527   2.399   0.594   3.737
  180SLPC  C21420528   2.277   0.787   3.719
  180SLPC  H14R20529   2.265   0.857   3.633
  180SLPC  H14S20530   2.358   0.835   3.777
  180SLPC  C21520531   2.143   0.779   3.801
  180SLPC  H15R20532   2.137   0.704   3.883
  180SLPC  H15S20533   2.055   0.749   3.740
  180SLPC  C21620534   2.117   0.915   3.856
  180SLPC  H16R20535   2.147   1.001   3.793
  180SLPC  H16S20536   2.181   0.931   3.946
  180SLPC  C21720537   1.964   0.936   3.872
  180SLPC  H17R20538   1.922   0.842   3.912
  180SLPC  H17S20539   1.926   0.951   3.769
  180SLPC  C21820540   1.915   1.048   3.953
  180SLPC  H18R20541   1.961   1.146   3.925
  180SLPC  H18S20542   1.932   1.019   4.058
  180SLPC  H18T20543   1.809   1.078   3.940
  180SLPC   C3320544   2.442   1.122   3.026
  180SLPC   H3X20545   2.389   1.214   2.996
  180SLPC   H3Y20546   2.551   1.143   3.034
  180SLPC   C3420547   2.392   1.073   3.162
  180SLPC   H4X20548   2.458   0.991   3.196
  180SLPC   H4Y20549   2.292   1.028   3.143
  180SLPC   C3520550   2.383   1.198   3.262
  180SLPC   H5X20551   2.320   1.280   3.221
  180SLPC   H5Y20552   2.486   1.241   3.263
  180SLPC   C3620553   2.355   1.143   3.402
  180SLPC   H6X20554   2.414   1.054   3.435
  180SLPC   H6Y20555   2.250   1.108   3.392
  180SLPC   C3720556   2.384   1.234   3.510
  180SLPC   H7X20557   2.356   1.341   3.497
  180SLPC   H7Y20558   2.494   1.238   3.520
  180SLPC   C3820559   2.319   1.195   3.647
  180SLPC   H8X20560   2.357   1.095   3.678
  180SLPC   H8Y20561   2.208   1.183   3.638
  180SLPC   C3920562   2.357   1.283   3.764
  180SLPC   H9X20563   2.338   1.386   3.729
  180SLPC   H9Y20564   2.465   1.264   3.778
  180SLPC  C31020565   2.288   1.258   3.892
  180SLPC  H10X20566   2.312   1.150   3.907
  180SLPC  H10Y20567   2.181   1.286   3.888
  180SLPC  C31120568   2.347   1.325   4.017
  180SLPC  H11X20569   2.343   1.436   4.024
  180SLPC  H11Y20570   2.456   1.306   4.016
  180SLPC  C31220571   2.290   1.277   4.148
  180SLPC  H12X20572   2.357   1.315   4.227
  180SLPC  H12Y20573   2.296   1.167   4.152
  180SLPC  C31320574   2.146   1.319   4.168
  180SLPC  H13X20575   2.090   1.275   4.082
  180SLPC  H13Y20576   2.136   1.430   4.162
  180SLPC  C31420577   2.080   1.257   4.290
  180SLPC  H14X20578   2.069   1.146   4.284
  180SLPC  H14Y20579   1.973   1.288   4.294
  180SLPC  C31520580   2.149   1.283   4.423
  180SLPC  H15X20581   2.166   1.392   4.437
  180SLPC  H15Y20582   2.242   1.222   4.416
  180SLPC  C31620583   2.077   1.227   4.547
  180SLPC  H16X20584   2.056   1.118   4.543
  180SLPC  H16Y20585   1.981   1.283   4.541
  180SLPC  C31720586   2.141   1.253   4.678
  180SLPC  H17X20587   2.057   1.272   4.749
  180SLPC  H17Y20588   2.208   1.341   4.672
  180SLPC  C31820589   2.229   1.140   4.732
  180SLPC  H18X20590   2.282   1.080   4.655
  180SLPC  H18Y20591   2.149   1.071   4.767
  180SLPC  H18Z20592   2.298   1.175   4.811
  181SLPC     N20593   1.227   0.346   1.770
  181SLPC   C1320594   1.155   0.393   1.644
  181SLPC  H13A20595   1.144   0.500   1.636
  181SLPC  H13B20596   1.213   0.365   1.557
  181SLPC  H13C20597   1.061   0.342   1.630
  181SLPC   C1420598   1.126   0.347   1.881
  181SLPC  H14A20599   1.034   0.321   1.831
  181SLPC  H14B20600   1.163   0.276   1.954
  181SLPC  H14C20601   1.113   0.445   1.924
  181SLPC   C1520602   1.337   0.441   1.792
  181SLPC  H15A20603   1.358   0.494   1.701
  181SLPC  H15B20604   1.317   0.520   1.864
  181SLPC  H15C20605   1.429   0.395   1.826
  181SLPC   C1220606   1.290   0.211   1.744
  181SLPC  H12A20607   1.359   0.222   1.662
  181SLPC  H12B20608   1.213   0.143   1.714
  181SLPC   C1120609   1.372   0.152   1.866
  181SLPC  H11A20610   1.458   0.220   1.885
  181SLPC  H11B20611   1.433   0.064   1.838
  181SLPC     P20612   1.204   6.872   1.964
  181SLPC   O1320613   1.142   6.868   1.829
  181SLPC   O1420614   1.290   6.754   1.994
  181SLPC   O1220615   1.290   0.124   1.985
  181SLPC   O1120616   1.091   6.878   2.072
  181SLPC    C120617   1.105   0.040   2.209
  181SLPC    HA20618   1.127   0.149   2.212
  181SLPC    HB20619   1.005   0.024   2.254
  181SLPC    C220620   1.196   6.825   2.292
  181SLPC    HS20621   1.254   6.761   2.223
  181SLPC   O2120622   1.121   6.747   2.388
  181SLPC   C2120623   1.174   6.627   2.409
  181SLPC   O2220624   1.271   6.584   2.354
  181SLPC   C2220625   1.110   6.562   2.538
  181SLPC   H2R20626   1.060   6.646   2.590
  181SLPC   H2S20627   1.031   6.489   2.509
  181SLPC    C320628   1.295   0.028   2.388
  181SLPC    HX20629   1.224   0.096   2.441
  181SLPC    HY20630   1.363   0.095   2.331
  181SLPC   O3120631   1.366   6.837   2.484
  181SLPC   C3120632   1.444   0.035   2.570
  181SLPC   O3220633   1.420   0.157   2.586
  181SLPC   C3220634   1.536   6.824   2.654
  181SLPC   H2X20635   1.637   6.862   2.627
  181SLPC   H2Y20636   1.531   6.718   2.621
  181SLPC   C2320637   1.224   6.505   2.635
  181SLPC   H3R20638   1.305   6.580   2.648
  181SLPC   H3S20639   1.252   6.410   2.586
  181SLPC   C2420640   1.174   6.465   2.777
  181SLPC   H4R20641   1.241   6.379   2.801
  181SLPC   H4S20642   1.075   6.414   2.769
  181SLPC   C2520643   1.173   6.582   2.870
  181SLPC   H5R20644   1.139   6.674   2.817
  181SLPC   H5S20645   1.278   6.591   2.904
  181SLPC   C2620646   1.083   6.553   2.996
  181SLPC   H6R20647   0.981   6.521   2.966
  181SLPC   H6S20648   1.078   6.643   3.061
  181SLPC   C2720649   1.149   6.442   3.078
  181SLPC   H7R20650   1.258   6.445   3.058
  181SLPC   H7S20651   1.136   6.336   3.048
  181SLPC   C2820652   1.128   6.465   3.228
  181SLPC   H8R20653   1.020   6.470   3.250
  181SLPC   H8S20654   1.172   6.564   3.253
  181SLPC   C2920655   1.179   6.349   3.308
  181SLPC   H9R20656   1.171   6.246   3.269
  181SLPC  C21020657   1.246   6.361   3.423
  181SLPC  H10R20658   1.283   6.272   3.476
  181SLPC  C21120659   1.265   6.486   3.512
  181SLPC  H11R20660   1.255   6.584   3.460
  181SLPC  H11S20661   1.373   6.493   3.540
  181SLPC  C21220662   1.175   6.485   3.632
  181SLPC  H12R20663   1.076   6.441   3.617
  181SLPC  C21320664   1.202   6.546   3.752
  181SLPC  H13R20665   1.125   6.543   3.831
  181SLPC  C21420666   1.335   6.606   3.800
  181SLPC  H14R20667   1.317   6.699   3.856
  181SLPC  H14S20668   1.395   6.636   3.711
  181SLPC  C21520669   1.420   6.508   3.890
  181SLPC  H15R20670   1.520   6.554   3.880
  181SLPC  H15S20671   1.413   6.403   3.853
  181SLPC  C21620672   1.375   6.503   4.040
  181SLPC  H16R20673   1.442   6.421   4.075
  181SLPC  H16S20674   1.268   6.472   4.045
  181SLPC  C21720675   1.408   6.631   4.132
  181SLPC  H17R20676   1.381   6.714   4.063
  181SLPC  H17S20677   1.519   6.623   4.135
  181SLPC  C21820678   1.352   6.635   4.269
  181SLPC  H18R20679   1.385   6.733   4.309
  181SLPC  H18S20680   1.391   6.553   4.333
  181SLPC  H18T20681   1.242   6.625   4.254
  181SLPC   C3320682   1.495   6.845   2.801
  181SLPC   H3X20683   1.386   6.834   2.816
  181SLPC   H3Y20684   1.525   0.059   2.852
  181SLPC   C3420685   1.558   6.734   2.887
  181SLPC   H4X20686   1.668   6.738   2.868
  181SLPC   H4Y20687   1.521   6.634   2.856
  181SLPC   C3520688   1.523   6.758   3.031
  181SLPC   H5X20689   1.412   6.755   3.034
  181SLPC   H5Y20690   1.545   6.860   3.069
  181SLPC   C3620691   1.576   6.646   3.119
  181SLPC   H6X20692   1.679   6.630   3.082
  181SLPC   H6Y20693   1.526   6.550   3.094
  181SLPC   C3720694   1.593   6.670   3.268
  181SLPC   H7X20695   1.497   6.669   3.324
  181SLPC   H7Y20696   1.640   6.769   3.288
  181SLPC   C3820697   1.667   6.560   3.349
  181SLPC   H8X20698   1.771   6.551   3.310
  181SLPC   H8Y20699   1.612   6.465   3.334
  181SLPC   C3920700   1.662   6.607   3.494
  181SLPC   H9X20701   1.577   6.557   3.546
  181SLPC   H9Y20702   1.663   6.718   3.499
  181SLPC  C31020703   1.793   6.550   3.569
  181SLPC  H10X20704   1.873   6.553   3.492
  181SLPC  H10Y20705   1.784   6.443   3.599
  181SLPC  C31120706   1.828   6.630   3.690
  181SLPC  H11X20707   1.773   6.582   3.775
  181SLPC  H11Y20708   1.790   6.733   3.677
  181SLPC  C31220709   1.975   6.634   3.711
  181SLPC  H12X20710   2.029   6.664   3.619
  181SLPC  H12Y20711   2.008   6.532   3.739
  181SLPC  C31320712   2.025   6.735   3.826
  181SLPC  H13X20713   1.990   6.699   3.925
  181SLPC  H13Y20714   1.974   6.831   3.805
  181SLPC  C31420715   2.175   6.750   3.825
  181SLPC  H14X20716   2.195   6.786   3.721
  181SLPC  H14Y20717   2.229   6.659   3.857
  181SLPC  C31520718   2.224   6.870   3.907
  181SLPC  H15X20719   2.219   6.844   4.015
  181SLPC  H15Y20720   2.160   0.081   3.906
  181SLPC  C31620721   2.364   0.038   3.894
  181SLPC  H16X20722   2.410   0.022   3.794
  181SLPC  H16Y20723   2.420   6.861   3.971
  181SLPC  C31720724   2.392   0.179   3.927
  181SLPC  H17X20725   2.498   0.199   3.953
  181SLPC  H17Y20726   2.334   0.217   4.015
  181SLPC  C31820727   2.356   0.268   3.804
  181SLPC  H18X20728   2.408   0.227   3.714
  181SLPC  H18Y20729   2.395   0.370   3.821
  181SLPC  H18Z20730   2.250   0.269   3.772
  182SLPC     N20731   1.873   6.591   1.967
  182SLPC   C1320732   2.008   6.665   1.958
  182SLPC  H13A20733   2.081   6.614   2.020
  182SLPC  H13B20734   2.043   6.678   1.857
  182SLPC  H13C20735   2.007   6.756   2.016
  182SLPC   C1420736   1.898   6.446   1.924
  182SLPC  H14A20737   1.950   6.390   2.001
  182SLPC  H14B20738   1.806   6.390   1.918
  182SLPC  H14C20739   1.937   6.439   1.823
  182SLPC   C1520740   1.783   6.655   1.869
  182SLPC  H15A20741   1.836   6.643   1.775
  182SLPC  H15B20742   1.690   6.603   1.851
  182SLPC  H15C20743   1.761   6.758   1.894
  182SLPC   C1220744   1.822   6.588   2.107
  182SLPC  H12A20745   1.718   6.560   2.103
  182SLPC  H12B20746   1.816   6.688   2.146
  182SLPC   C1120747   1.894   6.500   2.216
  182SLPC  H11A20748   1.913   6.396   2.181
  182SLPC  H11B20749   1.830   6.484   2.305
  182SLPC     P20750   2.019   6.684   2.343
  182SLPC   O1320751   2.148   6.750   2.323
  182SLPC   O1420752   1.902   6.770   2.312
  182SLPC   O1220753   2.022   6.556   2.258
  182SLPC   O1120754   2.001   6.624   2.485
  182SLPC    C120755   2.084   6.520   2.548
  182SLPC    HA20756   2.176   6.497   2.489
  182SLPC    HB20757   2.109   6.556   2.651
  182SLPC    C220758   2.001   6.389   2.572
  182SLPC    HS20759   1.963   6.360   2.471
  182SLPC   O2120760   1.892   6.421   2.657
  182SLPC   C2120761   1.775   6.348   2.630
  182SLPC   O2220762   1.771   6.246   2.565
  182SLPC   C2220763   1.657   6.425   2.680
  182SLPC   H2R20764   1.697   6.520   2.722
  182SLPC   H2S20765   1.589   6.451   2.596
  182SLPC    C320766   2.095   6.280   2.643
  182SLPC    HX20767   2.045   6.184   2.668
  182SLPC    HY20768   2.120   6.332   2.738
  182SLPC   O3120769   2.211   6.247   2.557
  182SLPC   C3120770   2.198   6.150   2.467
  182SLPC   O3220771   2.107   6.068   2.454
  182SLPC   C3220772   2.321   6.153   2.379
  182SLPC   H2X20773   2.383   6.241   2.405
  182SLPC   H2Y20774   2.293   6.164   2.273
  182SLPC   C2320775   1.582   6.334   2.780
  182SLPC   H3R20776   1.558   6.236   2.736
  182SLPC   H3S20777   1.481   6.377   2.798
  182SLPC   C2420778   1.657   6.321   2.919
  182SLPC   H4R20779   1.665   6.422   2.966
  182SLPC   H4S20780   1.760   6.282   2.907
  182SLPC   C2520781   1.583   6.221   3.011
  182SLPC   H5R20782   1.592   6.124   2.958
  182SLPC   H5S20783   1.480   6.264   3.007
  182SLPC   C2620784   1.637   6.205   3.157
  182SLPC   H6R20785   1.679   6.305   3.184
  182SLPC   H6S20786   1.707   6.119   3.154
  182SLPC   C2720787   1.529   6.164   3.257
  182SLPC   H7R20788   1.474   6.074   3.220
  182SLPC   H7S20789   1.458   6.248   3.270
  182SLPC   C2820790   1.601   6.114   3.383
  182SLPC   H8R20791   1.664   6.199   3.417
  182SLPC   H8S20792   1.652   6.019   3.355
  182SLPC   C2920793   1.496   6.061   3.480
  182SLPC   H9R20794   1.409   6.009   3.438
  182SLPC  C21020795   1.505   6.082   3.614
  182SLPC  H10R20796   1.420   6.044   3.673
  182SLPC  C21120797   1.613   6.153   3.685
  182SLPC  H11R20798   1.646   6.233   3.614
  182SLPC  H11S20799   1.697   6.080   3.697
  182SLPC  C21220800   1.595   6.220   3.821
  182SLPC  H12R20801   1.605   6.330   3.817
  182SLPC  C21320802   1.554   6.153   3.930
  182SLPC  H13R20803   1.552   6.213   4.023
  182SLPC  C21420804   1.539   6.003   3.942
  182SLPC  H14R20805   1.564   5.950   3.848
  182SLPC  H14S20806   1.437   5.971   3.970
  182SLPC  C21520807   1.630   5.951   4.061
  182SLPC  H15R20808   1.598   5.845   4.072
  182SLPC  H15S20809   1.600   6.013   4.147
  182SLPC  C21620810   1.777   5.967   4.030
  182SLPC  H16R20811   1.806   6.072   4.007
  182SLPC  H16S20812   1.807   5.921   3.934
  182SLPC  C21720813   1.862   5.918   4.145
  182SLPC  H17R20814   1.849   5.808   4.154
  182SLPC  H17S20815   1.825   5.970   4.235
  182SLPC  C21820816   2.005   5.950   4.123
  182SLPC  H18R20817   2.062   5.904   4.207
  182SLPC  H18S20818   2.023   6.060   4.125
  182SLPC  H18T20819   2.044   5.899   4.032
  182SLPC   C3320820   2.397   6.026   2.395
  182SLPC   H3X20821   2.472   6.015   2.313
  182SLPC   H3Y20822   2.339   5.932   2.386
  182SLPC   C3420823   2.473   6.013   2.523
  182SLPC   H4X20824   2.412   6.017   2.616
  182SLPC   H4Y20825   2.543   6.097   2.536
  182SLPC   C3520826   2.550   5.874   2.520
  182SLPC   H5X20827   2.619   5.882   2.433
  182SLPC   H5Y20828   2.488   5.784   2.501
  182SLPC   C3620829   2.640   5.838   2.640
  182SLPC   H6X20830   2.710   5.922   2.654
  182SLPC   H6Y20831   2.697   5.754   2.595
  182SLPC   C3720832   2.560   5.791   2.759
  182SLPC   H7X20833   2.475   5.727   2.728
  182SLPC   H7Y20834   2.515   5.882   2.805
  182SLPC   C3820835   2.655   5.722   2.865
  182SLPC   H8X20836   2.738   5.792   2.890
  182SLPC   H8Y20837   2.690   5.632   2.811
  182SLPC   C3920838   2.594   5.675   2.997
  182SLPC   H9X20839   2.521   5.592   2.983
  182SLPC   H9Y20840   2.530   5.750   3.048
  182SLPC  C31020841   2.691   5.611   3.095
  182SLPC  H10X20842   2.775   5.679   3.118
  182SLPC  H10Y20843   2.734   5.518   3.052
  182SLPC  C31120844   2.616   5.556   3.221
  182SLPC  H11X20845   2.523   5.507   3.185
  182SLPC  H11Y20846   2.583   5.635   3.291
  182SLPC  C31220847   2.700   5.452   3.305
  182SLPC  H12X20848   2.752   5.380   3.237
  182SLPC  H12Y20849   2.622   5.398   3.362
  182SLPC  C31320850   2.796   5.522   3.399
  182SLPC  H13X20851   2.739   5.602   3.452
  182SLPC  H13Y20852   2.873   5.577   3.340
  182SLPC  C31420853   2.861   5.425   3.501
  182SLPC  H14X20854   2.956   5.463   3.544
  182SLPC  H14Y20855   2.871   5.327   3.451
  182SLPC  C31520856   2.766   5.419   3.618
  182SLPC  H15X20857   2.678   5.363   3.579
  182SLPC  H15Y20858   2.748   5.528   3.635
  182SLPC  C31620859   2.822   5.337   3.747
  182SLPC  H16X20860   2.923   5.379   3.770
  182SLPC  H16Y20861   2.838   5.232   3.714
  182SLPC  C31720862   2.726   5.334   3.863
  182SLPC  H17X20863   2.724   5.426   3.925
  182SLPC  H17Y20864   2.774   5.265   3.935
  182SLPC  C31820865   2.579   5.292   3.832
  182SLPC  H18X20866   2.521   5.364   3.770
  182SLPC  H18Y20867   2.515   5.265   3.918
  182SLPC  H18Z20868   2.582   5.200   3.770
  183SLPC     N20869   6.290   2.449   1.635
  183SLPC   C1320870   6.284   2.502   1.492
  183SLPC  H13A20871   6.294   2.415   1.430
  183SLPC  H13B20872   6.194   2.556   1.465
  183SLPC  H13C20873   6.370   2.562   1.466
  183SLPC   C1420874   6.436   2.401   1.670
  183SLPC  H14A20875   6.421   2.346   1.762
  183SLPC  H14B20876   6.475   2.324   1.604
  183SLPC  H14C20877   6.501   2.486   1.677
  183SLPC   C1520878   6.201   2.334   1.650
  183SLPC  H15A20879   6.097   2.358   1.633
  183SLPC  H15B20880   6.230   2.273   1.566
  183SLPC  H15C20881   6.219   2.268   1.734
  183SLPC   C1220882   6.251   2.558   1.733
  183SLPC  H12A20883   6.151   2.590   1.709
  183SLPC  H12B20884   6.312   2.643   1.706
  183SLPC   C1120885   6.267   2.536   1.888
  183SLPC  H11A20886   6.218   2.630   1.922
  183SLPC  H11B20887   6.374   2.552   1.915
  183SLPC     P20888   6.081   2.413   2.037
  183SLPC   O1320889   5.973   2.485   1.963
  183SLPC   O1420890   6.052   2.275   2.092
  183SLPC   O1220891   6.205   2.413   1.944
  183SLPC   O1120892   6.132   2.511   2.147
  183SLPC    C120893   6.252   2.497   2.222
  183SLPC    HA20894   6.308   2.404   2.197
  183SLPC    HB20895   6.324   2.580   2.209
  183SLPC    C220896   6.204   2.492   2.372
  183SLPC    HS20897   6.137   2.407   2.397
  183SLPC   O2120898   6.142   2.620   2.395
  183SLPC   C2120899   6.007   2.614   2.412
  183SLPC   O2220900   5.939   2.515   2.394
  183SLPC   C2220901   5.957   2.754   2.447
  183SLPC   H2R20902   5.964   2.807   2.349
  183SLPC   H2S20903   5.849   2.737   2.466
  183SLPC    C320904   6.328   2.472   2.471
  183SLPC    HX20905   6.360   2.573   2.504
  183SLPC    HY20906   6.412   2.429   2.412
  183SLPC   O3120907   6.289   2.384   2.580
  183SLPC   C3120908   6.221   2.444   2.685
  183SLPC   O3220909   6.213   2.566   2.704
  183SLPC   C3220910   6.155   2.344   2.780
  183SLPC   H2X20911   6.218   2.254   2.788
  183SLPC   H2Y20912   6.057   2.315   2.736
  183SLPC   C2320913   6.016   2.821   2.577
  183SLPC   H3R20914   6.006   2.930   2.563
  183SLPC   H3S20915   6.127   2.816   2.581
  183SLPC   C2420916   5.944   2.780   2.707
  183SLPC   H4R20917   5.966   2.671   2.713
  183SLPC   H4S20918   5.833   2.793   2.705
  183SLPC   C2520919   5.996   2.857   2.828
  183SLPC   H5R20920   5.943   2.955   2.834
  183SLPC   H5S20921   6.101   2.887   2.808
  183SLPC   C2620922   5.968   2.801   2.966
  183SLPC   H6R20923   6.029   2.713   2.996
  183SLPC   H6S20924   5.861   2.774   2.971
  183SLPC   C2720925   5.996   2.900   3.075
  183SLPC   H7R20926   5.937   2.990   3.047
  183SLPC   H7S20927   6.105   2.918   3.069
  183SLPC   C2820928   5.956   2.858   3.217
  183SLPC   H8R20929   6.039   2.893   3.283
  183SLPC   H8S20930   5.954   2.748   3.228
  183SLPC   C2920931   5.815   2.907   3.253
  183SLPC   H9R20932   5.764   2.951   3.166
  183SLPC  C21020933   5.748   2.891   3.372
  183SLPC  H10R20934   5.648   2.937   3.376
  183SLPC  C21120935   5.812   2.843   3.501
  183SLPC  H11R20936   5.849   2.924   3.567
  183SLPC  H11S20937   5.911   2.795   3.485
  183SLPC  C21220938   5.723   2.741   3.574
  183SLPC  H12R20939   5.726   2.639   3.534
  183SLPC  C21320940   5.637   2.757   3.682
  183SLPC  H13R20941   5.577   2.672   3.717
  183SLPC  C21420942   5.608   2.884   3.755
  183SLPC  H14R20943   5.514   2.934   3.725
  183SLPC  H14S20944   5.695   2.952   3.747
  183SLPC  C21520945   5.609   2.848   3.908
  183SLPC  H15R20946   5.712   2.813   3.929
  183SLPC  H15S20947   5.528   2.773   3.920
  183SLPC  C21620948   5.581   2.971   3.992
  183SLPC  H16R20949   5.481   3.011   3.964
  183SLPC  H16S20950   5.651   3.052   3.963
  183SLPC  C21720951   5.575   2.933   4.144
  183SLPC  H17R20952   5.675   2.906   4.184
  183SLPC  H17S20953   5.507   2.845   4.145
  183SLPC  C21820954   5.527   3.049   4.230
  183SLPC  H18R20955   5.591   3.138   4.213
  183SLPC  H18S20956   5.525   3.026   4.339
  183SLPC  H18T20957   5.423   3.078   4.202
  183SLPC   C3320958   6.135   2.402   2.912
  183SLPC   H3X20959   6.066   2.346   2.980
  183SLPC   H3Y20960   6.110   2.509   2.897
  183SLPC   C3420961   6.265   2.407   2.990
  183SLPC   H4X20962   6.350   2.411   2.918
  183SLPC   H4Y20963   6.286   2.317   3.051
  183SLPC   C3520964   6.278   2.533   3.078
  183SLPC   H5X20965   6.282   2.621   3.010
  183SLPC   H5Y20966   6.381   2.523   3.121
  183SLPC   C3620967   6.173   2.560   3.184
  183SLPC   H6X20968   6.071   2.542   3.147
  183SLPC   H6Y20969   6.181   2.666   3.216
  183SLPC   C3720970   6.195   2.488   3.313
  183SLPC   H7X20971   6.289   2.510   3.369
  183SLPC   H7Y20972   6.216   2.383   3.282
  183SLPC   C3820973   6.074   2.489   3.402
  183SLPC   H8X20974   5.993   2.429   3.355
  183SLPC   H8Y20975   6.038   2.588   3.437
  183SLPC   C3920976   6.112   2.422   3.539
  183SLPC   H9X20977   6.195   2.474   3.592
  183SLPC   H9Y20978   6.141   2.318   3.513
  183SLPC  C31020979   5.989   2.410   3.634
  183SLPC  H10X20980   6.001   2.313   3.687
  183SLPC  H10Y20981   5.894   2.420   3.577
  183SLPC  C31120982   5.992   2.508   3.761
  183SLPC  H11X20983   5.967   2.612   3.733
  183SLPC  H11Y20984   6.094   2.493   3.802
  183SLPC  C31220985   5.898   2.454   3.877
  183SLPC  H12X20986   5.898   2.343   3.876
  183SLPC  H12Y20987   5.801   2.482   3.831
  183SLPC  C31320988   5.913   2.517   4.012
  183SLPC  H13X20989   5.905   2.628   4.011
  183SLPC  H13Y20990   6.010   2.476   4.047
  183SLPC  C31420991   5.794   2.466   4.101
  183SLPC  H14X20992   5.697   2.503   4.063
  183SLPC  H14Y20993   5.813   2.500   4.205
  183SLPC  C31520994   5.791   2.307   4.121
  183SLPC  H15X20995   5.900   2.287   4.133
  183SLPC  H15Y20996   5.763   2.267   4.021
  183SLPC  C31620997   5.681   2.258   4.229
  183SLPC  H16X20998   5.578   2.276   4.194
  183SLPC  H16Y20999   5.698   2.320   4.320
  183SLPC  C31721000   5.701   2.109   4.257
  183SLPC  H17X21001   5.628   2.066   4.329
  183SLPC  H17Y21002   5.799   2.089   4.303
  183SLPC  C31821003   5.689   2.018   4.137
  183SLPC  H18X21004   5.596   2.022   4.077
  183SLPC  H18Y21005   5.699   1.912   4.169
  183SLPC  H18Z21006   5.763   2.043   4.058
  184SLPC     N21007   0.164   2.208   2.073
  184SLPC   C1321008   0.055   2.111   2.030
  184SLPC  H13A21009   0.092   2.016   1.995
  184SLPC  H13B21010   6.876   2.092   2.119
  184SLPC  H13C21011   6.868   2.152   1.956
  184SLPC   C1421012   0.110   2.346   2.082
  184SLPC  H14A21013   0.185   2.405   2.132
  184SLPC  H14B21014   0.095   2.382   1.981
  184SLPC  H14C21015   0.021   2.357   2.143
  184SLPC   C1521016   0.278   2.201   1.972
  184SLPC  H15A21017   0.316   2.100   1.969
  184SLPC  H15B21018   0.246   2.224   1.871
  184SLPC  H15C21019   0.353   2.275   1.994
  184SLPC   C1221020   0.216   2.163   2.210
  184SLPC  H12A21021   0.316   2.198   2.226
  184SLPC  H12B21022   0.231   2.056   2.203
  184SLPC   C1121023   0.116   2.175   2.329
  184SLPC  H11A21024   0.091   2.283   2.344
  184SLPC  H11B21025   0.173   2.143   2.419
  184SLPC     P21026   6.859   1.950   2.360
  184SLPC   O1321027   6.743   1.888   2.295
  184SLPC   O1421028   0.110   1.878   2.354
  184SLPC   O1221029   6.872   2.101   2.316
  184SLPC   O1121030   6.823   1.962   2.515
  184SLPC    C121031   6.797   2.089   2.581
  184SLPC    HA21032   0.001   2.160   2.563
  184SLPC    HB21033   6.710   2.142   2.537
  184SLPC    C221034   6.782   2.077   2.736
  184SLPC    HS21035   6.745   2.174   2.775
  184SLPC   O2121036   0.018   2.024   2.812
  184SLPC   C2121037   0.134   2.086   2.799
  184SLPC   O2221038   0.152   2.193   2.742
  184SLPC   C2221039   0.254   2.017   2.866
  184SLPC   H2R21040   0.212   1.915   2.884
  184SLPC   H2S21041   0.333   2.006   2.789
  184SLPC    C321042   6.670   1.976   2.775
  184SLPC    HX21043   6.706   1.875   2.745
  184SLPC    HY21044   6.583   1.992   2.708
  184SLPC   O3121045   6.617   1.977   2.911
  184SLPC   C3121046   6.543   2.086   2.940
  184SLPC   O3221047   6.499   2.165   2.859
  184SLPC   C3221048   6.512   2.097   3.092
  184SLPC   H2X21049   6.438   2.023   3.131
  184SLPC   H2Y21050   6.458   2.192   3.108
  184SLPC   C2321051   0.327   2.083   2.983
  184SLPC   H3R21052   0.318   2.193   2.980
  184SLPC   H3S21053   0.434   2.055   2.965
  184SLPC   C2421054   0.279   2.028   3.118
  184SLPC   H4R21055   0.297   1.919   3.115
  184SLPC   H4S21056   0.170   2.048   3.122
  184SLPC   C2521057   0.362   2.082   3.238
  184SLPC   H5R21058   0.370   2.192   3.241
  184SLPC   H5S21059   0.466   2.048   3.221
  184SLPC   C2621060   0.302   2.023   3.357
  184SLPC   H6R21061   0.310   1.914   3.337
  184SLPC   H6S21062   0.197   2.060   3.363
  184SLPC   C2721063   0.385   2.060   3.479
  184SLPC   H7R21064   0.447   2.149   3.455
  184SLPC   H7S21065   0.454   1.974   3.491
  184SLPC   C2821066   0.299   2.084   3.600
  184SLPC   H8R21067   0.241   1.992   3.623
  184SLPC   H8S21068   0.236   2.176   3.594
  184SLPC   C2921069   0.394   2.118   3.713
  184SLPC   H9R21070   0.483   2.169   3.674
  184SLPC  C21021071   0.388   2.083   3.841
  184SLPC  H10R21072   0.463   2.114   3.915
  184SLPC  C21121073   0.270   2.005   3.902
  184SLPC  H11R21074   0.209   1.956   3.824
  184SLPC  H11S21075   0.206   2.079   3.954
  184SLPC  C21221076   0.319   1.890   3.991
  184SLPC  H12R21077   0.354   1.801   3.937
  184SLPC  C21321078   0.321   1.892   4.132
  184SLPC  H13R21079   0.347   1.797   4.180
  184SLPC  C21421080   0.276   1.999   4.216
  184SLPC  H14R21081   0.197   2.060   4.166
  184SLPC  H14S21082   0.361   2.067   4.239
  184SLPC  C21521083   0.220   1.933   4.345
  184SLPC  H15R21084   0.304   1.878   4.394
  184SLPC  H15S21085   0.140   1.860   4.320
  184SLPC  C21621086   0.156   2.041   4.431
  184SLPC  H16R21087   0.111   1.993   4.520
  184SLPC  H16S21088   0.076   2.089   4.371
  184SLPC  C21721089   0.244   2.157   4.463
  184SLPC  H17R21090   0.176   2.224   4.521
  184SLPC  H17S21091   0.273   2.212   4.371
  184SLPC  C21821092   0.363   2.118   4.547
  184SLPC  H18R21093   0.407   2.207   4.597
  184SLPC  H18S21094   0.434   2.053   4.490
  184SLPC  H18T21095   0.335   2.050   4.630
  184SLPC   C3321096   6.635   2.094   3.178
  184SLPC   H3X21097   6.693   2.186   3.159
  184SLPC   H3Y21098   6.695   2.006   3.147
  184SLPC   C3421099   6.600   2.099   3.330
  184SLPC   H4X21100   6.527   2.021   3.360
  184SLPC   H4Y21101   6.539   2.191   3.332
  184SLPC   C3521102   6.717   2.106   3.429
  184SLPC   H5X21103   6.788   2.186   3.399
  184SLPC   H5Y21104   6.780   2.015   3.432
  184SLPC   C3621105   6.683   2.133   3.577
  184SLPC   H6X21106   6.631   2.231   3.579
  184SLPC   H6Y21107   6.782   2.132   3.627
  184SLPC   C3721108   6.592   2.033   3.644
  184SLPC   H7X21109   6.613   1.932   3.602
  184SLPC   H7Y21110   6.487   2.053   3.615
  184SLPC   C3821111   6.601   2.027   3.796
  184SLPC   H8X21112   6.708   2.038   3.822
  184SLPC   H8Y21113   6.568   1.926   3.828
  184SLPC   C3921114   6.518   2.135   3.864
  184SLPC   H9X21115   6.430   2.143   3.797
  184SLPC   H9Y21116   6.557   2.239   3.863
  184SLPC  C31021117   6.467   2.094   4.003
  184SLPC  H10X21118   6.390   2.015   3.986
  184SLPC  H10Y21119   6.419   2.180   4.056
  184SLPC  C31121120   6.579   2.038   4.099
  184SLPC  H11X21121   6.621   2.128   4.149
  184SLPC  H11Y21122   6.654   1.976   4.045
  184SLPC  C31221123   6.528   1.937   4.210
  184SLPC  H12X21124   6.481   1.850   4.160
  184SLPC  H12Y21125   6.456   1.995   4.273
  184SLPC  C31321126   6.638   1.887   4.305
  184SLPC  H13X21127   6.692   1.976   4.344
  184SLPC  H13Y21128   6.712   1.821   4.255
  184SLPC  C31421129   6.575   1.829   4.432
  184SLPC  H14X21130   6.505   1.746   4.407
  184SLPC  H14Y21131   6.503   1.898   4.481
  184SLPC  C31521132   6.668   1.772   4.531
  184SLPC  H15X21133   6.750   1.716   4.482
  184SLPC  H15Y21134   6.608   1.698   4.588
  184SLPC  C31621135   6.727   1.864   4.639
  184SLPC  H16X21136   6.640   1.913   4.686
  184SLPC  H16Y21137   6.774   1.946   4.581
  184SLPC  C31721138   6.824   1.799   4.734
  184SLPC  H17X21139   0.024   1.757   4.669
  184SLPC  H17Y21140   6.770   1.716   4.785
  184SLPC  C31821141   6.874   1.895   4.839
  184SLPC  H18X21142   0.060   1.853   4.919
  184SLPC  H18Y21143   6.783   1.940   4.887
  184SLPC  H18Z21144   0.054   1.971   4.784
  185POPC     N21145   1.733   5.608   6.622
  185POPC   C1221146   1.818   5.721   6.675
  185POPC  H12A21147   1.870   5.703   6.767
  185POPC  H12B21148   1.768   5.815   6.693
  185POPC   C1321149   1.621   5.581   6.722
  185POPC  H13A21150   1.568   5.491   6.694
  185POPC  H13B21151   1.656   5.572   6.823
  185POPC  H13C21152   1.562   5.671   6.736
  185POPC   C1421153   1.672   5.644   6.491
  185POPC  H14A21154   1.606   5.729   6.488
  185POPC  H14B21155   1.753   5.680   6.429
  185POPC  H14C21156   1.632   5.564   6.430
  185POPC   C1521157   1.823   5.489   6.616
  185POPC  H15A21158   1.880   5.462   6.703
  185POPC  H15B21159   1.887   5.498   6.529
  185POPC  H15C21160   1.759   5.404   6.594
  185POPC   C1121161   1.940   5.766   6.587
  185POPC  H11A21162   2.009   5.681   6.564
  185POPC  H11B21163   1.990   5.831   6.662
  185POPC     P21164   1.992   5.889   6.372
  185POPC   O1321165   2.123   5.914   6.440
  185POPC   O1421166   1.934   6.003   6.291
  185POPC   O1221167   1.887   5.838   6.474
  185POPC   O1121168   2.011   5.768   6.274
  185POPC    C121169   1.895   5.699   6.226
  185POPC    HA21170   1.802   5.757   6.212
  185POPC    HB21171   1.867   5.620   6.300
  185POPC    C221172   1.912   5.627   6.086
  185POPC    HS21173   1.816   5.581   6.052
  185POPC   O2121174   2.021   5.535   6.081
  185POPC   C2121175   1.985   5.416   6.124
  185POPC   O2221176   1.872   5.375   6.145
  185POPC   C2221177   2.104   5.319   6.122
  185POPC   H2R21178   2.055   5.220   6.112
  185POPC   H2S21179   2.148   5.328   6.224
  185POPC    C321180   1.953   5.736   5.988
  185POPC    HX21181   2.059   5.762   6.007
  185POPC    HY21182   1.892   5.826   6.009
  185POPC   O3121183   1.948   5.703   5.846
  185POPC   C3121184   2.001   5.799   5.770
  185POPC   O3221185   2.049   5.902   5.813
  185POPC   C3221186   1.990   5.763   5.624
  185POPC   H2X21187   1.903   5.695   5.615
  185POPC   H2Y21188   2.089   5.716   5.604
  185POPC   C2321189   2.223   5.346   6.022
  185POPC   H3R21190   2.291   5.259   6.009
  185POPC   H3S21191   2.287   5.421   6.073
  185POPC   C2421192   2.187   5.393   5.885
  185POPC   H4R21193   2.277   5.431   5.832
  185POPC   H4S21194   2.120   5.481   5.884
  185POPC   C2521195   2.130   5.280   5.801
  185POPC   H5R21196   2.044   5.227   5.847
  185POPC   H5S21197   2.210   5.203   5.792
  185POPC   C2621198   2.085   5.323   5.656
  185POPC   H6R21199   2.169   5.384   5.616
  185POPC   H6S21200   1.997   5.391   5.653
  185POPC   C2721201   2.035   5.204   5.576
  185POPC   H7R21202   1.934   5.166   5.604
  185POPC   H7S21203   2.106   5.120   5.594
  185POPC   C2821204   2.042   5.230   5.419
  185POPC   H8R21205   2.020   5.134   5.367
  185POPC   H8S21206   2.150   5.241   5.397
  185POPC   C2921207   1.956   5.340   5.363
  185POPC   H9121208   1.861   5.361   5.415
  185POPC  C21021209   1.982   5.414   5.247
  185POPC  H10121210   1.904   5.486   5.216
  185POPC  C21121211   2.092   5.403   5.143
  185POPC  H11R21212   2.171   5.325   5.158
  185POPC  H11S21213   2.154   5.494   5.161
  185POPC  C21221214   2.038   5.388   4.999
  185POPC  H12R21215   1.960   5.309   4.995
  185POPC  H12S21216   2.125   5.360   4.937
  185POPC  C21321217   1.987   5.520   4.947
  185POPC  H13R21218   2.056   5.603   4.975
  185POPC  H13S21219   1.898   5.547   5.009
  185POPC  C21421220   1.953   5.528   4.792
  185POPC  H14R21221   1.894   5.618   4.765
  185POPC  H14S21222   1.892   5.438   4.771
  185POPC  C21521223   2.073   5.525   4.707
  185POPC  H15R21224   2.113   5.422   4.699
  185POPC  H15S21225   2.158   5.586   4.747
  185POPC  C21621226   2.052   5.580   4.568
  185POPC  H16R21227   2.022   5.687   4.567
  185POPC  H16S21228   1.969   5.522   4.522
  185POPC  C21721229   2.186   5.578   4.492
  185POPC  H17R21230   2.239   5.481   4.501
  185POPC  H17S21231   2.256   5.660   4.522
  185POPC  C21821232   2.146   5.592   4.346
  185POPC  H18R21233   2.054   5.653   4.334
  185POPC  H18S21234   2.106   5.499   4.300
  185POPC  H18T21235   2.230   5.634   4.286
  185POPC   C3321236   1.977   5.880   5.521
  185POPC   H3X21237   2.068   5.944   5.518
  185POPC   H3Y21238   1.891   5.943   5.552
  185POPC   C3421239   1.949   5.805   5.390
  185POPC   H4X21240   1.883   5.718   5.413
  185POPC   H4Y21241   2.048   5.760   5.365
  185POPC   C3521242   1.897   5.893   5.283
  185POPC   H5X21243   1.955   5.985   5.260
  185POPC   H5Y21244   1.798   5.937   5.311
  185POPC   C3621245   1.883   5.815   5.154
  185POPC   H6X21246   1.818   5.730   5.182
  185POPC   H6Y21247   1.970   5.765   5.106
  185POPC   C3721248   1.825   5.908   5.039
  185POPC   H7X21249   1.888   5.999   5.043
  185POPC   H7Y21250   1.721   5.929   5.072
  185POPC   C3821251   1.812   5.855   4.897
  185POPC   H8X21252   1.739   5.773   4.888
  185POPC   H8Y21253   1.911   5.830   4.852
  185POPC   C3921254   1.755   5.962   4.798
  185POPC   H9X21255   1.801   6.055   4.837
  185POPC   H9Y21256   1.645   5.971   4.793
  185POPC  C31021257   1.798   5.947   4.652
  185POPC  H10X21258   1.760   5.847   4.622
  185POPC  H10Y21259   1.908   5.935   4.642
  185POPC  C31121260   1.743   6.056   4.555
  185POPC  H11X21261   1.634   6.075   4.568
  185POPC  H11Y21262   1.755   6.024   4.449
  185POPC  C31221263   1.824   6.193   4.581
  185POPC  H12X21264   1.926   6.178   4.540
  185POPC  H12Y21265   1.842   6.216   4.688
  185POPC  C31321266   1.761   6.326   4.505
  185POPC  H13X21267   1.823   6.414   4.533
  185POPC  H13Y21268   1.659   6.345   4.545
  185POPC  C31421269   1.738   6.327   4.352
  185POPC  H14X21270   1.698   6.424   4.315
  185POPC  H14Y21271   1.662   6.250   4.327
  185POPC  C31521272   1.870   6.305   4.271
  185POPC  H15X21273   1.872   6.196   4.251
  185POPC  H15Y21274   1.949   6.346   4.337
  185POPC  C31621275   1.867   6.376   4.135
  185POPC  H16X21276   1.775   6.340   4.083
  185POPC  H16Y21277   1.960   6.358   4.076
  185POPC  H16Z21278   1.864   6.486   4.152
  186POPC     N21279   4.343   5.224   6.409
  186POPC   C1221280   4.474   5.263   6.469
  186POPC  H12A21281   4.551   5.261   6.393
  186POPC  H12B21282   4.507   5.191   6.543
  186POPC   C1321283   4.282   5.336   6.331
  186POPC  H13A21284   4.235   5.410   6.395
  186POPC  H13B21285   4.349   5.378   6.258
  186POPC  H13C21286   4.203   5.305   6.265
  186POPC   C1421287   4.368   5.109   6.315
  186POPC  H14A21288   4.277   5.083   6.263
  186POPC  H14B21289   4.450   5.130   6.247
  186POPC  H14C21290   4.411   5.027   6.371
  186POPC   C1521291   4.248   5.181   6.514
  186POPC  H15A21292   4.267   5.080   6.549
  186POPC  H15B21293   4.147   5.173   6.477
  186POPC  H15C21294   4.259   5.243   6.602
  186POPC   C1121295   4.494   5.402   6.533
  186POPC  H11A21296   4.462   5.471   6.452
  186POPC  H11B21297   4.604   5.411   6.549
  186POPC     P21298   4.358   5.563   6.684
  186POPC   O1321299   4.463   5.666   6.691
  186POPC   O1421300   4.258   5.565   6.796
  186POPC   O1221301   4.413   5.419   6.648
  186POPC   O1121302   4.263   5.589   6.557
  186POPC    C121303   4.222   5.724   6.538
  186POPC    HA21304   4.300   5.800   6.561
  186POPC    HB21305   4.132   5.749   6.598
  186POPC    C221306   4.187   5.755   6.387
  186POPC    HS21307   4.125   5.847   6.387
  186POPC   O2121308   4.121   5.641   6.337
  186POPC   C2121309   4.002   5.630   6.381
  186POPC   O2221310   3.933   5.704   6.446
  186POPC   C2221311   3.941   5.490   6.341
  186POPC   H2R21312   3.855   5.489   6.411
  186POPC   H2S21313   4.015   5.411   6.367
  186POPC    C321314   4.307   5.780   6.307
  186POPC    HX21315   4.377   5.695   6.320
  186POPC    HY21316   4.351   5.871   6.355
  186POPC   O3121317   4.274   5.817   6.170
  186POPC   C3121318   4.315   5.732   6.068
  186POPC   O3221319   4.368   5.622   6.087
  186POPC   C3221320   4.274   5.795   5.932
  186POPC   H2X21321   4.297   5.904   5.942
  186POPC   H2Y21322   4.164   5.783   5.927
  186POPC   C2321323   3.886   5.490   6.197
  186POPC   H3R21324   3.805   5.564   6.180
  186POPC   H3S21325   3.834   5.393   6.186
  186POPC   C2421326   3.995   5.504   6.089
  186POPC   H4R21327   4.077   5.431   6.107
  186POPC   H4S21328   4.023   5.611   6.084
  186POPC   C2521329   3.947   5.461   5.949
  186POPC   H5R21330   3.844   5.495   5.923
  186POPC   H5S21331   3.930   5.351   5.955
  186POPC   C2621332   4.042   5.490   5.835
  186POPC   H6R21333   4.144   5.494   5.879
  186POPC   H6S21334   4.025   5.596   5.805
  186POPC   C2721335   4.022   5.400   5.717
  186POPC   H7R21336   4.032   5.294   5.748
  186POPC   H7S21337   4.093   5.428   5.635
  186POPC   C2821338   3.882   5.416   5.647
  186POPC   H8R21339   3.804   5.364   5.708
  186POPC   H8S21340   3.892   5.358   5.553
  186POPC   C2921341   3.836   5.557   5.618
  186POPC   H9121342   3.773   5.605   5.695
  186POPC  C21021343   3.846   5.621   5.496
  186POPC  H10121344   3.798   5.719   5.483
  186POPC  C21121345   3.915   5.569   5.370
  186POPC  H11R21346   3.994   5.497   5.399
  186POPC  H11S21347   3.972   5.658   5.334
  186POPC  C21221348   3.813   5.510   5.272
  186POPC  H12R21349   3.736   5.583   5.240
  186POPC  H12S21350   3.755   5.431   5.326
  186POPC  C21321351   3.874   5.443   5.145
  186POPC  H13R21352   3.911   5.340   5.164
  186POPC  H13S21353   3.955   5.514   5.115
  186POPC  C21421354   3.778   5.431   5.013
  186POPC  H14R21355   3.734   5.532   4.999
  186POPC  H14S21356   3.705   5.349   5.033
  186POPC  C21521357   3.861   5.401   4.883
  186POPC  H15R21358   3.922   5.310   4.902
  186POPC  H15S21359   3.924   5.491   4.863
  186POPC  C21621360   3.777   5.360   4.758
  186POPC  H16R21361   3.724   5.455   4.730
  186POPC  H16S21362   3.702   5.281   4.781
  186POPC  C21721363   3.862   5.313   4.644
  186POPC  H17R21364   3.946   5.243   4.665
  186POPC  H17S21365   3.903   5.410   4.608
  186POPC  C21821366   3.782   5.257   4.527
  186POPC  H18R21367   3.720   5.336   4.478
  186POPC  H18S21368   3.713   5.175   4.557
  186POPC  H18T21369   3.850   5.221   4.447
  186POPC   C3321370   4.338   5.745   5.799
  186POPC   H3X21371   4.344   5.635   5.811
  186POPC   H3Y21372   4.442   5.786   5.800
  186POPC   C3421373   4.266   5.786   5.678
  186POPC   H4X21374   4.244   5.895   5.669
  186POPC   H4Y21375   4.163   5.747   5.676
  186POPC   C3521376   4.321   5.726   5.550
  186POPC   H5X21377   4.336   5.616   5.560
  186POPC   H5Y21378   4.425   5.761   5.540
  186POPC   C3621379   4.237   5.745   5.426
  186POPC   H6X21380   4.188   5.845   5.431
  186POPC   H6Y21381   4.155   5.670   5.433
  186POPC   C3721382   4.326   5.737   5.302
  186POPC   H7X21383   4.374   5.638   5.320
  186POPC   H7Y21384   4.400   5.819   5.310
  186POPC   C3821385   4.261   5.737   5.167
  186POPC   H8X21386   4.181   5.660   5.154
  186POPC   H8Y21387   4.344   5.706   5.099
  186POPC   C3921388   4.216   5.884   5.142
  186POPC   H9X21389   4.300   5.957   5.151
  186POPC   H9Y21390   4.144   5.909   5.223
  186POPC  C31021391   4.151   5.905   5.004
  186POPC  H10X21392   4.155   5.819   4.934
  186POPC  H10Y21393   4.195   5.999   4.964
  186POPC  C31121394   4.000   5.938   5.028
  186POPC  H11X21395   3.982   6.025   5.094
  186POPC  H11Y21396   3.951   5.856   5.084
  186POPC  C31221397   3.933   5.957   4.889
  186POPC  H12X21398   3.959   5.873   4.821
  186POPC  H12Y21399   3.958   6.060   4.854
  186POPC  C31321400   3.784   5.957   4.907
  186POPC  H13X21401   3.743   6.032   4.978
  186POPC  H13Y21402   3.741   5.862   4.948
  186POPC  C31421403   3.703   6.001   4.776
  186POPC  H14X21404   3.704   6.112   4.774
  186POPC  H14Y21405   3.598   5.966   4.783
  186POPC  C31521406   3.766   5.944   4.648
  186POPC  H15X21407   3.768   5.833   4.655
  186POPC  H15Y21408   3.871   5.977   4.634
  186POPC  C31621409   3.681   5.996   4.529
  186POPC  H16X21410   3.652   6.102   4.545
  186POPC  H16Y21411   3.603   5.919   4.508
  186POPC  H16Z21412   3.743   5.999   4.437
  187POPC     N21413   6.611   4.881   2.425
  187POPC   C1221414   6.567   5.028   2.453
  187POPC  H12A21415   6.522   5.070   2.365
  187POPC  H12B21416   6.642   5.102   2.479
  187POPC   C1321417   6.499   4.800   2.389
  187POPC  H13A21418   6.530   4.697   2.388
  187POPC  H13B21419   6.432   4.822   2.471
  187POPC  H13C21420   6.440   4.825   2.302
  187POPC   C1421421   6.708   4.896   2.307
  187POPC  H14A21422   6.805   4.936   2.332
  187POPC  H14B21423   6.722   4.807   2.247
  187POPC  H14C21424   6.659   4.959   2.234
  187POPC   C1521425   6.683   4.829   2.547
  187POPC  H15A21426   6.771   4.887   2.571
  187POPC  H15B21427   6.697   4.723   2.534
  187POPC  H15C21428   6.626   4.835   2.638
  187POPC   C1121429   6.461   5.047   2.569
  187POPC  H11A21430   6.465   5.154   2.598
  187POPC  H11B21431   6.502   4.996   2.659
  187POPC     P21432   6.245   5.074   2.436
  187POPC   O1321433   6.147   4.982   2.387
  187POPC   O1421434   6.336   5.145   2.341
  187POPC   O1221435   6.334   5.001   2.535
  187POPC   O1121436   6.170   5.180   2.528
  187POPC    C121437   6.238   5.251   2.625
  187POPC    HA21438   6.331   5.304   2.594
  187POPC    HB21439   6.267   5.180   2.707
  187POPC    C221440   6.141   5.359   2.680
  187POPC    HS21441   6.190   5.433   2.748
  187POPC   O2121442   6.035   5.297   2.759
  187POPC   C2121443   6.074   5.264   2.879
  187POPC   O2221444   6.183   5.268   2.925
  187POPC   C2221445   5.955   5.207   2.956
  187POPC   H2R21446   5.939   5.112   2.900
  187POPC   H2S21447   5.867   5.274   2.953
  187POPC    C321448   6.065   5.441   2.574
  187POPC    HX21449   6.020   5.357   2.517
  187POPC    HY21450   6.133   5.494   2.503
  187POPC   O3121451   5.954   5.516   2.626
  187POPC   C3121452   5.989   5.636   2.666
  187POPC   O3221453   6.093   5.692   2.647
  187POPC   C3221454   5.874   5.706   2.745
  187POPC   H2X21455   5.798   5.727   2.667
  187POPC   H2Y21456   5.914   5.806   2.773
  187POPC   C2321457   5.994   5.166   3.105
  187POPC   H3R21458   6.030   5.251   3.168
  187POPC   H3S21459   6.062   5.078   3.099
  187POPC   C2421460   5.869   5.120   3.180
  187POPC   H4R21461   5.820   5.046   3.113
  187POPC   H4S21462   5.791   5.197   3.194
  187POPC   C2521463   5.911   5.064   3.319
  187POPC   H5R21464   5.974   5.144   3.365
  187POPC   H5S21465   5.967   4.968   3.315
  187POPC   C2621466   5.790   5.035   3.409
  187POPC   H6R21467   5.722   4.961   3.362
  187POPC   H6S21468   5.739   5.130   3.433
  187POPC   C2721469   5.832   4.997   3.550
  187POPC   H7R21470   5.876   5.089   3.593
  187POPC   H7S21471   5.919   4.928   3.548
  187POPC   C2821472   5.718   4.925   3.621
  187POPC   H8R21473   5.758   4.897   3.721
  187POPC   H8S21474   5.681   4.830   3.578
  187POPC   C2921475   5.596   5.010   3.651
  187POPC   H9121476   5.535   5.043   3.566
  187POPC  C21021477   5.548   5.053   3.772
  187POPC  H10121478   5.452   5.107   3.778
  187POPC  C21121479   5.609   5.038   3.910
  187POPC  H11R21480   5.679   5.123   3.924
  187POPC  H11S21481   5.677   4.952   3.924
  187POPC  C21221482   5.507   5.046   4.025
  187POPC  H12R21483   5.443   4.956   4.038
  187POPC  H12S21484   5.447   5.138   4.011
  187POPC  C21321485   5.575   5.061   4.167
  187POPC  H13R21486   5.651   5.141   4.160
  187POPC  H13S21487   5.618   4.961   4.191
  187POPC  C21421488   5.470   5.103   4.270
  187POPC  H14R21489   5.444   5.201   4.224
  187POPC  H14S21490   5.498   5.125   4.376
  187POPC  C21521491   5.364   4.996   4.277
  187POPC  H15R21492   5.419   4.911   4.323
  187POPC  H15S21493   5.306   4.971   4.186
  187POPC  C21621494   5.266   5.027   4.394
  187POPC  H16R21495   5.184   5.095   4.362
  187POPC  H16S21496   5.322   5.072   4.479
  187POPC  C21721497   5.193   4.903   4.445
  187POPC  H17R21498   5.259   4.817   4.471
  187POPC  H17S21499   5.139   4.871   4.354
  187POPC  C21821500   5.100   4.936   4.559
  187POPC  H18R21501   5.014   5.000   4.530
  187POPC  H18S21502   5.164   4.986   4.635
  187POPC  H18T21503   5.058   4.843   4.603
  187POPC   C3321504   5.817   5.632   2.868
  187POPC   H3X21505   5.790   5.528   2.838
  187POPC   H3Y21506   5.730   5.684   2.911
  187POPC   C3421507   5.925   5.616   2.977
  187POPC   H4X21508   5.965   5.716   3.005
  187POPC   H4Y21509   6.008   5.548   2.948
  187POPC   C3521510   5.864   5.558   3.102
  187POPC   H5X21511   5.820   5.459   3.080
  187POPC   H5Y21512   5.776   5.623   3.123
  187POPC   C3621513   5.960   5.555   3.218
  187POPC   H6X21514   5.993   5.659   3.237
  187POPC   H6Y21515   6.043   5.485   3.194
  187POPC   C3721516   5.893   5.478   3.335
  187POPC   H7X21517   5.864   5.375   3.306
  187POPC   H7Y21518   5.808   5.539   3.373
  187POPC   C3821519   5.980   5.466   3.460
  187POPC   H8X21520   6.026   5.567   3.470
  187POPC   H8Y21521   6.071   5.404   3.445
  187POPC   C3921522   5.905   5.425   3.590
  187POPC   H9X21523   5.873   5.319   3.587
  187POPC   H9Y21524   5.821   5.494   3.614
  187POPC  C31021525   5.995   5.433   3.715
  187POPC  H10X21526   6.037   5.535   3.723
  187POPC  H10Y21527   6.083   5.365   3.710
  187POPC  C31121528   5.920   5.381   3.839
  187POPC  H11X21529   5.893   5.274   3.837
  187POPC  H11Y21530   5.830   5.446   3.853
  187POPC  C31221531   6.014   5.388   3.971
  187POPC  H12X21532   6.053   5.490   3.992
  187POPC  H12Y21533   6.099   5.319   3.953
  187POPC  C31321534   5.939   5.343   4.099
  187POPC  H13X21535   6.006   5.335   4.188
  187POPC  H13Y21536   5.894   5.245   4.074
  187POPC  C31421537   5.827   5.429   4.154
  187POPC  H14X21538   5.815   5.402   4.261
  187POPC  H14Y21539   5.734   5.409   4.097
  187POPC  C31521540   5.853   5.582   4.159
  187POPC  H15X21541   5.820   5.626   4.063
  187POPC  H15Y21542   5.963   5.593   4.166
  187POPC  C31621543   5.777   5.634   4.282
  187POPC  H16X21544   5.809   5.580   4.374
  187POPC  H16Y21545   5.670   5.614   4.263
  187POPC  H16Z21546   5.792   5.744   4.290
  188POPC     N21547   5.528   4.769   1.972
  188POPC   C1221548   5.542   4.824   2.106
  188POPC  H12A21549   5.641   4.864   2.120
  188POPC  H12B21550   5.528   4.739   2.172
  188POPC   C1321551   5.632   4.658   1.963
  188POPC  H13A21552   5.736   4.687   1.970
  188POPC  H13B21553   5.618   4.576   2.031
  188POPC  H13C21554   5.619   4.616   1.864
  188POPC   C1421555   5.398   4.699   1.939
  188POPC  H14A21556   5.365   4.629   2.015
  188POPC  H14B21557   5.323   4.777   1.935
  188POPC  H14C21558   5.407   4.649   1.844
  188POPC   C1521559   5.569   4.878   1.874
  188POPC  H15A21560   5.505   4.964   1.861
  188POPC  H15B21561   5.578   4.838   1.775
  188POPC  H15C21562   5.660   4.920   1.913
  188POPC   C1121563   5.433   4.932   2.148
  188POPC  H11A21564   5.436   4.952   2.258
  188POPC  H11B21565   5.334   4.884   2.132
  188POPC     P21566   5.544   5.169   2.141
  188POPC   O1321567   5.536   5.298   2.071
  188POPC   O1421568   5.681   5.108   2.170
  188POPC   O1221569   5.445   5.059   2.075
  188POPC   O1121570   5.464   5.181   2.275
  188POPC    C121571   5.499   5.277   2.378
  188POPC    HA21572   5.449   5.374   2.357
  188POPC    HB21573   5.609   5.285   2.391
  188POPC    C221574   5.438   5.237   2.515
  188POPC    HS21575   5.481   5.319   2.576
  188POPC   O2121576   5.490   5.108   2.555
  188POPC   C2121577   5.534   5.086   2.679
  188POPC   O2221578   5.545   5.168   2.766
  188POPC   C2221579   5.565   4.934   2.686
  188POPC   H2R21580   5.671   4.928   2.719
  188POPC   H2S21581   5.563   4.881   2.588
  188POPC    C321582   5.279   5.227   2.515
  188POPC    HX21583   5.234   5.146   2.453
  188POPC    HY21584   5.239   5.322   2.475
  188POPC   O3121585   5.243   5.220   2.651
  188POPC   C3121586   5.121   5.170   2.666
  188POPC   O3221587   5.042   5.145   2.575
  188POPC   C3221588   5.083   5.160   2.820
  188POPC   H2X21589   5.053   5.056   2.845
  188POPC   H2Y21590   4.984   5.211   2.831
  188POPC   C2321591   5.479   4.857   2.791
  188POPC   H3R21592   5.500   4.897   2.892
  188POPC   H3S21593   5.535   4.761   2.789
  188POPC   C2421594   5.330   4.848   2.752
  188POPC   H4R21595   5.276   4.944   2.762
  188POPC   H4S21596   5.281   4.779   2.823
  188POPC   C2521597   5.300   4.790   2.614
  188POPC   H5R21598   5.333   4.684   2.614
  188POPC   H5S21599   5.353   4.854   2.541
  188POPC   C2621600   5.146   4.785   2.588
  188POPC   H6R21601   5.103   4.886   2.603
  188POPC   H6S21602   5.101   4.725   2.670
  188POPC   C2721603   5.097   4.714   2.460
  188POPC   H7R21604   5.132   4.610   2.473
  188POPC   H7S21605   5.139   4.763   2.370
  188POPC   C2821606   4.942   4.704   2.442
  188POPC   H8R21607   4.915   4.658   2.344
  188POPC   H8S21608   4.900   4.807   2.436
  188POPC   C2921609   4.875   4.619   2.548
  188POPC   H9121610   4.858   4.512   2.526
  188POPC  C21021611   4.811   4.669   2.658
  188POPC  H10121612   4.774   4.590   2.725
  188POPC  C21121613   4.796   4.813   2.700
  188POPC  H11R21614   4.687   4.831   2.710
  188POPC  H11S21615   4.833   4.883   2.622
  188POPC  C21221616   4.861   4.844   2.836
  188POPC  H12R21617   4.850   4.953   2.858
  188POPC  H12S21618   4.965   4.808   2.821
  188POPC  C21321619   4.790   4.780   2.954
  188POPC  H13R21620   4.813   4.672   2.960
  188POPC  H13S21621   4.679   4.782   2.946
  188POPC  C21421622   4.852   4.835   3.088
  188POPC  H14R21623   4.816   4.940   3.082
  188POPC  H14S21624   4.963   4.832   3.081
  188POPC  C21521625   4.802   4.790   3.229
  188POPC  H15R21626   4.840   4.687   3.250
  188POPC  H15S21627   4.691   4.783   3.234
  188POPC  C21621628   4.854   4.877   3.343
  188POPC  H16R21629   4.820   4.982   3.335
  188POPC  H16S21630   4.965   4.870   3.340
  188POPC  C21721631   4.789   4.816   3.475
  188POPC  H17R21632   4.846   4.861   3.558
  188POPC  H17S21633   4.784   4.705   3.471
  188POPC  C21821634   4.652   4.879   3.506
  188POPC  H18R21635   4.576   4.843   3.434
  188POPC  H18S21636   4.658   4.990   3.495
  188POPC  H18T21637   4.614   4.847   3.605
  188POPC   C3321638   5.188   5.215   2.916
  188POPC   H3X21639   5.202   5.320   2.882
  188POPC   H3Y21640   5.281   5.158   2.899
  188POPC   C3421641   5.153   5.216   3.066
  188POPC   H4X21642   5.248   5.230   3.123
  188POPC   H4Y21643   5.107   5.122   3.101
  188POPC   C3521644   5.063   5.330   3.118
  188POPC   H5X21645   4.981   5.351   3.046
  188POPC   H5Y21646   5.119   5.426   3.117
  188POPC   C3621647   5.012   5.308   3.260
  188POPC   H6X21648   5.096   5.275   3.324
  188POPC   H6Y21649   4.948   5.219   3.274
  188POPC   C3721650   4.943   5.426   3.323
  188POPC   H7X21651   4.866   5.465   3.253
  188POPC   H7Y21652   5.021   5.504   3.338
  188POPC   C3821653   4.865   5.414   3.453
  188POPC   H8X21654   4.939   5.369   3.523
  188POPC   H8Y21655   4.784   5.338   3.454
  188POPC   C3921656   4.819   5.544   3.519
  188POPC   H9X21657   4.734   5.596   3.470
  188POPC   H9Y21658   4.907   5.611   3.507
  188POPC  C31021659   4.799   5.521   3.670
  188POPC  H10X21660   4.778   5.615   3.726
  188POPC  H10Y21661   4.885   5.468   3.717
  188POPC  C31121662   4.689   5.425   3.718
  188POPC  H11X21663   4.695   5.329   3.661
  188POPC  H11Y21664   4.589   5.464   3.688
  188POPC  C31221665   4.682   5.412   3.869
  188POPC  H12X21666   4.779   5.388   3.920
  188POPC  H12Y21667   4.620   5.322   3.891
  188POPC  C31321668   4.612   5.524   3.947
  188POPC  H13X21669   4.506   5.530   3.916
  188POPC  H13Y21670   4.662   5.623   3.947
  188POPC  C31421671   4.603   5.488   4.098
  188POPC  H14X21672   4.704   5.488   4.144
  188POPC  H14Y21673   4.557   5.390   4.123
  188POPC  C31521674   4.507   5.589   4.171
  188POPC  H15X21675   4.417   5.585   4.106
  188POPC  H15Y21676   4.538   5.696   4.160
  188POPC  C31621677   4.473   5.554   4.313
  188POPC  H16X21678   4.566   5.552   4.373
  188POPC  H16Y21679   4.427   5.453   4.314
  188POPC  H16Z21680   4.405   5.633   4.352
  189SAPI   C1221681   2.467   4.917   6.950
  189SAPI    H221682   2.575   4.900   6.972
  189SAPI    O221683   2.436   4.831   6.845
  189SAPI   HO221684   2.498   4.843   6.773
  189SAPI   C1321685   2.390   4.880   7.075
  189SAPI    H321686   2.401   4.961   7.150
  189SAPI    O321687   2.445   4.758   7.128
  189SAPI   HO321688   2.485   4.780   7.212
  189SAPI   C1421689   2.244   4.861   7.026
  189SAPI    H421690   2.236   4.764   6.972
  189SAPI    O421691   2.158   4.836   7.136
  189SAPI   HO421692   2.108   4.754   7.132
  189SAPI   C1521693   2.195   4.978   6.946
  189SAPI    H521694   2.140   5.037   7.023
  189SAPI    O521695   2.099   4.937   6.854
  189SAPI   HO521696   2.140   4.889   6.782
  189SAPI   C1621697   2.295   5.076   6.887
  189SAPI    H621698   2.279   5.053   6.779
  189SAPI    O621699   2.255   5.212   6.892
  189SAPI   HO621700   2.337   5.262   6.895
  189SAPI   C1121701   2.442   5.057   6.914
  189SAPI    H121702   2.478   5.113   7.003
  189SAPI     P21703   2.583   5.255   6.802
  189SAPI   O1321704   2.734   5.242   6.818
  189SAPI   O1421705   2.507   5.341   6.896
  189SAPI   O1221706   2.518   5.105   6.804
  189SAPI   O1121707   2.546   5.316   6.663
  189SAPI    C121708   2.461   5.263   6.560
  189SAPI    HA21709   2.482   5.159   6.528
  189SAPI    HB21710   2.360   5.269   6.605
  189SAPI    C221711   2.455   5.347   6.433
  189SAPI    HS21712   2.360   5.323   6.381
  189SAPI   O2121713   2.577   5.321   6.357
  189SAPI   C2121714   2.567   5.219   6.271
  189SAPI   O2221715   2.466   5.154   6.251
  189SAPI   C2221716   2.702   5.198   6.216
  189SAPI   H2R21717   2.779   5.203   6.296
  189SAPI   H2S21718   2.709   5.101   6.163
  189SAPI    C321719   2.437   5.506   6.462
  189SAPI    HX21720   2.541   5.540   6.485
  189SAPI    HY21721   2.368   5.516   6.549
  189SAPI   O3121722   2.371   5.576   6.356
  189SAPI   C3121723   2.453   5.662   6.289
  189SAPI   O3221724   2.563   5.693   6.325
  189SAPI   C3221725   2.379   5.705   6.165
  189SAPI   H2X21726   2.389   5.816   6.171
  189SAPI   H2Y21727   2.272   5.677   6.168
  189SAPI   C2321728   2.747   5.314   6.117
  189SAPI   H3R21729   2.852   5.293   6.086
  189SAPI   H3S21730   2.747   5.414   6.165
  189SAPI   C2421731   2.653   5.321   5.996
  189SAPI   H4R21732   2.677   5.413   5.940
  189SAPI   H4S21733   2.546   5.325   6.026
  189SAPI   C2521734   2.667   5.195   5.916
  189SAPI   H5R21735   2.650   5.104   5.977
  189SAPI   C2621736   2.675   5.176   5.782
  189SAPI   H6R21737   2.682   5.070   5.753
  189SAPI   C2721738   2.671   5.271   5.668
  189SAPI   H7R21739   2.711   5.233   5.571
  189SAPI   H7S21740   2.737   5.356   5.695
  189SAPI   C2821741   2.528   5.323   5.657
  189SAPI   H8R21742   2.455   5.289   5.732
  189SAPI   C2921743   2.483   5.395   5.550
  189SAPI   H9R21744   2.379   5.429   5.543
  189SAPI  C21021745   2.559   5.435   5.425
  189SAPI  H10R21746   2.659   5.458   5.468
  189SAPI  H10S21747   2.531   5.532   5.380
  189SAPI  C21121748   2.555   5.330   5.315
  189SAPI  H11R21749   2.543   5.226   5.350
  189SAPI  C21221750   2.576   5.344   5.184
  189SAPI  H12R21751   2.563   5.252   5.126
  189SAPI  C21321752   2.584   5.479   5.106
  189SAPI  H13R21753   2.680   5.481   5.050
  189SAPI  H13S21754   2.578   5.565   5.177
  189SAPI  C21421755   2.464   5.497   5.011
  189SAPI  H14R21756   2.364   5.513   5.053
  189SAPI  C21521757   2.472   5.518   4.874
  189SAPI  H15R21758   2.374   5.531   4.826
  189SAPI  C21621759   2.598   5.520   4.792
  189SAPI  H16R21760   2.687   5.486   4.848
  189SAPI  H16S21761   2.623   5.624   4.759
  189SAPI  C21721762   2.573   5.437   4.664
  189SAPI  H17R21763   2.657   5.441   4.592
  189SAPI  H17S21764   2.479   5.464   4.610
  189SAPI  C21821765   2.552   5.286   4.701
  189SAPI  H18R21766   2.477   5.224   4.648
  189SAPI  H18S21767   2.528   5.272   4.808
  189SAPI  C21921768   2.691   5.214   4.700
  189SAPI  H19R21769   2.746   5.255   4.787
  189SAPI  H19S21770   2.758   5.246   4.618
  189SAPI  C22021771   2.692   5.060   4.708
  189SAPI  H20R21772   2.792   5.022   4.679
  189SAPI  H20S21773   2.625   5.006   4.638
  189SAPI  H20T21774   2.654   5.026   4.807
  189SAPI   C3321775   2.443   5.675   6.032
  189SAPI   H3X21776   2.432   5.567   6.008
  189SAPI   H3Y21777   2.554   5.676   6.039
  189SAPI   C3421778   2.397   5.774   5.923
  189SAPI   H4X21779   2.442   5.867   5.963
  189SAPI   H4Y21780   2.287   5.786   5.925
  189SAPI   C3521781   2.453   5.740   5.787
  189SAPI   H5X21782   2.452   5.634   5.753
  189SAPI   H5Y21783   2.558   5.777   5.790
  189SAPI   C3621784   2.378   5.825   5.677
  189SAPI   H6X21785   2.398   5.934   5.688
  189SAPI   H6Y21786   2.270   5.806   5.693
  189SAPI   C3721787   2.424   5.787   5.539
  189SAPI   H7X21788   2.411   5.678   5.528
  189SAPI   H7Y21789   2.530   5.818   5.526
  189SAPI   C3821790   2.342   5.855   5.432
  189SAPI   H8X21791   2.340   5.966   5.440
  189SAPI   H8Y21792   2.236   5.826   5.447
  189SAPI   C3921793   2.386   5.831   5.288
  189SAPI   H9X21794   2.389   5.721   5.276
  189SAPI   H9Y21795   2.487   5.874   5.271
  189SAPI  C31021796   2.294   5.907   5.195
  189SAPI  H10X21797   2.278   6.012   5.225
  189SAPI  H10Y21798   2.197   5.856   5.210
  189SAPI  C31121799   2.344   5.900   5.048
  189SAPI  H11X21800   2.377   5.797   5.025
  189SAPI  H11Y21801   2.429   5.968   5.027
  189SAPI  C31221802   2.241   5.944   4.943
  189SAPI  H12X21803   2.202   6.040   4.981
  189SAPI  H12Y21804   2.158   5.870   4.937
  189SAPI  C31321805   2.300   5.968   4.801
  189SAPI  H13X21806   2.346   5.867   4.790
  189SAPI  H13Y21807   2.379   6.046   4.801
  189SAPI  C31421808   2.185   6.005   4.706
  189SAPI  H14X21809   2.121   6.080   4.757
  189SAPI  H14Y21810   2.121   5.914   4.695
  189SAPI  C31521811   2.222   6.049   4.565
  189SAPI  H15X21812   2.284   6.141   4.576
  189SAPI  H15Y21813   2.129   6.086   4.517
  189SAPI  C31621814   2.287   5.935   4.480
  189SAPI  H16X21815   2.218   5.849   4.468
  189SAPI  H16Y21816   2.375   5.892   4.533
  189SAPI  C31721817   2.313   5.990   4.339
  189SAPI  H17X21818   2.362   6.089   4.349
  189SAPI  H17Y21819   2.212   6.010   4.297
  189SAPI  C31821820   2.390   5.894   4.247
  189SAPI  H18X21821   2.311   5.816   4.233
  189SAPI  H18Y21822   2.488   5.853   4.278
  189SAPI  H18Z21823   2.406   5.949   4.152
  190SAPI   C1221824   1.074   3.089   6.964
  190SAPI    H221825   1.036   3.074   6.861
  190SAPI    O221826   1.209   3.125   6.962
  190SAPI   HO221827   1.249   3.054   6.910
  190SAPI   C1321828   0.983   3.197   7.027
  190SAPI    H321829   0.880   3.158   7.019
  190SAPI    O321830   0.993   3.317   6.945
  190SAPI   HO321831   1.078   3.332   6.902
  190SAPI   C1421832   1.011   3.218   7.171
  190SAPI    H421833   1.098   3.286   7.179
  190SAPI    O421834   0.906   3.290   7.230
  190SAPI   HO421835   0.945   3.354   7.290
  190SAPI   C1521836   1.054   3.097   7.254
  190SAPI    H521837   0.961   3.060   7.300
  190SAPI    O521838   1.142   3.128   7.360
  190SAPI   HO521839   1.088   3.155   7.435
  190SAPI   C1621840   1.103   2.969   7.178
  190SAPI    H621841   1.213   2.980   7.174
  190SAPI    O621842   1.087   2.843   7.247
  190SAPI   HO621843   1.091   2.775   7.180
  190SAPI   C1121844   1.048   2.959   7.031
  190SAPI    H121845   0.940   2.934   7.039
  190SAPI     P21846   1.079   2.704   6.930
  190SAPI   O1321847   1.016   2.656   7.057
  190SAPI   O1421848   1.193   2.630   6.878
  190SAPI   O1221849   1.128   2.861   6.951
  190SAPI   O1121850   0.983   2.724   6.811
  190SAPI    C121851   0.956   2.607   6.729
  190SAPI    HA21852   0.963   2.511   6.784
  190SAPI    HB21853   0.848   2.611   6.704
  190SAPI    C221854   1.054   2.595   6.605
  190SAPI    HS21855   1.152   2.604   6.658
  190SAPI   O2121856   1.035   2.708   6.524
  190SAPI   C2121857   1.139   2.777   6.486
  190SAPI   O2221858   1.253   2.775   6.539
  190SAPI   C2221859   1.100   2.840   6.345
  190SAPI   H2R21860   1.050   2.767   6.278
  190SAPI   H2S21861   1.024   2.913   6.379
  190SAPI    C321862   1.036   2.465   6.529
  190SAPI    HX21863   0.939   2.456   6.476
  190SAPI    HY21864   1.035   2.370   6.586
  190SAPI   O3121865   1.140   2.455   6.432
  190SAPI   C3121866   1.224   2.347   6.441
  190SAPI   O3221867   1.217   2.259   6.525
  190SAPI   C3221868   1.330   2.356   6.338
  190SAPI   H2X21869   1.402   2.273   6.352
  190SAPI   H2Y21870   1.389   2.448   6.356
  190SAPI   C2321871   1.216   2.902   6.261
  190SAPI   H3R21872   1.283   2.947   6.337
  190SAPI   H3S21873   1.173   2.973   6.187
  190SAPI   C2421874   1.308   2.792   6.195
  190SAPI   H4R21875   1.351   2.710   6.256
  190SAPI   H4S21876   1.392   2.857   6.161
  190SAPI   C2521877   1.240   2.715   6.089
  190SAPI   H5R21878   1.185   2.626   6.122
  190SAPI   C2621879   1.222   2.753   5.961
  190SAPI   H6R21880   1.185   2.675   5.893
  190SAPI   C2721881   1.285   2.870   5.890
  190SAPI   H7R21882   1.375   2.828   5.840
  190SAPI   H7S21883   1.325   2.948   5.958
  190SAPI   C2821884   1.194   2.936   5.789
  190SAPI   H8R21885   1.125   3.007   5.835
  190SAPI   C2921886   1.201   2.934   5.657
  190SAPI   H9R21887   1.135   2.997   5.596
  190SAPI  C21021888   1.305   2.876   5.569
  190SAPI  H10R21889   1.351   2.789   5.620
  190SAPI  H10S21890   1.387   2.950   5.558
  190SAPI  C21121891   1.253   2.835   5.430
  190SAPI  H11R21892   1.146   2.823   5.411
  190SAPI  C21221893   1.331   2.807   5.324
  190SAPI  H12R21894   1.283   2.787   5.227
  190SAPI  C21321895   1.481   2.820   5.335
  190SAPI  H13R21896   1.503   2.791   5.439
  190SAPI  H13S21897   1.499   2.929   5.328
  190SAPI  C21421898   1.574   2.746   5.239
  190SAPI  H14R21899   1.626   2.653   5.269
  190SAPI  C21521900   1.596   2.784   5.115
  190SAPI  H15R21901   1.646   2.718   5.042
  190SAPI  C21621902   1.545   2.912   5.046
  190SAPI  H16R21903   1.618   2.993   5.067
  190SAPI  H16S21904   1.447   2.937   5.091
  190SAPI  C21721905   1.499   2.939   4.898
  190SAPI  H17R21906   1.478   3.047   4.883
  190SAPI  H17S21907   1.407   2.881   4.877
  190SAPI  C21821908   1.609   2.909   4.793
  190SAPI  H18R21909   1.632   2.801   4.790
  190SAPI  H18S21910   1.705   2.961   4.817
  190SAPI  C21921911   1.560   2.936   4.650
  190SAPI  H19R21912   1.456   2.899   4.638
  190SAPI  H19S21913   1.620   2.870   4.583
  190SAPI  C22021914   1.573   3.079   4.594
  190SAPI  H20R21915   1.543   3.087   4.488
  190SAPI  H20S21916   1.674   3.118   4.617
  190SAPI  H20T21917   1.509   3.149   4.653
  190SAPI   C3321918   1.278   2.369   6.191
  190SAPI   H3X21919   1.337   2.444   6.134
  190SAPI   H3Y21920   1.177   2.416   6.188
  190SAPI   C3421921   1.282   2.240   6.111
  190SAPI   H4X21922   1.203   2.172   6.149
  190SAPI   H4Y21923   1.388   2.208   6.124
  190SAPI   C3521924   1.263   2.258   5.959
  190SAPI   H5X21925   1.164   2.301   5.934
  190SAPI   H5Y21926   1.262   2.155   5.916
  190SAPI   C3621927   1.372   2.347   5.891
  190SAPI   H6X21928   1.473   2.313   5.922
  190SAPI   H6Y21929   1.365   2.450   5.931
  190SAPI   C3721930   1.357   2.359   5.739
  190SAPI   H7X21931   1.260   2.409   5.719
  190SAPI   H7Y21932   1.360   2.259   5.691
  190SAPI   C3821933   1.450   2.461   5.673
  190SAPI   H8X21934   1.556   2.427   5.677
  190SAPI   H8Y21935   1.447   2.556   5.730
  190SAPI   C3921936   1.409   2.496   5.529
  190SAPI   H9X21937   1.468   2.580   5.486
  190SAPI   H9Y21938   1.309   2.540   5.548
  190SAPI  C31021939   1.414   2.387   5.426
  190SAPI  H10X21940   1.399   2.291   5.481
  190SAPI  H10Y21941   1.520   2.382   5.391
  190SAPI  C31121942   1.328   2.417   5.305
  190SAPI  H11X21943   1.358   2.513   5.258
  190SAPI  H11Y21944   1.219   2.424   5.327
  190SAPI  C31221945   1.335   2.311   5.197
  190SAPI  H12X21946   1.267   2.231   5.233
  190SAPI  H12Y21947   1.439   2.270   5.200
  190SAPI  C31321948   1.279   2.355   5.063
  190SAPI  H13X21949   1.204   2.436   5.076
  190SAPI  H13Y21950   1.221   2.267   5.027
  190SAPI  C31421951   1.391   2.392   4.966
  190SAPI  H14X21952   1.457   2.303   4.960
  190SAPI  H14Y21953   1.454   2.479   4.993
  190SAPI  C31521954   1.323   2.417   4.830
  190SAPI  H15X21955   1.229   2.476   4.833
  190SAPI  H15Y21956   1.298   2.321   4.779
  190SAPI  C31621957   1.429   2.472   4.730
  190SAPI  H16X21958   1.515   2.402   4.721
  190SAPI  H16Y21959   1.479   2.565   4.767
  190SAPI  C31721960   1.368   2.495   4.589
  190SAPI  H17X21961   1.344   2.400   4.536
  190SAPI  H17Y21962   1.439   2.558   4.531
  190SAPI  C31821963   1.234   2.568   4.584
  190SAPI  H18X21964   1.219   2.617   4.682
  190SAPI  H18Y21965   1.153   2.494   4.568
  190SAPI  H18Z21966   1.228   2.632   4.493
  191SAPI   C1221967   5.128   4.187   2.268
  191SAPI    H221968   5.139   4.095   2.329
  191SAPI    O221969   5.199   4.294   2.330
  191SAPI   HO221970   5.174   4.316   2.420
  191SAPI   C1321971   5.184   4.155   2.130
  191SAPI    H321972   5.125   4.071   2.088
  191SAPI    O321973   5.314   4.109   2.132
  191SAPI   HO321974   5.372   4.159   2.190
  191SAPI   C1421975   5.183   4.274   2.041
  191SAPI    H421976   5.257   4.340   2.091
  191SAPI    O421977   5.229   4.241   1.903
  191SAPI   HO421978   5.173   4.174   1.863
  191SAPI   C1521979   5.045   4.344   2.040
  191SAPI    H521980   4.990   4.271   1.976
  191SAPI    O521981   5.043   4.473   1.968
  191SAPI   HO521982   4.956   4.478   1.927
  191SAPI   C1621983   4.965   4.348   2.161
  191SAPI    H621984   5.003   4.434   2.221
  191SAPI    O621985   4.828   4.375   2.138
  191SAPI   HO621986   4.791   4.355   2.224
  191SAPI   C1121987   4.984   4.224   2.245
  191SAPI    H121988   4.941   4.138   2.188
  191SAPI     P21989   4.778   4.200   2.428
  191SAPI   O1321990   4.749   4.061   2.388
  191SAPI   O1421991   4.698   4.309   2.370
  191SAPI   O1221992   4.935   4.226   2.384
  191SAPI   O1121993   4.771   4.215   2.581
  191SAPI    C121994   4.877   4.188   2.665
  191SAPI    HA21995   4.974   4.222   2.622
  191SAPI    HB21996   4.869   4.248   2.758
  191SAPI    C221997   4.895   4.033   2.692
  191SAPI    HS21998   4.937   3.992   2.598
  191SAPI   O2121999   4.767   3.976   2.740
  191SAPI   C2122000   4.761   3.838   2.711
  191SAPI   O2222001   4.844   3.783   2.641
  191SAPI   C2222002   4.627   3.788   2.769
  191SAPI   H2R22003   4.562   3.752   2.686
  191SAPI   H2S22004   4.664   3.704   2.832
  191SAPI    C322005   5.004   4.009   2.800
  191SAPI    HX22006   5.096   4.046   2.750
  191SAPI    HY22007   5.020   3.899   2.800
  191SAPI   O3122008   4.969   4.070   2.926
  191SAPI   C3122009   4.891   3.991   3.005
  191SAPI   O3222010   4.894   3.870   2.993
  191SAPI   C3222011   4.800   4.065   3.102
  191SAPI   H2X22012   4.700   4.039   3.062
  191SAPI   H2Y22013   4.824   4.173   3.094
  191SAPI   C2322014   4.546   3.886   2.855
  191SAPI   H3R22015   4.522   3.984   2.807
  191SAPI   H3S22016   4.604   3.901   2.949
  191SAPI   C2422017   4.416   3.834   2.902
  191SAPI   H4R22018   4.351   3.813   2.814
  191SAPI   H4S22019   4.367   3.909   2.967
  191SAPI   C2522020   4.420   3.709   2.980
  191SAPI   H5R22021   4.426   3.622   2.913
  191SAPI   C2622022   4.411   3.682   3.116
  191SAPI   H6R22023   4.418   3.579   3.154
  191SAPI   C2722024   4.398   3.785   3.231
  191SAPI   H7R22025   4.291   3.784   3.261
  191SAPI   H7S22026   4.431   3.885   3.194
  191SAPI   C2822027   4.490   3.754   3.348
  191SAPI   H8R22028   4.595   3.747   3.315
  191SAPI   C2922029   4.464   3.744   3.478
  191SAPI   H9R22030   4.549   3.729   3.546
  191SAPI  C21022031   4.331   3.753   3.544
  191SAPI  H10R22032   4.320   3.658   3.601
  191SAPI  H10S22033   4.249   3.733   3.472
  191SAPI  C21122034   4.296   3.877   3.623
  191SAPI  H11R22035   4.306   3.971   3.568
  191SAPI  C21222036   4.266   3.875   3.752
  191SAPI  H12R22037   4.246   3.970   3.803
  191SAPI  C21322038   4.256   3.752   3.841
  191SAPI  H13R22039   4.309   3.777   3.936
  191SAPI  H13S22040   4.315   3.663   3.811
  191SAPI  C21422041   4.112   3.713   3.863
  191SAPI  H14R22042   4.039   3.737   3.784
  191SAPI  C21522043   4.074   3.628   3.960
  191SAPI  H15R22044   3.965   3.612   3.958
  191SAPI  C21622045   4.157   3.551   4.058
  191SAPI  H16R22046   4.146   3.589   4.162
  191SAPI  H16S22047   4.263   3.574   4.034
  191SAPI  C21722048   4.135   3.398   4.060
  191SAPI  H17R22049   4.111   3.363   3.957
  191SAPI  H17S22050   4.052   3.370   4.128
  191SAPI  C21822051   4.262   3.334   4.118
  191SAPI  H18R22052   4.235   3.230   4.147
  191SAPI  H18S22053   4.293   3.386   4.211
  191SAPI  C21922054   4.376   3.309   4.021
  191SAPI  H19R22055   4.402   3.401   3.964
  191SAPI  H19S22056   4.333   3.239   3.947
  191SAPI  C22022057   4.498   3.241   4.091
  191SAPI  H20R22058   4.461   3.146   4.136
  191SAPI  H20S22059   4.534   3.291   4.184
  191SAPI  H20T22060   4.587   3.240   4.024
  191SAPI   C3322061   4.794   4.000   3.249
  191SAPI   H3X22062   4.895   4.007   3.295
  191SAPI   H3Y22063   4.773   3.891   3.260
  191SAPI   C3422064   4.709   4.081   3.348
  191SAPI   H4X22065   4.605   4.063   3.313
  191SAPI   H4Y22066   4.731   4.190   3.343
  191SAPI   C3522067   4.723   4.028   3.486
  191SAPI   H5X22068   4.832   4.023   3.509
  191SAPI   H5Y22069   4.693   3.921   3.492
  191SAPI   C3622070   4.643   4.109   3.591
  191SAPI   H6X22071   4.534   4.108   3.568
  191SAPI   H6Y22072   4.676   4.215   3.585
  191SAPI   C3722073   4.676   4.054   3.734
  191SAPI   H7X22074   4.785   4.065   3.748
  191SAPI   H7Y22075   4.646   3.947   3.730
  191SAPI   C3822076   4.593   4.120   3.836
  191SAPI   H8X22077   4.488   4.134   3.800
  191SAPI   H8Y22078   4.628   4.224   3.853
  191SAPI   C3922079   4.588   4.047   3.970
  191SAPI   H9X22080   4.575   3.937   3.960
  191SAPI   H9Y22081   4.508   4.090   4.033
  191SAPI  C31022082   4.714   4.075   4.052
  191SAPI  H10X22083   4.734   4.185   4.049
  191SAPI  H10Y22084   4.800   4.018   4.012
  191SAPI  C31122085   4.703   4.035   4.198
  191SAPI  H11X22086   4.598   4.045   4.234
  191SAPI  H11Y22087   4.770   4.094   4.264
  191SAPI  C31222088   4.724   3.888   4.214
  191SAPI  H12X22089   4.803   3.849   4.146
  191SAPI  H12Y22090   4.635   3.832   4.178
  191SAPI  C31322091   4.751   3.827   4.356
  191SAPI  H13X22092   4.671   3.840   4.432
  191SAPI  H13Y22093   4.830   3.890   4.401
  191SAPI  C31422094   4.796   3.671   4.354
  191SAPI  H14X22095   4.880   3.663   4.282
  191SAPI  H14Y22096   4.714   3.622   4.298
  191SAPI  C31522097   4.820   3.607   4.488
  191SAPI  H15X22098   4.787   3.501   4.485
  191SAPI  H15Y22099   4.763   3.646   4.575
  191SAPI  C31622100   4.971   3.615   4.512
  191SAPI  H16X22101   5.004   3.719   4.536
  191SAPI  H16Y22102   5.025   3.582   4.420
  191SAPI  C31722103   5.021   3.511   4.614
  191SAPI  H17X22104   4.995   3.412   4.571
  191SAPI  H17Y22105   4.954   3.515   4.703
  191SAPI  C31822106   5.167   3.521   4.655
  191SAPI  H18X22107   5.212   3.425   4.690
  191SAPI  H18Y22108   5.172   3.610   4.721
  191SAPI  H18Z22109   5.223   3.536   4.560
  192SAPI   C1222110   6.771   0.156   2.353
  192SAPI    H222111   6.678   0.109   2.313
  192SAPI    O222112   6.799   0.257   2.255
  192SAPI   HO222113   6.746   0.333   2.279
  192SAPI   C1322114   6.739   0.214   2.489
  192SAPI    H322115   6.731   0.124   2.554
  192SAPI    O322116   6.606   0.286   2.487
  192SAPI   HO322117   6.541   0.227   2.524
  192SAPI   C1422118   6.850   0.302   2.542
  192SAPI    H422119   6.843   0.396   2.481
  192SAPI    O422120   6.815   0.348   2.680
  192SAPI   HO422121   6.744   0.412   2.673
  192SAPI   C1522122   0.104   0.229   2.536
  192SAPI    H522123   0.115   0.183   2.636
  192SAPI    O522124   0.212   0.318   2.529
  192SAPI   HO522125   0.261   0.302   2.610
  192SAPI   C1622126   0.120   0.113   2.436
  192SAPI    H622127   0.180   0.153   2.352
  192SAPI    O622128   0.201   0.013   2.497
  192SAPI   HO622129   0.206   6.820   2.435
  192SAPI   C1122130   6.877   0.052   2.362
  192SAPI    H122131   6.823   6.854   2.422
  192SAPI     P22132   0.073   6.716   2.216
  192SAPI   O1322133   0.090   6.677   2.078
  192SAPI   O1422134   6.864   6.631   2.294
  192SAPI   O1222135   0.028   6.873   2.235
  192SAPI   O1122136   0.212   6.708   2.292
  192SAPI    C122137   0.288   6.583   2.286
  192SAPI    HA22138   0.262   6.512   2.204
  192SAPI    HB22139   0.397   6.595   2.266
  192SAPI    C222140   0.272   6.503   2.418
  192SAPI    HS22141   0.168   6.465   2.428
  192SAPI   O2122142   0.292   6.597   2.527
  192SAPI   C2122143   0.236   6.553   2.639
  192SAPI   O2222144   0.182   6.448   2.659
  192SAPI   C2222145   0.245   6.671   2.735
  192SAPI   H2R22146   0.324   6.652   2.811
  192SAPI   H2S22147   0.293   6.753   2.676
  192SAPI    C322148   0.359   6.376   2.425
  192SAPI    HX22149   0.344   6.316   2.333
  192SAPI    HY22150   0.324   6.321   2.515
  192SAPI   O3122151   0.497   6.413   2.425
  192SAPI   C3122152   0.555   6.433   2.547
  192SAPI   O3222153   0.499   6.412   2.653
  192SAPI   C3222154   0.695   6.502   2.525
  192SAPI   H2X22155   0.709   6.501   2.414
  192SAPI   H2Y22156   0.765   6.437   2.581
  192SAPI   C2322157   0.104   6.700   2.805
  192SAPI   H3R22158   0.088   6.614   2.873
  192SAPI   H3S22159   0.018   6.705   2.735
  192SAPI   C2422160   0.098   6.830   2.882
  192SAPI   H4R22161   0.010   6.826   2.950
  192SAPI   H4S22162   0.069   0.021   2.801
  192SAPI   C2522163   0.225   6.856   2.956
  192SAPI   H5R22164   0.294   0.038   2.897
  192SAPI   C2622165   0.260   6.828   3.082
  192SAPI   H6R22166   0.361   6.862   3.109
  192SAPI   C2722167   0.202   6.756   3.198
  192SAPI   H7R22168   0.104   6.710   3.173
  192SAPI   H7S22169   0.180   6.841   3.267
  192SAPI   C2822170   0.304   6.654   3.247
  192SAPI   H8R22171   0.367   6.611   3.168
  192SAPI   C2922172   0.323   6.606   3.373
  192SAPI   H9R22173   0.405   6.534   3.388
  192SAPI  C21022174   0.262   6.660   3.509
  192SAPI  H10R22175   0.178   6.592   3.535
  192SAPI  H10S22176   0.213   6.758   3.493
  192SAPI  C21122177   0.361   6.680   3.621
  192SAPI  H11R22178   0.417   6.773   3.630
  192SAPI  C21222179   0.384   6.596   3.722
  192SAPI  H12R22180   0.453   6.639   3.796
  192SAPI  C21322181   0.341   6.452   3.748
  192SAPI  H13R22182   0.310   6.401   3.654
  192SAPI  H13S22183   0.246   6.463   3.805
  192SAPI  C21422184   0.441   6.361   3.816
  192SAPI  H14R22185   0.512   6.311   3.748
  192SAPI  C21522186   0.460   6.340   3.945
  192SAPI  H15R22187   0.523   6.257   3.980
  192SAPI  C21622188   0.379   6.400   4.052
  192SAPI  H16R22189   0.298   6.338   4.097
  192SAPI  H16S22190   0.325   6.490   4.016
  192SAPI  C21722191   0.468   6.431   4.178
  192SAPI  H17R22192   0.552   6.489   4.136
  192SAPI  H17S22193   0.513   6.336   4.214
  192SAPI  C21822194   0.397   6.506   4.289
  192SAPI  H18R22195   0.305   6.451   4.315
  192SAPI  H18S22196   0.369   6.603   4.242
  192SAPI  C21922197   0.478   6.533   4.417
  192SAPI  H19R22198   0.421   6.591   4.492
  192SAPI  H19S22199   0.570   6.586   4.386
  192SAPI  C22022200   0.532   6.416   4.503
  192SAPI  H20R22201   0.594   6.459   4.585
  192SAPI  H20S22202   0.602   6.346   4.452
  192SAPI  H20T22203   0.448   6.353   4.539
  192SAPI   C3322204   0.720   6.641   2.580
  192SAPI   H3X22205   0.667   6.729   2.540
  192SAPI   H3Y22206   0.820   6.679   2.547
  192SAPI   C3422207   0.716   6.664   2.737
  192SAPI   H4X22208   0.792   6.601   2.790
  192SAPI   H4Y22209   0.618   6.634   2.780
  192SAPI   C3522210   0.733   6.808   2.772
  192SAPI   H5X22211   0.638   6.854   2.738
  192SAPI   H5Y22212   0.809   6.856   2.707
  192SAPI   C3622213   0.752   6.825   2.924
  192SAPI   H6X22214   0.741   0.053   2.948
  192SAPI   H6Y22215   0.850   6.781   2.952
  192SAPI   C3722216   0.638   6.766   3.004
  192SAPI   H7X22217   0.651   6.656   2.993
  192SAPI   H7Y22218   0.546   6.793   2.947
  192SAPI   C3822219   0.614   6.821   3.145
  192SAPI   H8X22220   0.541   6.755   3.196
  192SAPI   H8Y22221   0.583   0.048   3.141
  192SAPI   C3922222   0.732   6.802   3.241
  192SAPI   H9X22223   0.690   6.815   3.343
  192SAPI   H9Y22224   0.800   0.009   3.225
  192SAPI  C31022225   0.799   6.665   3.242
  192SAPI  H10X22226   0.892   6.673   3.302
  192SAPI  H10Y22227   0.849   6.639   3.146
  192SAPI  C31122228   0.721   6.549   3.308
  192SAPI  H11X22229   0.753   6.451   3.267
  192SAPI  H11Y22230   0.613   6.574   3.303
  192SAPI  C31222231   0.754   6.545   3.459
  192SAPI  H12X22232   0.726   6.636   3.517
  192SAPI  H12Y22233   0.865   6.534   3.455
  192SAPI  C31322234   0.703   6.414   3.522
  192SAPI  H13X22235   0.697   6.334   3.445
  192SAPI  H13Y22236   0.599   6.429   3.559
  192SAPI  C31422237   0.784   6.366   3.643
  192SAPI  H14X22238   0.889   6.339   3.619
  192SAPI  H14Y22239   0.726   6.291   3.703
  192SAPI  C31522240   0.808   6.472   3.751
  192SAPI  H15X22241   0.713   6.529   3.760
  192SAPI  H15Y22242   0.883   6.544   3.711
  192SAPI  C31622243   0.841   6.415   3.892
  192SAPI  H16X22244   0.933   6.353   3.882
  192SAPI  H16Y22245   0.757   6.353   3.929
  192SAPI  C31722246   0.853   6.529   3.997
  192SAPI  H17X22247   0.758   6.587   4.002
  192SAPI  H17Y22248   0.926   6.605   3.961
  192SAPI  C31822249   0.901   6.500   4.141
  192SAPI  H18X22250   1.006   6.466   4.153
  192SAPI  H18Y22251   0.841   6.425   4.197
  192SAPI  H18Z22252   0.895   6.601   4.187
  193SOD    SOD22253   6.727   0.166   0.972
  194SOD    SOD22254   3.001   0.842   7.018
  195SOD    SOD22255   3.225   3.063   6.931
  196SOD    SOD22256   0.369   1.406   8.300
  197SOD    SOD22257   4.216   2.721   2.186
  198SOD    SOD22258   1.362   6.284   2.110
  199SOD    SOD22259   4.040   2.748   1.699
  200SOD    SOD22260   1.508   2.012   6.520
  201SOD    SOD22261   5.097   5.449   2.067
  202SOD    SOD22262   4.304   4.802   7.553
  203SOD    SOD22263   4.974   2.488   1.483
  204SOD    SOD22264   0.956   1.319   1.366
  205SOD    SOD22265   2.446   1.665   7.074
  206SOD    SOD22266   2.511   6.253   7.733
  207SOD    SOD22267   4.179   6.108   7.938
  208SOD    SOD22268   3.693   3.240   8.230
  209SOD    SOD22269   3.913   2.165   7.943
  210SOD    SOD22270   3.305   3.261   1.021
  211SOD    SOD22271   5.500   6.773   6.925
  212SOD    SOD22272   5.269   5.493   1.195
  213SOD    SOD22273   2.777   1.423   0.725
  214SOD    SOD22274   6.617   4.283   0.216
  215SOD    SOD22275   1.912   4.338   1.015
  216SOD    SOD22276   1.971   0.003   7.413
  217SOD    SOD22277   6.867   4.436   7.904
  218SOD    SOD22278   4.756   2.052   1.902
  219SOD    SOD22279   1.046   5.639   7.712
  220SOD    SOD22280   1.820   5.005   8.099
  221SOD    SOD22281   3.259   0.809   1.954
  222SOD    SOD22282   5.912   1.244   1.867
  223SOD    SOD22283   5.933   4.164   1.762
  224SOD    SOD22284   2.530   6.524   2.181
  225SOD    SOD22285   3.612   3.853   6.296
  226SOD    SOD22286   4.204   0.556   1.993
  227SOD    SOD22287   0.117   2.595   2.469
  228SOD    SOD22288   0.472   2.510   0.508
  229SOD    SOD22289   3.174   5.907   1.476
  230SOD    SOD22290   4.074   3.838   0.216
  231SOD    SOD22291   6.562   4.202   6.707
  232SOD    SOD22292   1.338   0.173   7.842
  233SOD    SOD22293   3.386   0.939   7.820
  234CLA    CLA22294   2.605   0.478   8.260
  235CLA    CLA22295   0.808   4.314   7.623
  236CLA    CLA22296   6.517   3.128   0.843
  237CLA    CLA22297   2.944   2.985   7.272
  238CLA    CLA22298   0.868   0.768   1.037
  239CLA    CLA22299   3.634   5.021   0.466
  240CLA    CLA22300   5.770   5.770   7.787
  241CLA    CLA22301   3.863   4.500   6.208
  242CLA    CLA22302   6.196   4.104   0.608
  243CLA    CLA22303   2.456   6.652   1.708
  244CLA    CLA22304   3.073   0.754   1.088
  245CLA    CLA22305   5.297   3.860   7.908
  246CLA    CLA22306   0.400   4.220   0.739
  247CLA    CLA22307   2.656   0.892   7.739
  248CLA    CLA22308   1.725   4.294   1.208
  249CLA    CLA22309   3.438   3.427   0.421
  250CLA    CLA22310   0.868   2.749   0.217
  251TIP3   OH222311   4.492   0.537   8.130
  251TIP3    H122312   4.556   0.500   8.190
  251TIP3    H222313   4.446   0.462   8.094
  252TIP3   OH222314   0.133   2.130   0.002
  252TIP3    H122315   0.078   2.098   8.554
  252TIP3    H222316   0.215   2.081   8.616
  253TIP3   OH222317   1.073   5.318   1.327
  253TIP3    H122318   0.996   5.374   1.324
  253TIP3    H222319   1.135   5.364   1.384
  254TIP3   OH222320   4.520   6.807   6.983
  254TIP3    H122321   4.536   6.731   7.040
  254TIP3    H222322   4.555   0.002   7.032
  255TIP3   OH222323   2.769   1.335   2.319
  255TIP3    H122324   2.848   1.389   2.309
  255TIP3    H222325   2.700   1.397   2.339
  256TIP3   OH222326   4.024   2.244   7.419
  256TIP3    H122327   4.085   2.313   7.443
  256TIP3    H222328   4.065   2.164   7.450
  257TIP3   OH222329   5.486   4.023   0.605
  257TIP3    H122330   5.471   4.042   0.512
  257TIP3    H222331   5.400   3.995   0.637
  258TIP3   OH222332   2.838   1.941   1.287
  258TIP3    H122333   2.832   1.881   1.361
  258TIP3    H222334   2.756   1.992   1.291
  259TIP3   OH222335   5.228   3.238   7.881
  259TIP3    H122336   5.309   3.223   7.930
  259TIP3    H222337   5.160   3.245   7.948
  260TIP3   OH222338   5.625   6.785   8.018
  260TIP3    H122339   5.553   6.813   8.074
  260TIP3    H222340   5.681   6.733   8.075
  261TIP3   OH222341   4.903   3.393   0.749
  261TIP3    H122342   4.823   3.357   0.787
  261TIP3    H222343   4.871   3.464   0.692
  262TIP3   OH222344   0.294   0.340   0.002
  262TIP3    H122345   0.295   0.310   8.535
  262TIP3    H222346   0.242   0.420   0.001
  263TIP3   OH222347   0.730   4.740   2.097
  263TIP3    H122348   0.777   4.785   2.167
  263TIP3    H222349   0.697   4.660   2.138
  264TIP3   OH222350   2.433   0.561   1.266
  264TIP3    H122351   2.428   0.650   1.233
  264TIP3    H222352   2.409   0.506   1.191
  265TIP3   OH222353   0.946   2.288   7.887
  265TIP3    H122354   1.023   2.325   7.845
  265TIP3    H222355   0.947   2.195   7.863
  266TIP3   OH222356   1.632   1.610   7.242
  266TIP3    H122357   1.686   1.676   7.198
  266TIP3    H222358   1.693   1.565   7.301
  267TIP3   OH222359   1.457   2.747   1.056
  267TIP3    H122360   1.373   2.745   1.011
  267TIP3    H222361   1.515   2.796   0.997
  268TIP3   OH222362   6.180   3.630   7.305
  268TIP3    H122363   6.220   3.548   7.331
  268TIP3    H222364   6.086   3.611   7.301
  269TIP3   OH222365   4.542   5.644   0.596
  269TIP3    H122366   4.463   5.639   0.541
  269TIP3    H222367   4.508   5.655   0.685
  270TIP3   OH222368   1.612   3.798   6.013
  270TIP3    H122369   1.521   3.812   6.038
  270TIP3    H222370   1.663   3.842   6.081
  271TIP3   OH222371   0.844   6.124   7.678
  271TIP3    H122372   0.823   6.209   7.715
  271TIP3    H222373   0.784   6.114   7.604
  272TIP3   OH222374   3.478   0.889   1.912
  272TIP3    H122375   3.476   0.984   1.926
  272TIP3    H222376   3.561   0.873   1.867
  273TIP3   OH222377   3.533   4.820   7.267
  273TIP3    H122378   3.477   4.870   7.208
  273TIP3    H222379   3.604   4.789   7.211
  274TIP3   OH222380   1.458   1.076   1.575
  274TIP3    H122381   1.452   0.995   1.627
  274TIP3    H222382   1.388   1.068   1.510
  275TIP3   OH222383   5.329   1.631   2.465
  275TIP3    H122384   5.285   1.656   2.384
  275TIP3    H222385   5.350   1.713   2.508
  276TIP3   OH222386   6.460   2.625   0.758
  276TIP3    H122387   6.507   2.674   0.691
  276TIP3    H222388   6.416   2.692   0.810
  277TIP3   OH222389   5.378   4.498   8.475
  277TIP3    H122390   5.355   4.504   8.568
  277TIP3    H222391   5.466   4.535   8.470
  278TIP3   OH222392   1.893   0.988   0.394
  278TIP3    H122393   1.960   0.924   0.415
  278TIP3    H222394   1.823   0.972   0.457
  279TIP3   OH222395   5.980   6.002   6.864
  279TIP3    H122396   6.050   5.980   6.803
  279TIP3    H222397   5.899   5.977   6.819
  280TIP3   OH222398   3.580   6.062   1.028
  280TIP3    H122399   3.516   6.061   0.956
  280TIP3    H222400   3.567   6.147   1.070
  281TIP3   OH222401   2.825   6.148   0.025
  281TIP3    H122402   2.775   6.223   0.055
  281TIP3    H222403   2.906   6.185   8.612
  282TIP3   OH222404   1.877   6.826   6.906
  282TIP3    H122405   1.901   6.750   6.853
  282TIP3    H222406   1.867   0.018   6.843
  283TIP3   OH222407   1.737   3.867   7.604
  283TIP3    H122408   1.736   3.853   7.699
  283TIP3    H222409   1.794   3.943   7.592
  284TIP3   OH222410   1.022   3.666   7.865
  284TIP3    H122411   1.008   3.585   7.816
  284TIP3    H222412   0.970   3.732   7.818
  285TIP3   OH222413   0.423   1.553   2.104
  285TIP3    H122414   0.341   1.504   2.103
  285TIP3    H222415   0.436   1.579   2.013
  286TIP3   OH222416   0.496   6.409   8.574
  286TIP3    H122417   0.565   6.395   0.015
  286TIP3    H222418   0.454   6.324   8.565
  287TIP3   OH222419   2.537   1.756   7.509
  287TIP3    H122420   2.574   1.699   7.576
  287TIP3    H222421   2.521   1.839   7.553
  288TIP3   OH222422   1.713   4.785   7.026
  288TIP3    H122423   1.672   4.700   7.044
  288TIP3    H222424   1.759   4.772   6.943
  289TIP3   OH222425   5.161   1.855   6.902
  289TIP3    H122426   5.079   1.874   6.856
  289TIP3    H222427   5.205   1.940   6.909
  290TIP3   OH222428   3.476   4.840   1.605
  290TIP3    H122429   3.408   4.774   1.616
  290TIP3    H222430   3.487   4.878   1.692
  291TIP3   OH222431   3.437   0.551   8.353
  291TIP3    H122432   3.383   0.598   8.417
  291TIP3    H222433   3.384   0.547   8.274
  292TIP3   OH222434   1.455   6.537   7.796
  292TIP3    H122435   1.546   6.523   7.823
  292TIP3    H222436   1.433   6.459   7.746
  293TIP3   OH222437   0.563   4.659   6.163
  293TIP3    H122438   0.578   4.564   6.163
  293TIP3    H222439   0.646   4.697   6.192
  294TIP3   OH222440   3.640   2.110   2.059
  294TIP3    H122441   3.598   2.197   2.061
  294TIP3    H222442   3.650   2.087   2.152
  295TIP3   OH222443   5.954   3.407   1.289
  295TIP3    H122444   5.871   3.361   1.276
  295TIP3    H222445   5.931   3.500   1.285
  296TIP3   OH222446   3.426   5.344   0.423
  296TIP3    H122447   3.436   5.395   0.343
  296TIP3    H222448   3.481   5.267   0.409
  297TIP3   OH222449   2.058   0.188   0.525
  297TIP3    H122450   1.981   0.179   0.468
  297TIP3    H222451   2.127   0.221   0.468
  298TIP3   OH222452   6.476   1.563   1.136
  298TIP3    H122453   6.466   1.484   1.188
  298TIP3    H222454   6.388   1.579   1.100
  299TIP3   OH222455   0.505   1.020   6.752
  299TIP3    H122456   0.459   1.071   6.819
  299TIP3    H222457   0.576   0.977   6.800
  300TIP3   OH222458   0.267   4.139   8.125
  300TIP3    H122459   0.232   4.051   8.106
  300TIP3    H222460   0.359   4.123   8.147
  301TIP3   OH222461   0.336   4.639   2.279
  301TIP3    H122462   0.256   4.627   2.331
  301TIP3    H222463   0.401   4.671   2.342
  302TIP3   OH222464   0.709   2.865   7.163
  302TIP3    H122465   0.666   2.940   7.123
  302TIP3    H222466   0.714   2.888   7.256
  303TIP3   OH222467   3.497   4.571   7.135
  303TIP3    H122468   3.569   4.527   7.090
  303TIP3    H222469   3.539   4.619   7.207
  304TIP3   OH222470   4.835   5.823   8.299
  304TIP3    H122471   4.798   5.798   8.214
  304TIP3    H222472   4.921   5.782   8.300
  305TIP3   OH222473   5.243   6.399   0.761
  305TIP3    H122474   5.296   6.324   0.735
  305TIP3    H222475   5.248   6.459   0.687
  306TIP3   OH222476   4.116   5.238   0.943
  306TIP3    H122477   4.041   5.179   0.939
  306TIP3    H222478   4.160   5.227   0.858
  307TIP3   OH222479   1.329   0.616   6.297
  307TIP3    H122480   1.341   0.547   6.231
  307TIP3    H222481   1.396   0.681   6.276
  308TIP3   OH222482   0.498   0.432   1.927
  308TIP3    H122483   0.506   0.337   1.936
  308TIP3    H222484   0.580   0.466   1.963
  309TIP3   OH222485   2.115   4.400   1.117
  309TIP3    H122486   2.116   4.473   1.179
  309TIP3    H222487   2.192   4.347   1.142
  310TIP3   OH222488   1.451   6.596   7.120
  310TIP3    H122489   1.505   6.639   7.053
  310TIP3    H222490   1.444   6.505   7.090
  311TIP3   OH222491   6.277   1.408   0.730
  311TIP3    H122492   6.207   1.414   0.665
  311TIP3    H222493   6.324   1.491   0.722
  312TIP3   OH222494   5.199   5.713   7.145
  312TIP3    H122495   5.238   5.633   7.180
  312TIP3    H222496   5.125   5.730   7.203
  313TIP3   OH222497   1.674   0.148   2.087
  313TIP3    H122498   1.706   0.234   2.058
  313TIP3    H222499   1.724   0.130   2.166
  314TIP3   OH222500   2.747   5.571   8.002
  314TIP3    H122501   2.717   5.616   7.923
  314TIP3    H222502   2.770   5.483   7.972
  315TIP3   OH222503   1.065   4.818   6.857
  315TIP3    H122504   1.104   4.748   6.805
  315TIP3    H222505   1.120   4.894   6.839
  316TIP3   OH222506   3.384   1.545   6.791
  316TIP3    H122507   3.415   1.595   6.716
  316TIP3    H222508   3.412   1.455   6.773
  317TIP3   OH222509   5.734   5.650   2.044
  317TIP3    H122510   5.642   5.627   2.058
  317TIP3    H222511   5.780   5.614   2.120
  318TIP3   OH222512   3.498   3.843   7.998
  318TIP3    H122513   3.402   3.843   8.002
  318TIP3    H222514   3.524   3.757   8.031
  319TIP3   OH222515   1.336   0.661   7.808
  319TIP3    H122516   1.255   0.711   7.792
  319TIP3    H222517   1.391   0.682   7.733
  320TIP3   OH222518   6.723   0.826   0.462
  320TIP3    H122519   6.693   0.849   0.374
  320TIP3    H222520   6.717   0.908   0.512
  321TIP3   OH222521   6.847   6.859   6.970
  321TIP3    H122522   6.834   0.020   6.884
  321TIP3    H222523   6.762   6.822   6.993
  322TIP3   OH222524   5.210   5.509   1.556
  322TIP3    H122525   5.144   5.534   1.621
  322TIP3    H222526   5.172   5.434   1.510
  323TIP3   OH222527   4.773   2.456   2.431
  323TIP3    H122528   4.843   2.509   2.393
  323TIP3    H222529   4.785   2.369   2.393
  324TIP3   OH222530   3.487   2.152   1.144
  324TIP3    H122531   3.398   2.160   1.108
  324TIP3    H222532   3.476   2.098   1.222
  325TIP3   OH222533   2.347   2.859   6.600
  325TIP3    H122534   2.380   2.795   6.664
  325TIP3    H222535   2.384   2.942   6.628
  326TIP3   OH222536   3.645   3.665   8.604
  326TIP3    H122537   3.686   3.583   0.006
  326TIP3    H222538   3.631   3.656   8.509
  327TIP3   OH222539   3.902   1.240   1.124
  327TIP3    H122540   3.909   1.158   1.075
  327TIP3    H222541   3.974   1.293   1.090
  328TIP3   OH222542   2.821   4.210   7.606
  328TIP3    H122543   2.782   4.184   7.523
  328TIP3    H222544   2.828   4.128   7.656
  329TIP3   OH222545   1.071   6.184   8.532
  329TIP3    H122546   1.072   6.113   8.467
  329TIP3    H222547   1.159   6.220   8.529
  330TIP3   OH222548   5.047   0.908   7.621
  330TIP3    H122549   5.057   0.845   7.550
  330TIP3    H222550   5.113   0.975   7.604
  331TIP3   OH222551   2.788   0.745   7.968
  331TIP3    H122552   2.739   0.799   7.906
  331TIP3    H222553   2.781   0.656   7.933
  332TIP3   OH222554   5.227   1.230   7.195
  332TIP3    H122555   5.306   1.283   7.203
  332TIP3    H222556   5.156   1.288   7.225
  333TIP3   OH222557   3.595   0.434   0.932
  333TIP3    H122558   3.508   0.430   0.971
  333TIP3    H222559   3.614   0.344   0.906
  334TIP3   OH222560   3.151   3.313   0.093
  334TIP3    H122561   3.246   3.302   0.091
  334TIP3    H222562   3.138   3.402   0.126
  335TIP3   OH222563   1.450   2.222   7.877
  335TIP3    H122564   1.380   2.160   7.854
  335TIP3    H222565   1.519   2.206   7.812
  336TIP3   OH222566   2.046   3.368   7.015
  336TIP3    H122567   2.119   3.321   7.056
  336TIP3    H222568   1.970   3.342   7.067
  337TIP3   OH222569   0.153   4.581   6.829
  337TIP3    H122570   0.189   4.505   6.876
  337TIP3    H222571   0.175   4.656   6.884
  338TIP3   OH222572   2.947   3.163   0.844
  338TIP3    H122573   2.969   3.255   0.829
  338TIP3    H222574   2.869   3.166   0.900
  339TIP3   OH222575   6.362   6.743   7.928
  339TIP3    H122576   6.345   6.660   7.972
  339TIP3    H222577   6.371   6.806   7.999
  340TIP3   OH222578   0.341   4.914   7.084
  340TIP3    H122579   0.258   4.868   7.069
  340TIP3    H222580   0.321   5.006   7.070
  341TIP3   OH222581   5.139   4.838   8.052
  341TIP3    H122582   5.214   4.883   8.013
  341TIP3    H222583   5.170   4.749   8.067
  342TIP3   OH222584   3.678   6.830   1.007
  342TIP3    H122585   3.603   6.864   0.958
  342TIP3    H222586   3.676   6.736   0.990
  343TIP3   OH222587   0.627   3.737   8.252
  343TIP3    H122588   0.707   3.786   8.271
  343TIP3    H222589   0.656   3.661   8.202
  344TIP3   OH222590   2.069   1.657   0.944
  344TIP3    H122591   2.131   1.607   0.892
  344TIP3    H222592   2.056   1.738   0.895
  345TIP3   OH222593   2.656   5.403   2.191
  345TIP3    H122594   2.720   5.437   2.253
  345TIP3    H222595   2.709   5.373   2.117
  346TIP3   OH222596   5.993   3.852   0.578
  346TIP3    H122597   6.049   3.928   0.594
  346TIP3    H222598   5.915   3.888   0.536
  347TIP3   OH222599   0.377   0.407   1.286
  347TIP3    H122600   0.414   0.468   1.350
  347TIP3    H222601   0.297   0.450   1.256
  348TIP3   OH222602   1.086   5.943   8.392
  348TIP3    H122603   1.071   5.925   8.299
  348TIP3    H222604   1.146   5.875   8.421
  349TIP3   OH222605   3.239   3.664   1.269
  349TIP3    H122606   3.215   3.753   1.241
  349TIP3    H222607   3.157   3.627   1.303
  350TIP3   OH222608   3.028   4.747   7.940
  350TIP3    H122609   2.970   4.671   7.936
  350TIP3    H222610   3.089   4.733   7.867
  351TIP3   OH222611   3.847   0.678   0.509
  351TIP3    H122612   3.767   0.715   0.471
  351TIP3    H222613   3.823   0.658   0.599
  352TIP3   OH222614   0.030   2.560   0.765
  352TIP3    H122615   0.032   2.524   0.854
  352TIP3    H222616   0.015   2.654   0.778
  353TIP3   OH222617   5.614   1.620   2.316
  353TIP3    H122618   5.699   1.607   2.358
  353TIP3    H222619   5.551   1.621   2.387
  354TIP3   OH222620   6.511   2.706   0.470
  354TIP3    H122621   6.564   2.645   0.419
  354TIP3    H222622   6.575   2.761   0.516
  355TIP3   OH222623   2.293   3.101   1.821
  355TIP3    H122624   2.377   3.085   1.864
  355TIP3    H222625   2.317   3.127   1.732
  356TIP3   OH222626   1.785   5.363   0.508
  356TIP3    H122627   1.713   5.404   0.460
  356TIP3    H222628   1.758   5.365   0.600
  357TIP3   OH222629   4.748   2.039   0.499
  357TIP3    H122630   4.804   2.093   0.555
  357TIP3    H222631   4.788   2.045   0.412
  358TIP3   OH222632   0.472   4.007   1.496
  358TIP3    H122633   0.420   3.992   1.418
  358TIP3    H222634   0.482   4.102   1.501
  359TIP3   OH222635   3.292   5.420   0.926
  359TIP3    H122636   3.318   5.399   0.836
  359TIP3    H222637   3.198   5.401   0.929
  360TIP3   OH222638   6.479   5.008   0.564
  360TIP3    H122639   6.456   5.072   0.632
  360TIP3    H222640   6.526   4.939   0.610
  361TIP3   OH222641   1.628   4.964   1.556
  361TIP3    H122642   1.687   4.944   1.483
  361TIP3    H222643   1.684   4.961   1.633
  362TIP3   OH222644   1.946   1.688   0.367
  362TIP3    H122645   1.987   1.608   0.334
  362TIP3    H222646   1.866   1.696   0.315
  363TIP3   OH222647   6.240   3.915   7.477
  363TIP3    H122648   6.283   3.863   7.544
  363TIP3    H222649   6.150   3.924   7.507
  364TIP3   OH222650   5.050   1.375   2.627
  364TIP3    H122651   5.043   1.426   2.708
  364TIP3    H222652   5.107   1.301   2.650
  365TIP3   OH222653   3.391   5.010   1.256
  365TIP3    H122654   3.321   5.050   1.204
  365TIP3    H222655   3.467   5.010   1.198
  366TIP3   OH222656   1.422   0.232   6.779
  366TIP3    H122657   1.347   0.265   6.729
  366TIP3    H222658   1.424   0.138   6.760
  367TIP3   OH222659   0.502   6.236   1.442
  367TIP3    H122660   0.535   6.175   1.376
  367TIP3    H222661   0.559   6.223   1.518
  368TIP3   OH222662   0.568   4.015   6.942
  368TIP3    H122663   0.601   3.926   6.947
  368TIP3    H222664   0.579   4.050   7.030
  369TIP3   OH222665   2.332   0.687   0.701
  369TIP3    H122666   2.331   0.705   0.795
  369TIP3    H222667   2.425   0.689   0.677
  370TIP3   OH222668   4.335   0.199   7.832
  370TIP3    H122669   4.286   0.117   7.821
  370TIP3    H222670   4.420   0.181   7.791
  371TIP3   OH222671   6.700   0.895   0.194
  371TIP3    H122672   6.781   0.947   0.194
  371TIP3    H222673   6.726   0.812   0.154
  372TIP3   OH222674   4.344   2.100   7.775
  372TIP3    H122675   4.423   2.142   7.742
  372TIP3    H222676   4.374   2.045   7.847
  373TIP3   OH222677   1.960   5.100   1.574
  373TIP3    H122678   1.928   5.148   1.498
  373TIP3    H222679   1.953   5.163   1.646
  374TIP3   OH222680   3.509   0.059   2.222
  374TIP3    H122681   3.452   0.099   2.288
  374TIP3    H222682   3.589   0.110   2.226
  375TIP3   OH222683   4.690   2.733   8.091
  375TIP3    H122684   4.624   2.797   8.065
  375TIP3    H222685   4.770   2.762   8.047
  376TIP3   OH222686   6.804   4.881   0.697
  376TIP3    H122687   6.841   4.864   0.610
  376TIP3    H222688   6.709   4.877   0.683
  377TIP3   OH222689   5.043   3.260   7.252
  377TIP3    H122690   5.126   3.295   7.219
  377TIP3    H222691   5.062   3.234   7.342
  378TIP3   OH222692   1.412   0.568   0.558
  378TIP3    H122693   1.330   0.589   0.603
  378TIP3    H222694   1.386   0.510   0.486
  379TIP3   OH222695   3.097   6.530   8.400
  379TIP3    H122696   3.161   6.564   8.462
  379TIP3    H222697   3.113   6.579   8.319
  380TIP3   OH222698   0.353   6.100   0.854
  380TIP3    H122699   0.443   6.110   0.884
  380TIP3    H222700   0.313   6.042   0.919
  381TIP3   OH222701   3.279   4.165   8.508
  381TIP3    H122702   3.207   4.223   8.483
  381TIP3    H222703   3.237   4.096   8.560
  382TIP3   OH222704   6.640   6.701   8.047
  382TIP3    H122705   6.602   6.787   8.027
  382TIP3    H222706   6.599   6.675   8.129
  383TIP3   OH222707   6.266   1.935   0.722
  383TIP3    H122708   6.323   1.952   0.647
  383TIP3    H222709   6.266   2.017   0.771
  384TIP3   OH222710   0.234   3.278   8.539
  384TIP3    H122711   0.198   3.190   8.553
  384TIP3    H222712   0.240   3.315   0.004
  385TIP3   OH222713   2.252   2.442   0.775
  385TIP3    H122714   2.293   2.528   0.772
  385TIP3    H222715   2.234   2.427   0.868
  386TIP3   OH222716   6.100   1.986   1.761
  386TIP3    H122717   6.043   1.983   1.838
  386TIP3    H222718   6.059   2.052   1.704
  387TIP3   OH222719   0.451   0.143   6.358
  387TIP3    H122720   0.527   0.133   6.416
  387TIP3    H222721   0.388   0.077   6.389
  388TIP3   OH222722   1.226   2.000   7.801
  388TIP3    H122723   1.206   1.914   7.764
  388TIP3    H222724   1.224   2.059   7.726
  389TIP3   OH222725   6.460   0.636   2.313
  389TIP3    H122726   6.513   0.642   2.234
  389TIP3    H222727   6.439   0.727   2.335
  390TIP3   OH222728   3.418   6.212   0.018
  390TIP3    H122729   3.407   6.161   8.562
  390TIP3    H222730   3.498   6.263   0.004
  391TIP3   OH222731   4.520   5.273   8.293
  391TIP3    H122732   4.590   5.244   8.352
  391TIP3    H222733   4.556   5.260   8.205
  392TIP3   OH222734   1.353   4.829   8.396
  392TIP3    H122735   1.416   4.853   8.464
  392TIP3    H222736   1.355   4.903   8.335
  393TIP3   OH222737   4.905   5.867   6.884
  393TIP3    H122738   4.989   5.821   6.885
  393TIP3    H222739   4.844   5.807   6.925
  394TIP3   OH222740   2.121   3.871   7.536
  394TIP3    H122741   2.216   3.863   7.546
  394TIP3    H222742   2.099   3.805   7.470
  395TIP3   OH222743   6.094   0.128   2.040
  395TIP3    H122744   6.095   0.211   2.087
  395TIP3    H222745   6.137   0.066   2.099
  396TIP3   OH222746   1.414   3.449   0.692
  396TIP3    H122747   1.506   3.440   0.667
  396TIP3    H222748   1.372   3.371   0.655
  397TIP3   OH222749   1.362   0.202   6.184
  397TIP3    H122750   1.396   0.140   6.249
  397TIP3    H222751   1.311   0.148   6.124
  398TIP3   OH222752   5.084   2.307   8.048
  398TIP3    H122753   5.154   2.243   8.060
  398TIP3    H222754   5.122   2.390   8.075
  399TIP3   OH222755   6.413   2.793   7.573
  399TIP3    H122756   6.406   2.818   7.665
  399TIP3    H222757   6.462   2.866   7.533
  400TIP3   OH222758   2.015   5.470   1.304
  400TIP3    H122759   1.946   5.517   1.257
  400TIP3    H222760   2.096   5.496   1.259
  401TIP3   OH222761   2.586   4.841   1.630
  401TIP3    H122762   2.649   4.771   1.647
  401TIP3    H222763   2.503   4.795   1.615
  402TIP3   OH222764   5.979   2.779   7.517
  402TIP3    H122765   5.959   2.864   7.480
  402TIP3    H222766   5.904   2.724   7.494
  403TIP3   OH222767   0.607   4.983   6.769
  403TIP3    H122768   0.569   5.064   6.804
  403TIP3    H222769   0.568   4.974   6.682
  404TIP3   OH222770   3.842   6.652   0.007
  404TIP3    H122771   3.822   6.661   8.538
  404TIP3    H222772   3.759   6.627   0.048
  405TIP3   OH222773   3.243   3.138   0.830
  405TIP3    H122774   3.158   3.100   0.852
  405TIP3    H222775   3.290   3.067   0.786
  406TIP3   OH222776   1.471   1.057   7.210
  406TIP3    H122777   1.423   1.140   7.200
  406TIP3    H222778   1.484   1.048   7.304
  407TIP3   OH222779   4.125   4.720   7.024
  407TIP3    H122780   4.099   4.737   7.115
  407TIP3    H222781   4.220   4.729   7.025
  408TIP3   OH222782   5.114   0.237   7.506
  408TIP3    H122783   5.188   0.219   7.563
  408TIP3    H222784   5.088   0.326   7.527
  409TIP3   OH222785   5.314   6.072   0.140
  409TIP3    H122786   5.338   5.993   0.092
  409TIP3    H222787   5.222   6.060   0.163
  410TIP3   OH222788   2.271   2.847   7.652
  410TIP3    H122789   2.267   2.899   7.572
  410TIP3    H222790   2.208   2.777   7.638
  411TIP3   OH222791   0.906   1.394   1.758
  411TIP3    H122792   0.923   1.486   1.778
  411TIP3    H222793   0.820   1.377   1.798
  412TIP3   OH222794   3.606   1.533   0.443
  412TIP3    H122795   3.553   1.559   0.519
  412TIP3    H222796   3.597   1.606   0.382
  413TIP3   OH222797   3.571   5.685   8.527
  413TIP3    H122798   3.626   5.696   8.604
  413TIP3    H222799   3.630   5.695   8.452
  414TIP3   OH222800   5.824   4.947   2.023
  414TIP3    H122801   5.908   4.990   2.008
  414TIP3    H222802   5.774   5.009   2.075
  415TIP3   OH222803   3.342   5.712   8.071
  415TIP3    H122804   3.351   5.625   8.033
  415TIP3    H222805   3.265   5.750   8.027
  416TIP3   OH222806   2.778   3.432   0.388
  416TIP3    H122807   2.843   3.502   0.395
  416TIP3    H222808   2.709   3.457   0.449
  417TIP3   OH222809   1.923   0.223   0.243
  417TIP3    H122810   1.909   0.307   0.286
  417TIP3    H222811   1.990   0.240   0.176
  418TIP3   OH222812   5.152   1.578   6.457
  418TIP3    H122813   5.072   1.549   6.501
  418TIP3    H222814   5.122   1.646   6.395
  419TIP3   OH222815   4.470   3.868   0.505
  419TIP3    H122816   4.545   3.920   0.477
  419TIP3    H222817   4.434   3.916   0.579
  420TIP3   OH222818   4.572   6.395   7.771
  420TIP3    H122819   4.539   6.323   7.718
  420TIP3    H222820   4.551   6.370   7.861
  421TIP3   OH222821   3.719   6.253   7.974
  421TIP3    H122822   3.737   6.328   7.918
  421TIP3    H222823   3.773   6.267   8.051
  422TIP3   OH222824   5.678   0.507   1.560
  422TIP3    H122825   5.663   0.429   1.507
  422TIP3    H222826   5.771   0.504   1.582
  423TIP3   OH222827   6.860   6.257   2.169
  423TIP3    H122828   6.842   6.320   2.239
  423TIP3    H222829   0.051   6.296   2.118
  424TIP3   OH222830   2.201   0.090   7.392
  424TIP3    H122831   2.247   0.167   7.425
  424TIP3    H222832   2.250   0.065   7.313
  425TIP3   OH222833   3.578   0.879   8.508
  425TIP3    H122834   3.575   0.789   8.538
  425TIP3    H222835   3.561   0.931   8.586
  426TIP3   OH222836   0.439   6.449   0.267
  426TIP3    H122837   0.511   6.410   0.217
  426TIP3    H222838   0.468   6.539   0.284
  427TIP3   OH222839   0.793   0.222   8.459
  427TIP3    H122840   0.881   0.240   8.426
  427TIP3    H222841   0.807   0.166   8.535
  428TIP3   OH222842   2.485   3.803   8.192
  428TIP3    H122843   2.452   3.890   8.169
  428TIP3    H222844   2.488   3.804   8.288
  429TIP3   OH222845   4.166   6.029   7.487
  429TIP3    H122846   4.153   6.124   7.480
  429TIP3    H222847   4.209   6.004   7.405
  430TIP3   OH222848   6.692   1.755   7.776
  430TIP3    H122849   6.768   1.813   7.775
  430TIP3    H222850   6.627   1.802   7.828
  431TIP3   OH222851   4.856   2.059   8.259
  431TIP3    H122852   4.840   2.066   8.353
  431TIP3    H222853   4.883   1.969   8.245
  432TIP3   OH222854   2.465   5.249   8.569
  432TIP3    H122855   2.503   5.270   0.030
  432TIP3    H222856   2.540   5.247   8.509
  433TIP3   OH222857   4.008   2.521   0.394
  433TIP3    H122858   3.919   2.547   0.372
  433TIP3    H222859   4.000   2.433   0.431
  434TIP3   OH222860   4.633   6.451   6.981
  434TIP3    H122861   4.544   6.475   6.954
  434TIP3    H222862   4.639   6.357   6.966
  435TIP3   OH222863   6.047   2.430   6.857
  435TIP3    H122864   6.088   2.347   6.884
  435TIP3    H222865   6.006   2.410   6.773
  436TIP3   OH222866   1.170   5.455   7.233
  436TIP3    H122867   1.249   5.439   7.284
  436TIP3    H222868   1.181   5.401   7.154
  437TIP3   OH222869   2.728   4.107   7.340
  437TIP3    H122870   2.673   4.046   7.389
  437TIP3    H222871   2.775   4.051   7.277
  438TIP3   OH222872   0.311   2.677   2.609
  438TIP3    H122873   0.373   2.733   2.656
  438TIP3    H222874   0.364   2.633   2.542
  439TIP3   OH222875   0.021   6.335   7.253
  439TIP3    H122876   0.077   6.278   7.305
  439TIP3    H222877   0.029   6.421   7.294
  440TIP3   OH222878   4.797   0.594   7.697
  440TIP3    H122879   4.771   0.564   7.785
  440TIP3    H222880   4.716   0.627   7.658
  441TIP3   OH222881   2.600   5.212   0.518
  441TIP3    H122882   2.608   5.282   0.453
  441TIP3    H222883   2.675   5.156   0.503
  442TIP3   OH222884   3.443   6.511   1.792
  442TIP3    H122885   3.381   6.482   1.859
  442TIP3    H222886   3.417   6.601   1.773
  443TIP3   OH222887   2.792   2.207   1.590
  443TIP3    H122888   2.788   2.240   1.500
  443TIP3    H222889   2.867   2.253   1.629
  444TIP3   OH222890   4.474   2.009   0.014
  444TIP3    H122891   4.493   1.977   8.550
  444TIP3    H222892   4.481   1.932   0.070
  445TIP3   OH222893   2.306   3.218   7.057
  445TIP3    H122894   2.386   3.166   7.051
  445TIP3    H222895   2.237   3.153   7.072
  446TIP3   OH222896   3.481   0.864   6.739
  446TIP3    H122897   3.416   0.885   6.671
  446TIP3    H222898   3.564   0.864   6.692
  447TIP3   OH222899   3.667   5.806   7.449
  447TIP3    H122900   3.758   5.824   7.426
  447TIP3    H222901   3.664   5.819   7.544
  448TIP3   OH222902   4.290   3.802   0.293
  448TIP3    H122903   4.324   3.713   0.289
  448TIP3    H222904   4.361   3.854   0.330
  449TIP3   OH222905   1.709   6.413   8.271
  449TIP3    H122906   1.732   6.479   8.204
  449TIP3    H222907   1.614   6.423   8.281
  450TIP3   OH222908   3.186   0.051   0.758
  450TIP3    H122909   3.180   6.837   0.738
  450TIP3    H222910   3.132   0.062   0.836
  451TIP3   OH222911   5.833   5.592   0.065
  451TIP3    H122912   5.891   5.592   0.141
  451TIP3    H222913   5.828   5.683   0.038
  452TIP3   OH222914   5.275   1.268   1.015
  452TIP3    H122915   5.338   1.340   1.009
  452TIP3    H222916   5.275   1.244   1.108
  453TIP3   OH222917   1.672   5.125   7.963
  453TIP3    H122918   1.591   5.150   7.917
  453TIP3    H222919   1.742   5.157   7.906
  454TIP3   OH222920   5.330   1.959   1.604
  454TIP3    H122921   5.347   1.888   1.542
  454TIP3    H222922   5.333   1.918   1.690
  455TIP3   OH222923   2.615   6.807   8.434
  455TIP3    H122924   2.654   6.752   8.365
  455TIP3    H222925   2.612   0.015   8.396
  456TIP3   OH222926   2.728   0.385   0.937
  456TIP3    H122927   2.655   0.324   0.940
  456TIP3    H222928   2.774   0.372   1.019
  457TIP3   OH222929   0.041   0.326   7.711
  457TIP3    H122930   0.010   0.251   7.660
  457TIP3    H222931   0.095   0.377   7.649
  458TIP3   OH222932   0.516   0.894   1.857
  458TIP3    H122933   0.580   0.839   1.901
  458TIP3    H222934   0.526   0.871   1.764
  459TIP3   OH222935   4.705   5.271   1.987
  459TIP3    H122936   4.707   5.246   2.080
  459TIP3    H222937   4.783   5.325   1.975
  460TIP3   OH222938   3.770   0.472   1.849
  460TIP3    H122939   3.722   0.451   1.769
  460TIP3    H222940   3.721   0.430   1.919
  461TIP3   OH222941   6.307   3.789   0.573
  461TIP3    H122942   6.357   3.762   0.650
  461TIP3    H222943   6.273   3.876   0.596
  462TIP3   OH222944   0.077   3.799   6.892
  462TIP3    H122945   6.872   3.755   6.891
  462TIP3    H222946   0.138   3.733   6.925
  463TIP3   OH222947   0.553   5.494   8.388
  463TIP3    H122948   0.491   5.540   8.331
  463TIP3    H222949   0.639   5.522   8.355
  464TIP3   OH222950   6.239   0.517   0.188
  464TIP3    H122951   6.233   0.563   0.105
  464TIP3    H222952   6.288   0.577   0.245
  465TIP3   OH222953   6.287   3.715   1.448
  465TIP3    H122954   6.219   3.687   1.509
  465TIP3    H222955   6.306   3.805   1.474
  466TIP3   OH222956   0.339   2.973   0.273
  466TIP3    H122957   0.397   3.007   0.341
  466TIP3    H222958   0.378   3.002   0.191
  467TIP3   OH222959   3.966   0.478   7.550
  467TIP3    H122960   3.967   0.442   7.638
  467TIP3    H222961   3.877   0.512   7.538
  468TIP3   OH222962   6.434   2.271   1.985
  468TIP3    H122963   6.358   2.328   1.995
  468TIP3    H222964   6.403   2.201   1.927
  469TIP3   OH222965   4.939   3.466   2.445
  469TIP3    H122966   4.979   3.552   2.432
  469TIP3    H222967   5.007   3.415   2.491
  470TIP3   OH222968   3.232   0.162   1.088
  470TIP3    H122969   3.168   0.139   1.020
  470TIP3    H222970   3.184   0.152   1.170
  471TIP3   OH222971   5.461   6.289   8.086
  471TIP3    H122972   5.426   6.293   7.997
  471TIP3    H222973   5.462   6.380   8.115
  472TIP3   OH222974   2.106   0.997   7.134
  472TIP3    H122975   2.086   0.951   7.052
  472TIP3    H222976   2.022   1.004   7.179
  473TIP3   OH222977   1.687   1.833   7.032
  473TIP3    H122978   1.703   1.769   6.962
  473TIP3    H222979   1.775   1.858   7.061
  474TIP3   OH222980   5.272   2.816   0.553
  474TIP3    H122981   5.179   2.818   0.534
  474TIP3    H222982   5.301   2.729   0.526
  475TIP3   OH222983   4.452   2.893   1.110
  475TIP3    H122984   4.538   2.933   1.122
  475TIP3    H222985   4.400   2.960   1.065
  476TIP3   OH222986   6.752   3.822   8.590
  476TIP3    H122987   6.828   3.856   8.544
  476TIP3    H222988   6.691   3.798   8.521
  477TIP3   OH222989   2.021   3.902   0.663
  477TIP3    H122990   1.971   3.887   0.743
  477TIP3    H222991   1.958   3.885   0.593
  478TIP3   OH222992   5.260   6.025   8.260
  478TIP3    H122993   5.338   5.981   8.295
  478TIP3    H222994   5.262   6.112   8.300
  479TIP3   OH222995   3.536   6.633   1.334
  479TIP3    H122996   3.500   6.721   1.328
  479TIP3    H222997   3.490   6.583   1.266
  480TIP3   OH222998   6.394   6.385   7.971
  480TIP3    H122999   6.483   6.397   7.939
  480TIP3    H223000   6.394   6.300   8.014
  481TIP3   OH223001   5.817   5.278   7.273
  481TIP3    H123002   5.837   5.362   7.230
  481TIP3    H223003   5.760   5.302   7.346
  482TIP3   OH223004   3.517   0.731   6.959
  482TIP3    H123005   3.492   0.781   6.881
  482TIP3    H223006   3.613   0.728   6.956
  483TIP3   OH223007   5.930   1.418   6.735
  483TIP3    H123008   5.890   1.338   6.702
  483TIP3    H223009   5.866   1.453   6.797
  484TIP3   OH223010   1.313   3.378   7.818
  484TIP3    H123011   1.381   3.373   7.886
  484TIP3    H223012   1.293   3.287   7.797
  485TIP3   OH223013   5.708   3.701   0.639
  485TIP3    H123014   5.723   3.792   0.615
  485TIP3    H223015   5.793   3.659   0.630
  486TIP3   OH223016   4.463   5.347   7.646
  486TIP3    H123017   4.380   5.316   7.610
  486TIP3    H223018   4.497   5.272   7.695
  487TIP3   OH223019   3.909   1.635   6.904
  487TIP3    H123020   3.958   1.653   6.984
  487TIP3    H223021   3.963   1.571   6.857
  488TIP3   OH223022   1.979   4.775   6.587
  488TIP3    H123023   2.074   4.781   6.574
  488TIP3    H223024   1.942   4.778   6.499
  489TIP3   OH223025   4.769   4.782   0.747
  489TIP3    H123026   4.746   4.858   0.694
  489TIP3    H223027   4.853   4.752   0.711
  490TIP3   OH223028   2.883   6.229   1.791
  490TIP3    H123029   2.959   6.186   1.829
  490TIP3    H223030   2.890   6.320   1.819
  491TIP3   OH223031   2.596   0.088   1.779
  491TIP3    H123032   2.559   0.008   1.741
  491TIP3    H223033   2.622   0.063   1.868
  492TIP3   OH223034   3.433   4.477   7.952
  492TIP3    H123035   3.352   4.432   7.930
  492TIP3    H223036   3.476   4.492   7.868
  493TIP3   OH223037   4.063   2.713   6.693
  493TIP3    H123038   4.123   2.696   6.620
  493TIP3    H223039   4.063   2.808   6.701
  494TIP3   OH223040   0.725   3.251   1.347
  494TIP3    H123041   0.630   3.264   1.338
  494TIP3    H223042   0.764   3.333   1.318
  495TIP3   OH223043   6.284   0.082   7.355
  495TIP3    H123044   6.197   0.043   7.348
  495TIP3    H223045   6.341   0.024   7.305
  496TIP3   OH223046   4.034   0.430   2.099
  496TIP3    H123047   3.961   0.438   2.161
  496TIP3    H223048   4.100   0.379   2.146
  497TIP3   OH223049   5.735   4.720   8.243
  497TIP3    H123050   5.651   4.761   8.221
  497TIP3    H223051   5.780   4.785   8.296
  498TIP3   OH223052   0.473   1.883   1.608
  498TIP3    H123053   0.538   1.926   1.663
  498TIP3    H223054   0.481   1.926   1.523
  499TIP3   OH223055   4.710   0.539   0.872
  499TIP3    H123056   4.625   0.538   0.828
  499TIP3    H223057   4.764   0.479   0.820
  500TIP3   OH223058   1.288   2.925   8.356
  500TIP3    H123059   1.249   2.963   8.277
  500TIP3    H223060   1.381   2.949   8.351
  501TIP3   OH223061   6.050   3.430   6.930
  501TIP3    H123062   6.043   3.363   6.998
  501TIP3    H223063   6.093   3.384   6.857
  502TIP3   OH223064   3.774   3.083   7.293
  502TIP3    H123065   3.818   3.127   7.366
  502TIP3    H223066   3.843   3.037   7.247
  503TIP3   OH223067   5.793   2.351   7.156
  503TIP3    H123068   5.811   2.323   7.066
  503TIP3    H223069   5.738   2.281   7.192
  504TIP3   OH223070   6.004   2.803   1.230
  504TIP3    H123071   5.943   2.871   1.259
  504TIP3    H223072   6.033   2.760   1.311
  505TIP3   OH223073   0.139   6.018   8.513
  505TIP3    H123074   0.047   6.027   8.491
  505TIP3    H223075   0.160   5.927   8.491
  506TIP3   OH223076   5.614   3.459   7.720
  506TIP3    H123077   5.526   3.441   7.754
  506TIP3    H223078   5.622   3.555   7.725
  507TIP3   OH223079   4.102   4.660   8.452
  507TIP3    H123080   4.067   4.714   8.523
  507TIP3    H223081   4.037   4.666   8.382
  508TIP3   OH223082   0.802   1.728   7.589
  508TIP3    H123083   0.873   1.779   7.629
  508TIP3    H223084   0.750   1.697   7.663
  509TIP3   OH223085   5.480   6.420   0.485
  509TIP3    H123086   5.548   6.385   0.427
  509TIP3    H223087   5.504   6.389   0.572
  510TIP3   OH223088   0.162   2.944   1.459
  510TIP3    H123089   0.165   3.019   1.518
  510TIP3    H223090   0.118   2.977   1.381
  511TIP3   OH223091   5.397   2.422   1.018
  511TIP3    H123092   5.444   2.483   0.961
  511TIP3    H223093   5.459   2.351   1.033
  512TIP3   OH223094   3.399   4.698   7.462
  512TIP3    H123095   3.321   4.683   7.408
  512TIP3    H223096   3.462   4.738   7.401
  513TIP3   OH223097   0.938   3.587   7.139
  513TIP3    H123098   0.902   3.504   7.110
  513TIP3    H223099   0.923   3.647   7.066
  514TIP3   OH223100   6.100   5.122   0.750
  514TIP3    H123101   6.066   5.179   0.819
  514TIP3    H223102   6.169   5.072   0.793
  515TIP3   OH223103   2.499   1.982   2.144
  515TIP3    H123104   2.541   2.050   2.090
  515TIP3    H223105   2.437   2.030   2.198
  516TIP3   OH223106   4.716   4.727   0.190
  516TIP3    H123107   4.773   4.651   0.198
  516TIP3    H223108   4.743   4.770   0.109
  517TIP3   OH223109   3.561   2.858   1.935
  517TIP3    H123110   3.633   2.912   1.903
  517TIP3    H223111   3.526   2.906   2.010
  518TIP3   OH223112   1.957   1.994   7.410
  518TIP3    H123113   2.017   1.956   7.345
  518TIP3    H223114   1.962   2.088   7.395
  519TIP3   OH223115   2.882   2.010   6.548
  519TIP3    H123116   2.950   2.019   6.481
  519TIP3    H223117   2.882   1.917   6.570
  520TIP3   OH223118   0.936   3.500   8.104
  520TIP3    H123119   1.018   3.455   8.087
  520TIP3    H223120   0.937   3.575   8.044
  521TIP3   OH223121   3.163   1.636   1.805
  521TIP3    H123122   3.191   1.702   1.742
  521TIP3    H223123   3.123   1.685   1.877
  522TIP3   OH223124   4.427   4.129   7.607
  522TIP3    H123125   4.430   4.034   7.619
  522TIP3    H223126   4.450   4.142   7.515
  523TIP3   OH223127   3.440   0.541   7.141
  523TIP3    H123128   3.455   0.621   7.091
  523TIP3    H223129   3.403   0.480   7.078
  524TIP3   OH223130   4.578   5.793   7.609
  524TIP3    H123131   4.654   5.824   7.659
  524TIP3    H223132   4.547   5.870   7.561
  525TIP3   OH223133   0.005   1.116   1.970
  525TIP3    H123134   6.856   1.024   1.973
  525TIP3    H223135   0.019   1.140   2.061
  526TIP3   OH223136   6.375   1.292   8.388
  526TIP3    H123137   6.312   1.221   8.399
  526TIP3    H223138   6.390   1.296   8.293
  527TIP3   OH223139   0.455   0.304   0.967
  527TIP3    H123140   0.502   0.365   1.023
  527TIP3    H223141   0.367   0.341   0.959
  528TIP3   OH223142   3.073   5.507   8.441
  528TIP3    H123143   3.143   5.566   8.412
  528TIP3    H223144   3.118   5.425   8.463
  529TIP3   OH223145   1.831   1.912   1.587
  529TIP3    H123146   1.876   1.882   1.667
  529TIP3    H223147   1.802   1.832   1.544
  530TIP3   OH223148   4.748   1.002   2.295
  530TIP3    H123149   4.834   0.978   2.332
  530TIP3    H223150   4.687   0.943   2.340
  531TIP3   OH223151   6.493   2.652   6.717
  531TIP3    H123152   6.483   2.676   6.625
  531TIP3    H223153   6.502   2.736   6.763
  532TIP3   OH223154   6.216   3.647   0.982
  532TIP3    H123155   6.232   3.708   1.054
  532TIP3    H223156   6.147   3.689   0.930
  533TIP3   OH223157   1.115   3.805   2.177
  533TIP3    H123158   1.066   3.808   2.259
  533TIP3    H223159   1.204   3.783   2.203
  534TIP3   OH223160   0.155   2.664   7.199
  534TIP3    H123161   0.060   2.659   7.204
  534TIP3    H223162   0.172   2.731   7.133
  535TIP3   OH223163   1.495   2.242   1.370
  535TIP3    H123164   1.582   2.215   1.342
  535TIP3    H223165   1.462   2.295   1.298
  536TIP3   OH223166   0.579   5.548   7.028
  536TIP3    H123167   0.518   5.480   7.057
  536TIP3    H223168   0.594   5.529   6.936
  537TIP3   OH223169   5.238   3.576   6.802
  537TIP3    H123170   5.197   3.629   6.872
  537TIP3    H223171   5.195   3.491   6.808
  538TIP3   OH223172   5.471   1.820   0.609
  538TIP3    H123173   5.554   1.792   0.570
  538TIP3    H223174   5.494   1.900   0.657
  539TIP3   OH223175   0.322   5.611   8.130
  539TIP3    H123176   0.262   5.597   8.203
  539TIP3    H223177   0.292   5.551   8.062
  540TIP3   OH223178   5.824   5.245   1.260
  540TIP3    H123179   5.896   5.193   1.296
  540TIP3    H223180   5.789   5.293   1.335
  541TIP3   OH223181   4.963   1.417   0.821
  541TIP3    H123182   4.970   1.353   0.891
  541TIP3    H223183   5.003   1.496   0.856
  542TIP3   OH223184   1.283   3.209   0.614
  542TIP3    H123185   1.244   3.169   0.536
  542TIP3    H223186   1.210   3.219   0.675
  543TIP3   OH223187   6.135   6.819   1.307
  543TIP3    H123188   6.083   6.762   1.363
  543TIP3    H223189   6.074   0.006   1.275
  544TIP3   OH223190   0.049   5.932   0.289
  544TIP3    H123191   0.052   6.010   0.233
  544TIP3    H223192   6.842   5.893   0.273
  545TIP3   OH223193   4.426   6.292   0.521
  545TIP3    H123194   4.488   6.259   0.455
  545TIP3    H223195   4.473   6.284   0.604
  546TIP3   OH223196   5.612   1.221   2.568
  546TIP3    H123197   5.661   1.256   2.642
  546TIP3    H223198   5.539   1.281   2.557
  547TIP3   OH223199   1.899   4.174   0.006
  547TIP3    H123200   1.934   4.225   0.080
  547TIP3    H223201   1.926   4.084   0.024
  548TIP3   OH223202   5.517   1.485   7.923
  548TIP3    H123203   5.519   1.475   7.828
  548TIP3    H223204   5.599   1.445   7.953
  549TIP3   OH223205   1.703   0.140   8.282
  549TIP3    H123206   1.719   0.232   8.261
  549TIP3    H223207   1.658   0.143   8.367
  550TIP3   OH223208   2.061   3.745   7.265
  550TIP3    H123209   1.974   3.729   7.302
  550TIP3    H223210   2.051   3.726   7.171
  551TIP3   OH223211   2.024   1.525   8.140
  551TIP3    H123212   2.103   1.578   8.153
  551TIP3    H223213   2.032   1.492   8.051
  552TIP3   OH223214   4.083   3.110   1.132
  552TIP3    H123215   4.129   3.142   1.209
  552TIP3    H223216   3.990   3.120   1.154
  553TIP3   OH223217   0.023   0.450   1.464
  553TIP3    H123218   0.021   0.496   1.547
  553TIP3    H223219   0.097   0.391   1.470
  554TIP3   OH223220   0.109   3.591   6.575
  554TIP3    H123221   0.171   3.570   6.505
  554TIP3    H223222   0.057   3.663   6.540
  555TIP3   OH223223   1.549   6.382   2.164
  555TIP3    H123224   1.557   6.456   2.224
  555TIP3    H223225   1.630   6.333   2.175
  556TIP3   OH223226   3.048   0.091   0.357
  556TIP3    H123227   2.998   0.165   0.392
  556TIP3    H223228   3.013   0.015   0.405
  557TIP3   OH223229   0.070   6.126   0.553
  557TIP3    H123230   0.069   6.072   0.474
  557TIP3    H223231   0.019   6.203   0.530
  558TIP3   OH223232   3.805   5.531   1.271
  558TIP3    H123233   3.799   5.468   1.200
  558TIP3    H223234   3.771   5.485   1.347
  559TIP3   OH223235   1.771   6.333   1.003
  559TIP3    H123236   1.750   6.377   0.920
  559TIP3    H223237   1.690   6.337   1.053
  560TIP3   OH223238   6.184   5.459   6.229
  560TIP3    H123239   6.137   5.533   6.267
  560TIP3    H223240   6.275   5.473   6.255
  561TIP3   OH223241   1.303   4.308   8.228
  561TIP3    H123242   1.322   4.402   8.236
  561TIP3    H223243   1.218   4.304   8.185
  562TIP3   OH223244   2.150   3.502   1.875
  562TIP3    H123245   2.163   3.549   1.793
  562TIP3    H223246   2.100   3.562   1.930
  563TIP3   OH223247   0.416   0.956   1.423
  563TIP3    H123248   0.459   1.041   1.408
  563TIP3    H223249   0.322   0.975   1.414
  564TIP3   OH223250   2.018   0.121   8.159
  564TIP3    H123251   2.094   0.100   8.214
  564TIP3    H223252   1.943   0.104   8.216
  565TIP3   OH223253   4.885   6.870   7.860
  565TIP3    H123254   4.905   0.008   7.768
  565TIP3    H223255   4.886   6.774   7.867
  566TIP3   OH223256   0.632   2.279   8.283
  566TIP3    H123257   0.719   2.311   8.259
  566TIP3    H223258   0.575   2.356   8.276
  567TIP3   OH223259   6.040   0.363   0.335
  567TIP3    H123260   5.977   0.400   0.397
  567TIP3    H223261   6.063   0.435   0.277
  568TIP3   OH223262   5.521   5.255   0.566
  568TIP3    H123263   5.593   5.191   0.562
  568TIP3    H223264   5.563   5.338   0.586
  569TIP3   OH223265   1.586   1.907   8.591
  569TIP3    H123266   1.659   1.967   8.605
  569TIP3    H223267   1.628   1.824   8.567
  570TIP3   OH223268   0.300   1.205   0.740
  570TIP3    H123269   0.308   1.215   0.645
  570TIP3    H223270   0.358   1.132   0.761
  571TIP3   OH223271   0.277   1.443   8.090
  571TIP3    H123272   0.347   1.437   8.025
  571TIP3    H223273   0.198   1.457   8.039
  572TIP3   OH223274   2.401   2.113   6.171
  572TIP3    H123275   2.494   2.135   6.169
  572TIP3    H223276   2.395   2.030   6.123
  573TIP3   OH223277   2.134   0.387   2.211
  573TIP3    H123278   2.090   0.450   2.268
  573TIP3    H223279   2.160   0.315   2.269
  574TIP3   OH223280   2.542   2.227   8.382
  574TIP3    H123281   2.597   2.247   8.306
  574TIP3    H223282   2.525   2.312   8.422
  575TIP3   OH223283   0.070   1.853   8.120
  575TIP3    H123284   0.106   1.909   8.052
  575TIP3    H223285   0.135   1.854   8.191
  576TIP3   OH223286   4.898   2.123   0.227
  576TIP3    H123287   4.968   2.178   0.265
  576TIP3    H223288   4.829   2.185   0.205
  577TIP3   OH223289   4.347   0.802   1.584
  577TIP3    H123290   4.311   0.742   1.520
  577TIP3    H223291   4.281   0.870   1.594
  578TIP3   OH223292   3.252   6.371   1.959
  578TIP3    H123293   3.165   6.336   1.975
  578TIP3    H223294   3.310   6.295   1.961
  579TIP3   OH223295   1.836   1.430   0.621
  579TIP3    H123296   1.846   1.403   0.529
  579TIP3    H223297   1.894   1.373   0.670
  580TIP3   OH223298   6.595   0.752   1.215
  580TIP3    H123299   6.612   0.762   1.309
  580TIP3    H223300   6.604   0.658   1.199
  581TIP3   OH223301   6.607   4.139   7.361
  581TIP3    H123302   6.518   4.172   7.354
  581TIP3    H223303   6.663   4.216   7.351
  582TIP3   OH223304   0.473   2.067   0.392
  582TIP3    H123305   0.423   2.097   0.316
  582TIP3    H223306   0.412   2.009   0.439
  583TIP3   OH223307   4.376   1.125   0.530
  583TIP3    H123308   4.470   1.127   0.513
  583TIP3    H223309   4.347   1.043   0.491
  584TIP3   OH223310   5.352   6.503   6.738
  584TIP3    H123311   5.411   6.431   6.718
  584TIP3    H223312   5.399   6.581   6.708
  585TIP3   OH223313   3.111   2.339   7.775
  585TIP3    H123314   3.128   2.253   7.736
  585TIP3    H223315   3.093   2.321   7.867
  586TIP3   OH223316   6.471   4.767   8.238
  586TIP3    H123317   6.453   4.789   8.329
  586TIP3    H223318   6.384   4.764   8.197
  587TIP3   OH223319   4.051   6.739   7.359
  587TIP3    H123320   4.021   6.687   7.285
  587TIP3    H223321   4.142   6.760   7.338
  588TIP3   OH223322   1.580   0.144   7.816
  588TIP3    H123323   1.608   0.183   7.733
  588TIP3    H223324   1.636   0.184   7.882
  589TIP3   OH223325   2.238   5.979   6.877
  589TIP3    H123326   2.223   6.018   6.791
  589TIP3    H223327   2.156   5.934   6.898
  590TIP3   OH223328   6.665   6.830   6.255
  590TIP3    H123329   6.749   6.862   6.221
  590TIP3    H223330   6.668   6.736   6.243
  591TIP3   OH223331   2.488   4.966   0.209
  591TIP3    H123332   2.441   5.050   0.208
  591TIP3    H223333   2.438   4.910   0.149
  592TIP3   OH223334   0.498   3.726   1.509
  592TIP3    H123335   0.430   3.790   1.528
  592TIP3    H223336   0.465   3.678   1.433
  593TIP3   OH223337   1.509   5.194   8.397
  593TIP3    H123338   1.461   5.260   8.446
  593TIP3    H223339   1.442   5.134   8.365
  594TIP3   OH223340   1.961   4.088   7.552
  594TIP3    H123341   1.986   4.151   7.485
  594TIP3    H223342   2.024   4.016   7.542
  595TIP3   OH223343   2.034   3.031   0.028
  595TIP3    H123344   1.949   3.066   0.002
  595TIP3    H223345   2.059   2.974   8.580
  596TIP3   OH223346   6.567   3.425   8.409
  596TIP3    H123347   6.526   3.339   8.418
  596TIP3    H223348   6.616   3.421   8.326
  597TIP3   OH223349   2.250   0.942   6.706
  597TIP3    H123350   2.317   1.010   6.704
  597TIP3    H223351   2.298   0.860   6.699
  598TIP3   OH223352   6.417   4.025   1.199
  598TIP3    H123353   6.505   4.025   1.235
  598TIP3    H223354   6.391   4.117   1.200
  599TIP3   OH223355   2.488   1.702   1.365
  599TIP3    H123356   2.500   1.795   1.383
  599TIP3    H223357   2.577   1.667   1.360
  600TIP3   OH223358   2.433   6.046   7.838
  600TIP3    H123359   2.365   6.007   7.782
  600TIP3    H223360   2.474   5.971   7.882
  601TIP3   OH223361   5.714   1.176   0.659
  601TIP3    H123362   5.627   1.192   0.622
  601TIP3    H223363   5.738   1.090   0.627
  602TIP3   OH223364   6.141   6.029   1.779
  602TIP3    H123365   6.135   6.116   1.820
  602TIP3    H223366   6.070   6.029   1.715
  603TIP3   OH223367   6.555   3.096   1.387
  603TIP3    H123368   6.506   3.177   1.374
  603TIP3    H223369   6.553   3.054   1.301
  604TIP3   OH223370   1.535   0.326   7.139
  604TIP3    H123371   1.591   0.335   7.062
  604TIP3    H223372   1.547   0.407   7.188
  605TIP3   OH223373   6.217   4.189   0.328
  605TIP3    H123374   6.190   4.118   0.269
  605TIP3    H223375   6.203   4.155   0.416
  606TIP3   OH223376   2.848   1.707   2.125
  606TIP3    H123377   2.912   1.637   2.138
  606TIP3    H223378   2.878   1.778   2.183
  607TIP3   OH223379   0.049   0.894   7.990
  607TIP3    H123380   6.838   0.904   8.021
  607TIP3    H223381   0.097   0.864   8.067
  608TIP3   OH223382   1.934   5.988   1.825
  608TIP3    H123383   1.894   5.950   1.747
  608TIP3    H223384   2.013   6.032   1.793
  609TIP3   OH223385   5.149   4.738   1.165
  609TIP3    H123386   5.126   4.806   1.228
  609TIP3    H223387   5.069   4.686   1.157
  610TIP3   OH223388   4.229   5.251   7.900
  610TIP3    H123389   4.166   5.287   7.962
  610TIP3    H223390   4.202   5.288   7.815
  611TIP3   OH223391   5.256   1.614   0.587
  611TIP3    H123392   5.254   1.581   0.677
  611TIP3    H223393   5.300   1.698   0.593
  612TIP3   OH223394   3.710   4.686   0.499
  612TIP3    H123395   3.706   4.782   0.503
  612TIP3    H223396   3.804   4.667   0.493
  613TIP3   OH223397   6.090   3.913   7.241
  613TIP3    H123398   6.067   3.843   7.301
  613TIP3    H223399   6.113   3.987   7.297
  614TIP3   OH223400   4.606   1.396   6.879
  614TIP3    H123401   4.588   1.435   6.794
  614TIP3    H223402   4.698   1.418   6.897
  615TIP3   OH223403   1.758   6.226   2.179
  615TIP3    H123404   1.739   6.225   2.085
  615TIP3    H223405   1.845   6.187   2.186
  616TIP3   OH223406   3.866   3.714   7.609
  616TIP3    H123407   3.894   3.764   7.533
  616TIP3    H223408   3.815   3.776   7.662
  617TIP3   OH223409   2.640   2.024   7.730
  617TIP3    H123410   2.649   1.972   7.809
  617TIP3    H223411   2.586   2.098   7.756
  618TIP3   OH223412   0.368   6.836   6.555
  618TIP3    H123413   0.314   0.008   6.616
  618TIP3    H223414   0.369   6.748   6.593
  619TIP3   OH223415   1.360   4.522   1.986
  619TIP3    H123416   1.297   4.486   1.924
  619TIP3    H223417   1.324   4.499   2.072
  620TIP3   OH223418   4.799   0.744   7.249
  620TIP3    H123419   4.832   0.745   7.159
  620TIP3    H223420   4.791   0.651   7.270
  621TIP3   OH223421   3.077   4.008   2.069
  621TIP3    H123422   3.035   3.934   2.114
  621TIP3    H223423   3.137   4.045   2.133
  622TIP3   OH223424   4.191   5.127   2.222
  622TIP3    H123425   4.248   5.078   2.163
  622TIP3    H223426   4.112   5.073   2.228
  623TIP3   OH223427   4.470   6.396   8.048
  623TIP3    H123428   4.382   6.420   8.019
  623TIP3    H223429   4.475   6.427   8.139
  624TIP3   OH223430   0.548   4.753   6.921
  624TIP3    H123431   0.579   4.830   6.874
  624TIP3    H223432   0.457   4.772   6.943
  625TIP3   OH223433   2.343   4.489   7.235
  625TIP3    H123434   2.277   4.475   7.167
  625TIP3    H223435   2.381   4.575   7.214
  626TIP3   OH223436   6.396   1.438   7.750
  626TIP3    H123437   6.334   1.482   7.808
  626TIP3    H223438   6.357   1.351   7.735
  627TIP3   OH223439   0.191   3.292   0.853
  627TIP3    H123440   0.102   3.257   0.849
  627TIP3    H223441   0.181   3.375   0.901
  628TIP3   OH223442   5.120   2.601   0.815
  628TIP3    H123443   5.091   2.647   0.736
  628TIP3    H223444   5.039   2.571   0.856
  629TIP3   OH223445   4.172   0.954   0.802
  629TIP3    H123446   4.159   0.910   0.718
  629TIP3    H223447   4.158   1.047   0.783
  630TIP3   OH223448   4.058   4.214   8.139
  630TIP3    H123449   4.143   4.252   8.157
  630TIP3    H223450   4.074   4.152   8.068
  631TIP3   OH223451   2.157   2.157   0.116
  631TIP3    H123452   2.168   2.126   0.026
  631TIP3    H223453   2.080   2.110   0.148
  632TIP3   OH223454   2.848   0.084   0.729
  632TIP3    H123455   2.852   0.006   0.673
  632TIP3    H223456   2.756   0.089   0.755
  633TIP3   OH223457   6.188   0.904   1.865
  633TIP3    H123458   6.207   0.818   1.828
  633TIP3    H223459   6.247   0.911   1.940
  634TIP3   OH223460   1.464   6.076   2.138
  634TIP3    H123461   1.488   5.995   2.093
  634TIP3    H223462   1.514   6.074   2.220
  635TIP3   OH223463   0.623   3.610   7.666
  635TIP3    H123464   0.535   3.634   7.638
  635TIP3    H223465   0.634   3.521   7.635
  636TIP3   OH223466   3.215   5.433   1.595
  636TIP3    H123467   3.289   5.416   1.653
  636TIP3    H223468   3.224   5.368   1.525
  637TIP3   OH223469   2.551   3.066   7.032
  637TIP3    H123470   2.535   2.986   7.081
  637TIP3    H223471   2.637   3.095   7.060
  638TIP3   OH223472   0.232   0.150   7.207
  638TIP3    H123473   0.274   0.064   7.213
  638TIP3    H223474   0.286   0.199   7.146
  639TIP3   OH223475   0.759   3.212   0.645
  639TIP3    H123476   0.845   3.236   0.610
  639TIP3    H223477   0.712   3.294   0.651
  640TIP3   OH223478   0.445   0.326   6.593
  640TIP3    H123479   0.531   0.346   6.629
  640TIP3    H223480   0.408   0.261   6.653
  641TIP3   OH223481   4.817   3.185   1.570
  641TIP3    H123482   4.777   3.098   1.577
  641TIP3    H223483   4.911   3.169   1.572
  642TIP3   OH223484   2.559   6.023   2.063
  642TIP3    H123485   2.560   5.932   2.093
  642TIP3    H223486   2.466   6.047   2.062
  643TIP3   OH223487   6.617   2.065   7.653
  643TIP3    H123488   6.642   2.157   7.650
  643TIP3    H223489   6.696   2.019   7.682
  644TIP3   OH223490   3.593   5.475   7.861
  644TIP3    H123491   3.572   5.400   7.917
  644TIP3    H223492   3.565   5.448   7.774
  645TIP3   OH223493   1.147   4.085   2.400
  645TIP3    H123494   1.163   4.090   2.306
  645TIP3    H223495   1.114   3.997   2.414
  646TIP3   OH223496   4.254   1.592   6.894
  646TIP3    H123497   4.210   1.575   6.810
  646TIP3    H223498   4.190   1.641   6.945
  647TIP3   OH223499   2.509   6.238   1.037
  647TIP3    H123500   2.544   6.326   1.021
  647TIP3    H223501   2.416   6.244   1.016
  648TIP3   OH223502   0.556   4.981   1.268
  648TIP3    H123503   0.641   4.937   1.266
  648TIP3    H223504   0.534   4.988   1.361
  649TIP3   OH223505   0.049   2.579   7.580
  649TIP3    H123506   0.086   2.522   7.513
  649TIP3    H223507   6.879   2.644   7.531
  650TIP3   OH223508   5.499   0.061   1.160
  650TIP3    H123509   5.444   0.138   1.143
  650TIP3    H223510   5.436   6.868   1.164
  651TIP3   OH223511   1.372   1.341   1.433
  651TIP3    H123512   1.352   1.364   1.342
  651TIP3    H223513   1.346   1.418   1.484
  652TIP3   OH223514   1.758   5.042   0.534
  652TIP3    H123515   1.830   5.008   0.481
  652TIP3    H223516   1.763   5.137   0.525
  653TIP3   OH223517   6.451   2.404   8.059
  653TIP3    H123518   6.453   2.370   8.149
  653TIP3    H223519   6.358   2.420   8.042
  654TIP3   OH223520   0.617   2.086   8.075
  654TIP3    H123521   0.637   2.146   8.003
  654TIP3    H223522   0.621   2.141   8.154
  655TIP3   OH223523   3.664   6.574   0.855
  655TIP3    H123524   3.609   6.499   0.834
  655TIP3    H223525   3.741   6.536   0.896
  656TIP3   OH223526   0.255   5.979   7.122
  656TIP3    H123527   0.193   6.044   7.156
  656TIP3    H223528   0.246   5.985   7.027
  657TIP3   OH223529   2.874   3.372   7.740
  657TIP3    H123530   2.945   3.316   7.708
  657TIP3    H223531   2.848   3.423   7.663
  658TIP3   OH223532   0.612   4.650   8.180
  658TIP3    H123533   0.604   4.740   8.150
  658TIP3    H223534   0.522   4.617   8.182
  659TIP3   OH223535   3.857   4.012   7.104
  659TIP3    H123536   3.920   4.045   7.041
  659TIP3    H223537   3.861   3.917   7.094
  660TIP3   OH223538   2.215   3.973   1.260
  660TIP3    H123539   2.266   3.988   1.181
  660TIP3    H223540   2.256   4.028   1.327
  661TIP3   OH223541   3.438   4.130   0.970
  661TIP3    H123542   3.528   4.151   0.945
  661TIP3    H223543   3.414   4.198   1.034
  662TIP3   OH223544   3.305   3.913   0.360
  662TIP3    H123545   3.279   3.836   0.411
  662TIP3    H223546   3.225   3.940   0.315
  663TIP3   OH223547   4.911   2.105   7.796
  663TIP3    H123548   4.919   2.072   7.706
  663TIP3    H223549   4.940   2.032   7.851
  664TIP3   OH223550   4.197   5.330   0.054
  664TIP3    H123551   4.150   5.341   8.594
  664TIP3    H223552   4.289   5.332   0.030
  665TIP3   OH223553   4.431   6.263   1.705
  665TIP3    H123554   4.340   6.235   1.702
  665TIP3    H223555   4.428   6.358   1.718
  666TIP3   OH223556   5.305   4.987   0.472
  666TIP3    H123557   5.246   4.923   0.432
  666TIP3    H223558   5.319   4.953   0.561
  667TIP3   OH223559   0.953   0.122   6.903
  667TIP3    H123560   1.046   0.141   6.888
  667TIP3    H223561   0.908   0.199   6.868
  668TIP3   OH223562   3.319   0.036   1.544
  668TIP3    H123563   3.344   6.857   1.616
  668TIP3    H223564   3.374   0.008   1.471
  669TIP3   OH223565   2.881   0.168   8.461
  669TIP3    H123566   2.908   0.093   8.408
  669TIP3    H223567   2.810   0.208   8.412
  670TIP3   OH223568   1.294   3.709   7.262
  670TIP3    H123569   1.220   3.721   7.321
  670TIP3    H223570   1.358   3.659   7.313
  671TIP3   OH223571   0.639   5.614   0.928
  671TIP3    H123572   0.591   5.678   0.876
  671TIP3    H223573   0.580   5.538   0.933
  672TIP3   OH223574   6.844   3.264   1.777
  672TIP3    H123575   6.751   3.254   1.796
  672TIP3    H223576   6.874   3.330   1.840
  673TIP3   OH223577   4.072   6.043   0.074
  673TIP3    H123578   4.139   6.099   0.115
  673TIP3    H223579   4.085   5.957   0.113
  674TIP3   OH223580   5.359   0.590   7.688
  674TIP3    H123581   5.356   0.523   7.757
  674TIP3    H223582   5.442   0.574   7.643
  675TIP3   OH223583   2.006   0.868   8.195
  675TIP3    H123584   2.086   0.816   8.207
  675TIP3    H223585   2.004   0.927   8.271
  676TIP3   OH223586   0.632   6.164   1.664
  676TIP3    H123587   0.629   6.196   1.754
  676TIP3    H223588   0.559   6.103   1.658
  677TIP3   OH223589   4.233   4.014   8.509
  677TIP3    H123590   4.211   4.063   8.589
  677TIP3    H223591   4.323   3.986   8.522
  678TIP3   OH223592   3.379   0.373   7.713
  678TIP3    H123593   3.368   0.388   7.619
  678TIP3    H223594   3.317   0.433   7.755
  679TIP3   OH223595   1.637   1.097   1.252
  679TIP3    H123596   1.559   1.082   1.198
  679TIP3    H223597   1.707   1.054   1.204
  680TIP3   OH223598   2.845   5.084   1.794
  680TIP3    H123599   2.910   5.060   1.728
  680TIP3    H223600   2.771   5.025   1.777
  681TIP3   OH223601   5.361   3.735   0.511
  681TIP3    H123602   5.367   3.665   0.576
  681TIP3    H223603   5.326   3.810   0.560
  682TIP3   OH223604   3.535   5.167   6.936
  682TIP3    H123605   3.499   5.142   6.850
  682TIP3    H223606   3.624   5.132   6.936
  683TIP3   OH223607   5.782   3.262   7.976
  683TIP3    H123608   5.849   3.318   8.015
  683TIP3    H223609   5.801   3.174   8.008
  684TIP3   OH223610   1.566   0.434   0.918
  684TIP3    H123611   1.626   0.508   0.909
  684TIP3    H223612   1.486   0.463   0.873
  685TIP3   OH223613   2.591   4.602   0.833
  685TIP3    H123614   2.565   4.638   0.918
  685TIP3    H223615   2.559   4.666   0.769
  686TIP3   OH223616   3.410   3.960   6.299
  686TIP3    H123617   3.355   3.989   6.372
  686TIP3    H223618   3.349   3.916   6.240
  687TIP3   OH223619   3.396   6.865   8.154
  687TIP3    H123620   3.386   0.064   8.207
  687TIP3    H223621   3.440   6.803   8.212
  688TIP3   OH223622   0.437   3.099   0.043
  688TIP3    H123623   0.455   3.189   0.072
  688TIP3    H223624   0.429   3.106   8.572
  689TIP3   OH223625   2.180   5.985   7.409
  689TIP3    H123626   2.159   5.895   7.433
  689TIP3    H223627   2.228   5.978   7.327
  690TIP3   OH223628   3.641   3.759   6.922
  690TIP3    H123629   3.569   3.759   6.859
  690TIP3    H223630   3.712   3.803   6.877
  691TIP3   OH223631   4.191   4.482   1.101
  691TIP3    H123632   4.215   4.508   1.012
  691TIP3    H223633   4.274   4.470   1.146
  692TIP3   OH223634   6.774   5.768   0.532
  692TIP3    H123635   6.797   5.676   0.517
  692TIP3    H223636   6.757   5.803   0.445
  693TIP3   OH223637   4.497   6.651   0.638
  693TIP3    H123638   4.514   6.588   0.567
  693TIP3    H223639   4.439   6.716   0.599
  694TIP3   OH223640   3.797   5.320   1.048
  694TIP3    H123641   3.812   5.235   1.090
  694TIP3    H223642   3.725   5.305   0.988
  695TIP3   OH223643   3.232   0.339   0.438
  695TIP3    H123644   3.255   0.267   0.380
  695TIP3    H223645   3.139   0.326   0.458
  696TIP3   OH223646   5.024   5.206   0.740
  696TIP3    H123647   4.960   5.278   0.738
  696TIP3    H223648   5.103   5.244   0.700
  697TIP3   OH223649   1.044   1.055   0.087
  697TIP3    H123650   1.110   0.992   0.117
  697TIP3    H223651   1.094   1.121   0.039
  698TIP3   OH223652   1.406   6.317   7.645
  698TIP3    H123653   1.312   6.307   7.635
  698TIP3    H223654   1.435   6.358   7.564
  699TIP3   OH223655   5.121   3.694   0.976
  699TIP3    H123656   5.093   3.618   1.026
  699TIP3    H223657   5.197   3.728   1.023
  700TIP3   OH223658   2.532   2.123   0.082
  700TIP3    H123659   2.466   2.088   0.021
  700TIP3    H223660   2.481   2.173   0.146
  701TIP3   OH223661   3.373   2.132   7.151
  701TIP3    H123662   3.418   2.194   7.094
  701TIP3    H223663   3.371   2.050   7.100
  702TIP3   OH223664   5.895   1.278   0.854
  702TIP3    H123665   5.851   1.243   0.777
  702TIP3    H223666   5.905   1.202   0.912
  703TIP3   OH223667   3.432   1.859   0.979
  703TIP3    H123668   3.405   1.893   1.064
  703TIP3    H223669   3.409   1.927   0.916
  704TIP3   OH223670   3.955   3.210   8.254
  704TIP3    H123671   4.032   3.237   8.304
  704TIP3    H223672   3.963   3.257   8.170
  705TIP3   OH223673   6.378   6.717   8.476
  705TIP3    H123674   6.285   6.699   8.484
  705TIP3    H223675   6.395   6.784   8.543
  706TIP3   OH223676   6.836   0.925   7.070
  706TIP3    H123677   6.791   0.863   7.013
  706TIP3    H223678   6.841   1.006   7.017
  707TIP3   OH223679   1.675   1.923   7.460
  707TIP3    H123680   1.618   1.926   7.384
  707TIP3    H223681   1.758   1.961   7.430
  708TIP3   OH223682   3.345   6.169   0.669
  708TIP3    H123683   3.425   6.220   0.685
  708TIP3    H223684   3.359   6.088   0.718
  709TIP3   OH223685   2.348   1.050   0.790
  709TIP3    H123686   2.400   1.034   0.869
  709TIP3    H223687   2.412   1.049   0.719
  710TIP3   OH223688   4.957   4.495   0.915
  710TIP3    H123689   4.948   4.545   0.996
  710TIP3    H223690   4.991   4.410   0.942
  711TIP3   OH223691   1.933   5.093   1.069
  711TIP3    H123692   1.979   5.174   1.049
  711TIP3    H223693   1.843   5.109   1.038
  712TIP3   OH223694   4.059   5.099   6.213
  712TIP3    H123695   3.971   5.090   6.176
  712TIP3    H223696   4.067   5.025   6.274
  713TIP3   OH223697   4.453   4.114   7.341
  713TIP3    H123698   4.372   4.145   7.301
  713TIP3    H223699   4.439   4.020   7.352
  714TIP3   OH223700   0.619   6.719   2.145
  714TIP3    H123701   0.713   6.702   2.146
  714TIP3    H223702   0.583   6.652   2.087
  715TIP3   OH223703   1.312   2.181   7.576
  715TIP3    H123704   1.302   2.170   7.482
  715TIP3    H223705   1.404   2.162   7.593
  716TIP3   OH223706   1.127   4.912   8.040
  716TIP3    H123707   1.172   4.905   7.956
  716TIP3    H223708   1.048   4.859   8.030
  717TIP3   OH223709   6.264   6.066   0.298
  717TIP3    H123710   6.212   6.000   0.251
  717TIP3    H223711   6.202   6.105   0.359
  718TIP3   OH223712   1.083   2.031   0.628
  718TIP3    H123713   1.166   2.065   0.594
  718TIP3    H223714   1.062   2.088   0.702
  719TIP3   OH223715   1.833   0.468   6.707
  719TIP3    H123716   1.825   0.489   6.800
  719TIP3    H223717   1.923   0.439   6.696
  720TIP3   OH223718   1.861   0.755   7.134
  720TIP3    H123719   1.765   0.755   7.132
  720TIP3    H223720   1.886   0.818   7.067
  721TIP3   OH223721   3.038   0.822   2.021
  721TIP3    H123722   3.016   0.755   2.086
  721TIP3    H223723   3.007   0.904   2.060
  722TIP3   OH223724   1.482   4.539   1.498
  722TIP3    H123725   1.493   4.488   1.578
  722TIP3    H223726   1.389   4.562   1.497
  723TIP3   OH223727   3.422   5.581   1.300
  723TIP3    H123728   3.449   5.511   1.241
  723TIP3    H223729   3.443   5.662   1.254
  724TIP3   OH223730   3.972   2.415   8.018
  724TIP3    H123731   3.897   2.448   7.968
  724TIP3    H223732   3.957   2.447   8.107
  725TIP3   OH223733   0.873   3.788   1.000
  725TIP3    H123734   0.780   3.768   1.008
  725TIP3    H223735   0.899   3.820   1.086
  726TIP3   OH223736   6.734   6.243   0.445
  726TIP3    H123737   6.651   6.291   0.445
  726TIP3    H223738   6.742   6.208   0.357
  727TIP3   OH223739   6.472   1.913   7.489
  727TIP3    H123740   6.538   1.872   7.433
  727TIP3    H223741   6.520   1.939   7.568
  728TIP3   OH223742   4.068   4.785   7.581
  728TIP3    H123743   4.004   4.749   7.519
  728TIP3    H223744   4.040   4.751   7.666
  729TIP3   OH223745   5.495   2.581   6.753
  729TIP3    H123746   5.559   2.642   6.791
  729TIP3    H223747   5.541   2.497   6.751
  730TIP3   OH223748   4.323   6.008   1.528
  730TIP3    H123749   4.370   6.074   1.475
  730TIP3    H223750   4.391   5.970   1.583
  731TIP3   OH223751   3.879   6.641   1.131
  731TIP3    H123752   3.808   6.706   1.124
  731TIP3    H223753   3.841   6.570   1.182
  732TIP3   OH223754   1.469   1.826   7.273
  732TIP3    H123755   1.525   1.748   7.271
  732TIP3    H223756   1.420   1.823   7.191
  733TIP3   OH223757   4.604   6.250   0.754
  733TIP3    H123758   4.694   6.254   0.786
  733TIP3    H223759   4.577   6.160   0.767
  734TIP3   OH223760   0.623   0.479   7.690
  734TIP3    H123761   0.601   0.410   7.753
  734TIP3    H223762   0.649   0.553   7.744
  735TIP3   OH223763   0.135   1.748   0.036
  735TIP3    H123764   0.179   1.820   8.614
  735TIP3    H223765   0.066   1.720   8.599
  736TIP3   OH223766   4.989   4.975   8.234
  736TIP3    H123767   5.051   4.947   8.166
  736TIP3    H223768   5.026   4.942   8.316
  737TIP3   OH223769   1.272   0.272   7.623
  737TIP3    H123770   1.239   0.245   7.537
  737TIP3    H223771   1.353   0.319   7.602
  738TIP3   OH223772   1.083   2.464   0.237
  738TIP3    H123773   1.149   2.462   0.168
  738TIP3    H223774   1.025   2.390   0.217
  739TIP3   OH223775   4.181   6.758   6.083
  739TIP3    H123776   4.147   6.675   6.049
  739TIP3    H223777   4.238   6.791   6.013
  740TIP3   OH223778   5.671   5.912   8.059
  740TIP3    H123779   5.707   5.844   8.002
  740TIP3    H223780   5.733   5.917   8.132
  741TIP3   OH223781   6.622   0.623   0.603
  741TIP3    H123782   6.667   0.687   0.548
  741TIP3    H223783   6.650   0.538   0.569
  742TIP3   OH223784   1.288   1.937   8.280
  742TIP3    H123785   1.309   1.855   8.236
  742TIP3    H223786   1.211   1.971   8.233
  743TIP3   OH223787   1.084   5.835   1.220
  743TIP3    H123788   1.042   5.804   1.300
  743TIP3    H223789   1.177   5.814   1.232
  744TIP3   OH223790   4.408   4.936   0.220
  744TIP3    H123791   4.473   4.877   0.257
  744TIP3    H223792   4.432   4.945   0.128
  745TIP3   OH223793   5.893   5.609   1.560
  745TIP3    H123794   5.970   5.591   1.614
  745TIP3    H223795   5.929   5.643   1.478
  746TIP3   OH223796   4.340   6.350   7.217
  746TIP3    H123797   4.409   6.347   7.282
  746TIP3    H223798   4.378   6.310   7.139
  747TIP3   OH223799   1.483   3.149   8.321
  747TIP3    H123800   1.401   3.180   8.361
  747TIP3    H223801   1.459   3.126   8.232
  748TIP3   OH223802   0.206   0.180   1.265
  748TIP3    H123803   0.225   0.240   1.337
  748TIP3    H223804   0.288   0.174   1.216
  749TIP3   OH223805   1.676   3.526   0.609
  749TIP3    H123806   1.760   3.486   0.631
  749TIP3    H223807   1.688   3.562   0.521
  750TIP3   OH223808   3.341   0.409   1.076
  750TIP3    H123809   3.317   0.329   1.028
  750TIP3    H223810   3.261   0.433   1.123
  751TIP3   OH223811   6.476   2.161   2.416
  751TIP3    H123812   6.404   2.163   2.353
  751TIP3    H223813   6.513   2.073   2.409
  752TIP3   OH223814   6.647   1.570   1.550
  752TIP3    H123815   6.619   1.567   1.642
  752TIP3    H223816   6.742   1.574   1.554
  753TIP3   OH223817   0.704   1.750   8.591
  753TIP3    H123818   0.793   1.762   0.000
  753TIP3    H223819   0.654   1.722   0.044
  754TIP3   OH223820   1.241   2.456   0.487
  754TIP3    H123821   1.182   2.508   0.432
  754TIP3    H223822   1.185   2.387   0.524
  755TIP3   OH223823   6.054   2.118   7.221
  755TIP3    H123824   6.114   2.161   7.281
  755TIP3    H223825   6.062   2.167   7.139
  756TIP3   OH223826   4.360   5.261   7.366
  756TIP3    H123827   4.427   5.326   7.385
  756TIP3    H223828   4.280   5.313   7.352
  757TIP3   OH223829   5.404   6.537   2.259
  757TIP3    H123830   5.385   6.571   2.171
  757TIP3    H223831   5.466   6.465   2.243
  758TIP3   OH223832   2.956   6.429   0.565
  758TIP3    H123833   3.021   6.358   0.564
  758TIP3    H223834   2.945   6.452   0.473
  759TIP3   OH223835   4.480   2.436   8.470
  759TIP3    H123836   4.541   2.364   8.490
  759TIP3    H223837   4.462   2.476   8.555
  760TIP3   OH223838   3.054   6.009   6.696
  760TIP3    H123839   2.961   6.003   6.716
  760TIP3    H223840   3.098   5.989   6.779
  761TIP3   OH223841   4.713   6.143   6.926
  761TIP3    H123842   4.767   6.082   6.976
  761TIP3    H223843   4.738   6.128   6.835
  762TIP3   OH223844   6.813   2.814   0.888
  762TIP3    H123845   6.732   2.768   0.911
  762TIP3    H223846   6.828   2.875   0.960
  763TIP3   OH223847   4.498   6.560   2.689
  763TIP3    H123848   4.428   6.525   2.744
  763TIP3    H223849   4.531   6.483   2.641
  764TIP3   OH223850   0.589   0.913   7.433
  764TIP3    H123851   0.595   0.821   7.457
  764TIP3    H223852   0.520   0.916   7.367
  765TIP3   OH223853   5.255   3.328   0.169
  765TIP3    H123854   5.240   3.343   0.263
  765TIP3    H223855   5.348   3.307   0.164
  766TIP3   OH223856   5.878   4.944   1.488
  766TIP3    H123857   5.940   4.889   1.535
  766TIP3    H223858   5.860   4.895   1.407
  767TIP3   OH223859   4.257   1.580   7.931
  767TIP3    H123860   4.251   1.494   7.889
  767TIP3    H223861   4.239   1.563   8.023
  768TIP3   OH223862   2.482   0.011   0.114
  768TIP3    H123863   2.468   6.797   0.129
  768TIP3    H223864   2.407   0.037   0.060
  769TIP3   OH223865   1.729   3.536   6.177
  769TIP3    H123866   1.752   3.597   6.107
  769TIP3    H223867   1.809   3.484   6.191
  770TIP3   OH223868   2.237   5.070   1.238
  770TIP3    H123869   2.247   4.978   1.258
  770TIP3    H223870   2.181   5.072   1.160
  771TIP3   OH223871   0.863   1.694   0.377
  771TIP3    H123872   0.904   1.634   0.440
  771TIP3    H223873   0.885   1.781   0.408
  772TIP3   OH223874   4.698   4.506   0.644
  772TIP3    H123875   4.789   4.479   0.635
  772TIP3    H223876   4.669   4.523   0.554
  773TIP3   OH223877   1.768   0.618   1.481
  773TIP3    H123878   1.794   0.685   1.544
  773TIP3    H223879   1.810   0.644   1.399
  774TIP3   OH223880   2.478   3.478   6.829
  774TIP3    H123881   2.464   3.488   6.735
  774TIP3    H223882   2.393   3.498   6.868
  775TIP3   OH223883   4.785   1.296   7.149
  775TIP3    H123884   4.744   1.324   7.067
  775TIP3    H223885   4.825   1.211   7.128
  776TIP3   OH223886   4.813   1.881   1.468
  776TIP3    H123887   4.784   1.802   1.423
  776TIP3    H223888   4.908   1.881   1.459
  777TIP3   OH223889   0.796   6.562   1.904
  777TIP3    H123890   0.827   6.580   1.992
  777TIP3    H223891   0.702   6.551   1.913
  778TIP3   OH223892   1.868   5.456   7.791
  778TIP3    H123893   1.791   5.404   7.767
  778TIP3    H223894   1.909   5.479   7.707
  779TIP3   OH223895   4.118   1.872   0.658
  779TIP3    H123896   4.047   1.809   0.670
  779TIP3    H223897   4.135   1.871   0.564
  780TIP3   OH223898   5.550   3.885   2.664
  780TIP3    H123899   5.533   3.807   2.611
  780TIP3    H223900   5.592   3.851   2.743
  781TIP3   OH223901   2.493   0.432   7.811
  781TIP3    H123902   2.502   0.339   7.792
  781TIP3    H223903   2.399   0.449   7.808
  782TIP3   OH223904   0.502   6.849   8.013
  782TIP3    H123905   0.498   6.790   8.088
  782TIP3    H223906   0.572   6.813   7.958
  783TIP3   OH223907   3.959   0.703   2.614
  783TIP3    H123908   3.950   0.777   2.675
  783TIP3    H223909   3.873   0.661   2.614
  784TIP3   OH223910   3.100   1.385   0.049
  784TIP3    H123911   3.056   1.300   0.048
  784TIP3    H223912   3.100   1.412   0.140
  785TIP3   OH223913   3.027   6.863   6.531
  785TIP3    H123914   3.001   0.009   6.443
  785TIP3    H223915   2.977   6.784   6.549
  786TIP3   OH223916   0.484   3.150   1.159
  786TIP3    H123917   0.547   3.101   1.106
  786TIP3    H223918   0.446   3.213   1.099
  787TIP3   OH223919   1.178   4.658   8.512
  787TIP3    H123920   1.162   4.710   8.591
  787TIP3    H223921   1.247   4.706   8.465
  788TIP3   OH223922   6.856   5.503   1.562
  788TIP3    H123923   6.816   5.417   1.570
  788TIP3    H223924   0.063   5.486   1.525
  789TIP3   OH223925   3.846   6.599   7.518
  789TIP3    H123926   3.891   6.645   7.447
  789TIP3    H223927   3.856   6.506   7.496
  790TIP3   OH223928   4.981   1.038   1.216
  790TIP3    H123929   4.915   0.969   1.212
  790TIP3    H223930   5.047   1.012   1.151
  791TIP3   OH223931   6.182   3.874   1.835
  791TIP3    H123932   6.231   3.868   1.917
  791TIP3    H223933   6.092   3.892   1.862
  792TIP3   OH223934   0.441   1.602   7.068
  792TIP3    H123935   0.475   1.519   7.037
  792TIP3    H223936   0.382   1.632   6.999
  793TIP3   OH223937   0.858   2.653   1.406
  793TIP3    H123938   0.847   2.581   1.468
  793TIP3    H223939   0.870   2.730   1.461
  794TIP3   OH223940   4.917   5.390   2.210
  794TIP3    H123941   4.845   5.396   2.272
  794TIP3    H223942   4.952   5.301   2.222
  795TIP3   OH223943   3.567   6.654   8.128
  795TIP3    H123944   3.514   6.700   8.063
  795TIP3    H223945   3.654   6.690   8.119
  796TIP3   OH223946   3.082   2.260   7.440
  796TIP3    H123947   2.990   2.287   7.443
  796TIP3    H223948   3.097   2.235   7.349
  797TIP3   OH223949   1.018   1.403   0.290
  797TIP3    H123950   0.960   1.429   0.361
  797TIP3    H223951   0.975   1.326   0.252
  798TIP3   OH223952   6.541   6.408   1.764
  798TIP3    H123953   6.564   6.501   1.760
  798TIP3    H223954   6.477   6.403   1.835
  799TIP3   OH223955   1.740   5.322   7.366
  799TIP3    H123956   1.782   5.343   7.283
  799TIP3    H223957   1.693   5.240   7.350
  800TIP3   OH223958   1.537   4.106   1.031
  800TIP3    H123959   1.591   4.158   1.090
  800TIP3    H223960   1.463   4.077   1.084
  801TIP3   OH223961   5.946   5.503   1.889
  801TIP3    H123962   5.853   5.482   1.884
  801TIP3    H223963   5.989   5.417   1.890
  802TIP3   OH223964   6.625   2.173   6.402
  802TIP3    H123965   6.541   2.218   6.395
  802TIP3    H223966   6.691   2.241   6.389
  803TIP3   OH223967   4.853   3.906   8.057
  803TIP3    H123968   4.812   3.832   8.101
  803TIP3    H223969   4.807   3.913   7.974
  804TIP3   OH223970   3.830   3.130   0.700
  804TIP3    H123971   3.860   3.208   0.747
  804TIP3    H223972   3.738   3.146   0.682
  805TIP3   OH223973   1.877   4.128   6.828
  805TIP3    H123974   1.970   4.130   6.809
  805TIP3    H223975   1.845   4.049   6.785
  806TIP3   OH223976   1.532   4.688   7.355
  806TIP3    H123977   1.616   4.717   7.392
  806TIP3    H223978   1.555   4.614   7.298
  807TIP3   OH223979   4.126   5.693   7.251
  807TIP3    H123980   4.092   5.622   7.197
  807TIP3    H223981   4.204   5.724   7.204
  808TIP3   OH223982   6.476   0.924   0.027
  808TIP3    H123983   6.560   0.949   0.065
  808TIP3    H223984   6.411   0.965   0.084
  809TIP3   OH223985   4.570   0.833   0.124
  809TIP3    H123986   4.615   0.892   0.184
  809TIP3    H223987   4.523   0.772   0.181
  810TIP3   OH223988   4.010   5.505   0.503
  810TIP3    H123989   4.023   5.540   0.415
  810TIP3    H223990   3.952   5.430   0.491
  811TIP3   OH223991   1.849   6.590   7.153
  811TIP3    H123992   1.812   6.629   7.074
  811TIP3    H223993   1.880   6.504   7.126
  812TIP3   OH223994   2.736   2.480   6.591
  812TIP3    H123995   2.804   2.519   6.647
  812TIP3    H223996   2.769   2.393   6.571
  813TIP3   OH223997   0.888   0.925   7.468
  813TIP3    H123998   0.797   0.919   7.438
  813TIP3    H223999   0.937   0.954   7.391
  814TIP3   OH224000   5.642   0.923   1.409
  814TIP3    H124001   5.659   0.890   1.321
  814TIP3    H224002   5.715   0.890   1.462
  815TIP3   OH224003   3.059   2.810   8.181
  815TIP3    H124004   3.080   2.878   8.117
  815TIP3    H224005   3.141   2.763   8.195
  816TIP3   OH224006   0.792   4.058   8.518
  816TIP3    H124007   0.835   3.999   8.456
  816TIP3    H224008   0.765   4.133   8.465
  817TIP3   OH224009   1.047   1.549   0.570
  817TIP3    H124010   1.127   1.497   0.566
  817TIP3    H224011   1.055   1.600   0.651
  818TIP3   OH224012   5.810   0.262   0.603
  818TIP3    H124013   5.878   0.253   0.670
  818TIP3    H224014   5.822   0.350   0.567
  819TIP3   OH224015   2.359   6.495   2.306
  819TIP3    H124016   2.295   6.447   2.253
  819TIP3    H224017   2.316   6.577   2.327
  820TIP3   OH224018   4.368   4.456   7.330
  820TIP3    H124019   4.348   4.543   7.294
  820TIP3    H224020   4.437   4.471   7.394
  821TIP3   OH224021   1.048   5.210   7.523
  821TIP3    H124022   1.057   5.116   7.534
  821TIP3    H224023   1.029   5.222   7.429
  822TIP3   OH224024   2.882   5.361   8.279
  822TIP3    H124025   2.927   5.444   8.296
  822TIP3    H224026   2.897   5.345   8.186
  823TIP3   OH224027   0.520   0.214   2.048
  823TIP3    H124028   0.488   0.145   2.106
  823TIP3    H224029   0.609   0.188   2.027
  824TIP3   OH224030   5.574   1.301   7.008
  824TIP3    H124031   5.504   1.364   7.023
  824TIP3    H224032   5.530   1.224   6.971
  825TIP3   OH224033   5.285   1.969   7.404
  825TIP3    H124034   5.303   1.934   7.317
  825TIP3    H224035   5.283   2.064   7.392
  826TIP3   OH224036   4.672   6.176   7.242
  826TIP3    H124037   4.604   6.190   7.177
  826TIP3    H224038   4.750   6.155   7.191
  827TIP3   OH224039   2.992   4.393   6.860
  827TIP3    H124040   3.086   4.407   6.875
  827TIP3    H224041   2.970   4.455   6.790
  828TIP3   OH224042   4.811   0.098   6.362
  828TIP3    H124043   4.752   0.041   6.411
  828TIP3    H224044   4.753   0.161   6.319
  829TIP3   OH224045   6.022   0.795   0.229
  829TIP3    H124046   6.099   0.764   0.276
  829TIP3    H224047   5.953   0.796   0.295
  830TIP3   OH224048   3.139   5.826   7.224
  830TIP3    H124049   3.136   5.753   7.162
  830TIP3    H224050   3.193   5.794   7.296
  831TIP3   OH224051   6.212   5.208   1.174
  831TIP3    H124052   6.175   5.293   1.196
  831TIP3    H224053   6.188   5.151   1.247
  832TIP3   OH224054   6.609   1.550   1.839
  832TIP3    H124055   6.541   1.586   1.897
  832TIP3    H224056   6.686   1.604   1.856
  833TIP3   OH224057   1.525   1.032   7.517
  833TIP3    H124058   1.468   0.995   7.585
  833TIP3    H224059   1.566   1.108   7.559
  834TIP3   OH224060   4.696   5.399   1.742
  834TIP3    H124061   4.687   5.356   1.828
  834TIP3    H224062   4.764   5.349   1.698
  835TIP3   OH224063   3.314   0.713   7.411
  835TIP3    H124064   3.291   0.633   7.364
  835TIP3    H224065   3.340   0.774   7.343
  836TIP3   OH224066   0.082   6.256   8.107
  836TIP3    H124067   0.129   6.175   8.090
  836TIP3    H224068   6.873   6.229   8.131
  837TIP3   OH224069   5.540   4.141   7.014
  837TIP3    H124070   5.485   4.220   7.013
  837TIP3    H224071   5.552   4.119   6.921
  838TIP3   OH224072   3.626   1.644   8.157
  838TIP3    H124073   3.543   1.693   8.163
  838TIP3    H224074   3.609   1.578   8.089
  839TIP3   OH224075   1.470   0.551   2.074
  839TIP3    H124076   1.446   0.459   2.083
  839TIP3    H224077   1.506   0.575   2.159
  840TIP3   OH224078   0.998   6.692   0.744
  840TIP3    H124079   1.022   6.683   0.836
  840TIP3    H224080   0.908   6.723   0.745
  841TIP3   OH224081   1.956   3.879   6.501
  841TIP3    H124082   2.037   3.914   6.464
  841TIP3    H224083   1.982   3.798   6.543
  842TIP3   OH224084   1.383   0.834   1.722
  842TIP3    H124085   1.435   0.816   1.800
  842TIP3    H224086   1.378   0.751   1.675
  843TIP3   OH224087   0.083   6.690   8.389
  843TIP3    H124088   0.055   6.645   8.309
  843TIP3    H224089   0.002   6.725   8.426
  844TIP3   OH224090   2.511   6.000   6.865
  844TIP3    H124091   2.418   5.984   6.880
  844TIP3    H224092   2.522   5.994   6.770
  845TIP3   OH224093   1.977   5.325   0.318
  845TIP3    H124094   2.061   5.350   0.357
  845TIP3    H224095   1.914   5.334   0.390
  846TIP3   OH224096   4.501   2.355   2.191
  846TIP3    H124097   4.434   2.287   2.201
  846TIP3    H224098   4.493   2.409   2.269
  847TIP3   OH224099   6.472   4.290   8.320
  847TIP3    H124100   6.433   4.261   8.403
  847TIP3    H224101   6.435   4.232   8.254
  848TIP3   OH224102   6.456   4.250   7.715
  848TIP3    H124103   6.367   4.255   7.749
  848TIP3    H224104   6.457   4.169   7.663
  849TIP3   OH224105   5.811   1.817   7.886
  849TIP3    H124106   5.840   1.732   7.853
  849TIP3    H224107   5.850   1.880   7.826
  850TIP3   OH224108   0.535   2.565   8.277
  850TIP3    H124109   0.441   2.580   8.269
  850TIP3    H224110   0.553   2.578   8.370
  851TIP3   OH224111   0.618   2.821   1.600
  851TIP3    H124112   0.707   2.794   1.623
  851TIP3    H224113   0.630   2.902   1.550
  852TIP3   OH224114   4.815   0.337   0.712
  852TIP3    H124115   4.840   0.323   0.621
  852TIP3    H224116   4.899   0.342   0.759
  853TIP3   OH224117   3.963   2.962   8.477
  853TIP3    H124118   3.919   3.023   8.419
  853TIP3    H224119   4.029   2.920   8.422
  854TIP3   OH224120   2.722   3.363   6.946
  854TIP3    H124121   2.630   3.382   6.928
  854TIP3    H224122   2.721   3.308   7.024
  855TIP3   OH224123   0.338   2.429   0.328
  855TIP3    H124124   0.380   2.379   0.258
  855TIP3    H224125   0.274   2.368   0.366
  856TIP3   OH224126   2.955   4.461   7.429
  856TIP3    H124127   2.909   4.411   7.497
  856TIP3    H224128   2.913   4.433   7.347
  857TIP3   OH224129   1.836   3.310   0.083
  857TIP3    H124130   1.830   3.251   0.159
  857TIP3    H224131   1.889   3.383   0.114
  858TIP3   OH224132   6.879   3.515   7.440
  858TIP3    H124133   6.844   3.582   7.381
  858TIP3    H224134   0.059   3.563   7.498
  859TIP3   OH224135   0.572   6.082   8.142
  859TIP3    H124136   0.570   6.063   8.236
  859TIP3    H224137   0.509   6.153   8.130
  860TIP3   OH224138   2.195   3.068   7.901
  860TIP3    H124139   2.172   3.089   7.991
  860TIP3    H224140   2.165   2.979   7.888
  861TIP3   OH224141   4.437   5.178   0.028
  861TIP3    H124142   4.526   5.166   8.620
  861TIP3    H224143   4.445   5.238   0.102
  862TIP3   OH224144   2.544   1.354   7.846
  862TIP3    H124145   2.491   1.277   7.826
  862TIP3    H224146   2.531   1.368   7.940
  863TIP3   OH224147   4.892   5.859   7.551
  863TIP3    H124148   4.946   5.799   7.603
  863TIP3    H224149   4.866   5.807   7.474
  864TIP3   OH224150   1.942   0.438   0.409
  864TIP3    H124151   2.025   0.483   0.421
  864TIP3    H224152   1.877   0.508   0.406
  865TIP3   OH224153   2.031   0.223   1.988
  865TIP3    H124154   2.043   0.316   1.971
  865TIP3    H224155   2.025   0.216   2.083
  866TIP3   OH224156   3.174   2.866   7.788
  866TIP3    H124157   3.092   2.817   7.798
  866TIP3    H224158   3.168   2.904   7.700
  867TIP3   OH224159   3.769   2.372   6.856
  867TIP3    H124160   3.709   2.345   6.786
  867TIP3    H224161   3.838   2.306   6.856
  868TIP3   OH224162   6.011   5.804   8.285
  868TIP3    H124163   6.089   5.787   8.338
  868TIP3    H224164   6.030   5.761   8.201
  869TIP3   OH224165   3.384   4.080   0.575
  869TIP3    H124166   3.366   4.019   0.647
  869TIP3    H224167   3.365   4.030   0.496
  870TIP3   OH224168   4.567   4.837   7.906
  870TIP3    H124169   4.625   4.817   7.833
  870TIP3    H224170   4.619   4.819   7.984
  871TIP3   OH224171   4.601   2.380   1.555
  871TIP3    H124172   4.626   2.299   1.511
  871TIP3    H224173   4.534   2.354   1.618
  872TIP3   OH224174   3.854   3.892   6.801
  872TIP3    H124175   3.794   3.941   6.746
  872TIP3    H224176   3.888   3.957   6.863
  873TIP3   OH224177   3.016   5.896   1.642
  873TIP3    H124178   2.960   5.958   1.688
  873TIP3    H224179   3.004   5.813   1.689
  874TIP3   OH224180   2.016   6.179   2.028
  874TIP3    H124181   1.956   6.126   1.975
  874TIP3    H224182   2.082   6.118   2.059
  875TIP3   OH224183   5.425   2.626   8.466
  875TIP3    H124184   5.372   2.551   8.494
  875TIP3    H224185   5.389   2.651   8.381
  876TIP3   OH224186   1.427   1.936   0.846
  876TIP3    H124187   1.335   1.938   0.821
  876TIP3    H224188   1.429   1.885   0.927
  877TIP3   OH224189   6.376   4.358   0.560
  877TIP3    H124190   6.315   4.422   0.596
  877TIP3    H224191   6.332   4.273   0.572
  878TIP3   OH224192   4.759   0.877   7.518
  878TIP3    H124193   4.852   0.877   7.538
  878TIP3    H224194   4.754   0.858   7.424
  879TIP3   OH224195   5.462   5.015   1.287
  879TIP3    H124196   5.440   4.936   1.237
  879TIP3    H224197   5.382   5.039   1.333
  880TIP3   OH224198   5.604   2.389   2.397
  880TIP3    H124199   5.663   2.455   2.432
  880TIP3    H224200   5.578   2.336   2.473
  881TIP3   OH224201   5.953   2.409   8.097
  881TIP3    H124202   6.048   2.423   8.106
  881TIP3    H224203   5.930   2.455   8.016
  882TIP3   OH224204   1.758   0.635   8.329
  882TIP3    H124205   1.775   0.729   8.335
  882TIP3    H224206   1.679   0.621   8.381
  883TIP3   OH224207   0.730   2.979   1.946
  883TIP3    H124208   0.721   3.055   2.002
  883TIP3    H224209   0.726   3.013   1.856
  884TIP3   OH224210   2.780   5.535   0.632
  884TIP3    H124211   2.752   5.601   0.696
  884TIP3    H224212   2.876   5.539   0.634
  885TIP3   OH224213   0.192   1.318   7.663
  885TIP3    H124214   0.234   1.285   7.584
  885TIP3    H224215   0.139   1.245   7.695
  886TIP3   OH224216   3.210   3.138   7.152
  886TIP3    H124217   3.123   3.109   7.181
  886TIP3    H224218   3.271   3.084   7.203
  887TIP3   OH224219   2.271   0.085   8.303
  887TIP3    H124220   2.284   0.018   8.370
  887TIP3    H224221   2.323   0.159   8.332
  888TIP3   OH224222   5.397   3.221   1.601
  888TIP3    H124223   5.430   3.303   1.638
  888TIP3    H224224   5.431   3.153   1.660
  889TIP3   OH224225   2.649   1.540   0.552
  889TIP3    H124226   2.699   1.607   0.505
  889TIP3    H224227   2.571   1.586   0.584
  890TIP3   OH224228   3.613   5.044   8.377
  890TIP3    H124229   3.553   5.029   8.304
  890TIP3    H224230   3.611   4.963   8.427
  891TIP3   OH224231   1.641   2.755   0.622
  891TIP3    H124232   1.597   2.675   0.648
  891TIP3    H224233   1.734   2.736   0.634
  892TIP3   OH224234   6.220   6.576   1.195
  892TIP3    H124235   6.270   6.583   1.276
  892TIP3    H224236   6.194   6.484   1.190
  893TIP3   OH224237   0.863   3.187   2.430
  893TIP3    H124238   0.935   3.137   2.393
  893TIP3    H224239   0.865   3.270   2.383
  894TIP3   OH224240   4.331   3.581   6.988
  894TIP3    H124241   4.298   3.670   6.996
  894TIP3    H224242   4.253   3.526   6.990
  895TIP3   OH224243   2.922   6.603   2.263
  895TIP3    H124244   2.902   6.659   2.339
  895TIP3    H224245   3.015   6.615   2.248
  896TIP3   OH224246   4.049   0.520   1.781
  896TIP3    H124247   3.959   0.516   1.814
  896TIP3    H224248   4.052   0.599   1.727
  897TIP3   OH224249   2.073   2.178   1.203
  897TIP3    H124250   2.029   2.121   1.141
  897TIP3    H224251   2.078   2.126   1.284
  898TIP3   OH224252   2.181   6.591   8.296
  898TIP3    H124253   2.245   6.562   8.231
  898TIP3    H224254   2.220   6.569   8.381
  899TIP3   OH224255   1.671   1.480   8.013
  899TIP3    H124256   1.739   1.524   7.962
  899TIP3    H224257   1.615   1.552   8.044
  900TIP3   OH224258   3.991   0.807   7.281
  900TIP3    H124259   4.009   0.778   7.370
  900TIP3    H224260   3.979   0.726   7.231
  901TIP3   OH224261   5.854   0.072   6.197
  901TIP3    H124262   5.817   0.135   6.259
  901TIP3    H224263   5.948   0.089   6.199
  902TIP3   OH224264   4.673   2.958   8.393
  902TIP3    H124265   4.581   2.983   8.402
  902TIP3    H224266   4.674   2.863   8.405
  903TIP3   OH224267   1.932   5.482   6.915
  903TIP3    H124268   1.841   5.480   6.947
  903TIP3    H224269   1.978   5.417   6.969
  904TIP3   OH224270   3.488   1.033   0.406
  904TIP3    H124271   3.543   1.111   0.408
  904TIP3    H224272   3.399   1.067   0.400
  905TIP3   OH224273   6.271   4.599   1.542
  905TIP3    H124274   6.327   4.546   1.485
  905TIP3    H224275   6.193   4.547   1.554
  906TIP3   OH224276   2.647   1.938   1.499
  906TIP3    H124277   2.669   2.027   1.525
  906TIP3    H224278   2.621   1.895   1.581
  907TIP3   OH224279   1.081   1.331   6.179
  907TIP3    H124280   1.108   1.350   6.269
  907TIP3    H224281   1.030   1.250   6.186
  908TIP3   OH224282   1.769   1.910   0.437
  908TIP3    H124283   1.739   1.898   0.527
  908TIP3    H224284   1.842   1.849   0.428
  909TIP3   OH224285   6.269   1.829   2.724
  909TIP3    H124286   6.266   1.916   2.684
  909TIP3    H224287   6.199   1.780   2.680
  910TIP3   OH224288   0.925   6.738   6.956
  910TIP3    H124289   0.954   6.829   6.950
  910TIP3    H224290   0.847   6.733   6.901
  911TIP3   OH224291   3.127   1.807   2.461
  911TIP3    H124292   3.109   1.722   2.502
  911TIP3    H224293   3.207   1.793   2.410
  912TIP3   OH224294   1.355   6.470   7.341
  912TIP3    H124295   1.281   6.524   7.369
  912TIP3    H224296   1.407   6.527   7.286
  913TIP3   OH224297   5.176   4.666   0.472
  913TIP3    H124298   5.220   4.717   0.404
  913TIP3    H224299   5.241   4.600   0.498
  914TIP3   OH224300   3.908   6.669   7.127
  914TIP3    H124301   3.934   6.646   7.038
  914TIP3    H224302   3.822   6.627   7.138
  915TIP3   OH224303   5.431   2.186   7.934
  915TIP3    H124304   5.430   2.092   7.921
  915TIP3    H224305   5.428   2.222   7.845
  916TIP3   OH224306   5.255   4.155   8.529
  916TIP3    H124307   5.185   4.111   8.578
  916TIP3    H224308   5.334   4.107   8.553
  917TIP3   OH224309   5.365   1.575   7.581
  917TIP3    H124310   5.271   1.593   7.589
  917TIP3    H224311   5.374   1.482   7.604
  918TIP3   OH224312   5.359   5.633   8.104
  918TIP3    H124313   5.283   5.608   8.050
  918TIP3    H224314   5.368   5.561   8.166
  919TIP3   OH224315   5.004   3.743   7.791
  919TIP3    H124316   5.018   3.727   7.698
  919TIP3    H224317   5.089   3.774   7.823
  920TIP3   OH224318   2.494   4.702   1.069
  920TIP3    H124319   2.459   4.664   1.150
  920TIP3    H224320   2.416   4.729   1.020
  921TIP3   OH224321   4.598   1.363   1.950
  921TIP3    H124322   4.561   1.361   2.038
  921TIP3    H224323   4.531   1.323   1.894
  922TIP3   OH224324   0.035   4.598   0.275
  922TIP3    H124325   0.126   4.577   0.296
  922TIP3    H224326   0.001   4.520   0.233
  923TIP3   OH224327   0.368   4.268   7.397
  923TIP3    H124328   0.289   4.282   7.450
  923TIP3    H224329   0.335   4.232   7.314
  924TIP3   OH224330   1.703   1.309   7.584
  924TIP3    H124331   1.724   1.402   7.598
  924TIP3    H224332   1.784   1.263   7.606
  925TIP3   OH224333   2.377   2.017   7.530
  925TIP3    H124334   2.327   2.031   7.611
  925TIP3    H224335   2.357   2.094   7.476
  926TIP3   OH224336   4.309   0.788   7.195
  926TIP3    H124337   4.401   0.794   7.220
  926TIP3    H224338   4.267   0.739   7.266
  927TIP3   OH224339   0.161   2.401   2.580
  927TIP3    H124340   0.132   2.328   2.636
  927TIP3    H224341   0.255   2.384   2.567
  928TIP3   OH224342   5.332   4.578   2.266
  928TIP3    H124343   5.418   4.579   2.307
  928TIP3    H224344   5.299   4.489   2.281
  929TIP3   OH224345   4.724   6.208   7.996
  929TIP3    H124346   4.658   6.256   8.045
  929TIP3    H224347   4.715   6.118   8.025
  930TIP3   OH224348   4.457   0.612   0.787
  930TIP3    H124349   4.391   0.563   0.837
  930TIP3    H224350   4.427   0.608   0.696
  931TIP3   OH224351   1.055   3.941   7.726
  931TIP3    H124352   1.131   3.930   7.670
  931TIP3    H224353   1.085   3.999   7.797
  932TIP3   OH224354   4.488   5.184   7.862
  932TIP3    H124355   4.534   5.159   7.942
  932TIP3    H224356   4.415   5.239   7.893
  933TIP3   OH224357   0.145   0.732   6.911
  933TIP3    H124358   0.166   0.788   6.835
  933TIP3    H224359   0.209   0.758   6.977
  934TIP3   OH224360   6.589   0.781   7.273
  934TIP3    H124361   6.526   0.759   7.203
  934TIP3    H224362   6.643   0.702   7.281
  935TIP3   OH224363   6.566   5.637   1.298
  935TIP3    H124364   6.581   5.729   1.274
  935TIP3    H224365   6.507   5.641   1.373
  936TIP3   OH224366   0.085   0.161   7.445
  936TIP3    H124367   0.005   0.149   7.394
  936TIP3    H224368   0.141   0.214   7.388
  937TIP3   OH224369   6.092   2.783   2.130
  937TIP3    H124370   6.132   2.697   2.145
  937TIP3    H224371   6.124   2.838   2.202
  938TIP3   OH224372   5.626   0.692   8.006
  938TIP3    H124373   5.552   0.740   8.043
  938TIP3    H224374   5.601   0.600   8.014
  939TIP3   OH224375   2.480   1.535   6.884
  939TIP3    H124376   2.554   1.533   6.823
  939TIP3    H224377   2.405   1.557   6.829
  940TIP3   OH224378   4.085   3.392   7.860
  940TIP3    H124379   4.093   3.456   7.788
  940TIP3    H224380   4.092   3.445   7.939
  941TIP3   OH224381   3.734   3.226   6.735
  941TIP3    H124382   3.744   3.220   6.640
  941TIP3    H224383   3.662   3.287   6.748
  942TIP3   OH224384   5.289   6.322   1.121
  942TIP3    H124385   5.232   6.387   1.164
  942TIP3    H224386   5.263   6.238   1.161
  943TIP3   OH224387   4.064   3.681   6.342
  943TIP3    H124388   4.107   3.625   6.277
  943TIP3    H224389   4.136   3.720   6.391
  944TIP3   OH224390   5.284   2.820   1.301
  944TIP3    H124391   5.261   2.825   1.208
  944TIP3    H224392   5.284   2.911   1.330
  945TIP3   OH224393   2.587   6.189   0.585
  945TIP3    H124394   2.548   6.161   0.503
  945TIP3    H224395   2.594   6.109   0.637
  946TIP3   OH224396   4.491   4.729   1.158
  946TIP3    H124397   4.461   4.815   1.186
  946TIP3    H224398   4.583   4.741   1.136
  947TIP3   OH224399   0.902   0.291   7.801
  947TIP3    H124400   0.959   0.367   7.794
  947TIP3    H224401   0.841   0.298   7.728
  948TIP3   OH224402   1.263   5.244   8.602
  948TIP3    H124403   1.192   5.194   8.562
  948TIP3    H224404   1.243   5.335   8.581
  949TIP3   OH224405   2.080   2.419   8.348
  949TIP3    H124406   2.148   2.388   8.408
  949TIP3    H224407   2.128   2.443   8.269
  950TIP3   OH224408   3.345   0.882   1.253
  950TIP3    H124409   3.267   0.847   1.211
  950TIP3    H224410   3.340   0.977   1.239
  951TIP3   OH224411   3.694   0.834   0.766
  951TIP3    H124412   3.622   0.874   0.815
  951TIP3    H224413   3.721   0.901   0.703
  952TIP3   OH224414   6.675   4.177   1.939
  952TIP3    H124415   6.611   4.201   2.006
  952TIP3    H224416   6.705   4.261   1.904
  953TIP3   OH224417   5.175   3.051   1.858
  953TIP3    H124418   5.165   3.144   1.838
  953TIP3    H224419   5.173   3.047   1.954
  954TIP3   OH224420   0.929   2.033   8.406
  954TIP3    H124421   1.003   2.092   8.415
  954TIP3    H224422   0.864   2.067   8.468
  955TIP3   OH224423   2.017   1.555   1.191
  955TIP3    H124424   2.004   1.637   1.237
  955TIP3    H224425   2.051   1.581   1.105
  956TIP3   OH224426   0.443   0.445   1.642
  956TIP3    H124427   0.445   0.480   1.731
  956TIP3    H224428   0.492   0.509   1.590
  957TIP3   OH224429   3.775   6.269   8.276
  957TIP3    H124430   3.819   6.191   8.310
  957TIP3    H224431   3.845   6.317   8.231
  958TIP3   OH224432   6.403   5.596   6.567
  958TIP3    H124433   6.309   5.581   6.577
  958TIP3    H224434   6.429   5.536   6.497
  959TIP3   OH224435   2.156   3.135   8.171
  959TIP3    H124436   2.065   3.113   8.153
  959TIP3    H224437   2.154   3.182   8.255
  960TIP3   OH224438   3.395   5.895   0.412
  960TIP3    H124439   3.385   5.807   0.448
  960TIP3    H224440   3.489   5.909   0.408
  961TIP3   OH224441   5.304   2.327   7.048
  961TIP3    H124442   5.348   2.392   7.103
  961TIP3    H224443   5.264   2.379   6.978
  962TIP3   OH224444   0.510   4.015   6.170
  962TIP3    H124445   0.513   3.921   6.152
  962TIP3    H224446   0.591   4.033   6.218
  963TIP3   OH224447   3.257   6.738   2.438
  963TIP3    H124448   3.254   6.681   2.362
  963TIP3    H224449   3.259   6.678   2.513
  964TIP3   OH224450   0.022   1.155   0.747
  964TIP3    H124451   0.115   1.179   0.746
  964TIP3    H224452   0.019   1.068   0.707
  965TIP3   OH224453   5.263   5.776   7.841
  965TIP3    H124454   5.288   5.857   7.886
  965TIP3    H224455   5.325   5.769   7.768
  966TIP3   OH224456   1.232   1.058   6.563
  966TIP3    H124457   1.287   0.981   6.569
  966TIP3    H224458   1.150   1.026   6.525
  967TIP3   OH224459   6.133   4.818   1.560
  967TIP3    H124460   6.216   4.863   1.545
  967TIP3    H224461   6.158   4.729   1.584
  968TIP3   OH224462   3.963   1.335   8.530
  968TIP3    H124463   3.922   1.410   8.489
  968TIP3    H224464   4.057   1.353   8.525
  969TIP3   OH224465   2.482   4.556   8.144
  969TIP3    H124466   2.503   4.647   8.164
  969TIP3    H224467   2.386   4.553   8.147
  970TIP3   OH224468   1.469   2.563   0.431
  970TIP3    H124469   1.462   2.555   0.335
  970TIP3    H224470   1.397   2.509   0.464
  971TIP3   OH224471   4.359   2.150   7.239
  971TIP3    H124472   4.288   2.102   7.196
  971TIP3    H224473   4.352   2.239   7.204
  972TIP3   OH224474   5.511   5.016   7.436
  972TIP3    H124475   5.582   4.995   7.375
  972TIP3    H224476   5.456   4.938   7.437
  973TIP3   OH224477   0.185   0.911   0.744
  973TIP3    H124478   0.184   0.914   0.839
  973TIP3    H224479   0.249   0.843   0.722
  974TIP3   OH224480   5.086   4.382   0.345
  974TIP3    H124481   5.081   4.461   0.400
  974TIP3    H224482   5.050   4.313   0.401
  975TIP3   OH224483   5.314   3.857   1.772
  975TIP3    H124484   5.323   3.778   1.718
  975TIP3    H224485   5.336   3.827   1.860
  976TIP3   OH224486   4.515   1.215   0.832
  976TIP3    H124487   4.596   1.181   0.795
  976TIP3    H224488   4.528   1.310   0.837
  977TIP3   OH224489   2.554   5.840   7.657
  977TIP3    H124490   2.579   5.932   7.671
  977TIP3    H224491   2.510   5.840   7.573
  978TIP3   OH224492   1.513   0.760   0.405
  978TIP3    H124493   1.447   0.732   0.468
  978TIP3    H224494   1.466   0.760   0.321
  979TIP3   OH224495   4.945   6.174   1.212
  979TIP3    H124496   5.009   6.235   1.248
  979TIP3    H224497   4.990   6.089   1.214
  980TIP3   OH224498   5.076   6.141   0.271
  980TIP3    H124499   4.983   6.163   0.274
  980TIP3    H224500   5.121   6.226   0.275
  981TIP3   OH224501   6.556   0.201   1.237
  981TIP3    H124502   6.567   0.183   1.330
  981TIP3    H224503   6.548   0.114   1.197
  982TIP3   OH224504   3.025   1.437   1.685
  982TIP3    H124505   3.060   1.361   1.732
  982TIP3    H224506   3.069   1.512   1.726
  983TIP3   OH224507   1.553   6.585   2.346
  983TIP3    H124508   1.580   6.677   2.347
  983TIP3    H224509   1.458   6.588   2.352
  984TIP3   OH224510   0.541   3.648   1.787
  984TIP3    H124511   0.557   3.566   1.740
  984TIP3    H224512   0.490   3.701   1.726
  985TIP3   OH224513   6.712   0.035   1.974
  985TIP3    H124514   6.745   0.115   2.013
  985TIP3    H224515   6.781   6.850   1.990
  986TIP3   OH224516   4.234   0.675   6.756
  986TIP3    H124517   4.180   0.621   6.697
  986TIP3    H224518   4.198   0.658   6.843
  987TIP3   OH224519   5.590   3.922   1.640
  987TIP3    H124520   5.551   3.864   1.574
  987TIP3    H224521   5.536   4.001   1.639
  988TIP3   OH224522   0.380   0.033   0.700
  988TIP3    H124523   0.327   6.836   0.679
  988TIP3    H224524   0.447   0.035   0.632
  989TIP3   OH224525   3.251   3.033   1.402
  989TIP3    H124526   3.339   3.054   1.432
  989TIP3    H224527   3.211   2.987   1.476
  990TIP3   OH224528   0.768   3.185   0.258
  990TIP3    H124529   0.792   3.270   0.295
  990TIP3    H224530   0.681   3.167   0.295
  991TIP3   OH224531   3.305   0.001   7.032
  991TIP3    H124532   3.244   6.873   6.959
  991TIP3    H224533   3.334   0.092   7.031
  992TIP3   OH224534   4.344   2.792   0.280
  992TIP3    H124535   4.393   2.848   0.220
  992TIP3    H224536   4.346   2.839   0.363
  993TIP3   OH224537   3.022   5.630   1.703
  993TIP3    H124538   3.066   5.578   1.636
  993TIP3    H224539   3.072   5.613   1.783
  994TIP3   OH224540   0.621   1.370   0.089
  994TIP3    H124541   0.712   1.368   0.118
  994TIP3    H224542   0.592   1.459   0.111
  995TIP3   OH224543   4.986   2.025   1.981
  995TIP3    H124544   5.052   1.964   1.946
  995TIP3    H224545   5.036   2.087   2.034
  996TIP3   OH224546   2.015   5.069   0.687
  996TIP3    H124547   2.000   5.159   0.716
  996TIP3    H224548   1.931   5.025   0.700
  997TIP3   OH224549   0.012   2.624   8.197
  997TIP3    H124550   0.036   2.656   8.284
  997TIP3    H224551   6.815   2.675   8.172
  998TIP3   OH224552   6.652   4.271   0.718
  998TIP3    H124553   6.561   4.270   0.746
  998TIP3    H224554   6.668   4.183   0.685
  999TIP3   OH224555   6.257   5.084   8.481
  999TIP3    H124556   6.201   5.059   8.554
  999TIP3    H224557   6.330   5.131   8.522
 1000TIP3   OH224558   0.892   6.672   2.130
 1000TIP3    H124559   0.943   6.751   2.114
 1000TIP3    H224560   0.958   6.606   2.154
 1001TIP3   OH224561   5.217   1.012   7.007
 1001TIP3    H124562   5.289   1.042   6.952
 1001TIP3    H224563   5.224   1.064   7.087
 1002TIP3   OH224564   2.476   4.702   7.837
 1002TIP3    H124565   2.456   4.719   7.929
 1002TIP3    H224566   2.454   4.610   7.824
 1003TIP3   OH224567   6.288   6.584   7.617
 1003TIP3    H124568   6.384   6.578   7.622
 1003TIP3    H224569   6.257   6.512   7.671
 1004TIP3   OH224570   2.455   2.452   7.329
 1004TIP3    H124571   2.424   2.498   7.250
 1004TIP3    H224572   2.426   2.507   7.402
 1005TIP3   OH224573   4.254   0.506   0.941
 1005TIP3    H124574   4.212   0.544   1.018
 1005TIP3    H224575   4.334   0.466   0.975
 1006TIP3   OH224576   5.579   1.853   8.532
 1006TIP3    H124577   5.538   1.822   8.613
 1006TIP3    H224578   5.671   1.866   8.554
 1007TIP3   OH224579   0.918   4.491   0.459
 1007TIP3    H124580   0.846   4.495   0.522
 1007TIP3    H224581   0.875   4.486   0.374
 1008TIP3   OH224582   2.229   1.346   8.520
 1008TIP3    H124583   2.264   1.326   8.433
 1008TIP3    H224584   2.300   1.322   8.580
 1009TIP3   OH224585   6.386   3.589   0.262
 1009TIP3    H124586   6.400   3.504   0.305
 1009TIP3    H224587   6.445   3.649   0.308
 1010TIP3   OH224588   1.123   2.611   7.886
 1010TIP3    H124589   1.175   2.570   7.816
 1010TIP3    H224590   1.032   2.591   7.863
 1011TIP3   OH224591   1.228   3.015   0.021
 1011TIP3    H124592   1.224   2.983   8.555
 1011TIP3    H224593   1.138   3.040   0.042
 1012TIP3   OH224594   1.756   3.302   7.033
 1012TIP3    H124595   1.695   3.371   7.058
 1012TIP3    H224596   1.742   3.289   6.939
 1013TIP3   OH224597   6.186   5.456   0.447
 1013TIP3    H124598   6.125   5.409   0.504
 1013TIP3    H224599   6.223   5.389   0.391
 1014TIP3   OH224600   6.381   6.744   7.212
 1014TIP3    H124601   6.333   6.770   7.133
 1014TIP3    H224602   6.374   6.648   7.214
 1015TIP3   OH224603   2.427   2.998   1.086
 1015TIP3    H124604   2.420   3.004   0.990
 1015TIP3    H224605   2.345   2.957   1.114
 1016TIP3   OH224606   5.817   1.163   6.856
 1016TIP3    H124607   5.758   1.092   6.831
 1016TIP3    H224608   5.759   1.228   6.897
 1017TIP3   OH224609   3.152   0.176   2.119
 1017TIP3    H124610   3.089   0.247   2.134
 1017TIP3    H224611   3.229   0.201   2.168
 1018TIP3   OH224612   3.279   5.478   7.918
 1018TIP3    H124613   3.296   5.389   7.887
 1018TIP3    H224614   3.239   5.522   7.843
 1019TIP3   OH224615   6.794   6.020   2.639
 1019TIP3    H124616   6.822   6.106   2.609
 1019TIP3    H224617   6.731   6.038   2.709
 1020TIP3   OH224618   0.253   0.534   7.658
 1020TIP3    H124619   0.331   0.567   7.702
 1020TIP3    H224620   0.181   0.585   7.696
 1021TIP3   OH224621   1.270   6.556   8.045
 1021TIP3    H124622   1.320   6.517   7.973
 1021TIP3    H224623   1.230   6.634   8.007
 1022TIP3   OH224624   6.169   2.202   6.925
 1022TIP3    H124625   6.136   2.115   6.943
 1022TIP3    H224626   6.252   2.188   6.879
 1023TIP3   OH224627   0.571   3.804   0.498
 1023TIP3    H124628   0.514   3.784   0.572
 1023TIP3    H224629   0.586   3.898   0.505
 1024TIP3   OH224630   0.318   2.580   7.394
 1024TIP3    H124631   0.261   2.625   7.331
 1024TIP3    H224632   0.267   2.504   7.422
 1025TIP3   OH224633   0.593   3.672   0.220
 1025TIP3    H124634   0.600   3.721   0.138
 1025TIP3    H224635   0.606   3.738   0.289
 1026TIP3   OH224636   6.868   0.638   0.248
 1026TIP3    H124637   6.831   0.694   0.316
 1026TIP3    H224638   0.064   0.596   0.289
 1027TIP3   OH224639   3.865   1.602   0.356
 1027TIP3    H124640   3.785   1.578   0.403
 1027TIP3    H224641   3.856   1.562   0.270
 1028TIP3   OH224642   4.672   4.121   0.025
 1028TIP3    H124643   4.754   4.151   8.610
 1028TIP3    H224644   4.604   4.172   8.604
 1029TIP3   OH224645   5.127   2.659   1.520
 1029TIP3    H124646   5.097   2.724   1.583
 1029TIP3    H224647   5.181   2.709   1.458
 1030TIP3   OH224648   3.209   0.523   0.190
 1030TIP3    H124649   3.185   0.468   0.116
 1030TIP3    H224650   3.208   0.465   0.265
 1031TIP3   OH224651   4.315   5.650   0.483
 1031TIP3    H124652   4.255   5.713   0.444
 1031TIP3    H224653   4.267   5.613   0.557
 1032TIP3   OH224654   4.162   5.658   0.770
 1032TIP3    H124655   4.249   5.679   0.804
 1032TIP3    H224656   4.101   5.696   0.833
 1033TIP3   OH224657   5.641   5.626   2.374
 1033TIP3    H124658   5.585   5.570   2.320
 1033TIP3    H224659   5.587   5.647   2.450
 1034TIP3   OH224660   0.675   6.614   6.560
 1034TIP3    H124661   0.706   6.524   6.572
 1034TIP3    H224662   0.580   6.608   6.574
 1035TIP3   OH224663   2.723   5.342   1.491
 1035TIP3    H124664   2.645   5.324   1.543
 1035TIP3    H224665   2.796   5.326   1.551
 1036TIP3   OH224666   5.959   4.828   8.378
 1036TIP3    H124667   5.995   4.754   8.426
 1036TIP3    H224668   5.951   4.897   8.444
 1037TIP3   OH224669   0.368   1.802   7.888
 1037TIP3    H124670   0.397   1.793   7.978
 1037TIP3    H224671   0.348   1.713   7.860
 1038TIP3   OH224672   6.684   5.832   0.229
 1038TIP3    H124673   6.612   5.822   0.291
 1038TIP3    H224674   6.643   5.820   0.143
 1039TIP3   OH224675   4.327   2.553   6.762
 1039TIP3    H124676   4.389   2.622   6.784
 1039TIP3    H224677   4.382   2.477   6.742
 1040TIP3   OH224678   6.202   6.365   1.791
 1040TIP3    H124679   6.270   6.432   1.802
 1040TIP3    H224680   6.209   6.338   1.699
 1041TIP3   OH224681   4.986   1.531   0.564
 1041TIP3    H124682   5.080   1.549   0.563
 1041TIP3    H224683   4.972   1.476   0.641
 1042TIP3   OH224684   3.256   3.338   6.597
 1042TIP3    H124685   3.328   3.334   6.535
 1042TIP3    H224686   3.207   3.416   6.571
 1043TIP3   OH224687   3.037   2.245   7.168
 1043TIP3    H124688   3.003   2.160   7.142
 1043TIP3    H224689   2.981   2.309   7.123
 1044TIP3   OH224690   2.301   3.295   7.604
 1044TIP3    H124691   2.309   3.373   7.659
 1044TIP3    H224692   2.212   3.300   7.569
 1045TIP3   OH224693   0.500   2.572   1.550
 1045TIP3    H124694   0.544   2.650   1.582
 1045TIP3    H224695   0.472   2.595   1.462
 1046TIP3   OH224696   0.211   4.553   7.949
 1046TIP3    H124697   0.242   4.602   7.872
 1046TIP3    H224698   0.164   4.618   8.001
 1047TIP3   OH224699   3.843   3.862   6.306
 1047TIP3    H124700   3.892   3.942   6.323
 1047TIP3    H224701   3.900   3.791   6.335
 1048TIP3   OH224702   0.503   6.829   1.848
 1048TIP3    H124703   0.518   6.745   1.804
 1048TIP3    H224704   0.516   0.015   1.779
 1049TIP3   OH224705   5.514   0.944   1.716
 1049TIP3    H124706   5.462   0.900   1.784
 1049TIP3    H224707   5.515   0.881   1.643
 1050TIP3   OH224708   0.740   0.699   0.606
 1050TIP3    H124709   0.823   0.654   0.591
 1050TIP3    H224710   0.681   0.630   0.638
 1051TIP3   OH224711   4.616   3.438   1.803
 1051TIP3    H124712   4.588   3.439   1.894
 1051TIP3    H224713   4.542   3.402   1.755
 1052TIP3   OH224714   0.053   2.118   7.924
 1052TIP3    H124715   0.129   2.148   7.874
 1052TIP3    H224716   6.869   2.189   7.916
 1053TIP3   OH224717   2.731   0.462   7.967
 1053TIP3    H124718   2.651   0.465   7.915
 1053TIP3    H224719   2.701   0.459   8.058
 1054TIP3   OH224720   4.066   1.055   7.413
 1054TIP3    H124721   4.127   1.021   7.478
 1054TIP3    H224722   4.051   0.982   7.353
 1055TIP3   OH224723   3.367   6.465   8.144
 1055TIP3    H124724   3.387   6.424   8.228
 1055TIP3    H224725   3.432   6.534   8.134
 1056TIP3   OH224726   4.885   0.270   0.094
 1056TIP3    H124727   4.809   0.217   0.068
 1056TIP3    H224728   4.879   0.274   0.190
 1057TIP3   OH224729   0.835   4.933   1.238
 1057TIP3    H124730   0.857   4.918   1.146
 1057TIP3    H224731   0.914   4.972   1.275
 1058TIP3   OH224732   4.824   1.543   7.700
 1058TIP3    H124733   4.779   1.462   7.679
 1058TIP3    H224734   4.912   1.516   7.729
 1059TIP3   OH224735   4.011   3.772   0.425
 1059TIP3    H124736   4.034   3.688   0.464
 1059TIP3    H224737   3.992   3.829   0.499
 1060TIP3   OH224738   6.200   4.478   7.592
 1060TIP3    H124739   6.187   4.557   7.540
 1060TIP3    H224740   6.180   4.505   7.682
 1061TIP3   OH224741   2.549   3.500   6.304
 1061TIP3    H124742   2.541   3.594   6.293
 1061TIP3    H224743   2.491   3.463   6.238
 1062TIP3   OH224744   6.432   6.762   0.235
 1062TIP3    H124745   6.364   6.796   0.178
 1062TIP3    H224746   6.409   6.795   0.322
 1063TIP3   OH224747   4.033   3.754   8.405
 1063TIP3    H124748   4.075   3.840   8.402
 1063TIP3    H224749   3.967   3.758   8.335
 1064TIP3   OH224750   2.484   3.010   6.177
 1064TIP3    H124751   2.547   2.941   6.195
 1064TIP3    H224752   2.504   3.039   6.088
 1065TIP3   OH224753   5.269   0.802   0.059
 1065TIP3    H124754   5.190   0.822   0.007
 1065TIP3    H224755   5.312   0.886   0.069
 1066TIP3   OH224756   0.807   3.530   0.809
 1066TIP3    H124757   0.837   3.621   0.813
 1066TIP3    H224758   0.766   3.522   0.723
 1067TIP3   OH224759   3.922   2.657   1.916
 1067TIP3    H124760   3.934   2.704   1.999
 1067TIP3    H224761   3.946   2.566   1.937
 1068TIP3   OH224762   2.475   1.178   8.340
 1068TIP3    H124763   2.507   1.092   8.366
 1068TIP3    H224764   2.504   1.237   8.410
 1069TIP3   OH224765   0.335   3.249   7.201
 1069TIP3    H124766   0.419   3.260   7.156
 1069TIP3    H224767   0.341   3.162   7.242
 1070TIP3   OH224768   0.029   4.069   0.696
 1070TIP3    H124769   0.094   4.034   0.758
 1070TIP3    H224770   6.866   3.991   0.660
 1071TIP3   OH224771   5.594   3.664   6.319
 1071TIP3    H124772   5.505   3.701   6.321
 1071TIP3    H224773   5.628   3.688   6.233
 1072TIP3   OH224774   1.951   3.828   6.162
 1072TIP3    H124775   2.036   3.825   6.206
 1072TIP3    H224776   1.950   3.750   6.107
 1073TIP3   OH224777   1.956   6.279   0.410
 1073TIP3    H124778   1.894   6.305   0.342
 1073TIP3    H224779   2.035   6.253   0.363
 1074TIP3   OH224780   3.928   6.125   2.145
 1074TIP3    H124781   3.939   6.162   2.233
 1074TIP3    H224782   3.984   6.048   2.144
 1075TIP3   OH224783   6.326   2.640   1.201
 1075TIP3    H124784   6.287   2.571   1.147
 1075TIP3    H224785   6.258   2.706   1.209
 1076TIP3   OH224786   5.088   4.917   0.286
 1076TIP3    H124787   5.095   4.835   0.238
 1076TIP3    H224788   5.124   4.983   0.227
 1077TIP3   OH224789   2.616   4.132   7.894
 1077TIP3    H124790   2.533   4.092   7.921
 1077TIP3    H224791   2.622   4.110   7.800
 1078TIP3   OH224792   3.010   3.010   6.908
 1078TIP3    H124793   2.990   2.990   6.999
 1078TIP3    H224794   2.928   3.042   6.871
 1079TIP3   OH224795   1.338   1.298   1.709
 1079TIP3    H124796   1.349   1.238   1.782
 1079TIP3    H224797   1.392   1.260   1.639
 1080TIP3   OH224798   5.264   4.323   0.741
 1080TIP3    H124799   5.181   4.290   0.708
 1080TIP3    H224800   5.250   4.332   0.836
 1081TIP3   OH224801   2.632   4.041   8.392
 1081TIP3    H124802   2.683   3.964   8.363
 1081TIP3    H224803   2.688   4.116   8.371
 1082TIP3   OH224804   1.436   5.759   7.354
 1082TIP3    H124805   1.344   5.767   7.380
 1082TIP3    H224806   1.484   5.770   7.436
 1083TIP3   OH224807   6.028   3.292   7.157
 1083TIP3    H124808   5.970   3.340   7.216
 1083TIP3    H224809   5.989   3.205   7.151
 1084TIP3   OH224810   2.903   3.060   1.254
 1084TIP3    H124811   2.933   3.055   1.345
 1084TIP3    H224812   2.821   3.010   1.253
 1085TIP3   OH224813   6.686   1.948   8.478
 1085TIP3    H124814   6.650   2.009   8.542
 1085TIP3    H224815   6.691   1.998   8.397
 1086TIP3   OH224816   3.300   3.094   6.699
 1086TIP3    H124817   3.278   3.186   6.686
 1086TIP3    H224818   3.335   3.065   6.615
 1087TIP3   OH224819   5.169   4.862   0.910
 1087TIP3    H124820   5.178   4.797   0.980
 1087TIP3    H224821   5.083   4.901   0.925
 1088TIP3   OH224822   4.511   1.786   8.156
 1088TIP3    H124823   4.472   1.700   8.171
 1088TIP3    H224824   4.600   1.767   8.126
 1089TIP3   OH224825   4.780   2.000   2.311
 1089TIP3    H124826   4.791   2.093   2.290
 1089TIP3    H224827   4.696   1.995   2.355
 1090TIP3   OH224828   1.288   3.945   0.507
 1090TIP3    H124829   1.336   3.982   0.433
 1090TIP3    H224830   1.309   3.852   0.507
 1091TIP3   OH224831   1.420   4.068   6.334
 1091TIP3    H124832   1.476   4.059   6.411
 1091TIP3    H224833   1.407   4.162   6.324
 1092TIP3   OH224834   5.785   5.792   7.146
 1092TIP3    H124835   5.734   5.722   7.105
 1092TIP3    H224836   5.728   5.869   7.141
 1093TIP3   OH224837   4.958   4.470   0.631
 1093TIP3    H124838   5.013   4.538   0.592
 1093TIP3    H224839   4.961   4.489   0.725
 1094TIP3   OH224840   6.215   1.171   1.570
 1094TIP3    H124841   6.142   1.225   1.601
 1094TIP3    H224842   6.283   1.183   1.636
 1095TIP3   OH224843   2.454   2.119   6.870
 1095TIP3    H124844   2.492   2.109   6.782
 1095TIP3    H224845   2.372   2.165   6.855
 1096TIP3   OH224846   5.667   1.486   6.823
 1096TIP3    H124847   5.613   1.542   6.766
 1096TIP3    H224848   5.604   1.430   6.867
 1097TIP3   OH224849   2.790   3.799   8.308
 1097TIP3    H124850   2.775   3.776   8.216
 1097TIP3    H224851   2.844   3.728   8.342
 1098TIP3   OH224852   4.716   4.996   8.318
 1098TIP3    H124853   4.720   5.021   8.410
 1098TIP3    H224854   4.805   4.971   8.296
 1099TIP3   OH224855   5.666   3.365   1.437
 1099TIP3    H124856   5.608   3.399   1.369
 1099TIP3    H224857   5.649   3.421   1.513
 1100TIP3   OH224858   4.951   3.892   2.293
 1100TIP3    H124859   4.990   3.867   2.377
 1100TIP3    H224860   4.902   3.972   2.312
 1101TIP3   OH224861   3.758   6.607   8.357
 1101TIP3    H124862   3.748   6.541   8.288
 1101TIP3    H224863   3.846   6.642   8.344
 1102TIP3   OH224864   6.234   4.651   0.274
 1102TIP3    H124865   6.246   4.590   0.201
 1102TIP3    H224866   6.323   4.669   0.305
 1103TIP3   OH224867   4.594   5.014   7.677
 1103TIP3    H124868   4.523   5.004   7.613
 1103TIP3    H224869   4.550   5.045   7.756
 1104TIP3   OH224870   4.129   1.795   0.969
 1104TIP3    H124871   4.110   1.781   1.061
 1104TIP3    H224872   4.045   1.822   0.931
 1105TIP3   OH224873   6.014   4.497   0.911
 1105TIP3    H124874   6.013   4.412   0.867
 1105TIP3    H224875   6.059   4.481   0.994
 1106TIP3   OH224876   0.193   3.695   1.809
 1106TIP3    H124877   0.227   3.686   1.720
 1106TIP3    H224878   0.099   3.679   1.801
 1107TIP3   OH224879   1.593   6.268   6.464
 1107TIP3    H124880   1.682   6.289   6.436
 1107TIP3    H224881   1.588   6.173   6.459
 1108TIP3   OH224882   5.293   0.254   1.099
 1108TIP3    H124883   5.285   0.314   1.024
 1108TIP3    H224884   5.239   0.179   1.075
 1109TIP3   OH224885   2.968   6.469   1.999
 1109TIP3    H124886   2.949   6.477   2.092
 1109TIP3    H224887   2.981   6.559   1.969
 1110TIP3   OH224888   3.789   3.025   7.772
 1110TIP3    H124889   3.811   3.056   7.685
 1110TIP3    H224890   3.703   3.062   7.791
 1111TIP3   OH224891   6.292   6.592   1.938
 1111TIP3    H124892   6.323   6.675   1.902
 1111TIP3    H224893   6.316   6.595   2.031
 1112TIP3   OH224894   5.356   1.424   2.225
 1112TIP3    H124895   5.326   1.515   2.227
 1112TIP3    H224896   5.298   1.382   2.162
 1113TIP3   OH224897   1.352   3.137   1.313
 1113TIP3    H124898   1.296   3.091   1.250
 1113TIP3    H224899   1.405   3.067   1.353
 1114TIP3   OH224900   5.726   2.284   8.222
 1114TIP3    H124901   5.709   2.203   8.173
 1114TIP3    H224902   5.799   2.325   8.176
 1115TIP3   OH224903   3.607   2.428   7.550
 1115TIP3    H124904   3.512   2.428   7.534
 1115TIP3    H224905   3.644   2.388   7.472
 1116TIP3   OH224906   6.020   2.208   7.928
 1116TIP3    H124907   5.964   2.258   7.987
 1116TIP3    H224908   6.103   2.198   7.975
 1117TIP3   OH224909   2.752   3.883   1.256
 1117TIP3    H124910   2.823   3.894   1.193
 1117TIP3    H224911   2.741   3.788   1.263
 1118TIP3   OH224912   2.324   2.578   1.104
 1118TIP3    H124913   2.365   2.619   1.028
 1118TIP3    H224914   2.398   2.555   1.161
 1119TIP3   OH224915   5.203   1.204   1.273
 1119TIP3    H124916   5.272   1.163   1.324
 1119TIP3    H224917   5.126   1.148   1.285
 1120TIP3   OH224918   6.613   0.107   7.279
 1120TIP3    H124919   6.541   0.104   7.216
 1120TIP3    H224920   6.690   0.129   7.227
 1121TIP3   OH224921   4.957   2.375   7.791
 1121TIP3    H124922   4.976   2.389   7.884
 1121TIP3    H224923   4.964   2.280   7.779
 1122TIP3   OH224924   3.554   1.458   0.918
 1122TIP3    H124925   3.473   1.506   0.938
 1122TIP3    H224926   3.563   1.396   0.990
 1123TIP3   OH224927   2.334   2.072   1.121
 1123TIP3    H124928   2.355   2.049   1.212
 1123TIP3    H224929   2.244   2.106   1.125
 1124TIP3   OH224930   1.394   5.685   8.608
 1124TIP3    H124931   1.489   5.690   8.607
 1124TIP3    H224932   1.365   5.774   8.587
 1125TIP3   OH224933   1.602   3.202   1.112
 1125TIP3    H124934   1.579   3.170   1.199
 1125TIP3    H224935   1.541   3.274   1.095
 1126TIP3   OH224936   2.348   0.442   6.797
 1126TIP3    H124937   2.426   0.486   6.831
 1126TIP3    H224938   2.322   0.495   6.721
 1127TIP3   OH224939   1.388   4.004   1.659
 1127TIP3    H124940   1.339   3.943   1.604
 1127TIP3    H224941   1.358   4.090   1.632
 1128TIP3   OH224942   1.099   3.721   8.508
 1128TIP3    H124943   1.149   3.643   8.486
 1128TIP3    H224944   1.137   3.791   8.454
 1129TIP3   OH224945   4.961   6.305   8.059
 1129TIP3    H124946   4.948   6.375   8.123
 1129TIP3    H224947   4.873   6.276   8.036
 1130TIP3   OH224948   4.935   0.061   1.419
 1130TIP3    H124949   5.017   0.035   1.377
 1130TIP3    H224950   4.868   0.051   1.351
 1131TIP3   OH224951   0.781   3.503   1.300
 1131TIP3    H124952   0.723   3.564   1.255
 1131TIP3    H224953   0.867   3.544   1.294
 1132TIP3   OH224954   0.092   5.584   7.477
 1132TIP3    H124955   0.081   5.673   7.443
 1132TIP3    H224956   0.167   5.549   7.428
 1133TIP3   OH224957   5.597   5.985   2.753
 1133TIP3    H124958   5.692   5.997   2.752
 1133TIP3    H224959   5.566   6.032   2.676
 1134TIP3   OH224960   6.610   0.678   2.052
 1134TIP3    H124961   6.657   0.756   2.022
 1134TIP3    H224962   6.533   0.673   1.995
 1135TIP3   OH224963   5.814   0.466   7.419
 1135TIP3    H124964   5.760   0.475   7.341
 1135TIP3    H224965   5.902   0.491   7.390
 1136TIP3   OH224966   5.840   6.092   2.687
 1136TIP3    H124967   5.933   6.112   2.677
 1136TIP3    H224968   5.800   6.177   2.707
 1137TIP3   OH224969   2.398   4.254   0.045
 1137TIP3    H124970   2.473   4.205   0.078
 1137TIP3    H224971   2.420   4.272   8.577
 1138TIP3   OH224972   0.504   0.157   2.393
 1138TIP3    H124973   0.597   0.171   2.373
 1138TIP3    H224974   0.470   0.108   2.318
 1139TIP3   OH224975   6.659   4.712   7.426
 1139TIP3    H124976   6.598   4.781   7.451
 1139TIP3    H224977   6.618   4.631   7.458
 1140TIP3   OH224978   6.364   1.106   0.372
 1140TIP3    H124979   6.268   1.107   0.377
 1140TIP3    H224980   6.392   1.085   0.461
 1141TIP3   OH224981   5.159   5.474   7.980
 1141TIP3    H124982   5.203   5.400   7.939
 1141TIP3    H224983   5.070   5.471   7.945
 1142TIP3   OH224984   1.817   5.792   7.145
 1142TIP3    H124985   1.878   5.857   7.182
 1142TIP3    H224986   1.789   5.741   7.221
 1143TIP3   OH224987   0.840   1.592   7.950
 1143TIP3    H124988   0.862   1.498   7.953
 1143TIP3    H224989   0.815   1.613   8.040
 1144TIP3   OH224990   1.955   3.883   8.391
 1144TIP3    H124991   1.987   3.895   8.480
 1144TIP3    H224992   1.968   3.790   8.372
 1145TIP3   OH224993   5.507   1.310   1.856
 1145TIP3    H124994   5.481   1.395   1.892
 1145TIP3    H224995   5.434   1.284   1.800
 1146TIP3   OH224996   1.763   0.078   0.007
 1146TIP3    H124997   1.726   0.040   0.086
 1146TIP3    H224998   1.689   0.118   8.586
 1147TIP3   OH224999   2.101   4.657   8.340
 1147TIP3    H125000   2.172   4.701   8.387
 1147TIP3    H225001   2.085   4.578   8.391
 1148TIP3   OH225002   5.763   4.109   7.181
 1148TIP3    H125003   5.678   4.108   7.136
 1148TIP3    H225004   5.756   4.182   7.243
 1149TIP3   OH225005   5.745   1.489   7.548
 1149TIP3    H125006   5.681   1.491   7.477
 1149TIP3    H225007   5.753   1.396   7.570
 1150TIP3   OH225008   4.075   6.729   1.517
 1150TIP3    H125009   4.052   6.774   1.435
 1150TIP3    H225010   4.047   6.639   1.503
 1151TIP3   OH225011   5.301   5.676   1.956
 1151TIP3    H125012   5.293   5.581   1.950
 1151TIP3    H225013   5.211   5.707   1.971
 1152TIP3   OH225014   3.850   2.696   6.854
 1152TIP3    H125015   3.872   2.612   6.895
 1152TIP3    H225016   3.916   2.708   6.786
 1153TIP3   OH225017   2.229   0.412   7.747
 1153TIP3    H125018   2.147   0.371   7.775
 1153TIP3    H225019   2.205   0.464   7.671
 1154TIP3   OH225020   1.417   6.590   6.731
 1154TIP3    H125021   1.511   6.575   6.738
 1154TIP3    H225022   1.409   6.684   6.715
 1155TIP3   OH225023   1.412   2.556   6.614
 1155TIP3    H125024   1.371   2.637   6.585
 1155TIP3    H225025   1.494   2.584   6.655
 1156TIP3   OH225026   1.809   1.557   1.428
 1156TIP3    H125027   1.894   1.516   1.443
 1156TIP3    H225028   1.749   1.483   1.418
 1157TIP3   OH225029   3.984   2.334   1.702
 1157TIP3    H125030   3.898   2.351   1.739
 1157TIP3    H225031   4.045   2.373   1.765
 1158TIP3   OH225032   2.511   3.800   6.751
 1158TIP3    H125033   2.587   3.824   6.698
 1158TIP3    H225034   2.454   3.751   6.691
 1159TIP3   OH225035   3.548   6.024   6.885
 1159TIP3    H125036   3.559   6.096   6.823
 1159TIP3    H225037   3.564   5.945   6.834
 1160TIP3   OH225038   1.123   4.990   0.601
 1160TIP3    H125039   1.096   5.012   0.512
 1160TIP3    H225040   1.084   4.904   0.617
 1161TIP3   OH225041   6.188   5.286   8.245
 1161TIP3    H125042   6.247   5.275   8.319
 1161TIP3    H225043   6.226   5.357   8.193
 1162TIP3   OH225044   6.617   4.525   8.297
 1162TIP3    H125045   6.548   4.586   8.269
 1162TIP3    H225046   6.570   4.442   8.311
 1163TIP3   OH225047   0.281   3.187   6.704
 1163TIP3    H125048   0.325   3.242   6.640
 1163TIP3    H225049   0.350   3.130   6.737
 1164TIP3   OH225050   0.403   4.826   0.128
 1164TIP3    H125051   0.435   4.793   0.044
 1164TIP3    H225052   0.325   4.878   0.105
 1165TIP3   OH225053   5.904   6.286   1.646
 1165TIP3    H125054   5.976   6.237   1.605
 1165TIP3    H225055   5.856   6.324   1.572
 1166TIP3   OH225056   2.593   1.133   0.362
 1166TIP3    H125057   2.635   1.218   0.347
 1166TIP3    H225058   2.663   1.070   0.353
 1167TIP3   OH225059   2.077   2.283   0.584
 1167TIP3    H125060   2.121   2.199   0.599
 1167TIP3    H225061   2.120   2.344   0.644
 1168TIP3   OH225062   0.550   2.085   1.431
 1168TIP3    H125063   0.595   2.075   1.347
 1168TIP3    H225064   0.615   2.126   1.488
 1169TIP3   OH225065   0.619   4.106   7.493
 1169TIP3    H125066   0.547   4.141   7.442
 1169TIP3    H225067   0.658   4.182   7.537
 1170TIP3   OH225068   6.712   2.325   8.482
 1170TIP3    H125069   6.641   2.318   8.419
 1170TIP3    H225070   6.677   2.285   8.562
 1171TIP3   OH225071   1.407   4.971   0.555
 1171TIP3    H125072   1.316   4.973   0.583
 1171TIP3    H225073   1.443   4.892   0.595
 1172TIP3   OH225074   6.469   1.794   8.490
 1172TIP3    H125075   6.550   1.844   8.497
 1172TIP3    H225076   6.491   1.707   8.523
 1173TIP3   OH225077   1.433   3.436   1.966
 1173TIP3    H125078   1.437   3.340   1.973
 1173TIP3    H225079   1.381   3.463   2.042
 1174TIP3   OH225080   4.948   3.877   0.119
 1174TIP3    H125081   4.953   3.790   0.078
 1174TIP3    H225082   4.864   3.877   0.165
 1175TIP3   OH225083   2.920   0.822   8.480
 1175TIP3    H125084   2.932   0.912   8.450
 1175TIP3    H225085   2.839   0.792   8.437
 1176TIP3   OH225086   3.184   5.123   6.793
 1176TIP3    H125087   3.185   5.197   6.731
 1176TIP3    H225088   3.201   5.046   6.739
 1177TIP3   OH225089   2.023   0.047   8.509
 1177TIP3    H125090   1.939   0.078   8.544
 1177TIP3    H225091   2.000   6.850   8.456
 1178TIP3   OH225092   5.541   0.871   8.461
 1178TIP3    H125093   5.547   0.922   8.381
 1178TIP3    H225094   5.603   0.913   8.521
 1179TIP3   OH225095   0.038   2.274   0.610
 1179TIP3    H125096   6.830   2.307   0.627
 1179TIP3    H225097   0.072   2.250   0.696
 1180TIP3   OH225098   1.660   2.833   7.450
 1180TIP3    H125099   1.574   2.874   7.463
 1180TIP3    H225100   1.723   2.899   7.478
 1181TIP3   OH225101   3.324   5.716   1.526
 1181TIP3    H125102   3.355   5.689   1.439
 1181TIP3    H225103   3.308   5.634   1.572
 1182TIP3   OH225104   5.677   5.159   1.727
 1182TIP3    H125105   5.772   5.153   1.733
 1182TIP3    H225106   5.651   5.083   1.674
 1183TIP3   OH225107   3.949   4.397   8.448
 1183TIP3    H125108   3.997   4.436   8.375
 1183TIP3    H225109   3.859   4.393   8.418
 1184TIP3   OH225110   1.382   5.826   0.534
 1184TIP3    H125111   1.451   5.869   0.484
 1184TIP3    H225112   1.310   5.814   0.471
 1185TIP3   OH225113   1.634   3.609   0.100
 1185TIP3    H125114   1.552   3.597   0.148
 1185TIP3    H225115   1.651   3.524   0.060
 1186TIP3   OH225116   5.068   6.275   1.609
 1186TIP3    H125117   4.986   6.237   1.642
 1186TIP3    H225118   5.094   6.337   1.676
 1187TIP3   OH225119   4.041   2.208   0.830
 1187TIP3    H125120   4.016   2.301   0.827
 1187TIP3    H225121   4.109   2.204   0.897
 1188TIP3   OH225122   4.808   3.292   6.249
 1188TIP3    H125123   4.888   3.238   6.247
 1188TIP3    H225124   4.828   3.361   6.312
 1189TIP3   OH225125   4.475   6.162   7.679
 1189TIP3    H125126   4.418   6.100   7.725
 1189TIP3    H225127   4.519   6.109   7.613
 1190TIP3   OH225128   1.787   3.565   0.910
 1190TIP3    H125129   1.732   3.558   0.831
 1190TIP3    H225130   1.809   3.474   0.931
 1191TIP3   OH225131   3.885   0.914   7.043
 1191TIP3    H125132   3.895   0.885   7.134
 1191TIP3    H225133   3.823   0.986   7.048
 1192TIP3   OH225134   3.970   5.090   7.490
 1192TIP3    H125135   3.989   4.996   7.490
 1192TIP3    H225136   3.990   5.119   7.401
 1193TIP3   OH225137   5.540   1.582   0.028
 1193TIP3    H125138   5.473   1.564   8.586
 1193TIP3    H225139   5.492   1.619   0.102
 1194TIP3   OH225140   0.728   6.766   0.286
 1194TIP3    H125141   0.697   6.752   0.197
 1194TIP3    H225142   0.811   6.719   0.290
 1195TIP3   OH225143   6.546   4.482   7.558
 1195TIP3    H125144   6.536   4.404   7.613
 1195TIP3    H225145   6.547   4.555   7.619
 1196TIP3   OH225146   0.398   6.648   7.518
 1196TIP3    H125147   0.376   6.592   7.592
 1196TIP3    H225148   0.363   6.734   7.542
 1197TIP3   OH225149   2.769   5.881   0.491
 1197TIP3    H125150   2.767   5.803   0.435
 1197TIP3    H225151   2.779   5.954   0.429
 1198TIP3   OH225152   1.682   1.875   0.710
 1198TIP3    H125153   1.599   1.905   0.749
 1198TIP3    H225154   1.660   1.793   0.666
 1199TIP3   OH225155   4.644   3.056   1.191
 1199TIP3    H125156   4.690   2.989   1.242
 1199TIP3    H225157   4.626   3.126   1.254
 1200TIP3   OH225158   3.320   0.192   6.689
 1200TIP3    H125159   3.342   0.220   6.600
 1200TIP3    H225160   3.306   0.098   6.681
 1201TIP3   OH225161   3.476   2.154   1.447
 1201TIP3    H125162   3.421   2.098   1.502
 1201TIP3    H225163   3.565   2.122   1.461
 1202TIP3   OH225164   3.942   2.117   8.477
 1202TIP3    H125165   3.939   2.209   8.450
 1202TIP3    H225166   4.035   2.095   8.477
 1203TIP3   OH225167   3.060   2.277   8.049
 1203TIP3    H125168   2.989   2.213   8.035
 1203TIP3    H225169   3.036   2.321   8.131
 1204TIP3   OH225170   2.340   1.646   1.107
 1204TIP3    H125171   2.401   1.695   1.161
 1204TIP3    H225172   2.289   1.712   1.061
 1205TIP3   OH225173   1.320   6.863   7.074
 1205TIP3    H125174   1.262   6.787   7.081
 1205TIP3    H225175   1.393   6.832   7.020
 1206TIP3   OH225176   3.351   3.046   8.296
 1206TIP3    H125177   3.301   3.121   8.328
 1206TIP3    H225178   3.295   3.006   8.230
 1207TIP3   OH225179   1.032   3.517   7.480
 1207TIP3    H125180   0.984   3.494   7.560
 1207TIP3    H225181   0.999   3.604   7.456
 1208TIP3   OH225182   1.202   3.685   6.995
 1208TIP3    H125183   1.258   3.745   6.945
 1208TIP3    H225184   1.223   3.704   7.086
 1209TIP3   OH225185   2.929   2.723   6.081
 1209TIP3    H125186   2.893   2.808   6.106
 1209TIP3    H225187   3.019   2.741   6.055
 1210TIP3   OH225188   6.224   1.575   1.006
 1210TIP3    H125189   6.175   1.502   1.044
 1210TIP3    H225190   6.162   1.616   0.946
 1211TIP3   OH225191   4.161   1.715   1.756
 1211TIP3    H125192   4.168   1.620   1.756
 1211TIP3    H225193   4.086   1.734   1.700
 1212TIP3   OH225194   5.562   0.664   7.072
 1212TIP3    H125195   5.627   0.728   7.100
 1212TIP3    H225196   5.579   0.587   7.126
 1213TIP3   OH225197   3.849   0.475   1.150
 1213TIP3    H125198   3.820   0.393   1.109
 1213TIP3    H225199   3.776   0.536   1.136
 1214TIP3   OH225200   3.989   2.639   2.258
 1214TIP3    H125201   4.039   2.561   2.284
 1214TIP3    H225202   3.903   2.627   2.300
 1215TIP3   OH225203   2.323   5.013   0.722
 1215TIP3    H125204   2.373   5.094   0.723
 1215TIP3    H225205   2.239   5.037   0.683
 1216TIP3   OH225206   6.365   0.598   7.055
 1216TIP3    H125207   6.338   0.509   7.079
 1216TIP3    H225208   6.305   0.623   6.985
 1217TIP3   OH225209   0.683   0.147   1.163
 1217TIP3    H125210   0.767   0.121   1.200
 1217TIP3    H225211   0.629   0.068   1.168
 1218TIP3   OH225212   4.601   4.741   7.205
 1218TIP3    H125213   4.646   4.658   7.189
 1218TIP3    H225214   4.670   4.802   7.228
 1219TIP3   OH225215   6.813   5.024   0.013
 1219TIP3    H125216   0.007   5.086   0.008
 1219TIP3    H225217   6.853   4.943   0.045
 1220TIP3   OH225218   0.642   1.902   0.685
 1220TIP3    H125219   0.675   1.936   0.768
 1220TIP3    H225220   0.550   1.930   0.682
 1221TIP3   OH225221   1.671   4.052   7.994
 1221TIP3    H125222   1.747   4.105   7.972
 1221TIP3    H225223   1.675   3.977   7.935
 1222TIP3   OH225224   3.085   3.008   0.437
 1222TIP3    H125225   3.062   3.099   0.457
 1222TIP3    H225226   3.145   3.014   0.362
 1223TIP3   OH225227   2.928   3.941   8.595
 1223TIP3    H125228   2.867   3.966   8.526
 1223TIP3    H225229   2.922   4.012   0.035
 1224TIP3   OH225230   2.878   0.113   7.825
 1224TIP3    H125231   2.898   0.194   7.779
 1224TIP3    H225232   2.856   0.140   7.914
 1225TIP3   OH225233   2.945   6.413   0.244
 1225TIP3    H125234   2.925   6.447   0.156
 1225TIP3    H225235   3.015   6.350   0.231
 1226TIP3   OH225236   6.472   1.175   1.726
 1226TIP3    H125237   6.466   1.082   1.705
 1226TIP3    H225238   6.429   1.184   1.811
 1227TIP3   OH225239   3.734   5.686   8.273
 1227TIP3    H125240   3.803   5.749   8.288
 1227TIP3    H225241   3.779   5.603   8.258
 1228TIP3   OH225242   4.582   3.863   2.431
 1228TIP3    H125243   4.655   3.925   2.426
 1228TIP3    H225244   4.620   3.778   2.409
 1229TIP3   OH225245   4.684   0.212   7.913
 1229TIP3    H125246   4.765   0.161   7.912
 1229TIP3    H225247   4.631   0.174   7.843
 1230TIP3   OH225248   5.525   2.090   0.717
 1230TIP3    H125249   5.444   2.110   0.765
 1230TIP3    H225250   5.585   2.058   0.785
 1231TIP3   OH225251   0.353   2.274   7.148
 1231TIP3    H125252   0.322   2.206   7.208
 1231TIP3    H225253   0.275   2.303   7.101
 1232TIP3   OH225254   1.646   0.993   1.851
 1232TIP3    H125255   1.641   0.915   1.906
 1232TIP3    H225256   1.559   1.033   1.858
 1233TIP3   OH225257   0.225   2.380   8.368
 1233TIP3    H125258   0.165   2.419   8.304
 1233TIP3    H225259   0.228   2.444   8.439
 1234TIP3   OH225260   3.675   2.455   6.540
 1234TIP3    H125261   3.756   2.492   6.576
 1234TIP3    H225262   3.704   2.378   6.490
 1235TIP3   OH225263   4.426   3.694   7.490
 1235TIP3    H125264   4.365   3.716   7.419
 1235TIP3    H225265   4.492   3.763   7.488
 1236TIP3   OH225266   6.344   2.492   7.034
 1236TIP3    H125267   6.263   2.541   7.019
 1236TIP3    H225268   6.355   2.494   7.130
 1237TIP3   OH225269   1.689   2.608   8.139
 1237TIP3    H125270   1.596   2.611   8.115
 1237TIP3    H225271   1.721   2.697   8.123
 1238TIP3   OH225272   0.769   2.897   0.489
 1238TIP3    H125273   0.842   2.896   0.550
 1238TIP3    H225274   0.806   2.870   0.405
 1239TIP3   OH225275   1.972   1.155   2.206
 1239TIP3    H125276   1.909   1.102   2.158
 1239TIP3    H225277   2.057   1.135   2.165
 1240TIP3   OH225278   0.985   2.209   0.163
 1240TIP3    H125279   1.015   2.139   0.222
 1240TIP3    H225280   1.035   2.196   0.083
 1241TIP3   OH225281   6.574   3.910   2.041
 1241TIP3    H125282   6.488   3.915   2.082
 1241TIP3    H225283   6.610   3.999   2.049
 1242TIP3   OH225284   6.393   5.603   0.121
 1242TIP3    H125285   6.462   5.552   0.078
 1242TIP3    H225286   6.394   5.574   0.212
 1243TIP3   OH225287   6.061   5.119   1.394
 1243TIP3    H125288   5.992   5.055   1.410
 1243TIP3    H225289   6.090   5.146   1.481
 1244TIP3   OH225290   1.933   0.006   0.701
 1244TIP3    H125291   1.974   6.850   0.780
 1244TIP3    H225292   2.001   0.060   0.660
 1245TIP3   OH225293   4.905   2.273   1.400
 1245TIP3    H125294   4.862   2.223   1.470
 1245TIP3    H225295   4.865   2.241   1.319
 1246TIP3   OH225296   1.392   3.241   2.287
 1246TIP3    H125297   1.376   3.250   2.381
 1246TIP3    H225298   1.343   3.314   2.247
 1247TIP3   OH225299   3.497   2.631   0.511
 1247TIP3    H125300   3.518   2.718   0.476
 1247TIP3    H225301   3.485   2.645   0.605
 1248TIP3   OH225302   0.070   0.082   0.548
 1248TIP3    H125303   0.097   0.110   0.635
 1248TIP3    H225304   6.871   0.029   0.562
 1249TIP3   OH225305   2.063   6.348   1.018
 1249TIP3    H125306   1.978   6.306   1.026
 1249TIP3    H225307   2.062   6.417   1.084
 1250TIP3   OH225308   6.555   5.674   7.171
 1250TIP3    H125309   6.629   5.711   7.124
 1250TIP3    H225310   6.494   5.646   7.102
 1251TIP3   OH225311   4.124   4.298   0.010
 1251TIP3    H125312   4.059   4.338   8.575
 1251TIP3    H225313   4.146   4.367   0.072
 1252TIP3   OH225314   1.314   5.061   1.127
 1252TIP3    H125315   1.382   4.994   1.125
 1252TIP3    H225316   1.301   5.085   1.035
 1253TIP3   OH225317   5.575   1.184   1.187
 1253TIP3    H125318   5.557   1.120   1.118
 1253TIP3    H225319   5.506   1.170   1.252
 1254TIP3   OH225320   6.593   0.573   2.577
 1254TIP3    H125321   6.578   0.492   2.529
 1254TIP3    H225322   6.654   0.623   2.523
 1255TIP3   OH225323   3.329   4.905   0.962
 1255TIP3    H125324   3.312   4.978   0.903
 1255TIP3    H225325   3.401   4.935   1.017
 1256TIP3   OH225326   4.157   3.748   0.028
 1256TIP3    H125327   4.242   3.788   0.009
 1256TIP3    H225328   4.123   3.724   8.566
 1257TIP3   OH225329   5.721   0.161   2.368
 1257TIP3    H125330   5.764   0.229   2.315
 1257TIP3    H225331   5.641   0.203   2.400
 1258TIP3   OH225332   0.992   5.398   7.735
 1258TIP3    H125333   0.995   5.351   7.652
 1258TIP3    H225334   0.900   5.421   7.747
 1259TIP3   OH225335   3.762   0.370   0.145
 1259TIP3    H125336   3.700   0.306   0.181
 1259TIP3    H225337   3.803   0.410   0.222
 1260TIP3   OH225338   2.768   5.307   1.970
 1260TIP3    H125339   2.774   5.234   1.908
 1260TIP3    H225340   2.792   5.384   1.919
 1261TIP3   OH225341   4.354   0.690   1.873
 1261TIP3    H125342   4.404   0.754   1.923
 1261TIP3    H225343   4.326   0.738   1.794
 1262TIP3   OH225344   3.997   3.035   0.130
 1262TIP3    H125345   3.996   3.106   0.066
 1262TIP3    H225346   3.993   2.955   0.078
 1263TIP3   OH225347   5.310   4.348   0.156
 1263TIP3    H125348   5.219   4.371   0.173
 1263TIP3    H225349   5.306   4.265   0.109
 1264TIP3   OH225350   4.642   0.419   0.078
 1264TIP3    H125351   4.623   0.400   0.170
 1264TIP3    H225352   4.672   0.335   0.043
 1265TIP3   OH225353   4.297   1.363   0.428
 1265TIP3    H125354   4.234   1.394   0.494
 1265TIP3    H225355   4.345   1.292   0.472
 1266TIP3   OH225356   4.373   4.672   8.464
 1266TIP3    H125357   4.285   4.645   8.489
 1266TIP3    H225358   4.399   4.609   8.397
 1267TIP3   OH225359   5.538   3.811   0.839
 1267TIP3    H125360   5.514   3.883   0.780
 1267TIP3    H225361   5.563   3.740   0.780
 1268TIP3   OH225362   4.629   4.240   7.766
 1268TIP3    H125363   4.559   4.227   7.702
 1268TIP3    H225364   4.667   4.324   7.743
 1269TIP3   OH225365   0.436   0.271   6.988
 1269TIP3    H125366   0.401   0.227   6.911
 1269TIP3    H225367   0.504   0.330   6.953
 1270TIP3   OH225368   2.871   4.446   8.173
 1270TIP3    H125369   2.792   4.405   8.139
 1270TIP3    H225370   2.840   4.523   8.220
 1271TIP3   OH225371   2.699   2.620   0.339
 1271TIP3    H125372   2.781   2.645   0.382
 1271TIP3    H225373   2.669   2.544   0.387
 1272TIP3   OH225374   4.783   4.926   1.365
 1272TIP3    H125375   4.745   4.962   1.445
 1272TIP3    H225376   4.787   4.999   1.304
 1273TIP3   OH225377   5.944   2.523   7.313
 1273TIP3    H125378   5.942   2.468   7.391
 1273TIP3    H225379   5.882   2.482   7.253
 1274TIP3   OH225380   4.914   6.057   7.105
 1274TIP3    H125381   4.932   5.990   7.038
 1274TIP3    H225382   5.000   6.094   7.125
 1275TIP3   OH225383   5.367   6.462   1.347
 1275TIP3    H125384   5.382   6.485   1.438
 1275TIP3    H225385   5.285   6.412   1.348
 1276TIP3   OH225386   4.685   2.860   1.390
 1276TIP3    H125387   4.728   2.776   1.406
 1276TIP3    H225388   4.685   2.904   1.476
 1277TIP3   OH225389   2.651   3.746   0.337
 1277TIP3    H125390   2.665   3.813   0.403
 1277TIP3    H225391   2.576   3.696   0.370
 1278TIP3   OH225392   4.827   4.917   7.159
 1278TIP3    H125393   4.897   4.975   7.130
 1278TIP3    H225394   4.845   4.834   7.116
 1279TIP3   OH225395   6.339   3.326   0.368
 1279TIP3    H125396   6.327   3.345   0.462
 1279TIP3    H225397   6.250   3.309   0.336
 1280TIP3   OH225398   5.618   1.658   8.298
 1280TIP3    H125399   5.540   1.674   8.352
 1280TIP3    H225400   5.688   1.703   8.345
 1281TIP3   OH225401   2.045   6.377   0.057
 1281TIP3    H125402   2.003   6.371   8.595
 1281TIP3    H225403   1.972   6.394   0.118
 1282TIP3   OH225404   1.388   5.837   7.083
 1282TIP3    H125405   1.320   5.902   7.100
 1282TIP3    H225406   1.402   5.793   7.167
 1283TIP3   OH225407   2.881   2.087   7.999
 1283TIP3    H125408   2.921   2.017   8.050
 1283TIP3    H225409   2.803   2.047   7.960
 1284TIP3   OH225410   6.823   5.890   8.086
 1284TIP3    H125411   6.813   5.852   7.999
 1284TIP3    H225412   0.037   5.909   8.094
 1285TIP3   OH225413   3.603   4.228   0.338
 1285TIP3    H125414   3.577   4.302   0.392
 1285TIP3    H225415   3.557   4.153   0.376
 1286TIP3   OH225416   3.917   2.768   7.614
 1286TIP3    H125417   3.881   2.680   7.616
 1286TIP3    H225418   3.841   2.825   7.623
 1287TIP3   OH225419   4.580   3.514   7.080
 1287TIP3    H125420   4.485   3.528   7.073
 1287TIP3    H225421   4.590   3.455   7.155
 1288TIP3   OH225422   3.643   6.684   0.428
 1288TIP3    H125423   3.639   6.604   0.376
 1288TIP3    H225424   3.599   6.750   0.374
 1289TIP3   OH225425   4.208   6.023   8.366
 1289TIP3    H125426   4.285   5.978   8.332
 1289TIP3    H225427   4.216   6.016   8.461
 1290TIP3   OH225428   1.224   1.233   8.604
 1290TIP3    H125429   1.270   1.266   0.058
 1290TIP3    H225430   1.185   1.310   8.564
 1291TIP3   OH225431   6.036   5.749   2.036
 1291TIP3    H125432   5.969   5.761   2.103
 1291TIP3    H225433   5.999   5.684   1.976
 1292TIP3   OH225434   1.591   2.954   0.122
 1292TIP3    H125435   1.675   2.908   0.113
 1292TIP3    H225436   1.525   2.890   0.096
 1293TIP3   OH225437   1.491   1.450   0.119
 1293TIP3    H125438   1.439   1.409   0.189
 1293TIP3    H225439   1.431   1.512   0.078
 1294TIP3   OH225440   5.131   4.048   1.719
 1294TIP3    H125441   5.050   4.011   1.685
 1294TIP3    H225442   5.184   3.972   1.744
 1295TIP3   OH225443   6.710   0.785   1.460
 1295TIP3    H125444   6.753   0.701   1.443
 1295TIP3    H225445   6.675   0.776   1.549
 1296TIP3   OH225446   3.972   5.484   1.647
 1296TIP3    H125447   4.043   5.506   1.588
 1296TIP3    H225448   3.902   5.546   1.627
 1297TIP3   OH225449   4.086   3.018   7.954
 1297TIP3    H125450   4.072   3.054   7.867
 1297TIP3    H225451   4.083   2.923   7.942
 1298TIP3   OH225452   6.849   1.494   1.091
 1298TIP3    H125453   6.810   1.549   1.024
 1298TIP3    H225454   6.778   1.477   1.153
 1299TIP3   OH225455   0.568   1.367   6.971
 1299TIP3    H125456   0.501   1.327   6.916
 1299TIP3    H225457   0.635   1.397   6.910
 1300TIP3   OH225458   3.710   4.121   0.919
 1300TIP3    H125459   3.743   4.032   0.930
 1300TIP3    H225460   3.778   4.176   0.959
 1301TIP3   OH225461   2.405   5.600   2.318
 1301TIP3    H125462   2.336   5.567   2.376
 1301TIP3    H225463   2.458   5.523   2.299
 1302TIP3   OH225464   1.645   5.982   6.474
 1302TIP3    H125465   1.732   5.941   6.477
 1302TIP3    H225466   1.602   5.940   6.400
 1303TIP3   OH225467   4.239   4.750   1.644
 1303TIP3    H125468   4.230   4.690   1.570
 1303TIP3    H225469   4.326   4.789   1.633
 1304TIP3   OH225470   5.780   5.098   0.557
 1304TIP3    H125471   5.721   5.026   0.581
 1304TIP3    H225472   5.782   5.095   0.461
 1305TIP3   OH225473   4.223   2.140   1.021
 1305TIP3    H125474   4.206   2.196   1.097
 1305TIP3    H225475   4.212   2.051   1.054
 1306TIP3   OH225476   4.636   3.223   7.805
 1306TIP3    H125477   4.665   3.133   7.818
 1306TIP3    H225478   4.674   3.248   7.720
 1307TIP3   OH225479   6.072   6.336   7.410
 1307TIP3    H125480   6.071   6.303   7.500
 1307TIP3    H225481   5.983   6.365   7.394
 1308TIP3   OH225482   5.754   0.204   8.247
 1308TIP3    H125483   5.835   0.174   8.289
 1308TIP3    H225484   5.684   0.158   8.294
 1309TIP3   OH225485   0.154   3.813   6.330
 1309TIP3    H125486   0.064   3.811   6.364
 1309TIP3    H225487   0.178   3.721   6.321
 1310TIP3   OH225488   6.176   6.863   7.752
 1310TIP3    H125489   6.215   6.827   7.673
 1310TIP3    H225490   6.243   6.848   7.820
 1311TIP3   OH225491   5.592   6.773   0.093
 1311TIP3    H125492   5.556   6.861   0.083
 1311TIP3    H225493   5.522   6.723   0.134
 1312TIP3   OH225494   3.634   5.355   7.114
 1312TIP3    H125495   3.646   5.432   7.058
 1312TIP3    H225496   3.590   5.291   7.058
 1313TIP3   OH225497   4.316   3.115   6.153
 1313TIP3    H125498   4.390   3.117   6.214
 1313TIP3    H225499   4.331   3.189   6.095
 1314TIP3   OH225500   2.594   2.130   6.639
 1314TIP3    H125501   2.680   2.089   6.625
 1314TIP3    H225502   2.550   2.124   6.555
 1315TIP3   OH225503   6.118   5.639   6.448
 1315TIP3    H125504   6.026   5.613   6.442
 1315TIP3    H225505   6.124   5.715   6.390
 1316TIP3   OH225506   6.593   6.723   2.238
 1316TIP3    H125507   6.508   6.685   2.260
 1316TIP3    H225508   6.648   6.704   2.314
 1317TIP3   OH225509   6.387   6.197   1.338
 1317TIP3    H125510   6.408   6.109   1.367
 1317TIP3    H225511   6.462   6.250   1.365
 1318TIP3   OH225512   3.699   5.513   0.442
 1318TIP3    H125513   3.746   5.430   0.442
 1318TIP3    H225514   3.739   5.563   0.513
 1319TIP3   OH225515   5.947   1.962   8.068
 1319TIP3    H125516   5.896   1.895   8.022
 1319TIP3    H225517   5.911   2.045   8.039
 1320TIP3   OH225518   4.764   0.074   1.183
 1320TIP3    H125519   4.791   0.077   1.092
 1320TIP3    H225520   4.682   0.025   1.183
 1321TIP3   OH225521   1.627   4.569   8.325
 1321TIP3    H125522   1.559   4.620   8.281
 1321TIP3    H225523   1.668   4.518   8.255
 1322TIP3   OH225524   0.879   5.929   1.066
 1322TIP3    H125525   0.947   5.872   1.102
 1322TIP3    H225526   0.891   6.012   1.113
 1323TIP3   OH225527   3.751   4.387   6.479
 1323TIP3    H125528   3.691   4.313   6.484
 1323TIP3    H225529   3.742   4.420   6.389
 1324TIP3   OH225530   4.274   0.570   1.400
 1324TIP3    H125531   4.247   0.505   1.464
 1324TIP3    H225532   4.241   0.538   1.317
 1325TIP3   OH225533   5.527   2.126   6.457
 1325TIP3    H125534   5.443   2.168   6.438
 1325TIP3    H225535   5.521   2.102   6.550
 1326TIP3   OH225536   3.386   2.543   1.103
 1326TIP3    H125537   3.437   2.478   1.151
 1326TIP3    H225538   3.430   2.626   1.123
 1327TIP3   OH225539   3.008   3.308   1.702
 1327TIP3    H125540   3.019   3.398   1.732
 1327TIP3    H225541   3.000   3.315   1.607
 1328TIP3   OH225542   2.712   1.799   0.478
 1328TIP3    H125543   2.751   1.842   0.554
 1328TIP3    H225544   2.729   1.858   0.405
 1329TIP3   OH225545   1.127   6.752   7.904
 1329TIP3    H125546   1.194   6.779   7.842
 1329TIP3    H225547   1.071   6.692   7.854
 1330TIP3   OH225548   5.597   4.504   1.028
 1330TIP3    H125549   5.608   4.565   1.101
 1330TIP3    H225550   5.503   4.507   1.009
 1331TIP3   OH225551   3.580   0.249   7.017
 1331TIP3    H125552   3.491   0.257   6.982
 1331TIP3    H225553   3.624   0.329   6.989
 1332TIP3   OH225554   0.989   3.951   8.036
 1332TIP3    H125555   0.942   3.870   8.017
 1332TIP3    H225556   1.082   3.927   8.031
 1333TIP3   OH225557   0.027   2.402   0.046
 1333TIP3    H125558   6.851   2.395   8.592
 1333TIP3    H225559   0.108   2.358   0.023
 1334TIP3   OH225560   0.520   1.052   6.439
 1334TIP3    H125561   0.529   1.037   6.533
 1334TIP3    H225562   0.518   1.147   6.429
 1335TIP3   OH225563   2.162   6.823   6.722
 1335TIP3    H125564   2.158   0.037   6.742
 1335TIP3    H225565   2.104   6.813   6.646
 1336TIP3   OH225566   0.093   2.903   0.160
 1336TIP3    H125567   0.159   2.958   0.202
 1336TIP3    H225568   0.129   2.814   0.166
 1337TIP3   OH225569   4.029   0.215   0.845
 1337TIP3    H125570   4.037   0.235   0.938
 1337TIP3    H225571   4.048   0.298   0.801
 1338TIP3   OH225572   4.765   3.252   7.520
 1338TIP3    H125573   4.748   3.176   7.465
 1338TIP3    H225574   4.858   3.270   7.508
 1339TIP3   OH225575   4.491   6.124   1.350
 1339TIP3    H125576   4.493   6.143   1.256
 1339TIP3    H225577   4.575   6.155   1.383
 1340TIP3   OH225578   4.637   4.615   6.852
 1340TIP3    H125579   4.582   4.669   6.795
 1340TIP3    H225580   4.667   4.544   6.795
 1341TIP3   OH225581   2.316   6.279   0.467
 1341TIP3    H125582   2.383   6.348   0.462
 1341TIP3    H225583   2.266   6.290   0.386
 1342TIP3   OH225584   2.067   6.518   0.501
 1342TIP3    H125585   2.028   6.465   0.432
 1342TIP3    H225586   2.058   6.466   0.581
 1343TIP3   OH225587   0.876   0.494   7.361
 1343TIP3    H125588   0.823   0.528   7.289
 1343TIP3    H225589   0.827   0.417   7.392
 1344TIP3   OH225590   5.075   1.575   6.103
 1344TIP3    H125591   4.992   1.532   6.086
 1344TIP3    H225592   5.052   1.655   6.150
 1345TIP3   OH225593   4.974   5.459   0.319
 1345TIP3    H125594   4.927   5.542   0.334
 1345TIP3    H225595   4.914   5.392   0.350
 1346TIP3   OH225596   4.137   4.261   2.072
 1346TIP3    H125597   4.131   4.167   2.090
 1346TIP3    H225598   4.109   4.303   2.153
 1347TIP3   OH225599   2.888   6.752   2.032
 1347TIP3    H125600   2.896   6.710   2.118
 1347TIP3    H225601   2.822   6.820   2.044
 1348TIP3   OH225602   5.917   5.075   7.109
 1348TIP3    H125603   5.866   5.090   7.030
 1348TIP3    H225604   5.898   5.151   7.164
 1349TIP3   OH225605   2.282   6.020   1.965
 1349TIP3    H125606   2.254   5.999   1.876
 1349TIP3    H225607   2.310   5.936   2.001
 1350TIP3   OH225608   6.111   4.838   7.673
 1350TIP3    H125609   6.134   4.766   7.731
 1350TIP3    H225610   6.072   4.904   7.731
 1351TIP3   OH225611   0.457   1.300   8.478
 1351TIP3    H125612   0.390   1.251   8.525
 1351TIP3    H225613   0.513   1.336   8.547
 1352TIP3   OH225614   4.493   5.845   2.401
 1352TIP3    H125615   4.533   5.929   2.423
 1352TIP3    H225616   4.400   5.865   2.390
 1353TIP3   OH225617   5.187   3.546   0.737
 1353TIP3    H125618   5.157   3.617   0.793
 1353TIP3    H225619   5.132   3.550   0.659
 1354TIP3   OH225620   1.014   5.517   0.170
 1354TIP3    H125621   0.963   5.476   0.100
 1354TIP3    H225622   1.071   5.579   0.125
 1355TIP3   OH225623   4.861   3.368   7.879
 1355TIP3    H125624   4.903   3.312   7.944
 1355TIP3    H225625   4.777   3.327   7.861
 1356TIP3   OH225626   6.587   6.768   6.972
 1356TIP3    H125627   6.547   6.791   7.056
 1356TIP3    H225628   6.518   6.721   6.925
 1357TIP3   OH225629   0.745   5.283   1.405
 1357TIP3    H125630   0.778   5.359   1.357
 1357TIP3    H225631   0.714   5.223   1.337
 1358TIP3   OH225632   3.560   3.297   7.716
 1358TIP3    H125633   3.630   3.348   7.676
 1358TIP3    H225634   3.512   3.258   7.642
 1359TIP3   OH225635   6.635   6.607   0.151
 1359TIP3    H125636   6.563   6.670   0.154
 1359TIP3    H225637   6.648   6.580   0.242
 1360TIP3   OH225638   5.656   2.338   0.615
 1360TIP3    H125639   5.724   2.313   0.553
 1360TIP3    H225640   5.632   2.256   0.659
 1361TIP3   OH225641   1.779   0.218   0.597
 1361TIP3    H125642   1.790   0.133   0.639
 1361TIP3    H225643   1.843   0.275   0.640
 1362TIP3   OH225644   5.890   3.897   1.652
 1362TIP3    H125645   5.878   3.927   1.562
 1362TIP3    H225646   5.807   3.854   1.674
 1363TIP3   OH225647   2.023   6.465   6.399
 1363TIP3    H125648   2.112   6.430   6.405
 1363TIP3    H225649   2.022   6.517   6.319
 1364TIP3   OH225650   5.016   5.003   2.354
 1364TIP3    H125651   5.052   4.920   2.385
 1364TIP3    H225652   5.010   5.058   2.433
 1365TIP3   OH225653   5.726   6.634   1.625
 1365TIP3    H125654   5.631   6.635   1.635
 1365TIP3    H225655   5.748   6.720   1.589
 1366TIP3   OH225656   5.075   6.460   0.992
 1366TIP3    H125657   5.075   6.545   0.948
 1366TIP3    H225658   5.139   6.408   0.944
 1367TIP3   OH225659   4.611   0.872   1.513
 1367TIP3    H125660   4.546   0.827   1.460
 1367TIP3    H225661   4.592   0.846   1.603
 1368TIP3   OH225662   0.566   1.601   0.542
 1368TIP3    H125663   0.556   1.619   0.636
 1368TIP3    H225664   0.628   1.667   0.512
 1369TIP3   OH225665   5.258   1.643   7.884
 1369TIP3    H125666   5.320   1.713   7.863
 1369TIP3    H225667   5.314   1.567   7.903
 1370TIP3   OH225668   0.607   6.662   0.967
 1370TIP3    H125669   0.532   6.721   0.978
 1370TIP3    H225670   0.568   6.577   0.946
 1371TIP3   OH225671   6.140   5.551   0.021
 1371TIP3    H125672   6.209   5.522   0.081
 1371TIP3    H225673   6.160   5.644   0.005
 1372TIP3   OH225674   3.022   5.281   0.872
 1372TIP3    H125675   3.042   5.311   0.961
 1372TIP3    H225676   2.928   5.297   0.861
 1373TIP3   OH225677   2.034   2.660   0.293
 1373TIP3    H125678   2.099   2.622   0.234
 1373TIP3    H225679   1.979   2.586   0.320
 1374TIP3   OH225680   4.199   3.986   2.110
 1374TIP3    H125681   4.276   3.959   2.059
 1374TIP3    H225682   4.232   3.998   2.199
 1375TIP3   OH225683   5.734   3.431   0.432
 1375TIP3    H125684   5.813   3.476   0.461
 1375TIP3    H225685   5.761   3.340   0.420
 1376TIP3   OH225686   0.112   2.516   1.778
 1376TIP3    H125687   0.176   2.588   1.786
 1376TIP3    H225688   0.029   2.556   1.802
 1377TIP3   OH225689   6.465   5.134   7.981
 1377TIP3    H125690   6.414   5.064   8.023
 1377TIP3    H225691   6.488   5.098   7.896
 1378TIP3   OH225692   2.010   1.481   7.872
 1378TIP3    H125693   2.026   1.498   7.779
 1378TIP3    H225694   2.039   1.391   7.886
 1379TIP3   OH225695   0.187   5.948   0.993
 1379TIP3    H125696   0.110   5.928   0.939
 1379TIP3    H225697   0.168   5.907   1.078
 1380TIP3   OH225698   0.351   6.437   7.718
 1380TIP3    H125699   0.266   6.435   7.761
 1380TIP3    H225700   0.413   6.410   7.786
 1381TIP3   OH225701   0.849   3.715   7.509
 1381TIP3    H125702   0.781   3.724   7.442
 1381TIP3    H225703   0.804   3.736   7.591
 1382TIP3   OH225704   4.214   0.795   2.408
 1382TIP3    H125705   4.212   0.850   2.486
 1382TIP3    H225706   4.167   0.716   2.433
 1383TIP3   OH225707   4.376   5.184   0.764
 1383TIP3    H125708   4.326   5.255   0.725
 1383TIP3    H225709   4.405   5.131   0.689
 1384TIP3   OH225710   0.002   3.434   1.559
 1384TIP3    H125711   6.806   3.492   1.566
 1384TIP3    H225712   6.855   3.355   1.606
 1385TIP3   OH225713   0.606   0.691   8.542
 1385TIP3    H125714   0.561   0.752   8.601
 1385TIP3    H225715   0.610   0.609   8.591
 1386TIP3   OH225716   1.666   5.416   6.311
 1386TIP3    H125717   1.655   5.343   6.372
 1386TIP3    H225718   1.731   5.385   6.247
 1387TIP3   OH225719   1.667   3.583   1.768
 1387TIP3    H125720   1.618   3.666   1.767
 1387TIP3    H225721   1.669   3.557   1.860
 1388TIP3   OH225722   3.235   1.910   6.399
 1388TIP3    H125723   3.310   1.859   6.369
 1388TIP3    H225724   3.159   1.856   6.379
 1389TIP3   OH225725   2.283   4.393   8.316
 1389TIP3    H125726   2.220   4.417   8.383
 1389TIP3    H225727   2.368   4.416   8.353
 1390TIP3   OH225728   4.982   6.376   7.573
 1390TIP3    H125729   5.045   6.314   7.607
 1390TIP3    H225730   4.959   6.343   7.486
 1391TIP3   OH225731   2.451   5.328   1.552
 1391TIP3    H125732   2.500   5.364   1.478
 1391TIP3    H225733   2.385   5.272   1.512
 1392TIP3   OH225734   5.059   4.238   1.345
 1392TIP3    H125735   5.119   4.235   1.419
 1392TIP3    H225736   4.978   4.273   1.382
 1393TIP3   OH225737   0.807   4.754   2.479
 1393TIP3    H125738   0.830   4.811   2.406
 1393TIP3    H225739   0.846   4.797   2.555
 1394TIP3   OH225740   2.353   0.917   7.196
 1394TIP3    H125741   2.258   0.928   7.187
 1394TIP3    H225742   2.384   1.002   7.228
 1395TIP3   OH225743   2.899   6.674   1.741
 1395TIP3    H125744   2.820   6.620   1.742
 1395TIP3    H225745   2.905   6.711   1.829
 1396TIP3   OH225746   4.717   6.787   0.268
 1396TIP3    H125747   4.696   0.000   0.254
 1396TIP3    H225748   4.638   6.752   0.309
 1397TIP3   OH225749   6.602   2.216   0.316
 1397TIP3    H125750   6.511   2.247   0.315
 1397TIP3    H225751   6.611   2.171   0.400
 1398TIP3   OH225752   0.365   1.985   0.050
 1398TIP3    H125753   0.426   1.936   8.617
 1398TIP3    H225754   0.344   1.924   0.120
 1399TIP3   OH225755   0.653   1.884   2.509
 1399TIP3    H125756   0.712   1.830   2.456
 1399TIP3    H225757   0.703   1.965   2.525
 1400TIP3   OH225758   3.959   1.418   8.180
 1400TIP3    H125759   3.982   1.340   8.130
 1400TIP3    H225760   3.958   1.489   8.115
 1401TIP3   OH225761   2.920   5.457   0.389
 1401TIP3    H125762   2.845   5.419   0.435
 1401TIP3    H225763   2.881   5.520   0.329
 1402TIP3   OH225764   2.004   2.293   2.176
 1402TIP3    H125765   1.921   2.304   2.129
 1402TIP3    H225766   2.052   2.375   2.160
 1403TIP3   OH225767   6.405   5.228   1.923
 1403TIP3    H125768   6.353   5.147   1.928
 1403TIP3    H225769   6.433   5.243   2.013
 1404TIP3   OH225770   2.672   5.895   7.984
 1404TIP3    H125771   2.694   5.975   8.032
 1404TIP3    H225772   2.662   5.828   8.053
 1405TIP3   OH225773   0.949   1.556   1.051
 1405TIP3    H125774   1.018   1.508   1.005
 1405TIP3    H225775   0.894   1.489   1.090
 1406TIP3   OH225776   3.916   6.347   1.929
 1406TIP3    H125777   3.918   6.285   2.002
 1406TIP3    H225778   3.846   6.408   1.951
 1407TIP3   OH225779   3.740   5.283   2.068
 1407TIP3    H125780   3.677   5.211   2.060
 1407TIP3    H225781   3.824   5.243   2.048
 1408TIP3   OH225782   6.578   5.151   0.140
 1408TIP3    H125783   6.603   5.106   0.221
 1408TIP3    H225784   6.626   5.105   0.071
 1409TIP3   OH225785   1.646   0.312   0.384
 1409TIP3    H125786   1.692   0.395   0.373
 1409TIP3    H225787   1.692   0.268   0.456
 1410TIP3   OH225788   5.522   6.286   0.716
 1410TIP3    H125789   5.610   6.249   0.721
 1410TIP3    H225790   5.466   6.217   0.753
 1411TIP3   OH225791   2.677   0.180   1.537
 1411TIP3    H125792   2.638   0.267   1.523
 1411TIP3    H225793   2.636   0.148   1.617
 1412TIP3   OH225794   2.872   2.409   7.017
 1412TIP3    H125795   2.802   2.345   7.033
 1412TIP3    H225796   2.839   2.490   7.055
 1413TIP3   OH225797   0.549   1.240   8.143
 1413TIP3    H125798   0.630   1.284   8.118
 1413TIP3    H225799   0.516   1.203   8.061
 1414TIP3   OH225800   6.167   2.957   2.315
 1414TIP3    H125801   6.237   3.005   2.360
 1414TIP3    H225802   6.086   2.995   2.349
 1415TIP3   OH225803   5.342   0.614   8.487
 1415TIP3    H125804   5.434   0.625   8.463
 1415TIP3    H225805   5.322   0.691   8.541
 1416TIP3   OH225806   1.066   5.737   7.257
 1416TIP3    H125807   1.146   5.700   7.220
 1416TIP3    H225808   1.011   5.758   7.181
 1417TIP3   OH225809   4.738   5.200   8.532
 1417TIP3    H125810   4.771   5.160   8.612
 1417TIP3    H225811   4.802   5.269   8.512
 1418TIP3   OH225812   1.157   3.270   8.305
 1418TIP3    H125813   1.083   3.211   8.296
 1418TIP3    H225814   1.186   3.287   8.215
 1419TIP3   OH225815   1.394   3.792   7.765
 1419TIP3    H125816   1.461   3.750   7.819
 1419TIP3    H225817   1.355   3.720   7.715
 1420TIP3   OH225818   6.663   1.795   0.631
 1420TIP3    H125819   6.656   1.795   0.535
 1420TIP3    H225820   6.724   1.867   0.650
 1421TIP3   OH225821   2.710   5.904   1.550
 1421TIP3    H125822   2.708   5.978   1.611
 1421TIP3    H225823   2.628   5.911   1.500
 1422TIP3   OH225824   4.847   1.062   7.853
 1422TIP3    H125825   4.786   0.991   7.875
 1422TIP3    H225826   4.911   1.021   7.795
 1423TIP3   OH225827   1.870   0.838   6.605
 1423TIP3    H125828   1.873   0.752   6.563
 1423TIP3    H225829   1.799   0.830   6.669
 1424TIP3   OH225830   4.477   1.965   8.369
 1424TIP3    H125831   4.434   2.048   8.346
 1424TIP3    H225832   4.481   1.916   8.287
 1425TIP3   OH225833   4.689   2.870   0.368
 1425TIP3    H125834   4.667   2.796   0.310
 1425TIP3    H225835   4.693   2.831   0.455
 1426TIP3   OH225836   5.147   1.324   2.085
 1426TIP3    H125837   5.099   1.280   2.015
 1426TIP3    H225838   5.120   1.415   2.079
 1427TIP3   OH225839   3.706   3.014   8.213
 1427TIP3    H125840   3.785   2.960   8.213
 1427TIP3    H225841   3.639   2.959   8.173
 1428TIP3   OH225842   3.401   6.438   7.316
 1428TIP3    H125843   3.338   6.500   7.279
 1428TIP3    H225844   3.482   6.455   7.268
 1429TIP3   OH225845   6.025   6.673   1.938
 1429TIP3    H125846   5.997   6.639   1.853
 1429TIP3    H225847   6.109   6.631   1.954
 1430TIP3   OH225848   2.320   5.292   0.262
 1430TIP3    H125849   2.291   5.305   0.353
 1430TIP3    H225850   2.273   5.214   0.233
 1431TIP3   OH225851   6.553   1.544   0.256
 1431TIP3    H125852   6.622   1.519   0.195
 1431TIP3    H225853   6.471   1.521   0.212
 1432TIP3   OH225854   2.130   1.263   7.237
 1432TIP3    H125855   2.149   1.183   7.188
 1432TIP3    H225856   2.083   1.319   7.175
 1433TIP3   OH225857   6.506   0.012   1.064
 1433TIP3    H125858   6.544   6.806   1.086
 1433TIP3    H225859   6.412   6.875   1.063
 1434TIP3   OH225860   3.898   3.899   7.350
 1434TIP3    H125861   3.831   3.943   7.402
 1434TIP3    H225862   3.869   3.912   7.259
 1435TIP3   OH225863   6.840   2.534   2.293
 1435TIP3    H125864   6.779   2.461   2.296
 1435TIP3    H225865   6.803   2.593   2.227
 1436TIP3   OH225866   1.251   2.561   7.197
 1436TIP3    H125867   1.162   2.540   7.169
 1436TIP3    H225868   1.299   2.479   7.188
 1437TIP3   OH225869   3.054   1.057   8.077
 1437TIP3    H125870   3.015   0.970   8.073
 1437TIP3    H225871   3.133   1.051   8.023
 1438TIP3   OH225872   1.410   1.103   8.455
 1438TIP3    H125873   1.392   1.080   8.364
 1438TIP3    H225874   1.327   1.141   8.487
 1439TIP3   OH225875   6.190   4.930   0.128
 1439TIP3    H125876   6.253   4.909   0.198
 1439TIP3    H225877   6.180   4.848   0.080
 1440TIP3   OH225878   1.714   5.805   1.362
 1440TIP3    H125879   1.621   5.815   1.380
 1440TIP3    H225880   1.755   5.800   1.448
 1441TIP3   OH225881   3.166   6.634   7.916
 1441TIP3    H125882   3.133   6.588   7.839
 1441TIP3    H225883   3.246   6.676   7.887
 1442TIP3   OH225884   4.977   3.019   7.730
 1442TIP3    H125885   4.913   2.948   7.727
 1442TIP3    H225886   5.030   3.001   7.808
 1443TIP3   OH225887   1.828   3.638   8.279
 1443TIP3    H125888   1.898   3.625   8.344
 1443TIP3    H225889   1.753   3.668   8.331
 1444TIP3   OH225890   2.764   3.576   6.724
 1444TIP3    H125891   2.677   3.558   6.757
 1444TIP3    H225892   2.775   3.513   6.652
 1445TIP3   OH225893   0.651   5.734   1.494
 1445TIP3    H125894   0.656   5.710   1.401
 1445TIP3    H225895   0.666   5.829   1.494
 1446TIP3   OH225896   2.269   3.283   6.602
 1446TIP3    H125897   2.327   3.358   6.587
 1446TIP3    H225898   2.270   3.235   6.519
 1447TIP3   OH225899   2.577   6.234   8.317
 1447TIP3    H125900   2.489   6.210   8.290
 1447TIP3    H225901   2.568   6.321   8.356
 1448TIP3   OH225902   0.862   2.398   8.126
 1448TIP3    H125903   0.844   2.484   8.089
 1448TIP3    H225904   0.892   2.346   8.051
 1449TIP3   OH225905   4.571   6.563   0.399
 1449TIP3    H125906   4.629   6.489   0.381
 1449TIP3    H225907   4.493   6.545   0.348
 1450TIP3   OH225908   4.162   1.341   2.412
 1450TIP3    H125909   4.220   1.416   2.428
 1450TIP3    H225910   4.218   1.264   2.422
 1451TIP3   OH225911   6.366   5.261   7.153
 1451TIP3    H125912   6.361   5.190   7.216
 1451TIP3    H225913   6.405   5.222   7.075
 1452TIP3   OH225914   0.961   1.674   6.951
 1452TIP3    H125915   0.910   1.747   6.916
 1452TIP3    H225916   0.996   1.630   6.874
 1453TIP3   OH225917   6.543   2.093   1.599
 1453TIP3    H125918   6.629   2.125   1.572
 1453TIP3    H225919   6.512   2.042   1.524
 1454TIP3   OH225920   1.574   5.975   1.135
 1454TIP3    H125921   1.492   5.993   1.088
 1454TIP3    H225922   1.642   5.982   1.068
 1455TIP3   OH225923   0.698   5.396   2.096
 1455TIP3    H125924   0.755   5.408   2.172
 1455TIP3    H225925   0.612   5.424   2.126
 1456TIP3   OH225926   1.151   2.904   7.816
 1456TIP3    H125927   1.124   2.813   7.832
 1456TIP3    H225928   1.136   2.917   7.723
 1457TIP3   OH225929   4.907   6.589   7.897
 1457TIP3    H125930   4.982   6.595   7.957
 1457TIP3    H225931   4.932   6.521   7.834
 1458TIP3   OH225932   2.218   2.747   8.606
 1458TIP3    H125933   2.225   2.813   8.538
 1458TIP3    H225934   2.147   2.690   8.577
 1459TIP3   OH225935   0.041   0.558   1.735
 1459TIP3    H125936   0.084   0.477   1.764
 1459TIP3    H225937   0.040   0.614   1.813
 1460TIP3   OH225938   5.695   4.149   2.224
 1460TIP3    H125939   5.676   4.079   2.161
 1460TIP3    H225940   5.672   4.111   2.309
 1461TIP3   OH225941   2.420   0.597   6.257
 1461TIP3    H125942   2.496   0.548   6.225
 1461TIP3    H225943   2.359   0.530   6.289
 1462TIP3   OH225944   6.514   1.415   0.869
 1462TIP3    H125945   6.421   1.416   0.847
 1462TIP3    H225946   6.516   1.407   0.965
 1463TIP3   OH225947   2.200   6.618   0.233
 1463TIP3    H125948   2.218   6.621   0.327
 1463TIP3    H225949   2.129   6.680   0.219
 1464TIP3   OH225950   2.929   2.040   7.063
 1464TIP3    H125951   2.914   2.070   6.973
 1464TIP3    H225952   2.853   1.985   7.083
 1465TIP3   OH225953   6.171   6.416   7.824
 1465TIP3    H125954   6.137   6.494   7.868
 1465TIP3    H225955   6.260   6.407   7.859
 1466TIP3   OH225956   5.846   0.267   1.015
 1466TIP3    H125957   5.914   0.293   0.952
 1466TIP3    H225958   5.812   0.185   0.980
 1467TIP3   OH225959   4.703   4.719   7.641
 1467TIP3    H125960   4.780   4.723   7.583
 1467TIP3    H225961   4.628   4.730   7.583
 1468TIP3   OH225962   0.216   2.801   0.935
 1468TIP3    H125963   0.206   2.807   1.030
 1468TIP3    H225964   0.127   2.785   0.902
 1469TIP3   OH225965   5.167   1.326   0.352
 1469TIP3    H125966   5.177   1.289   0.264
 1469TIP3    H225967   5.114   1.405   0.338
 1470TIP3   OH225968   5.247   6.263   8.389
 1470TIP3    H125969   5.216   6.261   8.480
 1470TIP3    H225970   5.204   6.339   8.350
 1471TIP3   OH225971   2.407   5.885   0.430
 1471TIP3    H125972   2.387   5.821   0.498
 1471TIP3    H225973   2.366   5.850   0.351
 1472TIP3   OH225974   6.363   4.826   8.488
 1472TIP3    H125975   6.316   4.909   8.497
 1472TIP3    H225976   6.303   4.761   8.525
 1473TIP3   OH225977   3.087   1.682   7.486
 1473TIP3    H125978   3.009   1.709   7.438
 1473TIP3    H225979   3.144   1.759   7.485
 1474TIP3   OH225980   3.533   1.729   0.287
 1474TIP3    H125981   3.555   1.804   0.231
 1474TIP3    H225982   3.497   1.664   0.226
 1475TIP3   OH225983   3.928   0.147   7.308
 1475TIP3    H125984   4.001   0.207   7.321
 1475TIP3    H225985   3.967   0.060   7.321
 1476TIP3   OH225986   1.564   3.715   2.103
 1476TIP3    H125987   1.634   3.652   2.084
 1476TIP3    H225988   1.558   3.768   2.023
 1477TIP3   OH225989   2.568   5.834   6.601
 1477TIP3    H125990   2.604   5.795   6.521
 1477TIP3    H225991   2.474   5.820   6.595
 1478TIP3   OH225992   5.293   3.356   7.461
 1478TIP3    H125993   5.358   3.427   7.462
 1478TIP3    H225994   5.240   3.371   7.538
 1479TIP3   OH225995   0.736   1.007   2.420
 1479TIP3    H125996   0.783   0.933   2.460
 1479TIP3    H225997   0.787   1.084   2.445
 1480TIP3   OH225998   3.144   3.741   0.888
 1480TIP3    H125999   3.113   3.651   0.873
 1480TIP3    H226000   3.123   3.759   0.980
 1481TIP3   OH226001   6.479   4.272   6.899
 1481TIP3    H126002   6.419   4.289   6.971
 1481TIP3    H226003   6.538   4.204   6.932
 1482TIP3   OH226004   1.387   0.391   7.921
 1482TIP3    H126005   1.456   0.402   7.987
 1482TIP3    H226006   1.380   0.478   7.880
 1483TIP3   OH226007   4.088   1.712   7.103
 1483TIP3    H126008   4.134   1.785   7.144
 1483TIP3    H226009   4.086   1.644   7.170
 1484TIP3   OH226010   5.431   6.766   6.703
 1484TIP3    H126011   5.340   6.789   6.687
 1484TIP3    H226012   5.469   6.753   6.616
 1485TIP3   OH226013   0.682   0.181   0.887
 1485TIP3    H126014   0.612   0.246   0.883
 1485TIP3    H226015   0.686   0.155   0.979
 1486TIP3   OH226016   4.553   3.997   0.255
 1486TIP3    H126017   4.478   4.052   0.275
 1486TIP3    H226018   4.587   4.030   0.172
 1487TIP3   OH226019   1.966   3.085   0.962
 1487TIP3    H126020   1.881   3.124   0.940
 1487TIP3    H226021   2.002   3.143   1.029
 1488TIP3   OH226022   0.628   3.215   7.113
 1488TIP3    H126023   0.636   3.161   7.035
 1488TIP3    H226024   0.717   3.244   7.133
 1489TIP3   OH226025   6.416   3.380   1.442
 1489TIP3    H126026   6.479   3.368   1.513
 1489TIP3    H226027   6.455   3.447   1.386
 1490TIP3   OH226028   3.005   0.349   0.023
 1490TIP3    H126029   3.018   0.408   8.573
 1490TIP3    H226030   2.968   0.270   8.608
 1491TIP3   OH226031   2.759   3.008   6.346
 1491TIP3    H126032   2.721   3.052   6.422
 1491TIP3    H226033   2.716   2.922   6.343
 1492TIP3   OH226034   1.982   6.816   7.938
 1492TIP3    H126035   2.016   6.872   8.008
 1492TIP3    H226036   2.016   6.729   7.959
 1493TIP3   OH226037   0.915   1.922   1.677
 1493TIP3    H126038   0.836   1.977   1.675
 1493TIP3    H226039   0.986   1.980   1.651
 1494TIP3   OH226040   3.680   6.307   8.584
 1494TIP3    H126041   3.672   6.316   8.489
 1494TIP3    H226042   3.719   6.389   8.613
 1495TIP3   OH226043   0.904   0.758   6.743
 1495TIP3    H126044   0.858   0.777   6.662
 1495TIP3    H226045   0.858   0.809   6.810
 1496TIP3   OH226046   2.234   3.900   1.722
 1496TIP3    H126047   2.259   3.952   1.646
 1496TIP3    H226048   2.219   3.964   1.791
 1497TIP3   OH226049   4.183   2.008   7.576
 1497TIP3    H126050   4.250   2.053   7.627
 1497TIP3    H226051   4.224   1.926   7.548
 1498TIP3   OH226052   1.295   5.066   8.238
 1498TIP3    H126053   1.220   5.015   8.206
 1498TIP3    H226054   1.277   5.155   8.207
 1499TIP3   OH226055   2.912   3.007   7.746
 1499TIP3    H126056   2.903   2.916   7.771
 1499TIP3    H226057   2.992   3.010   7.692
 1500TIP3   OH226058   6.348   6.018   6.495
 1500TIP3    H126059   6.333   6.091   6.554
 1500TIP3    H226060   6.261   5.987   6.471
 1501TIP3   OH226061   5.856   0.199   8.559
 1501TIP3    H126062   5.903   0.267   8.511
 1501TIP3    H226063   5.811   0.246   0.006
 1502TIP3   OH226064   4.555   5.353   0.224
 1502TIP3    H126065   4.481   5.348   0.284
 1502TIP3    H226066   4.631   5.327   0.277
 1503TIP3   OH226067   2.589   3.380   8.237
 1503TIP3    H126068   2.540   3.308   8.198
 1503TIP3    H226069   2.666   3.338   8.276
 1504TIP3   OH226070   5.885   0.205   6.791
 1504TIP3    H126071   5.839   0.284   6.817
 1504TIP3    H226072   5.975   0.218   6.821
 1505TIP3   OH226073   2.050   1.449   0.288
 1505TIP3    H126074   2.137   1.469   0.324
 1505TIP3    H226075   2.023   1.370   0.335
 1506TIP3   OH226076   4.639   3.302   6.919
 1506TIP3    H126077   4.639   3.334   6.829
 1506TIP3    H226078   4.633   3.381   6.972
 1507TIP3   OH226079   2.454   0.295   0.929
 1507TIP3    H126080   2.405   0.226   0.884
 1507TIP3    H226081   2.411   0.302   1.015
 1508TIP3   OH226082   4.141   5.531   8.254
 1508TIP3    H126083   4.071   5.466   8.265
 1508TIP3    H226084   4.150   5.571   8.341
 1509TIP3   OH226085   6.318   0.686   7.597
 1509TIP3    H126086   6.404   0.657   7.566
 1509TIP3    H226087   6.256   0.625   7.557
 1510TIP3   OH226088   6.744   1.373   1.378
 1510TIP3    H126089   6.682   1.428   1.427
 1510TIP3    H226090   6.823   1.373   1.431
 1511TIP3   OH226091   2.719   1.146   7.389
 1511TIP3    H126092   2.697   1.052   7.393
 1511TIP3    H226093   2.641   1.189   7.426
 1512TIP3   OH226094   3.783   1.175   0.030
 1512TIP3    H126095   3.842   1.214   8.589
 1512TIP3    H226096   3.831   1.099   0.063
 1513TIP3   OH226097   5.178   5.353   8.583
 1513TIP3    H126098   5.213   5.440   8.601
 1513TIP3    H226099   5.178   5.308   0.044
 1514TIP3   OH226100   6.058   4.375   7.381
 1514TIP3    H126101   6.145   4.372   7.421
 1514TIP3    H226102   5.997   4.371   7.454
 1515TIP3   OH226103   1.663   5.714   8.516
 1515TIP3    H126104   1.749   5.752   8.535
 1515TIP3    H226105   1.673   5.622   8.540
 1516TIP3   OH226106   4.846   1.311   0.400
 1516TIP3    H126107   4.941   1.300   0.397
 1516TIP3    H226108   4.832   1.403   0.377
 1517TIP3   OH226109   1.230   0.148   0.810
 1517TIP3    H126110   1.291   0.157   0.737
 1517TIP3    H226111   1.251   0.221   0.868
 1518TIP3   OH226112   2.050   5.571   7.254
 1518TIP3    H126113   2.122   5.613   7.208
 1518TIP3    H226114   2.016   5.506   7.192
 1519TIP3   OH226115   1.170   2.162   8.607
 1519TIP3    H126116   1.225   2.084   8.607
 1519TIP3    H226117   1.211   2.220   8.542
 1520TIP3   OH226118   6.705   1.700   2.127
 1520TIP3    H126119   6.730   1.762   2.196
 1520TIP3    H226120   6.747   1.618   2.151
 1521TIP3   OH226121   4.021   5.188   1.657
 1521TIP3    H126122   3.959   5.118   1.677
 1521TIP3    H226123   4.009   5.250   1.729
 1522TIP3   OH226124   0.046   6.258   7.844
 1522TIP3    H126125   0.048   6.269   7.940
 1522TIP3    H226126   6.833   6.264   7.821
 1523TIP3   OH226127   3.519   3.718   6.112
 1523TIP3    H126128   3.486   3.767   6.037
 1523TIP3    H226129   3.542   3.632   6.076
 1524TIP3   OH226130   3.491   6.808   1.745
 1524TIP3    H126131   3.584   6.790   1.752
 1524TIP3    H226132   3.455   6.786   1.831
 1525TIP3   OH226133   2.701   4.459   0.367
 1525TIP3    H126134   2.689   4.483   0.275
 1525TIP3    H226135   2.748   4.533   0.406
 1526TIP3   OH226136   1.398   3.005   7.478
 1526TIP3    H126137   1.370   3.041   7.394
 1526TIP3    H226138   1.321   3.010   7.533
 1527TIP3   OH226139   0.147   4.477   1.035
 1527TIP3    H126140   0.205   4.544   0.998
 1527TIP3    H226141   0.100   4.441   0.959
 1528TIP3   OH226142   4.575   3.125   0.276
 1528TIP3    H126143   4.587   3.118   0.182
 1528TIP3    H226144   4.628   3.055   0.313
 1529TIP3   OH226145   2.104   0.640   6.733
 1529TIP3    H126146   2.166   0.647   6.806
 1529TIP3    H226147   2.132   0.707   6.671
 1530TIP3   OH226148   3.745   6.769   6.224
 1530TIP3    H126149   3.818   6.818   6.188
 1530TIP3    H226150   3.768   6.756   6.317
 1531TIP3   OH226151   4.757   1.656   0.667
 1531TIP3    H126152   4.693   1.604   0.618
 1531TIP3    H226153   4.841   1.630   0.631
 1532TIP3   OH226154   2.459   1.818   7.249
 1532TIP3    H126155   2.478   1.801   7.341
 1532TIP3    H226156   2.539   1.856   7.214
 1533TIP3   OH226157   2.457   2.460   6.181
 1533TIP3    H126158   2.520   2.416   6.238
 1533TIP3    H226159   2.507   2.486   6.104
 1534TIP3   OH226160   4.172   4.004   6.554
 1534TIP3    H126161   4.166   3.925   6.608
 1534TIP3    H226162   4.256   3.996   6.510
 1535TIP3   OH226163   1.709   4.983   1.821
 1535TIP3    H126164   1.712   5.077   1.802
 1535TIP3    H226165   1.793   4.964   1.862
 1536TIP3   OH226166   2.741   5.021   8.192
 1536TIP3    H126167   2.828   5.060   8.180
 1536TIP3    H226168   2.684   5.072   8.134
 1537TIP3   OH226169   5.494   5.739   7.658
 1537TIP3    H126170   5.492   5.645   7.638
 1537TIP3    H226171   5.585   5.755   7.683
 1538TIP3   OH226172   0.491   1.856   8.136
 1538TIP3    H126173   0.540   1.929   8.098
 1538TIP3    H226174   0.499   1.869   8.231
 1539TIP3   OH226175   6.392   1.740   1.508
 1539TIP3    H126176   6.484   1.763   1.495
 1539TIP3    H226177   6.350   1.762   1.424
 1540TIP3   OH226178   4.753   1.227   7.649
 1540TIP3    H126179   4.800   1.231   7.566
 1540TIP3    H226180   4.800   1.161   7.700
 1541TIP3   OH226181   6.488   1.217   7.416
 1541TIP3    H126182   6.452   1.133   7.446
 1541TIP3    H226183   6.580   1.214   7.442
 1542TIP3   OH226184   4.110   4.294   1.515
 1542TIP3    H126185   4.077   4.349   1.586
 1542TIP3    H226186   4.145   4.217   1.559
 1543TIP3   OH226187   4.995   1.992   7.118
 1543TIP3    H126188   4.938   2.059   7.082
 1543TIP3    H226189   5.070   1.990   7.058
 1544TIP3   OH226190   2.956   0.941   1.747
 1544TIP3    H126191   3.003   0.939   1.831
 1544TIP3    H226192   3.016   0.987   1.688
 1545TIP3   OH226193   6.407   4.352   7.362
 1545TIP3    H126194   6.440   4.393   7.442
 1545TIP3    H226195   6.445   4.404   7.291
 1546TIP3   OH226196   5.327   1.500   6.271
 1546TIP3    H126197   5.276   1.523   6.193
 1546TIP3    H226198   5.280   1.542   6.343
 1547TIP3   OH226199   4.472   3.477   1.478
 1547TIP3    H126200   4.402   3.529   1.438
 1547TIP3    H226201   4.429   3.430   1.549
 1548TIP3   OH226202   1.279   5.712   0.962
 1548TIP3    H126203   1.222   5.775   0.917
 1548TIP3    H226204   1.368   5.742   0.942
 1549TIP3   OH226205   5.782   2.866   0.867
 1549TIP3    H126206   5.786   2.877   0.772
 1549TIP3    H226207   5.826   2.944   0.902
 1550TIP3   OH226208   0.851   2.597   7.827
 1550TIP3    H126209   0.778   2.599   7.889
 1550TIP3    H226210   0.814   2.557   7.748
 1551TIP3   OH226211   0.468   1.976   7.367
 1551TIP3    H126212   0.437   1.886   7.353
 1551TIP3    H226213   0.555   1.977   7.326
 1552TIP3   OH226214   0.769   2.982   1.408
 1552TIP3    H126215   0.834   2.975   1.478
 1552TIP3    H226216   0.763   3.076   1.390
 1553TIP3   OH226217   2.647   2.686   7.794
 1553TIP3    H126218   2.602   2.770   7.799
 1553TIP3    H226219   2.626   2.652   7.707
 1554TIP3   OH226220   3.482   2.308   2.178
 1554TIP3    H126221   3.388   2.322   2.183
 1554TIP3    H226222   3.520   2.396   2.178
 1555TIP3   OH226223   2.539   1.516   2.324
 1555TIP3    H126224   2.535   1.600   2.278
 1555TIP3    H226225   2.448   1.488   2.329
 1556TIP3   OH226226   3.518   2.564   1.574
 1556TIP3    H126227   3.568   2.578   1.655
 1556TIP3    H226228   3.479   2.649   1.555
 1557TIP3   OH226229   4.966   0.700   0.945
 1557TIP3    H126230   4.999   0.640   1.012
 1557TIP3    H226231   4.886   0.657   0.913
 1558TIP3   OH226232   0.650   1.745   1.006
 1558TIP3    H126233   0.729   1.780   0.965
 1558TIP3    H226234   0.578   1.793   0.966
 1559TIP3   OH226235   1.159   4.135   0.696
 1559TIP3    H126236   1.073   4.111   0.731
 1559TIP3    H226237   1.177   4.070   0.629
 1560TIP3   OH226238   5.826   0.021   0.896
 1560TIP3    H126239   5.796   6.816   0.928
 1560TIP3    H226240   5.917   0.006   0.868
 1561TIP3   OH226241   2.365   5.758   8.162
 1561TIP3    H126242   2.387   5.735   8.072
 1561TIP3    H226243   2.350   5.674   8.205
 1562TIP3   OH226244   2.591   2.925   7.328
 1562TIP3    H126245   2.616   2.986   7.397
 1562TIP3    H226246   2.674   2.886   7.300
 1563TIP3   OH226247   5.689   6.568   1.322
 1563TIP3    H126248   5.653   6.651   1.354
 1563TIP3    H226249   5.783   6.574   1.340
 1564TIP3   OH226250   3.560   2.848   6.897
 1564TIP3    H126251   3.506   2.773   6.873
 1564TIP3    H226252   3.650   2.818   6.884
 1565TIP3   OH226253   5.032   5.810   8.605
 1565TIP3    H126254   5.100   5.767   8.554
 1565TIP3    H226255   4.977   5.854   8.541
 1566TIP3   OH226256   1.923   5.303   0.795
 1566TIP3    H126257   1.963   5.285   0.880
 1566TIP3    H226258   1.831   5.318   0.815
 1567TIP3   OH226259   4.881   6.564   2.369
 1567TIP3    H126260   4.966   6.533   2.336
 1567TIP3    H226261   4.860   6.504   2.440
 1568TIP3   OH226262   2.803   4.067   8.082
 1568TIP3    H126263   2.802   3.976   8.052
 1568TIP3    H226264   2.733   4.109   8.032
 1569TIP3   OH226265   4.766   1.786   8.069
 1569TIP3    H126266   4.857   1.790   8.099
 1569TIP3    H226267   4.772   1.799   7.974
 1570TIP3   OH226268   0.130   6.407   2.002
 1570TIP3    H126269   0.126   6.501   2.024
 1570TIP3    H226270   0.151   6.406   1.909
 1571TIP3   OH226271   2.477   3.089   0.436
 1571TIP3    H126272   2.432   3.039   0.368
 1571TIP3    H226273   2.550   3.131   0.391
 1572TIP3   OH226274   3.142   5.118   1.155
 1572TIP3    H126275   3.105   5.062   1.087
 1572TIP3    H226276   3.076   5.119   1.224
 1573TIP3   OH226277   3.074   5.110   2.406
 1573TIP3    H126278   3.168   5.125   2.403
 1573TIP3    H226279   3.041   5.144   2.323
 1574TIP3   OH226280   6.781   5.797   7.834
 1574TIP3    H126281   6.821   5.713   7.810
 1574TIP3    H226282   6.817   5.859   7.770
 1575TIP3   OH226283   1.074   6.326   7.969
 1575TIP3    H126284   1.115   6.410   7.992
 1575TIP3    H226285   1.106   6.307   7.881
 1576TIP3   OH226286   1.224   3.448   6.852
 1576TIP3    H126287   1.300   3.478   6.803
 1576TIP3    H226288   1.203   3.521   6.911
 1577TIP3   OH226289   2.064   4.409   6.652
 1577TIP3    H126290   1.988   4.416   6.594
 1577TIP3    H226291   2.098   4.321   6.636
 1578TIP3   OH226292   0.725   2.965   7.677
 1578TIP3    H126293   0.629   2.963   7.678
 1578TIP3    H226294   0.749   2.957   7.769
 1579TIP3   OH226295   2.077   1.544   0.024
 1579TIP3    H126296   2.057   1.509   0.111
 1579TIP3    H226297   2.122   1.472   8.604
 1580TIP3   OH226298   3.801   0.044   0.725
 1580TIP3    H126299   3.710   0.036   0.695
 1580TIP3    H226300   3.798   0.114   0.790
 1581TIP3   OH226301   0.220   0.972   6.424
 1581TIP3    H126302   0.179   1.054   6.396
 1581TIP3    H226303   0.312   0.981   6.398
 1582TIP3   OH226304   4.635   1.917   7.573
 1582TIP3    H126305   4.687   1.855   7.624
 1582TIP3    H226306   4.680   2.001   7.583
 1583TIP3   OH226307   4.062   0.341   0.496
 1583TIP3    H126308   4.041   0.390   0.575
 1583TIP3    H226309   4.154   0.316   0.506
 1584TIP3   OH226310   2.021   3.838   0.061
 1584TIP3    H126311   1.936   3.804   0.089
 1584TIP3    H226312   2.085   3.794   0.117
 1585TIP3   OH226313   1.138   2.011   6.916
 1585TIP3    H126314   1.070   2.038   6.854
 1585TIP3    H226315   1.117   2.057   6.997
 1586TIP3   OH226316   1.965   6.206   7.411
 1586TIP3    H126317   1.870   6.200   7.416
 1586TIP3    H226318   1.996   6.172   7.495
 1587TIP3   OH226319   4.355   3.409   7.905
 1587TIP3    H126320   4.270   3.366   7.891
 1587TIP3    H226321   4.419   3.348   7.868
 1588TIP3   OH226322   0.067   1.295   0.118
 1588TIP3    H126323   0.021   1.241   0.182
 1588TIP3    H226324   0.000   1.319   0.053
 1589TIP3   OH226325   4.588   5.274   1.341
 1589TIP3    H126326   4.573   5.204   1.405
 1589TIP3    H226327   4.589   5.354   1.393
 1590TIP3   OH226328   3.761   2.445   2.221
 1590TIP3    H126329   3.699   2.516   2.239
 1590TIP3    H226330   3.821   2.446   2.296
 1591TIP3   OH226331   6.708   6.111   0.964
 1591TIP3    H126332   6.665   6.191   0.934
 1591TIP3    H226333   6.798   6.118   0.932
 1592TIP3   OH226334   1.334   0.226   1.421
 1592TIP3    H126335   1.283   0.146   1.407
 1592TIP3    H226336   1.331   0.272   1.337
 1593TIP3   OH226337   0.424   0.730   1.270
 1593TIP3    H126338   0.419   0.805   1.329
 1593TIP3    H226339   0.468   0.763   1.192
 1594TIP3   OH226340   3.811   1.256   0.528
 1594TIP3    H126341   3.828   1.283   0.618
 1594TIP3    H226342   3.892   1.276   0.481
 1595TIP3   OH226343   3.429   3.374   8.489
 1595TIP3    H126344   3.439   3.348   8.581
 1595TIP3    H226345   3.374   3.306   8.451
 1596TIP3   OH226346   4.004   4.749   7.281
 1596TIP3    H126347   3.922   4.785   7.248
 1596TIP3    H226348   3.984   4.657   7.300
 1597TIP3   OH226349   6.387   2.017   1.063
 1597TIP3    H126350   6.303   1.971   1.066
 1597TIP3    H226351   6.444   1.959   1.013
 1598TIP3   OH226352   5.357   2.101   2.071
 1598TIP3    H126353   5.364   2.006   2.077
 1598TIP3    H226354   5.272   2.121   2.111
 1599TIP3   OH226355   5.129   6.586   6.130
 1599TIP3    H126356   5.091   6.636   6.058
 1599TIP3    H226357   5.057   6.532   6.163
 1600TIP3   OH226358   3.313   0.112   0.305
 1600TIP3    H126359   3.232   0.072   0.273
 1600TIP3    H226360   3.339   0.057   0.379
 1601TIP3   OH226361   0.598   5.254   7.434
 1601TIP3    H126362   0.667   5.204   7.391
 1601TIP3    H226363   0.518   5.202   7.418
 1602TIP3   OH226364   2.233   6.033   0.601
 1602TIP3    H126365   2.296   5.970   0.566
 1602TIP3    H226366   2.258   6.117   0.562
 1603TIP3   OH226367   4.885   5.465   0.758
 1603TIP3    H126368   4.957   5.528   0.748
 1603TIP3    H226369   4.851   5.480   0.846
 1604TIP3   OH226370   6.417   5.337   0.946
 1604TIP3    H126371   6.355   5.339   1.018
 1604TIP3    H226372   6.495   5.381   0.980
 1605TIP3   OH226373   0.597   3.351   7.561
 1605TIP3    H126374   0.567   3.383   7.477
 1605TIP3    H226375   0.551   3.268   7.573
 1606TIP3   OH226376   6.075   6.846   0.744
 1606TIP3    H126377   6.121   6.823   0.664
 1606TIP3    H226378   6.127   6.806   0.814
 1607TIP3   OH226379   3.042   4.472   0.449
 1607TIP3    H126380   3.022   4.564   0.466
 1607TIP3    H226381   3.009   4.456   0.361
 1608TIP3   OH226382   5.751   1.447   8.125
 1608TIP3    H126383   5.728   1.529   8.170
 1608TIP3    H226384   5.820   1.409   8.179
 1609TIP3   OH226385   3.838   4.242   7.242
 1609TIP3    H126386   3.837   4.163   7.189
 1609TIP3    H226387   3.749   4.250   7.276
 1610TIP3   OH226388   3.838   5.172   8.271
 1610TIP3    H126389   3.890   5.115   8.213
 1610TIP3    H226390   3.764   5.118   8.297
 1611TIP3   OH226391   4.096   0.311   7.161
 1611TIP3    H126392   4.058   0.223   7.161
 1611TIP3    H226393   4.092   0.340   7.070
 1612TIP3   OH226394   2.620   3.467   0.917
 1612TIP3    H126395   2.547   3.526   0.932
 1612TIP3    H226396   2.697   3.517   0.943
 1613TIP3   OH226397   5.869   3.750   7.164
 1613TIP3    H126398   5.795   3.787   7.116
 1613TIP3    H226399   5.921   3.826   7.190
 1614TIP3   OH226400   1.999   1.651   0.653
 1614TIP3    H126401   1.932   1.584   0.669
 1614TIP3    H226402   2.004   1.658   0.558
 1615TIP3   OH226403   0.996   6.419   6.669
 1615TIP3    H126404   0.916   6.397   6.621
 1615TIP3    H226405   1.066   6.378   6.618
 1616TIP3   OH226406   0.106   3.570   7.053
 1616TIP3    H126407   0.140   3.523   7.129
 1616TIP3    H226408   0.016   3.592   7.077
 1617TIP3   OH226409   2.335   3.147   0.189
 1617TIP3    H126410   2.392   3.081   0.148
 1617TIP3    H226411   2.248   3.128   0.155
 1618TIP3   OH226412   4.120   1.682   7.415
 1618TIP3    H126413   4.146   1.593   7.440
 1618TIP3    H226414   4.062   1.711   7.486
 1619TIP3   OH226415   5.813   4.447   6.958
 1619TIP3    H126416   5.870   4.474   6.886
 1619TIP3    H226417   5.873   4.409   7.023
 1620TIP3   OH226418   3.389   0.314   2.293
 1620TIP3    H126419   3.324   0.382   2.310
 1620TIP3    H226420   3.472   0.361   2.291
 1621TIP3   OH226421   1.714   0.600   7.915
 1621TIP3    H126422   1.619   0.592   7.908
 1621TIP3    H226423   1.728   0.689   7.948
 1622TIP3   OH226424   0.893   0.392   0.152
 1622TIP3    H126425   0.932   0.459   0.096
 1622TIP3    H226426   0.802   0.387   0.123
 1623TIP3   OH226427   3.061   6.223   0.847
 1623TIP3    H126428   2.987   6.171   0.815
 1623TIP3    H226429   3.132   6.203   0.786
 1624TIP3   OH226430   6.531   0.226   7.808
 1624TIP3    H126431   6.556   0.230   7.901
 1624TIP3    H226432   6.453   0.281   7.802
 1625TIP3   OH226433   3.763   0.115   1.457
 1625TIP3    H126434   3.693   0.151   1.402
 1625TIP3    H226435   3.834   0.097   1.396
 1626TIP3   OH226436   5.083   6.185   2.237
 1626TIP3    H126437   5.091   6.159   2.328
 1626TIP3    H226438   4.993   6.163   2.213
 1627TIP3   OH226439   1.802   2.252   7.663
 1627TIP3    H126440   1.766   2.335   7.693
 1627TIP3    H226441   1.734   2.188   7.682
 1628TIP3   OH226442   4.879   6.342   0.037
 1628TIP3    H126443   4.899   6.376   0.124
 1628TIP3    H226444   4.849   6.253   0.052
 1629TIP3   OH226445   4.805   2.232   1.760
 1629TIP3    H126446   4.739   2.299   1.744
 1629TIP3    H226447   4.888   2.275   1.739
 1630TIP3   OH226448   1.489   2.551   8.416
 1630TIP3    H126449   1.403   2.542   8.457
 1630TIP3    H226450   1.470   2.576   8.325
 1631TIP3   OH226451   5.063   6.748   8.086
 1631TIP3    H126452   5.085   6.838   8.062
 1631TIP3    H226453   4.976   6.755   8.125
 1632TIP3   OH226454   0.440   6.876   0.968
 1632TIP3    H126455   0.467   0.078   1.011
 1632TIP3    H226456   0.432   0.019   0.876
 1633TIP3   OH226457   4.609   6.448   8.577
 1633TIP3    H126458   4.692   6.410   8.605
 1633TIP3    H226459   4.626   6.542   8.573
 1634TIP3   OH226460   5.605   1.527   7.305
 1634TIP3    H126461   5.523   1.576   7.312
 1634TIP3    H226462   5.646   1.560   7.226
 1635TIP3   OH226463   0.083   4.838   8.175
 1635TIP3    H126464   0.018   4.872   8.114
 1635TIP3    H226465   0.034   4.816   8.254
 1636TIP3   OH226466   2.017   2.819   7.941
 1636TIP3    H126467   1.989   2.820   7.850
 1636TIP3    H226468   1.999   2.730   7.972
 1637TIP3   OH226469   0.140   0.763   8.210
 1637TIP3    H126470   0.220   0.711   8.207
 1637TIP3    H226471   0.088   0.723   8.280
 1638TIP3   OH226472   3.177   5.094   1.758
 1638TIP3    H126473   3.253   5.086   1.816
 1638TIP3    H226474   3.139   5.179   1.779
 1639TIP3   OH226475   1.469   3.930   8.263
 1639TIP3    H126476   1.527   3.916   8.338
 1639TIP3    H226477   1.526   3.963   8.194
 1640TIP3   OH226478   1.548   0.442   8.136
 1640TIP3    H126479   1.643   0.459   8.132
 1640TIP3    H226480   1.523   0.466   8.225
 1641TIP3   OH226481   1.843   2.990   7.002
 1641TIP3    H126482   1.817   2.951   6.919
 1641TIP3    H226483   1.761   3.000   7.050
 1642TIP3   OH226484   3.427   4.091   7.364
 1642TIP3    H126485   3.469   4.038   7.296
 1642TIP3    H226486   3.339   4.054   7.373
 1643TIP3   OH226487   2.528   1.618   7.995
 1643TIP3    H126488   2.523   1.643   7.903
 1643TIP3    H226489   2.437   1.603   8.021
 1644TIP3   OH226490   2.007   5.855   6.926
 1644TIP3    H126491   1.939   5.845   6.993
 1644TIP3    H226492   2.032   5.766   6.904
 1645TIP3   OH226493   4.663   5.548   7.038
 1645TIP3    H126494   4.729   5.493   7.081
 1645TIP3    H226495   4.710   5.592   6.968
 1646TIP3   OH226496   0.103   4.412   7.693
 1646TIP3    H126497   0.073   4.488   7.643
 1646TIP3    H226498   0.068   4.337   7.646
 1647TIP3   OH226499   0.288   5.931   2.271
 1647TIP3    H126500   0.355   5.868   2.244
 1647TIP3    H226501   0.313   6.013   2.228
 1648TIP3   OH226502   2.544   6.662   1.987
 1648TIP3    H126503   2.592   6.745   1.981
 1648TIP3    H226504   2.502   6.652   1.901
 1649TIP3   OH226505   6.134   2.237   1.253
 1649TIP3    H126506   6.041   2.256   1.269
 1649TIP3    H226507   6.159   2.297   1.183
 1650TIP3   OH226508   5.928   5.683   0.575
 1650TIP3    H126509   5.961   5.599   0.604
 1650TIP3    H226510   5.894   5.725   0.654
 1651TIP3   OH226511   3.924   6.179   7.047
 1651TIP3    H126512   3.867   6.218   7.113
 1651TIP3    H226513   3.900   6.224   6.965
 1652TIP3   OH226514   5.684   5.388   1.885
 1652TIP3    H126515   5.693   5.307   1.834
 1652TIP3    H226516   5.617   5.368   1.950
 1653TIP3   OH226517   2.801   3.795   8.027
 1653TIP3    H126518   2.726   3.775   7.972
 1653TIP3    H226519   2.875   3.751   7.985
 1654TIP3   OH226520   4.090   4.400   6.414
 1654TIP3    H126521   4.153   4.424   6.346
 1654TIP3    H226522   4.006   4.400   6.369
 1655TIP3   OH226523   1.679   5.759   7.523
 1655TIP3    H126524   1.747   5.763   7.590
 1655TIP3    H226525   1.696   5.834   7.467
 1656TIP3   OH226526   6.855   4.738   8.392
 1656TIP3    H126527   6.798   4.677   8.440
 1656TIP3    H226528   0.056   4.740   8.443
 1657TIP3   OH226529   4.579   5.813   1.059
 1657TIP3    H126530   4.530   5.819   1.141
 1657TIP3    H226531   4.671   5.823   1.086
 1658TIP3   OH226532   3.891   5.065   1.247
 1658TIP3    H126533   3.851   5.141   1.289
 1658TIP3    H226534   3.848   4.990   1.287
 1659TIP3   OH226535   4.037   3.327   6.571
 1659TIP3    H126536   3.996   3.241   6.570
 1659TIP3    H226537   4.085   3.332   6.488
 1660TIP3   OH226538   6.679   1.913   6.453
 1660TIP3    H126539   6.734   1.904   6.531
 1660TIP3    H226540   6.664   2.007   6.445
 1661TIP3   OH226541   2.646   0.259   7.493
 1661TIP3    H126542   2.600   0.222   7.569
 1661TIP3    H226543   2.735   0.274   7.525
 1662TIP3   OH226544   3.483   4.615   1.327
 1662TIP3    H126545   3.455   4.637   1.239
 1662TIP3    H226546   3.574   4.646   1.333
 1663TIP3   OH226547   3.108   3.617   1.667
 1663TIP3    H126548   3.200   3.593   1.678
 1663TIP3    H226549   3.080   3.642   1.755
 1664TIP3   OH226550   1.642   6.088   1.460
 1664TIP3    H126551   1.702   6.013   1.460
 1664TIP3    H226552   1.613   6.095   1.369
 1665TIP3   OH226553   5.512   2.032   8.310
 1665TIP3    H126554   5.587   2.091   8.315
 1665TIP3    H226555   5.546   1.947   8.336
 1666TIP3   OH226556   0.580   3.495   8.102
 1666TIP3    H126557   0.638   3.540   8.040
 1666TIP3    H226558   0.509   3.462   8.048
 1667TIP3   OH226559   4.226   1.055   0.106
 1667TIP3    H126560   4.263   0.991   0.046
 1667TIP3    H226561   4.241   1.017   0.193
 1668TIP3   OH226562   6.036   6.023   0.502
 1668TIP3    H126563   6.084   5.952   0.544
 1668TIP3    H226564   5.945   5.996   0.503
 1669TIP3   OH226565   5.437   2.989   6.557
 1669TIP3    H126566   5.360   3.041   6.535
 1669TIP3    H226567   5.415   2.900   6.529
 1670TIP3   OH226568   4.324   3.031   0.886
 1670TIP3    H126569   4.262   2.972   0.844
 1670TIP3    H226570   4.273   3.111   0.902
 1671TIP3   OH226571   4.416   2.742   1.761
 1671TIP3    H126572   4.511   2.739   1.762
 1671TIP3    H226573   4.395   2.831   1.732
 1672TIP3   OH226574   6.157   0.356   7.078
 1672TIP3    H126575   6.106   0.277   7.094
 1672TIP3    H226576   6.157   0.367   6.983
 1673TIP3   OH226577   1.572   1.955   1.083
 1673TIP3    H126578   1.547   1.874   1.127
 1673TIP3    H226579   1.620   2.004   1.149
 1674TIP3   OH226580   4.688   2.962   1.656
 1674TIP3    H126581   4.627   2.994   1.723
 1674TIP3    H226582   4.699   2.869   1.676
 1675TIP3   OH226583   2.102   4.554   6.879
 1675TIP3    H126584   2.011   4.585   6.886
 1675TIP3    H226585   2.103   4.500   6.801
 1676TIP3   OH226586   2.240   1.413   1.235
 1676TIP3    H126587   2.161   1.462   1.213
 1676TIP3    H226588   2.310   1.457   1.186
 1677TIP3   OH226589   6.191   4.787   8.152
 1677TIP3    H126590   6.099   4.768   8.132
 1677TIP3    H226591   6.186   4.852   8.223
 1678TIP3   OH226592   0.854   1.198   6.917
 1678TIP3    H126593   0.920   1.164   6.856
 1678TIP3    H226594   0.827   1.282   6.879
 1679TIP3   OH226595   5.826   5.461   0.888
 1679TIP3    H126596   5.764   5.398   0.853
 1679TIP3    H226597   5.785   5.495   0.968
 1680TIP3   OH226598   3.615   4.220   8.114
 1680TIP3    H126599   3.630   4.155   8.183
 1680TIP3    H226600   3.530   4.196   8.076
 1681TIP3   OH226601   5.035   0.453   7.901
 1681TIP3    H126602   5.088   0.502   7.963
 1681TIP3    H226603   5.073   0.365   7.901
 1682TIP3   OH226604   4.605   2.635   1.118
 1682TIP3    H126605   4.538   2.698   1.090
 1682TIP3    H226606   4.600   2.636   1.214
 1683TIP3   OH226607   5.657   0.390   0.858
 1683TIP3    H126608   5.643   0.471   0.907
 1683TIP3    H226609   5.721   0.341   0.910
 1684TIP3   OH226610   2.940   3.691   0.376
 1684TIP3    H126611   2.946   3.752   0.450
 1684TIP3    H226612   2.874   3.729   0.319
 1685TIP3   OH226613   4.179   2.820   0.798
 1685TIP3    H126614   4.243   2.773   0.851
 1685TIP3    H226615   4.138   2.752   0.744
 1686TIP3   OH226616   4.766   4.161   1.895
 1686TIP3    H126617   4.721   4.079   1.918
 1686TIP3    H226618   4.773   4.208   1.978
 1687TIP3   OH226619   4.345   4.029   2.336
 1687TIP3    H126620   4.420   3.985   2.374
 1687TIP3    H226621   4.342   4.114   2.381
 1688TIP3   OH226622   3.652   5.920   0.713
 1688TIP3    H126623   3.648   5.947   0.621
 1688TIP3    H226624   3.745   5.907   0.730
 1689TIP3   OH226625   0.420   6.062   0.342
 1689TIP3    H126626   0.350   6.074   0.278
 1689TIP3    H226627   0.375   6.064   0.427
 1690TIP3   OH226628   0.950   6.610   0.340
 1690TIP3    H126629   1.045   6.614   0.337
 1690TIP3    H226630   0.930   6.572   0.425
 1691TIP3   OH226631   2.552   2.830   1.775
 1691TIP3    H126632   2.491   2.831   1.848
 1691TIP3    H226633   2.517   2.765   1.715
 1692TIP3   OH226634   5.419   5.451   0.318
 1692TIP3    H126635   5.435   5.382   0.383
 1692TIP3    H226636   5.488   5.516   0.335
 1693TIP3   OH226637   1.220   4.548   6.941
 1693TIP3    H126638   1.275   4.470   6.940
 1693TIP3    H226639   1.189   4.557   6.851
 1694TIP3   OH226640   5.446   3.768   6.940
 1694TIP3    H126641   5.395   3.823   6.999
 1694TIP3    H226642   5.424   3.799   6.853
 1695TIP3   OH226643   5.994   4.243   0.792
 1695TIP3    H126644   5.913   4.239   0.741
 1695TIP3    H226645   6.058   4.196   0.738
 1696TIP3   OH226646   5.438   3.649   1.040
 1696TIP3    H126647   5.447   3.731   0.991
 1696TIP3    H226648   5.526   3.633   1.075
 1697TIP3   OH226649   0.611   1.647   7.788
 1697TIP3    H126650   0.665   1.598   7.849
 1697TIP3    H226651   0.523   1.612   7.799
 1698TIP3   OH226652   0.126   3.680   7.593
 1698TIP3    H126653   0.212   3.700   7.629
 1698TIP3    H226654   0.072   3.661   7.669
 1699TIP3   OH226655   3.405   2.068   0.801
 1699TIP3    H126656   3.335   2.050   0.738
 1699TIP3    H226657   3.425   2.161   0.789
 1700TIP3   OH226658   5.771   0.880   7.071
 1700TIP3    H126659   5.803   0.863   6.982
 1700TIP3    H226660   5.839   0.843   7.128
 1701TIP3   OH226661   6.524   5.085   7.736
 1701TIP3    H126662   6.481   5.168   7.714
 1701TIP3    H226663   6.506   5.028   7.662
 1702TIP3   OH226664   4.349   3.311   1.219
 1702TIP3    H126665   4.294   3.246   1.263
 1702TIP3    H226666   4.438   3.278   1.231
 1703TIP3   OH226667   6.298   4.470   2.311
 1703TIP3    H126668   6.267   4.559   2.327
 1703TIP3    H226669   6.355   4.450   2.386
 1704TIP3   OH226670   5.659   0.778   3.027
 1704TIP3    H126671   5.623   0.689   3.027
 1704TIP3    H226672   5.729   0.776   3.092
 1705TIP3   OH226673   1.715   5.456   8.613
 1705TIP3    H126674   1.786   5.455   0.053
 1705TIP3    H226675   1.649   5.398   0.025
 1706TIP3   OH226676   3.917   2.150   1.952
 1706TIP3    H126677   3.994   2.122   2.003
 1706TIP3    H226678   3.843   2.126   2.007
 1707TIP3   OH226679   2.917   1.168   0.086
 1707TIP3    H126680   2.922   1.219   0.167
 1707TIP3    H226681   2.823   1.153   0.073
 1708TIP3   OH226682   4.285   3.375   6.748
 1708TIP3    H126683   4.270   3.364   6.654
 1708TIP3    H226684   4.342   3.451   6.755
 1709TIP3   OH226685   0.425   1.402   7.848
 1709TIP3    H126686   0.465   1.318   7.825
 1709TIP3    H226687   0.334   1.394   7.819
 1710TIP3   OH226688   3.737   2.062   1.663
 1710TIP3    H126689   3.703   1.997   1.725
 1710TIP3    H226690   3.732   2.145   1.711
 1711TIP3   OH226691   2.917   4.061   0.508
 1711TIP3    H126692   2.969   4.129   0.550
 1711TIP3    H226693   2.951   3.979   0.543
 1712TIP3   OH226694   2.472   1.730   8.343
 1712TIP3    H126695   2.540   1.794   8.362
 1712TIP3    H226696   2.497   1.653   8.395
 1713TIP3   OH226697   5.251   6.638   8.531
 1713TIP3    H126698   5.344   6.625   8.515
 1713TIP3    H226699   5.221   6.555   8.567
 1714TIP3   OH226700   4.705   3.607   2.081
 1714TIP3    H126701   4.687   3.635   2.171
 1714TIP3    H226702   4.627   3.558   2.055
 1715TIP3   OH226703   0.899   6.807   7.261
 1715TIP3    H126704   0.897   6.716   7.293
 1715TIP3    H226705   0.901   6.798   7.165
 1716TIP3   OH226706   1.163   4.166   8.455
 1716TIP3    H126707   1.170   4.217   8.374
 1716TIP3    H226708   1.088   4.205   8.500
 1717TIP3   OH226709   2.568   5.781   1.095
 1717TIP3    H126710   2.600   5.761   1.182
 1717TIP3    H226711   2.475   5.802   1.107
 1718TIP3   OH226712   0.329   6.326   1.166
 1718TIP3    H126713   0.290   6.244   1.195
 1718TIP3    H226714   0.255   6.384   1.151
 1719TIP3   OH226715   1.285   6.063   2.435
 1719TIP3    H126716   1.379   6.055   2.414
 1719TIP3    H226717   1.259   6.147   2.398
 1720TIP3   OH226718   2.655   2.393   0.531
 1720TIP3    H126719   2.684   2.321   0.476
 1720TIP3    H226720   2.559   2.390   0.526
 1721TIP3   OH226721   5.819   5.411   0.378
 1721TIP3    H126722   5.764   5.487   0.360
 1721TIP3    H226723   5.788   5.344   0.317
 1722TIP3   OH226724   2.628   1.122   0.044
 1722TIP3    H126725   2.661   1.046   8.620
 1722TIP3    H226726   2.533   1.119   0.032
 1723TIP3   OH226727   1.363   6.069   1.021
 1723TIP3    H126728   1.359   6.113   0.936
 1723TIP3    H226729   1.275   6.034   1.034
 1724TIP3   OH226730   5.757   0.195   7.139
 1724TIP3    H126731   5.683   0.245   7.105
 1724TIP3    H226732   5.719   0.113   7.169
 1725TIP3   OH226733   1.689   4.354   6.894
 1725TIP3    H126734   1.598   4.328   6.878
 1725TIP3    H226735   1.741   4.279   6.865
 1726TIP3   OH226736   3.019   0.193   7.028
 1726TIP3    H126737   2.931   0.227   7.011
 1726TIP3    H226738   3.048   0.155   6.945
 1727TIP3   OH226739   4.716   2.819   0.752
 1727TIP3    H126740   4.705   2.840   0.845
 1727TIP3    H226741   4.654   2.876   0.707
 1728TIP3   OH226742   0.606   1.507   2.295
 1728TIP3    H126743   0.537   1.511   2.230
 1728TIP3    H226744   0.574   1.561   2.368
 1729TIP3   OH226745   0.983   3.197   5.985
 1729TIP3    H126746   0.983   3.293   5.987
 1729TIP3    H226747   1.031   3.172   6.064
 1730TIP3   OH226748   2.250   6.754   7.648
 1730TIP3    H126749   2.231   6.846   7.668
 1730TIP3    H226750   2.292   6.757   7.562
 1731TIP3   OH226751   2.319   6.783   8.506
 1731TIP3    H126752   2.300   6.691   8.524
 1731TIP3    H226753   2.415   6.787   8.505
 1732TIP3   OH226754   0.442   3.924   8.588
 1732TIP3    H126755   0.424   3.943   0.056
 1732TIP3    H226756   0.356   3.918   8.547
 1733TIP3   OH226757   3.125   3.279   1.390
 1733TIP3    H126758   3.162   3.200   1.429
 1733TIP3    H226759   3.198   3.320   1.345
 1734TIP3   OH226760   0.073   6.016   6.644
 1734TIP3    H126761   6.878   6.051   6.596
 1734TIP3    H226762   0.120   6.093   6.676
 1735TIP3   OH226763   1.375   4.652   7.567
 1735TIP3    H126764   1.427   4.658   7.487
 1735TIP3    H226765   1.439   4.645   7.638
 1736TIP3   OH226766   3.569   6.296   1.149
 1736TIP3    H126767   3.533   6.374   1.108
 1736TIP3    H226768   3.516   6.283   1.228
 1737TIP3   OH226769   2.224   6.059   1.297
 1737TIP3    H126770   2.229   6.140   1.347
 1737TIP3    H226771   2.161   6.078   1.227
 1738TIP3   OH226772   3.211   3.824   8.097
 1738TIP3    H126773   3.204   3.731   8.121
 1738TIP3    H226774   3.180   3.871   8.174
 1739TIP3   OH226775   2.847   2.545   1.257
 1739TIP3    H126776   2.902   2.568   1.331
 1739TIP3    H226777   2.909   2.530   1.185
 1740TIP3   OH226778   1.267   5.611   6.156
 1740TIP3    H126779   1.189   5.654   6.122
 1740TIP3    H226780   1.239   5.571   6.238
 1741TIP3   OH226781   6.353   3.803   8.181
 1741TIP3    H126782   6.344   3.720   8.135
 1741TIP3    H226783   6.335   3.782   8.272
 1742TIP3   OH226784   0.089   3.959   1.637
 1742TIP3    H126785   0.034   3.941   1.713
 1742TIP3    H226786   0.089   4.054   1.630
 1743TIP3   OH226787   0.211   6.841   7.609
 1743TIP3    H126788   0.166   0.025   7.553
 1743TIP3    H226789   0.141   6.786   7.644
 1744TIP3   OH226790   1.295   0.652   8.078
 1744TIP3    H126791   1.318   0.645   7.985
 1744TIP3    H226792   1.379   0.663   8.123
 1745TIP3   OH226793   1.994   6.097   7.652
 1745TIP3    H126794   1.955   6.157   7.716
 1745TIP3    H226795   1.961   6.011   7.676
 1746TIP3   OH226796   5.407   2.016   1.208
 1746TIP3    H126797   5.345   1.959   1.253
 1746TIP3    H226798   5.392   2.000   1.115
 1747TIP3   OH226799   4.699   1.616   1.873
 1747TIP3    H126800   4.675   1.535   1.918
 1747TIP3    H226801   4.653   1.612   1.790
 1748TIP3   OH226802   6.062   5.116   2.045
 1748TIP3    H126803   6.066   5.190   2.105
 1748TIP3    H226804   6.148   5.075   2.052
 1749TIP3   OH226805   1.843   5.819   7.742
 1749TIP3    H126806   1.873   5.738   7.782
 1749TIP3    H226807   1.771   5.849   7.798
 1750TIP3   OH226808   2.239   5.674   1.490
 1750TIP3    H126809   2.239   5.595   1.544
 1750TIP3    H226810   2.242   5.642   1.400
 1751TIP3   OH226811   2.335   6.402   0.759
 1751TIP3    H126812   2.306   6.323   0.805
 1751TIP3    H226813   2.356   6.372   0.671
 1752TIP3   OH226814   5.171   1.067   0.537
 1752TIP3    H126815   5.182   1.150   0.490
 1752TIP3    H226816   5.158   1.094   0.629
 1753TIP3   OH226817   4.885   5.120   0.136
 1753TIP3    H126818   4.961   5.178   0.138
 1753TIP3    H226819   4.840   5.136   0.219
 1754TIP3   OH226820   2.494   5.798   7.052
 1754TIP3    H126821   2.510   5.868   6.989
 1754TIP3    H226822   2.576   5.749   7.055
 1755TIP3   OH226823   5.089   0.172   8.529
 1755TIP3    H126824   5.172   0.210   8.558
 1755TIP3    H226825   5.032   0.177   8.605
 1756TIP3   OH226826   5.669   5.888   1.612
 1756TIP3    H126827   5.651   5.907   1.704
 1756TIP3    H226828   5.700   5.797   1.612
 1757TIP3   OH226829   5.374   1.834   7.163
 1757TIP3    H126830   5.460   1.874   7.156
 1757TIP3    H226831   5.356   1.801   7.075
 1758TIP3   OH226832   0.972   2.091   7.131
 1758TIP3    H126833   0.886   2.057   7.155
 1758TIP3    H226834   0.971   2.182   7.162
 1759TIP3   OH226835   4.262   4.321   0.520
 1759TIP3    H126836   4.252   4.407   0.560
 1759TIP3    H226837   4.200   4.265   0.568
 1760TIP3   OH226838   5.875   3.018   1.358
 1760TIP3    H126839   5.787   2.982   1.350
 1760TIP3    H226840   5.869   3.083   1.427
 1761TIP3   OH226841   0.794   1.041   8.008
 1761TIP3    H126842   0.880   1.068   7.976
 1761TIP3    H226843   0.739   1.118   7.995
 1762TIP3   OH226844   5.097   2.247   7.442
 1762TIP3    H126845   5.079   2.320   7.501
 1762TIP3    H226846   5.187   2.221   7.462
 1763TIP3   OH226847   0.117   5.054   7.382
 1763TIP3    H126848   0.037   5.105   7.382
 1763TIP3    H226849   0.110   4.997   7.459
 1764TIP3   OH226850   4.267   1.834   0.337
 1764TIP3    H126851   4.174   1.828   0.360
 1764TIP3    H226852   4.301   1.905   0.391
 1765TIP3   OH226853   5.904   5.504   8.124
 1765TIP3    H126854   5.972   5.570   8.114
 1765TIP3    H226855   5.925   5.437   8.060
 1766TIP3   OH226856   4.377   5.452   8.143
 1766TIP3    H126857   4.415   5.421   8.225
 1766TIP3    H226858   4.289   5.480   8.166
 1767TIP3   OH226859   1.185   0.001   1.368
 1767TIP3    H126860   1.191   6.845   1.457
 1767TIP3    H226861   1.170   6.803   1.313
 1768TIP3   OH226862   6.049   2.858   0.238
 1768TIP3    H126863   5.980   2.908   0.193
 1768TIP3    H226864   6.127   2.913   0.229
 1769TIP3   OH226865   0.899   4.655   1.536
 1769TIP3    H126866   0.903   4.616   1.624
 1769TIP3    H226867   0.923   4.583   1.477
 1770TIP3   OH226868   1.452   3.128   6.210
 1770TIP3    H126869   1.510   3.052   6.203
 1770TIP3    H226870   1.491   3.194   6.152
 1771TIP3   OH226871   0.497   3.824   7.390
 1771TIP3    H126872   0.560   3.778   7.335
 1771TIP3    H226873   0.514   3.917   7.374
 1772TIP3   OH226874   3.759   0.057   8.500
 1772TIP3    H126875   3.756   0.143   8.458
 1772TIP3    H226876   3.825   0.067   8.569
 1773TIP3   OH226877   0.151   3.578   8.199
 1773TIP3    H126878   0.204   3.517   8.250
 1773TIP3    H226879   0.124   3.646   8.261
 1774TIP3   OH226880   3.005   0.314   0.623
 1774TIP3    H126881   3.036   0.355   0.703
 1774TIP3    H226882   2.995   0.222   0.646
 1775TIP3   OH226883   0.854   5.375   8.021
 1775TIP3    H126884   0.878   5.284   8.039
 1775TIP3    H226885   0.926   5.410   7.969
 1776TIP3   OH226886   4.833   3.366   8.619
 1776TIP3    H126887   4.844   3.455   0.030
 1776TIP3    H226888   4.871   3.309   0.062
 1777TIP3   OH226889   0.381   4.566   8.401
 1777TIP3    H126890   0.441   4.501   8.437
 1777TIP3    H226891   0.362   4.535   8.312
 1778TIP3   OH226892   3.796   4.817   8.198
 1778TIP3    H126893   3.835   4.732   8.219
 1778TIP3    H226894   3.868   4.867   8.160
 1779TIP3   OH226895   1.252   6.739   1.608
 1779TIP3    H126896   1.278   6.654   1.645
 1779TIP3    H226897   1.205   6.783   1.679
 1780TIP3   OH226898   5.069   0.379   0.837
 1780TIP3    H126899   5.165   0.385   0.837
 1780TIP3    H226900   5.043   0.407   0.925
 1781TIP3   OH226901   6.014   2.530   1.298
 1781TIP3    H126902   5.926   2.497   1.281
 1781TIP3    H226903   6.058   2.526   1.212
 1782TIP3   OH226904   3.176   0.835   0.247
 1782TIP3    H126905   3.205   0.767   0.308
 1782TIP3    H226906   3.106   0.794   0.197
 1783TIP3   OH226907   3.654   3.364   1.861
 1783TIP3    H126908   3.700   3.343   1.780
 1783TIP3    H226909   3.705   3.436   1.899
 1784TIP3   OH226910   4.462   0.658   7.728
 1784TIP3    H126911   4.485   0.585   7.786
 1784TIP3    H226912   4.366   0.654   7.722
 1785TIP3   OH226913   2.174   3.811   6.871
 1785TIP3    H126914   2.161   3.904   6.887
 1785TIP3    H226915   2.219   3.807   6.786
 1786TIP3   OH226916   1.369   4.318   6.970
 1786TIP3    H126917   1.365   4.251   7.037
 1786TIP3    H226918   1.367   4.270   6.887
 1787TIP3   OH226919   3.437   1.291   0.112
 1787TIP3    H126920   3.477   1.252   0.034
 1787TIP3    H226921   3.501   1.276   0.182
 1788TIP3   OH226922   2.657   3.693   1.614
 1788TIP3    H126923   2.586   3.753   1.633
 1788TIP3    H226924   2.735   3.735   1.649
 1789TIP3   OH226925   4.907   3.277   1.237
 1789TIP3    H126926   4.912   3.299   1.330
 1789TIP3    H226927   4.876   3.187   1.235
 1790TIP3   OH226928   3.176   1.004   0.491
 1790TIP3    H126929   3.207   0.923   0.451
 1790TIP3    H226930   3.182   1.069   0.421
 1791TIP3   OH226931   4.991   2.607   7.252
 1791TIP3    H126932   4.982   2.512   7.243
 1791TIP3    H226933   5.084   2.621   7.271
 1792TIP3   OH226934   3.253   1.206   0.315
 1792TIP3    H126935   3.289   1.199   0.227
 1792TIP3    H226936   3.172   1.255   0.304
 1793TIP3   OH226937   6.414   6.839   2.006
 1793TIP3    H126938   6.352   6.850   2.078
 1793TIP3    H226939   6.500   6.837   2.049
 1794TIP3   OH226940   2.431   2.708   0.514
 1794TIP3    H126941   2.421   2.721   0.419
 1794TIP3    H226942   2.499   2.770   0.539
 1795TIP3   OH226943   4.277   4.333   7.691
 1795TIP3    H126944   4.333   4.257   7.675
 1795TIP3    H226945   4.192   4.309   7.653
 1796TIP3   OH226946   1.544   6.703   2.084
 1796TIP3    H126947   1.577   6.790   2.103
 1796TIP3    H226948   1.450   6.715   2.071
 1797TIP3   OH226949   4.873   3.594   0.165
 1797TIP3    H126950   4.823   3.625   0.241
 1797TIP3    H226951   4.934   3.530   0.201
 1798TIP3   OH226952   3.336   1.219   1.230
 1798TIP3    H126953   3.292   1.233   1.147
 1798TIP3    H226954   3.326   1.301   1.278
 1799TIP3   OH226955   2.870   5.849   2.279
 1799TIP3    H126956   2.862   5.819   2.369
 1799TIP3    H226957   2.902   5.773   2.230
 1800TIP3   OH226958   0.306   0.544   7.133
 1800TIP3    H126959   0.230   0.497   7.097
 1800TIP3    H226960   0.290   0.546   7.227
 1801TIP3   OH226961   3.782   4.691   7.123
 1801TIP3    H126962   3.768   4.605   7.083
 1801TIP3    H226963   3.788   4.751   7.049
 1802TIP3   OH226964   1.953   2.010   8.425
 1802TIP3    H126965   1.918   2.081   8.480
 1802TIP3    H226966   1.884   1.995   8.360
 1803TIP3   OH226967   6.025   5.403   7.766
 1803TIP3    H126968   6.040   5.318   7.808
 1803TIP3    H226969   6.108   5.450   7.777
 1804TIP3   OH226970   5.214   3.390   1.370
 1804TIP3    H126971   5.307   3.412   1.375
 1804TIP3    H226972   5.192   3.401   1.278
 1805TIP3   OH226973   6.003   4.863   0.644
 1805TIP3    H126974   6.002   4.849   0.549
 1805TIP3    H226975   6.019   4.956   0.654
 1806TIP3   OH226976   0.536   5.973   7.227
 1806TIP3    H126977   0.470   6.035   7.196
 1806TIP3    H226978   0.501   5.887   7.206
 1807TIP3   OH226979   2.331   4.091   0.781
 1807TIP3    H126980   2.342   4.182   0.808
 1807TIP3    H226981   2.288   4.049   0.856
 1808TIP3   OH226982   1.182   4.098   1.237
 1808TIP3    H126983   1.190   4.193   1.232
 1808TIP3    H226984   1.179   4.070   1.145
 1809TIP3   OH226985   4.268   4.735   7.340
 1809TIP3    H126986   4.177   4.727   7.313
 1809TIP3    H226987   4.296   4.821   7.309
 1810TIP3   OH226988   3.175   1.614   8.000
 1810TIP3    H126989   3.117   1.539   7.994
 1810TIP3    H226990   3.253   1.581   8.046
 1811TIP3   OH226991   0.589   0.702   8.276
 1811TIP3    H126992   0.574   0.685   8.369
 1811TIP3    H226993   0.570   0.795   8.264
 1812TIP3   OH226994   3.982   0.057   1.284
 1812TIP3    H126995   3.920   0.027   1.218
 1812TIP3    H226996   4.068   0.044   1.244
 1813TIP3   OH226997   2.969   1.962   1.600
 1813TIP3    H126998   2.896   2.021   1.619
 1813TIP3    H226999   2.974   1.904   1.675
 1814TIP3   OH227000   6.707   2.693   7.202
 1814TIP3    H127001   6.685   2.744   7.124
 1814TIP3    H227002   6.641   2.624   7.205
 1815TIP3   OH227003   4.321   0.457   7.280
 1815TIP3    H127004   4.274   0.522   7.333
 1815TIP3    H227005   4.255   0.421   7.221
 1816TIP3   OH227006   1.856   2.408   0.512
 1816TIP3    H127007   1.940   2.362   0.508
 1816TIP3    H227008   1.861   2.460   0.593
 1817TIP3   OH227009   5.094   3.628   6.586
 1817TIP3    H127010   5.061   3.708   6.625
 1817TIP3    H227011   5.173   3.608   6.636
 1818TIP3   OH227012   1.309   0.002   0.440
 1818TIP3    H127013   1.352   6.855   0.358
 1818TIP3    H227014   1.229   0.045   0.412
 1819TIP3   OH227015   4.086   4.698   6.186
 1819TIP3    H127016   4.019   4.631   6.202
 1819TIP3    H227017   4.169   4.651   6.192
 1820TIP3   OH227018   5.658   2.602   8.061
 1820TIP3    H127019   5.662   2.568   7.972
 1820TIP3    H227020   5.571   2.578   8.092
 1821TIP3   OH227021   6.865   5.999   2.294
 1821TIP3    H127022   0.075   5.965   2.289
 1821TIP3    H227023   6.870   6.086   2.254
 1822TIP3   OH227024   0.031   4.260   8.046
 1822TIP3    H127025   0.108   4.210   8.073
 1822TIP3    H227026   6.837   4.215   8.087
 1823TIP3   OH227027   2.209   6.304   6.928
 1823TIP3    H127028   2.251   6.377   6.882
 1823TIP3    H227029   2.280   6.241   6.942
 1824TIP3   OH227030   6.101   5.714   7.707
 1824TIP3    H127031   6.116   5.808   7.703
 1824TIP3    H227032   6.006   5.705   7.717
 1825TIP3   OH227033   4.518   4.857   7.465
 1825TIP3    H127034   4.551   4.938   7.426
 1825TIP3    H227035   4.533   4.791   7.398
 1826TIP3   OH227036   4.926   0.709   1.290
 1826TIP3    H127037   4.928   0.743   1.379
 1826TIP3    H227038   4.862   0.763   1.244
 1827TIP3   OH227039   2.379   2.811   0.267
 1827TIP3    H127040   2.439   2.874   0.228
 1827TIP3    H227041   2.370   2.742   0.201
 1828TIP3   OH227042   3.404   5.749   7.373
 1828TIP3    H127043   3.405   5.699   7.292
 1828TIP3    H227044   3.496   5.757   7.398
 1829TIP3   OH227045   2.957   0.863   7.700
 1829TIP3    H127046   2.868   0.888   7.725
 1829TIP3    H227047   2.987   0.933   7.643
 1830TIP3   OH227048   6.189   1.615   7.803
 1830TIP3    H127049   6.223   1.657   7.724
 1830TIP3    H227050   6.113   1.565   7.773
 1831TIP3   OH227051   3.165   3.129   1.140
 1831TIP3    H127052   3.186   3.113   1.232
 1831TIP3    H227053   3.070   3.130   1.136
 1832TIP3   OH227054   4.061   4.953   0.646
 1832TIP3    H127055   3.986   5.012   0.638
 1832TIP3    H227056   4.078   4.924   0.556
 1833TIP3   OH227057   1.577   0.810   7.115
 1833TIP3    H127058   1.507   0.776   7.060
 1833TIP3    H227059   1.544   0.894   7.148
 1834TIP3   OH227060   5.153   0.665   7.507
 1834TIP3    H127061   5.092   0.594   7.525
 1834TIP3    H227062   5.219   0.659   7.577
 1835TIP3   OH227063   3.077   6.167   1.978
 1835TIP3    H127064   2.997   6.153   2.028
 1835TIP3    H227065   3.110   6.079   1.960
 1836TIP3   OH227066   2.404   6.463   8.140
 1836TIP3    H127067   2.372   6.382   8.179
 1836TIP3    H227068   2.483   6.437   8.093
 1837TIP3   OH227069   0.839   1.461   0.803
 1837TIP3    H127070   0.761   1.475   0.858
 1837TIP3    H227071   0.871   1.549   0.785
 1838TIP3   OH227072   0.209   6.570   7.922
 1838TIP3    H127073   0.144   6.617   7.870
 1838TIP3    H227074   0.283   6.630   7.929
 1839TIP3   OH227075   5.164   0.799   8.300
 1839TIP3    H127076   5.094   0.832   8.356
 1839TIP3    H227077   5.199   0.723   8.348
 1840TIP3   OH227078   2.166   1.250   1.013
 1840TIP3    H127079   2.215   1.301   0.949
 1840TIP3    H227080   2.187   1.292   1.097
 1841TIP3   OH227081   1.647   2.930   6.233
 1841TIP3    H127082   1.624   2.912   6.324
 1841TIP3    H227083   1.639   2.846   6.189
 1842TIP3   OH227084   5.188   2.120   6.928
 1842TIP3    H127085   5.156   2.147   6.842
 1842TIP3    H227086   5.220   2.202   6.968
 1843TIP3   OH227087   5.788   5.943   0.142
 1843TIP3    H127088   5.716   5.929   0.204
 1843TIP3    H227089   5.745   5.966   0.060
 1844TIP3   OH227090   4.418   6.659   7.710
 1844TIP3    H127091   4.370   6.642   7.629
 1844TIP3    H227092   4.484   6.590   7.714
 1845TIP3   OH227093   0.199   1.805   7.477
 1845TIP3    H127094   0.161   1.890   7.501
 1845TIP3    H227095   0.201   1.806   7.381
 1846TIP3   OH227096   0.814   6.472   1.194
 1846TIP3    H127097   0.876   6.464   1.266
 1846TIP3    H227098   0.797   6.566   1.187
 1847TIP3   OH227099   5.961   6.540   1.688
 1847TIP3    H127100   5.968   6.461   1.741
 1847TIP3    H227101   5.868   6.544   1.664
 1848TIP3   OH227102   3.047   6.482   0.909
 1848TIP3    H127103   3.045   6.438   0.994
 1848TIP3    H227104   3.059   6.412   0.846
 1849TIP3   OH227105   1.069   5.428   0.420
 1849TIP3    H127106   1.045   5.439   0.328
 1849TIP3    H227107   0.998   5.377   0.457
 1850TIP3   OH227108   1.770   3.597   1.241
 1850TIP3    H127109   1.854   3.632   1.271
 1850TIP3    H227110   1.730   3.668   1.192
 1851TIP3   OH227111   4.790   6.558   1.888
 1851TIP3    H127112   4.751   6.496   1.827
 1851TIP3    H227113   4.765   6.525   1.974
 1852TIP3   OH227114   0.433   2.068   7.814
 1852TIP3    H127115   0.478   2.108   7.889
 1852TIP3    H227116   0.396   1.987   7.849
 1853TIP3   OH227117   1.678   3.774   8.499
 1853TIP3    H127118   1.661   3.736   8.585
 1853TIP3    H227119   1.714   3.861   8.518
 1854TIP3   OH227120   0.032   6.769   8.023
 1854TIP3    H127121   0.047   6.850   8.071
 1854TIP3    H227122   6.817   6.754   8.029
 1855TIP3   OH227123   1.501   5.307   0.094
 1855TIP3    H127124   1.477   5.332   0.183
 1855TIP3    H227125   1.418   5.296   0.049
 1856TIP3   OH227126   2.891   3.826   1.738
 1856TIP3    H127127   2.851   3.885   1.802
 1856TIP3    H227128   2.926   3.754   1.790
 1857TIP3   OH227129   2.897   5.885   0.121
 1857TIP3    H127130   2.915   5.812   0.060
 1857TIP3    H227131   2.861   5.954   0.065
 1858TIP3   OH227132   6.469   0.452   8.353
 1858TIP3    H127133   6.380   0.462   8.319
 1858TIP3    H227134   6.513   0.533   8.328
 1859TIP3   OH227135   6.177   6.783   1.006
 1859TIP3    H127136   6.179   6.722   1.079
 1859TIP3    H227137   6.202   6.867   1.044
 1860TIP3   OH227138   1.901   5.904   1.182
 1860TIP3    H127139   1.854   5.842   1.238
 1860TIP3    H227140   1.881   5.990   1.219
 1861TIP3   OH227141   3.908   6.645   0.571
 1861TIP3    H127142   3.908   6.706   0.645
 1861TIP3    H227143   3.844   6.682   0.510
 1862TIP3   OH227144   4.650   2.670   8.382
 1862TIP3    H127145   4.691   2.681   8.296
 1862TIP3    H227146   4.626   2.577   8.385
 1863TIP3   OH227147   3.133   0.623   6.270
 1863TIP3    H127148   3.174   0.689   6.215
 1863TIP3    H227149   3.065   0.670   6.318
 1864TIP3   OH227150   0.588   6.277   0.596
 1864TIP3    H127151   0.603   6.183   0.610
 1864TIP3    H227152   0.640   6.320   0.664
 1865TIP3   OH227153   4.322   3.363   6.464
 1865TIP3    H127154   4.382   3.293   6.491
 1865TIP3    H227155   4.262   3.321   6.403
 1866TIP3   OH227156   5.236   5.247   8.328
 1866TIP3    H127157   5.147   5.234   8.295
 1866TIP3    H227158   5.224   5.282   8.417
 1867TIP3   OH227159   5.470   3.637   8.485
 1867TIP3    H127160   5.374   3.645   8.490
 1867TIP3    H227161   5.484   3.564   8.425
 1868TIP3   OH227162   2.991   3.012   6.182
 1868TIP3    H127163   3.048   3.067   6.236
 1868TIP3    H227164   2.907   3.012   6.228
 1869TIP3   OH227165   2.946   6.065   7.520
 1869TIP3    H127166   2.941   6.079   7.426
 1869TIP3    H227167   3.014   5.998   7.531
 1870TIP3   OH227168   0.626   0.215   8.254
 1870TIP3    H127169   0.697   0.223   8.191
 1870TIP3    H227170   0.670   0.219   8.340
 1871TIP3   OH227171   1.372   4.973   1.734
 1871TIP3    H127172   1.410   4.887   1.751
 1871TIP3    H227173   1.361   4.976   1.639
 1872TIP3   OH227174   0.203   6.256   6.681
 1872TIP3    H127175   0.237   6.225   6.597
 1872TIP3    H227176   0.177   6.347   6.664
 1873TIP3   OH227177   5.270   3.702   1.340
 1873TIP3    H127178   5.321   3.778   1.312
 1873TIP3    H227179   5.181   3.737   1.351
 1874TIP3   OH227180   1.068   3.433   2.385
 1874TIP3    H127181   1.043   3.402   2.472
 1874TIP3    H227182   0.986   3.465   2.347
 1875TIP3   OH227183   1.628   5.874   6.945
 1875TIP3    H127184   1.547   5.856   6.992
 1875TIP3    H227185   1.695   5.876   7.013
 1876TIP3   OH227186   3.712   4.172   1.345
 1876TIP3    H127187   3.631   4.163   1.296
 1876TIP3    H227188   3.727   4.086   1.384
 1877TIP3   OH227189   2.447   3.521   6.560
 1877TIP3    H127190   2.417   3.608   6.536
 1877TIP3    H227191   2.496   3.490   6.483
 1878TIP3   OH227192   6.040   3.328   0.359
 1878TIP3    H127193   6.039   3.418   0.393
 1878TIP3    H227194   5.976   3.282   0.413
 1879TIP3   OH227195   3.358   1.138   7.950
 1879TIP3    H127196   3.373   1.152   8.043
 1879TIP3    H227197   3.298   1.207   7.924
 1880TIP3   OH227198   1.889   4.535   0.059
 1880TIP3    H127199   1.957   4.599   0.080
 1880TIP3    H227200   1.815   4.587   0.030
 1881TIP3   OH227201   1.838   2.503   0.178
 1881TIP3    H127202   1.775   2.478   0.244
 1881TIP3    H227203   1.830   2.599   0.171
 1882TIP3   OH227204   0.522   1.435   1.710
 1882TIP3    H127205   0.538   1.524   1.681
 1882TIP3    H227206   0.588   1.419   1.778
 1883TIP3   OH227207   3.504   2.812   1.239
 1883TIP3    H127208   3.427   2.857   1.207
 1883TIP3    H227209   3.507   2.832   1.333
 1884TIP3   OH227210   3.224   3.122   1.896
 1884TIP3    H127211   3.284   3.194   1.915
 1884TIP3    H227212   3.159   3.160   1.837
 1885TIP3   OH227213   4.476   3.229   2.338
 1885TIP3    H127214   4.541   3.245   2.406
 1885TIP3    H227215   4.490   3.138   2.312
 1886TIP3   OH227216   0.001   3.811   0.562
 1886TIP3    H127217   0.021   3.718   0.575
 1886TIP3    H227218   0.084   3.855   0.578
 1887TIP3   OH227219   3.151   3.988   1.799
 1887TIP3    H127220   3.091   3.994   1.873
 1887TIP3    H227221   3.208   3.914   1.819
 1888TIP3   OH227222   3.258   3.455   8.141
 1888TIP3    H127223   3.229   3.496   8.222
 1888TIP3    H227224   3.178   3.444   8.090
 1889TIP3   OH227225   2.840   0.988   0.381
 1889TIP3    H127226   2.924   0.956   0.349
 1889TIP3    H227227   2.837   0.960   0.473
 1890TIP3   OH227228   1.745   1.254   8.327
 1890TIP3    H127229   1.803   1.328   8.344
 1890TIP3    H227230   1.697   1.241   8.409
 1891TIP3   OH227231   4.876   1.481   8.576
 1891TIP3    H127232   4.786   1.475   8.608
 1891TIP3    H227233   4.928   1.497   0.030
 1892TIP3   OH227234   4.967   3.440   7.016
 1892TIP3    H127235   5.037   3.454   7.079
 1892TIP3    H227236   5.010   3.403   6.939
 1893TIP3   OH227237   2.858   6.270   1.475
 1893TIP3    H127238   2.907   6.352   1.472
 1893TIP3    H227239   2.839   6.257   1.568
 1894TIP3   OH227240   4.286   4.319   8.251
 1894TIP3    H127241   4.335   4.395   8.220
 1894TIP3    H227242   4.349   4.246   8.244
 1895TIP3   OH227243   5.300   3.749   6.345
 1895TIP3    H127244   5.261   3.832   6.375
 1895TIP3    H227245   5.228   3.686   6.349
 1896TIP3   OH227246   2.384   2.716   7.286
 1896TIP3    H127247   2.337   2.701   7.204
 1896TIP3    H227248   2.396   2.811   7.290
 1897TIP3   OH227249   4.978   6.431   0.277
 1897TIP3    H127250   5.037   6.497   0.315
 1897TIP3    H227251   4.960   6.371   0.349
 1898TIP3   OH227252   3.240   2.678   8.321
 1898TIP3    H127253   3.269   2.587   8.319
 1898TIP3    H227254   3.155   2.676   8.363
 1899TIP3   OH227255   4.940   3.480   6.412
 1899TIP3    H127256   4.996   3.522   6.478
 1899TIP3    H227257   4.971   3.516   6.328
 1900TIP3   OH227258   3.737   1.003   0.577
 1900TIP3    H127259   3.667   0.995   0.512
 1900TIP3    H227260   3.766   1.094   0.569
 1901TIP3   OH227261   1.589   0.378   7.610
 1901TIP3    H127262   1.611   0.379   7.517
 1901TIP3    H227263   1.592   0.469   7.637
 1902TIP3   OH227264   2.881   5.945   7.789
 1902TIP3    H127265   2.842   5.983   7.711
 1902TIP3    H227266   2.806   5.922   7.844
 1903TIP3   OH227267   0.802   2.915   6.804
 1903TIP3    H127268   0.857   2.837   6.810
 1903TIP3    H227269   0.771   2.916   6.713
 1904TIP3   OH227270   1.427   5.517   8.052
 1904TIP3    H127271   1.484   5.521   8.129
 1904TIP3    H227272   1.429   5.606   8.016
 1905TIP3   OH227273   6.532   6.472   8.563
 1905TIP3    H127274   6.567   6.494   0.025
 1905TIP3    H227275   6.475   6.546   8.540
 1906TIP3   OH227276   5.705   6.206   8.097
 1906TIP3    H127277   5.610   6.220   8.091
 1906TIP3    H227278   5.721   6.131   8.040
 1907TIP3   OH227279   0.601   2.650   8.566
 1907TIP3    H127280   0.625   2.740   8.543
 1907TIP3    H227281   0.657   2.629   0.017
 1908TIP3   OH227282   4.104   1.751   1.330
 1908TIP3    H127283   4.052   1.737   1.409
 1908TIP3    H227284   4.071   1.833   1.294
 1909TIP3   OH227285   3.337   1.645   8.462
 1909TIP3    H127286   3.406   1.586   8.431
 1909TIP3    H227287   3.378   1.731   8.461
 1910TIP3   OH227288   6.795   2.186   1.568
 1910TIP3    H127289   6.776   2.268   1.522
 1910TIP3    H227290   0.002   2.201   1.607
 1911TIP3   OH227291   4.999   0.328   1.412
 1911TIP3    H127292   4.946   0.382   1.470
 1911TIP3    H227293   4.970   0.238   1.430
 1912TIP3   OH227294   3.304   1.595   0.959
 1912TIP3    H127295   3.312   1.681   1.001
 1912TIP3    H227296   3.237   1.607   0.892
 1913TIP3   OH227297   1.723   0.560   0.084
 1913TIP3    H127298   1.698   0.640   0.037
 1913TIP3    H227299   1.716   0.491   0.018
 1914TIP3   OH227300   5.726   5.828   8.358
 1914TIP3    H127301   5.701   5.742   8.326
 1914TIP3    H227302   5.821   5.833   8.341
 1915TIP3   OH227303   4.652   2.292   0.259
 1915TIP3    H127304   4.680   2.305   0.350
 1915TIP3    H227305   4.559   2.311   0.260
 1916TIP3   OH227306   3.302   0.599   2.005
 1916TIP3    H127307   3.289   0.567   2.095
 1916TIP3    H227308   3.334   0.523   1.957
 1917TIP3   OH227309   4.845   3.627   7.967
 1917TIP3    H127310   4.841   3.533   7.946
 1917TIP3    H227311   4.897   3.665   7.896
 1918TIP3   OH227312   6.107   1.515   8.171
 1918TIP3    H127313   6.103   1.494   8.264
 1918TIP3    H227314   6.100   1.610   8.167
 1919TIP3   OH227315   3.662   5.886   7.110
 1919TIP3    H127316   3.636   5.937   7.034
 1919TIP3    H227317   3.643   5.942   7.185
 1920TIP3   OH227318   6.603   3.022   8.130
 1920TIP3    H127319   6.519   2.981   8.113
 1920TIP3    H227320   6.614   3.017   8.225
 1921TIP3   OH227321   0.616   5.478   1.630
 1921TIP3    H127322   0.624   5.503   1.538
 1921TIP3    H227323   0.648   5.553   1.679
 1922TIP3   OH227324   1.732   2.225   1.626
 1922TIP3    H127325   1.640   2.213   1.650
 1922TIP3    H227326   1.763   2.136   1.607
 1923TIP3   OH227327   5.757   4.308   0.708
 1923TIP3    H127328   5.687   4.274   0.764
 1923TIP3    H227329   5.760   4.402   0.728
 1924TIP3   OH227330   2.410   3.607   0.068
 1924TIP3    H127331   2.480   3.548   0.096
 1924TIP3    H227332   2.331   3.552   0.068
 1925TIP3   OH227333   6.781   5.383   0.613
 1925TIP3    H127334   6.853   5.441   0.589
 1925TIP3    H227335   6.824   5.300   0.637
 1926TIP3   OH227336   6.369   0.412   1.133
 1926TIP3    H127337   6.345   0.451   1.217
 1926TIP3    H227338   6.422   0.336   1.157
 1927TIP3   OH227339   4.504   0.353   2.269
 1927TIP3    H127340   4.550   0.380   2.349
 1927TIP3    H227341   4.571   0.309   2.217
 1928TIP3   OH227342   2.852   2.713   8.472
 1928TIP3    H127343   2.840   2.808   8.461
 1928TIP3    H227344   2.841   2.699   8.566
 1929TIP3   OH227345   1.291   4.781   7.036
 1929TIP3    H127346   1.234   4.821   6.970
 1929TIP3    H227347   1.263   4.690   7.040
 1930TIP3   OH227348   2.134   0.990   7.749
 1930TIP3    H127349   2.138   0.928   7.822
 1930TIP3    H227350   2.210   0.968   7.695
 1931TIP3   OH227351   0.062   2.018   1.290
 1931TIP3    H127352   0.111   2.004   1.371
 1931TIP3    H227353   0.019   2.102   1.302
 1932TIP3   OH227354   0.305   1.842   0.525
 1932TIP3    H127355   0.262   1.903   0.585
 1932TIP3    H227356   0.296   1.757   0.567
 1933TIP3   OH227357   6.535   6.152   1.633
 1933TIP3    H127358   6.530   6.218   1.702
 1933TIP3    H227359   6.598   6.188   1.570
 1934TIP3   OH227360   4.625   2.304   1.144
 1934TIP3    H127361   4.707   2.272   1.106
 1934TIP3    H227362   4.588   2.228   1.190
 1935TIP3   OH227363   4.205   2.996   8.323
 1935TIP3    H127364   4.271   2.978   8.389
 1935TIP3    H227365   4.225   3.084   8.291
 1936TIP3   OH227366   3.620   5.807   6.733
 1936TIP3    H127367   3.694   5.846   6.688
 1936TIP3    H227368   3.593   5.734   6.676
 1937TIP3   OH227369   4.655   6.636   7.984
 1937TIP3    H127370   4.744   6.611   7.960
 1937TIP3    H227371   4.599   6.576   7.934
 1938TIP3   OH227372   2.426   3.026   0.812
 1938TIP3    H127373   2.374   3.091   0.766
 1938TIP3    H227374   2.491   2.996   0.748
 1939TIP3   OH227375   5.898   4.088   7.472
 1939TIP3    H127376   5.849   4.168   7.453
 1939TIP3    H227377   5.966   4.115   7.532
 1940TIP3   OH227378   6.222   6.861   0.102
 1940TIP3    H127379   6.193   0.073   0.103
 1940TIP3    H227380   6.146   6.813   0.068
 1941TIP3   OH227381   3.972   1.141   1.409
 1941TIP3    H127382   3.963   1.236   1.397
 1941TIP3    H227383   4.012   1.110   1.327
 1942TIP3   OH227384   0.489   6.321   7.936
 1942TIP3    H127385   0.574   6.362   7.953
 1942TIP3    H227386   0.449   6.310   8.022
 1943TIP3   OH227387   3.601   4.301   7.344
 1943TIP3    H127388   3.643   4.342   7.419
 1943TIP3    H227389   3.527   4.253   7.381
 1944TIP3   OH227390   2.394   6.182   0.111
 1944TIP3    H127391   2.456   6.115   0.141
 1944TIP3    H227392   2.449   6.258   0.091
 1945TIP3   OH227393   6.486   4.514   1.340
 1945TIP3    H127394   6.544   4.445   1.308
 1945TIP3    H227395   6.449   4.553   1.261
 1946TIP3   OH227396   1.700   0.518   0.660
 1946TIP3    H127397   1.744   0.529   0.575
 1946TIP3    H227398   1.606   0.522   0.639
 1947TIP3   OH227399   0.067   0.465   7.000
 1947TIP3    H127400   0.094   0.557   6.990
 1947TIP3    H227401   0.098   0.422   6.921
 1948TIP3   OH227402   5.097   1.786   7.503
 1948TIP3    H127403   5.162   1.841   7.460
 1948TIP3    H227404   5.060   1.841   7.572
 1949TIP3   OH227405   4.803   3.829   1.952
 1949TIP3    H127406   4.767   3.887   2.019
 1949TIP3    H227407   4.767   3.743   1.974
 1950TIP3   OH227408   2.187   1.886   7.251
 1950TIP3    H127409   2.179   1.793   7.271
 1950TIP3    H227410   2.281   1.900   7.238
 1951TIP3   OH227411   4.732   5.790   7.297
 1951TIP3    H127412   4.716   5.858   7.232
 1951TIP3    H227413   4.646   5.773   7.337
 1952TIP3   OH227414   5.675   3.295   0.785
 1952TIP3    H127415   5.587   3.315   0.816
 1952TIP3    H227416   5.730   3.364   0.821
 1953TIP3   OH227417   1.923   5.558   0.138
 1953TIP3    H127418   1.948   5.511   0.218
 1953TIP3    H227419   1.841   5.601   0.160
 1954TIP3   OH227420   5.002   0.844   2.191
 1954TIP3    H127421   5.079   0.788   2.199
 1954TIP3    H227422   4.928   0.783   2.196
 1955TIP3   OH227423   1.616   0.320   1.165
 1955TIP3    H127424   1.602   0.371   1.086
 1955TIP3    H227425   1.610   0.229   1.135
 1956TIP3   OH227426   0.315   2.159   7.548
 1956TIP3    H127427   0.342   2.113   7.469
 1956TIP3    H227428   0.336   2.099   7.620
 1957TIP3   OH227429   1.797   2.140   8.623
 1957TIP3    H127430   1.736   2.121   0.071
 1957TIP3    H227431   1.759   2.216   8.579
 1958TIP3   OH227432   4.374   4.193   1.926
 1958TIP3    H127433   4.416   4.108   1.912
 1958TIP3    H227434   4.297   4.173   1.979
 1959TIP3   OH227435   3.170   2.622   0.941
 1959TIP3    H127436   3.152   2.680   1.016
 1959TIP3    H227437   3.263   2.600   0.950
 1960TIP3   OH227438   3.201   1.936   7.345
 1960TIP3    H127439   3.283   1.888   7.359
 1960TIP3    H227440   3.224   2.005   7.282
 1961TIP3   OH227441   0.116   5.147   7.908
 1961TIP3    H127442   0.040   5.184   7.952
 1961TIP3    H227443   0.106   5.172   7.816
 1962TIP3   OH227444   0.888   2.665   8.291
 1962TIP3    H127445   0.919   2.700   8.375
 1962TIP3    H227446   0.793   2.663   8.299
 1963TIP3   OH227447   5.403   4.757   0.337
 1963TIP3    H127448   5.464   4.823   0.370
 1963TIP3    H227449   5.451   4.675   0.344
 1964TIP3   OH227450   3.417   3.013   2.154
 1964TIP3    H127451   3.342   2.969   2.194
 1964TIP3    H227452   3.431   3.090   2.209
 1965TIP3   OH227453   5.326   3.483   7.760
 1965TIP3    H127454   5.275   3.405   7.781
 1965TIP3    H227455   5.306   3.545   7.831
 1966TIP3   OH227456   0.354   2.981   7.301
 1966TIP3    H127457   0.260   2.963   7.302
 1966TIP3    H227458   0.381   2.964   7.210
 1967TIP3   OH227459   1.183   5.734   0.357
 1967TIP3    H127460   1.096   5.736   0.397
 1967TIP3    H227461   1.169   5.696   0.271
 1968TIP3   OH227462   4.538   1.804   1.696
 1968TIP3    H127463   4.460   1.853   1.722
 1968TIP3    H227464   4.524   1.786   1.603
 1969TIP3   OH227465   3.955   2.184   6.886
 1969TIP3    H127466   3.902   2.175   6.966
 1969TIP3    H227467   4.026   2.244   6.911
 1970TIP3   OH227468   0.321   1.184   7.457
 1970TIP3    H127469   0.352   1.198   7.368
 1970TIP3    H227470   0.327   1.089   7.470
 1971TIP3   OH227471   2.855   5.107   0.427
 1971TIP3    H127472   2.852   5.116   0.331
 1971TIP3    H227473   2.945   5.127   0.450
 1972TIP3   OH227474   3.185   0.036   1.894
 1972TIP3    H127475   3.186   0.094   1.818
 1972TIP3    H227476   3.171   0.095   1.969
 1973TIP3   OH227477   3.547   2.894   0.479
 1973TIP3    H127478   3.616   2.959   0.460
 1973TIP3    H227479   3.479   2.944   0.523
 1974TIP3   OH227480   1.258   5.070   0.216
 1974TIP3    H127481   1.263   5.144   0.155
 1974TIP3    H227482   1.334   5.081   0.272
 1975TIP3   OH227483   2.025   6.272   1.476
 1975TIP3    H127484   2.087   6.334   1.438
 1975TIP3    H227485   2.079   6.211   1.525
 1976TIP3   OH227486   4.091   3.540   7.627
 1976TIP3    H127487   4.016   3.599   7.629
 1976TIP3    H227488   4.151   3.580   7.565
 1977TIP3   OH227489   2.629   4.930   0.913
 1977TIP3    H127490   2.581   4.875   0.851
 1977TIP3    H227491   2.563   4.952   0.980
 1978TIP3   OH227492   5.114   0.402   0.538
 1978TIP3    H127493   5.156   0.488   0.542
 1978TIP3    H227494   5.110   0.373   0.630
 1979TIP3   OH227495   3.262   6.507   0.573
 1979TIP3    H127496   3.238   6.437   0.634
 1979TIP3    H227497   3.252   6.467   0.486
 1980TIP3   OH227498   1.948   0.631   7.795
 1980TIP3    H127499   1.868   0.589   7.823
 1980TIP3    H227500   1.943   0.631   7.699
 1981TIP3   OH227501   2.744   2.694   6.788
 1981TIP3    H127502   2.770   2.681   6.879
 1981TIP3    H227503   2.651   2.717   6.793
 1982TIP3   OH227504   1.238   6.698   0.620
 1982TIP3    H127505   1.147   6.694   0.652
 1982TIP3    H227506   1.249   6.789   0.591
 1983TIP3   OH227507   4.686   3.592   1.044
 1983TIP3    H127508   4.668   3.613   1.135
 1983TIP3    H227509   4.600   3.565   1.009
 1984TIP3   OH227510   2.934   1.491   1.443
 1984TIP3    H127511   3.025   1.497   1.472
 1984TIP3    H227512   2.893   1.431   1.505
 1985TIP3   OH227513   6.873   2.481   1.046
 1985TIP3    H127514   0.052   2.518   1.112
 1985TIP3    H227515   6.785   2.494   1.082
 1986TIP3   OH227516   5.400   4.532   0.618
 1986TIP3    H127517   5.463   4.567   0.680
 1986TIP3    H227518   5.367   4.452   0.661
 1987TIP3   OH227519   3.096   6.855   6.850
 1987TIP3    H127520   3.010   6.824   6.880
 1987TIP3    H227521   3.125   6.788   6.789
 1988TIP3   OH227522   4.234   4.566   0.616
 1988TIP3    H127523   4.173   4.583   0.688
 1988TIP3    H227524   4.241   4.650   0.570
 1989TIP3   OH227525   6.831   0.165   8.071
 1989TIP3    H127526   6.766   0.220   8.025
 1989TIP3    H227527   6.803   0.167   8.163
 1990TIP3   OH227528   0.452   5.270   7.080
 1990TIP3    H127529   0.461   5.244   6.988
 1990TIP3    H227530   0.386   5.210   7.115
 1991TIP3   OH227531   5.961   3.137   1.773
 1991TIP3    H127532   5.877   3.132   1.817
 1991TIP3    H227533   5.945   3.194   1.698
 1992TIP3   OH227534   3.226   4.673   7.742
 1992TIP3    H127535   3.218   4.580   7.764
 1992TIP3    H227536   3.261   4.673   7.653
 1993TIP3   OH227537   4.246   2.481   1.337
 1993TIP3    H127538   4.297   2.440   1.267
 1993TIP3    H227539   4.176   2.527   1.291
 1994TIP3   OH227540   5.798   1.309   2.077
 1994TIP3    H127541   5.860   1.313   2.150
 1994TIP3    H227542   5.714   1.287   2.118
 1995TIP3   OH227543   1.514   5.147   0.387
 1995TIP3    H127544   1.591   5.103   0.352
 1995TIP3    H227545   1.480   5.086   0.453
 1996TIP3   OH227546   5.337   2.219   0.504
 1996TIP3    H127547   5.432   2.210   0.505
 1996TIP3    H227548   5.314   2.238   0.595
 1997TIP3   OH227549   5.752   1.863   1.870
 1997TIP3    H127550   5.775   1.950   1.838
 1997TIP3    H227551   5.720   1.877   1.959
 1998TIP3   OH227552   1.297   5.936   8.604
 1998TIP3    H127553   1.213   5.901   0.011
 1998TIP3    H227554   1.331   5.986   0.055
 1999TIP3   OH227555   1.825   4.739   7.404
 1999TIP3    H127556   1.801   4.824   7.369
 1999TIP3    H227557   1.885   4.702   7.340
 2000TIP3   OH227558   1.310   0.909   0.955
 2000TIP3    H127559   1.365   0.832   0.948
 2000TIP3    H227560   1.304   0.926   1.049
 2001TIP3   OH227561   4.869   1.507   1.274
 2001TIP3    H127562   4.811   1.537   1.344
 2001TIP3    H227563   4.821   1.435   1.232
 2002TIP3   OH227564   4.206   3.856   0.960
 2002TIP3    H127565   4.268   3.929   0.967
 2002TIP3    H227566   4.131   3.892   0.914
 2003TIP3   OH227567   6.118   0.583   0.528
 2003TIP3    H127568   6.187   0.647   0.545
 2003TIP3    H227569   6.163   0.499   0.526
 2004TIP3   OH227570   0.849   1.138   1.434
 2004TIP3    H127571   0.918   1.106   1.492
 2004TIP3    H227572   0.800   1.059   1.410
 2005TIP3   OH227573   2.391   4.943   6.454
 2005TIP3    H127574   2.439   4.950   6.372
 2005TIP3    H227575   2.318   5.005   6.444
 2006TIP3   OH227576   3.200   2.120   0.607
 2006TIP3    H127577   3.150   2.199   0.631
 2006TIP3    H227578   3.256   2.149   0.535
 2007TIP3   OH227579   5.374   1.184   6.784
 2007TIP3    H127580   5.307   1.251   6.794
 2007TIP3    H227581   5.379   1.168   6.690
 2008TIP3   OH227582   3.529   3.583   8.096
 2008TIP3    H127583   3.508   3.555   8.008
 2008TIP3    H227584   3.444   3.601   8.137
 2009TIP3   OH227585   0.475   5.932   7.905
 2009TIP3    H127586   0.545   5.917   7.969
 2009TIP3    H227587   0.504   6.009   7.855
 2010TIP3   OH227588   4.187   2.720   0.062
 2010TIP3    H127589   4.229   2.749   0.143
 2010TIP3    H227590   4.093   2.730   0.079
 2011TIP3   OH227591   3.871   1.705   1.997
 2011TIP3    H127592   3.853   1.734   1.908
 2011TIP3    H227593   3.805   1.749   2.051
 2012TIP3   OH227594   6.183   5.696   7.146
 2012TIP3    H127595   6.105   5.751   7.156
 2012TIP3    H227596   6.253   5.748   7.185
 2013TIP3   OH227597   1.258   2.657   7.454
 2013TIP3    H127598   1.193   2.599   7.494
 2013TIP3    H227599   1.264   2.627   7.363
 2014TIP3   OH227600   2.731   1.657   1.098
 2014TIP3    H127601   2.681   1.577   1.109
 2014TIP3    H227602   2.748   1.688   1.187
 2015TIP3   OH227603   6.843   3.503   7.718
 2015TIP3    H127604   0.018   3.450   7.661
 2015TIP3    H227605   6.753   3.485   7.690
 2016TIP3   OH227606   3.176   6.357   1.422
 2016TIP3    H127607   3.190   6.450   1.440
 2016TIP3    H227608   3.164   6.317   1.508
 2017TIP3   OH227609   4.932   1.908   6.778
 2017TIP3    H127610   4.856   1.853   6.758
 2017TIP3    H227611   4.940   1.966   6.702
 2018TIP3   OH227612   0.963   3.186   1.980
 2018TIP3    H127613   1.028   3.159   2.046
 2018TIP3    H227614   0.893   3.227   2.031
 2019TIP3   OH227615   0.376   4.286   6.661
 2019TIP3    H127616   0.313   4.241   6.605
 2019TIP3    H227617   0.450   4.306   6.603
 2020TIP3   OH227618   3.276   5.593   0.062
 2020TIP3    H127619   3.312   5.681   0.076
 2020TIP3    H227620   3.342   5.548   0.009
 2021TIP3   OH227621   0.676   4.964   1.935
 2021TIP3    H127622   0.698   4.872   1.949
 2021TIP3    H227623   0.626   4.965   1.854
 2022TIP3   OH227624   4.183   2.876   2.022
 2022TIP3    H127625   4.107   2.934   2.029
 2022TIP3    H227626   4.258   2.934   2.028
 2023TIP3   OH227627   4.836   3.458   1.621
 2023TIP3    H127628   4.829   3.364   1.606
 2023TIP3    H227629   4.763   3.479   1.679
 2024TIP3   OH227630   5.501   5.535   2.176
 2024TIP3    H127631   5.511   5.449   2.135
 2024TIP3    H227632   5.407   5.554   2.168
 2025TIP3   OH227633   6.690   4.276   7.853
 2025TIP3    H127634   6.599   4.277   7.823
 2025TIP3    H227635   6.700   4.191   7.896
 2026TIP3   OH227636   2.037   0.836   1.506
 2026TIP3    H127637   1.976   0.821   1.578
 2026TIP3    H227638   2.102   0.896   1.541
 2027TIP3   OH227639   2.539   1.291   1.056
 2027TIP3    H127640   2.509   1.201   1.061
 2027TIP3    H227641   2.561   1.314   1.146
 2028TIP3   OH227642   3.684   6.446   6.922
 2028TIP3    H127643   3.748   6.384   6.888
 2028TIP3    H227644   3.632   6.471   6.846
 2029TIP3   OH227645   0.502   5.233   0.579
 2029TIP3    H127646   0.537   5.290   0.511
 2029TIP3    H227647   0.474   5.154   0.533
 2030TIP3   OH227648   2.748   0.723   2.107
 2030TIP3    H127649   2.827   0.699   2.155
 2030TIP3    H227650   2.691   0.763   2.174
 2031TIP3   OH227651   2.348   1.293   0.653
 2031TIP3    H127652   2.333   1.236   0.728
 2031TIP3    H227653   2.441   1.315   0.658
 2032TIP3   OH227654   0.516   2.244   2.265
 2032TIP3    H127655   0.591   2.218   2.212
 2032TIP3    H227656   0.497   2.334   2.237
 2033TIP3   OH227657   5.343   3.116   7.637
 2033TIP3    H127658   5.416   3.177   7.623
 2033TIP3    H227659   5.290   3.158   7.705
 2034TIP3   OH227660   0.103   6.523   6.972
 2034TIP3    H127661   0.044   6.536   6.897
 2034TIP3    H227662   0.080   6.593   7.033
 2035TIP3   OH227663   4.396   0.282   0.279
 2035TIP3    H127664   4.333   0.330   0.224
 2035TIP3    H227665   4.369   0.302   0.369
 2036TIP3   OH227666   1.818   0.390   8.210
 2036TIP3    H127667   1.805   0.478   8.246
 2036TIP3    H227668   1.912   0.377   8.210
 2037TIP3   OH227669   4.999   0.871   0.726
 2037TIP3    H127670   4.979   0.958   0.761
 2037TIP3    H227671   5.008   0.816   0.804
 2038TIP3   OH227672   3.403   6.143   1.958
 2038TIP3    H127673   3.353   6.065   1.934
 2038TIP3    H227674   3.486   6.109   1.992
 2039TIP3   OH227675   5.943   0.774   1.745
 2039TIP3    H127676   5.946   0.695   1.800
 2039TIP3    H227677   5.978   0.843   1.801
 2040TIP3   OH227678   6.731   6.439   1.147
 2040TIP3    H127679   6.819   6.443   1.110
 2040TIP3    H227680   6.702   6.530   1.148
 2041TIP3   OH227681   5.187   2.881   7.988
 2041TIP3    H127682   5.139   2.919   8.061
 2041TIP3    H227683   5.274   2.922   7.992
 2042TIP3   OH227684   1.130   2.987   1.154
 2042TIP3    H127685   1.095   2.905   1.188
 2042TIP3    H227686   1.056   3.048   1.157
 2043TIP3   OH227687   0.519   3.160   7.816
 2043TIP3    H127688   0.473   3.125   7.740
 2043TIP3    H227689   0.467   3.130   7.891
 2044TIP3   OH227690   1.647   4.597   2.008
 2044TIP3    H127691   1.607   4.598   2.095
 2044TIP3    H227692   1.573   4.588   1.948
 2045TIP3   OH227693   5.660   5.263   0.835
 2045TIP3    H127694   5.633   5.187   0.782
 2045TIP3    H227695   5.634   5.240   0.924
 2046TIP3   OH227696   4.523   2.472   0.441
 2046TIP3    H127697   4.570   2.546   0.480
 2046TIP3    H227698   4.442   2.510   0.407
 2047TIP3   OH227699   0.221   3.574   2.283
 2047TIP3    H127700   0.248   3.541   2.197
 2047TIP3    H227701   0.257   3.662   2.288
 2048TIP3   OH227702   5.275   2.736   1.026
 2048TIP3    H127703   5.367   2.716   1.014
 2048TIP3    H227704   5.229   2.668   0.976
 2049TIP3   OH227705   2.968   0.175   8.102
 2049TIP3    H127706   3.058   0.172   8.134
 2049TIP3    H227707   2.930   0.091   8.129
 2050TIP3   OH227708   0.319   6.651   1.197
 2050TIP3    H127709   0.255   6.691   1.256
 2050TIP3    H227710   0.341   6.568   1.238
 2051TIP3   OH227711   1.731   3.943   7.185
 2051TIP3    H127712   1.774   3.858   7.190
 2051TIP3    H227713   1.639   3.925   7.204
 2052TIP3   OH227714   0.876   5.424   2.289
 2052TIP3    H127715   0.843   5.334   2.281
 2052TIP3    H227716   0.970   5.413   2.303
 2053TIP3   OH227717   6.524   1.008   7.745
 2053TIP3    H127718   6.484   1.093   7.765
 2053TIP3    H227719   6.514   0.998   7.651
 2054TIP3   OH227720   5.385   0.742   8.143
 2054TIP3    H127721   5.346   0.673   8.090
 2054TIP3    H227722   5.323   0.755   8.215
 2055TIP3   OH227723   6.748   5.147   7.543
 2055TIP3    H127724   6.657   5.176   7.532
 2055TIP3    H227725   6.790   5.217   7.592
 2056TIP3   OH227726   4.542   3.265   6.291
 2056TIP3    H127727   4.628   3.294   6.260
 2056TIP3    H227728   4.555   3.244   6.383
 2057TIP3   OH227729   1.999   1.743   1.750
 2057TIP3    H127730   2.078   1.690   1.740
 2057TIP3    H227731   1.938   1.685   1.796
 2058TIP3   OH227732   2.128   3.286   8.406
 2058TIP3    H127733   2.038   3.318   8.411
 2058TIP3    H227734   2.175   3.332   8.476
 2059TIP3   OH227735   6.400   6.088   8.420
 2059TIP3    H127736   6.466   6.099   8.488
 2059TIP3    H227737   6.325   6.050   8.466
 2060TIP3   OH227738   0.411   2.565   6.382
 2060TIP3    H127739   0.350   2.498   6.348
 2060TIP3    H227740   0.356   2.641   6.398
 2061TIP3   OH227741   3.713   3.996   6.580
 2061TIP3    H127742   3.653   4.057   6.536
 2061TIP3    H227743   3.800   4.022   6.548
 2062TIP3   OH227744   1.257   1.762   2.295
 2062TIP3    H127745   1.179   1.749   2.349
 2062TIP3    H227746   1.276   1.855   2.302
 2063TIP3   OH227747   1.892   1.369   7.095
 2063TIP3    H127748   1.841   1.444   7.065
 2063TIP3    H227749   1.838   1.331   7.165
 2064TIP3   OH227750   6.435   4.235   0.050
 2064TIP3    H127751   6.484   4.153   0.051
 2064TIP3    H227752   6.356   4.216   8.623
 2065TIP3   OH227753   1.313   3.909   6.903
 2065TIP3    H127754   1.407   3.924   6.914
 2065TIP3    H227755   1.273   3.994   6.919
 2066TIP3   OH227756   5.691   5.089   8.448
 2066TIP3    H127757   5.732   5.139   8.377
 2066TIP3    H227758   5.762   5.071   8.509
 2067TIP3   OH227759   1.449   1.638   7.852
 2067TIP3    H127760   1.446   1.557   7.801
 2067TIP3    H227761   1.537   1.640   7.889
 2068TIP3   OH227762   3.746   0.207   1.118
 2068TIP3    H127763   3.659   0.217   1.155
 2068TIP3    H227764   3.744   0.122   1.073
 2069TIP3   OH227765   0.392   3.635   8.409
 2069TIP3    H127766   0.453   3.658   8.339
 2069TIP3    H227767   0.388   3.539   8.406
 2070TIP3   OH227768   0.360   1.694   1.854
 2070TIP3    H127769   0.313   1.632   1.798
 2070TIP3    H227770   0.400   1.756   1.793
 2071TIP3   OH227771   6.718   1.613   0.843
 2071TIP3    H127772   6.654   1.544   0.857
 2071TIP3    H227773   6.682   1.665   0.771
 2072TIP3   OH227774   4.220   3.868   6.996
 2072TIP3    H127775   4.245   3.956   6.966
 2072TIP3    H227776   4.156   3.838   6.932
 2073TIP3   OH227777   2.248   2.343   1.382
 2073TIP3    H127778   2.154   2.326   1.387
 2073TIP3    H227779   2.289   2.261   1.407
 2074TIP3   OH227780   4.778   5.431   8.179
 2074TIP3    H127781   4.734   5.469   8.255
 2074TIP3    H227782   4.706   5.399   8.124
 2075TIP3   OH227783   5.650   2.003   0.986
 2075TIP3    H127784   5.744   1.991   1.002
 2075TIP3    H227785   5.611   1.918   1.006
 2076TIP3   OH227786   0.429   1.621   1.294
 2076TIP3    H127787   0.393   1.628   1.382
 2076TIP3    H227788   0.362   1.576   1.244
 2077TIP3   OH227789   3.583   3.203   0.575
 2077TIP3    H127790   3.501   3.156   0.566
 2077TIP3    H227791   3.566   3.290   0.537
 2078TIP3   OH227792   1.696   1.670   0.246
 2078TIP3    H127793   1.662   1.617   0.174
 2078TIP3    H227794   1.618   1.690   0.299
 2079TIP3   OH227795   3.122   3.018   8.016
 2079TIP3    H127796   3.109   3.112   8.026
 2079TIP3    H227797   3.151   3.008   7.925
 2080TIP3   OH227798   6.543   4.963   1.033
 2080TIP3    H127799   6.552   4.951   0.939
 2080TIP3    H227800   6.613   4.910   1.071
 2081TIP3   OH227801   0.634   4.633   0.051
 2081TIP3    H127802   0.668   4.608   8.588
 2081TIP3    H227803   0.690   4.705   0.079
 2082TIP3   OH227804   0.231   0.039   1.633
 2082TIP3    H127805   0.209   6.829   1.657
 2082TIP3    H227806   0.254   0.081   1.716
 2083TIP3   OH227807   5.683   0.373   1.270
 2083TIP3    H127808   5.766   0.416   1.250
 2083TIP3    H227809   5.696   0.282   1.244
 2084TIP3   OH227810   1.298   4.370   7.355
 2084TIP3    H127811   1.235   4.427   7.310
 2084TIP3    H227812   1.254   4.345   7.436
 2085TIP3   OH227813   0.250   2.651   7.748
 2085TIP3    H127814   0.317   2.594   7.709
 2085TIP3    H227815   0.176   2.646   7.687
 2086TIP3   OH227816   4.622   0.879   1.804
 2086TIP3    H127817   4.606   0.852   1.895
 2086TIP3    H227818   4.707   0.921   1.806
 2087TIP3   OH227819   6.641   0.057   0.787
 2087TIP3    H127820   6.573   0.114   0.751
 2087TIP3    H227821   6.671   0.005   0.713
 2088TIP3   OH227822   5.833   0.323   2.174
 2088TIP3    H127823   5.754   0.341   2.123
 2088TIP3    H227824   5.900   0.379   2.135
 2089TIP3   OH227825   1.445   3.920   7.230
 2089TIP3    H127826   1.378   3.984   7.205
 2089TIP3    H227827   1.399   3.836   7.232
 2090TIP3   OH227828   0.426   4.804   1.937
 2090TIP3    H127829   0.358   4.859   1.900
 2090TIP3    H227830   0.392   4.715   1.929
 2091TIP3   OH227831   5.610   0.072   8.446
 2091TIP3    H127832   5.535   0.015   8.465
 2091TIP3    H227833   5.612   0.134   8.518
 2092TIP3   OH227834   5.008   6.112   7.464
 2092TIP3    H127835   5.048   6.025   7.468
 2092TIP3    H227836   4.927   6.103   7.515
 2093TIP3   OH227837   4.253   1.447   7.145
 2093TIP3    H127838   4.257   1.488   7.059
 2093TIP3    H227839   4.338   1.468   7.185
 2094TIP3   OH227840   2.777   0.108   7.282
 2094TIP3    H127841   2.707   0.151   7.331
 2094TIP3    H227842   2.731   0.061   7.211
 2095TIP3   OH227843   6.462   3.772   7.620
 2095TIP3    H127844   6.459   3.757   7.714
 2095TIP3    H227845   6.538   3.829   7.607
 2096TIP3   OH227846   3.887   6.283   0.437
 2096TIP3    H127847   3.978   6.255   0.426
 2096TIP3    H227848   3.853   6.290   0.348
 2097TIP3   OH227849   4.892   5.269   1.586
 2097TIP3    H127850   4.865   5.180   1.606
 2097TIP3    H227851   4.987   5.264   1.576
 2098TIP3   OH227852   2.622   3.457   0.157
 2098TIP3    H127853   2.692   3.437   0.094
 2098TIP3    H227854   2.668   3.488   0.235
 2099TIP3   OH227855   0.359   4.819   8.169
 2099TIP3    H127856   0.266   4.832   8.190
 2099TIP3    H227857   0.375   4.876   8.094
 2100TIP3   OH227858   0.573   0.406   0.050
 2100TIP3    H127859   0.538   0.331   0.002
 2100TIP3    H227860   0.530   0.402   0.135
 2101TIP3   OH227861   0.232   0.294   1.506
 2101TIP3    H127862   0.302   0.340   1.552
 2101TIP3    H227863   0.219   0.214   1.557
 2102TIP3   OH227864   2.534   3.261   7.462
 2102TIP3    H127865   2.586   3.191   7.502
 2102TIP3    H227866   2.454   3.264   7.514
 2103TIP3   OH227867   5.323   4.506   1.254
 2103TIP3    H127868   5.373   4.430   1.284
 2103TIP3    H227869   5.316   4.562   1.331
 2104TIP3   OH227870   5.788   0.257   6.368
 2104TIP3    H127871   5.853   0.310   6.322
 2104TIP3    H227872   5.754   0.315   6.436
 2105TIP3   OH227873   0.961   4.759   0.594
 2105TIP3    H127874   0.961   4.689   0.529
 2105TIP3    H227875   0.956   4.714   0.678
 2106TIP3   OH227876   4.729   1.209   1.495
 2106TIP3    H127877   4.667   1.137   1.492
 2106TIP3    H227878   4.716   1.248   1.582
 2107TIP3   OH227879   5.425   5.042   8.441
 2107TIP3    H127880   5.389   5.097   8.372
 2107TIP3    H227881   5.519   5.043   8.426
 2108TIP3   OH227882   0.685   4.294   1.590
 2108TIP3    H127883   0.732   4.292   1.507
 2108TIP3    H227884   0.743   4.248   1.651
 2109TIP3   OH227885   5.861   3.511   1.655
 2109TIP3    H127886   5.943   3.560   1.649
 2109TIP3    H227887   5.797   3.575   1.688
 2110TIP3   OH227888   0.138   5.118   8.226
 2110TIP3    H127889   0.196   5.091   8.297
 2110TIP3    H227890   0.109   5.036   8.186
 2111TIP3   OH227891   5.455   5.150   6.582
 2111TIP3    H127892   5.477   5.102   6.502
 2111TIP3    H227893   5.478   5.089   6.653
 2112TIP3   OH227894   2.963   1.821   8.089
 2112TIP3    H127895   2.883   1.778   8.121
 2112TIP3    H227896   3.026   1.749   8.079
 2113TIP3   OH227897   6.626   1.749   1.322
 2113TIP3    H127898   6.685   1.701   1.380
 2113TIP3    H227899   6.577   1.682   1.276
 2114TIP3   OH227900   1.256   0.266   7.100
 2114TIP3    H127901   1.274   0.175   7.078
 2114TIP3    H227902   1.341   0.303   7.122
 2115TIP3   OH227903   2.850   5.343   0.003
 2115TIP3    H127904   2.837   5.437   0.014
 2115TIP3    H227905   2.939   5.336   8.590
 2116TIP3   OH227906   1.166   0.605   0.620
 2116TIP3    H127907   1.134   0.650   0.698
 2116TIP3    H227908   1.089   0.559   0.585
 2117TIP3   OH227909   2.246   0.499   6.509
 2117TIP3    H127910   2.249   0.592   6.487
 2117TIP3    H227911   2.153   0.476   6.503
 2118TIP3   OH227912   2.639   4.938   8.450
 2118TIP3    H127913   2.688   4.984   8.381
 2118TIP3    H227914   2.625   5.005   8.517
 2119TIP3   OH227915   6.263   2.137   8.396
 2119TIP3    H127916   6.296   2.050   8.376
 2119TIP3    H227917   6.177   2.122   8.435
 2120TIP3   OH227918   2.044   3.155   7.297
 2120TIP3    H127919   1.950   3.153   7.311
 2120TIP3    H227920   2.060   3.087   7.231
 2121TIP3   OH227921   2.052   6.698   1.445
 2121TIP3    H127922   2.057   6.653   1.530
 2121TIP3    H227923   2.115   6.770   1.453
 2122TIP3   OH227924   1.486   0.552   8.399
 2122TIP3    H127925   1.476   0.607   8.477
 2122TIP3    H227926   1.418   0.485   8.408
 2123TIP3   OH227927   0.415   3.737   0.708
 2123TIP3    H127928   0.458   3.735   0.794
 2123TIP3    H227929   0.355   3.662   0.709
 2124TIP3   OH227930   0.141   2.276   0.888
 2124TIP3    H127931   0.112   2.214   0.954
 2124TIP3    H227932   0.099   2.359   0.911
 2125TIP3   OH227933   2.005   4.442   1.533
 2125TIP3    H127934   2.082   4.388   1.552
 2125TIP3    H227935   1.941   4.417   1.599
 2126TIP3   OH227936   2.152   2.364   1.041
 2126TIP3    H127937   2.205   2.435   1.077
 2126TIP3    H227938   2.123   2.314   1.117
 2127TIP3   OH227939   3.170   1.259   1.000
 2127TIP3    H127940   3.189   1.307   0.920
 2127TIP3    H227941   3.095   1.204   0.978
 2128TIP3   OH227942   1.068   5.590   7.478
 2128TIP3    H127943   1.082   5.514   7.421
 2128TIP3    H227944   1.054   5.663   7.418
 2129TIP3   OH227945   2.085   3.384   0.917
 2129TIP3    H127946   1.994   3.372   0.892
 2129TIP3    H227947   2.135   3.334   0.853
 2130TIP3   OH227948   1.009   4.394   1.410
 2130TIP3    H127949   0.927   4.349   1.390
 2130TIP3    H227950   1.065   4.375   1.334
 2131TIP3   OH227951   6.340   5.618   0.590
 2131TIP3    H127952   6.276   5.571   0.537
 2131TIP3    H227953   6.420   5.566   0.582
 2132TIP3   OH227954   6.450   1.705   2.023
 2132TIP3    H127955   6.531   1.711   2.074
 2132TIP3    H227956   6.409   1.791   2.033
 2133TIP3   OH227957   0.138   0.565   8.612
 2133TIP3    H127958   0.090   0.573   0.070
 2133TIP3    H227959   0.152   0.655   8.583
 2134TIP3   OH227960   6.152   5.109   7.806
 2134TIP3    H127961   6.113   5.159   7.877
 2134TIP3    H227962   6.190   5.032   7.849
 2135TIP3   OH227963   2.679   6.276   7.917
 2135TIP3    H127964   2.759   6.325   7.900
 2135TIP3    H227965   2.692   6.236   8.003
 2136TIP3   OH227966   3.831   3.767   0.177
 2136TIP3    H127967   3.819   3.699   0.243
 2136TIP3    H227968   3.750   3.767   0.127
 2137TIP3   OH227969   3.466   4.530   1.587
 2137TIP3    H127970   3.484   4.553   1.496
 2137TIP3    H227971   3.384   4.574   1.607
 2138TIP3   OH227972   3.104   5.717   1.046
 2138TIP3    H127973   3.058   5.800   1.038
 2138TIP3    H227974   3.120   5.690   0.955
 2139TIP3   OH227975   2.500   2.755   8.480
 2139TIP3    H127976   2.558   2.717   8.546
 2139TIP3    H227977   2.539   2.731   8.396
 2140TIP3   OH227978   1.278   4.370   7.637
 2140TIP3    H127979   1.361   4.326   7.651
 2140TIP3    H227980   1.301   4.457   7.605
 2141TIP3   OH227981   5.965   4.281   7.141
 2141TIP3    H127982   5.981   4.315   7.229
 2141TIP3    H227983   5.913   4.202   7.154
 2142TIP3   OH227984   1.845   5.283   8.456
 2142TIP3    H127985   1.797   5.363   8.474
 2142TIP3    H227986   1.888   5.262   8.539
 2143TIP3   OH227987   0.944   4.633   0.853
 2143TIP3    H127988   0.854   4.645   0.885
 2143TIP3    H227989   0.993   4.601   0.928
 2144TIP3   OH227990   4.466   5.905   6.812
 2144TIP3    H127991   4.463   5.830   6.752
 2144TIP3    H227992   4.374   5.929   6.823
 2145TIP3   OH227993   6.483   5.778   2.113
 2145TIP3    H127994   6.400   5.752   2.153
 2145TIP3    H227995   6.460   5.848   2.052
 2146TIP3   OH227996   3.630   5.340   0.118
 2146TIP3    H127997   3.602   5.326   0.028
 2146TIP3    H227998   3.696   5.410   0.112
 2147TIP3   OH227999   5.928   6.409   0.815
 2147TIP3    H128000   6.019   6.406   0.786
 2147TIP3    H228001   5.885   6.467   0.752
 2148TIP3   OH228002   6.325   1.917   7.099
 2148TIP3    H128003   6.255   1.950   7.044
 2148TIP3    H228004   6.383   1.870   7.039
 2149TIP3   OH228005   6.177   5.612   0.840
 2149TIP3    H128006   6.098   5.579   0.798
 2149TIP3    H228007   6.249   5.574   0.789
 2150TIP3   OH228008   1.855   0.147   2.312
 2150TIP3    H128009   1.940   0.185   2.289
 2150TIP3    H228010   1.877   0.069   2.363
 2151TIP3   OH228011   3.831   1.611   0.954
 2151TIP3    H128012   3.892   1.591   1.025
 2151TIP3    H228013   3.780   1.530   0.943
 2152TIP3   OH228014   2.561   4.885   7.348
 2152TIP3    H128015   2.496   4.944   7.386
 2152TIP3    H228016   2.642   4.906   7.393
 2153TIP3   OH228017   1.956   0.311   7.728
 2153TIP3    H128018   1.893   0.283   7.794
 2153TIP3    H228019   1.923   0.275   7.646
 2154TIP3   OH228020   4.198   5.899   1.902
 2154TIP3    H128021   4.126   5.898   1.839
 2154TIP3    H228022   4.156   5.880   1.986
 2155TIP3   OH228023   5.366   1.491   7.060
 2155TIP3    H128024   5.323   1.431   6.998
 2155TIP3    H228025   5.294   1.543   7.095
 2156TIP3   OH228026   0.593   5.370   0.087
 2156TIP3    H128027   0.537   5.405   0.018
 2156TIP3    H228028   0.681   5.368   0.048
 2157TIP3   OH228029   2.881   0.568   7.325
 2157TIP3    H128030   2.785   0.570   7.328
 2157TIP3    H228031   2.903   0.476   7.316
 2158TIP3   OH228032   0.847   0.911   7.731
 2158TIP3    H128033   0.820   1.003   7.740
 2158TIP3    H228034   0.866   0.901   7.638
 2159TIP3   OH228035   2.833   6.423   8.294
 2159TIP3    H128036   2.919   6.402   8.257
 2159TIP3    H228037   2.779   6.346   8.275
 2160TIP3   OH228038   6.620   4.590   1.987
 2160TIP3    H128039   6.532   4.553   1.995
 2160TIP3    H228040   6.669   4.526   1.935
 2161TIP3   OH228041   4.302   0.899   0.375
 2161TIP3    H128042   4.210   0.881   0.395
 2161TIP3    H228043   4.344   0.813   0.376
 2162TIP3   OH228044   1.820   3.380   1.634
 2162TIP3    H128045   1.807   3.465   1.676
 2162TIP3    H228046   1.788   3.392   1.545
 2163TIP3   OH228047   0.305   0.149   8.101
 2163TIP3    H128048   0.386   0.105   8.074
 2163TIP3    H228049   0.281   0.106   8.183
 2164TIP3   OH228050   6.561   5.854   6.433
 2164TIP3    H128051   6.618   5.920   6.473
 2164TIP3    H228052   6.472   5.888   6.447
 2165TIP3   OH228053   5.075   3.718   2.497
 2165TIP3    H128054   5.004   3.724   2.561
 2165TIP3    H228055   5.135   3.788   2.522
 2166TIP3   OH228056   1.579   4.778   1.258
 2166TIP3    H128057   1.616   4.693   1.282
 2166TIP3    H228058   1.522   4.758   1.183
 2167TIP3   OH228059   1.036   4.871   1.572
 2167TIP3    H128060   1.086   4.868   1.490
 2167TIP3    H228061   0.968   4.805   1.561
 2168TIP3   OH228062   3.556   0.148   0.823
 2168TIP3    H128063   3.540   0.063   0.783
 2168TIP3    H228064   3.470   0.191   0.822
 2169TIP3   OH228065   6.003   0.624   7.991
 2169TIP3    H128066   5.988   0.686   7.919
 2169TIP3    H228067   5.990   0.538   7.952
 2170TIP3   OH228068   1.375   1.422   1.177
 2170TIP3    H128069   1.446   1.443   1.116
 2170TIP3    H228070   1.302   1.395   1.121
 2171TIP3   OH228071   3.880   1.235   1.932
 2171TIP3    H128072   3.924   1.210   2.014
 2171TIP3    H228073   3.816   1.301   1.958
 2172TIP3   OH228074   2.870   1.443   7.260
 2172TIP3    H128075   2.941   1.403   7.311
 2172TIP3    H228076   2.839   1.515   7.316
 2173TIP3   OH228077   0.182   4.655   7.302
 2173TIP3    H128078   0.211   4.742   7.276
 2173TIP3    H228079   0.262   4.602   7.307
 2174TIP3   OH228080   4.217   2.027   8.449
 2174TIP3    H128081   4.290   2.004   8.507
 2174TIP3    H228082   4.241   2.113   8.414
 2175TIP3   OH228083   3.758   4.217   7.847
 2175TIP3    H128084   3.704   4.250   7.775
 2175TIP3    H228085   3.718   4.253   7.926
 2176TIP3   OH228086   4.483   0.355   8.413
 2176TIP3    H128087   4.465   0.263   8.430
 2176TIP3    H228088   4.564   0.355   8.361
 2177TIP3   OH228089   6.601   3.431   1.655
 2177TIP3    H128090   6.554   3.495   1.707
 2177TIP3    H228091   6.602   3.352   1.709
 2178TIP3   OH228092   5.878   2.195   1.574
 2178TIP3    H128093   5.864   2.199   1.480
 2178TIP3    H228094   5.817   2.259   1.610
 2179TIP3   OH228095   1.065   6.424   6.280
 2179TIP3    H128096   1.024   6.343   6.310
 2179TIP3    H228097   1.159   6.407   6.284
 2180TIP3   OH228098   5.321   0.429   2.018
 2180TIP3    H128099   5.382   0.387   2.079
 2180TIP3    H228100   5.303   0.514   2.057
 2181TIP3   OH228101   3.277   2.124   7.999
 2181TIP3    H128102   3.189   2.160   7.998
 2181TIP3    H228103   3.329   2.188   8.047
 2182TIP3   OH228104   4.472   0.395   1.049
 2182TIP3    H128105   4.553   0.438   1.075
 2182TIP3    H228106   4.459   0.326   1.114
 2183TIP3   OH228107   2.582   0.324   0.397
 2183TIP3    H128108   2.669   0.317   0.437
 2183TIP3    H228109   2.525   0.276   0.457
 2184TIP3   OH228110   3.672   4.661   0.208
 2184TIP3    H128111   3.685   4.567   0.203
 2184TIP3    H228112   3.729   4.691   0.278
 2185TIP3   OH228113   1.974   4.129   8.280
 2185TIP3    H128114   2.038   4.156   8.346
 2185TIP3    H228115   1.941   4.045   8.311
 2186TIP3   OH228116   4.804   6.573   7.426
 2186TIP3    H128117   4.842   6.591   7.341
 2186TIP3    H228118   4.878   6.544   7.480
 2187TIP3   OH228119   0.483   4.829   7.312
 2187TIP3    H128120   0.456   4.850   7.223
 2187TIP3    H228121   0.513   4.738   7.307
 2188TIP3   OH228122   2.998   2.265   0.384
 2188TIP3    H128123   3.091   2.264   0.409
 2188TIP3    H228124   2.951   2.254   0.466
 2189TIP3   OH228125   3.889   1.920   7.337
 2189TIP3    H128126   3.839   1.974   7.398
 2189TIP3    H228127   3.823   1.884   7.278
 2190TIP3   OH228128   1.142   1.387   1.930
 2190TIP3    H128129   1.180   1.414   1.847
 2190TIP3    H228130   1.145   1.292   1.928
 2191TIP3   OH228131   5.727   4.492   1.462
 2191TIP3    H128132   5.776   4.481   1.543
 2191TIP3    H228133   5.786   4.543   1.406
 2192TIP3   OH228134   0.143   4.247   0.272
 2192TIP3    H128135   0.122   4.165   0.316
 2192TIP3    H228136   0.176   4.304   0.341
 2193TIP3   OH228137   2.410   5.782   0.674
 2193TIP3    H128138   2.425   5.695   0.712
 2193TIP3    H228139   2.420   5.842   0.748
 2194TIP3   OH228140   4.398   4.362   2.145
 2194TIP3    H128141   4.325   4.356   2.206
 2194TIP3    H228142   4.385   4.289   2.085
 2195TIP3   OH228143   5.904   5.258   8.325
 2195TIP3    H128144   5.908   5.348   8.294
 2195TIP3    H228145   5.990   5.221   8.304
 2196TIP3   OH228146   5.984   3.028   7.412
 2196TIP3    H128147   5.960   3.023   7.319
 2196TIP3    H228148   5.921   3.090   7.449
 2197TIP3   OH228149   4.946   5.064   0.472
 2197TIP3    H128150   4.988   4.998   0.418
 2197TIP3    H228151   4.961   5.034   0.562
 2198TIP3   OH228152   0.203   4.802   7.746
 2198TIP3    H128153   0.253   4.768   7.672
 2198TIP3    H228154   0.116   4.821   7.711
 2199TIP3   OH228155   4.573   0.949   8.493
 2199TIP3    H128156   4.551   0.889   8.423
 2199TIP3    H228157   4.555   0.901   8.573
 2200TIP3   OH228158   3.485   0.982   0.113
 2200TIP3    H128159   3.395   0.971   0.082
 2200TIP3    H228160   3.476   1.010   0.204
 2201TIP3   OH228161   2.137   5.567   0.954
 2201TIP3    H128162   2.118   5.584   0.862
 2201TIP3    H228163   2.231   5.546   0.955
 2202TIP3   OH228164   4.096   3.183   0.340
 2202TIP3    H128165   4.026   3.142   0.289
 2202TIP3    H228166   4.095   3.137   0.424
 2203TIP3   OH228167   1.724   6.178   1.899
 2203TIP3    H128168   1.638   6.140   1.887
 2203TIP3    H228169   1.756   6.192   1.810
 2204TIP3   OH228170   3.917   1.510   1.710
 2204TIP3    H128171   3.874   1.519   1.625
 2204TIP3    H228172   3.871   1.572   1.766
 2205TIP3   OH228173   1.177   4.389   1.198
 2205TIP3    H128174   1.219   4.471   1.174
 2205TIP3    H228175   1.179   4.337   1.117
 2206TIP3   OH228176   0.217   5.410   6.942
 2206TIP3    H128177   0.275   5.433   6.869
 2206TIP3    H228178   0.232   5.317   6.955
 2207TIP3   OH228179   0.667   6.016   0.724
 2207TIP3    H128180   0.619   6.019   0.807
 2207TIP3    H228181   0.759   6.017   0.750
 2208TIP3   OH228182   2.973   4.732   7.144
 2208TIP3    H128183   3.017   4.651   7.120
 2208TIP3    H228184   2.881   4.709   7.150
 2209TIP3   OH228185   3.777   2.607   0.265
 2209TIP3    H128186   3.803   2.611   0.173
 2209TIP3    H228187   3.784   2.697   0.295
 2210TIP3   OH228188   1.763   0.341   8.520
 2210TIP3    H128189   1.776   0.340   8.425
 2210TIP3    H228190   1.815   0.267   8.552
 2211TIP3   OH228191   2.186   3.421   1.175
 2211TIP3    H128192   2.262   3.466   1.136
 2211TIP3    H228193   2.121   3.421   1.105
 2212TIP3   OH228194   4.141   0.373   7.752
 2212TIP3    H128195   4.214   0.320   7.785
 2212TIP3    H228196   4.106   0.417   7.829
 2213TIP3   OH228197   1.321   4.628   8.225
 2213TIP3    H128198   1.236   4.639   8.182
 2213TIP3    H228199   1.329   4.704   8.282
 2214TIP3   OH228200   3.364   0.745   7.686
 2214TIP3    H128201   3.316   0.673   7.728
 2214TIP3    H228202   3.360   0.724   7.592
 2215TIP3   OH228203   2.363   0.728   7.892
 2215TIP3    H128204   2.274   0.763   7.889
 2215TIP3    H228205   2.356   0.653   7.952
 2216TIP3   OH228206   0.921   0.509   0.536
 2216TIP3    H128207   0.848   0.499   0.476
 2216TIP3    H228208   0.956   0.420   0.547
 2217TIP3   OH228209   4.298   6.685   6.716
 2217TIP3    H128210   4.219   6.674   6.663
 2217TIP3    H228211   4.366   6.707   6.652
 2218TIP3   OH228212   4.013   4.658   1.264
 2218TIP3    H128213   4.038   4.585   1.207
 2218TIP3    H228214   4.079   4.658   1.333
 2219TIP3   OH228215   4.104   2.684   7.928
 2219TIP3    H128216   4.064   2.684   7.841
 2219TIP3    H228217   4.097   2.593   7.957
 2220TIP3   OH228218   3.939   3.390   0.771
 2220TIP3    H128219   3.881   3.456   0.732
 2220TIP3    H228220   4.020   3.438   0.788
 2221TIP3   OH228221   1.008   6.136   1.242
 2221TIP3    H128222   1.057   6.054   1.233
 2221TIP3    H228223   1.008   6.154   1.336
 2222TIP3   OH228224   5.253   5.247   0.598
 2222TIP3    H128225   5.348   5.243   0.588
 2222TIP3    H228226   5.222   5.163   0.567
 2223TIP3   OH228227   1.703   4.282   8.473
 2223TIP3    H128228   1.730   4.357   8.421
 2223TIP3    H228229   1.784   4.243   8.504
 2224TIP3   OH228230   2.987   1.358   0.678
 2224TIP3    H128231   3.079   1.343   0.701
 2224TIP3    H228232   2.965   1.285   0.620
 2225TIP3   OH228233   5.343   3.206   2.396
 2225TIP3    H128234   5.406   3.211   2.467
 2225TIP3    H228235   5.288   3.130   2.417
 2226TIP3   OH228236   3.413   5.579   6.390
 2226TIP3    H128237   3.475   5.515   6.425
 2226TIP3    H228238   3.359   5.603   6.465
 2227TIP3   OH228239   2.936   0.400   0.289
 2227TIP3    H128240   2.950   0.375   0.197
 2227TIP3    H228241   2.859   0.457   0.287
 2228TIP3   OH228242   2.706   6.507   1.813
 2228TIP3    H128243   2.619   6.519   1.776
 2228TIP3    H228244   2.691   6.482   1.904
 2229TIP3   OH228245   4.831   1.396   8.210
 2229TIP3    H128246   4.923   1.408   8.184
 2229TIP3    H228247   4.812   1.304   8.191
 2230TIP3   OH228248   6.097   6.460   0.087
 2230TIP3    H128249   6.168   6.433   0.145
 2230TIP3    H228250   6.026   6.399   0.107
 2231TIP3   OH228251   4.977   6.760   8.520
 2231TIP3    H128252   5.055   6.705   8.518
 2231TIP3    H228253   5.010   6.849   8.519
 2232TIP3   OH228254   5.484   2.110   6.827
 2232TIP3    H128255   5.528   2.030   6.798
 2232TIP3    H228256   5.395   2.082   6.849
 2233TIP3   OH228257   4.165   6.326   8.552
 2233TIP3    H128258   4.156   6.269   0.005
 2233TIP3    H228259   4.139   6.413   8.583
 2234TIP3   OH228260   3.877   1.440   7.639
 2234TIP3    H128261   3.947   1.452   7.703
 2234TIP3    H228262   3.844   1.528   7.623
 2235TIP3   OH228263   5.683   3.224   1.115
 2235TIP3    H128264   5.614   3.226   1.182
 2235TIP3    H228265   5.685   3.132   1.087
 2236TIP3   OH228266   2.931   5.186   1.335
 2236TIP3    H128267   2.927   5.175   1.430
 2236TIP3    H228268   2.862   5.128   1.302
 2237TIP3   OH228269   0.750   2.367   6.681
 2237TIP3    H128270   0.656   2.345   6.678
 2237TIP3    H228271   0.790   2.308   6.618
 2238TIP3   OH228272   1.361   1.134   0.757
 2238TIP3    H128273   1.354   1.039   0.761
 2238TIP3    H228274   1.321   1.157   0.673
 2239TIP3   OH228275   4.648   0.295   1.394
 2239TIP3    H128276   4.612   0.331   1.313
 2239TIP3    H228277   4.646   0.200   1.381
 2240TIP3   OH228278   1.708   2.588   1.225
 2240TIP3    H128279   1.754   2.671   1.211
 2240TIP3    H228280   1.644   2.607   1.294
 2241TIP3   OH228281   4.266   6.082   2.514
 2241TIP3    H128282   4.227   6.114   2.595
 2241TIP3    H228283   4.206   6.013   2.484
 2242TIP3   OH228284   4.059   5.972   1.444
 2242TIP3    H128285   4.047   6.063   1.415
 2242TIP3    H228286   4.154   5.959   1.443
 2243TIP3   OH228287   5.432   3.003   1.784
 2243TIP3    H128288   5.336   3.008   1.790
 2243TIP3    H228289   5.462   3.029   1.872
 2244TIP3   OH228290   2.463   2.682   0.871
 2244TIP3    H128291   2.480   2.775   0.887
 2244TIP3    H228292   2.529   2.656   0.806
 2245TIP3   OH228293   6.713   1.125   7.545
 2245TIP3    H128294   6.749   1.056   7.489
 2245TIP3    H228295   6.759   1.114   7.629
 2246TIP3   OH228296   5.816   4.169   1.564
 2246TIP3    H128297   5.721   4.167   1.567
 2246TIP3    H228298   5.839   4.140   1.476
 2247TIP3   OH228299   6.004   0.969   0.944
 2247TIP3    H128300   5.937   0.954   1.011
 2247TIP3    H228301   6.010   0.885   0.898
 2248TIP3   OH228302   4.541   1.509   0.545
 2248TIP3    H128303   4.583   1.553   0.472
 2248TIP3    H228304   4.524   1.420   0.514
 2249TIP3   OH228305   3.149   4.436   1.001
 2249TIP3    H128306   3.219   4.464   0.942
 2249TIP3    H228307   3.069   4.445   0.949
 2250TIP3   OH228308   2.399   6.624   7.865
 2250TIP3    H128309   2.390   6.660   7.953
 2250TIP3    H228310   2.335   6.673   7.813
 2251TIP3   OH228311   6.199   2.715   0.495
 2251TIP3    H128312   6.217   2.800   0.455
 2251TIP3    H228313   6.284   2.673   0.503
 2252TIP3   OH228314   5.051   2.401   6.497
 2252TIP3    H128315   4.972   2.372   6.544
 2252TIP3    H228316   5.097   2.458   6.559
 2253TIP3   OH228317   1.537   6.591   1.152
 2253TIP3    H128318   1.510   6.667   1.203
 2253TIP3    H228319   1.563   6.526   1.217
 2254TIP3   OH228320   4.323   2.022   0.786
 2254TIP3    H128321   4.284   2.059   0.865
 2254TIP3    H228322   4.254   1.966   0.749
 2255TIP3   OH228323   1.954   3.797   0.941
 2255TIP3    H128324   1.969   3.795   1.036
 2255TIP3    H228325   1.886   3.731   0.926
 2256TIP3   OH228326   5.728   3.689   8.001
 2256TIP3    H128327   5.738   3.771   8.047
 2256TIP3    H228328   5.748   3.621   8.066
 2257TIP3   OH228329   3.104   6.377   8.121
 2257TIP3    H128330   3.179   6.435   8.112
 2257TIP3    H228331   3.141   6.296   8.157
 2258TIP3   OH228332   5.828   1.592   0.507
 2258TIP3    H128333   5.786   1.572   0.423
 2258TIP3    H228334   5.798   1.680   0.529
 2259TIP3   OH228335   6.767   2.643   1.868
 2259TIP3    H128336   6.705   2.712   1.893
 2259TIP3    H228337   6.737   2.565   1.916
 2260TIP3   OH228338   6.276   4.748   6.219
 2260TIP3    H128339   6.232   4.823   6.178
 2260TIP3    H228340   6.237   4.742   6.306
 2261TIP3   OH228341   2.902   0.575   7.625
 2261TIP3    H128342   2.812   0.557   7.598
 2261TIP3    H228343   2.903   0.669   7.645
 2262TIP3   OH228344   2.527   5.188   8.089
 2262TIP3    H128345   2.449   5.185   8.144
 2262TIP3    H228346   2.550   5.281   8.085
 2263TIP3   OH228347   0.546   0.863   0.130
 2263TIP3    H128348   0.463   0.900   0.159
 2263TIP3    H228349   0.580   0.927   0.067
 2264TIP3   OH228350   3.267   3.595   8.383
 2264TIP3    H128351   3.322   3.528   8.422
 2264TIP3    H228352   3.302   3.678   8.416
 2265TIP3   OH228353   2.925   5.957   0.715
 2265TIP3    H128354   2.851   5.940   0.656
 2265TIP3    H228355   3.003   5.943   0.662
 2266TIP3   OH228356   2.615   0.625   0.976
 2266TIP3    H128357   2.532   0.642   0.933
 2266TIP3    H228358   2.638   0.536   0.949
 2267TIP3   OH228359   5.924   6.248   0.158
 2267TIP3    H128360   5.887   6.163   0.133
 2267TIP3    H228361   5.872   6.276   0.233
 2268TIP3   OH228362   1.414   6.226   1.888
 2268TIP3    H128363   1.451   6.146   1.851
 2268TIP3    H228364   1.402   6.284   1.812
 2269TIP3   OH228365   5.642   4.310   6.804
 2269TIP3    H128366   5.667   4.334   6.714
 2269TIP3    H228367   5.712   4.347   6.858
 2270TIP3   OH228368   1.454   3.175   0.016
 2270TIP3    H128369   1.367   3.135   0.017
 2270TIP3    H228370   1.514   3.104   0.036
 2271TIP3   OH228371   4.598   3.652   8.201
 2271TIP3    H128372   4.578   3.669   8.109
 2271TIP3    H228373   4.693   3.644   8.203
 2272TIP3   OH228374   5.460   3.453   0.594
 2272TIP3    H128375   5.552   3.469   0.572
 2272TIP3    H228376   5.458   3.456   0.690
 2273TIP3   OH228377   5.426   3.031   7.998
 2273TIP3    H128378   5.506   2.993   7.963
 2273TIP3    H228379   5.449   3.123   8.016
 2274TIP3   OH228380   3.619   3.725   1.733
 2274TIP3    H128381   3.609   3.675   1.652
 2274TIP3    H228382   3.685   3.791   1.713
 2275TIP3   OH228383   4.981   6.799   1.667
 2275TIP3    H128384   4.894   6.774   1.699
 2275TIP3    H228385   4.965   6.830   1.578
 2276TIP3   OH228386   5.406   0.251   0.488
 2276TIP3    H128387   5.323   0.213   0.459
 2276TIP3    H228388   5.383   0.338   0.519
 2277TIP3   OH228389   5.145   5.202   1.617
 2277TIP3    H128390   5.229   5.176   1.654
 2277TIP3    H228391   5.080   5.166   1.678
 2278TIP3   OH228392   3.353   3.841   7.653
 2278TIP3    H128393   3.413   3.836   7.727
 2278TIP3    H228394   3.314   3.928   7.660
 2279TIP3   OH228395   2.576   5.753   2.122
 2279TIP3    H128396   2.531   5.708   2.194
 2279TIP3    H228397   2.516   5.747   2.048
 2280TIP3   OH228398   0.183   4.232   6.078
 2280TIP3    H128399   0.274   4.260   6.075
 2280TIP3    H228400   0.183   4.152   6.130
 2281TIP3   OH228401   6.413   5.878   7.254
 2281TIP3    H128402   6.362   5.861   7.333
 2281TIP3    H228403   6.475   5.804   7.250
 2282TIP3   OH228404   0.585   6.846   6.163
 2282TIP3    H128405   0.557   0.036   6.223
 2282TIP3    H228406   0.586   6.767   6.217
 2283TIP3   OH228407   3.235   3.878   1.568
 2283TIP3    H128408   3.220   3.923   1.651
 2283TIP3    H228409   3.156   3.827   1.554
 2284TIP3   OH228410   0.138   1.030   1.454
 2284TIP3    H128411   0.133   0.941   1.489
 2284TIP3    H228412   0.072   1.079   1.503
 2285TIP3   OH228413   3.813   5.916   6.550
 2285TIP3    H128414   3.851   5.840   6.507
 2285TIP3    H228415   3.773   5.967   6.479
 2286TIP3   OH228416   5.524   2.646   0.924
 2286TIP3    H128417   5.532   2.717   0.861
 2286TIP3    H228418   5.609   2.641   0.966
 2287TIP3   OH228419   5.377   2.229   7.343
 2287TIP3    H128420   5.418   2.203   7.260
 2287TIP3    H228421   5.402   2.320   7.355
 2288TIP3   OH228422   6.361   2.822   0.922
 2288TIP3    H128423   6.388   2.907   0.888
 2288TIP3    H228424   6.266   2.821   0.910
 2289TIP3   OH228425   5.143   2.318   8.352
 2289TIP3    H128426   5.096   2.266   8.418
 2289TIP3    H228427   5.175   2.254   8.289
 2290TIP3   OH228428   5.790   5.122   8.047
 2290TIP3    H128429   5.768   5.055   8.111
 2290TIP3    H228430   5.706   5.164   8.027
 2291TIP3   OH228431   4.035   2.853   7.270
 2291TIP3    H128432   4.022   2.924   7.333
 2291TIP3    H228433   4.117   2.812   7.297
 2292TIP3   OH228434   6.292   3.701   0.022
 2292TIP3    H128435   6.339   3.644   0.083
 2292TIP3    H228436   6.200   3.695   0.050
 2293TIP3   OH228437   1.051   6.057   8.010
 2293TIP3    H128438   0.961   6.030   8.025
 2293TIP3    H228439   1.046   6.152   7.997
 2294TIP3   OH228440   6.311   6.274   7.329
 2294TIP3    H128441   6.235   6.292   7.384
 2294TIP3    H228442   6.281   6.211   7.264
 2295TIP3   OH228443   2.383   1.949   1.664
 2295TIP3    H128444   2.403   2.039   1.689
 2295TIP3    H228445   2.385   1.901   1.747
 2296TIP3   OH228446   4.557   3.791   7.014
 2296TIP3    H128447   4.540   3.841   6.934
 2296TIP3    H228448   4.509   3.709   7.002
 2297TIP3   OH228449   5.296   5.168   7.924
 2297TIP3    H128450   5.201   5.165   7.935
 2297TIP3    H228451   5.309   5.164   7.829
 2298TIP3   OH228452   3.850   3.466   1.378
 2298TIP3    H128453   3.915   3.441   1.313
 2298TIP3    H228454   3.766   3.439   1.341
 2299TIP3   OH228455   4.956   2.904   6.946
 2299TIP3    H128456   5.007   2.966   6.895
 2299TIP3    H228457   4.883   2.955   6.980
 2300TIP3   OH228458   2.937   2.747   7.844
 2300TIP3    H128459   2.847   2.727   7.816
 2300TIP3    H228460   2.951   2.694   7.922
 2301TIP3   OH228461   2.739   5.685   7.079
 2301TIP3    H128462   2.775   5.599   7.056
 2301TIP3    H228463   2.814   5.744   7.074
 2302TIP3   OH228464   6.466   0.734   8.419
 2302TIP3    H128465   6.457   0.798   8.490
 2302TIP3    H228466   6.544   0.684   8.442
 2303TIP3   OH228467   6.849   1.602   6.817
 2303TIP3    H128468   6.784   1.587   6.886
 2303TIP3    H228469   0.029   1.528   6.823
 2304TIP3   OH228470   5.609   5.625   1.747
 2304TIP3    H128471   5.655   5.573   1.813
 2304TIP3    H228472   5.517   5.611   1.766
 2305TIP3   OH228473   1.438   6.327   7.024
 2305TIP3    H128474   1.472   6.258   6.967
 2305TIP3    H228475   1.353   6.349   6.986
 2306TIP3   OH228476   4.056   0.503   8.280
 2306TIP3    H128477   4.107   0.536   8.354
 2306TIP3    H228478   3.978   0.559   8.278
 2307TIP3   OH228479   1.035   5.098   0.374
 2307TIP3    H128480   1.107   5.095   0.310
 2307TIP3    H228481   0.959   5.064   0.326
 2308TIP3   OH228482   4.334   1.222   7.671
 2308TIP3    H128483   4.413   1.228   7.725
 2308TIP3    H228484   4.322   1.128   7.657
 2309TIP3   OH228485   3.191   2.599   0.426
 2309TIP3    H128486   3.227   2.628   0.342
 2309TIP3    H228487   3.249   2.528   0.454
 2310TIP3   OH228488   2.103   5.515   1.833
 2310TIP3    H128489   2.073   5.477   1.750
 2310TIP3    H228490   2.198   5.522   1.822
 2311TIP3   OH228491   0.676   1.986   1.194
 2311TIP3    H128492   0.592   1.958   1.157
 2311TIP3    H228493   0.706   2.054   1.134
 2312TIP3   OH228494   6.157   5.225   0.112
 2312TIP3    H128495   6.148   5.130   0.117
 2312TIP3    H228496   6.080   5.253   0.062
 2313TIP3   OH228497   2.258   1.017   8.038
 2313TIP3    H128498   2.245   1.032   8.132
 2313TIP3    H228499   2.210   0.937   8.020
 2314TIP3   OH228500   2.643   6.675   7.175
 2314TIP3    H128501   2.610   6.759   7.206
 2314TIP3    H228502   2.580   6.646   7.110
 2315TIP3   OH228503   2.984   3.553   7.920
 2315TIP3    H128504   3.039   3.582   7.847
 2315TIP3    H228505   2.915   3.502   7.878
 2316TIP3   OH228506   2.978   5.031   0.715
 2316TIP3    H128507   2.899   5.042   0.662
 2316TIP3    H228508   2.993   5.116   0.756
 2317TIP3   OH228509   1.302   0.187   0.024
 2317TIP3    H128510   1.291   0.099   0.062
 2317TIP3    H228511   1.370   0.227   0.077
 2318TIP3   OH228512   1.266   1.032   2.424
 2318TIP3    H128513   1.170   1.034   2.416
 2318TIP3    H228514   1.291   1.123   2.436
 2319TIP3   OH228515   6.727   5.243   7.951
 2319TIP3    H128516   6.644   5.204   7.980
 2319TIP3    H228517   6.703   5.299   7.877
 2320TIP3   OH228518   3.509   2.013   7.525
 2320TIP3    H128519   3.552   2.022   7.440
 2320TIP3    H228520   3.464   2.097   7.537
 2321TIP3   OH228521   0.144   5.253   1.295
 2321TIP3    H128522   0.093   5.172   1.287
 2321TIP3    H228523   0.136   5.276   1.388
 2322TIP3   OH228524   6.850   2.764   7.861
 2322TIP3    H128525   6.779   2.733   7.918
 2322TIP3    H228526   6.877   2.686   7.812
 2323TIP3   OH228527   2.739   0.794   1.835
 2323TIP3    H128528   2.749   0.768   1.927
 2323TIP3    H228529   2.809   0.858   1.821
 2324TIP3   OH228530   6.686   0.632   8.086
 2324TIP3    H128531   6.720   0.614   7.999
 2324TIP3    H228532   6.643   0.717   8.079
 2325TIP3   OH228533   0.754   1.992   0.381
 2325TIP3    H128534   0.710   1.983   0.466
 2325TIP3    H228535   0.685   2.019   0.321
 2326TIP3   OH228536   3.062   0.516   8.415
 2326TIP3    H128537   2.985   0.562   8.383
 2326TIP3    H228538   3.131   0.537   8.352
 2327TIP3   OH228539   5.660   1.771   1.628
 2327TIP3    H128540   5.633   1.853   1.588
 2327TIP3    H228541   5.667   1.791   1.721
 2328TIP3   OH228542   6.116   3.221   6.747
 2328TIP3    H128543   6.156   3.135   6.762
 2328TIP3    H228544   6.073   3.213   6.662
 2329TIP3   OH228545   5.053   4.344   8.590
 2329TIP3    H128546   4.998   4.266   8.596
 2329TIP3    H228547   5.138   4.311   8.559
 2330TIP3   OH228548   6.832   3.553   1.304
 2330TIP3    H128549   6.751   3.604   1.317
 2330TIP3    H228550   6.859   3.529   1.392
 2331TIP3   OH228551   6.505   1.902   0.172
 2331TIP3    H128552   6.446   1.852   0.116
 2331TIP3    H228553   6.513   1.850   0.252
 2332TIP3   OH228554   5.020   2.876   0.950
 2332TIP3    H128555   5.111   2.856   0.971
 2332TIP3    H228556   5.025   2.948   0.887
 2333TIP3   OH228557   1.602   1.273   8.560
 2333TIP3    H128558   1.526   1.219   8.535
 2333TIP3    H228559   1.564   1.348   8.605
 2334TIP3   OH228560   3.584   6.051   7.312
 2334TIP3    H128561   3.597   5.988   7.383
 2334TIP3    H228562   3.491   6.044   7.290
 2335TIP3   OH228563   3.978   5.511   7.088
 2335TIP3    H128564   4.018   5.480   7.007
 2335TIP3    H228565   3.888   5.533   7.063
 2336TIP3   OH228566   2.614   2.325   1.042
 2336TIP3    H128567   2.680   2.351   0.978
 2336TIP3    H228568   2.580   2.408   1.077
 2337TIP3   OH228569   3.778   4.755   1.106
 2337TIP3    H128570   3.835   4.748   1.183
 2337TIP3    H228571   3.811   4.689   1.045
 2338TIP3   OH228572   5.211   0.243   8.137
 2338TIP3    H128573   5.130   0.226   8.185
 2338TIP3    H228574   5.189   0.230   8.045
 2339TIP3   OH228575   1.566   2.965   1.828
 2339TIP3    H128576   1.587   3.031   1.762
 2339TIP3    H228577   1.527   3.014   1.900
 2340TIP3   OH228578   2.996   3.478   6.957
 2340TIP3    H128579   3.017   3.500   7.047
 2340TIP3    H228580   2.908   3.439   6.961
 2341TIP3   OH228581   0.368   0.879   2.529
 2341TIP3    H128582   0.438   0.821   2.560
 2341TIP3    H228583   0.288   0.830   2.547
 2342TIP3   OH228584   5.977   4.053   1.026
 2342TIP3    H128585   5.995   4.111   0.952
 2342TIP3    H228586   5.918   3.986   0.990
 2343TIP3   OH228587   0.080   1.502   1.507
 2343TIP3    H128588   0.104   1.585   1.465
 2343TIP3    H228589   0.098   1.516   1.600
 2344TIP3   OH228590   1.692   1.326   7.299
 2344TIP3    H128591   1.600   1.325   7.273
 2344TIP3    H228592   1.691   1.298   7.391
 2345TIP3   OH228593   3.710   2.536   7.884
 2345TIP3    H128594   3.762   2.604   7.926
 2345TIP3    H228595   3.649   2.583   7.828
 2346TIP3   OH228596   6.809   1.331   1.800
 2346TIP3    H128597   6.724   1.357   1.835
 2346TIP3    H228598   6.828   1.248   1.844
 2347TIP3   OH228599   0.327   4.983   7.926
 2347TIP3    H128600   0.299   4.918   7.861
 2347TIP3    H228601   0.263   5.054   7.918
 2348TIP3   OH228602   6.756   5.842   7.505
 2348TIP3    H128603   6.680   5.889   7.539
 2348TIP3    H228604   6.830   5.878   7.552
 2349TIP3   OH228605   3.673   1.887   0.792
 2349TIP3    H128606   3.642   1.916   0.707
 2349TIP3    H228607   3.594   1.868   0.842
 2350TIP3   OH228608   1.238   2.685   8.469
 2350TIP3    H128609   1.147   2.713   8.482
 2350TIP3    H228610   1.282   2.764   8.437
 2351TIP3   OH228611   3.910   3.671   0.995
 2351TIP3    H128612   3.977   3.655   0.929
 2351TIP3    H228613   3.831   3.630   0.960
 2352TIP3   OH228614   5.843   3.496   0.878
 2352TIP3    H128615   5.918   3.461   0.926
 2352TIP3    H228616   5.880   3.568   0.826
 2353TIP3   OH228617   0.768   3.549   6.535
 2353TIP3    H128618   0.678   3.555   6.503
 2353TIP3    H228619   0.822   3.575   6.460
 2354TIP3   OH228620   1.494   3.989   1.314
 2354TIP3    H128621   1.428   4.050   1.348
 2354TIP3    H228622   1.449   3.904   1.314
 2355TIP3   OH228623   0.033   0.568   2.011
 2355TIP3    H128624   6.844   0.512   1.975
 2355TIP3    H228625   6.865   0.639   2.055
 2356TIP3   OH228626   4.957   2.853   7.358
 2356TIP3    H128627   5.035   2.854   7.414
 2356TIP3    H228628   4.960   2.767   7.315
 2357TIP3   OH228629   0.067   1.887   7.769
 2357TIP3    H128630   0.066   1.959   7.833
 2357TIP3    H228631   0.149   1.897   7.722
 2358TIP3   OH228632   0.503   6.408   0.960
 2358TIP3    H128633   0.573   6.347   0.938
 2358TIP3    H228634   0.461   6.369   1.036
 2359TIP3   OH228635   6.737   5.154   7.245
 2359TIP3    H128636   6.755   5.228   7.303
 2359TIP3    H228637   6.742   5.192   7.157
 2360TIP3   OH228638   1.776   3.890   6.740
 2360TIP3    H128639   1.688   3.864   6.711
 2360TIP3    H228640   1.833   3.865   6.668
 2361TIP3   OH228641   4.566   1.320   7.820
 2361TIP3    H128642   4.607   1.374   7.887
 2361TIP3    H228643   4.635   1.304   7.755
 2362TIP3   OH228644   3.352   4.633   8.488
 2362TIP3    H128645   3.442   4.654   8.513
 2362TIP3    H228646   3.357   4.609   8.396
 2363TIP3   OH228647   4.068   1.484   2.005
 2363TIP3    H128648   4.022   1.567   2.018
 2363TIP3    H228649   4.020   1.441   1.936
 2364TIP3   OH228650   0.766   0.918   6.208
 2364TIP3    H128651   0.790   0.936   6.299
 2364TIP3    H228652   0.692   0.858   6.215
 2365TIP3   OH228653   3.984   5.848   8.214
 2365TIP3    H128654   4.063   5.863   8.268
 2365TIP3    H228655   3.949   5.936   8.200
 2366TIP3   OH228656   4.279   0.904   7.913
 2366TIP3    H128657   4.200   0.939   7.873
 2366TIP3    H228658   4.330   0.982   7.938
 2367TIP3   OH228659   5.574   4.508   7.133
 2367TIP3    H128660   5.624   4.469   7.062
 2367TIP3    H228661   5.490   4.530   7.094
 2368TIP3   OH228662   5.489   3.904   8.395
 2368TIP3    H128663   5.474   3.820   8.440
 2368TIP3    H228664   5.409   3.918   8.346
 2369TIP3   OH228665   0.329   0.138   0.208
 2369TIP3    H128666   0.296   0.222   0.175
 2369TIP3    H228667   0.377   0.161   0.288
 2370TIP3   OH228668   3.259   2.977   0.210
 2370TIP3    H128669   3.342   3.025   0.219
 2370TIP3    H228670   3.246   2.970   0.116
 2371TIP3   OH228671   6.244   3.222   8.186
 2371TIP3    H128672   6.332   3.218   8.222
 2371TIP3    H228673   6.187   3.218   8.263
 2372TIP3   OH228674   5.796   2.001   8.303
 2372TIP3    H128675   5.801   1.909   8.329
 2372TIP3    H228676   5.868   2.012   8.240
 2373TIP3   OH228677   5.245   0.258   6.830
 2373TIP3    H128678   5.320   0.317   6.840
 2373TIP3    H228679   5.171   0.317   6.817
 2374TIP3   OH228680   4.527   0.680   7.444
 2374TIP3    H128681   4.531   0.770   7.411
 2374TIP3    H228682   4.535   0.688   7.539
 2375TIP3   OH228683   3.366   4.322   7.117
 2375TIP3    H128684   3.437   4.330   7.182
 2375TIP3    H228685   3.400   4.260   7.053
 2376TIP3   OH228686   6.876   3.220   6.914
 2376TIP3    H128687   0.035   3.263   6.990
 2376TIP3    H228688   0.033   3.267   6.839
 2377TIP3   OH228689   2.979   2.504   8.212
 2377TIP3    H128690   2.889   2.490   8.180
 2377TIP3    H228691   2.979   2.594   8.244
 2378TIP3   OH228692   2.060   1.781   8.386
 2378TIP3    H128693   2.039   1.873   8.375
 2378TIP3    H228694   2.003   1.751   8.456
 2379TIP3   OH228695   5.461   4.058   1.878
 2379TIP3    H128696   5.396   4.101   1.934
 2379TIP3    H228697   5.411   3.991   1.832
 2380TIP3   OH228698   0.983   2.377   0.655
 2380TIP3    H128699   0.971   2.454   0.711
 2380TIP3    H228700   0.938   2.399   0.574
 2381TIP3   OH228701   4.070   6.257   2.410
 2381TIP3    H128702   4.113   6.332   2.370
 2381TIP3    H228703   4.140   6.209   2.455
 2382TIP3   OH228704   5.020   0.470   7.611
 2382TIP3    H128705   5.044   0.461   7.704
 2382TIP3    H228706   4.926   0.487   7.613
 2383TIP3   OH228707   4.130   0.891   6.656
 2383TIP3    H128708   4.185   0.820   6.691
 2383TIP3    H228709   4.045   0.851   6.643
 2384TIP3   OH228710   5.651   1.611   0.309
 2384TIP3    H128711   5.661   1.664   0.230
 2384TIP3    H228712   5.557   1.609   0.325
 2385TIP3   OH228713   1.940   6.714   8.339
 2385TIP3    H128714   1.881   6.689   8.268
 2385TIP3    H228715   2.021   6.667   8.320
 2386TIP3   OH228716   5.883   4.602   0.060
 2386TIP3    H128717   5.826   4.591   0.135
 2386TIP3    H228718   5.922   4.516   0.045
 2387TIP3   OH228719   0.388   0.696   0.331
 2387TIP3    H128720   0.384   0.747   0.412
 2387TIP3    H228721   0.478   0.708   0.300
 2388TIP3   OH228722   6.198   6.655   8.214
 2388TIP3    H128723   6.201   6.569   8.255
 2388TIP3    H228724   6.156   6.711   8.280
 2389TIP3   OH228725   2.702   4.845   6.246
 2389TIP3    H128726   2.620   4.823   6.203
 2389TIP3    H228727   2.730   4.764   6.289
 2390TIP3   OH228728   6.304   5.000   2.088
 2390TIP3    H128729   6.342   5.021   2.173
 2390TIP3    H228730   6.350   4.922   2.059
 2391TIP3   OH228731   6.544   1.625   7.365
 2391TIP3    H128732   6.556   1.550   7.423
 2391TIP3    H228733   6.487   1.592   7.295
 2392TIP3   OH228734   0.854   0.826   1.337
 2392TIP3    H128735   0.871   0.836   1.243
 2392TIP3    H228736   0.937   0.847   1.379
 2393TIP3   OH228737   2.359   1.968   8.004
 2393TIP3    H128738   2.324   2.037   8.061
 2393TIP3    H228739   2.452   1.963   8.027
 2394TIP3   OH228740   3.678   2.669   1.779
 2394TIP3    H128741   3.759   2.662   1.830
 2394TIP3    H228742   3.624   2.730   1.828
 2395TIP3   OH228743   6.768   6.549   1.530
 2395TIP3    H128744   6.759   6.478   1.594
 2395TIP3    H228745   6.766   6.629   1.582
 2396TIP3   OH228746   0.243   0.464   0.968
 2396TIP3    H128747   0.188   0.507   0.903
 2396TIP3    H228748   0.250   0.528   1.039
 2397TIP3   OH228749   2.907   4.184   0.115
 2397TIP3    H128750   2.972   4.254   0.123
 2397TIP3    H228751   2.822   4.228   0.124
 2398TIP3   OH228752   0.266   2.962   8.198
 2398TIP3    H128753   0.197   3.028   8.208
 2398TIP3    H228754   0.314   2.990   8.121
 2399TIP3   OH228755   3.581   2.864   7.373
 2399TIP3    H128756   3.587   2.867   7.469
 2399TIP3    H228757   3.637   2.936   7.344
 2400TIP3   OH228758   1.497   2.006   6.923
 2400TIP3    H128759   1.558   1.950   6.971
 2400TIP3    H228760   1.529   2.095   6.938
 2401TIP3   OH228761   2.361   2.258   0.265
 2401TIP3    H128762   2.279   2.237   0.221
 2401TIP3    H228763   2.337   2.324   0.331
 2402TIP3   OH228764   6.096   6.619   7.159
 2402TIP3    H128765   6.119   6.593   7.248
 2402TIP3    H228766   6.175   6.660   7.124
 2403TIP3   OH228767   5.374   5.107   0.074
 2403TIP3    H128768   5.381   5.089   8.604
 2403TIP3    H228769   5.362   5.202   0.079
 2404TIP3   OH228770   1.301   0.886   8.594
 2404TIP3    H128771   1.247   0.898   8.517
 2404TIP3    H228772   1.375   0.946   8.582
 2405TIP3   OH228773   2.436   3.146   8.173
 2405TIP3    H128774   2.343   3.140   8.191
 2405TIP3    H228775   2.442   3.155   8.078
 2406TIP3   OH228776   0.495   5.847   6.906
 2406TIP3    H128777   0.457   5.791   6.837
 2406TIP3    H228778   0.497   5.791   6.984
 2407TIP3   OH228779   6.720   4.762   1.101
 2407TIP3    H128780   6.751   4.802   1.183
 2407TIP3    H228781   6.799   4.754   1.048
 2408TIP3   OH228782   4.682   2.953   7.822
 2408TIP3    H128783   4.635   2.914   7.748
 2408TIP3    H228784   4.741   2.884   7.851
 2409TIP3   OH228785   5.047   3.384   0.404
 2409TIP3    H128786   5.023   3.463   0.452
 2409TIP3    H228787   5.130   3.356   0.444
 2410TIP3   OH228788   2.417   0.275   1.841
 2410TIP3    H128789   2.497   0.226   1.821
 2410TIP3    H228790   2.348   0.209   1.838
 2411TIP3   OH228791   4.991   3.780   1.257
 2411TIP3    H128792   4.922   3.798   1.193
 2411TIP3    H228793   5.016   3.689   1.240
 2412TIP3   OH228794   2.663   2.218   1.294
 2412TIP3    H128795   2.630   2.242   1.207
 2412TIP3    H228796   2.629   2.286   1.352
 2413TIP3   OH228797   0.419   5.419   7.857
 2413TIP3    H128798   0.436   5.500   7.905
 2413TIP3    H228799   0.455   5.350   7.913
 2414TIP3   OH228800   5.731   1.600   7.065
 2414TIP3    H128801   5.812   1.651   7.067
 2414TIP3    H228802   5.722   1.573   6.973
 2415TIP3   OH228803   3.222   6.632   1.444
 2415TIP3    H128804   3.222   6.642   1.539
 2415TIP3    H228805   3.183   6.713   1.411
 2416TIP3   OH228806   1.058   6.859   8.569
 2416TIP3    H128807   1.014   6.856   8.484
 2416TIP3    H228808   0.996   0.024   0.003
 2417TIP3   OH228809   4.357   3.079   2.038
 2417TIP3    H128810   4.430   3.058   2.097
 2417TIP3    H228811   4.323   3.162   2.072
 2418TIP3   OH228812   3.695   2.267   7.975
 2418TIP3    H128813   3.625   2.223   7.927
 2418TIP3    H228814   3.695   2.357   7.942
 2419TIP3   OH228815   3.411   3.836   8.440
 2419TIP3    H128816   3.420   3.896   8.515
 2419TIP3    H228817   3.481   3.862   8.381
 2420TIP3   OH228818   1.204   3.931   8.354
 2420TIP3    H128819   1.197   4.005   8.414
 2420TIP3    H228820   1.292   3.938   8.317
 2421TIP3   OH228821   3.629   0.344   2.030
 2421TIP3    H128822   3.534   0.340   2.016
 2421TIP3    H228823   3.639   0.378   2.119
 2422TIP3   OH228824   4.170   1.418   1.433
 2422TIP3    H128825   4.169   1.510   1.405
 2422TIP3    H228826   4.262   1.402   1.457
 2423TIP3   OH228827   5.130   5.087   7.530
 2423TIP3    H128828   5.170   5.000   7.531
 2423TIP3    H228829   5.037   5.070   7.542
 2424TIP3   OH228830   6.156   6.249   1.520
 2424TIP3    H128831   6.236   6.197   1.511
 2424TIP3    H228832   6.151   6.299   1.439
 2425TIP3   OH228833   6.359   4.213   1.481
 2425TIP3    H128834   6.422   4.275   1.443
 2425TIP3    H228835   6.403   4.129   1.479
 2426TIP3   OH228836   3.886   0.469   0.355
 2426TIP3    H128837   3.874   0.544   0.414
 2426TIP3    H228838   3.946   0.411   0.402
 2427TIP3   OH228839   5.014   1.658   2.510
 2427TIP3    H128840   5.065   1.580   2.529
 2427TIP3    H228841   4.923   1.629   2.511
 2428TIP3   OH228842   3.544   6.848   0.191
 2428TIP3    H128843   3.589   0.053   0.184
 2428TIP3    H228844   3.451   6.871   0.191
 2429TIP3   OH228845   2.424   0.097   0.466
 2429TIP3    H128846   2.372   0.018   0.483
 2429TIP3    H228847   2.359   0.164   0.442
 2430TIP3   OH228848   0.586   1.060   8.589
 2430TIP3    H128849   0.543   1.123   8.530
 2430TIP3    H228850   0.677   1.091   8.595
 2431TIP3   OH228851   3.404   1.179   8.213
 2431TIP3    H128852   3.375   1.231   8.288
 2431TIP3    H228853   3.410   1.089   8.247
 2432TIP3   OH228854   3.004   0.457   8.023
 2432TIP3    H128855   2.913   0.456   7.991
 2432TIP3    H228856   3.012   0.377   8.074
 2433TIP3   OH228857   3.952   2.416   2.023
 2433TIP3    H128858   3.897   2.420   2.101
 2433TIP3    H228859   3.949   2.324   1.996
 2434TIP3   OH228860   3.200   3.141   6.333
 2434TIP3    H128861   3.285   3.133   6.376
 2434TIP3    H228862   3.167   3.226   6.361
 2435TIP3   OH228863   6.745   4.531   2.977
 2435TIP3    H128864   6.650   4.541   2.973
 2435TIP3    H228865   6.779   4.594   2.913
 2436TIP3   OH228866   2.174   0.408   8.228
 2436TIP3    H128867   2.175   0.358   8.146
 2436TIP3    H228868   2.232   0.482   8.211
 2437TIP3   OH228869   4.406   6.689   1.936
 2437TIP3    H128870   4.492   6.731   1.949
 2437TIP3    H228871   4.363   6.697   2.021
 2438TIP3   OH228872   4.503   5.998   0.857
 2438TIP3    H128873   4.411   6.019   0.866
 2438TIP3    H228874   4.525   5.950   0.937
 2439TIP3   OH228875   3.480   0.213   1.733
 2439TIP3    H128876   3.470   0.118   1.721
 2439TIP3    H228877   3.572   0.225   1.755
 2440TIP3   OH228878   6.508   5.422   0.602
 2440TIP3    H128879   6.469   5.335   0.612
 2440TIP3    H228880   6.602   5.405   0.594
 2441TIP3   OH228881   4.322   5.055   7.544
 2441TIP3    H128882   4.267   5.117   7.592
 2441TIP3    H228883   4.338   5.098   7.460
 2442TIP3   OH228884   2.164   6.111   1.645
 2442TIP3    H128885   2.162   6.020   1.616
 2442TIP3    H228886   2.257   6.129   1.658
 2443TIP3   OH228887   0.555   3.434   1.113
 2443TIP3    H128888   0.501   3.455   1.037
 2443TIP3    H228889   0.629   3.385   1.078
 2444TIP3   OH228890   0.260   0.902   7.421
 2444TIP3    H128891   0.247   0.831   7.358
 2444TIP3    H228892   0.171   0.930   7.443
 2445TIP3   OH228893   0.619   5.530   7.414
 2445TIP3    H128894   0.673   5.524   7.335
 2445TIP3    H228895   0.604   5.439   7.440
 2446TIP3   OH228896   4.646   2.364   0.761
 2446TIP3    H128897   4.667   2.362   0.668
 2446TIP3    H228898   4.570   2.422   0.767
 2447TIP3   OH228899   5.958   3.027   8.006
 2447TIP3    H128900   5.982   2.940   7.974
 2447TIP3    H228901   6.031   3.083   7.980
 2448TIP3   OH228902   0.668   2.291   7.890
 2448TIP3    H128903   0.763   2.284   7.875
 2448TIP3    H228904   0.658   2.374   7.937
 2449TIP3   OH228905   4.793   4.343   1.398
 2449TIP3    H128906   4.713   4.354   1.347
 2449TIP3    H228907   4.764   4.309   1.483
 2450TIP3   OH228908   6.610   3.496   7.924
 2450TIP3    H128909   6.625   3.489   7.830
 2450TIP3    H228910   6.680   3.554   7.955
 2451TIP3   OH228911   4.260   5.999   7.738
 2451TIP3    H128912   4.262   5.906   7.718
 2451TIP3    H228913   4.226   6.040   7.658
 2452TIP3   OH228914   0.512   3.961   8.157
 2452TIP3    H128915   0.552   3.973   8.070
 2452TIP3    H228916   0.535   3.871   8.180
 2453TIP3   OH228917   1.593   6.083   2.388
 2453TIP3    H128918   1.647   6.093   2.466
 2453TIP3    H228919   1.639   6.133   2.321
 2454TIP3   OH228920   5.589   4.671   0.763
 2454TIP3    H128921   5.570   4.670   0.857
 2454TIP3    H228922   5.682   4.646   0.757
 2455TIP3   OH228923   6.175   3.069   1.347
 2455TIP3    H128924   6.082   3.045   1.347
 2455TIP3    H228925   6.179   3.149   1.295
 2456TIP3   OH228926   6.192   4.749   2.271
 2456TIP3    H128927   6.109   4.723   2.232
 2456TIP3    H228928   6.175   4.835   2.310
 2457TIP3   OH228929   4.405   6.819   5.952
 2457TIP3    H128930   4.482   6.803   6.007
 2457TIP3    H228931   4.434   6.794   5.864
 2458TIP3   OH228932   5.475   2.449   8.187
 2458TIP3    H128933   5.475   2.377   8.124
 2458TIP3    H228934   5.546   2.428   8.248
 2459TIP3   OH228935   2.055   5.240   8.286
 2459TIP3    H128936   1.995   5.238   8.360
 2459TIP3    H228937   2.014   5.299   8.223
 2460TIP3   OH228938   3.980   4.487   7.317
 2460TIP3    H128939   4.049   4.458   7.258
 2460TIP3    H228940   3.914   4.417   7.314
 2461TIP3   OH228941   2.846   6.444   8.610
 2461TIP3    H128942   2.819   6.535   0.004
 2461TIP3    H228943   2.876   6.446   8.519
 2462TIP3   OH228944   0.335   1.498   0.395
 2462TIP3    H128945   0.268   1.551   0.439
 2462TIP3    H228946   0.418   1.537   0.424
 2463TIP3   OH228947   5.585   6.464   2.061
 2463TIP3    H128948   5.560   6.544   2.014
 2463TIP3    H228949   5.572   6.394   1.998
 2464TIP3   OH228950   5.558   1.093   8.212
 2464TIP3    H128951   5.535   1.036   8.139
 2464TIP3    H228952   5.506   1.172   8.198
 2465TIP3   OH228953   3.136   1.821   0.005
 2465TIP3    H128954   3.110   1.791   0.092
 2465TIP3    H228955   3.055   1.824   8.579
 2466TIP3   OH228956   4.624   4.076   1.562
 2466TIP3    H128957   4.694   4.131   1.598
 2466TIP3    H228958   4.568   4.057   1.637
 2467TIP3   OH228959   1.155   1.312   6.470
 2467TIP3    H128960   1.201   1.235   6.504
 2467TIP3    H228961   1.074   1.317   6.521
 2468TIP3   OH228962   5.841   0.963   0.514
 2468TIP3    H128963   5.817   0.986   0.424
 2468TIP3    H228964   5.934   0.984   0.520
 2469TIP3   OH228965   4.341   6.355   8.334
 2469TIP3    H128966   4.275   6.321   8.394
 2469TIP3    H228967   4.377   6.431   8.379
 2470TIP3   OH228968   5.096   6.052   8.035
 2470TIP3    H128969   5.147   6.026   8.111
 2470TIP3    H228970   5.042   6.125   8.066
 2471TIP3   OH228971   6.398   1.285   1.120
 2471TIP3    H128972   6.434   1.197   1.128
 2471TIP3    H228973   6.307   1.271   1.095
 2472TIP3   OH228974   5.330   0.114   7.692
 2472TIP3    H128975   5.350   0.021   7.679
 2472TIP3    H228976   5.413   0.154   7.717
 2473TIP3   OH228977   2.018   6.835   0.991
 2473TIP3    H128978   1.938   6.795   1.024
 2473TIP3    H228979   2.015   0.046   1.024
 2474TIP3   OH228980   0.946   2.064   7.750
 2474TIP3    H128981   0.959   1.976   7.784
 2474TIP3    H228982   0.892   2.051   7.672
 2475TIP3   OH228983   0.125   2.591   1.259
 2475TIP3    H128984   0.208   2.634   1.276
 2475TIP3    H228985   0.061   2.640   1.310
 2476TIP3   OH228986   2.357   0.855   7.661
 2476TIP3    H128987   2.366   0.809   7.744
 2476TIP3    H228988   2.446   0.885   7.640
 2477TIP3   OH228989   4.609   6.789   1.501
 2477TIP3    H128990   4.527   6.753   1.532
 2477TIP3    H228991   4.620   6.871   1.549
 2478TIP3   OH228992   5.413   3.666   7.505
 2478TIP3    H128993   5.379   3.755   7.495
 2478TIP3    H228994   5.405   3.649   7.599
 2479TIP3   OH228995   3.196   6.662   0.759
 2479TIP3    H128996   3.245   6.602   0.702
 2479TIP3    H228997   3.134   6.606   0.805
 2480TIP3   OH228998   1.379   5.315   7.533
 2480TIP3    H128999   1.313   5.247   7.547
 2480TIP3    H229000   1.439   5.278   7.469
 2481TIP3   OH229001   5.562   0.384   8.381
 2481TIP3    H129002   5.626   0.343   8.323
 2481TIP3    H229003   5.595   0.472   8.397
 2482TIP3   OH229004   1.639   1.958   1.798
 2482TIP3    H129005   1.584   2.035   1.786
 2482TIP3    H229006   1.645   1.918   1.712
 2483TIP3   OH229007   6.484   2.112   7.296
 2483TIP3    H129008   6.496   2.031   7.347
 2483TIP3    H229009   6.392   2.134   7.309
 2484TIP3   OH229010   2.373   2.406   0.523
 2484TIP3    H129011   2.363   2.384   0.616
 2484TIP3    H229012   2.378   2.501   0.522
 2485TIP3   OH229013   3.502   6.313   8.322
 2485TIP3    H129014   3.591   6.282   8.304
 2485TIP3    H229015   3.455   6.235   8.350
 2486TIP3   OH229016   6.829   4.441   8.457
 2486TIP3    H129017   6.846   4.369   8.396
 2486TIP3    H229018   6.754   4.488   8.420
 2487TIP3   OH229019   6.203   4.227   7.880
 2487TIP3    H129020   6.230   4.135   7.883
 2487TIP3    H229021   6.110   4.224   7.861
 2488TIP3   OH229022   2.362   2.132   6.471
 2488TIP3    H129023   2.370   2.089   6.386
 2488TIP3    H229024   2.268   2.130   6.490
 2489TIP3   OH229025   0.165   4.296   0.550
 2489TIP3    H129026   0.106   4.229   0.584
 2489TIP3    H229027   0.245   4.285   0.601
 2490TIP3   OH229028   4.066   4.637   0.831
 2490TIP3    H129029   4.152   4.645   0.874
 2490TIP3    H229030   4.042   4.727   0.810
 2491TIP3   OH229031   6.029   0.542   7.691
 2491TIP3    H129032   6.031   0.636   7.707
 2491TIP3    H229033   5.967   0.530   7.619
 2492TIP3   OH229034   1.293   1.669   8.462
 2492TIP3    H129035   1.376   1.634   8.428
 2492TIP3    H229036   1.318   1.744   8.515
 2493TIP3   OH229037   2.778   1.653   7.397
 2493TIP3    H129038   2.694   1.662   7.441
 2493TIP3    H229039   2.816   1.741   7.399
 2494TIP3   OH229040   2.404   0.300   8.444
 2494TIP3    H129041   2.470   0.319   8.377
 2494TIP3    H229042   2.349   0.378   8.446
 2495TIP3   OH229043   5.129   1.896   1.085
 2495TIP3    H129044   5.093   1.919   1.171
 2495TIP3    H229045   5.111   1.972   1.031
 2496TIP3   OH229046   6.720   3.676   2.087
 2496TIP3    H129047   6.652   3.744   2.087
 2496TIP3    H229048   6.671   3.594   2.083
 2497TIP3   OH229049   1.278   5.883   8.020
 2497TIP3    H129050   1.329   5.898   7.940
 2497TIP3    H229051   1.208   5.948   8.017
 2498TIP3   OH229052   1.098   0.683   6.399
 2498TIP3    H129053   1.042   0.632   6.341
 2498TIP3    H229054   1.186   0.671   6.364
 2499TIP3   OH229055   3.664   3.761   1.161
 2499TIP3    H129056   3.758   3.771   1.145
 2499TIP3    H229057   3.641   3.837   1.215
 2500TIP3   OH229058   0.008   4.613   7.539
 2500TIP3    H129059   0.073   4.669   7.498
 2500TIP3    H229060   6.803   4.645   7.505
 2501TIP3   OH229061   5.579   2.046   1.573
 2501TIP3    H129062   5.498   2.012   1.612
 2501TIP3    H229063   5.604   2.119   1.630
 2502TIP3   OH229064   2.630   2.257   7.311
 2502TIP3    H129065   2.547   2.299   7.334
 2502TIP3    H229066   2.642   2.276   7.218
 2503TIP3   OH229067   5.864   0.804   1.500
 2503TIP3    H129068   5.921   0.877   1.475
 2503TIP3    H229069   5.868   0.802   1.596
 2504TIP3   OH229070   5.460   6.741   7.385
 2504TIP3    H129071   5.372   6.770   7.360
 2504TIP3    H229072   5.448   6.650   7.412
 2505TIP3   OH229073   6.433   4.640   6.516
 2505TIP3    H129074   6.419   4.637   6.421
 2505TIP3    H229075   6.365   4.699   6.548
 2506TIP3   OH229076   1.122   2.054   8.069
 2506TIP3    H129077   1.046   1.996   8.070
 2506TIP3    H229078   1.166   2.033   7.987
 2507TIP3   OH229079   2.677   4.607   6.363
 2507TIP3    H129080   2.768   4.585   6.383
 2507TIP3    H229081   2.637   4.523   6.339
 2508TIP3   OH229082   2.713   0.162   0.097
 2508TIP3    H129083   2.709   0.141   0.003
 2508TIP3    H229084   2.630   0.130   0.132
 2509TIP3   OH229085   4.096   6.561   0.021
 2509TIP3    H129086   4.015   6.604   0.049
 2509TIP3    H229087   4.165   6.605   0.071
 2510TIP3   OH229088   5.767   3.089   1.955
 2510TIP3    H129089   5.792   3.162   2.012
 2510TIP3    H229090   5.677   3.069   1.980
 2511TIP3   OH229091   5.952   3.995   1.944
 2511TIP3    H129092   5.977   3.970   2.033
 2511TIP3    H229093   5.871   3.946   1.927
 2512TIP3   OH229094   3.176   1.036   0.053
 2512TIP3    H129095   3.092   1.082   0.062
 2512TIP3    H229096   3.166   0.960   0.109
 2513TIP3   OH229097   2.031   4.334   7.360
 2513TIP3    H129098   2.067   4.320   7.272
 2513TIP3    H229099   1.936   4.340   7.346
 2514TIP3   OH229100   3.211   0.696   1.742
 2514TIP3    H129101   3.157   0.706   1.663
 2514TIP3    H229102   3.287   0.645   1.714
 2515TIP3   OH229103   5.855   2.506   0.107
 2515TIP3    H129104   5.885   2.575   0.048
 2515TIP3    H229105   5.883   2.424   0.065
 2516TIP3   OH229106   5.338   0.287   8.487
 2516TIP3    H129107   5.316   0.380   8.495
 2516TIP3    H229108   5.392   0.283   8.408
 2517TIP3   OH229109   6.310   4.071   8.447
 2517TIP3    H129110   6.326   4.009   8.518
 2517TIP3    H229111   6.255   4.023   8.385
 2518TIP3   OH229112   0.754   5.826   1.867
 2518TIP3    H129113   0.759   5.868   1.953
 2518TIP3    H229114   0.768   5.733   1.885
 2519TIP3   OH229115   0.234   6.307   0.184
 2519TIP3    H129116   0.300   6.359   0.230
 2519TIP3    H229117   0.279   6.274   0.106
 2520TIP3   OH229118   6.048   5.712   1.282
 2520TIP3    H129119   6.098   5.777   1.331
 2520TIP3    H229120   5.983   5.762   1.233
 2521TIP3   OH229121   4.934   2.661   8.599
 2521TIP3    H129122   4.855   2.683   0.024
 2521TIP3    H229123   4.911   2.581   8.551
 2522TIP3   OH229124   2.989   0.696   0.104
 2522TIP3    H129125   2.942   0.692   0.021
 2522TIP3    H229126   3.060   0.632   0.095
 2523TIP3   OH229127   2.169   4.379   8.059
 2523TIP3    H129128   2.196   4.387   8.150
 2523TIP3    H229129   2.192   4.463   8.019
 2524TIP3   OH229130   5.340   0.440   7.905
 2524TIP3    H129131   5.409   0.411   7.966
 2524TIP3    H229132   5.310   0.523   7.941
 2525TIP3   OH229133   3.766   2.333   7.364
 2525TIP3    H129134   3.742   2.271   7.295
 2525TIP3    H229135   3.848   2.298   7.400
 2526TIP3   OH229136   2.026   5.947   0.269
 2526TIP3    H129137   2.071   6.030   0.287
 2526TIP3    H229138   1.975   5.930   0.348
 2527TIP3   OH229139   2.689   1.963   6.871
 2527TIP3    H129140   2.748   2.030   6.837
 2527TIP3    H229141   2.692   1.893   6.806
 2528TIP3   OH229142   3.355   5.710   7.696
 2528TIP3    H129143   3.374   5.715   7.603
 2528TIP3    H229144   3.440   5.693   7.737
 2529TIP3   OH229145   2.558   1.403   6.554
 2529TIP3    H129146   2.599   1.434   6.635
 2529TIP3    H229147   2.557   1.480   6.497
 2530TIP3   OH229148   4.875   3.346   8.318
 2530TIP3    H129149   4.853   3.348   8.411
 2530TIP3    H229150   4.853   3.258   8.289
 2531TIP3   OH229151   6.018   0.250   0.797
 2531TIP3    H129152   6.025   0.161   0.763
 2531TIP3    H229153   6.100   0.292   0.772
 2532TIP3   OH229154   6.872   3.708   0.212
 2532TIP3    H129155   6.838   3.735   0.126
 2532TIP3    H229156   0.044   3.629   0.194
 2533TIP3   OH229157   1.466   4.923   0.929
 2533TIP3    H129158   1.528   4.899   0.860
 2533TIP3    H229159   1.385   4.878   0.905
 2534TIP3   OH229160   4.010   5.508   1.022
 2534TIP3    H129161   4.065   5.438   0.986
 2534TIP3    H229162   3.921   5.471   1.021
 2535TIP3   OH229163   3.804   0.300   7.871
 2535TIP3    H129164   3.827   0.276   7.781
 2535TIP3    H229165   3.874   0.262   7.924
 2536TIP3   OH229166   2.953   3.919   1.080
 2536TIP3    H129167   3.026   3.967   1.119
 2536TIP3    H229168   2.914   3.981   1.018
 2537TIP3   OH229169   6.129   4.582   7.208
 2537TIP3    H129170   6.067   4.519   7.244
 2537TIP3    H229171   6.170   4.623   7.284
 2538TIP3   OH229172   3.759   4.590   1.394
 2538TIP3    H129173   3.810   4.531   1.339
 2538TIP3    H229174   3.728   4.535   1.466
 2539TIP3   OH229175   3.802   2.796   0.452
 2539TIP3    H129176   3.724   2.763   0.496
 2539TIP3    H229177   3.857   2.831   0.523
 2540TIP3   OH229178   1.264   4.514   7.931
 2540TIP3    H129179   1.192   4.515   7.868
 2540TIP3    H229180   1.245   4.587   7.990
 2541TIP3   OH229181   3.225   6.699   0.157
 2541TIP3    H129182   3.237   6.669   0.067
 2541TIP3    H229183   3.163   6.772   0.150
 2542TIP3   OH229184   1.181   0.049   6.038
 2542TIP3    H129185   1.128   0.019   5.964
 2542TIP3    H229186   1.142   0.133   6.062
 2543TIP3   OH229187   6.055   6.121   8.335
 2543TIP3    H129188   5.990   6.050   8.334
 2543TIP3    H229189   6.099   6.111   8.420
 2544TIP3   OH229190   3.117   0.804   6.827
 2544TIP3    H129191   3.095   0.821   6.736
 2544TIP3    H229192   3.183   0.734   6.824
 2545TIP3   OH229193   6.212   0.195   1.007
 2545TIP3    H129194   6.231   0.285   1.032
 2545TIP3    H229195   6.135   0.200   0.951
 2546TIP3   OH229196   1.517   3.427   8.007
 2546TIP3    H129197   1.480   3.504   8.051
 2546TIP3    H229198   1.578   3.463   7.943
 2547TIP3   OH229199   4.080   4.827   1.042
 2547TIP3    H129200   4.063   4.778   1.122
 2547TIP3    H229201   4.162   4.790   1.007
 2548TIP3   OH229202   4.848   5.728   1.193
 2548TIP3    H129203   4.897   5.803   1.228
 2548TIP3    H229204   4.806   5.689   1.270
 2549TIP3   OH229205   2.617   5.461   0.412
 2549TIP3    H129206   2.645   5.489   0.499
 2549TIP3    H229207   2.604   5.543   0.364
 2550TIP3   OH229208   0.071   3.981   0.341
 2550TIP3    H129209   0.157   3.980   0.384
 2550TIP3    H229210   0.041   3.891   0.346
 2551TIP3   OH229211   2.875   6.022   8.354
 2551TIP3    H129212   2.886   6.038   8.447
 2551TIP3    H229213   2.820   5.944   8.349
 2552TIP3   OH229214   6.317   5.378   1.706
 2552TIP3    H129215   6.366   5.340   1.779
 2552TIP3    H229216   6.382   5.391   1.637
 2553TIP3   OH229217   3.957   6.429   8.171
 2553TIP3    H129218   4.005   6.482   8.236
 2553TIP3    H229219   3.928   6.493   8.106
 2554TIP3   OH229220   6.310   2.499   8.506
 2554TIP3    H129221   6.217   2.520   8.502
 2554TIP3    H229222   6.322   2.461   8.593
 2555TIP3   OH229223   2.297   6.768   2.095
 2555TIP3    H129224   2.329   6.857   2.105
 2555TIP3    H229225   2.254   6.749   2.178
 2556TIP3   OH229226   0.998   4.950   7.513
 2556TIP3    H129227   1.026   4.863   7.487
 2556TIP3    H229228   0.903   4.943   7.525
 2557TIP3   OH229229   1.453   1.570   1.827
 2557TIP3    H129230   1.506   1.627   1.883
 2557TIP3    H229231   1.490   1.483   1.839
 2558TIP3   OH229232   2.706   6.143   7.012
 2558TIP3    H129233   2.686   6.233   6.988
 2558TIP3    H229234   2.643   6.091   6.963
 2559TIP3   OH229235   0.476   1.603   2.530
 2559TIP3    H129236   0.532   1.639   2.599
 2559TIP3    H229237   0.388   1.603   2.569
 2560TIP3   OH229238   3.300   6.740   7.523
 2560TIP3    H129239   3.249   6.820   7.506
 2560TIP3    H229240   3.320   6.706   7.436
 2561TIP3   OH229241   4.602   5.366   0.608
 2561TIP3    H129242   4.635   5.453   0.587
 2561TIP3    H229243   4.603   5.363   0.704
 2562TIP3   OH229244   3.562   3.510   1.361
 2562TIP3    H129245   3.600   3.578   1.305
 2562TIP3    H229246   3.506   3.559   1.422
 2563TIP3   OH229247   4.114   2.612   0.639
 2563TIP3    H129248   4.179   2.542   0.637
 2563TIP3    H229249   4.085   2.621   0.548
 2564TIP3   OH229250   4.494   5.815   1.314
 2564TIP3    H129251   4.512   5.905   1.341
 2564TIP3    H229252   4.516   5.762   1.391
 2565TIP3   OH229253   5.169   0.111   0.400
 2565TIP3    H129254   5.079   0.081   0.390
 2565TIP3    H229255   5.214   0.078   0.322
 2566TIP3   OH229256   5.968   5.328   8.589
 2566TIP3    H129257   6.002   5.417   8.602
 2566TIP3    H229258   5.922   5.331   8.505
 2567TIP3   OH229259   6.621   6.266   7.419
 2567TIP3    H129260   6.701   6.297   7.375
 2567TIP3    H229261   6.551   6.282   7.355
 2568TIP3   OH229262   4.788   6.107   0.120
 2568TIP3    H129263   4.762   6.079   0.032
 2568TIP3    H229264   4.804   6.025   0.167
 2569TIP3   OH229265   5.554   5.872   0.233
 2569TIP3    H129266   5.504   5.863   0.152
 2569TIP3    H229267   5.492   5.907   0.296
 2570TIP3   OH229268   0.514   6.538   1.964
 2570TIP3    H129269   0.539   6.447   1.947
 2570TIP3    H229270   0.426   6.546   1.927
 2571TIP3   OH229271   4.342   6.712   1.507
 2571TIP3    H129272   4.254   6.721   1.544
 2571TIP3    H229273   4.327   6.675   1.420
 2572TIP3   OH229274   0.879   3.401   2.619
 2572TIP3    H129275   0.791   3.415   2.655
 2572TIP3    H229276   0.873   3.319   2.571
 2573TIP3   OH229277   0.993   3.463   6.055
 2573TIP3    H129278   0.929   3.526   6.024
 2573TIP3    H229279   1.056   3.515   6.105
 2574TIP3   OH229280   6.105   2.651   7.125
 2574TIP3    H129281   6.088   2.617   7.213
 2574TIP3    H229282   6.039   2.609   7.069
 2575TIP3   OH229283   6.846   1.970   0.712
 2575TIP3    H129284   6.841   1.974   0.808
 2575TIP3    H229285   0.060   1.979   0.693
 2576TIP3   OH229286   6.657   4.057   6.899
 2576TIP3    H129287   6.749   4.053   6.926
 2576TIP3    H229288   6.631   3.966   6.889
 2577TIP3   OH229289   3.345   4.947   7.126
 2577TIP3    H129290   3.324   4.866   7.080
 2577TIP3    H229291   3.268   5.003   7.112
 2578TIP3   OH229292   1.210   5.364   8.264
 2578TIP3    H129293   1.277   5.420   8.225
 2578TIP3    H229294   1.192   5.403   8.349
 2579TIP3   OH229295   0.256   1.597   7.665
 2579TIP3    H129296   0.239   1.654   7.590
 2579TIP3    H229297   0.286   1.515   7.625
 2580TIP3   OH229298   4.232   6.190   2.757
 2580TIP3    H129299   4.235   6.285   2.762
 2580TIP3    H229300   4.289   6.160   2.827
 2581TIP3   OH229301   4.786   6.126   0.961
 2581TIP3    H129302   4.819   6.137   1.050
 2581TIP3    H229303   4.814   6.038   0.935
 2582TIP3   OH229304   2.142   0.818   7.505
 2582TIP3    H129305   2.207   0.801   7.573
 2582TIP3    H229306   2.128   0.913   7.508
 2583TIP3   OH229307   6.856   2.635   0.221
 2583TIP3    H129308   0.011   2.564   0.167
 2583TIP3    H229309   0.004   2.612   0.310
 2584TIP3   OH229310   3.718   4.440   7.032
 2584TIP3    H129311   3.740   4.388   6.954
 2584TIP3    H229312   3.733   4.380   7.105
 2585TIP3   OH229313   4.468   2.437   7.635
 2585TIP3    H129314   4.520   2.371   7.681
 2585TIP3    H229315   4.385   2.393   7.618
 2586TIP3   OH229316   1.903   4.285   0.790
 2586TIP3    H129317   1.845   4.228   0.741
 2586TIP3    H229318   1.963   4.320   0.725
 2587TIP3   OH229319   3.466   3.139   6.955
 2587TIP3    H129320   3.486   3.205   6.888
 2587TIP3    H229321   3.518   3.063   6.929
 2588TIP3   OH229322   3.237   1.974   8.407
 2588TIP3    H129323   3.168   2.040   8.405
 2588TIP3    H229324   3.211   1.914   8.478
 2589TIP3   OH229325   3.131   4.616   0.019
 2589TIP3    H129326   3.195   4.625   8.572
 2589TIP3    H229327   3.163   4.676   0.087
 2590TIP3   OH229328   4.120   1.590   8.405
 2590TIP3    H129329   4.210   1.586   8.436
 2590TIP3    H229330   4.117   1.527   8.334
 2591TIP3   OH229331   2.654   2.310   6.337
 2591TIP3    H129332   2.741   2.345   6.316
 2591TIP3    H229333   2.659   2.217   6.316
 2592TIP3   OH229334   6.427   2.181   6.813
 2592TIP3    H129335   6.484   2.169   6.888
 2592TIP3    H229336   6.444   2.271   6.784
 2593TIP3   OH229337   1.203   6.659   7.462
 2593TIP3    H129338   1.147   6.683   7.535
 2593TIP3    H229339   1.245   6.740   7.436
 2594TIP3   OH229340   5.522   6.597   8.410
 2594TIP3    H129341   5.545   6.597   8.317
 2594TIP3    H229342   5.576   6.666   8.449
 2595TIP3   OH229343   0.210   5.435   1.120
 2595TIP3    H129344   0.213   5.360   1.179
 2595TIP3    H229345   0.117   5.457   1.113
 2596TIP3   OH229346   5.691   0.974   0.261
 2596TIP3    H129347   5.688   0.997   0.168
 2596TIP3    H229348   5.603   0.943   0.282
 2597TIP3   OH229349   6.461   6.126   8.062
 2597TIP3    H129350   6.448   6.145   8.155
 2597TIP3    H229351   6.556   6.122   8.052
 2598TIP3   OH229352   4.285   3.848   7.316
 2598TIP3    H129353   4.191   3.836   7.323
 2598TIP3    H229354   4.303   3.845   7.222
 2599TIP3   OH229355   0.872   0.259   0.689
 2599TIP3    H129356   0.798   0.213   0.727
 2599TIP3    H229357   0.927   0.283   0.764
 2600TIP3   OH229358   1.253   5.113   0.844
 2600TIP3    H129359   1.192   5.062   0.789
 2600TIP3    H229360   1.231   5.204   0.826
 2601TIP3   OH229361   3.270   0.921   6.539
 2601TIP3    H129362   3.266   1.017   6.546
 2601TIP3    H229363   3.181   0.892   6.559
 2602TIP3   OH229364   0.771   6.023   7.994
 2602TIP3    H129365   0.761   6.064   7.909
 2602TIP3    H229366   0.702   6.062   8.048
 2603TIP3   OH229367   5.853   2.211   1.274
 2603TIP3    H129368   5.785   2.277   1.262
 2603TIP3    H229369   5.812   2.129   1.247
 2604TIP3   OH229370   1.116   4.154   0.359
 2604TIP3    H129371   1.179   4.104   0.412
 2604TIP3    H229372   1.042   4.094   0.347
 2605TIP3   OH229373   5.425   1.808   0.154
 2605TIP3    H129374   5.434   1.899   0.127
 2605TIP3    H229375   5.382   1.813   0.240
 2606TIP3   OH229376   5.473   1.345   6.469
 2606TIP3    H129377   5.424   1.263   6.464
 2606TIP3    H229378   5.447   1.394   6.391
 2607TIP3   OH229379   3.529   1.970   0.140
 2607TIP3    H129380   3.455   2.031   0.131
 2607TIP3    H229381   3.606   2.024   0.122
 2608TIP3   OH229382   4.236   5.140   1.467
 2608TIP3    H129383   4.184   5.178   1.396
 2608TIP3    H229384   4.180   5.149   1.545
 2609TIP3   OH229385   5.524   0.518   2.203
 2609TIP3    H129386   5.465   0.575   2.253
 2609TIP3    H229387   5.612   0.549   2.226
 2610TIP3   OH229388   1.046   4.374   0.201
 2610TIP3    H129389   1.126   4.402   0.156
 2610TIP3    H229390   1.074   4.300   0.255
 2611TIP3   OH229391   6.183   3.685   7.027
 2611TIP3    H129392   6.139   3.601   7.042
 2611TIP3    H229393   6.185   3.726   7.114
 2612TIP3   OH229394   2.534   0.823   1.654
 2612TIP3    H129395   2.615   0.838   1.703
 2612TIP3    H229396   2.475   0.782   1.718
 2613TIP3   OH229397   5.485   3.509   1.291
 2613TIP3    H129398   5.558   3.522   1.230
 2613TIP3    H229399   5.415   3.565   1.258
 2614TIP3   OH229400   5.965   4.374   7.745
 2614TIP3    H129401   5.924   4.446   7.698
 2614TIP3    H229402   5.951   4.395   7.838
 2615TIP3   OH229403   1.340   0.292   1.154
 2615TIP3    H129404   1.435   0.288   1.161
 2615TIP3    H229405   1.323   0.319   1.064
 2616TIP3   OH229406   0.379   0.152   2.663
 2616TIP3    H129407   0.317   0.115   2.599
 2616TIP3    H229408   0.465   0.140   2.623
 2617TIP3   OH229409   4.807   3.116   0.893
 2617TIP3    H129410   4.891   3.161   0.908
 2617TIP3    H229411   4.789   3.071   0.976
 2618TIP3   OH229412   1.209   0.925   8.032
 2618TIP3    H129413   1.280   0.878   7.989
 2618TIP3    H229414   1.148   0.856   8.060
 2619TIP3   OH229415   2.244   0.757   2.172
 2619TIP3    H129416   2.211   0.696   2.105
 2619TIP3    H229417   2.251   0.841   2.127
 2620TIP3   OH229418   1.232   1.718   7.452
 2620TIP3    H129419   1.308   1.776   7.443
 2620TIP3    H229420   1.165   1.756   7.395
 2621TIP3   OH229421   2.130   2.815   0.556
 2621TIP3    H129422   2.077   2.813   0.476
 2621TIP3    H229423   2.182   2.735   0.553
 2622TIP3   OH229424   4.964   6.740   6.378
 2622TIP3    H129425   4.913   6.688   6.316
 2622TIP3    H229426   4.940   6.831   6.358
 2623TIP3   OH229427   5.414   0.829   6.436
 2623TIP3    H129428   5.431   0.823   6.342
 2623TIP3    H229429   5.470   0.762   6.475
 2624TIP3   OH229430   0.367   0.290   8.342
 2624TIP3    H129431   0.436   0.255   8.287
 2624TIP3    H229432   0.308   0.335   8.281
 2625TIP3   OH229433   0.770   1.237   1.997
 2625TIP3    H129434   0.770   1.162   2.057
 2625TIP3    H229435   0.680   1.242   1.965
 2626TIP3   OH229436   6.024   4.792   0.384
 2626TIP3    H129437   6.051   4.854   0.316
 2626TIP3    H229438   6.085   4.719   0.375
 2627TIP3   OH229439   3.267   0.958   2.520
 2627TIP3    H129440   3.286   0.884   2.579
 2627TIP3    H229441   3.336   0.955   2.455
 2628TIP3   OH229442   0.311   5.996   0.575
 2628TIP3    H129443   0.365   6.035   0.643
 2628TIP3    H229444   0.228   6.042   0.581
 2629TIP3   OH229445   6.815   1.558   7.987
 2629TIP3    H129446   6.851   1.507   7.914
 2629TIP3    H229447   6.764   1.627   7.944
 2630TIP3   OH229448   1.136   6.186   2.040
 2630TIP3    H129449   1.045   6.179   2.070
 2630TIP3    H229450   1.157   6.100   2.006
 2631TIP3   OH229451   3.355   0.680   2.388
 2631TIP3    H129452   3.291   0.619   2.352
 2631TIP3    H229453   3.341   0.677   2.482
 2632TIP3   OH229454   5.845   3.256   8.368
 2632TIP3    H129455   5.780   3.258   8.438
 2632TIP3    H229456   5.837   3.169   8.330
 2633TIP3   OH229457   3.493   3.069   1.738
 2633TIP3    H129458   3.407   3.068   1.778
 2633TIP3    H229459   3.553   3.093   1.809
 2634TIP3   OH229460   1.660   2.156   8.076
 2634TIP3    H129461   1.599   2.220   8.039
 2634TIP3    H229462   1.711   2.206   8.141
 2635TIP3   OH229463   3.408   2.316   1.711
 2635TIP3    H129464   3.377   2.379   1.776
 2635TIP3    H229465   3.359   2.337   1.632
 2636TIP3   OH229466   6.825   4.577   8.098
 2636TIP3    H129467   6.741   4.541   8.126
 2636TIP3    H229468   6.842   4.649   8.160
 2637TIP3   OH229469   1.360   1.754   1.404
 2637TIP3    H129470   1.267   1.777   1.400
 2637TIP3    H229471   1.403   1.836   1.429
 2638TIP3   OH229472   3.685   0.599   8.235
 2638TIP3    H129473   3.592   0.601   8.258
 2638TIP3    H229474   3.726   0.660   8.296
 2639TIP3   OH229475   3.141   3.645   5.975
 2639TIP3    H129476   3.222   3.599   5.957
 2639TIP3    H229477   3.095   3.589   6.038
 2640TIP3   OH229478   5.243   4.507   7.647
 2640TIP3    H129479   5.202   4.504   7.561
 2640TIP3    H229480   5.185   4.455   7.703
 2641TIP3   OH229481   3.523   4.470   0.452
 2641TIP3    H129482   3.563   4.556   0.441
 2641TIP3    H229483   3.460   4.482   0.523
 2642TIP3   OH229484   4.275   6.546   0.868
 2642TIP3    H129485   4.207   6.488   0.902
 2642TIP3    H229486   4.280   6.525   0.775
 2643TIP3   OH229487   0.904   4.003   0.283
 2643TIP3    H129488   0.928   3.933   0.223
 2643TIP3    H229489   0.823   4.040   0.247
 2644TIP3   OH229490   1.536   4.013   7.498
 2644TIP3    H129491   1.599   3.951   7.534
 2644TIP3    H229492   1.531   3.992   7.405
 2645TIP3   OH229493   2.195   3.639   1.675
 2645TIP3    H129494   2.203   3.733   1.690
 2645TIP3    H229495   2.201   3.630   1.579
 2646TIP3   OH229496   0.199   3.859   2.041
 2646TIP3    H129497   0.110   3.885   2.067
 2646TIP3    H229498   0.185   3.793   1.973
 2647TIP3   OH229499   5.147   1.649   7.122
 2647TIP3    H129500   5.185   1.709   7.186
 2647TIP3    H229501   5.116   1.706   7.052
 2648TIP3   OH229502   6.187   3.895   1.107
 2648TIP3    H129503   6.272   3.933   1.126
 2648TIP3    H229504   6.129   3.970   1.094
 2649TIP3   OH229505   2.133   5.297   1.004
 2649TIP3    H129506   2.215   5.280   0.958
 2649TIP3    H229507   2.141   5.387   1.036
 2650TIP3   OH229508   4.991   2.597   2.371
 2650TIP3    H129509   5.029   2.532   2.313
 2650TIP3    H229510   5.013   2.681   2.331
 2651TIP3   OH229511   6.433   3.672   6.886
 2651TIP3    H129512   6.417   3.740   6.821
 2651TIP3    H229513   6.353   3.670   6.939
 2652TIP3   OH229514   4.913   0.044   7.550
 2652TIP3    H129515   4.867   0.036   7.466
 2652TIP3    H229516   4.989   0.099   7.529
 2653TIP3   OH229517   6.540   4.860   2.045
 2653TIP3    H129518   6.600   4.901   1.982
 2653TIP3    H229519   6.539   4.767   2.020
 2654TIP3   OH229520   1.252   4.108   2.138
 2654TIP3    H129521   1.253   4.084   2.045
 2654TIP3    H229522   1.314   4.180   2.145
 2655TIP3   OH229523   2.156   4.364   2.331
 2655TIP3    H129524   2.196   4.359   2.244
 2655TIP3    H229525   2.217   4.418   2.382
 2656TIP3   OH229526   5.006   3.622   0.510
 2656TIP3    H129527   4.922   3.638   0.553
 2656TIP3    H229528   5.056   3.702   0.526
 2657TIP3   OH229529   4.143   2.418   8.615
 2657TIP3    H129530   4.169   2.507   0.013
 2657TIP3    H229531   4.182   2.401   8.529
 2658TIP3   OH229532   1.096   0.791   0.806
 2658TIP3    H129533   1.164   0.813   0.870
 2658TIP3    H229534   1.014   0.794   0.857
 2659TIP3   OH229535   2.278   0.842   8.271
 2659TIP3    H129536   2.364   0.815   8.240
 2659TIP3    H229537   2.291   0.864   8.363
 2660TIP3   OH229538   4.679   4.453   6.634
 2660TIP3    H129539   4.653   4.449   6.542
 2660TIP3    H229540   4.730   4.373   6.648
 2661TIP3   OH229541   3.329   1.870   6.733
 2661TIP3    H129542   3.367   1.800   6.680
 2661TIP3    H229543   3.307   1.938   6.670
 2662TIP3   OH229544   3.534   6.790   8.415
 2662TIP3    H129545   3.571   6.849   8.481
 2662TIP3    H229546   3.599   6.721   8.405
 2663TIP3   OH229547   5.625   4.021   6.754
 2663TIP3    H129548   5.673   4.087   6.704
 2663TIP3    H229549   5.599   3.955   6.690
 2664TIP3   OH229550   6.201   0.671   2.093
 2664TIP3    H129551   6.129   0.666   2.156
 2664TIP3    H229552   6.244   0.754   2.113
 2665TIP3   OH229553   0.933   6.438   1.685
 2665TIP3    H129554   0.862   6.375   1.672
 2665TIP3    H229555   0.906   6.488   1.762
 2666TIP3   OH229556   4.458   3.684   0.773
 2666TIP3    H129557   4.381   3.726   0.735
 2666TIP3    H229558   4.453   3.594   0.743
 2667TIP3   OH229559   4.012   4.050   7.936
 2667TIP3    H129560   4.067   4.008   7.870
 2667TIP3    H229561   3.948   4.100   7.886
 2668TIP3   OH229562   4.168   5.744   0.124
 2668TIP3    H129563   4.250   5.757   0.172
 2668TIP3    H229564   4.126   5.671   0.170
 2669TIP3   OH229565   3.839   6.683   2.481
 2669TIP3    H129566   3.856   6.619   2.411
 2669TIP3    H229567   3.744   6.680   2.492
 2670TIP3   OH229568   6.485   6.403   0.402
 2670TIP3    H129569   6.436   6.439   0.476
 2670TIP3    H229570   6.417   6.374   0.340
 2671TIP3   OH229571   2.673   4.608   6.776
 2671TIP3    H129572   2.759   4.593   6.738
 2671TIP3    H229573   2.642   4.688   6.733
 2672TIP3   OH229574   0.411   1.862   0.864
 2672TIP3    H129575   0.410   1.897   0.953
 2672TIP3    H229576   0.365   1.778   0.870
 2673TIP3   OH229577   3.853   5.471   7.847
 2673TIP3    H129578   3.762   5.448   7.865
 2673TIP3    H229579   3.855   5.486   7.752
 2674TIP3   OH229580   2.376   1.892   8.594
 2674TIP3    H129581   2.313   1.869   0.038
 2674TIP3    H229582   2.327   1.884   8.512
 2675TIP3   OH229583   6.280   2.850   1.438
 2675TIP3    H129584   6.250   2.922   1.381
 2675TIP3    H229585   6.200   2.816   1.478
 2676TIP3   OH229586   6.351   0.709   0.622
 2676TIP3    H129587   6.445   0.693   0.617
 2676TIP3    H229588   6.335   0.732   0.714
 2677TIP3   OH229589   6.277   4.463   0.078
 2677TIP3    H129590   6.216   4.390   0.062
 2677TIP3    H229591   6.356   4.421   0.111
 2678TIP3   OH229592   4.516   2.574   1.378
 2678TIP3    H129593   4.552   2.511   1.440
 2678TIP3    H229594   4.428   2.541   1.360
 2679TIP3   OH229595   0.902   5.849   0.651
 2679TIP3    H129596   0.818   5.803   0.659
 2679TIP3    H229597   0.918   5.854   0.557
 2680TIP3   OH229598   6.491   5.781   2.783
 2680TIP3    H129599   6.439   5.742   2.854
 2680TIP3    H229600   6.473   5.725   2.707
 2681TIP3   OH229601   3.698   3.488   7.555
 2681TIP3    H129602   3.617   3.507   7.507
 2681TIP3    H229603   3.748   3.569   7.549
 2682TIP3   OH229604   6.795   1.688   8.468
 2682TIP3    H129605   6.759   1.669   8.382
 2682TIP3    H229606   6.791   1.784   8.475
 2683TIP3   OH229607   3.850   4.496   7.842
 2683TIP3    H129608   3.890   4.428   7.789
 2683TIP3    H229609   3.863   4.468   7.932
 2684TIP3   OH229610   4.274   4.983   7.244
 2684TIP3    H129611   4.309   5.065   7.277
 2684TIP3    H229612   4.210   5.008   7.178
 2685TIP3   OH229613   6.019   0.019   8.258
 2685TIP3    H129614   5.964   6.843   8.314
 2685TIP3    H229615   5.985   0.005   8.170
 2686TIP3   OH229616   1.323   6.353   8.526
 2686TIP3    H129617   1.369   6.312   8.452
 2686TIP3    H229618   1.393   6.374   8.588
 2687TIP3   OH229619   3.152   0.804   1.478
 2687TIP3    H129620   3.135   0.887   1.522
 2687TIP3    H229621   3.184   0.828   1.391
 2688TIP3   OH229622   3.300   6.823   6.577
 2688TIP3    H129623   3.205   6.834   6.568
 2688TIP3    H229624   3.318   6.740   6.532
 2689TIP3   OH229625   3.120   2.477   6.898
 2689TIP3    H129626   3.178   2.463   6.972
 2689TIP3    H229627   3.034   2.445   6.928
 2690TIP3   OH229628   1.539   2.230   6.591
 2690TIP3    H129629   1.453   2.272   6.598
 2690TIP3    H229630   1.598   2.289   6.637
 2691TIP3   OH229631   3.288   2.489   7.597
 2691TIP3    H129632   3.253   2.453   7.678
 2691TIP3    H229633   3.268   2.423   7.530
 2692TIP3   OH229634   4.744   4.279   0.441
 2692TIP3    H129635   4.693   4.352   0.406
 2692TIP3    H229636   4.792   4.244   0.366
 2693TIP3   OH229637   5.988   0.431   1.301
 2693TIP3    H129638   6.080   0.410   1.315
 2693TIP3    H229639   5.953   0.448   1.388
 2694TIP3   OH229640   0.055   3.863   7.365
 2694TIP3    H129641   0.092   3.844   7.451
 2694TIP3    H229642   6.840   3.859   7.378
 2695TIP3   OH229643   4.848   1.101   0.170
 2695TIP3    H129644   4.805   1.126   0.252
 2695TIP3    H229645   4.854   1.006   0.173
 2696TIP3   OH229646   1.461   5.724   1.759
 2696TIP3    H129647   1.388   5.669   1.786
 2696TIP3    H229648   1.454   5.727   1.663
 2697TIP3   OH229649   5.973   3.275   0.087
 2697TIP3    H129650   6.013   3.308   0.167
 2697TIP3    H229651   5.957   3.353   0.034
 2698TIP3   OH229652   0.565   0.062   7.473
 2698TIP3    H129653   0.488   0.093   7.522
 2698TIP3    H229654   0.542   0.076   7.381
 2699TIP3   OH229655   3.516   5.824   1.202
 2699TIP3    H129656   3.465   5.884   1.256
 2699TIP3    H229657   3.509   5.860   1.113
 2700TIP3   OH229658   0.069   1.245   8.010
 2700TIP3    H129659   6.875   1.189   8.034
 2700TIP3    H229660   0.113   1.197   7.939
 2701TIP3   OH229661   3.896   2.488   7.097
 2701TIP3    H129662   3.984   2.463   7.069
 2701TIP3    H229663   3.838   2.454   7.028
 2702TIP3   OH229664   3.526   1.046   0.860
 2702TIP3    H129665   3.444   1.014   0.824
 2702TIP3    H229666   3.541   1.129   0.816
 2703TIP3   OH229667   4.466   2.548   8.138
 2703TIP3    H129668   4.525   2.609   8.094
 2703TIP3    H229669   4.462   2.581   8.228
 2704TIP3   OH229670   1.150   6.253   6.516
 2704TIP3    H129671   1.085   6.285   6.454
 2704TIP3    H229672   1.221   6.316   6.511
 2705TIP3   OH229673   6.711   0.532   7.829
 2705TIP3    H129674   6.621   0.524   7.861
 2705TIP3    H229675   6.729   0.449   7.786
 2706TIP3   OH229676   0.312   4.014   6.896
 2706TIP3    H129677   0.282   3.924   6.909
 2706TIP3    H229678   0.407   4.008   6.896
 2707TIP3   OH229679   4.613   1.466   0.858
 2707TIP3    H129680   4.616   1.507   0.771
 2707TIP3    H229681   4.704   1.466   0.887
 2708TIP3   OH229682   0.302   2.219   1.241
 2708TIP3    H129683   0.209   2.218   1.264
 2708TIP3    H229684   0.347   2.202   1.324
 2709TIP3   OH229685   6.288   2.083   2.597
 2709TIP3    H129686   6.229   2.123   2.533
 2709TIP3    H229687   6.372   2.126   2.582
 2710TIP3   OH229688   4.355   4.034   7.963
 2710TIP3    H129689   4.348   4.116   8.011
 2710TIP3    H229690   4.326   4.056   7.874
 2711TIP3   OH229691   2.859   3.411   0.041
 2711TIP3    H129692   2.910   3.350   0.094
 2711TIP3    H229693   2.914   3.489   0.035
 2712TIP3   OH229694   5.615   6.191   7.507
 2712TIP3    H129695   5.658   6.111   7.537
 2712TIP3    H229696   5.586   6.235   7.587
 2713TIP3   OH229697   0.157   3.514   0.982
 2713TIP3    H129698   0.120   3.518   1.070
 2713TIP3    H229699   0.181   3.605   0.962
 2714TIP3   OH229700   0.389   3.788   7.628
 2714TIP3    H129701   0.419   3.788   7.537
 2714TIP3    H229702   0.405   3.877   7.659
 2715TIP3   OH229703   2.661   6.127   7.607
 2715TIP3    H129704   2.750   6.147   7.578
 2715TIP3    H229705   2.614   6.103   7.526
 2716TIP3   OH229706   1.885   0.359   1.247
 2716TIP3    H129707   1.793   0.361   1.219
 2716TIP3    H229708   1.881   0.333   1.339
 2717TIP3   OH229709   1.511   6.288   1.201
 2717TIP3    H129710   1.454   6.333   1.263
 2717TIP3    H229711   1.456   6.219   1.163
 2718TIP3   OH229712   5.780   1.540   0.803
 2718TIP3    H129713   5.807   1.475   0.868
 2718TIP3    H229714   5.838   1.524   0.728
 2719TIP3   OH229715   3.138   5.959   6.970
 2719TIP3    H129716   3.127   5.864   6.973
 2719TIP3    H229717   3.076   5.993   7.036
 2720TIP3   OH229718   5.283   5.034   7.190
 2720TIP3    H129719   5.212   4.985   7.233
 2720TIP3    H229720   5.335   4.967   7.147
 2721TIP3   OH229721   3.855   5.608   7.616
 2721TIP3    H129722   3.796   5.666   7.663
 2721TIP3    H229723   3.909   5.666   7.563
 2722TIP3   OH229724   0.786   1.456   1.456
 2722TIP3    H129725   0.723   1.478   1.524
 2722TIP3    H229726   0.759   1.509   1.381
 2723TIP3   OH229727   3.594   1.116   2.012
 2723TIP3    H129728   3.529   1.179   1.979
 2723TIP3    H229729   3.623   1.153   2.095
 2724TIP3   OH229730   3.286   3.802   7.221
 2724TIP3    H129731   3.224   3.814   7.150
 2724TIP3    H229732   3.370   3.830   7.185
 2725TIP3   OH229733   2.525   6.211   1.393
 2725TIP3    H129734   2.550   6.127   1.356
 2725TIP3    H229735   2.606   6.261   1.397
 2726TIP3   OH229736   2.112   2.000   6.885
 2726TIP3    H129737   2.159   2.083   6.884
 2726TIP3    H229738   2.161   1.945   6.823
 2727TIP3   OH229739   3.493   4.764   6.794
 2727TIP3    H129740   3.423   4.708   6.828
 2727TIP3    H229741   3.550   4.704   6.746
 2728TIP3   OH229742   3.560   5.118   7.735
 2728TIP3    H129743   3.532   5.186   7.673
 2728TIP3    H229744   3.645   5.149   7.766
 2729TIP3   OH229745   5.373   0.756   1.954
 2729TIP3    H129746   5.460   0.721   1.972
 2729TIP3    H229747   5.344   0.708   1.877
 2730TIP3   OH229748   0.496   5.860   1.957
 2730TIP3    H129749   0.581   5.840   1.920
 2730TIP3    H229750   0.505   5.840   2.050
 2731TIP3   OH229751   4.121   6.008   7.157
 2731TIP3    H129752   4.082   5.921   7.161
 2731TIP3    H229753   4.059   6.060   7.108
 2732TIP3   OH229754   0.201   2.077   7.277
 2732TIP3    H129755   0.146   2.056   7.353
 2732TIP3    H229756   0.253   1.999   7.263
 2733TIP3   OH229757   5.897   6.052   2.305
 2733TIP3    H129758   5.950   6.128   2.332
 2733TIP3    H229759   5.871   6.071   2.215
 2734TIP3   OH229760   5.814   4.161   8.136
 2734TIP3    H129761   5.827   4.235   8.195
 2734TIP3    H229762   5.797   4.201   8.051
 2735TIP3   OH229763   6.070   2.704   1.496
 2735TIP3    H129764   6.000   2.700   1.561
 2735TIP3    H229765   6.044   2.640   1.430
 2736TIP3   OH229766   6.646   0.503   7.246
 2736TIP3    H129767   6.719   0.441   7.245
 2736TIP3    H229768   6.572   0.452   7.211
 2737TIP3   OH229769   3.340   2.160   0.124
 2737TIP3    H129770   3.248   2.176   0.144
 2737TIP3    H229771   3.356   2.208   0.044
 2738TIP3   OH229772   3.803   0.581   0.801
 2738TIP3    H129773   3.732   0.533   0.843
 2738TIP3    H229774   3.769   0.670   0.789
 2739TIP3   OH229775   3.246   3.763   1.870
 2739TIP3    H129776   3.194   3.711   1.932
 2739TIP3    H229777   3.335   3.728   1.879
 2740TIP3   OH229778   2.583   4.798   6.624
 2740TIP3    H129779   2.655   4.786   6.563
 2740TIP3    H229780   2.528   4.865   6.584
 2741TIP3   OH229781   3.160   5.763   7.865
 2741TIP3    H129782   3.229   5.768   7.800
 2741TIP3    H229783   3.084   5.731   7.817
 2742TIP3   OH229784   1.465   4.726   2.182
 2742TIP3    H129785   1.455   4.747   2.089
 2742TIP3    H229786   1.382   4.686   2.207
 2743TIP3   OH229787   0.838   2.315   7.329
 2743TIP3    H129788   0.831   2.249   7.398
 2743TIP3    H229789   0.750   2.320   7.292
 2744TIP3   OH229790   4.555   0.036   0.982
 2744TIP3    H129791   4.541   6.839   1.037
 2744TIP3    H229792   4.489   0.029   0.912
 2745TIP3   OH229793   3.484   2.834   1.534
 2745TIP3    H129794   3.474   2.898   1.604
 2745TIP3    H229795   3.400   2.789   1.530
 2746TIP3   OH229796   3.282   4.960   6.501
 2746TIP3    H129797   3.196   4.922   6.517
 2746TIP3    H229798   3.308   4.925   6.416
 2747TIP3   OH229799   5.037   2.369   1.665
 2747TIP3    H129800   5.066   2.440   1.722
 2747TIP3    H229801   5.093   2.295   1.689
 2748TIP3   OH229802   6.242   0.165   8.400
 2748TIP3    H129803   6.198   0.221   8.464
 2748TIP3    H229804   6.171   0.118   8.356
 2749TIP3   OH229805   5.840   1.301   8.527
 2749TIP3    H129806   5.751   1.272   8.551
 2749TIP3    H229807   5.867   1.240   8.458
 2750TIP3   OH229808   0.037   3.530   8.456
 2750TIP3    H129809   6.854   3.505   8.524
 2750TIP3    H229810   6.870   3.516   8.374
 2751TIP3   OH229811   6.577   1.316   2.080
 2751TIP3    H129812   6.533   1.344   2.161
 2751TIP3    H229813   6.662   1.358   2.084
 2752TIP3   OH229814   0.935   2.746   0.798
 2752TIP3    H129815   0.969   2.807   0.864
 2752TIP3    H229816   0.885   2.682   0.849
 2753TIP3   OH229817   1.966   1.665   7.179
 2753TIP3    H129818   1.925   1.751   7.191
 2753TIP3    H229819   1.948   1.643   7.088
 2754TIP3   OH229820   6.458   0.445   2.778
 2754TIP3    H129821   6.490   0.447   2.868
 2754TIP3    H229822   6.523   0.496   2.729
 2755TIP3   OH229823   6.501   3.475   7.349
 2755TIP3    H129824   6.545   3.391   7.365
 2755TIP3    H229825   6.516   3.491   7.256
 2756TIP3   OH229826   4.288   0.007   6.875
 2756TIP3    H129827   4.383   0.011   6.889
 2756TIP3    H229828   4.277   6.817   6.809
 2757TIP3   OH229829   4.273   2.572   0.416
 2757TIP3    H129830   4.283   2.644   0.353
 2757TIP3    H229831   4.189   2.532   0.393
 2758TIP3   OH229832   5.725   1.338   0.218
 2758TIP3    H129833   5.767   1.348   0.133
 2758TIP3    H229834   5.696   1.427   0.242
 2759TIP3   OH229835   0.656   3.175   1.767
 2759TIP3    H129836   0.590   3.167   1.698
 2759TIP3    H229837   0.683   3.267   1.764
 2760TIP3   OH229838   3.528   6.432   0.349
 2760TIP3    H129839   3.439   6.462   0.335
 2760TIP3    H229840   3.524   6.337   0.336
 2761TIP3   OH229841   3.231   3.816   6.166
 2761TIP3    H129842   3.219   3.735   6.215
 2761TIP3    H229843   3.233   3.789   6.074
 2762TIP3   OH229844   1.289   3.114   1.631
 2762TIP3    H129845   1.357   3.181   1.633
 2762TIP3    H229846   1.254   3.118   1.542
 2763TIP3   OH229847   3.881   6.248   0.145
 2763TIP3    H129848   3.942   6.211   0.081
 2763TIP3    H229849   3.811   6.286   0.093
 2764TIP3   OH229850   0.301   5.742   7.760
 2764TIP3    H129851   0.366   5.788   7.814
 2764TIP3    H229852   0.346   5.725   7.678
 2765TIP3   OH229853   2.827   2.008   0.307
 2765TIP3    H129854   2.746   2.053   0.329
 2765TIP3    H229855   2.890   2.079   0.288
 2766TIP3   OH229856   1.106   0.750   0.149
 2766TIP3    H129857   1.140   0.676   0.199
 2766TIP3    H229858   1.094   0.716   0.060
 2767TIP3   OH229859   4.934   4.399   7.075
 2767TIP3    H129860   5.018   4.397   7.029
 2767TIP3    H229861   4.884   4.328   7.037
 2768TIP3   OH229862   1.459   3.472   0.351
 2768TIP3    H129863   1.489   3.381   0.358
 2768TIP3    H229864   1.366   3.464   0.330
 2769TIP3   OH229865   5.848   0.509   0.473
 2769TIP3    H129866   5.915   0.572   0.501
 2769TIP3    H229867   5.801   0.555   0.403
 2770TIP3   OH229868   6.775   6.641   7.301
 2770TIP3    H129869   6.706   6.618   7.238
 2770TIP3    H229870   6.728   6.689   7.370
 2771TIP3   OH229871   2.113   0.689   7.261
 2771TIP3    H129872   2.101   0.737   7.342
 2771TIP3    H229873   2.030   0.699   7.214
 2772TIP3   OH229874   2.998   5.859   1.927
 2772TIP3    H129875   2.930   5.810   1.973
 2772TIP3    H229876   3.076   5.804   1.933
 2773TIP3   OH229877   5.953   0.170   2.678
 2773TIP3    H129878   5.936   0.196   2.587
 2773TIP3    H229879   6.037   0.210   2.700
 2774TIP3   OH229880   0.854   2.045   7.487
 2774TIP3    H129881   0.858   1.994   7.405
 2774TIP3    H229882   0.771   2.018   7.527
 2775TIP3   OH229883   1.646   1.607   0.635
 2775TIP3    H129884   1.719   1.545   0.632
 2775TIP3    H229885   1.603   1.599   0.551
 2776TIP3   OH229886   6.804   4.179   2.262
 2776TIP3    H129887   6.745   4.226   2.320
 2776TIP3    H229888   0.008   4.226   2.268
 2777TIP3   OH229889   1.053   1.527   1.356
 2777TIP3    H129890   1.139   1.552   1.387
 2777TIP3    H229891   0.992   1.563   1.420
 2778TIP3   OH229892   1.294   3.415   0.102
 2778TIP3    H129893   1.334   3.442   0.019
 2778TIP3    H229894   1.341   3.335   0.127
 2779TIP3   OH229895   4.721   0.550   0.400
 2779TIP3    H129896   4.727   0.621   0.463
 2779TIP3    H229897   4.733   0.592   0.315
 2780TIP3   OH229898   1.851   0.253   1.499
 2780TIP3    H129899   1.756   0.244   1.513
 2780TIP3    H229900   1.884   0.163   1.505
 2781TIP3   OH229901   5.464   0.255   2.279
 2781TIP3    H129902   5.481   0.342   2.244
 2781TIP3    H229903   5.396   0.269   2.346
 2782TIP3   OH229904   4.506   4.178   6.452
 2782TIP3    H129905   4.457   4.096   6.443
 2782TIP3    H229906   4.439   4.244   6.469
 2783TIP3   OH229907   0.502   5.223   8.018
 2783TIP3    H129908   0.480   5.130   8.017
 2783TIP3    H229909   0.455   5.258   8.093
 2784TIP3   OH229910   3.127   4.700   7.390
 2784TIP3    H129911   3.094   4.742   7.310
 2784TIP3    H229912   3.083   4.615   7.393
 2785TIP3   OH229913   1.503   5.207   1.756
 2785TIP3    H129914   1.484   5.242   1.843
 2785TIP3    H229915   1.451   5.126   1.751
 2786TIP3   OH229916   2.795   1.700   0.050
 2786TIP3    H129917   2.727   1.761   0.077
 2786TIP3    H229918   2.846   1.748   8.608
 2787TIP3   OH229919   5.205   6.428   6.974
 2787TIP3    H129920   5.131   6.370   6.957
 2787TIP3    H229921   5.281   6.371   6.977
 2788TIP3   OH229922   6.278   4.461   8.040
 2788TIP3    H129923   6.274   4.388   7.979
 2788TIP3    H229924   6.269   4.420   8.126
 2789TIP3   OH229925   3.800   4.963   7.826
 2789TIP3    H129926   3.797   5.052   7.790
 2789TIP3    H229927   3.754   4.969   7.909
 2790TIP3   OH229928   3.787   5.239   1.431
 2790TIP3    H129929   3.840   5.283   1.498
 2790TIP3    H229930   3.723   5.188   1.480
 2791TIP3   OH229931   0.159   6.507   6.621
 2791TIP3    H129932   0.122   6.538   6.538
 2791TIP3    H229933   0.091   6.528   6.686
 2792TIP3   OH229934   6.065   0.507   1.809
 2792TIP3    H129935   6.002   0.529   1.877
 2792TIP3    H229936   6.132   0.456   1.854
 2793TIP3   OH229937   4.602   3.733   7.928
 2793TIP3    H129938   4.613   3.824   7.900
 2793TIP3    H229939   4.689   3.694   7.917
 2794TIP3   OH229940   3.343   1.891   1.264
 2794TIP3    H129941   3.270   1.858   1.212
 2794TIP3    H229942   3.301   1.939   1.336
 2795TIP3   OH229943   2.246   2.543   8.167
 2795TIP3    H129944   2.235   2.560   8.073
 2795TIP3    H229945   2.323   2.595   8.191
 2796TIP3   OH229946   6.562   2.382   6.682
 2796TIP3    H129947   6.544   2.351   6.593
 2796TIP3    H229948   6.535   2.474   6.681
 2797TIP3   OH229949   3.994   0.540   6.680
 2797TIP3    H129950   3.945   0.622   6.678
 2797TIP3    H229951   3.962   0.491   6.604
 2798TIP3   OH229952   0.742   2.216   1.684
 2798TIP3    H129953   0.804   2.248   1.618
 2798TIP3    H229954   0.692   2.294   1.709
 2799TIP3   OH229955   6.057   0.766   7.014
 2799TIP3    H129956   6.081   0.714   6.937
 2799TIP3    H229957   6.087   0.854   6.994
 2800TIP3   OH229958   2.607   2.918   0.603
 2800TIP3    H129959   2.692   2.959   0.616
 2800TIP3    H229960   2.558   2.981   0.549
 2801TIP3   OH229961   4.525   0.809   2.371
 2801TIP3    H129962   4.504   0.730   2.421
 2801TIP3    H229963   4.441   0.846   2.347
 2802TIP3   OH229964   6.251   2.223   7.438
 2802TIP3    H129965   6.210   2.146   7.477
 2802TIP3    H229966   6.250   2.288   7.509
 2803TIP3   OH229967   5.214   3.558   7.117
 2803TIP3    H129968   5.191   3.638   7.069
 2803TIP3    H229969   5.274   3.588   7.185
 2804TIP3   OH229970   1.828   1.374   1.094
 2804TIP3    H129971   1.895   1.399   1.158
 2804TIP3    H229972   1.746   1.407   1.131
 2805TIP3   OH229973   5.158   0.534   2.438
 2805TIP3    H129974   5.216   0.609   2.423
 2805TIP3    H229975   5.158   0.488   2.354
 2806TIP3   OH229976   5.960   0.178   7.784
 2806TIP3    H129977   5.924   0.252   7.736
 2806TIP3    H229978   6.021   0.137   7.723
 2807TIP3   OH229979   2.403   4.546   6.912
 2807TIP3    H129980   2.315   4.580   6.897
 2807TIP3    H229981   2.460   4.622   6.898
 2808TIP3   OH229982   2.297   3.946   6.175
 2808TIP3    H129983   2.227   3.960   6.239
 2808TIP3    H229984   2.287   4.018   6.113
 2809TIP3   OH229985   0.266   2.784   1.681
 2809TIP3    H129986   0.187   2.831   1.654
 2809TIP3    H229987   0.321   2.782   1.602
 2810TIP3   OH229988   1.958   4.662   0.427
 2810TIP3    H129989   1.880   4.621   0.390
 2810TIP3    H229990   2.023   4.656   0.356
 2811TIP3   OH229991   6.213   6.384   8.256
 2811TIP3    H129992   6.190   6.314   8.317
 2811TIP3    H229993   6.151   6.375   8.184
 2812TIP3   OH229994   0.126   5.724   1.488
 2812TIP3    H129995   0.200   5.670   1.517
 2812TIP3    H229996   0.050   5.683   1.529
 2813TIP3   OH229997   2.784   1.028   1.026
 2813TIP3    H129998   2.819   1.116   1.042
 2813TIP3    H229999   2.851   0.985   0.972
 2814TIP3   OH230000   6.545   5.918   0.874
 2814TIP3    H130001   6.587   5.995   0.914
 2814TIP3    H230002   6.559   5.930   0.780
 2815TIP3   OH230003   0.473   2.872   7.717
 2815TIP3    H130004   0.489   2.810   7.788
 2815TIP3    H230005   0.483   2.820   7.637
 2816TIP3   OH230006   4.076   0.771   1.983
 2816TIP3    H130007   4.090   0.846   2.040
 2816TIP3    H230008   4.021   0.804   1.912
 2817TIP3   OH230009   1.255   2.852   0.279
 2817TIP3    H130010   1.176   2.798   0.273
 2817TIP3    H230011   1.273   2.878   0.188
 2818TIP3   OH230012   1.573   5.715   8.213
 2818TIP3    H130013   1.659   5.747   8.184
 2818TIP3    H230014   1.554   5.764   8.292
 2819TIP3   OH230015   2.675   3.954   7.631
 2819TIP3    H130016   2.607   3.949   7.564
 2819TIP3    H230017   2.682   3.865   7.665
 2820TIP3   OH230018   2.430   3.593   1.203
 2820TIP3    H130019   2.523   3.580   1.222
 2820TIP3    H230020   2.428   3.660   1.135
 2821TIP3   OH230021   4.590   3.200   8.143
 2821TIP3    H130022   4.537   3.122   8.124
 2821TIP3    H230023   4.612   3.236   8.057
 2822TIP3   OH230024   1.761   5.946   0.196
 2822TIP3    H130025   1.716   6.028   0.177
 2822TIP3    H230026   1.854   5.966   0.184
 2823TIP3   OH230027   1.702   5.604   7.292
 2823TIP3    H130028   1.653   5.648   7.361
 2823TIP3    H230029   1.695   5.511   7.313
 2824TIP3   OH230030   1.738   3.965   6.262
 2824TIP3    H130031   1.815   3.911   6.243
 2824TIP3    H230032   1.768   4.025   6.331
 2825TIP3   OH230033   3.772   1.511   1.268
 2825TIP3    H130034   3.750   1.431   1.219
 2825TIP3    H230035   3.853   1.542   1.227
 2826TIP3   OH230036   5.893   2.588   1.707
 2826TIP3    H130037   5.837   2.529   1.658
 2826TIP3    H230038   5.945   2.531   1.763
 2827TIP3   OH230039   4.105   4.892   6.403
 2827TIP3    H130040   4.182   4.877   6.458
 2827TIP3    H230041   4.108   4.822   6.338
 2828TIP3   OH230042   6.003   6.300   0.510
 2828TIP3    H130043   6.011   6.206   0.494
 2828TIP3    H230044   6.078   6.321   0.566
 2829TIP3   OH230045   1.490   2.240   0.359
 2829TIP3    H130046   1.435   2.300   0.309
 2829TIP3    H230047   1.521   2.293   0.433
 2830TIP3   OH230048   1.885   6.170   1.252
 2830TIP3    H130049   1.942   6.190   1.327
 2830TIP3    H230050   1.830   6.248   1.243
 2831TIP3   OH230051   3.753   5.786   1.320
 2831TIP3    H130052   3.784   5.702   1.285
 2831TIP3    H230053   3.667   5.798   1.280
 2832TIP3   OH230054   5.017   4.782   0.651
 2832TIP3    H130055   5.075   4.788   0.727
 2832TIP3    H230056   5.075   4.759   0.579
 2833TIP3   OH230057   1.190   6.184   8.224
 2833TIP3    H130058   1.169   6.143   8.140
 2833TIP3    H230059   1.107   6.221   8.254
 2834TIP3   OH230060   6.395   4.385   0.862
 2834TIP3    H130061   6.339   4.416   0.791
 2834TIP3    H230062   6.384   4.450   0.931
 2835TIP3   OH230063   4.537   3.341   8.378
 2835TIP3    H130064   4.557   3.427   8.339
 2835TIP3    H230065   4.560   3.278   8.310
 2836TIP3   OH230066   2.524   5.469   8.144
 2836TIP3    H130067   2.590   5.521   8.098
 2836TIP3    H230068   2.515   5.512   8.229
 2837TIP3   OH230069   4.547   0.991   6.580
 2837TIP3    H130070   4.466   0.977   6.530
 2837TIP3    H230071   4.577   1.077   6.552
 2838TIP3   OH230072   5.974   5.393   0.614
 2838TIP3    H130073   5.915   5.389   0.539
 2838TIP3    H230074   5.978   5.303   0.646
 2839TIP3   OH230075   5.487   2.889   7.644
 2839TIP3    H130076   5.434   2.821   7.602
 2839TIP3    H230077   5.440   2.970   7.625
 2840TIP3   OH230078   5.338   4.834   0.701
 2840TIP3    H130079   5.380   4.749   0.709
 2840TIP3    H230080   5.279   4.839   0.777
 2841TIP3   OH230081   1.309   4.435   0.062
 2841TIP3    H130082   1.307   4.358   0.005
 2841TIP3    H230083   1.298   4.509   0.002
 2842TIP3   OH230084   1.028   6.841   7.589
 2842TIP3    H130085   1.016   0.057   7.596
 2842TIP3    H230086   0.970   6.814   7.518
 2843TIP3   OH230087   0.153   1.094   7.815
 2843TIP3    H130088   0.203   1.031   7.764
 2843TIP3    H230089   0.092   1.041   7.866
 2844TIP3   OH230090   6.081   2.836   0.932
 2844TIP3    H130091   6.052   2.845   1.023
 2844TIP3    H230092   6.028   2.764   0.898
 2845TIP3   OH230093   2.177   4.091   0.141
 2845TIP3    H130094   2.238   4.164   0.141
 2845TIP3    H230095   2.232   4.013   0.133
 2846TIP3   OH230096   3.942   5.861   7.433
 2846TIP3    H130097   3.998   5.928   7.472
 2846TIP3    H230098   4.002   5.803   7.388
 2847TIP3   OH230099   3.532   4.839   7.755
 2847TIP3    H130100   3.557   4.931   7.760
 2847TIP3    H230101   3.492   4.829   7.669
 2848TIP3   OH230102   6.686   5.495   8.091
 2848TIP3    H130103   6.602   5.518   8.052
 2848TIP3    H230104   6.720   5.426   8.035
 2849TIP3   OH230105   0.907   4.265   1.087
 2849TIP3    H130106   0.929   4.258   0.994
 2849TIP3    H230107   0.892   4.358   1.102
 2850TIP3   OH230108   5.979   2.894   8.488
 2850TIP3    H130109   5.925   2.924   8.415
 2850TIP3    H230110   5.934   2.925   8.566
 2851TIP3   OH230111   5.963   0.803   7.762
 2851TIP3    H130112   5.897   0.849   7.813
 2851TIP3    H230113   5.965   0.849   7.678
 2852TIP3   OH230114   4.254   3.272   8.281
 2852TIP3    H130115   4.347   3.279   8.303
 2852TIP3    H230116   4.218   3.358   8.300
 2853TIP3   OH230117   5.415   2.445   1.624
 2853TIP3    H130118   5.335   2.458   1.674
 2853TIP3    H230119   5.445   2.534   1.604
 2854TIP3   OH230120   1.289   5.690   2.613
 2854TIP3    H130121   1.197   5.696   2.589
 2854TIP3    H230122   1.330   5.641   2.542
 2855TIP3   OH230123   0.770   6.685   1.540
 2855TIP3    H130124   0.789   6.725   1.625
 2855TIP3    H230125   0.843   6.626   1.523
 2856TIP3   OH230126   1.636   1.941   6.712
 2856TIP3    H130127   1.708   1.990   6.754
 2856TIP3    H230128   1.568   1.937   6.779
 2857TIP3   OH230129   2.132   6.143   6.665
 2857TIP3    H130130   2.081   6.225   6.665
 2857TIP3    H230131   2.123   6.109   6.577
 2858TIP3   OH230132   5.709   6.863   1.310
 2858TIP3    H130133   5.646   0.004   1.242
 2858TIP3    H230134   5.793   0.013   1.274
 2859TIP3   OH230135   4.025   2.567   1.210
 2859TIP3    H130136   4.055   2.655   1.190
 2859TIP3    H230137   3.930   2.573   1.211
 2860TIP3   OH230138   4.612   4.553   2.352
 2860TIP3    H130139   4.675   4.589   2.415
 2860TIP3    H230140   4.626   4.459   2.355
 2861TIP3   OH230141   0.305   4.313   1.451
 2861TIP3    H130142   0.341   4.368   1.521
 2861TIP3    H230143   0.220   4.351   1.432
 2862TIP3   OH230144   0.985   1.101   6.243
 2862TIP3    H130145   0.992   1.074   6.335
 2862TIP3    H230146   0.936   1.030   6.202
 2863TIP3   OH230147   0.237   6.118   1.885
 2863TIP3    H130148   0.277   6.129   1.798
 2863TIP3    H230149   0.178   6.194   1.894
 2864TIP3   OH230150   1.428   4.604   0.254
 2864TIP3    H130151   1.428   4.540   0.183
 2864TIP3    H230152   1.372   4.675   0.222
 2865TIP3   OH230153   4.292   5.396   1.751
 2865TIP3    H130154   4.241   5.360   1.678
 2865TIP3    H230155   4.314   5.320   1.804
 2866TIP3   OH230156   4.393   4.079   0.668
 2866TIP3    H130157   4.302   4.105   0.655
 2866TIP3    H230158   4.438   4.159   0.696
 2867TIP3   OH230159   0.908   4.017   0.806
 2867TIP3    H130160   0.885   3.949   0.869
 2867TIP3    H230161   0.901   3.974   0.720
 2868TIP3   OH230162   5.708   0.382   1.917
 2868TIP3    H130163   5.622   0.419   1.935
 2868TIP3    H230164   5.694   0.322   1.843
 2869TIP3   OH230165   2.546   3.785   7.016
 2869TIP3    H130166   2.460   3.773   7.057
 2869TIP3    H230167   2.527   3.781   6.922
 2870TIP3   OH230168   1.851   0.658   6.400
 2870TIP3    H130169   1.759   0.686   6.396
 2870TIP3    H230170   1.846   0.563   6.408
 2871TIP3   OH230171   3.425   4.643   1.055
 2871TIP3    H130172   3.449   4.733   1.037
 2871TIP3    H230173   3.473   4.592   0.990
 2872TIP3   OH230174   3.037   3.667   7.644
 2872TIP3    H130175   2.961   3.631   7.598
 2872TIP3    H230176   3.111   3.649   7.586
 2873TIP3   OH230177   5.304   6.125   0.756
 2873TIP3    H130178   5.305   6.042   0.804
 2873TIP3    H230179   5.272   6.101   0.669
 2874TIP3   OH230180   0.508   0.993   8.287
 2874TIP3    H130181   0.513   1.086   8.268
 2874TIP3    H230182   0.454   0.988   8.366
 2875TIP3   OH230183   0.268   6.849   8.303
 2875TIP3    H130184   0.190   6.796   8.317
 2875TIP3    H230185   0.336   6.786   8.280
 2876TIP3   OH230186   2.022   2.288   7.220
 2876TIP3    H130187   1.969   2.295   7.299
 2876TIP3    H230188   2.105   2.252   7.249
 2877TIP3   OH230189   4.173   5.739   7.714
 2877TIP3    H130190   4.092   5.693   7.695
 2877TIP3    H230191   4.184   5.730   7.809
 2878TIP3   OH230192   4.949   6.403   6.233
 2878TIP3    H130193   4.908   6.320   6.258
 2878TIP3    H230194   4.879   6.468   6.243
 2879TIP3   OH230195   5.503   2.081   2.321
 2879TIP3    H130196   5.553   2.147   2.369
 2879TIP3    H230197   5.502   2.112   2.230
 2880TIP3   OH230198   6.708   3.478   0.019
 2880TIP3    H130199   6.640   3.471   8.576
 2880TIP3    H230200   6.666   3.446   0.099
 2881TIP3   OH230201   5.667   4.955   7.235
 2881TIP3    H130202   5.705   5.025   7.182
 2881TIP3    H230203   5.634   4.892   7.171
 2882TIP3   OH230204   2.150   2.668   7.492
 2882TIP3    H130205   2.203   2.697   7.417
 2882TIP3    H230206   2.163   2.573   7.494
 2883TIP3   OH230207   5.953   2.224   6.669
 2883TIP3    H130208   5.871   2.218   6.621
 2883TIP3    H230209   6.011   2.162   6.625
 2884TIP3   OH230210   6.407   0.514   7.820
 2884TIP3    H130211   6.330   0.457   7.824
 2884TIP3    H230212   6.382   0.585   7.761
 2885TIP3   OH230213   6.308   5.794   8.303
 2885TIP3    H130214   6.332   5.786   8.395
 2885TIP3    H230215   6.389   5.818   8.259
 2886TIP3   OH230216   2.033   0.649   0.263
 2886TIP3    H130217   2.121   0.674   0.292
 2886TIP3    H230218   1.975   0.680   0.332
 2887TIP3   OH230219   3.382   1.076   7.339
 2887TIP3    H130220   3.421   1.159   7.312
 2887TIP3    H230221   3.420   1.012   7.279
 2888TIP3   OH230222   5.313   0.029   6.955
 2888TIP3    H130223   5.267   0.104   6.917
 2888TIP3    H230224   5.302   0.039   7.050
 2889TIP3   OH230225   5.396   1.344   7.737
 2889TIP3    H130226   5.345   1.362   7.815
 2889TIP3    H230227   5.476   1.303   7.769
 2890TIP3   OH230228   1.902   4.193   7.155
 2890TIP3    H130229   1.843   4.142   7.211
 2890TIP3    H230230   1.879   4.167   7.066
 2891TIP3   OH230231   0.104   2.668   8.464
 2891TIP3    H130232   0.152   2.748   8.485
 2891TIP3    H230233   0.146   2.600   8.516
 2892TIP3   OH230234   0.651   6.329   6.835
 2892TIP3    H130235   0.593   6.253   6.832
 2892TIP3    H230236   0.684   6.338   6.746
 2893TIP3   OH230237   2.959   3.427   0.954
 2893TIP3    H130238   2.904   3.505   0.958
 2893TIP3    H230239   2.925   3.370   1.024
 2894TIP3   OH230240   3.266   2.679   0.171
 2894TIP3    H130241   3.304   2.645   0.090
 2894TIP3    H230242   3.293   2.771   0.173
 2895TIP3   OH230243   3.209   4.023   1.229
 2895TIP3    H130244   3.282   4.016   1.290
 2895TIP3    H230245   3.204   4.117   1.209
 2896TIP3   OH230246   1.761   4.957   7.266
 2896TIP3    H130247   1.777   5.035   7.212
 2896TIP3    H230248   1.737   4.889   7.203
 2897TIP3   OH230249   6.263   0.379   0.704
 2897TIP3    H130250   6.312   0.441   0.759
 2897TIP3    H230251   6.326   0.311   0.682
 2898TIP3   OH230252   5.914   3.511   7.280
 2898TIP3    H130253   5.862   3.489   7.357
 2898TIP3    H230254   5.890   3.601   7.259
 2899TIP3   OH230255   5.866   1.867   1.224
 2899TIP3    H130256   5.790   1.905   1.269
 2899TIP3    H230257   5.888   1.789   1.275
 2900TIP3   OH230258   4.958   1.476   1.809
 2900TIP3    H130259   4.889   1.528   1.850
 2900TIP3    H230260   5.035   1.492   1.863
 2901TIP3   OH230261   4.808   6.589   1.003
 2901TIP3    H130262   4.716   6.593   0.980
 2901TIP3    H230263   4.832   6.497   0.988
 2902TIP3   OH230264   6.484   5.762   7.811
 2902TIP3    H130265   6.571   5.766   7.851
 2902TIP3    H230266   6.501   5.735   7.720
 2903TIP3   OH230267   5.924   0.644   8.581
 2903TIP3    H130268   5.935   0.682   0.044
 2903TIP3    H230269   5.942   0.551   8.593
 2904TIP3   OH230270   1.422   5.191   7.263
 2904TIP3    H130271   1.424   5.097   7.276
 2904TIP3    H230272   1.496   5.208   7.204
 2905TIP3   OH230273   1.108   1.837   1.426
 2905TIP3    H130274   1.014   1.840   1.408
 2905TIP3    H230275   1.132   1.928   1.444
 2906TIP3   OH230276   4.052   0.494   0.723
 2906TIP3    H130277   4.109   0.490   0.799
 2906TIP3    H230278   3.974   0.541   0.754
 2907TIP3   OH230279   4.300   4.334   6.568
 2907TIP3    H130280   4.326   4.408   6.623
 2907TIP3    H230281   4.211   4.356   6.540
 2908TIP3   OH230282   2.437   1.175   7.205
 2908TIP3    H130283   2.525   1.210   7.214
 2908TIP3    H230284   2.415   1.186   7.113
 2909TIP3   OH230285   5.280   6.726   6.340
 2909TIP3    H130286   5.245   6.710   6.253
 2909TIP3    H230287   5.247   6.654   6.394
 2910TIP3   OH230288   4.770   4.796   1.049
 2910TIP3    H130289   4.847   4.848   1.026
 2910TIP3    H230290   4.773   4.721   0.989
 2911TIP3   OH230291   6.636   3.896   8.301
 2911TIP3    H130292   6.566   3.838   8.332
 2911TIP3    H230293   6.612   3.982   8.337
 2912TIP3   OH230294   0.174   6.116   1.255
 2912TIP3    H130295   0.095   6.065   1.240
 2912TIP3    H230296   0.179   6.127   1.350
 2913TIP3   OH230297   6.872   0.834   2.059
 2913TIP3    H130298   0.077   0.820   2.016
 2913TIP3    H230299   0.009   0.817   2.151
 2914TIP3   OH230300   1.254   0.404   0.886
 2914TIP3    H130301   1.184   0.385   0.824
 2914TIP3    H230302   1.232   0.490   0.922
 2915TIP3   OH230303   1.163   1.340   0.963
 2915TIP3    H130304   1.193   1.395   0.891
 2915TIP3    H230305   1.126   1.263   0.920
 2916TIP3   OH230306   4.382   1.983   8.040
 2916TIP3    H130307   4.436   1.925   8.094
 2916TIP3    H230308   4.363   2.058   8.096
 2917TIP3   OH230309   5.384   6.729   7.700
 2917TIP3    H130310   5.352   6.714   7.789
 2917TIP3    H230311   5.409   6.643   7.668
 2918TIP3   OH230312   0.228   0.942   7.083
 2918TIP3    H130313   0.140   0.944   7.121
 2918TIP3    H230314   0.229   1.016   7.021
 2919TIP3   OH230315   6.584   2.103   7.026
 2919TIP3    H130316   6.667   2.121   7.069
 2919TIP3    H230317   6.523   2.084   7.098
 2920TIP3   OH230318   1.457   2.629   6.939
 2920TIP3    H130319   1.363   2.624   6.919
 2920TIP3    H230320   1.496   2.668   6.861
 2921TIP3   OH230321   4.446   0.080   8.426
 2921TIP3    H130322   4.477   0.010   8.368
 2921TIP3    H230323   4.356   0.054   8.449
 2922TIP3   OH230324   1.308   0.836   2.260
 2922TIP3    H130325   1.330   0.868   2.173
 2922TIP3    H230326   1.282   0.914   2.310
 2923TIP3   OH230327   0.002   6.189   0.182
 2923TIP3    H130328   6.828   6.240   0.121
 2923TIP3    H230329   0.088   6.231   0.179
 2924TIP3   OH230330   6.754   6.228   1.908
 2924TIP3    H130331   6.675   6.283   1.901
 2924TIP3    H230332   6.779   6.233   2.000
 2925TIP3   OH230333   2.731   5.002   7.532
 2925TIP3    H130334   2.668   4.953   7.585
 2925TIP3    H230335   2.816   4.968   7.559
 2926TIP3   OH230336   3.312   2.504   7.090
 2926TIP3    H130337   3.390   2.490   7.143
 2926TIP3    H230338   3.258   2.564   7.142
 2927TIP3   OH230339   3.275   5.174   7.864
 2927TIP3    H130340   3.355   5.128   7.889
 2927TIP3    H230341   3.207   5.107   7.868
 2928TIP3   OH230342   1.713   5.217   0.999
 2928TIP3    H130343   1.670   5.295   1.034
 2928TIP3    H230344   1.660   5.191   0.924
 2929TIP3   OH230345   3.170   5.851   0.570
 2929TIP3    H130346   3.130   5.816   0.490
 2929TIP3    H230347   3.263   5.859   0.548
 2930TIP3   OH230348   1.365   0.653   7.073
 2930TIP3    H130349   1.317   0.673   6.993
 2930TIP3    H230350   1.406   0.568   7.055
 2931TIP3   OH230351   0.740   1.964   7.216
 2931TIP3    H130352   0.747   1.869   7.222
 2931TIP3    H230353   0.666   1.979   7.157
 2932TIP3   OH230354   2.815   4.669   0.486
 2932TIP3    H130355   2.850   4.696   0.571
 2932TIP3    H230356   2.740   4.727   0.472
 2933TIP3   OH230357   3.843   2.050   8.173
 2933TIP3    H130358   3.748   2.063   8.164
 2933TIP3    H230359   3.852   1.986   8.243
 2934TIP3   OH230360   0.866   0.267   8.099
 2934TIP3    H130361   0.841   0.248   8.009
 2934TIP3    H230362   0.887   0.361   8.098
 2935TIP3   OH230363   6.179   2.145   0.146
 2935TIP3    H130364   6.234   2.220   0.170
 2935TIP3    H230365   6.106   2.184   0.097
 2936TIP3   OH230366   6.560   3.218   1.805
 2936TIP3    H130367   6.500   3.144   1.808
 2936TIP3    H230368   6.580   3.236   1.897
 2937TIP3   OH230369   0.072   6.328   1.709
 2937TIP3    H130370   0.096   6.321   1.617
 2937TIP3    H230371   6.862   6.294   1.714
 2938TIP3   OH230372   0.660   3.758   6.951
 2938TIP3    H130373   0.749   3.791   6.959
 2938TIP3    H230374   0.667   3.664   6.969
 2939TIP3   OH230375   6.556   3.476   7.668
 2939TIP3    H130376   6.548   3.554   7.613
 2939TIP3    H230377   6.504   3.410   7.622
 2940TIP3   OH230378   6.372   2.413   0.604
 2940TIP3    H130379   6.376   2.467   0.683
 2940TIP3    H230380   6.442   2.447   0.548
 2941TIP3   OH230381   6.525   2.589   0.102
 2941TIP3    H130382   6.523   2.609   0.196
 2941TIP3    H230383   6.610   2.619   0.073
 2942TIP3   OH230384   5.335   0.133   1.912
 2942TIP3    H130385   5.427   0.108   1.913
 2942TIP3    H230386   5.288   0.051   1.893
 2943TIP3   OH230387   1.303   5.996   7.443
 2943TIP3    H130388   1.212   6.022   7.452
 2943TIP3    H230389   1.339   6.056   7.377
 2944TIP3   OH230390   5.649   4.822   0.466
 2944TIP3    H130391   5.590   4.771   0.522
 2944TIP3    H230392   5.711   4.758   0.432
 2945TIP3   OH230393   5.439   6.860   2.218
 2945TIP3    H130394   5.447   6.852   2.313
 2945TIP3    H230395   5.423   0.074   2.203
 2946TIP3   OH230396   5.202   0.571   1.465
 2946TIP3    H130397   5.133   0.515   1.431
 2946TIP3    H230398   5.267   0.575   1.394
 2947TIP3   OH230399   6.647   2.118   0.579
 2947TIP3    H130400   6.641   2.188   0.645
 2947TIP3    H230401   6.708   2.055   0.618
 2948TIP3   OH230402   1.699   4.564   0.613
 2948TIP3    H130403   1.779   4.578   0.664
 2948TIP3    H230404   1.731   4.539   0.526
 2949TIP3   OH230405   6.804   4.641   2.734
 2949TIP3    H130406   6.782   4.570   2.674
 2949TIP3    H230407   6.720   4.681   2.757
 2950TIP3   OH230408   5.277   3.943   8.215
 2950TIP3    H130409   5.250   4.034   8.204
 2950TIP3    H230410   5.319   3.920   8.132
 2951TIP3   OH230411   2.373   0.497   8.069
 2951TIP3    H130412   2.429   0.473   7.995
 2951TIP3    H230413   2.430   0.492   8.145
 2952TIP3   OH230414   1.646   6.037   0.658
 2952TIP3    H130415   1.727   6.086   0.646
 2952TIP3    H230416   1.581   6.103   0.684
 2953TIP3   OH230417   0.376   0.223   7.599
 2953TIP3    H130418   0.304   0.160   7.609
 2953TIP3    H230419   0.375   0.274   7.680
 2954TIP3   OH230420   1.556   1.466   6.999
 2954TIP3    H130421   1.601   1.508   6.927
 2954TIP3    H230422   1.586   1.513   7.077
 2955TIP3   OH230423   6.268   2.450   6.695
 2955TIP3    H130424   6.220   2.455   6.777
 2955TIP3    H230425   6.350   2.498   6.712
 2956TIP3   OH230426   3.977   2.925   0.618
 2956TIP3    H130427   3.927   3.000   0.651
 2956TIP3    H230428   4.004   2.878   0.697
 2957TIP3   OH230429   5.305   1.020   2.028
 2957TIP3    H130430   5.283   0.937   1.985
 2957TIP3    H230431   5.393   1.006   2.062
 2958TIP3   OH230432   3.735   4.468   2.069
 2958TIP3    H130433   3.717   4.380   2.102
 2958TIP3    H230434   3.827   4.484   2.089
 2959TIP3   OH230435   1.919   4.084   1.013
 2959TIP3    H130436   1.851   4.078   0.945
 2959TIP3    H230437   1.883   4.034   1.086
 2960TIP3   OH230438   1.347   4.380   6.318
 2960TIP3    H130439   1.335   4.430   6.238
 2960TIP3    H230440   1.302   4.430   6.386
 2961TIP3   OH230441   1.647   0.970   0.603
 2961TIP3    H130442   1.617   1.002   0.689
 2961TIP3    H230443   1.613   1.034   0.541
 2962TIP3   OH230444   3.208   6.668   6.245
 2962TIP3    H130445   3.191   6.577   6.269
 2962TIP3    H230446   3.303   6.676   6.244
 2963TIP3   OH230447   2.279   5.557   1.233
 2963TIP3    H130448   2.363   5.519   1.257
 2963TIP3    H230449   2.302   5.627   1.171
 2964TIP3   OH230450   0.088   6.527   0.513
 2964TIP3    H130451   0.138   6.445   0.513
 2964TIP3    H230452   0.154   6.596   0.509
 2965TIP3   OH230453   3.125   1.247   7.353
 2965TIP3    H130454   3.178   1.172   7.325
 2965TIP3    H230455   3.077   1.216   7.429
 2966TIP3   OH230456   4.551   1.495   1.666
 2966TIP3    H130457   4.487   1.460   1.727
 2966TIP3    H230458   4.540   1.442   1.586
 2967TIP3   OH230459   1.716   4.516   0.344
 2967TIP3    H130460   1.625   4.545   0.352
 2967TIP3    H230461   1.716   4.462   0.265
 2968TIP3   OH230462   4.779   0.633   0.153
 2968TIP3    H130463   4.742   0.558   0.106
 2968TIP3    H230464   4.726   0.708   0.124
 2969TIP3   OH230465   1.625   6.463   1.581
 2969TIP3    H130466   1.692   6.396   1.593
 2969TIP3    H230467   1.602   6.490   1.670
 2970TIP3   OH230468   5.724   4.570   7.891
 2970TIP3    H130469   5.713   4.625   7.814
 2970TIP3    H230470   5.812   4.591   7.923
 2971TIP3   OH230471   1.721   6.402   1.302
 2971TIP3    H130472   1.696   6.429   1.390
 2971TIP3    H230473   1.644   6.354   1.269
 2972TIP3   OH230474   5.378   6.021   6.883
 2972TIP3    H130475   5.357   6.056   6.797
 2972TIP3    H230476   5.423   5.938   6.866
 2973TIP3   OH230477   5.744   5.566   7.015
 2973TIP3    H130478   5.690   5.554   6.937
 2973TIP3    H230479   5.799   5.488   7.019
 2974TIP3   OH230480   4.922   4.083   8.524
 2974TIP3    H130481   4.898   4.079   8.432
 2974TIP3    H230482   4.918   3.992   8.553
 2975TIP3   OH230483   0.236   5.753   8.516
 2975TIP3    H130484   0.171   5.730   8.582
 2975TIP3    H230485   0.246   5.674   8.463
 2976TIP3   OH230486   3.245   2.141   7.634
 2976TIP3    H130487   3.194   2.176   7.561
 2976TIP3    H230488   3.236   2.046   7.626
 2977TIP3   OH230489   3.817   4.560   0.915
 2977TIP3    H130490   3.903   4.602   0.911
 2977TIP3    H230491   3.809   4.515   0.831
 2978TIP3   OH230492   0.998   2.389   8.398
 2978TIP3    H130493   0.952   2.446   8.336
 2978TIP3    H230494   1.070   2.352   8.348
 2979TIP3   OH230495   4.738   1.757   0.057
 2979TIP3    H130496   4.742   1.811   8.602
 2979TIP3    H230497   4.646   1.762   0.085
 2980TIP3   OH230498   5.135   6.123   7.754
 2980TIP3    H130499   5.181   6.061   7.697
 2980TIP3    H230500   5.124   6.076   7.837
 2981TIP3   OH230501   2.992   6.755   6.093
 2981TIP3    H130502   3.061   6.714   6.145
 2981TIP3    H230503   2.926   6.686   6.082
 2982TIP3   OH230504   4.747   5.866   0.244
 2982TIP3    H130505   4.792   5.855   0.327
 2982TIP3    H230506   4.734   5.777   0.212
 2983TIP3   OH230507   4.075   6.156   0.688
 2983TIP3    H130508   4.090   6.148   0.594
 2983TIP3    H230509   4.027   6.238   0.698
 2984TIP3   OH230510   1.097   0.757   7.688
 2984TIP3    H130511   1.082   0.739   7.595
 2984TIP3    H230512   1.027   0.817   7.713
 2985TIP3   OH230513   0.482   4.484   1.563
 2985TIP3    H130514   0.554   4.421   1.559
 2985TIP3    H230515   0.525   4.569   1.560
 2986TIP3   OH230516   0.017   3.447   1.988
 2986TIP3    H130517   0.105   3.484   1.987
 2986TIP3    H230518   6.839   3.523   1.988
 2987TIP3   OH230519   1.286   1.821   7.050
 2987TIP3    H130520   1.199   1.795   7.079
 2987TIP3    H230521   1.272   1.905   7.006
 2988TIP3   OH230522   2.617   3.482   0.605
 2988TIP3    H130523   2.561   3.411   0.636
 2988TIP3    H230524   2.661   3.513   0.684
 2989TIP3   OH230525   3.276   1.911   0.317
 2989TIP3    H130526   3.238   1.918   0.229
 2989TIP3    H230527   3.368   1.890   0.301
 2990TIP3   OH230528   2.969   2.695   1.452
 2990TIP3    H130529   2.968   2.790   1.463
 2990TIP3    H230530   3.057   2.669   1.478
 2991TIP3   OH230531   5.940   0.022   7.992
 2991TIP3    H130532   5.962   6.818   7.950
 2991TIP3    H230533   5.948   0.086   7.921
 2992TIP3   OH230534   1.108   2.103   1.598
 2992TIP3    H130535   1.154   2.161   1.658
 2992TIP3    H230536   1.143   2.125   1.511
 2993TIP3   OH230537   3.945   0.977   0.123
 2993TIP3    H130538   4.024   0.935   0.089
 2993TIP3    H230539   3.949   0.962   0.217
 2994TIP3   OH230540   3.550   0.707   0.428
 2994TIP3    H130541   3.532   0.707   0.334
 2994TIP3    H230542   3.463   0.713   0.468
 2995TIP3   OH230543   3.519   3.816   0.253
 2995TIP3    H130544   3.531   3.876   0.180
 2995TIP3    H230545   3.447   3.853   0.303
 2996TIP3   OH230546   3.195   1.185   8.422
 2996TIP3    H130547   3.100   1.191   8.406
 2996TIP3    H230548   3.203   1.172   8.516
 2997TIP3   OH230549   2.266   6.491   8.542
 2997TIP3    H130550   2.285   6.399   8.560
 2997TIP3    H230551   2.207   6.517   8.612
 2998TIP3   OH230552   4.099   6.379   1.039
 2998TIP3    H130553   4.100   6.437   1.115
 2998TIP3    H230554   4.136   6.297   1.071
 2999TIP3   OH230555   3.777   1.520   8.402
 2999TIP3    H130556   3.745   1.608   8.382
 2999TIP3    H230557   3.802   1.483   8.317
 3000TIP3   OH230558   1.211   6.794   0.940
 3000TIP3    H130559   1.214   6.874   0.888
 3000TIP3    H230560   1.299   6.758   0.934
 3001TIP3   OH230561   1.522   5.862   6.271
 3001TIP3    H130562   1.458   5.803   6.311
 3001TIP3    H230563   1.519   5.840   6.177
 3002TIP3   OH230564   6.687   3.768   6.865
 3002TIP3    H130565   6.683   3.774   6.769
 3002TIP3    H230566   6.608   3.721   6.889
 3003TIP3   OH230567   1.881   2.326   0.948
 3003TIP3    H130568   1.811   2.263   0.931
 3003TIP3    H230569   1.961   2.273   0.949
 3004TIP3   OH230570   4.035   1.992   1.193
 3004TIP3    H130571   4.005   1.998   1.102
 3004TIP3    H230572   3.966   2.035   1.244
 3005TIP3   OH230573   3.507   5.420   7.619
 3005TIP3    H130574   3.423   5.384   7.647
 3005TIP3    H230575   3.504   5.416   7.523
 3006TIP3   OH230576   3.039   4.096   6.984
 3006TIP3    H130577   3.024   4.183   7.021
 3006TIP3    H230578   2.958   4.049   6.998
 3007TIP3   OH230579   4.476   6.746   2.351
 3007TIP3    H130580   4.541   6.762   2.420
 3007TIP3    H230581   4.404   6.702   2.396
 3008TIP3   OH230582   1.459   2.503   7.917
 3008TIP3    H130583   1.408   2.555   7.855
 3008TIP3    H230584   1.420   2.415   7.911
 3009TIP3   OH230585   6.068   1.143   0.067
 3009TIP3    H130586   6.012   1.220   0.061
 3009TIP3    H230587   6.052   1.109   0.155
 3010TIP3   OH230588   1.549   1.311   0.785
 3010TIP3    H130589   1.568   1.352   0.701
 3010TIP3    H230590   1.473   1.254   0.767
 3011TIP3   OH230591   3.896   0.648   7.831
 3011TIP3    H130592   3.945   0.585   7.883
 3011TIP3    H230593   3.817   0.666   7.883
 3012TIP3   OH230594   2.507   4.831   0.663
 3012TIP3    H130595   2.440   4.897   0.677
 3012TIP3    H230596   2.525   4.836   0.569
 3013TIP3   OH230597   4.389   5.701   1.591
 3013TIP3    H130598   4.299   5.688   1.559
 3013TIP3    H230599   4.377   5.749   1.673
 3014TIP3   OH230600   0.912   3.933   6.140
 3014TIP3    H130601   0.982   3.997   6.125
 3014TIP3    H230602   0.860   3.970   6.211
 3015TIP3   OH230603   4.048   6.755   1.800
 3015TIP3    H130604   4.030   6.753   1.706
 3015TIP3    H230605   4.118   6.691   1.812
 3016TIP3   OH230606   4.301   0.187   6.044
 3016TIP3    H130607   4.330   0.218   5.958
 3016TIP3    H230608   4.335   0.098   6.050
 3017TIP3   OH230609   0.702   5.775   8.371
 3017TIP3    H130610   0.634   5.820   8.422
 3017TIP3    H230611   0.658   5.749   8.290
 3018TIP3   OH230612   0.364   1.176   0.494
 3018TIP3    H130613   0.333   1.254   0.450
 3018TIP3    H230614   0.406   1.124   0.426
 3019TIP3   OH230615   0.476   6.711   6.956
 3019TIP3    H130616   0.412   6.671   7.014
 3019TIP3    H230617   0.439   6.796   6.933
 3020TIP3   OH230618   4.938   2.525   7.565
 3020TIP3    H130619   4.938   2.466   7.640
 3020TIP3    H230620   4.859   2.503   7.516
 3021TIP3   OH230621   5.076   5.230   7.261
 3021TIP3    H130622   5.135   5.205   7.190
 3021TIP3    H230623   5.094   5.167   7.331
 3022TIP3   OH230624   4.838   5.020   7.866
 3022TIP3    H130625   4.828   4.931   7.900
 3022TIP3    H230626   4.836   5.009   7.771
 3023TIP3   OH230627   1.518   3.165   0.356
 3023TIP3    H130628   1.546   3.080   0.391
 3023TIP3    H230629   1.476   3.143   0.272
 3024TIP3   OH230630   2.944   5.331   1.643
 3024TIP3    H130631   3.036   5.358   1.647
 3024TIP3    H230632   2.924   5.303   1.733
 3025TIP3   OH230633   2.229   3.401   0.024
 3025TIP3    H130634   2.257   3.316   0.058
 3025TIP3    H230635   2.159   3.428   0.084
 3026TIP3   OH230636   4.007   5.318   8.030
 3026TIP3    H130637   3.966   5.335   7.945
 3026TIP3    H230638   3.933   5.311   8.091
 3027TIP3   OH230639   3.421   6.174   0.279
 3027TIP3    H130640   3.405   6.178   0.185
 3027TIP3    H230641   3.360   6.107   0.311
 3028TIP3   OH230642   2.459   4.435   7.461
 3028TIP3    H130643   2.550   4.426   7.434
 3028TIP3    H230644   2.412   4.465   7.383
 3029TIP3   OH230645   6.153   4.179   1.702
 3029TIP3    H130646   6.194   4.207   1.620
 3029TIP3    H230647   6.222   4.188   1.767
 3030TIP3   OH230648   0.839   0.228   1.726
 3030TIP3    H130649   0.887   0.198   1.649
 3030TIP3    H230650   0.747   0.226   1.699
 3031TIP3   OH230651   2.637   1.522   7.630
 3031TIP3    H130652   2.732   1.528   7.639
 3031TIP3    H230653   2.610   1.462   7.700
 3032TIP3   OH230654   5.278   2.160   8.188
 3032TIP3    H130655   5.324   2.140   8.106
 3032TIP3    H230656   5.336   2.127   8.256
 3033TIP3   OH230657   5.730   1.945   0.132
 3033TIP3    H130658   5.685   2.019   0.093
 3033TIP3    H230659   5.716   1.956   0.227
 3034TIP3   OH230660   3.818   3.741   7.139
 3034TIP3    H130661   3.771   3.741   7.056
 3034TIP3    H230662   3.856   3.653   7.144
 3035TIP3   OH230663   4.219   2.517   2.348
 3035TIP3    H130664   4.221   2.429   2.308
 3035TIP3    H230665   4.306   2.528   2.386
 3036TIP3   OH230666   2.725   6.874   0.366
 3036TIP3    H130667   2.631   0.004   0.379
 3036TIP3    H230668   2.744   0.048   0.289
 3037TIP3   OH230669   6.250   5.079   7.437
 3037TIP3    H130670   6.202   5.061   7.356
 3037TIP3    H230671   6.192   5.137   7.487
 3038TIP3   OH230672   2.976   1.794   0.224
 3038TIP3    H130673   2.917   1.861   0.259
 3038TIP3    H230674   2.918   1.728   0.187
 3039TIP3   OH230675   5.467   5.830   8.319
 3039TIP3    H130676   5.558   5.860   8.322
 3039TIP3    H230677   5.460   5.783   8.236
 3040TIP3   OH230678   4.043   3.487   0.098
 3040TIP3    H130679   4.021   3.462   0.188
 3040TIP3    H230680   4.128   3.532   0.106
 3041TIP3   OH230681   4.388   2.038   0.445
 3041TIP3    H130682   4.462   2.018   0.501
 3041TIP3    H230683   4.354   2.122   0.478
 3042TIP3   OH230684   2.234   0.126   7.752
 3042TIP3    H130685   2.249   0.097   7.842
 3042TIP3    H230686   2.224   0.221   7.758
 3043TIP3   OH230687   0.118   3.023   8.532
 3043TIP3    H130688   0.073   2.993   8.611
 3043TIP3    H230689   0.192   2.964   8.521
 3044TIP3   OH230690   1.724   2.580   2.005
 3044TIP3    H130691   1.806   2.533   2.008
 3044TIP3    H230692   1.694   2.583   2.096
 3045TIP3   OH230693   0.148   3.496   0.468
 3045TIP3    H130694   0.092   3.466   0.539
 3045TIP3    H230695   0.106   3.462   0.389
 3046TIP3   OH230696   0.021   0.216   0.102
 3046TIP3    H130697   0.089   0.186   0.041
 3046TIP3    H230698   6.856   0.137   0.130
 3047TIP3   OH230699   4.873   1.043   1.842
 3047TIP3    H130700   4.842   1.121   1.796
 3047TIP3    H230701   4.966   1.060   1.856
 3048TIP3   OH230702   6.429   4.372   6.617
 3048TIP3    H130703   6.441   4.460   6.581
 3048TIP3    H230704   6.344   4.375   6.660
 3049TIP3   OH230705   0.772   2.547   0.916
 3049TIP3    H130706   0.690   2.518   0.955
 3049TIP3    H230707   0.840   2.509   0.973
 3050TIP3   OH230708   1.422   2.263   0.891
 3050TIP3    H130709   1.507   2.260   0.849
 3050TIP3    H230710   1.418   2.350   0.931
 3051TIP3   OH230711   0.302   5.499   7.318
 3051TIP3    H130712   0.332   5.460   7.400
 3051TIP3    H230713   0.315   5.430   7.253
 3052TIP3   OH230714   4.966   6.299   6.928
 3052TIP3    H130715   4.902   6.235   6.960
 3052TIP3    H230716   4.931   6.326   6.843
 3053TIP3   OH230717   3.888   3.862   8.172
 3053TIP3    H130718   3.957   3.914   8.214
 3053TIP3    H230719   3.896   3.882   8.079
 3054TIP3   OH230720   1.108   6.169   0.822
 3054TIP3    H130721   1.070   6.217   0.896
 3054TIP3    H230722   1.068   6.208   0.745
 3055TIP3   OH230723   1.795   6.486   7.522
 3055TIP3    H130724   1.751   6.418   7.471
 3055TIP3    H230725   1.806   6.559   7.461
 3056TIP3   OH230726   2.017   5.976   2.228
 3056TIP3    H130727   2.026   6.032   2.305
 3056TIP3    H230728   2.074   5.901   2.245
 3057TIP3   OH230729   1.751   1.182   0.907
 3057TIP3    H130730   1.773   1.219   0.993
 3057TIP3    H230731   1.681   1.238   0.874
 3058TIP3   OH230732   0.996   1.142   2.440
 3058TIP3    H130733   0.960   1.211   2.384
 3058TIP3    H230734   1.049   1.189   2.504
 3059TIP3   OH230735   1.866   2.073   6.797
 3059TIP3    H130736   1.958   2.076   6.771
 3059TIP3    H230737   1.865   2.112   6.885
 3060TIP3   OH230738   1.701   0.001   0.284
 3060TIP3    H130739   1.710   0.094   0.303
 3060TIP3    H230740   1.771   6.838   0.334
 3061TIP3   OH230741   2.543   3.754   8.489
 3061TIP3    H130742   2.538   3.687   8.557
 3061TIP3    H230743   2.636   3.759   8.468
 3062TIP3   OH230744   4.423   4.498   1.261
 3062TIP3    H130745   4.446   4.589   1.242
 3062TIP3    H230746   4.505   4.449   1.247
 3063TIP3   OH230747   1.771   6.521   7.789
 3063TIP3    H130748   1.859   6.535   7.824
 3063TIP3    H230749   1.785   6.498   7.697
 3064TIP3   OH230750   1.546   5.823   2.019
 3064TIP3    H130751   1.633   5.794   2.046
 3064TIP3    H230752   1.531   5.779   1.936
 3065TIP3   OH230753   1.058   3.585   0.659
 3065TIP3    H130754   0.977   3.595   0.609
 3065TIP3    H230755   1.063   3.492   0.680
 3066TIP3   OH230756   3.286   1.419   7.493
 3066TIP3    H130757   3.237   1.481   7.546
 3066TIP3    H230758   3.218   1.366   7.450
 3067TIP3   OH230759   5.605   6.268   1.217
 3067TIP3    H130760   5.551   6.329   1.267
 3067TIP3    H230761   5.651   6.324   1.154
 3068TIP3   OH230762   3.179   4.397   7.841
 3068TIP3    H130763   3.145   4.340   7.910
 3068TIP3    H230764   3.147   4.360   7.760
 3069TIP3   OH230765   2.181   0.131   2.257
 3069TIP3    H130766   2.271   0.144   2.229
 3069TIP3    H230767   2.176   0.037   2.279
 3070TIP3   OH230768   5.228   3.248   0.565
 3070TIP3    H130769   5.245   3.154   0.568
 3070TIP3    H230770   5.315   3.288   0.564
 3071TIP3   OH230771   4.875   6.736   6.862
 3071TIP3    H130772   4.856   6.719   6.955
 3071TIP3    H230773   4.968   6.716   6.853
 3072TIP3   OH230774   4.455   6.171   7.048
 3072TIP3    H130775   4.381   6.115   7.025
 3072TIP3    H230776   4.528   6.137   6.996
 3073TIP3   OH230777   3.116   1.608   0.404
 3073TIP3    H130778   3.086   1.684   0.355
 3073TIP3    H230779   3.199   1.637   0.444
 3074TIP3   OH230780   2.795   1.323   0.956
 3074TIP3    H130781   2.703   1.316   0.982
 3074TIP3    H230782   2.843   1.330   1.039
 3075TIP3   OH230783   2.122   5.380   1.568
 3075TIP3    H130784   2.152   5.295   1.536
 3075TIP3    H230785   2.088   5.424   1.490
 3076TIP3   OH230786   6.134   1.210   2.353
 3076TIP3    H130787   6.153   1.126   2.396
 3076TIP3    H230788   6.057   1.244   2.399
 3077TIP3   OH230789   2.176   6.364   7.337
 3077TIP3    H130790   2.113   6.296   7.362
 3077TIP3    H230791   2.247   6.316   7.295
 3078TIP3   OH230792   3.326   3.383   7.198
 3078TIP3    H130793   3.420   3.366   7.199
 3078TIP3    H230794   3.291   3.324   7.132
 3079TIP3   OH230795   1.503   3.335   7.513
 3079TIP3    H130796   1.485   3.298   7.427
 3079TIP3    H230797   1.455   3.278   7.574
 3080TIP3   OH230798   1.964   6.206   7.913
 3080TIP3    H130799   1.991   6.126   7.959
 3080TIP3    H230800   1.881   6.230   7.955
 3081TIP3   OH230801   6.661   3.413   0.307
 3081TIP3    H130802   6.663   3.506   0.327
 3081TIP3    H230803   6.650   3.370   0.392
 3082TIP3   OH230804   1.035   5.882   7.697
 3082TIP3    H130805   0.970   5.948   7.719
 3082TIP3    H230806   1.118   5.918   7.730
 3083TIP3   OH230807   2.402   5.514   1.764
 3083TIP3    H130808   2.471   5.467   1.811
 3083TIP3    H230809   2.391   5.464   1.683
 3084TIP3   OH230810   2.003   6.377   7.096
 3084TIP3    H130811   2.074   6.346   7.040
 3084TIP3    H230812   2.048   6.423   7.167
 3085TIP3   OH230813   3.123   6.023   0.289
 3085TIP3    H130814   3.069   5.986   0.218
 3085TIP3    H230815   3.150   5.946   0.340
 3086TIP3   OH230816   0.842   5.084   0.186
 3086TIP3    H130817   0.805   5.029   0.117
 3086TIP3    H230818   0.769   5.140   0.213
 3087TIP3   OH230819   2.293   2.241   8.035
 3087TIP3    H130820   2.274   2.222   8.127
 3087TIP3    H230821   2.215   2.286   8.003
 3088TIP3   OH230822   4.027   3.695   6.831
 3088TIP3    H130823   3.963   3.765   6.818
 3088TIP3    H230824   3.974   3.619   6.856
 3089TIP3   OH230825   2.000   5.206   6.761
 3089TIP3    H130826   2.086   5.205   6.801
 3089TIP3    H230827   2.015   5.231   6.670
 3090TIP3   OH230828   2.682   1.971   7.164
 3090TIP3    H130829   2.679   2.062   7.193
 3090TIP3    H230830   2.657   1.974   7.072
 3091TIP3   OH230831   5.483   6.566   8.111
 3091TIP3    H130832   5.571   6.578   8.074
 3091TIP3    H230833   5.432   6.638   8.075
 3092TIP3   OH230834   2.259   5.269   2.033
 3092TIP3    H130835   2.342   5.304   2.003
 3092TIP3    H230836   2.247   5.187   1.984
 3093TIP3   OH230837   4.678   4.479   0.902
 3093TIP3    H130838   4.773   4.487   0.910
 3093TIP3    H230839   4.660   4.490   0.809
 3094TIP3   OH230840   3.651   5.698   0.199
 3094TIP3    H130841   3.726   5.754   0.219
 3094TIP3    H230842   3.658   5.626   0.261
 3095TIP3   OH230843   3.708   5.189   1.752
 3095TIP3    H130844   3.651   5.265   1.740
 3095TIP3    H230845   3.686   5.156   1.839
 3096TIP3   OH230846   0.861   1.387   2.356
 3096TIP3    H130847   0.901   1.405   2.271
 3096TIP3    H230848   0.769   1.410   2.346
 3097TIP3   OH230849   0.820   4.235   7.937
 3097TIP3    H130850   0.815   4.264   7.846
 3097TIP3    H230851   0.879   4.160   7.936
 3098TIP3   OH230852   0.456   3.299   0.884
 3098TIP3    H130853   0.473   3.347   0.803
 3098TIP3    H230854   0.360   3.292   0.887
 3099TIP3   OH230855   5.770   6.606   8.228
 3099TIP3    H130856   5.786   6.643   8.314
 3099TIP3    H230857   5.809   6.518   8.232
 3100TIP3   OH230858   4.155   4.584   8.003
 3100TIP3    H130859   4.222   4.638   8.043
 3100TIP3    H230860   4.130   4.631   7.923
 3101TIP3   OH230861   5.405   3.224   1.103
 3101TIP3    H130862   5.408   3.273   1.020
 3101TIP3    H230863   5.312   3.221   1.126
 3102TIP3   OH230864   4.458   3.860   8.312
 3102TIP3    H130865   4.486   3.787   8.258
 3102TIP3    H230866   4.362   3.855   8.313
 3103TIP3   OH230867   3.791   3.633   0.654
 3103TIP3    H130868   3.791   3.641   0.559
 3103TIP3    H230869   3.700   3.647   0.680
 3104TIP3   OH230870   3.792   0.709   6.886
 3104TIP3    H130871   3.830   0.715   6.798
 3104TIP3    H230872   3.829   0.785   6.933
 3105TIP3   OH230873   6.467   3.701   8.429
 3105TIP3    H130874   6.394   3.669   8.482
 3105TIP3    H230875   6.509   3.621   8.396
 3106TIP3   OH230876   3.662   0.315   8.174
 3106TIP3    H130877   3.706   0.397   8.198
 3106TIP3    H230878   3.611   0.336   8.096
 3107TIP3   OH230879   3.418   2.360   0.703
 3107TIP3    H130880   3.432   2.441   0.753
 3107TIP3    H230881   3.323   2.345   0.707
 3108TIP3   OH230882   1.244   3.511   8.438
 3108TIP3    H130883   1.337   3.522   8.420
 3108TIP3    H230884   1.221   3.429   8.394
 3109TIP3   OH230885   5.401   1.738   6.891
 3109TIP3    H130886   5.314   1.778   6.900
 3109TIP3    H230887   5.389   1.672   6.822
 3110TIP3   OH230888   5.308   2.731   1.946
 3110TIP3    H130889   5.344   2.756   2.031
 3110TIP3    H230890   5.259   2.808   1.917
 3111TIP3   OH230891   1.893   1.128   7.657
 3111TIP3    H130892   1.978   1.086   7.673
 3111TIP3    H230893   1.838   1.101   7.730
 3112TIP3   OH230894   2.874   0.922   7.220
 3112TIP3    H130895   2.818   0.895   7.292
 3112TIP3    H230896   2.821   0.985   7.170
 3113TIP3   OH230897   6.518   3.633   1.335
 3113TIP3    H130898   6.511   3.652   1.241
 3113TIP3    H230899   6.444   3.680   1.375
 3114TIP3   OH230900   5.855   2.987   8.259
 3114TIP3    H130901   5.908   2.980   8.179
 3114TIP3    H230902   5.773   2.941   8.237
 3115TIP3   OH230903   1.179   3.517   1.594
 3115TIP3    H130904   1.175   3.433   1.641
 3115TIP3    H230905   1.109   3.511   1.529
 3116TIP3   OH230906   1.547   0.081   1.075
 3116TIP3    H130907   1.521   0.041   0.992
 3116TIP3    H230908   1.569   0.006   1.132
 3117TIP3   OH230909   5.227   1.960   2.406
 3117TIP3    H130910   5.315   1.958   2.367
 3117TIP3    H230911   5.210   2.053   2.422
 3118TIP3   OH230912   4.138   5.068   6.761
 3118TIP3    H130913   4.065   5.035   6.708
 3118TIP3    H230914   4.212   5.011   6.738
 3119TIP3   OH230915   2.900   2.131   8.391
 3119TIP3    H130916   2.856   2.161   8.471
 3119TIP3    H230917   2.835   2.145   8.322
 3120TIP3   OH230918   6.225   4.989   6.890
 3120TIP3    H130919   6.246   4.941   6.810
 3120TIP3    H230920   6.296   5.052   6.900
 3121TIP3   OH230921   5.626   6.825   7.176
 3121TIP3    H130922   5.655   6.736   7.154
 3121TIP3    H230923   5.581   6.816   7.260
 3122TIP3   OH230924   5.766   5.938   0.567
 3122TIP3    H130925   5.673   5.939   0.548
 3122TIP3    H230926   5.789   5.846   0.572
 3123TIP3   OH230927   3.033   5.954   8.008
 3123TIP3    H130928   2.972   5.989   7.943
 3123TIP3    H230929   3.088   5.892   7.960
 3124TIP3   OH230930   1.762   2.396   6.745
 3124TIP3    H130931   1.737   2.486   6.727
 3124TIP3    H230932   1.856   2.399   6.760
 3125TIP3   OH230933   1.813   4.128   6.455
 3125TIP3    H130934   1.831   4.220   6.475
 3125TIP3    H230935   1.885   4.080   6.496
 3126TIP3   OH230936   3.821   6.444   1.348
 3126TIP3    H130937   3.809   6.524   1.399
 3126TIP3    H230938   3.735   6.402   1.347
 3127TIP3   OH230939   3.831   2.643   8.281
 3127TIP3    H130940   3.857   2.735   8.282
 3127TIP3    H230941   3.736   2.645   8.293
 3128TIP3   OH230942   6.053   1.445   6.445
 3128TIP3    H130943   6.054   1.416   6.536
 3128TIP3    H230944   6.013   1.532   6.447
 3129TIP3   OH230945   2.465   1.186   1.471
 3129TIP3    H130946   2.425   1.164   1.555
 3129TIP3    H230947   2.400   1.239   1.426
 3130TIP3   OH230948   4.029   6.062   6.615
 3130TIP3    H130949   4.023   6.111   6.532
 3130TIP3    H230950   3.952   6.005   6.615
 3131TIP3   OH230951   6.344   5.267   0.278
 3131TIP3    H130952   6.278   5.274   0.209
 3131TIP3    H230953   6.421   5.231   0.235
 3132TIP3   OH230954   5.118   3.491   1.624
 3132TIP3    H130955   5.136   3.475   1.531
 3132TIP3    H230956   5.025   3.512   1.627
 3133TIP3   OH230957   5.515   6.202   8.386
 3133TIP3    H130958   5.431   6.245   8.403
 3133TIP3    H230959   5.547   6.243   8.306
 3134TIP3   OH230960   6.411   0.839   8.169
 3134TIP3    H130961   6.476   0.795   8.114
 3134TIP3    H230962   6.424   0.800   8.256
 3135TIP3   OH230963   6.506   3.031   7.454
 3135TIP3    H130964   6.510   3.084   7.534
 3135TIP3    H230965   6.505   3.095   7.383
 3136TIP3   OH230966   0.828   5.964   1.644
 3136TIP3    H130967   0.815   5.925   1.730
 3136TIP3    H230968   0.755   6.026   1.635
 3137TIP3   OH230969   1.927   1.933   7.083
 3137TIP3    H130970   1.875   2.014   7.081
 3137TIP3    H230971   2.015   1.960   7.057
 3138TIP3   OH230972   3.562   6.527   2.404
 3138TIP3    H130973   3.592   6.575   2.327
 3138TIP3    H230974   3.635   6.470   2.428
 3139TIP3   OH230975   4.273   0.006   0.817
 3139TIP3    H130976   4.197   0.056   0.848
 3139TIP3    H230977   4.253   6.795   0.839
 3140TIP3   OH230978   4.940   2.112   0.691
 3140TIP3    H130979   4.978   2.024   0.698
 3140TIP3    H230980   4.974   2.158   0.767
 3141TIP3   OH230981   1.691   4.183   0.336
 3141TIP3    H130982   1.784   4.207   0.334
 3141TIP3    H230983   1.652   4.231   0.262
 3142TIP3   OH230984   3.405   5.642   0.785
 3142TIP3    H130985   3.351   5.587   0.841
 3142TIP3    H230986   3.395   5.605   0.697
 3143TIP3   OH230987   1.825   5.905   1.576
 3143TIP3    H130988   1.805   5.832   1.636
 3143TIP3    H230989   1.915   5.890   1.550
 3144TIP3   OH230990   6.589   6.024   2.788
 3144TIP3    H130991   6.515   6.079   2.814
 3144TIP3    H230992   6.552   5.935   2.782
 3145TIP3   OH230993   5.558   5.561   7.940
 3145TIP3    H130994   5.492   5.620   7.977
 3145TIP3    H230995   5.631   5.619   7.917
 3146TIP3   OH230996   6.563   3.858   7.913
 3146TIP3    H130997   6.563   3.857   8.009
 3146TIP3    H230998   6.653   3.839   7.889
 3147TIP3   OH230999   2.461   3.061   2.065
 3147TIP3    H131000   2.429   3.126   2.127
 3147TIP3    H231001   2.392   2.994   2.062
 3148TIP3   OH231002   5.603   0.628   7.560
 3148TIP3    H131003   5.645   0.598   7.480
 3148TIP3    H231004   5.610   0.724   7.556
 3149TIP3   OH231005   6.456   3.947   0.022
 3149TIP3    H131006   6.484   3.941   0.113
 3149TIP3    H231007   6.467   3.858   8.611
 3150TIP3   OH231008   6.189   4.439   6.706
 3150TIP3    H131009   6.097   4.460   6.693
 3150TIP3    H231010   6.215   4.488   6.784
 3151TIP3   OH231011   4.011   1.003   7.810
 3151TIP3    H131012   3.969   1.051   7.882
 3151TIP3    H231013   3.973   1.041   7.731
 3152TIP3   OH231014   5.993   2.036   2.015
 3152TIP3    H131015   5.903   2.016   2.041
 3152TIP3    H231016   6.011   2.121   2.054
 3153TIP3   OH231017   2.098   4.560   7.507
 3153TIP3    H131018   2.155   4.505   7.561
 3153TIP3    H231019   2.086   4.510   7.426
 3154TIP3   OH231020   0.457   2.315   1.701
 3154TIP3    H131021   0.497   2.350   1.780
 3154TIP3    H231022   0.482   2.376   1.632
 3155TIP3   OH231023   1.123   3.762   0.855
 3155TIP3    H131024   1.094   3.752   0.764
 3155TIP3    H231025   1.049   3.731   0.907
 3156TIP3   OH231026   2.048   0.246   1.073
 3156TIP3    H131027   1.974   0.268   1.128
 3156TIP3    H231028   2.024   0.277   0.986
 3157TIP3   OH231029   2.888   3.427   1.385
 3157TIP3    H131030   2.963   3.374   1.356
 3157TIP3    H231031   2.821   3.363   1.408
 3158TIP3   OH231032   2.089   4.730   0.161
 3158TIP3    H131033   2.085   4.781   0.080
 3158TIP3    H231034   2.182   4.710   0.172
 3159TIP3   OH231035   4.708   5.689   6.351
 3159TIP3    H131036   4.698   5.714   6.443
 3159TIP3    H231037   4.801   5.696   6.334
 3160TIP3   OH231038   4.885   1.140   8.116
 3160TIP3    H131039   4.896   1.054   8.156
 3160TIP3    H231040   4.894   1.125   8.022
 3161TIP3   OH231041   2.818   4.870   6.494
 3161TIP3    H131042   2.913   4.868   6.480
 3161TIP3    H231043   2.781   4.876   6.405
 3162TIP3   OH231044   6.656   3.869   0.993
 3162TIP3    H131045   6.593   3.929   0.953
 3162TIP3    H231046   6.661   3.897   1.084
 3163TIP3   OH231047   0.937   6.136   0.437
 3163TIP3    H131048   0.950   6.049   0.475
 3163TIP3    H231049   0.842   6.148   0.436
 3164TIP3   OH231050   5.913   0.460   8.299
 3164TIP3    H131051   5.945   0.409   8.224
 3164TIP3    H231052   5.863   0.531   8.259
 3165TIP3   OH231053   3.719   4.399   0.156
 3165TIP3    H131054   3.721   4.328   0.221
 3165TIP3    H231055   3.668   4.363   0.083
 3166TIP3   OH231056   1.637   1.736   1.562
 3166TIP3    H131057   1.703   1.666   1.560
 3166TIP3    H231058   1.560   1.695   1.601
 3167TIP3   OH231059   3.268   3.374   0.666
 3167TIP3    H131060   3.277   3.288   0.707
 3167TIP3    H231061   3.325   3.369   0.589
 3168TIP3   OH231062   1.852   3.175   1.277
 3168TIP3    H131063   1.790   3.164   1.205
 3168TIP3    H231064   1.807   3.140   1.354
 3169TIP3   OH231065   6.450   3.271   1.115
 3169TIP3    H131066   6.355   3.275   1.117
 3169TIP3    H231067   6.471   3.218   1.038
 3170TIP3   OH231068   5.691   3.941   2.049
 3170TIP3    H131069   5.670   3.867   2.106
 3170TIP3    H231070   5.618   3.944   1.987
 3171TIP3   OH231071   4.028   4.782   6.769
 3171TIP3    H131072   4.107   4.822   6.732
 3171TIP3    H231073   4.051   4.766   6.860
 3172TIP3   OH231074   5.377   5.913   0.909
 3172TIP3    H131075   5.459   5.947   0.945
 3172TIP3    H231076   5.399   5.825   0.879
 3173TIP3   OH231077   3.010   3.395   8.305
 3173TIP3    H131078   2.926   3.353   8.323
 3173TIP3    H231079   3.005   3.479   8.349
 3174TIP3   OH231080   0.347   6.720   0.212
 3174TIP3    H131081   0.306   6.673   0.139
 3174TIP3    H231082   0.312   6.809   0.205
 3175TIP3   OH231083   5.919   5.562   2.282
 3175TIP3    H131084   5.839   5.541   2.330
 3175TIP3    H231085   5.932   5.655   2.299
 3176TIP3   OH231086   4.190   3.237   0.639
 3176TIP3    H131087   4.169   3.235   0.732
 3176TIP3    H231088   4.114   3.277   0.598
 3177TIP3   OH231089   2.573   0.823   1.397
 3177TIP3    H131090   2.549   0.821   1.490
 3177TIP3    H231091   2.666   0.800   1.397
 3178TIP3   OH231092   4.288   0.426   6.937
 3178TIP3    H131093   4.286   0.442   6.842
 3178TIP3    H231094   4.226   0.489   6.973
 3179TIP3   OH231095   0.771   4.950   7.035
 3179TIP3    H131096   0.747   4.980   6.948
 3179TIP3    H231097   0.746   5.021   7.094
 3180TIP3   OH231098   4.104   4.169   1.199
 3180TIP3    H131099   4.098   4.254   1.243
 3180TIP3    H231100   4.071   4.106   1.264
 3181TIP3   OH231101   0.964   1.801   7.822
 3181TIP3    H131102   0.920   1.728   7.864
 3181TIP3    H231103   1.049   1.765   7.796
 3182TIP3   OH231104   0.392   4.672   7.588
 3182TIP3    H131105   0.424   4.595   7.634
 3182TIP3    H231106   0.408   4.654   7.495
 3183TIP3   OH231107   0.961   1.090   5.905
 3183TIP3    H131108   1.042   1.051   5.939
 3183TIP3    H231109   0.894   1.022   5.920
 3184TIP3   OH231110   0.953   1.843   1.033
 3184TIP3    H131111   0.970   1.751   1.014
 3184TIP3    H231112   0.920   1.844   1.123
 3185TIP3   OH231113   1.616   4.040   8.619
 3185TIP3    H131114   1.656   4.108   8.566
 3185TIP3    H231115   1.525   4.069   0.008
 3186TIP3   OH231116   6.364   1.459   1.723
 3186TIP3    H131117   6.435   1.404   1.690
 3186TIP3    H231118   6.408   1.532   1.767
 3187TIP3   OH231119   4.579   5.096   7.348
 3187TIP3    H131120   4.495   5.142   7.345
 3187TIP3    H231121   4.643   5.165   7.363
 3188TIP3   OH231122   3.244   3.442   2.161
 3188TIP3    H131123   3.305   3.455   2.089
 3188TIP3    H231124   3.195   3.524   2.166
 3189TIP3   OH231125   6.531   6.075   0.312
 3189TIP3    H131126   6.438   6.053   0.317
 3189TIP3    H231127   6.575   6.000   0.353
 3190TIP3   OH231128   3.620   2.091   7.290
 3190TIP3    H131129   3.528   2.115   7.289
 3190TIP3    H231130   3.627   2.021   7.225
 3191TIP3   OH231131   2.953   5.477   1.357
 3191TIP3    H131132   2.886   5.423   1.400
 3191TIP3    H231133   3.005   5.414   1.306
 3192TIP3   OH231134   3.156   0.544   7.769
 3192TIP3    H131135   3.094   0.529   7.841
 3192TIP3    H231136   3.100   0.549   7.691
 3193TIP3   OH231137   0.957   0.083   0.964
 3193TIP3    H131138   1.045   0.071   0.927
 3193TIP3    H231139   0.970   0.135   1.043
 3194TIP3   OH231140   1.498   4.937   7.750
 3194TIP3    H131141   1.545   4.857   7.778
 3194TIP3    H231142   1.548   4.969   7.675
 3195TIP3   OH231143   0.295   1.265   1.383
 3195TIP3    H131144   0.251   1.181   1.365
 3195TIP3    H231145   0.250   1.300   1.460
 3196TIP3   OH231146   6.556   0.034   1.475
 3196TIP3    H131147   6.461   0.044   1.466
 3196TIP3    H231148   6.574   0.065   1.564
 3197TIP3   OH231149   6.331   4.937   0.348
 3197TIP3    H131150   6.336   5.029   0.322
 3197TIP3    H231151   6.365   4.935   0.437
 3198TIP3   OH231152   3.845   5.975   1.070
 3198TIP3    H131153   3.754   5.996   1.050
 3198TIP3    H231154   3.860   5.889   1.032
 3199TIP3   OH231155   2.188   6.378   2.130
 3199TIP3    H131156   2.135   6.448   2.167
 3199TIP3    H231157   2.124   6.313   2.101
 3200TIP3   OH231158   0.691   0.498   1.078
 3200TIP3    H131159   0.718   0.490   1.170
 3200TIP3    H231160   0.703   0.591   1.058
 3201TIP3   OH231161   3.959   2.580   7.347
 3201TIP3    H131162   3.956   2.674   7.328
 3201TIP3    H231163   3.932   2.538   7.265
 3202TIP3   OH231164   6.761   2.917   1.740
 3202TIP3    H131165   6.695   2.982   1.718
 3202TIP3    H231166   6.723   2.867   1.813
 3203TIP3   OH231167   3.931   3.923   1.162
 3203TIP3    H131168   4.008   3.866   1.164
 3203TIP3    H231169   3.924   3.957   1.251
 3204TIP3   OH231170   5.362   6.489   1.608
 3204TIP3    H131171   5.405   6.572   1.628
 3204TIP3    H231172   5.304   6.473   1.683
 3205TIP3   OH231173   5.571   5.444   1.530
 3205TIP3    H131174   5.651   5.391   1.523
 3205TIP3    H231175   5.598   5.522   1.578
 3206TIP3   OH231176   1.149   4.830   0.116
 3206TIP3    H131177   1.159   4.769   0.189
 3206TIP3    H231178   1.189   4.911   0.148
 3207TIP3   OH231179   2.482   5.782   7.380
 3207TIP3    H131180   2.557   5.826   7.340
 3207TIP3    H231181   2.438   5.738   7.307
 3208TIP3   OH231182   5.930   6.370   8.117
 3208TIP3    H131183   5.846   6.327   8.106
 3208TIP3    H231184   5.994   6.308   8.084
 3209TIP3   OH231185   4.849   1.009   8.437
 3209TIP3    H131186   4.858   1.104   8.436
 3209TIP3    H231187   4.756   0.994   8.453
 3210TIP3   OH231188   6.077   0.271   8.145
 3210TIP3    H131189   6.021   0.308   8.076
 3210TIP3    H231190   6.076   0.177   8.129
 3211TIP3   OH231191   5.931   1.352   1.427
 3211TIP3    H131192   5.938   1.280   1.364
 3211TIP3    H231193   5.839   1.353   1.451
 3212TIP3   OH231194   2.248   6.687   0.839
 3212TIP3    H131195   2.238   6.702   0.933
 3212TIP3    H231196   2.288   6.601   0.832
 3213TIP3   OH231197   3.652   1.762   1.111
 3213TIP3    H131198   3.703   1.708   1.050
 3213TIP3    H231199   3.583   1.801   1.056
 3214TIP3   OH231200   2.687   3.622   1.308
 3214TIP3    H131201   2.757   3.559   1.294
 3214TIP3    H231202   2.676   3.625   1.403
 3215TIP3   OH231203   2.730   3.061   7.531
 3215TIP3    H131204   2.803   3.051   7.471
 3215TIP3    H231205   2.763   3.027   7.615
 3216TIP3   OH231206   4.827   1.864   1.733
 3216TIP3    H131207   4.803   1.866   1.640
 3216TIP3    H231208   4.826   1.771   1.756
 3217TIP3   OH231209   5.639   1.939   7.339
 3217TIP3    H131210   5.627   1.920   7.246
 3217TIP3    H231211   5.711   2.003   7.341
 3218TIP3   OH231212   3.486   1.656   1.317
 3218TIP3    H131213   3.558   1.607   1.278
 3218TIP3    H231214   3.494   1.744   1.281
 3219TIP3   OH231215   3.229   3.687   0.474
 3219TIP3    H131216   3.137   3.660   0.480
 3219TIP3    H231217   3.274   3.612   0.435
 3220TIP3   OH231218   1.487   0.309   0.169
 3220TIP3    H131219   1.485   0.405   0.167
 3220TIP3    H231220   1.541   0.288   0.246
 3221TIP3   OH231221   1.721   2.124   0.896
 3221TIP3    H131222   1.661   2.081   0.957
 3221TIP3    H231223   1.718   2.070   0.817
 3222TIP3   OH231224   4.588   2.055   2.575
 3222TIP3    H131225   4.626   2.050   2.662
 3222TIP3    H231226   4.600   1.968   2.538
 3223TIP3   OH231227   6.875   3.163   0.333
 3223TIP3    H131228   6.794   3.160   0.384
 3223TIP3    H231229   0.064   3.146   0.397
 3224TIP3   OH231230   2.039   0.344   8.456
 3224TIP3    H131231   2.072   0.256   8.474
 3224TIP3    H231232   2.091   0.374   8.382
 3225TIP3   OH231233   2.807   0.746   6.914
 3225TIP3    H131234   2.825   0.716   6.825
 3225TIP3    H231235   2.720   0.785   6.908
 3226TIP3   OH231236   4.504   5.792   7.873
 3226TIP3    H131237   4.421   5.759   7.907
 3226TIP3    H231238   4.491   5.800   7.779
 3227TIP3   OH231239   3.683   2.310   0.608
 3227TIP3    H131240   3.663   2.353   0.526
 3227TIP3    H231241   3.598   2.294   0.649
 3228TIP3   OH231242   1.361   1.221   0.224
 3228TIP3    H131243   1.290   1.197   0.284
 3228TIP3    H231244   1.430   1.156   0.241
 3229TIP3   OH231245   3.426   2.857   6.257
 3229TIP3    H131246   3.344   2.828   6.217
 3229TIP3    H231247   3.486   2.867   6.183
 3230TIP3   OH231248   4.230   0.892   8.335
 3230TIP3    H131249   4.300   0.861   8.279
 3230TIP3    H231250   4.261   0.874   8.424
 3231TIP3   OH231251   6.689   4.011   1.231
 3231TIP3    H131252   6.757   3.991   1.295
 3231TIP3    H231253   6.693   4.106   1.220
 3232TIP3   OH231254   1.026   3.646   1.354
 3232TIP3    H131255   1.057   3.731   1.384
 3232TIP3    H231256   1.082   3.625   1.279
 3233TIP3   OH231257   4.187   1.098   1.251
 3233TIP3    H131258   4.231   1.119   1.334
 3233TIP3    H231259   4.232   1.153   1.186
 3234TIP3   OH231260   4.680   3.987   2.112
 3234TIP3    H131261   4.672   3.994   2.207
 3234TIP3    H231262   4.591   3.968   2.081
 3235TIP3   OH231263   0.085   2.937   7.284
 3235TIP3    H131264   0.027   2.944   7.208
 3235TIP3    H231265   0.035   2.886   7.348
 3236TIP3   OH231266   0.114   5.275   0.908
 3236TIP3    H131267   0.110   5.368   0.933
 3236TIP3    H231268   0.188   5.240   0.958
 3237TIP3   OH231269   1.586   2.027   7.702
 3237TIP3    H131270   1.613   1.965   7.634
 3237TIP3    H231271   1.580   1.974   7.781
 3238TIP3   OH231272   6.264   2.371   7.693
 3238TIP3    H131273   6.294   2.315   7.765
 3238TIP3    H231274   6.332   2.439   7.685
 3239TIP3   OH231275   5.338   0.236   2.535
 3239TIP3    H131276   5.307   0.293   2.606
 3239TIP3    H231277   5.264   0.177   2.518
 3240TIP3   OH231278   6.064   2.101   0.421
 3240TIP3    H131279   6.107   2.022   0.455
 3240TIP3    H231280   6.135   2.151   0.381
 3241TIP3   OH231281   4.866   1.409   6.909
 3241TIP3    H131282   4.898   1.327   6.871
 3241TIP3    H231283   4.926   1.476   6.876
 3242TIP3   OH231284   4.118   0.840   6.251
 3242TIP3    H131285   4.148   0.791   6.174
 3242TIP3    H231286   4.049   0.785   6.288
 3243TIP3   OH231287   0.483   0.094   8.604
 3243TIP3    H131288   0.454   0.160   8.541
 3243TIP3    H231289   0.420   0.100   0.052
 3244TIP3   OH231290   2.514   5.134   7.793
 3244TIP3    H131291   2.491   5.142   7.885
 3244TIP3    H231292   2.582   5.067   7.791
 3245TIP3   OH231293   1.193   5.496   8.511
 3245TIP3    H131294   1.265   5.557   8.526
 3245TIP3    H231295   1.114   5.549   8.521
 3246TIP3   OH231296   2.225   5.161   7.288
 3246TIP3    H131297   2.223   5.230   7.354
 3246TIP3    H231298   2.170   5.091   7.325
 3247TIP3   OH231299   3.125   1.081   1.566
 3247TIP3    H131300   3.098   1.119   1.482
 3247TIP3    H231301   3.121   1.154   1.628
 3248TIP3   OH231302   0.274   1.705   1.550
 3248TIP3    H131303   0.193   1.753   1.564
 3248TIP3    H231304   0.344   1.767   1.571
 3249TIP3   OH231305   5.431   4.080   0.349
 3249TIP3    H131306   5.442   4.149   0.284
 3249TIP3    H231307   5.399   4.005   0.299
 3250TIP3   OH231308   6.294   3.366   7.472
 3250TIP3    H131309   6.366   3.417   7.436
 3250TIP3    H231310   6.247   3.427   7.529
 3251TIP3   OH231311   0.087   5.008   6.491
 3251TIP3    H131312   0.028   5.073   6.528
 3251TIP3    H231313   0.113   4.954   6.565
 3252TIP3   OH231314   4.514   5.526   7.460
 3252TIP3    H131315   4.543   5.606   7.504
 3252TIP3    H231316   4.482   5.470   7.530
 3253TIP3   OH231317   3.068   5.700   0.760
 3253TIP3    H131318   3.119   5.741   0.691
 3253TIP3    H231319   2.984   5.746   0.758
 3254TIP3   OH231320   4.614   2.128   1.451
 3254TIP3    H131321   4.544   2.077   1.411
 3254TIP3    H231322   4.690   2.068   1.452
 3255TIP3   OH231323   1.055   4.496   7.711
 3255TIP3    H131324   1.128   4.445   7.677
 3255TIP3    H231325   0.977   4.446   7.687
 3256TIP3   OH231326   1.183   2.452   8.608
 3256TIP3    H131327   1.114   2.405   8.561
 3256TIP3    H231328   1.217   2.514   8.544
 3257TIP3   OH231329   4.033   5.312   8.417
 3257TIP3    H131330   4.100   5.243   8.423
 3257TIP3    H231331   3.958   5.268   8.376
 3258TIP3   OH231332   1.266   3.937   7.560
 3258TIP3    H131333   1.335   3.996   7.530
 3258TIP3    H231334   1.310   3.874   7.617
 3259TIP3   OH231335   5.534   1.783   1.038
 3259TIP3    H131336   5.477   1.747   1.106
 3259TIP3    H231337   5.522   1.723   0.964
 3260TIP3   OH231338   5.936   3.531   8.602
 3260TIP3    H131339   5.966   3.615   0.014
 3260TIP3    H231340   5.873   3.555   8.534
 3261TIP3   OH231341   5.007   0.749   7.878
 3261TIP3    H131342   5.042   0.787   7.798
 3261TIP3    H231343   4.984   0.659   7.854
 3262TIP3   OH231344   0.719   3.985   1.621
 3262TIP3    H131345   0.648   3.951   1.566
 3262TIP3    H231346   0.799   3.970   1.571
 3263TIP3   OH231347   0.782   4.365   7.308
 3263TIP3    H131348   0.752   4.452   7.335
 3263TIP3    H231349   0.800   4.320   7.391
 3264TIP3   OH231350   2.564   1.460   0.828
 3264TIP3    H131351   2.528   1.439   0.914
 3264TIP3    H231352   2.528   1.546   0.807
 3265TIP3   OH231353   1.428   3.154   2.015
 3265TIP3    H131354   1.445   3.170   2.108
 3265TIP3    H231355   1.338   3.123   2.011
 3266TIP3   OH231356   2.436   1.551   1.645
 3266TIP3    H131357   2.360   1.545   1.703
 3266TIP3    H231358   2.416   1.625   1.588
 3267TIP3   OH231359   2.770   0.292   6.978
 3267TIP3    H131360   2.702   0.342   6.933
 3267TIP3    H231361   2.723   0.219   7.019
 3268TIP3   OH231362   5.147   1.864   0.761
 3268TIP3    H131363   5.165   1.772   0.775
 3268TIP3    H231364   5.114   1.869   0.672
 3269TIP3   OH231365   0.894   1.155   7.189
 3269TIP3    H131366   0.838   1.188   7.260
 3269TIP3    H231367   0.864   1.202   7.111
 3270TIP3   OH231368   1.572   2.583   7.477
 3270TIP3    H131369   1.635   2.655   7.486
 3270TIP3    H231370   1.513   2.610   7.408
 3271TIP3   OH231371   5.558   3.735   7.777
 3271TIP3    H131372   5.621   3.727   7.848
 3271TIP3    H231373   5.476   3.758   7.821
 3272TIP3   OH231374   4.948   3.544   1.110
 3272TIP3    H131375   4.865   3.544   1.061
 3272TIP3    H231376   4.940   3.471   1.171
 3273TIP3   OH231377   5.532   4.559   1.643
 3273TIP3    H131378   5.590   4.520   1.577
 3273TIP3    H231379   5.505   4.486   1.697
 3274TIP3   OH231380   0.679   4.514   2.255
 3274TIP3    H131381   0.735   4.437   2.261
 3274TIP3    H231382   0.648   4.529   2.345
 3275TIP3   OH231383   5.893   1.218   1.163
 3275TIP3    H131384   5.812   1.264   1.143
 3275TIP3    H231385   5.871   1.125   1.153
 3276TIP3   OH231386   2.751   6.129   6.393
 3276TIP3    H131387   2.766   6.071   6.318
 3276TIP3    H231388   2.664   6.165   6.379
 3277TIP3   OH231389   2.764   4.379   1.058
 3277TIP3    H131390   2.763   4.457   1.113
 3277TIP3    H231391   2.786   4.412   0.971
 3278TIP3   OH231392   4.454   4.514   8.162
 3278TIP3    H131393   4.390   4.571   8.119
 3278TIP3    H231394   4.526   4.573   8.187
 3279TIP3   OH231395   1.100   5.878   0.855
 3279TIP3    H131396   1.078   5.962   0.815
 3279TIP3    H231397   1.018   5.829   0.855
 3280TIP3   OH231398   2.696   2.634   1.530
 3280TIP3    H131399   2.707   2.579   1.607
 3280TIP3    H231400   2.785   2.653   1.501
 3281TIP3   OH231401   4.108   3.577   8.083
 3281TIP3    H131402   4.054   3.627   8.146
 3281TIP3    H231403   4.198   3.599   8.106
 3282TIP3   OH231404   2.757   6.564   7.483
 3282TIP3    H131405   2.733   6.619   7.409
 3282TIP3    H231406   2.839   6.601   7.515
 3283TIP3   OH231407   6.162   2.483   1.044
 3283TIP3    H131408   6.166   2.526   0.959
 3283TIP3    H231409   6.138   2.392   1.024
 3284TIP3   OH231410   2.598   2.137   0.408
 3284TIP3    H131411   2.571   2.111   0.496
 3284TIP3    H231412   2.516   2.156   0.362
 3285TIP3   OH231413   0.112   4.775   6.356
 3285TIP3    H131414   0.137   4.866   6.372
 3285TIP3    H231415   0.019   4.771   6.378
 3286TIP3   OH231416   3.896   6.339   1.667
 3286TIP3    H131417   3.823   6.279   1.677
 3286TIP3    H231418   3.933   6.348   1.755
 3287TIP3   OH231419   1.546   4.220   7.682
 3287TIP3    H131420   1.539   4.143   7.625
 3287TIP3    H231421   1.634   4.213   7.720
 3288TIP3   OH231422   1.741   3.126   7.932
 3288TIP3    H131423   1.805   3.146   7.864
 3288TIP3    H231424   1.772   3.172   8.009
 3289TIP3   OH231425   2.795   4.932   6.805
 3289TIP3    H131426   2.772   4.923   6.713
 3289TIP3    H231427   2.792   5.026   6.822
 3290TIP3   OH231428   0.385   3.936   1.198
 3290TIP3    H131429   0.325   4.008   1.179
 3290TIP3    H231430   0.472   3.974   1.188
 3291TIP3   OH231431   2.539   6.158   6.036
 3291TIP3    H131432   2.510   6.210   6.111
 3291TIP3    H231433   2.574   6.078   6.075
 3292TIP3   OH231434   1.386   2.817   0.595
 3292TIP3    H131435   1.392   2.736   0.544
 3292TIP3    H231436   1.474   2.829   0.631
 3293TIP3   OH231437   2.622   6.218   6.620
 3293TIP3    H131438   2.561   6.251   6.554
 3293TIP3    H231439   2.682   6.161   6.570
 3294TIP3   OH231440   5.261   1.082   7.679
 3294TIP3    H131441   5.323   1.150   7.705
 3294TIP3    H231442   5.310   1.000   7.686
 3295TIP3   OH231443   4.956   6.595   1.264
 3295TIP3    H131444   5.008   6.673   1.285
 3295TIP3    H231445   4.954   6.593   1.168
 3296TIP3   OH231446   0.907   6.080   0.108
 3296TIP3    H131447   0.955   6.144   0.055
 3296TIP3    H231448   0.939   6.094   0.197
 3297TIP3   OH231449   2.239   1.272   7.644
 3297TIP3    H131450   2.271   1.361   7.657
 3297TIP3    H231451   2.299   1.217   7.694
 3298TIP3   OH231452   4.850   0.634   2.097
 3298TIP3    H131453   4.878   0.653   2.007
 3298TIP3    H231454   4.836   0.539   2.097
 3299TIP3   OH231455   5.398   6.658   1.161
 3299TIP3    H131456   5.444   6.609   1.093
 3299TIP3    H231457   5.391   6.597   1.235
 3300TIP3   OH231458   0.761   1.167   7.703
 3300TIP3    H131459   0.727   1.181   7.615
 3300TIP3    H231460   0.812   1.246   7.722
 3301TIP3   OH231461   0.840   2.728   1.963
 3301TIP3    H131462   0.805   2.817   1.952
 3301TIP3    H231463   0.930   2.741   1.993
 3302TIP3   OH231464   2.407   3.352   6.098
 3302TIP3    H131465   2.389   3.277   6.040
 3302TIP3    H231466   2.332   3.354   6.157
 3303TIP3   OH231467   5.117   1.159   0.811
 3303TIP3    H131468   5.051   1.155   0.880
 3303TIP3    H231469   5.197   1.186   0.855
 3304TIP3   OH231470   3.479   2.611   2.132
 3304TIP3    H131471   3.384   2.606   2.125
 3304TIP3    H231472   3.509   2.637   2.045
 3305TIP3   OH231473   1.652   3.665   8.078
 3305TIP3    H131474   1.582   3.674   8.142
 3305TIP3    H231475   1.730   3.643   8.130
 3306TIP3   OH231476   6.472   4.020   0.809
 3306TIP3    H131477   6.384   3.990   0.785
 3306TIP3    H231478   6.465   4.115   0.814
 3307TIP3   OH231479   0.969   1.598   0.105
 3307TIP3    H131480   0.982   1.536   0.175
 3307TIP3    H231481   1.001   1.682   0.140
 3308TIP3   OH231482   2.173   1.176   8.292
 3308TIP3    H131483   2.114   1.145   8.361
 3308TIP3    H231484   2.258   1.139   8.314
 3309TIP3   OH231485   0.458   1.202   0.230
 3309TIP3    H131486   0.499   1.267   0.173
 3309TIP3    H231487   0.386   1.167   0.178
 3310TIP3   OH231488   4.241   6.475   0.534
 3310TIP3    H131489   4.173   6.456   0.598
 3310TIP3    H231490   4.294   6.395   0.530
 3311TIP3   OH231491   1.891   3.083   8.199
 3311TIP3    H131492   1.845   3.167   8.206
 3311TIP3    H231493   1.881   3.043   8.286
 3312TIP3   OH231494   3.689   4.952   0.799
 3312TIP3    H131495   3.700   4.970   0.706
 3312TIP3    H231496   3.669   4.859   0.804
 3313TIP3   OH231497   2.022   0.851   6.913
 3313TIP3    H131498   2.015   0.848   6.817
 3313TIP3    H231499   2.073   0.773   6.936
 3314TIP3   OH231500   1.123   6.219   7.701
 3314TIP3    H131501   1.116   6.198   7.607
 3314TIP3    H231502   1.047   6.178   7.740
 3315TIP3   OH231503   4.469   1.114   1.718
 3315TIP3    H131504   4.387   1.115   1.767
 3315TIP3    H231505   4.510   1.030   1.741
 3316TIP3   OH231506   6.274   6.003   1.117
 3316TIP3    H131507   6.207   5.954   1.070
 3316TIP3    H231508   6.309   6.064   1.052
 3317TIP3   OH231509   1.535   5.577   6.054
 3317TIP3    H131510   1.446   5.594   6.083
 3317TIP3    H231511   1.579   5.541   6.131
 3318TIP3   OH231512   5.985   2.517   0.528
 3318TIP3    H131513   6.057   2.579   0.518
 3318TIP3    H231514   5.906   2.568   0.509
 3319TIP3   OH231515   1.364   3.400   1.322
 3319TIP3    H131516   1.364   3.304   1.312
 3319TIP3    H231517   1.340   3.433   1.236
 3320TIP3   OH231518   1.713   6.032   7.497
 3320TIP3    H131519   1.668   6.085   7.431
 3320TIP3    H231520   1.679   6.063   7.580
 3321TIP3   OH231521   3.698   6.516   1.916
 3321TIP3    H131522   3.713   6.593   1.862
 3321TIP3    H231523   3.610   6.486   1.892
 3322TIP3   OH231524   1.039   5.139   8.474
 3322TIP3    H131525   0.997   5.053   8.466
 3322TIP3    H231526   1.013   5.185   8.393
 3323TIP3   OH231527   5.398   2.258   1.413
 3323TIP3    H131528   5.413   2.313   1.489
 3323TIP3    H231529   5.451   2.180   1.428
 3324TIP3   OH231530   6.263   3.645   2.038
 3324TIP3    H131531   6.342   3.599   2.069
 3324TIP3    H231532   6.274   3.735   2.070
 3325TIP3   OH231533   1.891   6.303   8.469
 3325TIP3    H131534   1.839   6.345   8.401
 3325TIP3    H231535   1.843   6.224   8.492
 3326TIP3   OH231536   6.107   3.132   8.419
 3326TIP3    H131537   6.025   3.181   8.418
 3326TIP3    H231538   6.083   3.044   8.449
 3327TIP3   OH231539   4.679   2.781   7.141
 3327TIP3    H131540   4.698   2.705   7.196
 3327TIP3    H231541   4.735   2.850   7.175
 3328TIP3   OH231542   0.947   4.937   0.942
 3328TIP3    H131543   0.920   5.022   0.907
 3328TIP3    H231544   0.985   4.891   0.867
 3329TIP3   OH231545   5.781   5.106   7.549
 3329TIP3    H131546   5.741   5.177   7.500
 3329TIP3    H231547   5.874   5.129   7.554
 3330TIP3   OH231548   0.040   4.409   1.394
 3330TIP3    H131549   0.093   4.478   1.354
 3330TIP3    H231550   6.832   4.424   1.361
 3331TIP3   OH231551   3.570   5.227   0.884
 3331TIP3    H131552   3.487   5.256   0.846
 3331TIP3    H231553   3.598   5.155   0.828
 3332TIP3   OH231554   6.122   1.946   1.114
 3332TIP3    H131555   6.029   1.933   1.133
 3332TIP3    H231556   6.139   2.036   1.141
 3333TIP3   OH231557   6.453   2.903   7.828
 3333TIP3    H131558   6.373   2.938   7.868
 3333TIP3    H231559   6.494   2.852   7.899
 3334TIP3   OH231560   5.262   2.089   0.827
 3334TIP3    H131561   5.193   2.131   0.877
 3334TIP3    H231562   5.228   2.002   0.808
 3335TIP3   OH231563   3.121   2.333   0.056
 3335TIP3    H131564   3.038   2.318   0.102
 3335TIP3    H231565   3.156   2.413   0.095
 3336TIP3   OH231566   1.831   3.581   6.775
 3336TIP3    H131567   1.772   3.593   6.701
 3336TIP3    H231568   1.852   3.487   6.773
 3337TIP3   OH231569   3.387   4.101   8.041
 3337TIP3    H131570   3.435   4.022   8.014
 3337TIP3    H231571   3.296   4.083   8.016
 3338TIP3   OH231572   0.967   3.057   0.104
 3338TIP3    H131573   0.942   2.972   0.141
 3338TIP3    H231574   0.915   3.121   0.152
 3339TIP3   OH231575   6.645   4.894   1.778
 3339TIP3    H131576   6.720   4.839   1.756
 3339TIP3    H231577   6.682   4.979   1.800
 3340TIP3   OH231578   2.948   4.973   7.030
 3340TIP3    H131579   2.988   4.908   7.088
 3340TIP3    H231580   2.887   4.922   6.977
 3341TIP3   OH231581   2.130   3.487   7.776
 3341TIP3    H131582   2.106   3.459   7.688
 3341TIP3    H231583   2.115   3.582   7.776
 3342TIP3   OH231584   6.300   0.857   0.865
 3342TIP3    H131585   6.391   0.885   0.869
 3342TIP3    H231586   6.250   0.938   0.879
 3343TIP3   OH231587   6.871   0.782   1.174
 3343TIP3    H131588   0.004   0.851   1.110
 3343TIP3    H231589   6.776   0.779   1.189
 3344TIP3   OH231590   3.957   3.069   1.497
 3344TIP3    H131591   3.880   3.016   1.477
 3344TIP3    H231592   3.983   3.042   1.585
 3345TIP3   OH231593   6.827   0.268   0.380
 3345TIP3    H131594   6.867   0.188   0.413
 3345TIP3    H231595   6.855   0.275   0.290
 3346TIP3   OH231596   1.874   0.219   7.401
 3346TIP3    H131597   1.913   0.205   7.314
 3346TIP3    H231598   1.868   0.314   7.409
 3347TIP3   OH231599   2.228   1.399   2.200
 3347TIP3    H131600   2.138   1.432   2.198
 3347TIP3    H231601   2.218   1.304   2.194
 3348TIP3   OH231602   3.918   1.801   8.347
 3348TIP3    H131603   3.982   1.735   8.373
 3348TIP3    H231604   3.885   1.837   8.429
 3349TIP3   OH231605   4.703   3.706   1.639
 3349TIP3    H131606   4.752   3.788   1.646
 3349TIP3    H231607   4.767   3.643   1.606
 3350TIP3   OH231608   1.487   4.376   7.914
 3350TIP3    H131609   1.477   4.299   7.857
 3350TIP3    H231610   1.398   4.409   7.926
 3351TIP3   OH231611   0.276   6.492   8.382
 3351TIP3    H131612   0.211   6.561   8.394
 3351TIP3    H231613   0.308   6.473   8.470
 3352TIP3   OH231614   6.688   5.363   7.003
 3352TIP3    H131615   6.733   5.445   7.022
 3352TIP3    H231616   6.758   5.302   6.978
 3353TIP3   OH231617   3.985   4.750   0.071
 3353TIP3    H131618   4.068   4.796   0.078
 3353TIP3    H231619   3.918   4.816   0.091
 3354TIP3   OH231620   0.034   3.986   7.088
 3354TIP3    H131621   0.051   3.919   7.021
 3354TIP3    H231622   0.027   3.937   7.170
 3355TIP3   OH231623   3.202   1.795   2.129
 3355TIP3    H131624   3.253   1.875   2.116
 3355TIP3    H231625   3.111   1.824   2.130
 3356TIP3   OH231626   3.933   2.262   7.729
 3356TIP3    H131627   3.918   2.337   7.670
 3356TIP3    H231628   3.912   2.185   7.676
 3357TIP3   OH231629   6.742   2.166   6.710
 3357TIP3    H131630   6.698   2.251   6.710
 3357TIP3    H231631   6.834   2.187   6.729
 3358TIP3   OH231632   6.752   3.337   1.132
 3358TIP3    H131633   6.658   3.345   1.117
 3358TIP3    H231634   6.777   3.420   1.173
 3359TIP3   OH231635   0.890   4.484   1.762
 3359TIP3    H131636   0.855   4.395   1.765
 3359TIP3    H231637   0.816   4.540   1.781
 3360TIP3   OH231638   1.332   1.952   8.539
 3360TIP3    H131639   1.338   1.946   8.443
 3360TIP3    H231640   1.422   1.945   8.570
 3361TIP3   OH231641   6.848   4.890   7.599
 3361TIP3    H131642   6.814   4.914   7.686
 3361TIP3    H231643   6.812   4.957   7.541
 3362TIP3   OH231644   3.096   4.371   0.153
 3362TIP3    H131645   3.181   4.339   0.183
 3362TIP3    H231646   3.115   4.455   0.112
 3363TIP3   OH231647   2.410   5.215   0.944
 3363TIP3    H131648   2.415   5.154   1.017
 3363TIP3    H231649   2.482   5.276   0.959
 3364TIP3   OH231650   5.097   6.352   1.342
 3364TIP3    H131651   5.055   6.430   1.305
 3364TIP3    H231652   5.095   6.366   1.437
 3365TIP3   OH231653   2.288   2.272   7.075
 3365TIP3    H131654   2.258   2.363   7.081
 3365TIP3    H231655   2.278   2.251   6.982
 3366TIP3   OH231656   3.979   4.035   1.413
 3366TIP3    H131657   3.986   4.125   1.443
 3366TIP3    H231658   3.994   3.983   1.493
 3367TIP3   OH231659   5.076   5.643   0.797
 3367TIP3    H131660   5.150   5.584   0.780
 3367TIP3    H231661   5.099   5.689   0.878
 3368TIP3   OH231662   3.519   5.089   0.195
 3368TIP3    H131663   3.560   5.089   0.282
 3368TIP3    H231664   3.548   5.170   0.155
 3369TIP3   OH231665   1.319   1.943   6.373
 3369TIP3    H131666   1.226   1.964   6.364
 3369TIP3    H231667   1.328   1.858   6.331
 3370TIP3   OH231668   5.242   2.698   7.324
 3370TIP3    H131669   5.248   2.767   7.389
 3370TIP3    H231670   5.330   2.662   7.317
 3371TIP3   OH231671   3.977   0.033   6.183
 3371TIP3    H131672   4.049   6.858   6.150
 3371TIP3    H231673   4.019   0.112   6.216
 3372TIP3   OH231674   4.665   6.293   0.288
 3372TIP3    H131675   4.727   6.297   0.361
 3372TIP3    H231676   4.673   6.203   0.255
 3373TIP3   OH231677   2.019   6.490   1.645
 3373TIP3    H131678   2.099   6.465   1.691
 3373TIP3    H231679   1.999   6.415   1.589
 3374TIP3   OH231680   1.223   6.314   2.331
 3374TIP3    H131681   1.252   6.394   2.373
 3374TIP3    H231682   1.131   6.330   2.310
 3375TIP3   OH231683   5.225   3.939   2.533
 3375TIP3    H131684   5.261   3.979   2.612
 3375TIP3    H231685   5.296   3.946   2.469
 3376TIP3   OH231686   0.011   1.361   8.444
 3376TIP3    H131687   6.819   1.407   8.401
 3376TIP3    H231688   0.081   1.425   8.451
 3377TIP3   OH231689   0.905   1.063   8.474
 3377TIP3    H131690   0.924   1.070   8.568
 3377TIP3    H231691   0.864   0.977   8.465
 3378TIP3   OH231692   5.806   1.216   7.520
 3378TIP3    H131693   5.896   1.239   7.541
 3378TIP3    H231694   5.811   1.172   7.435
 3379TIP3   OH231695   0.803   5.722   0.111
 3379TIP3    H131696   0.826   5.629   0.118
 3379TIP3    H231697   0.873   5.760   0.059
 3380TIP3   OH231698   2.514   0.862   6.979
 3380TIP3    H131699   2.537   0.950   6.950
 3380TIP3    H231700   2.465   0.875   7.060
 3381TIP3   OH231701   3.066   3.963   7.681
 3381TIP3    H131702   3.089   3.985   7.771
 3381TIP3    H231703   3.094   3.872   7.671
 3382TIP3   OH231704   5.476   2.629   1.296
 3382TIP3    H131705   5.410   2.561   1.277
 3382TIP3    H231706   5.426   2.710   1.297
 3383TIP3   OH231707   0.138   3.313   2.350
 3383TIP3    H131708   0.233   3.311   2.336
 3383TIP3    H231709   0.122   3.397   2.393
 3384TIP3   OH231710   0.117   5.240   1.928
 3384TIP3    H131711   0.176   5.302   1.886
 3384TIP3    H231712   0.141   5.242   2.020
 3385TIP3   OH231713   0.054   3.110   1.097
 3385TIP3    H131714   6.847   3.070   1.085
 3385TIP3    H231715   0.034   3.200   1.123
 3386TIP3   OH231716   2.994   6.204   6.509
 3386TIP3    H131717   2.999   6.140   6.581
 3386TIP3    H231718   2.912   6.184   6.465
 3387TIP3   OH231719   3.845   5.263   0.427
 3387TIP3    H131720   3.875   5.264   0.337
 3387TIP3    H231721   3.784   5.189   0.431
 3388TIP3   OH231722   2.220   4.416   0.197
 3388TIP3    H131723   2.263   4.373   0.123
 3388TIP3    H231724   2.225   4.509   0.178
 3389TIP3   OH231725   1.990   4.565   0.681
 3389TIP3    H131726   1.977   4.597   0.592
 3389TIP3    H231727   2.079   4.592   0.704
 3390TIP3   OH231728   5.643   3.176   7.699
 3390TIP3    H131729   5.629   3.260   7.742
 3390TIP3    H231730   5.627   3.111   7.767
 3391TIP3   OH231731   5.675   6.049   8.550
 3391TIP3    H131732   5.686   5.979   8.486
 3391TIP3    H231733   5.618   6.113   8.506
 3392TIP3   OH231734   3.480   3.690   0.583
 3392TIP3    H131735   3.490   3.617   0.522
 3392TIP3    H231736   3.389   3.719   0.571
 3393TIP3   OH231737   5.080   0.897   0.342
 3393TIP3    H131738   5.094   0.821   0.398
 3393TIP3    H231739   5.097   0.973   0.399
 3394TIP3   OH231740   6.120   3.644   0.395
 3394TIP3    H131741   6.110   3.717   0.457
 3394TIP3    H231742   6.215   3.636   0.383
 3395TIP3   OH231743   4.290   1.198   8.274
 3395TIP3    H131744   4.332   1.249   8.343
 3395TIP3    H231745   4.307   1.107   8.297
 3396TIP3   OH231746   5.487   4.061   0.023
 3396TIP3    H131747   5.502   4.056   8.553
 3396TIP3    H231748   5.500   3.972   0.055
 3397TIP3   OH231749   1.297   1.440   0.564
 3397TIP3    H131750   1.309   1.346   0.552
 3397TIP3    H231751   1.354   1.479   0.497
 3398TIP3   OH231752   2.063   1.585   7.623
 3398TIP3    H131753   2.071   1.514   7.560
 3398TIP3    H231754   2.118   1.656   7.588
 3399TIP3   OH231755   0.772   4.763   0.282
 3399TIP3    H131756   0.828   4.686   0.274
 3399TIP3    H231757   0.806   4.810   0.359
 3400TIP3   OH231758   5.574   3.773   0.078
 3400TIP3    H131759   5.564   3.713   0.005
 3400TIP3    H231760   5.594   3.717   0.153
 3401TIP3   OH231761   1.870   1.484   8.391
 3401TIP3    H131762   1.896   1.514   8.304
 3401TIP3    H231763   1.949   1.491   8.444
 3402TIP3   OH231764   6.803   4.331   7.320
 3402TIP3    H131765   6.811   4.426   7.314
 3402TIP3    H231766   6.824   4.299   7.233
 3403TIP3   OH231767   3.066   1.928   0.892
 3403TIP3    H131768   3.102   1.847   0.857
 3403TIP3    H231769   3.052   1.910   0.985
 3404TIP3   OH231770   6.477   3.544   1.027
 3404TIP3    H131771   6.478   3.449   1.039
 3404TIP3    H231772   6.387   3.565   1.003
 3405TIP3   OH231773   1.586   5.981   0.395
 3405TIP3    H131774   1.642   5.968   0.318
 3405TIP3    H231775   1.645   6.012   0.463
 3406TIP3   OH231776   5.703   2.330   1.984
 3406TIP3    H131777   5.725   2.297   2.071
 3406TIP3    H231778   5.773   2.391   1.963
 3407TIP3   OH231779   3.912   0.549   7.181
 3407TIP3    H131780   3.830   0.513   7.216
 3407TIP3    H231781   3.975   0.478   7.190
 3408TIP3   OH231782   3.896   2.019   7.588
 3408TIP3    H131783   3.990   2.002   7.577
 3408TIP3    H231784   3.869   1.957   7.656
 3409TIP3   OH231785   5.030   2.874   1.682
 3409TIP3    H131786   5.083   2.936   1.732
 3409TIP3    H231787   4.959   2.850   1.741
 3410TIP3   OH231788   3.024   6.248   7.710
 3410TIP3    H131789   2.973   6.175   7.674
 3410TIP3    H231790   3.081   6.275   7.638
 3411TIP3   OH231791   0.620   3.419   1.615
 3411TIP3    H131792   0.604   3.468   1.535
 3411TIP3    H231793   0.715   3.411   1.619
 3412TIP3   OH231794   4.280   5.676   7.974
 3412TIP3    H131795   4.320   5.600   8.016
 3412TIP3    H231796   4.188   5.670   7.996
 3413TIP3   OH231797   2.896   2.139   6.805
 3413TIP3    H131798   2.941   2.223   6.795
 3413TIP3    H231799   2.877   2.111   6.716
 3414TIP3   OH231800   1.430   2.851   1.307
 3414TIP3    H131801   1.437   2.826   1.215
 3414TIP3    H231802   1.476   2.781   1.354
 3415TIP3   OH231803   0.426   2.728   7.956
 3415TIP3    H131804   0.387   2.721   8.043
 3415TIP3    H231805   0.353   2.755   7.900
 3416TIP3   OH231806   3.984   1.843   0.395
 3416TIP3    H131807   3.917   1.778   0.376
 3416TIP3    H231808   3.940   1.928   0.386
 3417TIP3   OH231809   1.388   2.672   7.704
 3417TIP3    H131810   1.439   2.750   7.723
 3417TIP3    H231811   1.337   2.694   7.626
 3418TIP3   OH231812   5.620   4.020   2.447
 3418TIP3    H131813   5.575   3.962   2.385
 3418TIP3    H231814   5.598   3.984   2.533
 3419TIP3   OH231815   0.667   6.163   0.333
 3419TIP3    H131816   0.642   6.204   0.416
 3419TIP3    H231817   0.607   6.090   0.322
 3420TIP3   OH231818   0.164   5.092   1.701
 3420TIP3    H131819   0.140   5.004   1.728
 3420TIP3    H231820   0.151   5.146   1.779
 3421TIP3   OH231821   6.547   5.355   2.172
 3421TIP3    H131822   6.633   5.313   2.171
 3421TIP3    H231823   6.535   5.384   2.263
 3422TIP3   OH231824   3.827   5.795   8.578
 3422TIP3    H131825   3.921   5.806   8.592
 3422TIP3    H231826   3.786   5.853   0.018
 3423TIP3   OH231827   5.932   3.635   7.807
 3423TIP3    H131828   5.883   3.559   7.774
 3423TIP3    H231829   5.868   3.683   7.859
 3424TIP3   OH231830   3.648   3.519   2.092
 3424TIP3    H131831   3.715   3.587   2.087
 3424TIP3    H231832   3.684   3.454   2.153
 3425TIP3   OH231833   3.840   3.548   6.544
 3425TIP3    H131834   3.922   3.592   6.522
 3425TIP3    H231835   3.868   3.461   6.575
 3426TIP3   OH231836   2.133   0.960   1.039
 3426TIP3    H131837   2.143   1.044   0.994
 3426TIP3    H231838   2.215   0.949   1.087
 3427TIP3   OH231839   3.606   5.016   1.453
 3427TIP3    H131840   3.554   5.011   1.373
 3427TIP3    H231841   3.564   4.954   1.513
 3428TIP3   OH231842   4.490   6.197   1.086
 3428TIP3    H131843   4.411   6.195   1.032
 3428TIP3    H231844   4.561   6.208   1.024
 3429TIP3   OH231845   4.980   1.136   1.474
 3429TIP3    H131846   4.896   1.162   1.511
 3429TIP3    H231847   4.960   1.109   1.385
 3430TIP3   OH231848   0.765   4.958   0.523
 3430TIP3    H131849   0.845   4.918   0.556
 3430TIP3    H231850   0.752   5.035   0.577
 3431TIP3   OH231851   5.677   0.428   0.063
 3431TIP3    H131852   5.607   0.401   0.122
 3431TIP3    H231853   5.640   0.415   8.599
 3432TIP3   OH231854   2.473   0.739   6.472
 3432TIP3    H131855   2.458   0.688   6.392
 3432TIP3    H231856   2.447   0.828   6.448
 3433TIP3   OH231857   5.050   4.666   1.641
 3433TIP3    H131858   4.982   4.618   1.594
 3433TIP3    H231859   5.006   4.701   1.718
 3434TIP3   OH231860   4.281   6.384   1.312
 3434TIP3    H131861   4.311   6.293   1.316
 3434TIP3    H231862   4.207   6.387   1.373
 3435TIP3   OH231863   2.490   6.222   6.352
 3435TIP3    H131864   2.444   6.306   6.346
 3435TIP3    H231865   2.437   6.161   6.302
 3436TIP3   OH231866   3.329   0.856   2.171
 3436TIP3    H131867   3.379   0.923   2.217
 3436TIP3    H231868   3.334   0.779   2.228
 3437TIP3   OH231869   0.302   3.368   8.301
 3437TIP3    H131870   0.296   3.326   8.387
 3437TIP3    H231871   0.366   3.316   8.253
 3438TIP3   OH231872   4.872   2.625   0.989
 3438TIP3    H131873   4.794   2.636   1.043
 3438TIP3    H231874   4.899   2.715   0.968
 3439TIP3   OH231875   1.624   3.722   6.343
 3439TIP3    H131876   1.645   3.807   6.306
 3439TIP3    H231877   1.671   3.659   6.288
 3440TIP3   OH231878   0.735   1.791   2.063
 3440TIP3    H131879   0.647   1.822   2.045
 3440TIP3    H231880   0.785   1.870   2.085
 3441TIP3   OH231881   4.785   2.252   8.087
 3441TIP3    H131882   4.864   2.284   8.043
 3441TIP3    H231883   4.815   2.179   8.140
 3442TIP3   OH231884   0.778   6.259   8.462
 3442TIP3    H131885   0.857   6.282   8.413
 3442TIP3    H231886   0.803   6.269   8.554
 3443TIP3   OH231887   3.251   4.674   0.309
 3443TIP3    H131888   3.166   4.712   0.290
 3443TIP3    H231889   3.313   4.728   0.259
 3444TIP3   OH231890   1.750   0.627   0.382
 3444TIP3    H131891   1.732   0.618   0.289
 3444TIP3    H231892   1.689   0.694   0.413
 3445TIP3   OH231893   5.348   1.881   8.121
 3445TIP3    H131894   5.413   1.854   8.056
 3445TIP3    H231895   5.388   1.957   8.163
 3446TIP3   OH231896   2.874   5.054   7.894
 3446TIP3    H131897   2.889   5.012   7.810
 3446TIP3    H231898   2.863   4.982   7.956
 3447TIP3   OH231899   4.639   3.665   1.308
 3447TIP3    H131900   4.654   3.578   1.345
 3447TIP3    H231901   4.573   3.704   1.365
 3448TIP3   OH231902   3.386   5.835   0.113
 3448TIP3    H131903   3.368   5.861   0.203
 3448TIP3    H231904   3.472   5.872   0.093
 3449TIP3   OH231905   2.152   0.240   6.707
 3449TIP3    H131906   2.221   0.303   6.730
 3449TIP3    H231907   2.128   0.263   6.618
 3450TIP3   OH231908   1.393   3.682   1.553
 3450TIP3    H131909   1.381   3.693   1.459
 3450TIP3    H231910   1.320   3.626   1.580
 3451TIP3   OH231911   3.590   5.934   8.370
 3451TIP3    H131912   3.504   5.938   8.328
 3451TIP3    H231913   3.646   5.890   8.306
 3452TIP3   OH231914   1.682   5.488   0.742
 3452TIP3    H131915   1.602   5.466   0.790
 3452TIP3    H231916   1.662   5.571   0.699
 3453TIP3   OH231917   3.759   5.532   6.655
 3453TIP3    H131918   3.825   5.472   6.620
 3453TIP3    H231919   3.808   5.595   6.706
 3454TIP3   OH231920   5.183   6.791   6.583
 3454TIP3    H131921   5.147   6.775   6.495
 3454TIP3    H231922   5.135   6.731   6.640
 3455TIP3   OH231923   1.538   5.425   1.050
 3455TIP3    H131924   1.541   5.520   1.044
 3455TIP3    H231925   1.445   5.403   1.039
 3456TIP3   OH231926   2.250   2.079   7.782
 3456TIP3    H131927   2.267   2.165   7.820
 3456TIP3    H231928   2.285   2.016   7.845
 3457TIP3   OH231929   5.415   5.306   1.735
 3457TIP3    H131930   5.437   5.336   1.647
 3457TIP3    H231931   5.499   5.278   1.772
 3458TIP3   OH231932   4.092   1.516   0.608
 3458TIP3    H131933   4.173   1.563   0.628
 3458TIP3    H231934   4.032   1.583   0.577
 3459TIP3   OH231935   3.486   5.351   1.785
 3459TIP3    H131936   3.456   5.260   1.791
 3459TIP3    H231937   3.409   5.403   1.809
 3460TIP3   OH231938   4.070   6.879   7.593
 3460TIP3    H131939   4.066   6.821   7.517
 3460TIP3    H231940   3.982   6.876   7.630
 3461TIP3   OH231941   5.040   4.536   7.970
 3461TIP3    H131942   5.121   4.516   8.018
 3461TIP3    H231943   4.985   4.459   7.983
 3462TIP3   OH231944   3.208   3.257   8.394
 3462TIP3    H131945   3.161   3.239   8.476
 3462TIP3    H231946   3.142   3.294   8.336
 3463TIP3   OH231947   2.866   3.831   6.801
 3463TIP3    H131948   2.816   3.751   6.784
 3463TIP3    H231949   2.818   3.899   6.754
 3464TIP3   OH231950   3.903   6.284   6.796
 3464TIP3    H131951   3.916   6.361   6.739
 3464TIP3    H231952   3.955   6.215   6.755
 3465TIP3   OH231953   5.208   6.059   7.119
 3465TIP3    H131954   5.242   6.007   7.192
 3465TIP3    H231955   5.268   6.040   7.047
 3466TIP3   OH231956   4.733   1.595   1.472
 3466TIP3    H131957   4.713   1.599   1.565
 3466TIP3    H231958   4.648   1.607   1.429
 3467TIP3   OH231959   0.654   4.938   8.592
 3467TIP3    H131960   0.601   5.000   0.018
 3467TIP3    H231961   0.591   4.880   8.550
 3468TIP3   OH231962   3.643   5.992   0.021
 3468TIP3    H131963   3.639   5.961   8.554
 3468TIP3    H231964   3.626   6.086   0.015
 3469TIP3   OH231965   6.364   2.369   0.121
 3469TIP3    H131966   6.439   2.428   0.116
 3469TIP3    H231967   6.313   2.401   0.195
 3470TIP3   OH231968   6.359   6.156   0.635
 3470TIP3    H131969   6.431   6.130   0.692
 3470TIP3    H231970   6.305   6.077   0.627
 3471TIP3   OH231971   4.747   5.318   7.419
 3471TIP3    H131972   4.673   5.376   7.436
 3471TIP3    H231973   4.824   5.371   7.440
 3472TIP3   OH231974   0.719   0.758   0.301
 3472TIP3    H131975   0.801   0.806   0.297
 3472TIP3    H231976   0.662   0.803   0.239
 3473TIP3   OH231977   0.440   2.296   0.890
 3473TIP3    H131978   0.491   2.276   0.811
 3473TIP3    H231979   0.350   2.273   0.867
 3474TIP3   OH231980   2.015   6.642   7.367
 3474TIP3    H131981   2.057   6.558   7.384
 3474TIP3    H231982   1.959   6.627   7.290
 3475TIP3   OH231983   3.116   0.465   1.199
 3475TIP3    H131984   3.079   0.550   1.173
 3475TIP3    H231985   3.039   0.408   1.210
 3476TIP3   OH231986   3.571   6.602   0.070
 3476TIP3    H131987   3.496   6.558   0.110
 3476TIP3    H231988   3.565   6.692   0.102
 3477TIP3   OH231989   0.056   2.793   0.557
 3477TIP3    H131990   6.841   2.785   0.542
 3477TIP3    H231991   0.067   2.877   0.601
 3478TIP3   OH231992   4.382   6.096   8.046
 3478TIP3    H131993   4.399   6.178   8.091
 3478TIP3    H231994   4.440   6.033   8.089
 3479TIP3   OH231995   4.768   6.725   8.274
 3479TIP3    H131996   4.775   6.719   8.369
 3479TIP3    H231997   4.674   6.722   8.257
 3480TIP3   OH231998   1.149   4.106   1.521
 3480TIP3    H131999   1.148   4.094   1.426
 3480TIP3    H232000   1.207   4.180   1.535
 3481TIP3   OH232001   6.291   1.291   8.107
 3481TIP3    H132002   6.248   1.376   8.100
 3481TIP3    H232003   6.230   1.229   8.068
 3482TIP3   OH232004   5.448   0.261   7.360
 3482TIP3    H132005   5.367   0.210   7.350
 3482TIP3    H232006   5.508   0.202   7.405
 3483TIP3   OH232007   0.434   5.715   7.194
 3483TIP3    H132008   0.505   5.666   7.153
 3483TIP3    H232009   0.373   5.649   7.225
 3484TIP3   OH232010   2.474   0.358   0.133
 3484TIP3    H132011   2.411   0.291   0.107
 3484TIP3    H232012   2.509   0.329   0.217
 3485TIP3   OH232013   6.780   0.774   7.548
 3485TIP3    H132014   6.828   0.761   7.630
 3485TIP3    H232015   6.703   0.718   7.558
 3486TIP3   OH232016   0.444   3.144   1.462
 3486TIP3    H132017   0.373   3.080   1.457
 3486TIP3    H232018   0.475   3.152   1.371
 3487TIP3   OH232019   6.503   5.811   0.451
 3487TIP3    H132020   6.500   5.716   0.437
 3487TIP3    H232021   6.441   5.827   0.522
 3488TIP3   OH232022   4.353   3.269   7.388
 3488TIP3    H132023   4.375   3.254   7.480
 3488TIP3    H232024   4.265   3.306   7.390
 3489TIP3   OH232025   1.208   0.634   2.014
 3489TIP3    H132026   1.291   0.644   2.061
 3489TIP3    H232027   1.147   0.605   2.081
 3490TIP3   OH232028   0.563   4.079   0.499
 3490TIP3    H132029   0.508   4.127   0.561
 3490TIP3    H232030   0.641   4.133   0.491
 3491TIP3   OH232031   1.653   2.892   0.893
 3491TIP3    H132032   1.617   2.964   0.842
 3491TIP3    H232033   1.705   2.841   0.831
 3492TIP3   OH232034   5.333   1.060   0.080
 3492TIP3    H132035   5.316   1.080   8.612
 3492TIP3    H232036   5.326   1.144   0.125
 3493TIP3   OH232037   3.069   5.259   2.164
 3493TIP3    H132038   3.094   5.351   2.159
 3493TIP3    H232039   2.974   5.259   2.161
 3494TIP3   OH232040   1.284   5.536   0.527
 3494TIP3    H132041   1.252   5.621   0.497
 3494TIP3    H232042   1.215   5.474   0.502
 3495TIP3   OH232043   2.333   1.344   8.133
 3495TIP3    H132044   2.249   1.304   8.158
 3495TIP3    H232045   2.399   1.287   8.172
 3496TIP3   OH232046   0.490   6.840   5.883
 3496TIP3    H132047   0.546   6.834   5.960
 3496TIP3    H232048   0.547   6.872   5.813
 3497TIP3   OH232049   5.078   5.841   0.275
 3497TIP3    H132050   5.077   5.816   0.183
 3497TIP3    H232051   5.050   5.933   0.275
 3498TIP3   OH232052   2.242   6.854   1.590
 3498TIP3    H132053   2.230   6.871   1.684
 3498TIP3    H232054   2.318   6.796   1.586
 3499TIP3   OH232055   4.351   2.959   8.547
 3499TIP3    H132056   4.337   3.025   8.615
 3499TIP3    H232057   4.440   2.927   8.563
 3500TIP3   OH232058   1.972   2.631   8.496
 3500TIP3    H132059   1.897   2.593   8.542
 3500TIP3    H232060   2.000   2.563   8.435
 3501TIP3   OH232061   0.028   2.155   8.346
 3501TIP3    H132062   0.066   2.206   8.275
 3501TIP3    H232063   6.837   2.210   8.381
 3502TIP3   OH232064   5.471   4.044   6.482
 3502TIP3    H132065   5.537   4.052   6.413
 3502TIP3    H232066   5.391   4.081   6.443
 3503TIP3   OH232067   3.806   1.316   6.873
 3503TIP3    H132068   3.770   1.281   6.791
 3503TIP3    H232069   3.890   1.354   6.847
 3504TIP3   OH232070   4.409   4.756   7.002
 3504TIP3    H132071   4.472   4.739   6.931
 3504TIP3    H232072   4.461   4.748   7.082
 3505TIP3   OH232073   0.348   6.317   8.178
 3505TIP3    H132074   0.329   6.380   8.248
 3505TIP3    H232075   0.262   6.288   8.148
 3506TIP3   OH232076   3.953   5.737   6.810
 3506TIP3    H132077   3.952   5.786   6.892
 3506TIP3    H232078   4.040   5.753   6.773
 3507TIP3   OH232079   6.377   4.233   1.845
 3507TIP3    H132080   6.436   4.281   1.787
 3507TIP3    H232081   6.401   4.263   1.933
 3508TIP3   OH232082   5.044   4.176   0.547
 3508TIP3    H132083   5.024   4.093   0.504
 3508TIP3    H232084   4.958   4.213   0.569
 3509TIP3   OH232085   4.586   2.957   7.510
 3509TIP3    H132086   4.621   2.869   7.504
 3509TIP3    H232087   4.611   3.000   7.428
 3510TIP3   OH232088   3.940   2.909   8.204
 3510TIP3    H132089   3.970   2.863   8.126
 3510TIP3    H232090   3.998   2.985   8.211
 3511TIP3   OH232091   4.793   0.485   1.507
 3511TIP3    H132092   4.743   0.533   1.574
 3511TIP3    H232093   4.737   0.411   1.484
 3512TIP3   OH232094   0.733   2.513   1.769
 3512TIP3    H132095   0.668   2.508   1.838
 3512TIP3    H232096   0.777   2.597   1.783
 3513TIP3   OH232097   1.000   2.409   7.145
 3513TIP3    H132098   0.934   2.397   7.213
 3513TIP3    H232099   0.986   2.498   7.113
 3514TIP3   OH232100   2.254   1.881   0.938
 3514TIP3    H132101   2.180   1.930   0.901
 3514TIP3    H232102   2.290   1.940   1.005
 3515TIP3   OH232103   5.732   6.483   6.674
 3515TIP3    H132104   5.653   6.429   6.674
 3515TIP3    H232105   5.752   6.496   6.581
 3516TIP3   OH232106   1.006   0.938   6.475
 3516TIP3    H132107   1.062   0.871   6.435
 3516TIP3    H232108   0.925   0.891   6.498
 3517TIP3   OH232109   5.622   1.960   6.656
 3517TIP3    H132110   5.614   1.918   6.571
 3517TIP3    H232111   5.717   1.973   6.668
 3518TIP3   OH232112   2.213   6.701   1.100
 3518TIP3    H132113   2.238   6.729   1.189
 3518TIP3    H232114   2.133   6.749   1.082
 3519TIP3   OH232115   1.085   0.494   7.776
 3519TIP3    H132116   1.057   0.581   7.747
 3519TIP3    H232117   1.177   0.505   7.798
 3520TIP3   OH232118   6.140   6.157   8.079
 3520TIP3    H132119   6.192   6.087   8.041
 3520TIP3    H232120   6.125   6.130   8.169
 3521TIP3   OH232121   2.525   2.795   1.389
 3521TIP3    H132122   2.581   2.742   1.446
 3521TIP3    H232123   2.444   2.744   1.381
 3522TIP3   OH232124   6.433   1.570   2.378
 3522TIP3    H132125   6.461   1.555   2.469
 3522TIP3    H232126   6.439   1.664   2.366
 3523TIP3   OH232127   5.797   2.547   0.732
 3523TIP3    H132128   5.814   2.618   0.669
 3523TIP3    H232129   5.735   2.490   0.687
 3524TIP3   OH232130   5.099   2.966   0.268
 3524TIP3    H132131   5.168   3.026   0.296
 3524TIP3    H232132   5.033   2.970   0.337
 3525TIP3   OH232133   3.257   5.298   6.997
 3525TIP3    H132134   3.288   5.383   6.967
 3525TIP3    H232135   3.274   5.238   6.924
 3526TIP3   OH232136   5.374   1.616   1.199
 3526TIP3    H132137   5.428   1.556   1.147
 3526TIP3    H232138   5.302   1.562   1.231
 3527TIP3   OH232139   3.351   2.974   7.302
 3527TIP3    H132140   3.293   2.904   7.332
 3527TIP3    H232141   3.438   2.933   7.299
 3528TIP3   OH232142   1.698   0.660   1.122
 3528TIP3    H132143   1.755   0.679   1.047
 3528TIP3    H232144   1.751   0.681   1.199
 3529TIP3   OH232145   4.819   4.439   7.673
 3529TIP3    H132146   4.898   4.385   7.678
 3529TIP3    H232147   4.851   4.528   7.689
 3530TIP3   OH232148   3.648   5.256   7.374
 3530TIP3    H132149   3.617   5.288   7.290
 3530TIP3    H232150   3.727   5.307   7.392
 3531TIP3   OH232151   0.570   3.466   6.924
 3531TIP3    H132152   0.482   3.436   6.901
 3531TIP3    H232153   0.609   3.392   6.971
 3532TIP3   OH232154   2.434   0.921   0.444
 3532TIP3    H132155   2.450   1.007   0.404
 3532TIP3    H232156   2.514   0.872   0.429
 3533TIP3   OH232157   4.434   3.858   0.007
 3533TIP3    H132158   4.498   3.822   8.569
 3533TIP3    H232159   4.485   3.920   0.060
 3534TIP3   OH232160   6.046   2.089   2.429
 3534TIP3    H132161   6.007   2.019   2.481
 3534TIP3    H232162   5.991   2.165   2.447
 3535TIP3   OH232163   3.423   1.889   7.926
 3535TIP3    H132164   3.376   1.973   7.934
 3535TIP3    H232165   3.375   1.830   7.984
 3536TIP3   OH232166   4.177   0.632   7.431
 3536TIP3    H132167   4.218   0.693   7.493
 3536TIP3    H232168   4.097   0.603   7.475
 3537TIP3   OH232169   5.148   6.414   7.897
 3537TIP3    H132170   5.229   6.368   7.873
 3537TIP3    H232171   5.086   6.344   7.917
 3538TIP3   OH232172   5.974   6.716   6.937
 3538TIP3    H132173   6.015   6.680   7.016
 3538TIP3    H232174   6.002   6.807   6.934
 3539TIP3   OH232175   2.556   1.839   0.905
 3539TIP3    H132176   2.566   1.934   0.911
 3539TIP3    H232177   2.623   1.804   0.964
 3540TIP3   OH232178   6.622   3.130   7.752
 3540TIP3    H132179   6.609   3.203   7.813
 3540TIP3    H232180   6.592   3.053   7.800
 3541TIP3   OH232181   4.870   6.361   8.379
 3541TIP3    H132182   4.941   6.423   8.360
 3541TIP3    H232183   4.864   6.361   8.475
 3542TIP3   OH232184   4.297   4.524   0.299
 3542TIP3    H132185   4.220   4.486   0.257
 3542TIP3    H232186   4.298   4.487   0.387
 3543TIP3   OH232187   5.391   4.756   7.363
 3543TIP3    H132188   5.381   4.699   7.287
 3543TIP3    H232189   5.305   4.796   7.374
 3544TIP3   OH232190   5.241   4.391   1.033
 3544TIP3    H132191   5.266   4.431   1.117
 3544TIP3    H232192   5.195   4.311   1.058
 3545TIP3   OH232193   0.736   4.255   8.308
 3545TIP3    H132194   0.825   4.272   8.280
 3545TIP3    H232195   0.682   4.269   8.230
 3546TIP3   OH232196   1.920   1.988   1.073
 3546TIP3    H132197   1.954   1.992   0.984
 3546TIP3    H232198   1.867   1.909   1.075
 3547TIP3   OH232199   0.613   0.337   6.274
 3547TIP3    H132200   0.654   0.366   6.355
 3547TIP3    H232201   0.549   0.271   6.302
 3548TIP3   OH232202   0.745   0.672   7.840
 3548TIP3    H132203   0.668   0.707   7.886
 3548TIP3    H232204   0.795   0.749   7.813
 3549TIP3   OH232205   3.366   4.427   0.230
 3549TIP3    H132206   3.305   4.486   0.274
 3549TIP3    H232207   3.446   4.431   0.283
 3550TIP3   OH232208   3.095   0.133   1.386
 3550TIP3    H132209   3.157   0.136   1.459
 3550TIP3    H232210   3.032   0.066   1.411
 3551TIP3   OH232211   1.416   0.388   2.432
 3551TIP3    H132212   1.417   0.363   2.340
 3551TIP3    H232213   1.414   0.304   2.479
 3552TIP3   OH232214   5.185   0.409   2.696
 3552TIP3    H132215   5.141   0.481   2.743
 3552TIP3    H232216   5.154   0.417   2.606
 3553TIP3   OH232217   3.705   2.319   1.083
 3553TIP3    H132218   3.686   2.402   1.125
 3553TIP3    H232219   3.624   2.268   1.094
 3554TIP3   OH232220   0.985   3.153   7.573
 3554TIP3    H132221   0.897   3.119   7.586
 3554TIP3    H232222   1.019   3.168   7.662
 3555TIP3   OH232223   4.565   1.095   6.842
 3555TIP3    H132224   4.587   1.061   6.755
 3555TIP3    H232225   4.582   1.189   6.836
 3556TIP3   OH232226   4.058   1.229   2.171
 3556TIP3    H132227   4.101   1.257   2.091
 3556TIP3    H232228   4.084   1.293   2.236
 3557TIP3   OH232229   0.299   3.477   0.703
 3557TIP3    H132230   0.235   3.492   0.633
 3557TIP3    H232231   0.258   3.413   0.760
 3558TIP3   OH232232   3.514   1.437   8.410
 3558TIP3    H132233   3.608   1.446   8.422
 3558TIP3    H232234   3.496   1.345   8.428
 3559TIP3   OH232235   2.838   5.671   2.088
 3559TIP3    H132236   2.745   5.689   2.099
 3559TIP3    H232237   2.844   5.623   2.005
 3560TIP3   OH232238   0.228   1.482   1.159
 3560TIP3    H132239   0.134   1.470   1.142
 3560TIP3    H232240   0.258   1.395   1.188
 3561TIP3   OH232241   5.605   4.670   8.524
 3561TIP3    H132242   5.630   4.739   8.585
 3561TIP3    H232243   5.686   4.624   8.505
 3562TIP3   OH232244   2.216   1.721   8.184
 3562TIP3    H132245   2.172   1.745   8.265
 3562TIP3    H232246   2.308   1.713   8.207
 3563TIP3   OH232247   2.751   4.717   8.226
 3563TIP3    H132248   2.782   4.712   8.136
 3563TIP3    H232249   2.747   4.811   8.245
 3564TIP3   OH232250   1.126   0.931   7.277
 3564TIP3    H132251   1.156   0.965   7.193
 3564TIP3    H232252   1.203   0.886   7.313
 3565TIP3   OH232253   2.829   6.598   7.767
 3565TIP3    H132254   2.864   6.533   7.828
 3565TIP3    H232255   2.791   6.546   7.696
 3566TIP3   OH232256   5.111   3.417   2.207
 3566TIP3    H132257   5.072   3.498   2.174
 3566TIP3    H232258   5.075   3.407   2.295
 3567TIP3   OH232259   3.086   4.017   7.964
 3567TIP3    H132260   3.107   3.942   8.020
 3567TIP3    H232261   2.994   4.034   7.981
 3568TIP3   OH232262   0.954   3.300   6.307
 3568TIP3    H132263   1.020   3.276   6.242
 3568TIP3    H232264   0.893   3.356   6.258
 3569TIP3   OH232265   2.342   4.558   1.254
 3569TIP3    H132266   2.371   4.497   1.322
 3569TIP3    H232267   2.247   4.551   1.254
 3570TIP3   OH232268   0.632   2.530   8.003
 3570TIP3    H132269   0.575   2.590   7.955
 3570TIP3    H232270   0.590   2.518   8.088
 3571TIP3   OH232271   6.312   5.411   2.339
 3571TIP3    H132272   6.388   5.422   2.396
 3571TIP3    H232273   6.304   5.316   2.327
 3572TIP3   OH232274   4.552   0.107   7.659
 3572TIP3    H132275   4.537   0.164   7.584
 3572TIP3    H232276   4.570   0.021   7.621
 3573TIP3   OH232277   0.804   0.505   1.783
 3573TIP3    H132278   0.792   0.410   1.787
 3573TIP3    H232279   0.783   0.535   1.872
 3574TIP3   OH232280   3.964   1.954   7.882
 3574TIP3    H132281   3.924   1.886   7.937
 3574TIP3    H232282   4.044   1.914   7.849
 3575TIP3   OH232283   3.329   5.182   1.504
 3575TIP3    H132284   3.374   5.120   1.448
 3575TIP3    H232285   3.271   5.128   1.558
 3576TIP3   OH232286   4.056   0.174   6.811
 3576TIP3    H132287   4.034   0.235   6.882
 3576TIP3    H232288   4.131   0.125   6.844
 3577TIP3   OH232289   4.809   4.908   8.601
 3577TIP3    H132290   4.831   4.969   0.047
 3577TIP3    H232291   4.893   4.889   8.558
 3578TIP3   OH232292   0.567   0.005   0.502
 3578TIP3    H132293   0.625   6.841   0.439
 3578TIP3    H232294   0.619   0.013   0.581
 3579TIP3   OH232295   5.059   5.411   1.228
 3579TIP3    H132296   5.006   5.344   1.184
 3579TIP3    H232297   4.996   5.459   1.281
 3580TIP3   OH232298   4.503   0.980   7.570
 3580TIP3    H132299   4.530   1.043   7.503
 3580TIP3    H232300   4.581   0.924   7.582
 3581TIP3   OH232301   2.675   5.173   0.823
 3581TIP3    H132302   2.666   5.100   0.884
 3581TIP3    H232303   2.644   5.138   0.739
 3582TIP3   OH232304   4.339   0.306   0.540
 3582TIP3    H132305   4.406   0.308   0.608
 3582TIP3    H232306   4.312   0.214   0.535
 3583TIP3   OH232307   3.358   6.008   7.587
 3583TIP3    H132308   3.354   6.078   7.652
 3583TIP3    H232309   3.416   5.942   7.625
 3584TIP3   OH232310   2.435   4.780   1.881
 3584TIP3    H132311   2.526   4.794   1.909
 3584TIP3    H232312   2.432   4.687   1.857
 3585TIP3   OH232313   2.840   5.668   7.499
 3585TIP3    H132314   2.863   5.743   7.445
 3585TIP3    H232315   2.764   5.628   7.456
 3586TIP3   OH232316   0.133   3.904   6.645
 3586TIP3    H132317   0.108   3.859   6.725
 3586TIP3    H232318   0.072   3.871   6.579
 3587TIP3   OH232319   3.262   1.868   7.681
 3587TIP3    H132320   3.167   1.883   7.673
 3587TIP3    H232321   3.281   1.888   7.773
 3588TIP3   OH232322   3.339   1.338   6.376
 3588TIP3    H132323   3.393   1.275   6.328
 3588TIP3    H232324   3.393   1.416   6.382
 3589TIP3   OH232325   1.652   2.044   0.221
 3589TIP3    H132326   1.680   1.986   0.291
 3589TIP3    H232327   1.603   2.113   0.265
 3590TIP3   OH232328   6.415   1.304   2.316
 3590TIP3    H132329   6.428   1.398   2.329
 3590TIP3    H232330   6.319   1.293   2.315
 3591TIP3   OH232331   2.882   1.463   8.273
 3591TIP3    H132332   2.950   1.516   8.315
 3591TIP3    H232333   2.860   1.396   8.338
 3592TIP3   OH232334   3.947   1.452   6.302
 3592TIP3    H132335   4.033   1.436   6.264
 3592TIP3    H232336   3.963   1.456   6.397
 3593TIP3   OH232337   3.571   3.041   8.510
 3593TIP3    H132338   3.517   3.041   8.431
 3593TIP3    H232339   3.640   3.105   8.492
 3594TIP3   OH232340   4.053   4.125   6.896
 3594TIP3    H132341   4.058   4.149   6.803
 3594TIP3    H232342   4.119   4.179   6.938
 3595TIP3   OH232343   2.423   4.060   6.920
 3595TIP3    H132344   2.469   3.997   6.865
 3595TIP3    H232345   2.469   4.057   7.004
 3596TIP3   OH232346   3.218   0.548   8.177
 3596TIP3    H132347   3.240   0.471   8.124
 3596TIP3    H232348   3.135   0.578   8.141
 3597TIP3   OH232349   0.037   2.342   8.153
 3597TIP3    H132350   6.852   2.309   8.091
 3597TIP3    H232351   0.014   2.434   8.165
 3598TIP3   OH232352   5.478   2.757   1.703
 3598TIP3    H132353   5.426   2.727   1.778
 3598TIP3    H232354   5.501   2.847   1.724
 3599TIP3   OH232355   0.748   6.378   7.789
 3599TIP3    H132356   0.780   6.428   7.864
 3599TIP3    H232357   0.768   6.432   7.713
 3600TIP3   OH232358   3.023   0.222   6.674
 3600TIP3    H132359   3.112   0.253   6.660
 3600TIP3    H232360   3.027   0.129   6.653
 3601TIP3   OH232361   6.765   3.639   7.238
 3601TIP3    H132362   6.746   3.733   7.239
 3601TIP3    H232363   6.686   3.599   7.201
 3602TIP3   OH232364   5.358   4.144   7.821
 3602TIP3    H132365   5.338   4.051   7.822
 3602TIP3    H232366   5.317   4.178   7.901
 3603TIP3   OH232367   3.829   0.436   6.473
 3603TIP3    H132368   3.822   0.353   6.425
 3603TIP3    H232369   3.739   0.456   6.498
 3604TIP3   OH232370   5.076   0.390   7.055
 3604TIP3    H132371   5.058   0.395   6.961
 3604TIP3    H232372   5.006   0.439   7.096
 3605TIP3   OH232373   6.448   3.996   6.689
 3605TIP3    H132374   6.379   3.981   6.625
 3605TIP3    H232375   6.513   3.927   6.671
 3606TIP3   OH232376   2.081   6.525   7.703
 3606TIP3    H132377   2.119   6.602   7.661
 3606TIP3    H232378   2.002   6.507   7.652
 3607TIP3   OH232379   3.016   6.830   0.023
 3607TIP3    H132380   2.956   0.022   0.046
 3607TIP3    H232381   2.962   6.769   8.597
 3608TIP3   OH232382   1.151   2.900   7.529
 3608TIP3    H132383   1.130   2.967   7.463
 3608TIP3    H232384   1.171   2.822   7.477
 3609TIP3   OH232385   6.498   1.737   2.584
 3609TIP3    H132386   6.423   1.758   2.640
 3609TIP3    H232387   6.488   1.795   2.508
 3610TIP3   OH232388   6.517   5.906   1.238
 3610TIP3    H132389   6.565   5.978   1.195
 3610TIP3    H232390   6.429   5.911   1.202
 3611TIP3   OH232391   4.965   4.674   7.739
 3611TIP3    H132392   4.988   4.629   7.821
 3611TIP3    H232393   4.870   4.681   7.741
 3612TIP3   OH232394   1.317   2.025   6.657
 3612TIP3    H132395   1.270   2.102   6.624
 3612TIP3    H232396   1.288   2.017   6.748
 3613TIP3   OH232397   1.124   2.747   8.142
 3613TIP3    H132398   1.060   2.702   8.195
 3613TIP3    H232399   1.121   2.703   8.057
 3614TIP3   OH232400   5.608   4.932   1.560
 3614TIP3    H132401   5.701   4.944   1.545
 3614TIP3    H232402   5.572   4.907   1.475
 3615TIP3   OH232403   2.016   3.187   1.653
 3615TIP3    H132404   2.081   3.197   1.584
 3615TIP3    H232405   1.970   3.271   1.656
 3616TIP3   OH232406   2.408   2.606   1.708
 3616TIP3    H132407   2.326   2.609   1.757
 3616TIP3    H232408   2.454   2.530   1.742
 3617TIP3   OH232409   3.358   0.311   8.531
 3617TIP3    H132410   3.398   0.297   8.617
 3617TIP3    H232411   3.411   0.381   8.492
 3618TIP3   OH232412   2.009   6.812   0.185
 3618TIP3    H132413   1.978   0.019   0.214
 3618TIP3    H232414   1.950   6.788   0.114
 3619TIP3   OH232415   1.407   2.317   7.143
 3619TIP3    H132416   1.475   2.365   7.190
 3619TIP3    H232417   1.453   2.276   7.070
 3620TIP3   OH232418   0.708   0.292   7.476
 3620TIP3    H132419   0.661   0.209   7.490
 3620TIP3    H232420   0.665   0.354   7.534
 3621TIP3   OH232421   6.059   1.289   7.481
 3621TIP3    H132422   6.141   1.324   7.515
 3621TIP3    H232423   6.085   1.239   7.403
 3622TIP3   OH232424   1.936   1.126   1.931
 3622TIP3    H132425   1.879   1.156   1.860
 3622TIP3    H232426   1.892   1.049   1.966
 3623TIP3   OH232427   6.282   6.233   0.945
 3623TIP3    H132428   6.353   6.296   0.933
 3623TIP3    H232429   6.258   6.207   0.856
 3624TIP3   OH232430   6.084   2.800   8.207
 3624TIP3    H132431   6.144   2.844   8.267
 3624TIP3    H232432   5.997   2.831   8.234
 3625TIP3   OH232433   0.845   3.543   6.812
 3625TIP3    H132434   0.799   3.539   6.728
 3625TIP3    H232435   0.887   3.458   6.820
 3626TIP3   OH232436   4.330   1.611   0.989
 3626TIP3    H132437   4.242   1.623   0.954
 3626TIP3    H232438   4.384   1.675   0.942
 3627TIP3   OH232439   6.838   3.967   1.880
 3627TIP3    H132440   6.812   4.050   1.919
 3627TIP3    H232441   6.777   3.903   1.918
 3628TIP3   OH232442   0.302   1.282   1.695
 3628TIP3    H132443   0.382   1.329   1.671
 3628TIP3    H232444   0.268   1.331   1.770
 3629TIP3   OH232445   3.570   2.533   7.263
 3629TIP3    H132446   3.655   2.491   7.274
 3629TIP3    H232447   3.581   2.619   7.304
 3630TIP3   OH232448   0.741   5.984   7.046
 3630TIP3    H132449   0.751   6.077   7.069
 3630TIP3    H232450   0.666   5.955   7.098
 3631TIP3   OH232451   6.394   4.832   1.231
 3631TIP3    H132452   6.433   4.882   1.160
 3631TIP3    H232453   6.455   4.843   1.304
 3632TIP3   OH232454   0.551   1.941   8.410
 3632TIP3    H132455   0.635   1.962   8.452
 3632TIP3    H232456   0.514   2.026   8.387
 3633TIP3   OH232457   3.136   2.556   1.232
 3633TIP3    H132458   3.227   2.544   1.205
 3633TIP3    H232459   3.118   2.648   1.215
 3634TIP3   OH232460   6.511   4.822   0.750
 3634TIP3    H132461   6.524   4.728   0.738
 3634TIP3    H232462   6.421   4.829   0.783
 3635TIP3   OH232463   1.763   1.195   0.138
 3635TIP3    H132464   1.853   1.175   0.111
 3635TIP3    H232465   1.724   1.239   0.062
 3636TIP3   OH232466   5.411   1.760   1.448
 3636TIP3    H132467   5.458   1.696   1.502
 3636TIP3    H232468   5.400   1.716   1.364
 3637TIP3   OH232469   1.824   3.840   0.438
 3637TIP3    H132470   1.800   3.885   0.357
 3637TIP3    H232471   1.751   3.859   0.497
 3638TIP3   OH232472   1.774   1.675   0.950
 3638TIP3    H132473   1.767   1.729   0.871
 3638TIP3    H232474   1.868   1.655   0.956
 3639TIP3   OH232475   0.973   2.777   8.542
 3639TIP3    H132476   0.934   2.776   0.005
 3639TIP3    H232477   0.953   2.865   8.507
 3640TIP3   OH232478   5.334   6.498   7.306
 3640TIP3    H132479   5.320   6.409   7.276
 3640TIP3    H232480   5.246   6.534   7.319
 3641TIP3   OH232481   2.623   3.912   0.566
 3641TIP3    H132482   2.630   3.990   0.511
 3641TIP3    H232483   2.530   3.909   0.592
 3642TIP3   OH232484   0.847   2.084   6.530
 3642TIP3    H132485   0.795   2.130   6.464
 3642TIP3    H232486   0.790   2.013   6.560
 3643TIP3   OH232487   1.356   5.454   6.787
 3643TIP3    H132488   1.293   5.516   6.750
 3643TIP3    H232489   1.390   5.406   6.712
 3644TIP3   OH232490   1.038   4.057   7.203
 3644TIP3    H132491   1.003   3.985   7.256
 3644TIP3    H232492   1.021   4.135   7.255
 3645TIP3   OH232493   0.610   1.993   1.843
 3645TIP3    H132494   0.605   1.986   1.938
 3645TIP3    H232495   0.659   2.073   1.827
 3646TIP3   OH232496   1.304   5.446   6.453
 3646TIP3    H132497   1.378   5.400   6.493
 3646TIP3    H232498   1.227   5.409   6.496
 3647TIP3   OH232499   3.682   1.189   6.663
 3647TIP3    H132500   3.678   1.095   6.641
 3647TIP3    H232501   3.690   1.232   6.578
 3648TIP3   OH232502   4.423   5.942   1.780
 3648TIP3    H132503   4.345   5.905   1.822
 3648TIP3    H232504   4.394   6.028   1.748
 3649TIP3   OH232505   2.652   3.055   8.344
 3649TIP3    H132506   2.701   2.988   8.298
 3649TIP3    H232507   2.620   3.113   8.274
 3650TIP3   OH232508   0.353   5.600   1.581
 3650TIP3    H132509   0.371   5.559   1.665
 3650TIP3    H232510   0.405   5.680   1.581
 3651TIP3   OH232511   0.011   0.558   8.340
 3651TIP3    H132512   6.844   0.547   8.258
 3651TIP3    H232513   0.072   0.484   8.344
 3652TIP3   OH232514   3.583   4.015   5.971
 3652TIP3    H132515   3.534   4.016   6.053
 3652TIP3    H232516   3.663   4.065   5.991
 3653TIP3   OH232517   5.401   5.856   8.619
 3653TIP3    H132518   5.420   5.866   8.526
 3653TIP3    H232519   5.357   5.771   0.002
 3654TIP3   OH232520   4.619   1.514   0.282
 3654TIP3    H132521   4.534   1.538   0.246
 3654TIP3    H232522   4.646   1.437   0.232
 3655TIP3   OH232523   5.971   1.139   8.341
 3655TIP3    H132524   6.064   1.157   8.358
 3655TIP3    H232525   5.960   1.047   8.366
 3656TIP3   OH232526   3.490   2.400   1.349
 3656TIP3    H132527   3.487   2.310   1.383
 3656TIP3    H232528   3.508   2.454   1.426
 3657TIP3   OH232529   2.049   4.956   7.351
 3657TIP3    H132530   2.109   4.925   7.283
 3657TIP3    H232531   1.962   4.949   7.313
 3658TIP3   OH232532   1.840   3.354   8.438
 3658TIP3    H132533   1.864   3.446   8.448
 3658TIP3    H232534   1.824   3.324   8.528
 3659TIP3   OH232535   4.720   3.309   2.540
 3659TIP3    H132536   4.794   3.350   2.497
 3659TIP3    H232537   4.654   3.378   2.547
 3660TIP3   OH232538   0.383   1.990   7.026
 3660TIP3    H132539   0.466   1.958   6.989
 3660TIP3    H232540   0.353   2.056   6.963
 3661TIP3   OH232541   2.242   1.766   7.592
 3661TIP3    H132542   2.306   1.834   7.572
 3661TIP3    H232543   2.238   1.764   7.688
 3662TIP3   OH232544   2.180   5.764   2.215
 3662TIP3    H132545   2.154   5.676   2.190
 3662TIP3    H232546   2.260   5.752   2.265
 3663TIP3   OH232547   4.629   1.255   6.561
 3663TIP3    H132548   4.720   1.226   6.557
 3663TIP3    H232549   4.632   1.337   6.609
 3664TIP3   OH232550   2.968   4.762   0.704
 3664TIP3    H132551   2.984   4.854   0.727
 3664TIP3    H232552   3.052   4.719   0.718
 3665TIP3   OH232553   3.113   3.980   8.327
 3665TIP3    H132554   3.162   4.012   8.403
 3665TIP3    H232555   3.029   4.025   8.332
 3666TIP3   OH232556   3.812   2.805   7.945
 3666TIP3    H132557   3.737   2.834   7.996
 3666TIP3    H232558   3.827   2.876   7.882
 3667TIP3   OH232559   5.931   6.625   7.957
 3667TIP3    H132560   6.000   6.670   8.005
 3667TIP3    H232561   5.892   6.565   8.021
 3668TIP3   OH232562   2.968   1.884   2.267
 3668TIP3    H132563   2.925   1.967   2.288
 3668TIP3    H232564   3.037   1.874   2.332
 3669TIP3   OH232565   4.493   1.519   8.253
 3669TIP3    H132566   4.549   1.461   8.202
 3669TIP3    H232567   4.438   1.460   8.305
 3670TIP3   OH232568   5.546   5.797   1.377
 3670TIP3    H132569   5.559   5.799   1.472
 3670TIP3    H232570   5.542   5.889   1.351
 3671TIP3   OH232571   4.195   5.976   6.843
 3671TIP3    H132572   4.160   5.982   6.753
 3671TIP3    H232573   4.216   6.066   6.866
 3672TIP3   OH232574   3.790   4.260   6.820
 3672TIP3    H132575   3.875   4.244   6.861
 3672TIP3    H232576   3.810   4.269   6.727
 3673TIP3   OH232577   0.951   5.667   7.933
 3673TIP3    H132578   1.002   5.692   8.010
 3673TIP3    H232579   0.862   5.697   7.952
 3674TIP3   OH232580   0.511   4.965   0.983
 3674TIP3    H132581   0.597   4.984   0.946
 3674TIP3    H232582   0.524   4.969   1.078
 3675TIP3   OH232583   4.863   5.567   6.637
 3675TIP3    H132584   4.870   5.472   6.624
 3675TIP3    H232585   4.874   5.603   6.549
 3676TIP3   OH232586   4.140   2.038   0.192
 3676TIP3    H132587   4.091   1.983   0.131
 3676TIP3    H232588   4.178   1.978   0.255
 3677TIP3   OH232589   1.032   4.256   8.170
 3677TIP3    H132590   1.038   4.164   8.147
 3677TIP3    H232591   0.991   4.297   8.093
 3678TIP3   OH232592   3.969   1.212   0.832
 3678TIP3    H132593   3.920   1.288   0.801
 3678TIP3    H232594   4.055   1.221   0.792
 3679TIP3   OH232595   2.315   0.789   0.169
 3679TIP3    H132596   2.310   0.695   0.152
 3679TIP3    H232597   2.398   0.801   0.215
 3680TIP3   OH232598   1.811   6.696   1.087
 3680TIP3    H132599   1.727   6.651   1.074
 3680TIP3    H232600   1.870   6.628   1.119
 3681TIP3   OH232601   3.426   0.333   6.465
 3681TIP3    H132602   3.464   0.258   6.421
 3681TIP3    H232603   3.502   0.385   6.494
 3682TIP3   OH232604   2.509   3.883   1.745
 3682TIP3    H132605   2.506   3.975   1.773
 3682TIP3    H232606   2.419   3.852   1.754
 3683TIP3   OH232607   0.292   1.793   7.206
 3683TIP3    H132608   0.311   1.853   7.133
 3683TIP3    H232609   0.369   1.738   7.212
 3684TIP3   OH232610   2.393   6.256   7.210
 3684TIP3    H132611   2.466   6.305   7.249
 3684TIP3    H232612   2.427   6.166   7.201
 3685TIP3   OH232613   6.191   6.345   0.697
 3685TIP3    H132614   6.268   6.296   0.667
 3685TIP3    H232615   6.221   6.435   0.704
 3686TIP3   OH232616   6.539   5.392   0.026
 3686TIP3    H132617   6.568   5.317   0.078
 3686TIP3    H232618   6.509   5.354   8.568
 3687TIP3   OH232619   4.255   6.124   0.906
 3687TIP3    H132620   4.197   6.140   0.831
 3687TIP3    H232621   4.196   6.110   0.980
 3688TIP3   OH232622   6.474   5.546   6.943
 3688TIP3    H132623   6.529   5.574   6.869
 3688TIP3    H232624   6.499   5.455   6.957
 3689TIP3   OH232625   2.230   0.154   0.030
 3689TIP3    H132626   2.165   0.093   8.620
 3689TIP3    H232627   2.279   0.182   8.576
 3690TIP3   OH232628   0.894   1.346   8.052
 3690TIP3    H132629   0.919   1.260   8.018
 3690TIP3    H232630   0.908   1.341   8.146
 3691TIP3   OH232631   1.740   1.662   8.571
 3691TIP3    H132632   1.731   1.600   8.498
 3691TIP3    H232633   1.807   1.623   0.003
 3692TIP3   OH232634   5.907   5.361   7.025
 3692TIP3    H132635   5.887   5.304   6.950
 3692TIP3    H232636   6.003   5.362   7.029
 3693TIP3   OH232637   4.015   0.588   6.318
 3693TIP3    H132638   3.948   0.542   6.368
 3693TIP3    H232639   4.097   0.548   6.346
 3694TIP3   OH232640   4.967   4.220   0.918
 3694TIP3    H132641   4.988   4.156   0.986
 3694TIP3    H232642   4.909   4.172   0.859
 3695TIP3   OH232643   0.691   5.644   0.469
 3695TIP3    H132644   0.621   5.685   0.520
 3695TIP3    H232645   0.666   5.552   0.464
 3696TIP3   OH232646   2.279   6.321   1.377
 3696TIP3    H132647   2.285   6.388   1.309
 3696TIP3    H232648   2.367   6.284   1.383
 3697TIP3   OH232649   6.531   0.496   6.814
 3697TIP3    H132650   6.469   0.424   6.805
 3697TIP3    H232651   6.520   0.525   6.905
 3698TIP3   OH232652   0.393   2.258   2.552
 3698TIP3    H132653   0.356   2.171   2.567
 3698TIP3    H232654   0.454   2.245   2.479
 3699TIP3   OH232655   2.180   3.669   6.266
 3699TIP3    H132656   2.112   3.624   6.316
 3699TIP3    H232657   2.254   3.608   6.267
 3700TIP3   OH232658   5.997   0.723   6.625
 3700TIP3    H132659   5.995   0.636   6.585
 3700TIP3    H232660   5.952   0.780   6.563
 3701TIP3   OH232661   0.241   5.859   8.068
 3701TIP3    H132662   0.260   5.769   8.095
 3701TIP3    H232663   0.311   5.881   8.007
 3702TIP3   OH232664   0.512   1.967   2.101
 3702TIP3    H132665   0.453   1.922   2.161
 3702TIP3    H232666   0.533   2.050   2.144
 3703TIP3   OH232667   1.062   3.828   7.392
 3703TIP3    H132668   0.973   3.813   7.422
 3703TIP3    H232669   1.102   3.881   7.462
 3704TIP3   OH232670   0.008   5.737   1.086
 3704TIP3    H132671   0.030   5.704   1.173
 3704TIP3    H232672   0.021   5.661   1.028
 3705TIP3   OH232673   5.659   6.177   6.829
 3705TIP3    H132674   5.658   6.240   6.757
 3705TIP3    H232675   5.691   6.096   6.790
 3706TIP3   OH232676   6.674   2.405   1.983
 3706TIP3    H132677   6.699   2.368   2.068
 3706TIP3    H232678   6.590   2.363   1.963
 3707TIP3   OH232679   6.155   4.691   8.594
 3707TIP3    H132680   6.203   4.610   8.609
 3707TIP3    H232681   6.065   4.670   8.616
 3708TIP3   OH232682   1.790   1.150   1.673
 3708TIP3    H132683   1.751   1.202   1.603
 3708TIP3    H232684   1.720   1.091   1.702
 3709TIP3   OH232685   6.096   3.703   1.634
 3709TIP3    H132686   6.130   3.719   1.722
 3709TIP3    H232687   6.040   3.778   1.615
 3710TIP3   OH232688   0.420   5.397   0.925
 3710TIP3    H132689   0.457   5.315   0.957
 3710TIP3    H232690   0.340   5.409   0.977
 3711TIP3   OH232691   0.427   2.968   7.048
 3711TIP3    H132692   0.357   2.923   7.002
 3711TIP3    H232693   0.450   3.042   6.991
 3712TIP3   OH232694   2.993   2.505   0.258
 3712TIP3    H132695   3.059   2.536   0.319
 3712TIP3    H232696   2.964   2.421   0.294
 3713TIP3   OH232697   3.426   2.920   0.763
 3713TIP3    H132698   3.388   2.867   0.693
 3713TIP3    H232699   3.464   2.856   0.823
 3714TIP3   OH232700   5.444   1.009   0.513
 3714TIP3    H132701   5.359   1.050   0.532
 3714TIP3    H232702   5.435   0.976   0.424
 3715TIP3   OH232703   3.508   4.312   1.165
 3715TIP3    H132704   3.546   4.370   1.099
 3715TIP3    H232705   3.422   4.351   1.183
 3716TIP3   OH232706   0.175   2.273   1.687
 3716TIP3    H132707   0.138   2.357   1.717
 3716TIP3    H232708   0.268   2.292   1.673
 3717TIP3   OH232709   6.221   2.650   7.430
 3717TIP3    H132710   6.286   2.706   7.474
 3717TIP3    H232711   6.136   2.686   7.456
 3718TIP3   OH232712   1.583   6.724   8.580
 3718TIP3    H132713   1.639   6.800   8.562
 3718TIP3    H232714   1.499   6.747   8.538
 3719TIP3   OH232715   0.148   0.069   8.531
 3719TIP3    H132716   0.139   6.869   8.584
 3719TIP3    H232717   0.212   0.045   8.464
 3720TIP3   OH232718   2.626   4.593   0.117
 3720TIP3    H132719   2.687   4.665   0.133
 3720TIP3    H232720   2.609   4.597   0.023
 3721TIP3   OH232721   4.108   3.156   7.724
 3721TIP3    H132722   4.201   3.144   7.706
 3721TIP3    H232723   4.103   3.242   7.767
 3722TIP3   OH232724   3.200   3.289   6.889
 3722TIP3    H132725   3.223   3.337   6.809
 3722TIP3    H232726   3.168   3.357   6.949
 3723TIP3   OH232727   3.634   3.448   8.302
 3723TIP3    H132728   3.601   3.499   8.228
 3723TIP3    H232729   3.556   3.428   8.354
 3724TIP3   OH232730   5.417   0.029   8.159
 3724TIP3    H132731   5.401   0.004   8.250
 3724TIP3    H232732   5.355   0.101   8.143
 3725TIP3   OH232733   3.557   1.183   8.500
 3725TIP3    H132734   3.567   1.092   8.472
 3725TIP3    H232735   3.628   1.196   8.563
 3726TIP3   OH232736   5.898   4.505   1.728
 3726TIP3    H132737   5.908   4.598   1.749
 3726TIP3    H232738   5.898   4.461   1.813
 3727TIP3   OH232739   3.549   3.051   0.167
 3727TIP3    H132740   3.564   3.082   0.078
 3727TIP3    H232741   3.637   3.035   0.201
 3728TIP3   OH232742   3.241   1.171   6.969
 3728TIP3    H132743   3.171   1.106   6.957
 3728TIP3    H232744   3.322   1.121   6.956
 3729TIP3   OH232745   4.914   2.027   7.522
 3729TIP3    H132746   4.972   2.098   7.493
 3729TIP3    H232747   4.879   1.990   7.441
 3730TIP3   OH232748   0.367   2.727   1.349
 3730TIP3    H132749   0.328   2.813   1.360
 3730TIP3    H232750   0.446   2.743   1.298
 3731TIP3   OH232751   2.316   2.606   1.455
 3731TIP3    H132752   2.328   2.612   1.550
 3731TIP3    H232753   2.331   2.514   1.434
 3732TIP3   OH232754   2.282   6.082   6.283
 3732TIP3    H132755   2.223   6.085   6.208
 3732TIP3    H232756   2.247   6.012   6.338
 3733TIP3   OH232757   4.678   3.199   0.674
 3733TIP3    H132758   4.730   3.186   0.753
 3733TIP3    H232759   4.622   3.122   0.668
 3734TIP3   OH232760   6.059   5.320   2.225
 3734TIP3    H132761   6.005   5.395   2.249
 3734TIP3    H232762   6.148   5.348   2.244
 3735TIP3   OH232763   3.562   3.948   7.142
 3735TIP3    H132764   3.637   4.008   7.140
 3735TIP3    H232765   3.573   3.896   7.062
 3736TIP3   OH232766   0.552   0.199   7.226
 3736TIP3    H132767   0.645   0.223   7.220
 3736TIP3    H232768   0.523   0.192   7.135
 3737TIP3   OH232769   6.165   4.684   1.270
 3737TIP3    H132770   6.168   4.683   1.366
 3737TIP3    H232771   6.233   4.747   1.245
 3738TIP3   OH232772   6.610   2.936   8.517
 3738TIP3    H132773   6.656   2.852   8.510
 3738TIP3    H232774   6.668   2.990   8.570
 3739TIP3   OH232775   6.159   4.442   1.137
 3739TIP3    H132776   6.158   4.530   1.174
 3739TIP3    H232777   6.108   4.389   1.199
 3740TIP3   OH232778   3.154   6.555   7.648
 3740TIP3    H132779   3.199   6.487   7.598
 3740TIP3    H232780   3.187   6.637   7.613
 3741TIP3   OH232781   3.578   5.021   6.314
 3741TIP3    H132782   3.573   4.996   6.406
 3741TIP3    H232783   3.489   5.007   6.281
 3742TIP3   OH232784   3.649   0.458   6.858
 3742TIP3    H132785   3.696   0.541   6.848
 3742TIP3    H232786   3.573   0.467   6.801
 3743TIP3   OH232787   1.254   1.528   0.224
 3743TIP3    H132788   1.182   1.471   0.253
 3743TIP3    H232789   1.210   1.605   0.189
 3744TIP3   OH232790   0.518   1.579   8.255
 3744TIP3    H132791   0.612   1.586   8.271
 3744TIP3    H232792   0.498   1.652   8.197
 3745TIP3   OH232793   3.778   0.206   6.344
 3745TIP3    H132794   3.854   0.162   6.308
 3745TIP3    H232795   3.703   0.167   6.298
 3746TIP3   OH232796   4.833   6.404   2.578
 3746TIP3    H132797   4.753   6.355   2.594
 3746TIP3    H232798   4.904   6.341   2.594
 3747TIP3   OH232799   1.420   4.672   6.775
 3747TIP3    H132800   1.341   4.644   6.730
 3747TIP3    H232801   1.393   4.683   6.866
 3748TIP3   OH232802   6.084   2.577   0.783
 3748TIP3    H132803   6.099   2.658   0.735
 3748TIP3    H232804   5.995   2.551   0.758
 3749TIP3   OH232805   3.651   5.241   8.018
 3749TIP3    H132806   3.653   5.147   8.039
 3749TIP3    H232807   3.617   5.283   8.097
 3750TIP3   OH232808   2.844   2.905   2.010
 3750TIP3    H132809   2.820   2.983   1.960
 3750TIP3    H232810   2.767   2.848   2.002
 3751TIP3   OH232811   0.881   0.326   6.421
 3751TIP3    H132812   0.971   0.309   6.392
 3751TIP3    H232813   0.869   0.420   6.405
 3752TIP3   OH232814   5.513   4.155   7.456
 3752TIP3    H132815   5.478   4.072   7.423
 3752TIP3    H232816   5.455   4.221   7.418
 3753TIP3   OH232817   3.510   2.261   6.685
 3753TIP3    H132818   3.419   2.237   6.668
 3753TIP3    H232819   3.538   2.304   6.605
 3754TIP3   OH232820   6.439   2.981   1.859
 3754TIP3    H132821   6.495   2.921   1.908
 3754TIP3    H232822   6.419   2.935   1.778
 3755TIP3   OH232823   5.615   1.909   7.062
 3755TIP3    H132824   5.580   1.866   6.983
 3755TIP3    H232825   5.696   1.950   7.032
 3756TIP3   OH232826   4.546   5.986   0.469
 3756TIP3    H132827   4.516   5.935   0.544
 3756TIP3    H232828   4.641   5.994   0.481
 3757TIP3   OH232829   6.818   3.197   1.404
 3757TIP3    H132830   6.745   3.139   1.428
 3757TIP3    H232831   6.779   3.260   1.343
 3758TIP3   OH232832   5.870   4.628   0.716
 3758TIP3    H132833   5.907   4.712   0.689
 3758TIP3    H232834   5.925   4.600   0.788
 3759TIP3   OH232835   1.416   4.116   0.335
 3759TIP3    H132836   1.397   4.106   0.241
 3759TIP3    H232837   1.511   4.128   0.338
 3760TIP3   OH232838   4.222   0.067   0.563
 3760TIP3    H132839   4.222   6.860   0.522
 3760TIP3    H232840   4.232   0.050   0.657
 3761TIP3   OH232841   4.179   3.645   1.612
 3761TIP3    H132842   4.187   3.650   1.517
 3761TIP3    H232843   4.128   3.722   1.636
 3762TIP3   OH232844   2.727   5.661   1.344
 3762TIP3    H132845   2.802   5.601   1.352
 3762TIP3    H232846   2.740   5.724   1.415
 3763TIP3   OH232847   5.131   6.663   6.850
 3763TIP3    H132848   5.196   6.726   6.880
 3763TIP3    H232849   5.166   6.578   6.877
 3764TIP3   OH232850   6.383   0.597   1.910
 3764TIP3    H132851   6.358   0.516   1.867
 3764TIP3    H232852   6.314   0.613   1.974
 3765TIP3   OH232853   4.457   6.440   0.167
 3765TIP3    H132854   4.475   6.429   0.074
 3765TIP3    H232855   4.526   6.390   0.211
 3766TIP3   OH232856   1.436   1.253   7.987
 3766TIP3    H132857   1.517   1.305   7.993
 3766TIP3    H232858   1.430   1.209   8.072
 3767TIP3   OH232859   6.439   2.551   7.299
 3767TIP3    H132860   6.348   2.557   7.330
 3767TIP3    H232861   6.475   2.475   7.344
 3768TIP3   OH232862   5.427   4.753   1.443
 3768TIP3    H132863   5.443   4.694   1.517
 3768TIP3    H232864   5.383   4.829   1.481
 3769TIP3   OH232865   3.576   4.240   0.699
 3769TIP3    H132866   3.531   4.180   0.639
 3769TIP3    H232867   3.630   4.184   0.754
 3770TIP3   OH232868   4.819   2.106   6.919
 3770TIP3    H132869   4.877   2.047   6.870
 3770TIP3    H232870   4.765   2.146   6.852
 3771TIP3   OH232871   5.941   6.549   7.686
 3771TIP3    H132872   5.939   6.581   7.776
 3771TIP3    H232873   5.933   6.454   7.695
 3772TIP3   OH232874   0.017   0.827   8.608
 3772TIP3    H132875   0.025   0.914   8.569
 3772TIP3    H232876   6.822   0.787   8.563
 3773TIP3   OH232877   1.437   2.885   6.771
 3773TIP3    H132878   1.405   2.973   6.751
 3773TIP3    H232879   1.359   2.837   6.799
 3774TIP3   OH232880   5.584   6.058   7.769
 3774TIP3    H132881   5.508   6.074   7.824
 3774TIP3    H232882   5.632   5.988   7.814
 3775TIP3   OH232883   5.845   4.634   7.627
 3775TIP3    H132884   5.821   4.598   7.542
 3775TIP3    H232885   5.923   4.687   7.609
 3776TIP3   OH232886   5.647   3.206   8.536
 3776TIP3    H132887   5.614   3.281   8.587
 3776TIP3    H232888   5.569   3.172   8.492
 3777TIP3   OH232889   1.160   6.634   7.067
 3777TIP3    H132890   1.088   6.675   7.018
 3777TIP3    H232891   1.191   6.564   7.010
 3778TIP3   OH232892   4.208   4.848   2.035
 3778TIP3    H132893   4.278   4.910   2.014
 3778TIP3    H232894   4.253   4.772   2.071
 3779TIP3   OH232895   5.692   4.103   6.303
 3779TIP3    H132896   5.782   4.072   6.287
 3779TIP3    H232897   5.664   4.138   6.218
 3780TIP3   OH232898   2.526   5.447   1.289
 3780TIP3    H132899   2.606   5.478   1.331
 3780TIP3    H232900   2.553   5.371   1.238
 3781TIP3   OH232901   6.760   5.122   1.895
 3781TIP3    H132902   6.851   5.152   1.890
 3781TIP3    H232903   6.732   5.146   1.983
 3782TIP3   OH232904   6.542   1.043   1.143
 3782TIP3    H132905   6.540   0.982   1.069
 3782TIP3    H232906   6.628   1.029   1.183
 3783TIP3   OH232907   3.620   4.975   8.040
 3783TIP3    H132908   3.664   4.914   8.099
 3783TIP3    H232909   3.527   4.965   8.061
 3784TIP3   OH232910   0.805   6.769   8.066
 3784TIP3    H132911   0.818   6.778   7.972
 3784TIP3    H232912   0.763   6.851   8.092
 3785TIP3   OH232913   1.630   6.066   8.009
 3785TIP3    H132914   1.649   6.068   8.103
 3785TIP3    H232915   1.640   6.157   7.980
 3786TIP3   OH232916   1.831   2.828   0.216
 3786TIP3    H132917   1.890   2.885   0.167
 3786TIP3    H232918   1.889   2.760   0.253
 3787TIP3   OH232919   6.665   3.877   7.287
 3787TIP3    H132920   6.641   3.970   7.294
 3787TIP3    H232921   6.582   3.831   7.276
 3788TIP3   OH232922   6.043   1.894   0.060
 3788TIP3    H132923   6.093   1.959   0.108
 3788TIP3    H232924   5.955   1.931   0.054
 3789TIP3   OH232925   5.802   6.171   2.073
 3789TIP3    H132926   5.893   6.200   2.061
 3789TIP3    H232927   5.764   6.173   1.986
 3790TIP3   OH232928   4.295   6.198   0.162
 3790TIP3    H132929   4.358   6.125   0.160
 3790TIP3    H232930   4.349   6.276   0.149
 3791TIP3   OH232931   0.249   4.047   6.262
 3791TIP3    H132932   0.345   4.047   6.258
 3791TIP3    H232933   0.225   3.955   6.272
 3792TIP3   OH232934   5.038   1.823   8.081
 3792TIP3    H132935   5.075   1.747   8.036
 3792TIP3    H232936   5.113   1.866   8.122
 3793TIP3   OH232937   0.864   6.723   1.096
 3793TIP3    H132938   0.893   6.790   1.034
 3793TIP3    H232939   0.781   6.692   1.060
 3794TIP3   OH232940   1.050   3.973   1.764
 3794TIP3    H132941   1.084   4.051   1.720
 3794TIP3    H232942   1.119   3.946   1.823
 3795TIP3   OH232943   0.867   2.973   0.965
 3795TIP3    H132944   0.778   2.957   0.934
 3795TIP3    H232945   0.880   2.908   1.034
 3796TIP3   OH232946   4.443   5.410   0.953
 3796TIP3    H132947   4.404   5.406   1.041
 3796TIP3    H232948   4.450   5.319   0.925
 3797TIP3   OH232949   5.859   2.078   7.408
 3797TIP3    H132950   5.918   2.105   7.338
 3797TIP3    H232951   5.915   2.073   7.486
 3798TIP3   OH232952   4.433   3.022   1.776
 3798TIP3    H132953   4.405   3.089   1.714
 3798TIP3    H232954   4.359   3.015   1.837
 3799TIP3   OH232955   1.032   6.058   7.485
 3799TIP3    H132956   0.949   6.105   7.494
 3799TIP3    H232957   1.019   5.978   7.535
 3800TIP3   OH232958   2.168   4.142   7.134
 3800TIP3    H132959   2.198   4.110   7.049
 3800TIP3    H232960   2.075   4.119   7.137
 3801TIP3   OH232961   1.481   3.544   6.765
 3801TIP3    H132962   1.530   3.586   6.835
 3801TIP3    H232963   1.535   3.557   6.687
 3802TIP3   OH232964   5.793   3.431   7.516
 3802TIP3    H132965   5.727   3.452   7.582
 3802TIP3    H232966   5.796   3.336   7.514
 3803TIP3   OH232967   1.722   4.293   7.429
 3803TIP3    H132968   1.740   4.362   7.494
 3803TIP3    H232969   1.671   4.228   7.477
 3804TIP3   OH232970   3.840   1.732   7.672
 3804TIP3    H132971   3.765   1.773   7.714
 3804TIP3    H232972   3.915   1.761   7.724
 3805TIP3   OH232973   2.786   6.007   6.161
 3805TIP3    H132974   2.791   6.090   6.114
 3805TIP3    H232975   2.834   5.946   6.106
 3806TIP3   OH232976   5.412   6.252   7.017
 3806TIP3    H132977   5.436   6.208   7.099
 3806TIP3    H232978   5.406   6.181   6.953
 3807TIP3   OH232979   2.062   4.958   0.010
 3807TIP3    H132980   2.146   4.998   0.032
 3807TIP3    H232981   2.004   5.033   8.620
 3808TIP3   OH232982   1.825   6.648   0.009
 3808TIP3    H132983   1.733   6.652   8.605
 3808TIP3    H232984   1.874   6.662   8.552
 3809TIP3   OH232985   0.725   0.408   1.349
 3809TIP3    H132986   0.665   0.334   1.339
 3809TIP3    H232987   0.801   0.372   1.395
 3810TIP3   OH232988   6.214   3.324   1.250
 3810TIP3    H132989   6.135   3.364   1.285
 3810TIP3    H232990   6.279   3.334   1.320
 3811TIP3   OH232991   4.169   3.629   1.344
 3811TIP3    H132992   4.238   3.662   1.287
 3811TIP3    H232993   4.106   3.588   1.284
 3812TIP3   OH232994   5.782   6.589   7.195
 3812TIP3    H132995   5.868   6.629   7.190
 3812TIP3    H232996   5.789   6.526   7.267
 3813TIP3   OH232997   0.998   1.657   1.727
 3813TIP3    H132998   1.055   1.668   1.651
 3813TIP3    H232999   0.957   1.743   1.738
 3814TIP3   OH233000   1.340   6.803   8.501
 3814TIP3    H133001   1.246   6.795   8.520
 3814TIP3    H233002   1.346   6.794   8.406
 3815TIP3   OH233003   6.495   6.690   0.818
 3815TIP3    H133004   6.480   6.767   0.872
 3815TIP3    H233005   6.587   6.696   0.792
 3816TIP3   OH233006   6.852   1.796   6.633
 3816TIP3    H133007   6.855   1.726   6.697
 3816TIP3    H233008   0.044   1.776   6.572
 3817TIP3   OH233009   5.187   2.723   0.167
 3817TIP3    H133010   5.145   2.776   0.234
 3817TIP3    H233011   5.118   2.704   0.104
 3818TIP3   OH233012   5.883   1.238   0.424
 3818TIP3    H133013   5.836   1.284   0.354
 3818TIP3    H233014   5.824   1.242   0.499
 3819TIP3   OH233015   5.831   5.363   1.506
 3819TIP3    H133016   5.866   5.453   1.511
 3819TIP3    H233017   5.876   5.317   1.577
 3820TIP3   OH233018   0.135   5.545   0.566
 3820TIP3    H133019   0.192   5.610   0.526
 3820TIP3    H233020   0.194   5.488   0.616
 3821TIP3   OH233021   3.136   3.235   7.641
 3821TIP3    H133022   3.206   3.286   7.600
 3821TIP3    H233023   3.149   3.146   7.608
 3822TIP3   OH233024   3.268   4.699   1.677
 3822TIP3    H133025   3.246   4.708   1.770
 3822TIP3    H233026   3.214   4.765   1.633
 3823TIP3   OH233027   1.139   3.063   0.411
 3823TIP3    H133028   1.089   3.007   0.471
 3823TIP3    H233029   1.206   3.005   0.374
 3824TIP3   OH233030   5.397   5.359   1.339
 3824TIP3    H133031   5.467   5.327   1.282
 3824TIP3    H233032   5.442   5.400   1.412
 3825TIP3   OH233033   0.078   4.580   0.616
 3825TIP3    H133034   0.019   4.593   0.542
 3825TIP3    H233035   0.106   4.489   0.609
 3826TIP3   OH233036   2.354   1.521   7.528
 3826TIP3    H133037   2.444   1.538   7.558
 3826TIP3    H233038   2.313   1.608   7.524
 3827TIP3   OH233039   5.882   4.667   1.276
 3827TIP3    H133040   5.867   4.667   1.181
 3827TIP3    H233041   5.977   4.664   1.285
 3828TIP3   OH233042   4.063   3.697   7.313
 3828TIP3    H133043   4.014   3.614   7.314
 3828TIP3    H233044   3.997   3.764   7.329
 3829TIP3   OH233045   6.270   5.869   0.659
 3829TIP3    H133046   6.251   5.857   0.752
 3829TIP3    H233047   6.289   5.781   0.627
 3830TIP3   OH233048   0.720   6.494   8.063
 3830TIP3    H133049   0.676   6.501   8.148
 3830TIP3    H233050   0.752   6.582   8.045
 3831TIP3   OH233051   0.477   1.425   7.514
 3831TIP3    H133052   0.448   1.337   7.493
 3831TIP3    H233053   0.563   1.413   7.556
 3832TIP3   OH233054   4.478   6.000   0.211
 3832TIP3    H133055   4.549   5.953   0.168
 3832TIP3    H233056   4.503   6.003   0.304
 3833TIP3   OH233057   2.065   5.545   0.687
 3833TIP3    H133058   2.022   5.467   0.721
 3833TIP3    H233059   1.996   5.592   0.639
 3834TIP3   OH233060   1.279   1.826   0.558
 3834TIP3    H133061   1.204   1.854   0.506
 3834TIP3    H233062   1.256   1.850   0.648
 3835TIP3   OH233063   5.852   3.472   8.192
 3835TIP3    H133064   5.941   3.489   8.159
 3835TIP3    H233065   5.863   3.398   8.251
 3836TIP3   OH233066   3.002   5.553   0.123
 3836TIP3    H133067   3.007   5.501   0.204
 3836TIP3    H233068   3.093   5.560   0.094
 3837TIP3   OH233069   2.073   2.929   6.546
 3837TIP3    H133070   2.164   2.900   6.552
 3837TIP3    H233071   2.022   2.862   6.590
 3838TIP3   OH233072   1.089   3.255   1.407
 3838TIP3    H133073   1.095   3.197   1.330
 3838TIP3    H233074   1.177   3.292   1.416
 3839TIP3   OH233075   3.422   2.292   7.368
 3839TIP3    H133076   3.480   2.350   7.319
 3839TIP3    H233077   3.365   2.254   7.301
 3840TIP3   OH233078   4.903   3.963   6.550
 3840TIP3    H133079   4.925   3.925   6.635
 3840TIP3    H233080   4.808   3.963   6.547
 3841TIP3   OH233081   2.769   2.925   0.304
 3841TIP3    H133082   2.710   2.892   0.372
 3841TIP3    H233083   2.725   3.004   0.271
 3842TIP3   OH233084   0.307   1.334   6.456
 3842TIP3    H133085   0.383   1.302   6.407
 3842TIP3    H233086   0.232   1.293   6.413
 3843TIP3   OH233087   1.819   2.200   7.043
 3843TIP3    H133088   1.866   2.228   7.122
 3843TIP3    H233089   1.771   2.278   7.015
 3844TIP3   OH233090   3.526   0.308   1.275
 3844TIP3    H133091   3.452   0.355   1.237
 3844TIP3    H233092   3.574   0.374   1.325
 3845TIP3   OH233093   5.863   3.121   0.903
 3845TIP3    H133094   5.796   3.189   0.900
 3845TIP3    H233095   5.917   3.144   0.979
 3846TIP3   OH233096   4.256   2.686   8.419
 3846TIP3    H133097   4.239   2.718   8.507
 3846TIP3    H233098   4.275   2.765   8.368
 3847TIP3   OH233099   1.220   6.039   1.724
 3847TIP3    H133100   1.202   5.950   1.693
 3847TIP3    H233101   1.242   6.028   1.816
 3848TIP3   OH233102   3.469   2.699   7.750
 3848TIP3    H133103   3.417   2.634   7.704
 3848TIP3    H233104   3.439   2.695   7.840
 3849TIP3   OH233105   2.513   2.961   0.092
 3849TIP3    H133106   2.590   2.986   0.040
 3849TIP3    H233107   2.449   2.930   0.027
 3850TIP3   OH233108   4.202   6.770   8.090
 3850TIP3    H133109   4.162   6.815   8.165
 3850TIP3    H233110   4.150   6.799   8.015
 3851TIP3   OH233111   6.758   6.398   2.372
 3851TIP3    H133112   6.689   6.432   2.430
 3851TIP3    H233113   6.798   6.476   2.334
 3852TIP3   OH233114   4.563   6.667   7.332
 3852TIP3    H133115   4.632   6.662   7.398
 3852TIP3    H233116   4.523   6.580   7.333
 3853TIP3   OH233117   3.747   2.496   0.838
 3853TIP3    H133118   3.747   2.440   0.761
 3853TIP3    H233119   3.725   2.436   0.910
 3854TIP3   OH233120   1.658   0.944   8.314
 3854TIP3    H133121   1.696   1.020   8.271
 3854TIP3    H233122   1.582   0.978   8.361
 3855TIP3   OH233123   0.999   6.299   1.035
 3855TIP3    H133124   0.923   6.345   1.071
 3855TIP3    H233125   1.029   6.244   1.107
 3856TIP3   OH233126   3.594   4.769   8.470
 3856TIP3    H133127   3.611   4.696   8.410
 3856TIP3    H233128   3.656   4.756   8.542
 3857TIP3   OH233129   1.883   5.878   8.579
 3857TIP3    H133130   1.964   5.862   0.004
 3857TIP3    H233131   1.913   5.903   8.491
 3858TIP3   OH233132   3.707   2.144   0.015
 3858TIP3    H133133   3.720   2.083   8.566
 3858TIP3    H233134   3.793   2.182   0.030
 3859TIP3   OH233135   4.923   3.847   7.233
 3859TIP3    H133136   4.895   3.924   7.183
 3859TIP3    H233137   5.016   3.861   7.249
 3860TIP3   OH233138   6.145   5.779   7.427
 3860TIP3    H133139   6.115   5.699   7.383
 3860TIP3    H233140   6.138   5.759   7.521
 3861TIP3   OH233141   1.904   0.747   1.281
 3861TIP3    H133142   1.954   0.762   1.362
 3861TIP3    H233143   1.930   0.820   1.224
 3862TIP3   OH233144   6.861   3.668   7.968
 3862TIP3    H133145   0.022   3.626   8.044
 3862TIP3    H233146   0.018   3.623   7.892
 3863TIP3   OH233147   2.395   3.027   8.477
 3863TIP3    H133148   2.429   2.940   8.457
 3863TIP3    H233149   2.465   3.086   8.448
 3864TIP3   OH233150   3.672   4.100   6.214
 3864TIP3    H133151   3.650   4.190   6.194
 3864TIP3    H233152   3.768   4.098   6.216
 3865TIP3   OH233153   3.859   6.737   2.755
 3865TIP3    H133154   3.795   6.807   2.766
 3865TIP3    H233155   3.866   6.726   2.660
 3866TIP3   OH233156   6.364   6.561   0.596
 3866TIP3    H133157   6.427   6.594   0.660
 3866TIP3    H233158   6.296   6.628   0.593
 3867TIP3   OH233159   2.151   6.215   0.230
 3867TIP3    H133160   2.238   6.208   0.190
 3867TIP3    H233161   2.104   6.276   0.174
 3868TIP3   OH233162   0.133   6.748   7.222
 3868TIP3    H133163   0.056   6.708   7.263
 3868TIP3    H233164   0.103   6.835   7.195
 3869TIP3   OH233165   3.235   6.309   7.516
 3869TIP3    H133166   3.268   6.250   7.584
 3869TIP3    H233167   3.291   6.291   7.440
 3870TIP3   OH233168   0.819   5.541   1.886
 3870TIP3    H133169   0.758   5.488   1.937
 3870TIP3    H233170   0.903   5.497   1.896
 3871TIP3   OH233171   4.069   2.067   1.660
 3871TIP3    H133172   4.034   2.060   1.571
 3871TIP3    H233173   4.042   2.154   1.689
 3872TIP3   OH233174   2.205   1.555   1.823
 3872TIP3    H133175   2.139   1.486   1.816
 3872TIP3    H233176   2.262   1.526   1.894
 3873TIP3   OH233177   5.882   3.037   0.116
 3873TIP3    H133178   5.929   3.111   0.078
 3873TIP3    H233179   5.789   3.060   0.105
 3874TIP3   OH233180   4.404   1.305   1.530
 3874TIP3    H133181   4.417   1.246   1.455
 3874TIP3    H233182   4.429   1.252   1.606
 3875TIP3   OH233183   4.647   1.179   2.476
 3875TIP3    H133184   4.690   1.125   2.409
 3875TIP3    H233185   4.716   1.238   2.507
 3876TIP3   OH233186   3.508   2.274   6.967
 3876TIP3    H133187   3.486   2.253   6.876
 3876TIP3    H233188   3.548   2.361   6.961
 3877TIP3   OH233189   5.095   4.874   1.922
 3877TIP3    H133190   5.006   4.850   1.896
 3877TIP3    H233191   5.117   4.813   1.993
 3878TIP3   OH233192   2.552   4.388   7.085
 3878TIP3    H133193   2.530   4.456   7.021
 3878TIP3    H233194   2.478   4.388   7.146
 3879TIP3   OH233195   5.832   3.888   0.196
 3879TIP3    H133196   5.755   3.833   0.184
 3879TIP3    H233197   5.797   3.976   0.210
 3880TIP3   OH233198   0.877   4.520   1.128
 3880TIP3    H133199   0.938   4.565   1.187
 3880TIP3    H233200   0.834   4.591   1.079
 3881TIP3   OH233201   5.248   5.101   1.922
 3881TIP3    H133202   5.193   5.023   1.912
 3881TIP3    H233203   5.333   5.067   1.950
 3882TIP3   OH233204   1.399   1.004   8.195
 3882TIP3    H133205   1.306   0.983   8.198
 3882TIP3    H233206   1.442   0.919   8.183
 3883TIP3   OH233207   2.378   3.163   6.355
 3883TIP3    H133208   2.321   3.209   6.294
 3883TIP3    H233209   2.395   3.079   6.313
 3884TIP3   OH233210   0.108   0.825   1.608
 3884TIP3    H133211   0.142   0.883   1.676
 3884TIP3    H233212   0.114   0.738   1.646
 3885TIP3   OH233213   5.732   3.912   8.168
 3885TIP3    H133214   5.762   4.000   8.146
 3885TIP3    H233215   5.662   3.926   8.232
 3886TIP3   OH233216   5.314   2.638   7.889
 3886TIP3    H133217   5.303   2.581   7.965
 3886TIP3    H233218   5.311   2.726   7.925
 3887TIP3   OH233219   6.016   2.956   0.649
 3887TIP3    H133220   6.108   2.978   0.636
 3887TIP3    H233221   6.009   2.935   0.742
 3888TIP3   OH233222   3.271   5.944   1.847
 3888TIP3    H133223   3.289   5.855   1.878
 3888TIP3    H233224   3.206   5.932   1.777
 3889TIP3   OH233225   2.051   4.852   1.681
 3889TIP3    H133226   1.978   4.791   1.684
 3889TIP3    H233227   2.014   4.932   1.644
 3890TIP3   OH233228   0.609   2.592   6.568
 3890TIP3    H133229   0.538   2.554   6.517
 3890TIP3    H233230   0.650   2.518   6.612
 3891TIP3   OH233231   3.709   0.400   1.600
 3891TIP3    H133232   3.715   0.463   1.528
 3891TIP3    H233233   3.749   0.320   1.565
 3892TIP3   OH233234   1.598   4.560   1.058
 3892TIP3    H133235   1.670   4.509   1.095
 3892TIP3    H233236   1.597   4.536   0.965
 3893TIP3   OH233237   4.140   2.155   8.004
 3893TIP3    H133238   4.207   2.128   7.942
 3893TIP3    H233239   4.150   2.094   8.078
 3894TIP3   OH233240   3.569   1.923   1.853
 3894TIP3    H133241   3.475   1.935   1.841
 3894TIP3    H233242   3.590   1.974   1.931
 3895TIP3   OH233243   2.547   6.381   0.025
 3895TIP3    H133244   2.639   6.384   0.050
 3895TIP3    H233245   2.547   6.402   8.555
 3896TIP3   OH233246   0.220   1.830   8.375
 3896TIP3    H133247   0.302   1.793   8.408
 3896TIP3    H233248   0.236   1.925   8.372
 3897TIP3   OH233249   4.393   0.131   2.036
 3897TIP3    H133250   4.485   0.153   2.035
 3897TIP3    H233251   4.366   0.144   2.127
 3898TIP3   OH233252   5.191   2.567   0.454
 3898TIP3    H133253   5.251   2.528   0.517
 3898TIP3    H233254   5.226   2.542   0.369
 3899TIP3   OH233255   0.930   6.446   0.083
 3899TIP3    H133256   0.943   6.499   0.162
 3899TIP3    H233257   1.000   6.473   0.024
 3900TIP3   OH233258   1.754   0.371   6.972
 3900TIP3    H133259   1.796   0.323   6.901
 3900TIP3    H233260   1.804   0.348   7.050
 3901TIP3   OH233261   1.494   3.799   1.820
 3901TIP3    H133262   1.447   3.720   1.793
 3901TIP3    H233263   1.460   3.868   1.763
 3902TIP3   OH233264   1.615   5.807   7.894
 3902TIP3    H133265   1.611   5.895   7.932
 3902TIP3    H233266   1.644   5.751   7.966
 3903TIP3   OH233267   3.371   3.863   2.090
 3903TIP3    H133268   3.281   3.864   2.057
 3903TIP3    H233269   3.408   3.781   2.058
 3904TIP3   OH233270   0.730   6.265   7.088
 3904TIP3    H133271   0.682   6.331   7.138
 3904TIP3    H233272   0.693   6.270   7.000
 3905TIP3   OH233273   3.408   1.556   0.113
 3905TIP3    H133274   3.366   1.575   0.029
 3905TIP3    H233275   3.398   1.461   0.123
 3906TIP3   OH233276   1.837   4.751   8.398
 3906TIP3    H133277   1.786   4.669   8.403
 3906TIP3    H233278   1.925   4.726   8.424
 3907TIP3   OH233279   4.401   1.720   8.471
 3907TIP3    H133280   4.453   1.796   8.443
 3907TIP3    H233281   4.418   1.654   8.404
 3908TIP3   OH233282   0.512   4.373   7.113
 3908TIP3    H133283   0.580   4.440   7.117
 3908TIP3    H233284   0.560   4.291   7.104
 3909TIP3   OH233285   6.879   2.402   7.210
 3909TIP3    H133286   6.784   2.397   7.203
 3909TIP3    H233287   0.031   2.387   7.121
 3910TIP3   OH233288   6.307   1.300   7.094
 3910TIP3    H133289   6.213   1.309   7.110
 3910TIP3    H233290   6.341   1.389   7.101
 3911TIP3   OH233291   4.327   2.229   0.106
 3911TIP3    H133292   4.369   2.145   0.090
 3911TIP3    H233293   4.245   2.207   0.151
 3912TIP3   OH233294   3.536   4.990   6.645
 3912TIP3    H133295   3.464   4.977   6.583
 3912TIP3    H233296   3.529   4.916   6.706
 3913TIP3   OH233297   1.242   2.815   1.692
 3913TIP3    H133298   1.201   2.900   1.710
 3913TIP3    H233299   1.261   2.778   1.778
 3914TIP3   OH233300   6.850   4.716   1.648
 3914TIP3    H133301   0.048   4.705   1.593
 3914TIP3    H233302   6.782   4.663   1.606
 3915TIP3   OH233303   3.569   4.027   0.038
 3915TIP3    H133304   3.625   4.055   8.589
 3915TIP3    H233305   3.481   4.057   0.013
 3916TIP3   OH233306   5.089   4.689   6.784
 3916TIP3    H133307   5.142   4.752   6.735
 3916TIP3    H233308   5.152   4.623   6.815
 3917TIP3   OH233309   6.641   3.688   0.382
 3917TIP3    H133310   6.730   3.691   0.347
 3917TIP3    H233311   6.598   3.765   0.346
 3918TIP3   OH233312   4.889   1.814   7.314
 3918TIP3    H133313   4.918   1.858   7.234
 3918TIP3    H233314   4.969   1.779   7.353
 3919TIP3   OH233315   5.547   3.389   0.118
 3919TIP3    H133316   5.522   3.482   0.125
 3919TIP3    H233317   5.609   3.376   0.190
 3920TIP3   OH233318   4.716   2.612   0.193
 3920TIP3    H133319   4.657   2.537   0.204
 3920TIP3    H233320   4.785   2.597   0.259
 3921TIP3   OH233321   1.145   2.315   8.177
 3921TIP3    H133322   1.131   2.227   8.142
 3921TIP3    H233323   1.094   2.372   8.119
 3922TIP3   OH233324   0.850   2.648   7.311
 3922TIP3    H133325   0.844   2.695   7.228
 3922TIP3    H233326   0.852   2.716   7.378
 3923TIP3   OH233327   2.766   0.401   0.669
 3923TIP3    H133328   2.851   0.366   0.643
 3923TIP3    H233329   2.762   0.388   0.764
 3924TIP3   OH233330   5.551   2.144   1.870
 3924TIP3    H133331   5.509   2.100   1.944
 3924TIP3    H233332   5.616   2.202   1.910
 3925TIP3   OH233333   4.283   5.181   8.415
 3925TIP3    H133334   4.316   5.193   8.504
 3925TIP3    H233335   4.352   5.216   8.358
 3926TIP3   OH233336   5.544   2.201   2.599
 3926TIP3    H133337   5.469   2.183   2.656
 3926TIP3    H233338   5.603   2.127   2.613
 3927TIP3   OH233339   2.577   5.991   0.234
 3927TIP3    H133340   2.542   5.964   0.319
 3927TIP3    H233341   2.657   5.939   0.223
 3928TIP3   OH233342   2.091   0.768   0.786
 3928TIP3    H133343   2.179   0.749   0.754
 3928TIP3    H233344   2.105   0.814   0.870
 3929TIP3   OH233345   5.578   0.525   0.588
 3929TIP3    H133346   5.623   0.608   0.603
 3929TIP3    H233347   5.618   0.464   0.651
 3930TIP3   OH233348   1.039   4.726   1.211
 3930TIP3    H133349   1.134   4.716   1.212
 3930TIP3    H233350   1.025   4.810   1.167
 3931TIP3   OH233351   0.872   4.858   8.205
 3931TIP3    H133352   0.882   4.851   8.300
 3931TIP3    H233353   0.870   4.768   8.174
 3932TIP3   OH233354   6.686   0.632   8.516
 3932TIP3    H133355   6.754   0.617   8.451
 3932TIP3    H233356   6.700   0.564   8.581
 3933TIP3   OH233357   4.090   5.109   7.056
 3933TIP3    H133358   3.997   5.121   7.074
 3933TIP3    H233359   4.093   5.083   6.964
 3934TIP3   OH233360   0.892   1.293   8.302
 3934TIP3    H133361   0.901   1.354   8.375
 3934TIP3    H233362   0.877   1.208   8.343
 3935TIP3   OH233363   5.406   5.957   7.989
 3935TIP3    H133364   5.493   5.926   8.013
 3935TIP3    H233365   5.381   6.018   8.059
 3936TIP3   OH233366   1.164   2.562   1.625
 3936TIP3    H133367   1.170   2.540   1.532
 3936TIP3    H233368   1.173   2.658   1.627
 3937TIP3   OH233369   0.677   0.481   0.800
 3937TIP3    H133370   0.766   0.453   0.779
 3937TIP3    H233371   0.684   0.517   0.888
 3938TIP3   OH233372   5.744   2.148   7.969
 3938TIP3    H133373   5.793   2.218   7.925
 3938TIP3    H233374   5.652   2.169   7.952
 3939TIP3   OH233375   6.788   6.350   8.607
 3939TIP3    H133376   6.703   6.379   8.571
 3939TIP3    H233377   6.837   6.322   8.530
 3940TIP3   OH233378   2.589   0.022   1.008
 3940TIP3    H133379   2.594   6.814   0.969
 3940TIP3    H233380   2.548   0.076   0.940
 3941TIP3   OH233381   4.818   5.984   0.542
 3941TIP3    H133382   4.776   5.979   0.627
 3941TIP3    H233383   4.886   5.917   0.544
 3942TIP3   OH233384   5.048   1.992   1.524
 3942TIP3    H133385   5.142   1.977   1.533
 3942TIP3    H233386   5.013   1.984   1.613
 3943TIP3   OH233387   1.234   5.012   6.741
 3943TIP3    H133388   1.297   4.984   6.674
 3943TIP3    H233389   1.285   5.068   6.800
 3944TIP3   OH233390   3.836   1.165   7.629
 3944TIP3    H133391   3.824   1.249   7.672
 3944TIP3    H233392   3.757   1.115   7.649
 3945TIP3   OH233393   5.327   6.460   2.565
 3945TIP3    H133394   5.367   6.375   2.547
 3945TIP3    H233395   5.352   6.515   2.490
 3946TIP3   OH233396   5.627   0.088   6.882
 3946TIP3    H133397   5.720   0.111   6.874
 3946TIP3    H233398   5.597   0.139   6.956
 3947TIP3   OH233399   6.854   1.514   7.680
 3947TIP3    H133400   0.068   1.497   7.690
 3947TIP3    H233401   6.840   1.599   7.721
 3948TIP3   OH233402   5.642   1.295   1.534
 3948TIP3    H133403   5.647   1.250   1.618
 3948TIP3    H233404   5.596   1.234   1.476
 3949TIP3   OH233405   6.149   1.723   8.534
 3949TIP3    H133406   6.120   1.795   8.590
 3949TIP3    H233407   6.156   1.761   8.447
 3950TIP3   OH233408   0.458   3.072   8.401
 3950TIP3    H133409   0.484   3.152   8.355
 3950TIP3    H233410   0.423   3.015   8.333
 3951TIP3   OH233411   0.266   2.981   1.207
 3951TIP3    H133412   0.193   3.033   1.175
 3951TIP3    H233413   0.343   3.038   1.197
 3952TIP3   OH233414   0.186   5.310   1.556
 3952TIP3    H133415   0.262   5.334   1.608
 3952TIP3    H233416   0.152   5.231   1.597
 3953TIP3   OH233417   2.424   3.364   0.358
 3953TIP3    H133418   2.494   3.388   0.297
 3953TIP3    H233419   2.396   3.277   0.329
 3954TIP3   OH233420   6.379   1.699   7.637
 3954TIP3    H133421   6.426   1.747   7.569
 3954TIP3    H233422   6.443   1.635   7.669
 3955TIP3   OH233423   1.144   5.222   7.941
 3955TIP3    H133424   1.064   5.234   7.889
 3955TIP3    H233425   1.183   5.142   7.906
 3956TIP3   OH233426   5.499   0.029   2.650
 3956TIP3    H133427   5.447   0.105   2.624
 3956TIP3    H233428   5.466   6.837   2.595
 3957TIP3   OH233429   4.879   3.229   0.260
 3957TIP3    H133430   4.830   3.194   0.334
 3957TIP3    H233431   4.954   3.273   0.300
 3958TIP3   OH233432   2.947   6.079   7.117
 3958TIP3    H133433   2.959   6.159   7.168
 3958TIP3    H233434   2.869   6.095   7.064
 3959TIP3   OH233435   1.917   5.931   8.322
 3959TIP3    H133436   1.909   5.858   8.260
 3959TIP3    H233437   1.881   6.006   8.276
 3960TIP3   OH233438   2.112   6.382   6.047
 3960TIP3    H133439   2.196   6.393   6.004
 3960TIP3    H233440   2.089   6.290   6.031
 3961TIP3   OH233441   6.324   3.397   7.857
 3961TIP3    H133442   6.287   3.463   7.798
 3961TIP3    H233443   6.413   3.427   7.873
 3962TIP3   OH233444   3.662   0.946   1.073
 3962TIP3    H133445   3.753   0.939   1.045
 3962TIP3    H233446   3.621   1.002   1.007
 3963TIP3   OH233447   3.261   1.212   6.632
 3963TIP3    H133448   3.312   1.248   6.559
 3963TIP3    H233449   3.286   1.265   6.708
 3964TIP3   OH233450   4.082   0.026   0.258
 3964TIP3    H133451   4.146   6.844   0.293
 3964TIP3    H233452   4.024   0.044   0.332
 3965TIP3   OH233453   1.976   6.828   6.541
 3965TIP3    H133454   1.903   6.767   6.547
 3965TIP3    H233455   1.936   0.032   6.518
 3966TIP3   OH233456   5.460   6.584   0.240
 3966TIP3    H133457   5.517   6.523   0.194
 3966TIP3    H233458   5.494   6.586   0.329
 3967TIP3   OH233459   4.337   1.290   2.071
 3967TIP3    H133460   4.413   1.297   2.129
 3967TIP3    H233461   4.336   1.197   2.046
 3968TIP3   OH233462   3.602   0.567   1.356
 3968TIP3    H133463   3.509   0.585   1.340
 3968TIP3    H233464   3.648   0.609   1.283
 3969TIP3   OH233465   5.859   6.625   0.667
 3969TIP3    H133466   5.913   6.702   0.687
 3969TIP3    H233467   5.830   6.640   0.577
 3970TIP3   OH233468   2.810   4.615   1.247
 3970TIP3    H133469   2.837   4.631   1.337
 3970TIP3    H233470   2.770   4.697   1.218
 3971TIP3   OH233471   3.993   6.798   0.931
 3971TIP3    H133472   3.932   6.731   0.959
 3971TIP3    H233473   3.939   6.862   0.884
 3972TIP3   OH233474   1.098   3.050   6.633
 3972TIP3    H133475   1.008   3.075   6.614
 3972TIP3    H233476   1.095   2.957   6.652
 3973TIP3   OH233477   6.031   5.253   7.548
 3973TIP3    H133478   6.072   5.303   7.478
 3973TIP3    H233479   6.016   5.317   7.618
 3974TIP3   OH233480   3.593   4.603   8.204
 3974TIP3    H133481   3.644   4.684   8.192
 3974TIP3    H233482   3.591   4.563   8.118
 3975TIP3   OH233483   3.072   1.800   1.149
 3975TIP3    H133484   2.997   1.837   1.195
 3975TIP3    H233485   3.056   1.706   1.149
 3976TIP3   OH233486   5.219   4.251   1.564
 3976TIP3    H133487   5.214   4.316   1.635
 3976TIP3    H233488   5.182   4.171   1.603
 3977TIP3   OH233489   3.390   6.766   0.936
 3977TIP3    H133490   3.342   6.757   0.854
 3977TIP3    H233491   3.323   6.780   1.003
 3978TIP3   OH233492   0.338   1.780   0.240
 3978TIP3    H133493   0.302   1.704   0.193
 3978TIP3    H233494   0.296   1.776   0.326
 3979TIP3   OH233495   3.654   0.194   0.323
 3979TIP3    H133496   3.619   0.264   0.377
 3979TIP3    H233497   3.724   0.155   0.376
 3980TIP3   OH233498   3.034   2.824   1.122
 3980TIP3    H133499   2.990   2.877   1.189
 3980TIP3    H233500   2.965   2.804   1.059
 3981TIP3   OH233501   5.996   2.112   7.650
 3981TIP3    H133502   5.979   2.136   7.741
 3981TIP3    H233503   6.056   2.038   7.656
 3982TIP3   OH233504   1.325   2.404   6.826
 3982TIP3    H133505   1.294   2.477   6.880
 3982TIP3    H233506   1.324   2.438   6.736
 3983TIP3   OH233507   0.982   4.526   8.373
 3983TIP3    H133508   1.003   4.444   8.416
 3983TIP3    H233509   1.033   4.592   8.421
 3984TIP3   OH233510   6.792   5.450   0.292
 3984TIP3    H133511   6.849   5.382   0.327
 3984TIP3    H233512   6.774   5.423   0.202
 3985TIP3   OH233513   2.926   6.826   8.320
 3985TIP3    H133514   2.870   6.788   8.252
 3985TIP3    H233515   3.008   6.777   8.314
 3986TIP3   OH233516   5.772   2.683   1.080
 3986TIP3    H133517   5.815   2.735   1.148
 3986TIP3    H233518   5.776   2.737   1.001
 3987TIP3   OH233519   2.305   2.014   1.418
 3987TIP3    H133520   2.221   1.970   1.432
 3987TIP3    H233521   2.354   1.999   1.499
 3988TIP3   OH233522   5.685   6.405   7.021
 3988TIP3    H133523   5.608   6.368   6.978
 3988TIP3    H233524   5.680   6.499   7.003
 3989TIP3   OH233525   6.665   6.837   0.495
 3989TIP3    H133526   6.650   6.762   0.438
 3989TIP3    H233527   6.581   0.002   0.499
 3990TIP3   OH233528   2.275   5.833   1.715
 3990TIP3    H133529   2.320   5.782   1.783
 3990TIP3    H233530   2.261   5.771   1.644
 3991TIP3   OH233531   4.872   0.847   8.149
 3991TIP3    H133532   4.907   0.818   8.065
 3991TIP3    H233533   4.902   0.781   8.211
 3992TIP3   OH233534   4.190   1.240   8.023
 3992TIP3    H133535   4.248   1.231   8.099
 3992TIP3    H233536   4.112   1.190   8.046
 3993TIP3   OH233537   1.628   4.841   0.685
 3993TIP3    H133538   1.623   4.746   0.672
 3993TIP3    H233539   1.680   4.873   0.612
 3994TIP3   OH233540   5.412   3.440   0.862
 3994TIP3    H133541   5.420   3.511   0.927
 3994TIP3    H233542   5.324   3.449   0.827
 3995TIP3   OH233543   2.862   0.641   8.248
 3995TIP3    H133544   2.791   0.579   8.235
 3995TIP3    H233545   2.879   0.677   8.161
 3996TIP3   OH233546   4.706   4.023   0.544
 3996TIP3    H133547   4.718   3.982   0.458
 3996TIP3    H233548   4.716   4.116   0.527
 3997TIP3   OH233549   3.249   5.084   0.259
 3997TIP3    H133550   3.337   5.060   0.232
 3997TIP3    H233551   3.192   5.041   0.196
 3998TIP3   OH233552   5.756   6.131   1.789
 3998TIP3    H133553   5.809   6.053   1.807
 3998TIP3    H233554   5.811   6.185   1.732
 3999TIP3   OH233555   2.782   2.425   7.466
 3999TIP3    H133556   2.767   2.393   7.554
 3999TIP3    H233557   2.725   2.371   7.410
 4000TIP3   OH233558   4.632   5.053   1.034
 4000TIP3    H133559   4.548   5.028   0.995
 4000TIP3    H233560   4.677   4.970   1.050
 4001TIP3   OH233561   3.751   0.316   8.419
 4001TIP3    H133562   3.717   0.305   8.330
 4001TIP3    H233563   3.711   0.397   8.450
 4002TIP3   OH233564   0.111   6.680   1.795
 4002TIP3    H133565   0.162   6.599   1.794
 4002TIP3    H233566   0.118   6.712   1.885
 4003TIP3   OH233567   5.765   4.285   1.071
 4003TIP3    H133568   5.711   4.354   1.031
 4003TIP3    H233569   5.839   4.275   1.011
 4004TIP3   OH233570   5.996   5.141   6.837
 4004TIP3    H133571   6.017   5.206   6.770
 4004TIP3    H233572   6.081   5.118   6.876
 4005TIP3   OH233573   6.715   2.292   2.225
 4005TIP3    H133574   6.627   2.266   2.252
 4005TIP3    H233575   6.773   2.231   2.271
 4006TIP3   OH233576   1.533   1.708   1.197
 4006TIP3    H133577   1.491   1.705   1.283
 4006TIP3    H233578   1.540   1.616   1.170
 4007TIP3   OH233579   3.255   5.483   6.626
 4007TIP3    H133580   3.185   5.526   6.578
 4007TIP3    H233581   3.226   5.483   6.717
 4008TIP3   OH233582   6.038   5.229   8.029
 4008TIP3    H133583   5.958   5.182   8.053
 4008TIP3    H233584   6.089   5.233   8.110
 4009TIP3   OH233585   2.671   5.928   8.524
 4009TIP3    H133586   2.599   5.880   8.566
 4009TIP3    H233587   2.655   6.020   8.546
 4010TIP3   OH233588   1.263   1.563   1.579
 4010TIP3    H133589   1.318   1.568   1.657
 4010TIP3    H233590   1.299   1.630   1.521
 4011TIP3   OH233591   1.815   6.656   8.103
 4011TIP3    H133592   1.894   6.657   8.049
 4011TIP3    H233593   1.756   6.720   8.061
 4012TIP3   OH233594   3.298   3.278   6.106
 4012TIP3    H133595   3.314   3.353   6.164
 4012TIP3    H233596   3.256   3.213   6.162
 4013TIP3   OH233597   0.085   4.810   0.107
 4013TIP3    H133598   0.063   4.756   0.183
 4013TIP3    H233599   0.120   4.748   0.043
 4014TIP3   OH233600   2.897   3.040   2.279
 4014TIP3    H133601   2.876   2.966   2.222
 4014TIP3    H233602   2.831   3.105   2.259
 4015TIP3   OH233603   0.363   1.503   0.768
 4015TIP3    H133604   0.279   1.545   0.783
 4015TIP3    H233605   0.342   1.411   0.754
 4016TIP3   OH233606   5.701   3.839   6.967
 4016TIP3    H133607   5.693   3.924   6.924
 4016TIP3    H233608   5.610   3.812   6.983
 4017TIP3   OH233609   0.886   3.904   0.566
 4017TIP3    H133610   0.840   3.821   0.578
 4017TIP3    H233611   0.918   3.900   0.476
 4018TIP3   OH233612   3.398   5.917   0.839
 4018TIP3    H133613   3.474   5.936   0.784
 4018TIP3    H233614   3.372   5.828   0.815
 4019TIP3   OH233615   4.207   4.876   8.607
 4019TIP3    H133616   4.276   4.817   8.578
 4019TIP3    H233617   4.254   4.954   0.015
 4020TIP3   OH233618   1.038   2.473   7.469
 4020TIP3    H133619   0.994   2.542   7.420
 4020TIP3    H233620   0.984   2.395   7.456
 4021TIP3   OH233621   3.862   2.494   7.603
 4021TIP3    H133622   3.772   2.462   7.592
 4021TIP3    H233623   3.893   2.509   7.514
 4022TIP3   OH233624   6.834   6.041   7.159
 4022TIP3    H133625   6.851   6.135   7.169
 4022TIP3    H233626   6.856   6.004   7.244
 4023TIP3   OH233627   5.767   6.365   0.372
 4023TIP3    H133628   5.839   6.347   0.433
 4023TIP3    H233629   5.771   6.460   0.358
 4024TIP3   OH233630   3.992   5.870   1.708
 4024TIP3    H133631   3.909   5.823   1.705
 4024TIP3    H233632   4.013   5.886   1.616
 4025TIP3   OH233633   5.315   0.675   7.288
 4025TIP3    H133634   5.265   0.665   7.369
 4025TIP3    H233635   5.349   0.765   7.293
 4026TIP3   OH233636   2.377   6.650   7.410
 4026TIP3    H133637   2.364   6.558   7.391
 4026TIP3    H233638   2.356   6.695   7.328
 4027TIP3   OH233639   6.588   6.813   7.775
 4027TIP3    H133640   6.504   6.788   7.815
 4027TIP3    H233641   6.589   0.029   7.779
 4028TIP3   OH233642   5.207   6.400   1.821
 4028TIP3    H133643   5.169   6.473   1.869
 4028TIP3    H233644   5.225   6.334   1.887
 4029TIP3   OH233645   1.641   6.177   0.158
 4029TIP3    H133646   1.552   6.144   0.164
 4029TIP3    H233647   1.658   6.186   0.064
 4030TIP3   OH233648   5.932   6.116   1.080
 4030TIP3    H133649   5.881   6.195   1.096
 4030TIP3    H233650   6.020   6.148   1.059
 4031TIP3   OH233651   6.237   3.814   6.597
 4031TIP3    H133652   6.214   3.747   6.661
 4031TIP3    H233653   6.165   3.813   6.534
 4032TIP3   OH233654   3.205   2.827   0.606
 4032TIP3    H133655   3.165   2.896   0.553
 4032TIP3    H233656   3.189   2.747   0.557
 4033TIP3   OH233657   0.152   1.825   1.971
 4033TIP3    H133658   0.191   1.821   2.059
 4033TIP3    H233659   0.206   1.766   1.919
 4034TIP3   OH233660   5.487   3.637   6.653
 4034TIP3    H133661   5.402   3.622   6.694
 4034TIP3    H233662   5.473   3.709   6.592
 4035TIP3   OH233663   3.668   1.968   7.752
 4035TIP3    H133664   3.630   2.013   7.676
 4035TIP3    H233665   3.594   1.958   7.812
 4036TIP3   OH233666   3.742   3.307   0.307
 4036TIP3    H133667   3.762   3.214   0.305
 4036TIP3    H233668   3.667   3.315   0.366
 4037TIP3   OH233669   1.265   5.645   7.800
 4037TIP3    H133670   1.292   5.732   7.770
 4037TIP3    H233671   1.339   5.588   7.780
 4038TIP3   OH233672   4.563   0.891   7.272
 4038TIP3    H133673   4.560   0.983   7.295
 4038TIP3    H233674   4.655   0.874   7.251
 4039TIP3   OH233675   4.621   1.229   0.508
 4039TIP3    H133676   4.665   1.237   0.593
 4039TIP3    H233677   4.691   1.206   0.447
 4040TIP3   OH233678   3.766   4.137   8.445
 4040TIP3    H133679   3.860   4.119   8.444
 4040TIP3    H233680   3.760   4.227   8.412
 4041TIP3   OH233681   2.153   3.182   0.752
 4041TIP3    H133682   2.108   3.131   0.819
 4041TIP3    H233683   2.108   3.157   0.670
 4042TIP3   OH233684   6.074   1.183   2.062
 4042TIP3    H133685   6.078   1.174   2.158
 4042TIP3    H233686   6.165   1.174   2.034
 4043TIP3   OH233687   1.050   0.610   7.121
 4043TIP3    H133688   1.045   0.562   7.204
 4043TIP3    H233689   1.120   0.567   7.072
 4044TIP3   OH233690   1.561   4.020   6.932
 4044TIP3    H133691   1.653   4.025   6.904
 4044TIP3    H233692   1.566   4.015   7.028
 4045TIP3   OH233693   2.175   3.973   0.976
 4045TIP3    H133694   2.129   3.890   0.974
 4045TIP3    H233695   2.107   4.039   0.991
 4046TIP3   OH233696   1.818   3.336   7.548
 4046TIP3    H133697   1.783   3.306   7.464
 4046TIP3    H233698   1.741   3.368   7.596
 4047TIP3   OH233699   0.179   1.041   1.773
 4047TIP3    H133700   0.234   1.113   1.741
 4047TIP3    H233701   0.105   1.085   1.816
 4048TIP3   OH233702   6.862   0.283   7.190
 4048TIP3    H133703   0.058   0.227   7.171
 4048TIP3    H233704   6.874   0.360   7.134
 4049TIP3   OH233705   5.773   0.343   7.678
 4049TIP3    H133706   5.818   0.342   7.593
 4049TIP3    H233707   5.714   0.418   7.673
 4050TIP3   OH233708   6.092   1.376   1.730
 4050TIP3    H133709   6.184   1.395   1.714
 4050TIP3    H233710   6.045   1.423   1.662
 4051TIP3   OH233711   3.023   6.309   7.248
 4051TIP3    H133712   3.019   6.404   7.239
 4051TIP3    H233713   3.077   6.294   7.326
 4052TIP3   OH233714   3.345   3.131   0.505
 4052TIP3    H133715   3.341   3.216   0.462
 4052TIP3    H233716   3.263   3.088   0.479
 4053TIP3   OH233717   3.429   4.024   1.432
 4053TIP3    H133718   3.425   4.099   1.491
 4053TIP3    H233719   3.375   3.957   1.474
 4054TIP3   OH233720   6.698   4.414   0.408
 4054TIP3    H133721   6.661   4.481   0.467
 4054TIP3    H233722   6.773   4.380   0.456
 4055TIP3   OH233723   3.813   3.508   6.903
 4055TIP3    H133724   3.763   3.501   6.822
 4055TIP3    H233725   3.758   3.465   6.969
 4056TIP3   OH233726   3.332   2.047   1.779
 4056TIP3    H133727   3.250   2.054   1.828
 4056TIP3    H233728   3.363   2.137   1.770
 4057TIP3   OH233729   0.603   3.749   6.132
 4057TIP3    H133730   0.593   3.654   6.124
 4057TIP3    H233731   0.693   3.767   6.104
 4058TIP3   OH233732   5.827   0.697   8.189
 4058TIP3    H133733   5.743   0.699   8.144
 4058TIP3    H233734   5.889   0.664   8.124
 4059TIP3   OH233735   4.724   1.777   7.786
 4059TIP3    H133736   4.633   1.753   7.805
 4059TIP3    H233737   4.764   1.696   7.755
 4060TIP3   OH233738   0.293   4.712   1.048
 4060TIP3    H133739   0.310   4.806   1.054
 4060TIP3    H233740   0.378   4.673   1.028
 4061TIP3   OH233741   3.230   4.988   7.626
 4061TIP3    H133742   3.285   5.061   7.596
 4061TIP3    H233743   3.287   4.911   7.620
 4062TIP3   OH233744   0.302   6.479   1.767
 4062TIP3    H133745   0.361   6.524   1.707
 4062TIP3    H233746   0.234   6.443   1.711
 4063TIP3   OH233747   2.922   2.713   0.445
 4063TIP3    H133748   3.005   2.696   0.488
 4063TIP3    H233749   2.932   2.799   0.404
 4064TIP3   OH233750   2.220   2.404   7.492
 4064TIP3    H133751   2.273   2.372   7.418
 4064TIP3    H233752   2.177   2.325   7.526
 4065TIP3   OH233753   3.355   0.341   1.936
 4065TIP3    H133754   3.395   0.304   1.857
 4065TIP3    H233755   3.285   0.279   1.958
 4066TIP3   OH233756   3.829   0.983   1.568
 4066TIP3    H133757   3.850   1.056   1.510
 4066TIP3    H233758   3.821   0.907   1.509
 4067TIP3   OH233759   2.270   2.152   8.472
 4067TIP3    H133760   2.244   2.122   8.385
 4067TIP3    H233761   2.359   2.185   8.460
 4068TIP3   OH233762   4.095   5.266   7.311
 4068TIP3    H133763   4.019   5.322   7.323
 4068TIP3    H233764   4.099   5.250   7.217
 4069TIP3   OH233765   0.250   0.916   6.695
 4069TIP3    H133766   0.244   0.934   6.601
 4069TIP3    H233767   0.333   0.955   6.722
 4070TIP3   OH233768   4.865   2.765   7.649
 4070TIP3    H133769   4.900   2.680   7.622
 4070TIP3    H233770   4.813   2.794   7.574
 4071TIP3   OH233771   6.110   3.631   6.757
 4071TIP3    H133772   6.035   3.576   6.733
 4071TIP3    H233773   6.117   3.620   6.852
 4072TIP3   OH233774   0.514   0.405   0.590
 4072TIP3    H133775   0.441   0.460   0.618
 4072TIP3    H233776   0.567   0.393   0.669
 4073TIP3   OH233777   3.692   0.470   7.284
 4073TIP3    H133778   3.676   0.455   7.377
 4073TIP3    H233779   3.606   0.491   7.248
 4074TIP3   OH233780   3.284   4.292   0.759
 4074TIP3    H133781   3.354   4.290   0.694
 4074TIP3    H233782   3.299   4.214   0.813
 4075TIP3   OH233783   0.028   4.226   1.596
 4075TIP3    H133784   0.034   4.280   1.517
 4075TIP3    H233785   0.048   4.286   1.668
 4076TIP3   OH233786   1.802   0.670   0.869
 4076TIP3    H133787   1.824   0.753   0.826
 4076TIP3    H233788   1.761   0.617   0.801
 4077TIP3   OH233789   4.318   0.137   7.225
 4077TIP3    H133790   4.237   0.097   7.195
 4077TIP3    H233791   4.291   0.197   7.295
 4078TIP3   OH233792   6.626   5.674   6.741
 4078TIP3    H133793   6.689   5.680   6.670
 4078TIP3    H233794   6.541   5.685   6.699
 4079TIP3   OH233795   6.572   5.641   7.572
 4079TIP3    H133796   6.590   5.564   7.518
 4079TIP3    H233797   6.637   5.706   7.543
 4080TIP3   OH233798   0.566   6.110   8.406
 4080TIP3    H133799   0.642   6.164   8.429
 4080TIP3    H233800   0.575   6.032   8.460
 4081TIP3   OH233801   5.000   3.717   7.509
 4081TIP3    H133802   4.956   3.649   7.458
 4081TIP3    H233803   5.061   3.757   7.447
 4082TIP3   OH233804   4.488   6.182   6.706
 4082TIP3    H133805   4.558   6.245   6.689
 4082TIP3    H233806   4.532   6.106   6.743
 4083TIP3   OH233807   5.649   2.660   6.972
 4083TIP3    H133808   5.731   2.621   6.941
 4083TIP3    H233809   5.674   2.748   7.001
 4084TIP3   OH233810   0.796   1.620   8.254
 4084TIP3    H133811   0.798   1.714   8.233
 4084TIP3    H233812   0.889   1.595   8.261
 4085TIP3   OH233813   2.008   1.083   6.705
 4085TIP3    H133814   2.071   1.011   6.697
 4085TIP3    H233815   2.041   1.135   6.779
 4086TIP3   OH233816   0.818   2.964   7.934
 4086TIP3    H133817   0.884   2.932   7.996
 4086TIP3    H233818   0.734   2.949   7.978
 4087TIP3   OH233819   2.307   6.514   6.787
 4087TIP3    H133820   2.229   6.558   6.755
 4087TIP3    H233821   2.374   6.532   6.721
 4088TIP3   OH233822   0.142   0.707   6.482
 4088TIP3    H133823   0.048   0.692   6.473
 4088TIP3    H233824   0.153   0.800   6.463
 4089TIP3   OH233825   5.565   0.514   7.302
 4089TIP3    H133826   5.521   0.436   7.337
 4089TIP3    H233827   5.497   0.581   7.301
 4090TIP3   OH233828   2.552   2.386   1.495
 4090TIP3    H133829   2.615   2.450   1.527
 4090TIP3    H233830   2.544   2.322   1.565
 4091TIP3   OH233831   4.629   0.045   7.275
 4091TIP3    H133832   4.572   0.106   7.322
 4091TIP3    H233833   4.596   6.838   7.298
 4092TIP3   OH233834   3.904   0.092   0.472
 4092TIP3    H133835   3.858   0.053   0.546
 4092TIP3    H233836   3.960   0.159   0.510
 4093TIP3   OH233837   6.355   1.987   0.444
 4093TIP3    H133838   6.343   1.979   0.349
 4093TIP3    H233839   6.450   1.992   0.455
 4094TIP3   OH233840   0.182   4.467   2.011
 4094TIP3    H133841   0.272   4.499   2.012
 4094TIP3    H233842   0.165   4.438   2.100
 4095TIP3   OH233843   1.598   5.152   0.745
 4095TIP3    H133844   1.611   5.073   0.692
 4095TIP3    H233845   1.503   5.164   0.747
 4096TIP3   OH233846   4.623   1.764   7.357
 4096TIP3    H133847   4.718   1.770   7.346
 4096TIP3    H233848   4.604   1.819   7.433
 4097TIP3   OH233849   0.301   4.515   0.258
 4097TIP3    H133850   0.380   4.542   0.305
 4097TIP3    H233851   0.329   4.506   0.167
 4098TIP3   OH233852   4.644   3.326   0.428
 4098TIP3    H133853   4.666   3.293   0.515
 4098TIP3    H233854   4.590   3.257   0.389
 4099TIP3   OH233855   1.126   0.537   7.426
 4099TIP3    H133856   1.156   0.460   7.474
 4099TIP3    H233857   1.031   0.525   7.418
 4100TIP3   OH233858   5.026   1.402   7.248
 4100TIP3    H133859   5.050   1.483   7.203
 4100TIP3    H233860   4.942   1.377   7.209
 4101TIP3   OH233861   6.248   0.473   8.237
 4101TIP3    H133862   6.173   0.508   8.284
 4101TIP3    H233863   6.213   0.400   8.186
 4102TIP3   OH233864   1.076   1.202   1.168
 4102TIP3    H133865   1.114   1.245   1.091
 4102TIP3    H233866   0.996   1.161   1.137
 4103TIP3   OH233867   6.731   4.608   7.796
 4103TIP3    H133868   6.774   4.623   7.712
 4103TIP3    H233869   6.697   4.694   7.821
 4104TIP3   OH233870   2.947   2.366   6.396
 4104TIP3    H133871   2.938   2.385   6.302
 4104TIP3    H233872   2.989   2.444   6.433
 4105TIP3   OH233873   4.688   5.873   1.759
 4105TIP3    H133874   4.715   5.958   1.726
 4105TIP3    H233875   4.592   5.875   1.755
 4106TIP3   OH233876   3.961   4.743   7.821
 4106TIP3    H133877   3.918   4.827   7.839
 4106TIP3    H233878   3.895   4.677   7.841
 4107TIP3   OH233879   0.017   6.268   2.578
 4107TIP3    H133880   0.085   6.324   2.616
 4107TIP3    H233881   6.864   6.317   2.503
 4108TIP3   OH233882   4.250   5.755   6.991
 4108TIP3    H133883   4.212   5.824   6.936
 4108TIP3    H233884   4.244   5.676   6.937
 4109TIP3   OH233885   3.192   5.505   0.446
 4109TIP3    H133886   3.231   5.420   0.468
 4109TIP3    H233887   3.097   5.490   0.452
 4110TIP3   OH233888   4.187   3.257   0.918
 4110TIP3    H133889   4.226   3.335   0.958
 4110TIP3    H233890   4.108   3.240   0.969
 4111TIP3   OH233891   0.771   3.952   7.677
 4111TIP3    H133892   0.864   3.936   7.657
 4111TIP3    H233893   0.745   4.018   7.613
 4112TIP3   OH233894   4.214   2.907   1.590
 4112TIP3    H133895   4.244   2.875   1.505
 4112TIP3    H233896   4.259   2.991   1.601
 4113TIP3   OH233897   1.660   6.093   8.516
 4113TIP3    H133898   1.595   6.086   8.446
 4113TIP3    H233899   1.699   6.005   8.521
 4114TIP3   OH233900   5.143   6.269   7.276
 4114TIP3    H133901   5.197   6.207   7.227
 4114TIP3    H233902   5.085   6.213   7.328
 4115TIP3   OH233903   3.389   1.893   7.017
 4115TIP3    H133904   3.338   1.892   6.936
 4115TIP3    H233905   3.405   1.801   7.036
 4116TIP3   OH233906   2.193   4.563   7.855
 4116TIP3    H133907   2.218   4.535   7.767
 4116TIP3    H233908   2.129   4.633   7.841
 4117TIP3   OH233909   3.407   3.566   0.818
 4117TIP3    H133910   3.361   3.502   0.764
 4117TIP3    H233911   3.435   3.634   0.757
 4118TIP3   OH233912   0.214   5.165   7.113
 4118TIP3    H133913   0.142   5.173   7.051
 4118TIP3    H233914   0.173   5.138   7.195
 4119TIP3   OH233915   1.999   0.749   0.508
 4119TIP3    H133916   1.997   0.722   0.600
 4119TIP3    H233917   2.066   0.817   0.504
 4120TIP3   OH233918   5.739   3.967   0.530
 4120TIP3    H133919   5.761   4.036   0.468
 4120TIP3    H233920   5.648   3.985   0.554
 4121TIP3   OH233921   1.165   4.181   7.839
 4121TIP3    H133922   1.227   4.156   7.907
 4121TIP3    H233923   1.207   4.254   7.793
 4122TIP3   OH233924   5.430   0.862   7.714
 4122TIP3    H133925   5.402   0.771   7.723
 4122TIP3    H233926   5.512   0.858   7.665
 4123TIP3   OH233927   1.735   4.527   7.096
 4123TIP3    H133928   1.676   4.499   7.165
 4123TIP3    H233929   1.723   4.463   7.026
 4124TIP3   OH233930   4.582   3.248   1.387
 4124TIP3    H133931   4.617   3.211   1.467
 4124TIP3    H233932   4.542   3.331   1.414
 4125TIP3   OH233933   1.992   3.825   1.207
 4125TIP3    H133934   2.077   3.860   1.235
 4125TIP3    H233935   1.928   3.889   1.237
 4126TIP3   OH233936   4.093   0.724   0.193
 4126TIP3    H133937   4.006   0.742   0.229
 4126TIP3    H233938   4.077   0.664   0.120
 4127TIP3   OH233939   3.865   2.081   0.405
 4127TIP3    H133940   3.856   2.145   0.476
 4127TIP3    H233941   3.888   2.133   0.328
 4128TIP3   OH233942   3.496   2.609   0.798
 4128TIP3    H133943   3.510   2.673   0.868
 4128TIP3    H233944   3.579   2.563   0.791
 4129TIP3   OH233945   2.932   1.096   0.670
 4129TIP3    H133946   2.955   1.082   0.762
 4129TIP3    H233947   2.933   1.008   0.631
 4130TIP3   OH233948   4.692   6.705   8.609
 4130TIP3    H133949   4.675   6.727   0.077
 4130TIP3    H233950   4.788   6.704   8.602
 4131TIP3   OH233951   5.423   1.581   6.643
 4131TIP3    H133952   5.360   1.607   6.576
 4131TIP3    H233953   5.447   1.491   6.621
 4132TIP3   OH233954   6.110   2.903   1.762
 4132TIP3    H133955   6.175   2.954   1.713
 4132TIP3    H233956   6.026   2.930   1.724
 4133TIP3   OH233957   3.258   2.099   6.593
 4133TIP3    H133958   3.227   2.049   6.517
 4133TIP3    H233959   3.281   2.185   6.557
 4134TIP3   OH233960   1.758   3.796   7.865
 4134TIP3    H133961   1.712   3.736   7.924
 4134TIP3    H233962   1.850   3.773   7.876
 4135TIP3   OH233963   4.317   4.328   7.975
 4135TIP3    H133964   4.264   4.401   8.006
 4135TIP3    H233965   4.311   4.334   7.879
 4136TIP3   OH233966   3.414   0.907   8.276
 4136TIP3    H133967   3.478   0.888   8.345
 4136TIP3    H233968   3.334   0.864   8.305
 4137TIP3   OH233969   4.548   0.307   0.715
 4137TIP3    H133970   4.544   0.281   0.807
 4137TIP3    H233971   4.641   0.305   0.694
 4138TIP3   OH233972   5.389   4.639   6.907
 4138TIP3    H133973   5.347   4.554   6.919
 4138TIP3    H233974   5.441   4.628   6.827
 4139TIP3   OH233975   0.358   5.907   6.449
 4139TIP3    H133976   0.315   5.878   6.529
 4139TIP3    H233977   0.431   5.847   6.437
 4140TIP3   OH233978   0.434   0.406   7.396
 4140TIP3    H133979   0.464   0.348   7.326
 4140TIP3    H233980   0.413   0.347   7.469
 4141TIP3   OH233981   1.357   0.122   8.077
 4141TIP3    H133982   1.325   0.202   8.119
 4141TIP3    H233983   1.328   0.052   8.135
 4142TIP3   OH233984   5.516   3.428   8.322
 4142TIP3    H133985   5.520   3.333   8.328
 4142TIP3    H233986   5.566   3.450   8.244
 4143TIP3   OH233987   1.714   1.215   8.040
 4143TIP3    H133988   1.719   1.206   8.135
 4143TIP3    H233989   1.718   1.309   8.024
 4144TIP3   OH233990   0.204   5.044   0.233
 4144TIP3    H133991   0.256   4.981   0.284
 4144TIP3    H233992   0.128   4.995   0.204
 4145TIP3   OH233993   6.773   5.772   7.030
 4145TIP3    H133994   6.797   5.847   7.085
 4145TIP3    H233995   6.819   5.787   6.947
 4146TIP3   OH233996   3.860   5.853   0.326
 4146TIP3    H133997   3.816   5.939   0.327
 4146TIP3    H233998   3.841   5.816   0.412
 4147TIP3   OH233999   1.684   6.332   7.980
 4147TIP3    H134000   1.608   6.366   8.028
 4147TIP3    H234001   1.704   6.400   7.916
 4148TIP3   OH234002   3.711   4.597   6.726
 4148TIP3    H134003   3.747   4.588   6.637
 4148TIP3    H234004   3.786   4.625   6.778
 4149TIP3   OH234005   2.456   4.322   1.390
 4149TIP3    H134006   2.523   4.294   1.327
 4149TIP3    H234007   2.498   4.393   1.439
 4150TIP3   OH234008   3.806   5.704   1.574
 4150TIP3    H134009   3.756   5.627   1.549
 4150TIP3    H234010   3.810   5.757   1.494
 4151TIP3   OH234011   5.987   0.941   7.518
 4151TIP3    H134012   6.066   0.991   7.497
 4151TIP3    H234013   5.946   0.923   7.434
 4152TIP3   OH234014   5.087   4.866   7.290
 4152TIP3    H134015   5.069   4.824   7.206
 4152TIP3    H234016   5.015   4.838   7.347
 4153TIP3   OH234017   2.785   2.824   8.185
 4153TIP3    H134018   2.878   2.805   8.196
 4153TIP3    H234019   2.782   2.887   8.114
 4154TIP3   OH234020   3.555   1.845   8.513
 4154TIP3    H134021   3.640   1.824   8.553
 4154TIP3    H234022   3.511   1.900   8.578
 4155TIP3   OH234023   4.630   4.529   0.380
 4155TIP3    H134024   4.687   4.569   0.314
 4155TIP3    H234025   4.542   4.533   0.341
 4156TIP3   OH234026   6.705   3.705   1.517
 4156TIP3    H134027   6.634   3.674   1.460
 4156TIP3    H234028   6.746   3.775   1.467
 4157TIP3   OH234029   1.976   4.625   7.186
 4157TIP3    H134030   1.898   4.598   7.136
 4157TIP3    H234031   2.040   4.556   7.168
 4158TIP3   OH234032   0.240   3.625   0.021
 4158TIP3    H134033   0.315   3.654   8.593
 4158TIP3    H234034   0.182   3.583   8.582
 4159TIP3   OH234035   2.203   3.079   0.503
 4159TIP3    H134036   2.299   3.082   0.499
 4159TIP3    H234037   2.182   2.988   0.522
 4160TIP3   OH234038   0.286   5.745   0.439
 4160TIP3    H134039   0.260   5.835   0.419
 4160TIP3    H234040   0.361   5.755   0.497
 4161TIP3   OH234041   6.718   1.448   8.207
 4161TIP3    H134042   6.648   1.406   8.158
 4161TIP3    H234043   6.782   1.474   8.141
 4162TIP3   OH234044   2.708   1.082   7.094
 4162TIP3    H134045   2.697   1.177   7.105
 4162TIP3    H234046   2.668   1.063   7.009
 4163TIP3   OH234047   2.960   0.060   6.290
 4163TIP3    H134048   2.866   0.060   6.271
 4163TIP3    H234049   3.000   0.020   6.213
 4164TIP3   OH234050   1.069   4.170   7.461
 4164TIP3    H134051   1.002   4.214   7.514
 4164TIP3    H234052   1.134   4.139   7.525
 4165TIP3   OH234053   0.700   4.678   0.966
 4165TIP3    H134054   0.646   4.600   0.954
 4165TIP3    H234055   0.659   4.745   0.911
 4166TIP3   OH234056   5.190   0.198   7.216
 4166TIP3    H134057   5.166   0.265   7.152
 4166TIP3    H234058   5.144   0.225   7.296
 4167TIP3   OH234059   3.772   6.728   1.772
 4167TIP3    H134060   3.790   6.712   1.679
 4167TIP3    H234061   3.853   6.766   1.806
 4168TIP3   OH234062   3.082   4.226   7.227
 4168TIP3    H134063   3.062   4.134   7.246
 4168TIP3    H234064   3.162   4.243   7.277
 4169TIP3   OH234065   1.896   3.383   0.654
 4169TIP3    H134066   1.873   3.290   0.665
 4169TIP3    H234067   1.958   3.384   0.582
 4170TIP3   OH234068   2.865   1.227   1.271
 4170TIP3    H134069   2.778   1.187   1.268
 4170TIP3    H234070   2.926   1.154   1.265
 4171TIP3   OH234071   2.918   4.863   0.975
 4171TIP3    H134072   2.832   4.902   0.960
 4171TIP3    H234073   2.919   4.785   0.920
 4172TIP3   OH234074   4.673   3.784   8.496
 4172TIP3    H134075   4.655   3.859   8.439
 4172TIP3    H234076   4.737   3.732   8.448
 4173TIP3   OH234077   4.815   0.713   2.548
 4173TIP3    H134078   4.864   0.641   2.509
 4173TIP3    H234079   4.723   0.690   2.534
 4174TIP3   OH234080   1.316   3.867   6.154
 4174TIP3    H134081   1.255   3.932   6.120
 4174TIP3    H234082   1.374   3.916   6.213
 4175TIP3   OH234083   2.193   5.950   8.214
 4175TIP3    H134084   2.138   5.921   8.287
 4175TIP3    H234085   2.268   5.890   8.216
 4176TIP3   OH234086   3.445   3.206   1.486
 4176TIP3    H134087   3.418   3.259   1.561
 4176TIP3    H234088   3.531   3.172   1.510
 4177TIP3   OH234089   5.783   1.818   0.808
 4177TIP3    H134090   5.871   1.847   0.831
 4177TIP3    H234091   5.783   1.724   0.825
 4178TIP3   OH234092   3.764   4.361   1.603
 4178TIP3    H134093   3.717   4.331   1.525
 4178TIP3    H234094   3.798   4.280   1.642
 4179TIP3   OH234095   4.220   4.811   0.444
 4179TIP3    H134096   4.146   4.868   0.421
 4179TIP3    H234097   4.284   4.825   0.374
 4180TIP3   OH234098   2.940   2.258   1.177
 4180TIP3    H134099   2.879   2.332   1.182
 4180TIP3    H234100   2.892   2.186   1.219
 4181TIP3   OH234101   5.749   5.946   6.703
 4181TIP3    H134102   5.721   5.854   6.702
 4181TIP3    H234103   5.687   5.990   6.645
 4182TIP3   OH234104   6.269   3.969   7.928
 4182TIP3    H134105   6.209   3.923   7.869
 4182TIP3    H234106   6.356   3.940   7.902
 4183TIP3   OH234107   6.430   0.512   0.896
 4183TIP3    H134108   6.486   0.580   0.933
 4183TIP3    H234109   6.388   0.472   0.972
 4184TIP3   OH234110   6.426   2.263   1.278
 4184TIP3    H134111   6.337   2.228   1.278
 4184TIP3    H234112   6.482   2.187   1.262
 4185TIP3   OH234113   5.752   5.299   6.741
 4185TIP3    H134114   5.805   5.256   6.674
 4185TIP3    H234115   5.752   5.237   6.814
 4186TIP3   OH234116   3.466   3.645   1.951
 4186TIP3    H134117   3.529   3.659   1.880
 4186TIP3    H234118   3.513   3.588   2.012
 4187TIP3   OH234119   6.801   4.589   7.217
 4187TIP3    H134120   0.017   4.585   7.219
 4187TIP3    H234121   6.780   4.671   7.261
 4188TIP3   OH234122   2.294   4.815   0.927
 4188TIP3    H134123   2.206   4.798   0.895
 4188TIP3    H234124   2.334   4.869   0.858
 4189TIP3   OH234125   2.833   3.538   7.522
 4189TIP3    H134126   2.835   3.480   7.446
 4189TIP3    H234127   2.740   3.552   7.539
 4190TIP3   OH234128   5.785   2.410   8.463
 4190TIP3    H134129   5.761   2.347   8.395
 4190TIP3    H234130   5.756   2.494   8.428
 4191TIP3   OH234131   5.148   4.152   7.531
 4191TIP3    H134132   5.104   4.068   7.518
 4191TIP3    H234133   5.158   4.187   7.443
 4192TIP3   OH234134   5.844   2.665   0.346
 4192TIP3    H134135   5.924   2.699   0.307
 4192TIP3    H234136   5.796   2.627   0.273
 4193TIP3   OH234137   5.781   1.877   0.533
 4193TIP3    H134138   5.870   1.886   0.499
 4193TIP3    H234139   5.793   1.861   0.627
 4194TIP3   OH234140   5.007   6.480   7.180
 4194TIP3    H134141   5.053   6.405   7.216
 4194TIP3    H234142   5.035   6.484   7.088
 4195TIP3   OH234143   2.914   2.962   8.422
 4195TIP3    H134144   2.945   2.919   8.342
 4195TIP3    H234145   2.987   2.954   8.483
 4196TIP3   OH234146   6.306   1.407   7.471
 4196TIP3    H134147   6.345   1.438   7.553
 4196TIP3    H234148   6.363   1.337   7.443
 4197TIP3   OH234149   2.693   2.621   0.699
 4197TIP3    H134150   2.695   2.547   0.638
 4197TIP3    H234151   2.777   2.665   0.686
 4198TIP3   OH234152   4.510   6.365   7.421
 4198TIP3    H134153   4.594   6.333   7.387
 4198TIP3    H234154   4.515   6.350   7.515
 4199TIP3   OH234155   1.136   1.454   8.479
 4199TIP3    H134156   1.184   1.534   8.457
 4199TIP3    H234157   1.044   1.481   8.480
 4200TIP3   OH234158   4.457   5.172   1.601
 4200TIP3    H134159   4.375   5.151   1.557
 4200TIP3    H234160   4.434   5.173   1.694
 4201TIP3   OH234161   4.075   3.332   7.244
 4201TIP3    H134162   4.091   3.332   7.150
 4201TIP3    H234163   4.007   3.398   7.257
 4202TIP3   OH234164   2.296   4.662   0.452
 4202TIP3    H134165   2.277   4.606   0.527
 4202TIP3    H234166   2.239   4.738   0.463
 4203TIP3   OH234167   0.277   5.095   1.037
 4203TIP3    H134168   0.202   5.049   0.999
 4203TIP3    H234169   0.353   5.043   1.011
 4204TIP3   OH234170   0.387   5.107   7.349
 4204TIP3    H134171   0.412   5.017   7.328
 4204TIP3    H234172   0.294   5.100   7.373
 4205TIP3   OH234173   3.659   0.631   7.651
 4205TIP3    H134174   3.738   0.646   7.703
 4205TIP3    H234175   3.610   0.713   7.657
 4206TIP3   OH234176   3.009   1.371   0.305
 4206TIP3    H134177   3.034   1.451   0.352
 4206TIP3    H234178   2.916   1.383   0.285
 4207TIP3   OH234179   5.354   2.768   8.218
 4207TIP3    H134180   5.283   2.714   8.184
 4207TIP3    H234181   5.319   2.857   8.218
 4208TIP3   OH234182   3.926   5.245   0.153
 4208TIP3    H134183   3.870   5.305   0.104
 4208TIP3    H234184   3.994   5.219   0.090
 4209TIP3   OH234185   2.349   5.710   1.951
 4209TIP3    H134186   2.389   5.650   1.888
 4209TIP3    H234187   2.303   5.653   2.013
 4210TIP3   OH234188   5.315   3.297   7.141
 4210TIP3    H134189   5.306   3.276   7.048
 4210TIP3    H234190   5.293   3.390   7.146
 4211TIP3   OH234191   5.978   4.404   8.036
 4211TIP3    H134192   5.896   4.386   8.082
 4211TIP3    H234193   6.047   4.383   8.100
 4212TIP3   OH234194   2.440   3.693   0.951
 4212TIP3    H134195   2.486   3.763   0.904
 4212TIP3    H234196   2.349   3.700   0.921
 4213TIP3   OH234197   3.001   0.447   0.866
 4213TIP3    H134198   2.961   0.528   0.835
 4213TIP3    H234199   3.071   0.476   0.925
 4214TIP3   OH234200   6.602   0.664   1.714
 4214TIP3    H134201   6.613   0.569   1.725
 4214TIP3    H234202   6.508   0.675   1.698
 4215TIP3   OH234203   0.898   4.299   2.319
 4215TIP3    H134204   0.954   4.238   2.368
 4215TIP3    H234205   0.849   4.243   2.259
 4216TIP3   OH234206   6.416   2.595   6.471
 4216TIP3    H134207   6.335   2.545   6.458
 4216TIP3    H234208   6.485   2.539   6.437
 4217TIP3   OH234209   5.571   2.220   1.097
 4217TIP3    H134210   5.522   2.190   1.173
 4217TIP3    H234211   5.602   2.139   1.055
 4218TIP3   OH234212   1.424   0.278   2.173
 4218TIP3    H134213   1.349   0.249   2.120
 4218TIP3    H234214   1.500   0.238   2.129
 4219TIP3   OH234215   5.482   3.153   7.331
 4219TIP3    H134216   5.460   3.203   7.252
 4219TIP3    H234217   5.428   3.193   7.399
 4220TIP3   OH234218   1.899   1.057   7.928
 4220TIP3    H134219   1.982   1.099   7.906
 4220TIP3    H234220   1.841   1.129   7.954
 4221TIP3   OH234221   0.615   2.848   6.606
 4221TIP3    H134222   0.635   2.757   6.585
 4221TIP3    H234223   0.608   2.891   6.521
 4222TIP3   OH234224   0.671   5.569   7.942
 4222TIP3    H134225   0.697   5.585   7.852
 4222TIP3    H234226   0.729   5.499   7.972
 4223TIP3   OH234227   3.002   4.240   0.703
 4223TIP3    H134228   2.990   4.331   0.676
 4223TIP3    H234229   3.091   4.236   0.738
 4224TIP3   OH234230   4.342   4.851   7.766
 4224TIP3    H134231   4.414   4.840   7.829
 4224TIP3    H234232   4.268   4.878   7.820
 4225TIP3   OH234233   1.149   0.939   8.367
 4225TIP3    H134234   1.115   0.881   8.299
 4225TIP3    H234235   1.076   0.999   8.386
 4226TIP3   OH234236   4.068   4.055   0.164
 4226TIP3    H134237   4.107   4.139   0.139
 4226TIP3    H234238   3.975   4.074   0.176
 4227TIP3   OH234239   3.324   0.290   0.702
 4227TIP3    H134240   3.276   0.208   0.697
 4227TIP3    H234241   3.309   0.333   0.618
 4228TIP3   OH234242   6.274   4.706   1.873
 4228TIP3    H134243   6.199   4.725   1.930
 4228TIP3    H234244   6.253   4.620   1.835
 4229TIP3   OH234245   6.519   5.544   1.958
 4229TIP3    H134246   6.494   5.626   2.001
 4229TIP3    H234247   6.508   5.477   2.025
 4230TIP3   OH234248   4.183   3.489   6.163
 4230TIP3    H134249   4.248   3.427   6.128
 4230TIP3    H234250   4.122   3.434   6.212
 4231TIP3   OH234251   1.949   2.368   1.565
 4231TIP3    H134252   1.941   2.384   1.471
 4231TIP3    H234253   1.867   2.324   1.589
 4232TIP3   OH234254   5.246   0.450   0.280
 4232TIP3    H134255   5.186   0.505   0.229
 4232TIP3    H234256   5.189   0.387   0.324
 4233TIP3   OH234257   0.297   3.418   6.915
 4233TIP3    H134258   0.266   3.350   6.855
 4233TIP3    H234259   0.218   3.468   6.938
 4234TIP3   OH234260   4.676   5.010   1.582
 4234TIP3    H134261   4.635   4.924   1.595
 4234TIP3    H234262   4.607   5.073   1.605
 4235TIP3   OH234263   4.463   0.843   8.207
 4235TIP3    H134264   4.477   0.748   8.206
 4235TIP3    H234265   4.513   0.876   8.133
 4236TIP3   OH234266   5.061   1.338   7.766
 4236TIP3    H134267   5.091   1.247   7.763
 4236TIP3    H234268   5.079   1.372   7.678
 4237TIP3   OH234269   2.893   2.763   0.116
 4237TIP3    H134270   2.850   2.796   0.195
 4237TIP3    H234271   2.922   2.676   0.140
 4238TIP3   OH234272   6.846   6.799   0.091
 4238TIP3    H134273   6.823   6.837   0.006
 4238TIP3    H234274   6.775   6.738   0.110
 4239TIP3   OH234275   4.475   2.572   2.429
 4239TIP3    H134276   4.489   2.666   2.414
 4239TIP3    H234277   4.559   2.541   2.463
 4240TIP3   OH234278   6.713   6.581   0.420
 4240TIP3    H134279   6.801   6.547   0.436
 4240TIP3    H234280   6.656   6.504   0.425
 4241TIP3   OH234281   4.437   1.394   1.102
 4241TIP3    H134282   4.512   1.402   1.043
 4241TIP3    H234283   4.387   1.475   1.087
 4242TIP3   OH234284   3.058   4.018   6.095
 4242TIP3    H134285   3.112   4.048   6.023
 4242TIP3    H234286   3.096   3.934   6.120
 4243TIP3   OH234287   3.826   3.634   1.571
 4243TIP3    H134288   3.828   3.553   1.521
 4243TIP3    H234289   3.861   3.700   1.512
 4244TIP3   OH234290   1.627   2.303   0.610
 4244TIP3    H134291   1.701   2.344   0.565
 4244TIP3    H234292   1.659   2.217   0.635
 4245TIP3   OH234293   6.559   2.124   0.026
 4245TIP3    H134294   6.489   2.185   0.050
 4245TIP3    H234295   6.556   2.056   0.093
 4246TIP3   OH234296   1.261   2.919   0.905
 4246TIP3    H134297   1.239   3.000   0.859
 4246TIP3    H234298   1.233   2.934   0.995
 4247TIP3   OH234299   3.419   0.699   0.156
 4247TIP3    H134300   3.345   0.643   0.180
 4247TIP3    H234301   3.384   0.788   0.160
 4248TIP3   OH234302   2.881   3.151   1.869
 4248TIP3    H134303   2.922   3.190   1.946
 4248TIP3    H234304   2.917   3.200   1.795
 4249TIP3   OH234305   6.356   1.171   2.030
 4249TIP3    H134306   6.366   1.081   2.062
 4249TIP3    H234307   6.438   1.214   2.056
 4250TIP3   OH234308   3.010   0.318   7.333
 4250TIP3    H134309   3.101   0.347   7.337
 4250TIP3    H234310   2.999   0.283   7.245
 4251TIP3   OH234311   3.952   2.367   1.416
 4251TIP3    H134312   3.969   2.367   1.510
 4251TIP3    H234313   3.900   2.288   1.400
 4252TIP3   OH234314   5.483   3.322   8.026
 4252TIP3    H134315   5.576   3.312   8.005
 4252TIP3    H234316   5.474   3.415   8.049
 4253TIP3   OH234317   3.239   6.611   2.177
 4253TIP3    H134318   3.311   6.643   2.122
 4253TIP3    H234319   3.208   6.532   2.132
 4254TIP3   OH234320   2.228   1.682   7.044
 4254TIP3    H134321   2.139   1.679   7.080
 4254TIP3    H234322   2.245   1.775   7.032
 4255TIP3   OH234323   2.774   6.317   1.199
 4255TIP3    H134324   2.830   6.319   1.122
 4255TIP3    H234325   2.817   6.254   1.258
 4256TIP3   OH234326   6.804   0.341   0.653
 4256TIP3    H134327   6.798   0.323   0.559
 4256TIP3    H234328   0.009   0.304   0.679
 4257TIP3   OH234329   5.075   2.222   0.441
 4257TIP3    H134330   5.044   2.163   0.510
 4257TIP3    H234331   5.169   2.228   0.455
 4258TIP3   OH234332   6.042   3.281   0.704
 4258TIP3    H134333   6.035   3.271   0.799
 4258TIP3    H234334   6.133   3.307   0.689
 4259TIP3   OH234335   1.606   5.057   1.246
 4259TIP3    H134336   1.619   5.078   1.153
 4259TIP3    H234337   1.603   4.962   1.249
 4260TIP3   OH234338   0.338   2.424   7.985
 4260TIP3    H134339   0.325   2.511   7.949
 4260TIP3    H234340   0.249   2.394   8.007
 4261TIP3   OH234341   4.987   3.044   8.462
 4261TIP3    H134342   4.943   2.995   8.393
 4261TIP3    H234343   4.959   3.002   8.543
 4262TIP3   OH234344   4.003   5.689   7.955
 4262TIP3    H134345   3.932   5.629   7.930
 4262TIP3    H234346   3.996   5.697   8.050
 4263TIP3   OH234347   1.641   2.447   1.005
 4263TIP3    H134348   1.647   2.508   1.079
 4263TIP3    H234349   1.732   2.422   0.988
 4264TIP3   OH234350   1.599   4.332   0.113
 4264TIP3    H134351   1.517   4.357   0.072
 4264TIP3    H234352   1.662   4.327   0.041
 4265TIP3   OH234353   6.737   2.449   1.497
 4265TIP3    H134354   6.724   2.541   1.521
 4265TIP3    H234355   6.729   2.447   1.402
 4266TIP3   OH234356   5.799   1.081   7.287
 4266TIP3    H134357   5.780   1.007   7.229
 4266TIP3    H234358   5.774   1.158   7.236
 4267TIP3   OH234359   4.030   1.213   0.362
 4267TIP3    H134360   3.987   1.205   0.277
 4267TIP3    H234361   4.123   1.207   0.343
 4268TIP3   OH234362   3.036   2.347   1.660
 4268TIP3    H134363   3.071   2.408   1.594
 4268TIP3    H234364   3.092   2.360   1.736
 4269TIP3   OH234365   5.397   3.092   1.350
 4269TIP3    H134366   5.396   3.161   1.284
 4269TIP3    H234367   5.388   3.138   1.434
 4270TIP3   OH234368   3.704   3.224   1.624
 4270TIP3    H134369   3.666   3.160   1.683
 4270TIP3    H234370   3.793   3.237   1.656
 4271TIP3   OH234371   6.078   1.478   8.450
 4271TIP3    H134372   6.113   1.542   8.511
 4271TIP3    H234373   6.042   1.409   8.505
 4272TIP3   OH234374   1.523   0.195   7.368
 4272TIP3    H134375   1.531   0.226   7.278
 4272TIP3    H234376   1.562   0.108   7.367
 4273TIP3   OH234377   6.794   2.771   7.439
 4273TIP3    H134378   6.778   2.730   7.354
 4273TIP3    H234379   6.719   2.829   7.453
 4274TIP3   OH234380   6.275   5.667   2.272
 4274TIP3    H134381   6.280   5.572   2.284
 4274TIP3    H234382   6.186   5.682   2.239
 4275TIP3   OH234383   5.718   3.151   7.445
 4275TIP3    H134384   5.690   3.140   7.536
 4275TIP3    H234385   5.636   3.153   7.396
 4276TIP3   OH234386   3.448   0.343   0.164
 4276TIP3    H134387   3.477   0.399   0.237
 4276TIP3    H234388   3.435   0.257   0.204
 4277TIP3   OH234389   1.406   0.885   6.792
 4277TIP3    H134390   1.393   0.865   6.700
 4277TIP3    H234391   1.318   0.886   6.830
 4278TIP3   OH234392   5.225   3.326   8.285
 4278TIP3    H134393   5.212   3.377   8.365
 4278TIP3    H234394   5.302   3.366   8.244
 4279TIP3   OH234395   5.837   2.749   7.794
 4279TIP3    H134396   5.823   2.728   7.702
 4279TIP3    H234397   5.885   2.674   7.829
 4280TIP3   OH234398   2.515   6.034   0.829
 4280TIP3    H134399   2.422   6.045   0.849
 4280TIP3    H234400   2.557   6.110   0.868
 4281TIP3   OH234401   1.094   1.277   1.546
 4281TIP3    H134402   1.035   1.319   1.608
 4281TIP3    H234403   1.180   1.313   1.566
 4282TIP3   OH234404   3.390   4.115   7.709
 4282TIP3    H134405   3.421   4.176   7.776
 4282TIP3    H234406   3.330   4.167   7.656
 4283TIP3   OH234407   1.084   0.213   1.215
 4283TIP3    H134408   1.135   0.138   1.246
 4283TIP3    H234409   1.150   0.274   1.182
 4284TIP3   OH234410   6.444   5.536   7.958
 4284TIP3    H134411   6.446   5.625   7.921
 4284TIP3    H234412   6.393   5.486   7.895
 4285TIP3   OH234413   2.048   5.320   2.252
 4285TIP3    H134414   2.116   5.301   2.188
 4285TIP3    H234415   1.986   5.248   2.243
 4286TIP3   OH234416   3.407   2.632   8.040
 4286TIP3    H134417   3.332   2.609   8.095
 4286TIP3    H234418   3.459   2.551   8.037
 4287TIP3   OH234419   6.603   4.288   1.224
 4287TIP3    H134420   6.661   4.348   1.177
 4287TIP3    H234421   6.544   4.253   1.157
 4288TIP3   OH234422   1.552   1.941   7.961
 4288TIP3    H134423   1.457   1.946   7.965
 4288TIP3    H234424   1.582   2.027   7.992
 4289TIP3   OH234425   0.017   1.081   0.302
 4289TIP3    H134426   0.093   1.035   0.338
 4289TIP3    H234427   6.852   1.117   0.379
 4290TIP3   OH234428   1.766   0.840   8.055
 4290TIP3    H134429   1.781   0.897   7.979
 4290TIP3    H234430   1.834   0.864   8.117
 4291TIP3   OH234431   0.664   1.671   1.633
 4291TIP3    H134432   0.709   1.730   1.692
 4291TIP3    H234433   0.583   1.717   1.610
 4292TIP3   OH234434   2.857   4.526   0.834
 4292TIP3    H134435   2.893   4.602   0.789
 4292TIP3    H234436   2.762   4.538   0.830
 4293TIP3   OH234437   3.183   6.128   8.143
 4293TIP3    H134438   3.111   6.078   8.105
 4293TIP3    H234439   3.262   6.088   8.106
 4294TIP3   OH234440   2.082   5.891   1.476
 4294TIP3    H134441   2.105   5.800   1.459
 4294TIP3    H234442   2.133   5.941   1.412
 4295TIP3   OH234443   2.226   4.281   0.452
 4295TIP3    H134444   2.239   4.187   0.447
 4295TIP3    H234445   2.243   4.312   0.363
 4296TIP3   OH234446   5.541   1.017   6.996
 4296TIP3    H134447   5.599   0.946   7.022
 4296TIP3    H234448   5.525   1.002   6.903
 4297TIP3   OH234449   0.430   6.002   1.684
 4297TIP3    H134450   0.438   5.984   1.777
 4297TIP3    H234451   0.342   5.973   1.660
 4298TIP3   OH234452   3.389   5.336   0.689
 4298TIP3    H134453   3.418   5.370   0.604
 4298TIP3    H234454   3.380   5.242   0.675
 4299TIP3   OH234455   1.473   6.346   8.145
 4299TIP3    H134456   1.447   6.255   8.153
 4299TIP3    H234457   1.392   6.396   8.156
 4300TIP3   OH234458   2.312   3.760   6.519
 4300TIP3    H134459   2.239   3.699   6.531
 4300TIP3    H234460   2.275   3.831   6.467
 4301TIP3   OH234461   4.458   1.545   7.280
 4301TIP3    H134462   4.529   1.606   7.300
 4301TIP3    H234463   4.416   1.529   7.364
 4302TIP3   OH234464   6.605   3.291   6.943
 4302TIP3    H134465   6.541   3.260   6.879
 4302TIP3    H234466   6.690   3.275   6.902
 4303TIP3   OH234467   6.359   2.303   6.489
 4303TIP3    H134468   6.290   2.240   6.464
 4303TIP3    H234469   6.327   2.343   6.569
 4304TIP3   OH234470   6.178   0.604   6.806
 4304TIP3    H134471   6.125   0.651   6.741
 4304TIP3    H234472   6.181   0.514   6.773
 4305TIP3   OH234473   2.499   3.081   1.375
 4305TIP3    H134474   2.529   2.990   1.379
 4305TIP3    H234475   2.464   3.090   1.287
 4306TIP3   OH234476   2.856   4.130   6.254
 4306TIP3    H134477   2.871   4.221   6.280
 4306TIP3    H234478   2.927   4.110   6.193
 4307TIP3   OH234479   6.226   2.128   2.224
 4307TIP3    H134480   6.168   2.102   2.296
 4307TIP3    H234481   6.184   2.205   2.187
 4308TIP3   OH234482   3.879   2.912   7.048
 4308TIP3    H134483   3.930   2.882   7.123
 4308TIP3    H234484   3.844   2.832   7.009
 4309TIP3   OH234485   1.221   6.538   0.370
 4309TIP3    H134486   1.248   6.584   0.450
 4309TIP3    H234487   1.258   6.450   0.380
 4310TIP3   OH234488   2.807   3.031   8.017
 4310TIP3    H134489   2.759   3.098   7.968
 4310TIP3    H234490   2.871   2.997   7.955
 4311TIP3   OH234491   4.518   4.554   1.518
 4311TIP3    H134492   4.533   4.489   1.586
 4311TIP3    H234493   4.491   4.503   1.442
 4312TIP3   OH234494   3.132   4.480   7.122
 4312TIP3    H134495   3.211   4.427   7.116
 4312TIP3    H234496   3.064   4.420   7.153
 4313TIP3   OH234497   6.279   4.284   7.110
 4313TIP3    H134498   6.298   4.289   7.204
 4313TIP3    H234499   6.183   4.279   7.106
 4314TIP3   OH234500   2.475   6.556   7.016
 4314TIP3    H134501   2.403   6.568   6.955
 4314TIP3    H234502   2.527   6.484   6.979
 4315TIP3   OH234503   2.187   2.914   1.159
 4315TIP3    H134504   2.122   2.949   1.098
 4315TIP3    H234505   2.154   2.828   1.184
 4316TIP3   OH234506   5.483   4.795   8.303
 4316TIP3    H134507   5.442   4.865   8.354
 4316TIP3    H234508   5.510   4.730   8.368
 4317TIP3   OH234509   1.511   6.473   0.301
 4317TIP3    H134510   1.434   6.499   0.251
 4317TIP3    H234511   1.574   6.443   0.235
 4318TIP3   OH234512   1.329   1.085   1.289
 4318TIP3    H134513   1.363   1.156   1.342
 4318TIP3    H234514   1.285   1.128   1.215
 4319TIP3   OH234515   6.655   6.396   7.124
 4319TIP3    H134516   6.743   6.401   7.163
 4319TIP3    H234517   6.671   6.394   7.029
 4320TIP3   OH234518   5.960   3.672   6.252
 4320TIP3    H134519   5.977   3.725   6.330
 4320TIP3    H234520   6.031   3.695   6.192
 4321TIP3   OH234521   1.870   3.105   0.650
 4321TIP3    H134522   1.810   3.099   0.577
 4321TIP3    H234523   1.865   3.020   0.693
 4322TIP3   OH234524   2.540   3.522   7.521
 4322TIP3    H134525   2.552   3.430   7.495
 4322TIP3    H234526   2.492   3.561   7.447
 4323TIP3   OH234527   2.337   6.819   7.174
 4323TIP3    H134528   2.407   6.827   7.109
 4323TIP3    H234529   2.264   6.780   7.125
 4324TIP3   OH234530   3.194   5.434   7.635
 4324TIP3    H134531   3.122   5.476   7.681
 4324TIP3    H234532   3.223   5.499   7.570
 4325TIP3   OH234533   1.378   3.151   6.729
 4325TIP3    H134534   1.321   3.192   6.794
 4325TIP3    H234535   1.344   3.181   6.645
 4326TIP3   OH234536   6.537   5.510   0.334
 4326TIP3    H134537   6.629   5.486   0.341
 4326TIP3    H234538   6.489   5.437   0.373
 4327TIP3   OH234539   0.032   1.999   0.992
 4327TIP3    H134540   6.840   1.976   1.051
 4327TIP3    H234541   0.106   1.945   1.023
 4328TIP3   OH234542   2.728   2.570   7.176
 4328TIP3    H134543   2.726   2.525   7.260
 4328TIP3    H234544   2.650   2.539   7.130
 4329TIP3   OH234545   5.557   5.562   8.551
 4329TIP3    H134546   5.564   5.560   8.456
 4329TIP3    H234547   5.643   5.594   8.580
 4330TIP3   OH234548   6.357   0.738   1.585
 4330TIP3    H134549   6.347   0.802   1.514
 4330TIP3    H234550   6.292   0.671   1.564
 4331TIP3   OH234551   0.449   5.112   0.065
 4331TIP3    H134552   0.389   5.129   0.137
 4331TIP3    H234553   0.468   5.198   0.028
 4332TIP3   OH234554   5.984   0.105   0.258
 4332TIP3    H134555   5.888   0.106   0.256
 4332TIP3    H234556   6.008   0.198   0.256
 4333TIP3   OH234557   1.100   4.310   2.072
 4333TIP3    H134558   1.027   4.314   2.135
 4333TIP3    H234559   1.135   4.221   2.082
 4334TIP3   OH234560   2.510   3.745   2.064
 4334TIP3    H134561   2.429   3.792   2.044
 4334TIP3    H234562   2.577   3.790   2.013
 4335TIP3   OH234563   3.875   0.979   1.856
 4335TIP3    H134564   3.864   1.068   1.890
 4335TIP3    H234565   3.881   0.989   1.762
 4336TIP3   OH234566   0.653   3.288   6.669
 4336TIP3    H134567   0.701   3.370   6.685
 4336TIP3    H234568   0.565   3.316   6.646
 4337TIP3   OH234569   0.289   1.478   0.128
 4337TIP3    H134570   0.322   1.458   0.216
 4337TIP3    H234571   0.208   1.427   0.122
 4338TIP3   OH234572   0.228   4.302   8.429
 4338TIP3    H134573   0.235   4.252   8.347
 4338TIP3    H234574   0.318   4.330   8.447
 4339TIP3   OH234575   4.568   5.500   1.500
 4339TIP3    H134576   4.590   5.477   1.590
 4339TIP3    H234577   4.490   5.555   1.507
 4340TIP3   OH234578   4.648   3.905   6.539
 4340TIP3    H134579   4.621   3.836   6.479
 4340TIP3    H234580   4.586   3.976   6.524
 4341TIP3   OH234581   1.854   4.440   7.616
 4341TIP3    H134582   1.924   4.479   7.564
 4341TIP3    H234583   1.898   4.380   7.676
 4342TIP3   OH234584   5.342   1.556   1.919
 4342TIP3    H134585   5.308   1.556   1.829
 4342TIP3    H234586   5.265   1.575   1.973
 4343TIP3   OH234587   4.960   5.478   2.572
 4343TIP3    H134588   4.973   5.541   2.643
 4343TIP3    H234589   4.986   5.526   2.493
 4344TIP3   OH234590   3.213   0.769   8.412
 4344TIP3    H134591   3.199   0.847   8.465
 4344TIP3    H234592   3.138   0.713   8.431
 4345TIP3   OH234593   0.846   4.226   1.796
 4345TIP3    H134594   0.802   4.239   1.880
 4345TIP3    H234595   0.899   4.147   1.808
 4346TIP3   OH234596   6.461   4.923   7.552
 4346TIP3    H134597   6.394   4.978   7.510
 4346TIP3    H234598   6.412   4.867   7.611
 4347TIP3   OH234599   4.695   5.699   6.807
 4347TIP3    H134600   4.749   5.681   6.730
 4347TIP3    H234601   4.605   5.689   6.776
 4348TIP3   OH234602   1.953   0.327   7.149
 4348TIP3    H134603   1.938   0.397   7.214
 4348TIP3    H234604   2.029   0.356   7.100
 4349TIP3   OH234605   5.554   6.234   0.136
 4349TIP3    H134606   5.593   6.163   0.085
 4349TIP3    H234607   5.470   6.198   0.166
 4350TIP3   OH234608   5.103   3.683   8.140
 4350TIP3    H134609   5.152   3.763   8.122
 4350TIP3    H234610   5.044   3.673   8.065
 4351TIP3   OH234611   2.332   0.095   8.003
 4351TIP3    H134612   2.323   0.077   8.096
 4351TIP3    H234613   2.423   0.075   7.983
 4352TIP3   OH234614   2.225   3.545   6.869
 4352TIP3    H134615   2.191   3.493   6.942
 4352TIP3    H234616   2.190   3.633   6.884
 4353TIP3   OH234617   4.204   2.414   6.472
 4353TIP3    H134618   4.280   2.366   6.438
 4353TIP3    H234619   4.241   2.478   6.533
 4354TIP3   OH234620   4.921   4.248   6.611
 4354TIP3    H134621   4.913   4.158   6.578
 4354TIP3    H234622   5.001   4.281   6.570
 4355TIP3   OH234623   0.243   4.221   1.213
 4355TIP3    H134624   0.269   4.243   1.302
 4355TIP3    H234625   0.186   4.294   1.186
 4356TIP3   OH234626   2.923   6.559   1.371
 4356TIP3    H134627   2.860   6.601   1.430
 4356TIP3    H234628   2.925   6.615   1.294
 4357TIP3   OH234629   4.920   0.977   2.518
 4357TIP3    H134630   4.885   1.028   2.591
 4357TIP3    H234631   4.890   0.888   2.534
 4358TIP3   OH234632   3.645   0.621   8.617
 4358TIP3    H134633   3.574   0.631   0.057
 4358TIP3    H234634   3.707   0.562   0.035
 4359TIP3   OH234635   3.957   4.290   0.950
 4359TIP3    H134636   3.964   4.385   0.953
 4359TIP3    H234637   4.013   4.260   1.022
 4360TIP3   OH234638   1.358   3.691   2.279
 4360TIP3    H134639   1.412   3.679   2.358
 4360TIP3    H234640   1.421   3.709   2.209
 4361TIP3   OH234641   5.103   6.530   6.580
 4361TIP3    H134642   5.041   6.457   6.580
 4361TIP3    H234643   5.183   6.493   6.616
 4362TIP3   OH234644   2.266   0.704   6.944
 4362TIP3    H134645   2.289   0.794   6.969
 4362TIP3    H234646   2.348   0.668   6.910
 4363TIP3   OH234647   3.026   3.521   6.666
 4363TIP3    H134648   2.984   3.512   6.752
 4363TIP3    H234649   2.963   3.484   6.605
 4364TIP3   OH234650   0.902   5.417   7.224
 4364TIP3    H134651   0.898   5.452   7.135
 4364TIP3    H234652   0.991   5.437   7.253
 4365TIP3   OH234653   0.231   2.034   0.748
 4365TIP3    H134654   0.233   2.120   0.791
 4365TIP3    H234655   0.305   1.987   0.786
 4366TIP3   OH234656   3.215   2.825   6.105
 4366TIP3    H134657   3.244   2.829   6.014
 4366TIP3    H234658   3.169   2.908   6.119
 4367TIP3   OH234659   5.801   3.644   8.415
 4367TIP3    H134660   5.748   3.713   8.375
 4367TIP3    H234661   5.809   3.578   8.346
 4368TIP3   OH234662   0.388   3.317   2.275
 4368TIP3    H134663   0.423   3.342   2.189
 4368TIP3    H234664   0.411   3.389   2.333
 4369TIP3   OH234665   2.592   0.594   7.324
 4369TIP3    H134666   2.548   0.579   7.408
 4369TIP3    H234667   2.523   0.584   7.259
 4370TIP3   OH234668   4.742   4.346   1.683
 4370TIP3    H134669   4.667   4.306   1.726
 4370TIP3    H234670   4.761   4.424   1.735
 4371TIP3   OH234671   2.651   2.242   7.050
 4371TIP3    H134672   2.576   2.297   7.030
 4371TIP3    H234673   2.661   2.186   6.973
 4372TIP3   OH234674   0.617   6.472   7.436
 4372TIP3    H134675   0.559   6.414   7.387
 4372TIP3    H234676   0.560   6.542   7.468
 4373TIP3   OH234677   4.656   0.807   0.935
 4373TIP3    H134678   4.675   0.732   0.878
 4373TIP3    H234679   4.561   0.808   0.942
 4374TIP3   OH234680   2.525   3.932   7.408
 4374TIP3    H134681   2.465   3.886   7.349
 4374TIP3    H234682   2.479   4.012   7.433
 4375TIP3   OH234683   4.143   5.640   1.476
 4375TIP3    H134684   4.187   5.603   1.400
 4375TIP3    H234685   4.068   5.687   1.440
 4376TIP3   OH234686   2.742   1.679   8.167
 4376TIP3    H134687   2.788   1.599   8.190
 4376TIP3    H234688   2.668   1.650   8.113
 4377TIP3   OH234689   2.707   6.052   1.090
 4377TIP3    H134690   2.685   6.145   1.078
 4377TIP3    H234691   2.631   6.005   1.055
 4378TIP3   OH234692   0.384   2.151   8.367
 4378TIP3    H134693   0.322   2.217   8.397
 4378TIP3    H234694   0.412   2.183   8.281
 4379TIP3   OH234695   4.105   1.736   7.760
 4379TIP3    H134696   4.162   1.692   7.822
 4379TIP3    H234697   4.162   1.758   7.686
 4380TIP3   OH234698   2.384   3.463   7.160
 4380TIP3    H134699   2.346   3.376   7.150
 4380TIP3    H234700   2.438   3.475   7.082
 4381TIP3   OH234701   3.903   2.068   1.444
 4381TIP3    H134702   3.863   2.082   1.530
 4381TIP3    H234703   3.833   2.028   1.392
 4382TIP3   OH234704   5.283   5.679   1.353
 4382TIP3    H134705   5.354   5.729   1.393
 4382TIP3    H234706   5.231   5.648   1.427
 4383TIP3   OH234707   0.101   0.607   0.708
 4383TIP3    H134708   0.193   0.631   0.715
 4383TIP3    H234709   0.091   0.578   0.617
 4384TIP3   OH234710   6.244   6.805   6.973
 4384TIP3    H134711   6.241   6.873   6.906
 4384TIP3    H234712   6.271   6.726   6.927
 4385TIP3   OH234713   2.892   2.229   0.627
 4385TIP3    H134714   2.806   2.271   0.630
 4385TIP3    H234715   2.909   2.204   0.718
 4386TIP3   OH234716   1.205   6.427   6.857
 4386TIP3    H134717   1.121   6.426   6.812
 4386TIP3    H234718   1.266   6.466   6.795
 4387TIP3   OH234719   4.252   2.405   8.353
 4387TIP3    H134720   4.220   2.495   8.347
 4387TIP3    H234721   4.340   2.413   8.391
 4388TIP3   OH234722   2.257   4.938   7.810
 4388TIP3    H134723   2.327   4.873   7.799
 4388TIP3    H234724   2.205   4.932   7.730
 4389TIP3   OH234725   4.724   0.246   6.999
 4389TIP3    H134726   4.629   0.247   7.002
 4389TIP3    H234727   4.745   0.179   6.934
 4390TIP3   OH234728   2.485   1.255   7.470
 4390TIP3    H134729   2.440   1.204   7.403
 4390TIP3    H234730   2.439   1.339   7.472
 4391TIP3   OH234731   0.767   3.276   7.860
 4391TIP3    H134732   0.768   3.252   7.952
 4391TIP3    H234733   0.688   3.234   7.825
 4392TIP3   OH234734   2.809   4.357   7.832
 4392TIP3    H134735   2.796   4.297   7.759
 4392TIP3    H234736   2.810   4.301   7.910
 4393TIP3   OH234737   5.932   4.513   6.734
 4393TIP3    H134738   5.859   4.483   6.681
 4393TIP3    H234739   5.966   4.590   6.689
 4394TIP3   OH234740   5.062   6.584   1.989
 4394TIP3    H134741   5.043   6.575   2.082
 4394TIP3    H234742   4.977   6.573   1.946
 4395TIP3   OH234743   1.532   0.758   1.924
 4395TIP3    H134744   1.522   0.679   1.976
 4395TIP3    H234745   1.469   0.820   1.962
 4396TIP3   OH234746   4.643   5.119   8.081
 4396TIP3    H134747   4.722   5.101   8.029
 4396TIP3    H234748   4.651   5.061   8.157
 4397TIP3   OH234749   3.567   1.979   8.273
 4397TIP3    H134750   3.492   1.944   8.226
 4397TIP3    H234751   3.550   1.956   8.365
 4398TIP3   OH234752   2.968   2.726   0.749
 4398TIP3    H134753   3.042   2.690   0.798
 4398TIP3    H234754   2.944   2.806   0.795
 4399TIP3   OH234755   3.101   2.966   7.531
 4399TIP3    H134756   3.044   2.967   7.454
 4399TIP3    H234757   3.167   2.900   7.512
 4400TIP3   OH234758   3.520   0.403   0.460
 4400TIP3    H134759   3.526   0.494   0.489
 4400TIP3    H234760   3.428   0.380   0.471
 4401TIP3   OH234761   1.681   5.021   7.541
 4401TIP3    H134762   1.686   5.018   7.445
 4401TIP3    H234763   1.745   4.956   7.570
 4402TIP3   OH234764   1.561   1.500   0.985
 4402TIP3    H134765   1.627   1.568   0.988
 4402TIP3    H234766   1.580   1.450   0.906
 4403TIP3   OH234767   5.720   4.223   1.851
 4403TIP3    H134768   5.644   4.271   1.820
 4403TIP3    H234769   5.688   4.172   1.926
 4404TIP3   OH234770   5.333   5.348   1.045
 4404TIP3    H134771   5.407   5.312   1.094
 4404TIP3    H234772   5.297   5.273   0.998
 4405TIP3   OH234773   3.299   6.713   8.494
 4405TIP3    H134774   3.387   6.739   8.467
 4405TIP3    H234775   3.249   6.794   8.495
 4406TIP3   OH234776   1.401   4.122   8.020
 4406TIP3    H134777   1.493   4.099   8.011
 4406TIP3    H234778   1.400   4.193   8.085
 4407TIP3   OH234779   0.449   4.542   7.352
 4407TIP3    H134780   0.525   4.514   7.403
 4407TIP3    H234781   0.437   4.473   7.287
 4408TIP3   OH234782   5.848   0.356   8.026
 4408TIP3    H134783   5.811   0.321   7.945
 4408TIP3    H234784   5.811   0.301   8.095
 4409TIP3   OH234785   0.308   5.483   0.353
 4409TIP3    H134786   0.292   5.575   0.376
 4409TIP3    H234787   0.225   5.439   0.372
 4410TIP3   OH234788   3.400   3.474   7.859
 4410TIP3    H134789   3.448   3.420   7.796
 4410TIP3    H234790   3.331   3.417   7.892
 4411TIP3   OH234791   6.100   5.879   0.896
 4411TIP3    H134792   6.029   5.940   0.876
 4411TIP3    H234793   6.072   5.796   0.858
 4412TIP3   OH234794   3.209   6.720   1.137
 4412TIP3    H134795   3.178   6.646   1.188
 4412TIP3    H234796   3.137   6.783   1.141
 4413TIP3   OH234797   0.443   2.254   0.143
 4413TIP3    H134798   0.538   2.252   0.141
 4413TIP3    H234799   0.416   2.169   0.111
 4414TIP3   OH234800   3.284   4.500   0.581
 4414TIP3    H134801   3.235   4.447   0.644
 4414TIP3    H234802   3.224   4.509   0.506
 4415TIP3   OH234803   1.174   0.258   7.379
 4415TIP3    H134804   1.197   0.274   7.287
 4415TIP3    H234805   1.082   0.231   7.376
 4416TIP3   OH234806   2.554   2.505   1.247
 4416TIP3    H134807   2.533   2.466   1.332
 4416TIP3    H234808   2.650   2.515   1.248
 4417TIP3   OH234809   6.657   6.085   0.658
 4417TIP3    H134810   6.703   6.001   0.655
 4417TIP3    H234811   6.679   6.127   0.575
 4418TIP3   OH234812   4.634   4.065   0.814
 4418TIP3    H134813   4.552   4.032   0.778
 4418TIP3    H234814   4.689   4.084   0.738
 4419TIP3   OH234815   4.397   5.803   8.447
 4419TIP3    H134816   4.451   5.792   8.525
 4419TIP3    H234817   4.450   5.856   8.388
 4420TIP3   OH234818   6.829   1.068   8.439
 4420TIP3    H134819   6.741   1.083   8.472
 4420TIP3    H234820   6.873   1.153   8.446
 4421TIP3   OH234821   2.210   3.793   2.078
 4421TIP3    H134822   2.125   3.751   2.074
 4421TIP3    H234823   2.195   3.882   2.046
 4422TIP3   OH234824   0.342   5.045   1.482
 4422TIP3    H134825   0.301   5.039   1.395
 4422TIP3    H234826   0.269   5.038   1.543
 4423TIP3   OH234827   4.446   5.177   1.868
 4423TIP3    H134828   4.530   5.212   1.895
 4423TIP3    H234829   4.427   5.107   1.931
 4424TIP3   OH234830   1.668   5.685   0.232
 4424TIP3    H134831   1.701   5.774   0.222
 4424TIP3    H234832   1.578   5.688   0.200
 4425TIP3   OH234833   1.626   6.616   0.522
 4425TIP3    H134834   1.612   6.549   0.455
 4425TIP3    H234835   1.711   6.654   0.501
 4426TIP3   OH234836   1.739   5.141   8.259
 4426TIP3    H134837   1.645   5.159   8.269
 4426TIP3    H234838   1.780   5.186   8.333
 4427TIP3   OH234839   0.062   5.690   0.120
 4427TIP3    H134840   0.100   5.748   0.187
 4427TIP3    H234841   6.859   5.661   0.158
 4428TIP3   OH234842   0.723   1.333   0.480
 4428TIP3    H134843   0.701   1.311   0.570
 4428TIP3    H234844   0.653   1.393   0.452
 4429TIP3   OH234845   5.950   3.253   1.527
 4429TIP3    H134846   5.870   3.299   1.504
 4429TIP3    H234847   6.015   3.322   1.540
 4430TIP3   OH234848   2.704   5.743   0.836
 4430TIP3    H134849   2.658   5.820   0.803
 4430TIP3    H234850   2.730   5.767   0.925
 4431TIP3   OH234851   2.683   1.879   7.959
 4431TIP3    H134852   2.743   1.823   7.908
 4431TIP3    H234853   2.681   1.838   8.046
 4432TIP3   OH234854   1.607   6.446   8.600
 4432TIP3    H134855   1.680   6.442   8.538
 4432TIP3    H234856   1.571   6.534   8.589
 4433TIP3   OH234857   2.420   1.780   0.484
 4433TIP3    H134858   2.510   1.780   0.450
 4433TIP3    H234859   2.374   1.844   0.430
 4434TIP3   OH234860   2.849   0.253   1.157
 4434TIP3    H134861   2.916   0.209   1.106
 4434TIP3    H234862   2.812   0.184   1.214
 4435TIP3   OH234863   4.831   3.070   8.211
 4435TIP3    H134864   4.780   3.039   8.285
 4435TIP3    H234865   4.770   3.070   8.137
 4436TIP3   OH234866   2.673   2.589   0.043
 4436TIP3    H134867   2.750   2.634   0.078
 4436TIP3    H234868   2.614   2.582   0.117
 4437TIP3   OH234869   1.030   6.545   7.296
 4437TIP3    H134870   1.088   6.587   7.359
 4437TIP3    H234871   1.055   6.582   7.211
 4438TIP3   OH234872   4.856   3.950   7.506
 4438TIP3    H134873   4.902   3.886   7.561
 4438TIP3    H234874   4.894   3.938   7.419
 4439TIP3   OH234875   1.268   4.539   2.265
 4439TIP3    H134876   1.309   4.475   2.324
 4439TIP3    H234877   1.183   4.557   2.305
 4440TIP3   OH234878   2.201   5.207   7.845
 4440TIP3    H134879   2.129   5.185   7.786
 4440TIP3    H234880   2.252   5.126   7.852
 4441TIP3   OH234881   5.806   0.807   6.822
 4441TIP3    H134882   5.895   0.820   6.788
 4441TIP3    H234883   5.771   0.734   6.770
 4442TIP3   OH234884   5.227   5.140   0.918
 4442TIP3    H134885   5.240   5.046   0.906
 4442TIP3    H234886   5.136   5.155   0.892
 4443TIP3   OH234887   4.205   4.561   1.839
 4443TIP3    H134888   4.194   4.612   1.759
 4443TIP3    H234889   4.144   4.488   1.830
 4444TIP3   OH234890   3.398   5.209   7.202
 4444TIP3    H134891   3.339   5.250   7.138
 4444TIP3    H234892   3.434   5.133   7.156
 4445TIP3   OH234893   2.430   4.028   0.317
 4445TIP3    H134894   2.354   4.028   0.375
 4445TIP3    H234895   2.475   4.111   0.336
 4446TIP3   OH234896   3.128   0.271   1.660
 4446TIP3    H134897   3.194   0.266   1.591
 4446TIP3    H234898   3.053   0.313   1.618
 4447TIP3   OH234899   3.991   4.995   8.129
 4447TIP3    H134900   4.059   4.977   8.195
 4447TIP3    H234901   4.037   4.986   8.045
 4448TIP3   OH234902   2.011   3.308   6.732
 4448TIP3    H134903   2.019   3.335   6.824
 4448TIP3    H234904   2.101   3.294   6.703
 4449TIP3   OH234905   6.641   2.875   0.643
 4449TIP3    H134906   6.573   2.937   0.669
 4449TIP3    H234907   6.710   2.886   0.708
 4450TIP3   OH234908   6.096   4.685   7.456
 4450TIP3    H134909   6.048   4.726   7.384
 4450TIP3    H234910   6.093   4.750   7.527
 4451TIP3   OH234911   4.399   2.004   1.349
 4451TIP3    H134912   4.327   2.049   1.394
 4451TIP3    H234913   4.367   1.992   1.260
 4452TIP3   OH234914   0.512   0.329   0.331
 4452TIP3    H134915   0.598   0.290   0.313
 4452TIP3    H234916   0.518   0.359   0.422
 4453TIP3   OH234917   1.601   6.156   6.855
 4453TIP3    H134918   1.682   6.199   6.884
 4453TIP3    H234919   1.621   6.062   6.859
 4454TIP3   OH234920   3.983   5.295   6.592
 4454TIP3    H134921   3.904   5.245   6.610
 4454TIP3    H234922   4.023   5.307   6.678
 4455TIP3   OH234923   3.788   4.697   6.437
 4455TIP3    H134924   3.826   4.621   6.394
 4455TIP3    H234925   3.835   4.772   6.400
 4456TIP3   OH234926   3.362   1.624   2.286
 4456TIP3    H134927   3.301   1.663   2.223
 4456TIP3    H234928   3.307   1.568   2.340
 4457TIP3   OH234929   1.640   6.767   7.696
 4457TIP3    H134930   1.649   6.695   7.758
 4457TIP3    H234931   1.628   6.844   7.751
 4458TIP3   OH234932   6.022   1.247   7.095
 4458TIP3    H134933   5.955   1.295   7.143
 4458TIP3    H234934   5.975   1.201   7.026
 4459TIP3   OH234935   2.863   4.131   0.938
 4459TIP3    H134936   2.877   4.176   0.855
 4459TIP3    H234937   2.840   4.201   1.000
 4460TIP3   OH234938   5.510   2.838   7.347
 4460TIP3    H134939   5.501   2.933   7.345
 4460TIP3    H234940   5.602   2.822   7.365
 4461TIP3   OH234941   5.042   4.467   7.444
 4461TIP3    H134942   4.983   4.391   7.442
 4461TIP3    H234943   5.111   4.444   7.382
 4462TIP3   OH234944   1.856   3.157   0.318
 4462TIP3    H134945   1.773   3.123   0.351
 4462TIP3    H234946   1.919   3.086   0.333
 4463TIP3   OH234947   3.025   1.000   1.287
 4463TIP3    H134948   2.954   0.943   1.317
 4463TIP3    H234949   3.047   0.966   1.200
 4464TIP3   OH234950   2.935   2.455   6.161
 4464TIP3    H134951   2.928   2.550   6.160
 4464TIP3    H234952   2.997   2.435   6.090
 4465TIP3   OH234953   6.397   4.794   7.263
 4465TIP3    H134954   6.396   4.812   7.357
 4465TIP3    H234955   6.317   4.835   7.230
 4466TIP3   OH234956   3.502   1.068   6.932
 4466TIP3    H134957   3.503   1.013   6.853
 4466TIP3    H234958   3.590   1.058   6.969
 4467TIP3   OH234959   0.727   2.273   0.155
 4467TIP3    H134960   0.748   2.353   0.107
 4467TIP3    H234961   0.812   2.233   0.173
 4468TIP3   OH234962   1.419   6.213   7.312
 4468TIP3    H134963   1.371   6.295   7.296
 4468TIP3    H234964   1.427   6.173   7.226
 4469TIP3   OH234965   0.914   4.698   7.066
 4469TIP3    H134966   0.869   4.783   7.069
 4469TIP3    H234967   0.987   4.711   7.005
 4470TIP3   OH234968   1.030   6.290   7.146
 4470TIP3    H134969   0.936   6.298   7.130
 4470TIP3    H234970   1.049   6.362   7.206
 4471TIP3   OH234971   5.874   1.676   1.416
 4471TIP3    H134972   5.948   1.708   1.467
 4471TIP3    H234973   5.802   1.668   1.478
 4472TIP3   OH234974   5.537   3.923   7.226
 4472TIP3    H134975   5.503   3.971   7.150
 4472TIP3    H234976   5.632   3.936   7.221
 4473TIP3   OH234977   3.605   5.398   6.474
 4473TIP3    H134978   3.665   5.324   6.481
 4473TIP3    H234979   3.636   5.461   6.539
 4474TIP3   OH234980   5.191   1.620   0.858
 4474TIP3    H134981   5.267   1.624   0.916
 4474TIP3    H234982   5.115   1.627   0.917
 4475TIP3   OH234983   4.095   4.156   0.668
 4475TIP3    H134984   4.048   4.073   0.658
 4475TIP3    H234985   4.044   4.205   0.733
 4476TIP3   OH234986   2.166   4.110   6.818
 4476TIP3    H134987   2.170   4.133   6.726
 4476TIP3    H234988   2.258   4.113   6.847
 4477TIP3   OH234989   2.647   6.017   7.358
 4477TIP3    H134990   2.670   6.082   7.291
 4477TIP3    H234991   2.727   5.965   7.370
 4478TIP3   OH234992   5.544   4.356   1.334
 4478TIP3    H134993   5.557   4.312   1.418
 4478TIP3    H234994   5.608   4.427   1.334
 4479TIP3   OH234995   5.494   2.461   7.415
 4479TIP3    H134996   5.552   2.509   7.473
 4479TIP3    H234997   5.520   2.487   7.327
 4480TIP3   OH234998   4.874   4.799   6.865
 4480TIP3    H134999   4.808   4.737   6.836
 4480TIP3    H235000   4.957   4.761   6.838
 4481TIP3   OH235001   0.092   3.298   7.160
 4481TIP3    H135002   0.052   3.228   7.211
 4481TIP3    H235003   0.186   3.285   7.171
 4482TIP3   OH235004   4.918   1.060   7.040
 4482TIP3    H135005   4.872   1.023   6.964
 4482TIP3    H235006   5.000   1.094   7.003
 4483TIP3   OH235007   3.407   3.481   6.270
 4483TIP3    H135008   3.464   3.557   6.259
 4483TIP3    H235009   3.320   3.518   6.281
 4484TIP3   OH235010   2.071   2.219   7.606
 4484TIP3    H135011   2.103   2.154   7.668
 4484TIP3    H235012   1.979   2.233   7.631
 4485TIP3   OH235013   3.932   0.989   0.991
 4485TIP3    H135014   3.983   0.923   0.945
 4485TIP3    H235015   3.940   1.068   0.937
 4486TIP3   OH235016   2.299   0.282   1.171
 4486TIP3    H135017   2.320   0.194   1.202
 4486TIP3    H235018   2.207   0.279   1.147
 4487TIP3   OH235019   2.999   1.928   7.662
 4487TIP3    H135020   2.927   1.868   7.682
 4487TIP3    H235021   2.960   1.993   7.603
 4488TIP3   OH235022   0.450   5.502   1.338
 4488TIP3    H135023   0.414   5.506   1.427
 4488TIP3    H235024   0.479   5.412   1.328
 4489TIP3   OH235025   2.428   0.371   0.669
 4489TIP3    H135026   2.497   0.437   0.673
 4489TIP3    H235027   2.431   0.327   0.753
 4490TIP3   OH235028   5.451   5.789   7.208
 4490TIP3    H135029   5.454   5.724   7.278
 4490TIP3    H235030   5.373   5.767   7.158
 4491TIP3   OH235031   3.116   4.294   7.588
 4491TIP3    H135032   3.120   4.363   7.522
 4491TIP3    H235033   3.031   4.253   7.575
 4492TIP3   OH235034   0.783   1.687   7.230
 4492TIP3    H135035   0.818   1.628   7.163
 4492TIP3    H235036   0.736   1.629   7.291
 4493TIP3   OH235037   2.152   5.081   6.425
 4493TIP3    H135038   2.064   5.062   6.457
 4493TIP3    H235039   2.139   5.125   6.342
 4494TIP3   OH235040   4.488   2.085   1.900
 4494TIP3    H135041   4.428   2.046   1.836
 4494TIP3    H235042   4.439   2.083   1.982
 4495TIP3   OH235043   1.837   0.826   1.688
 4495TIP3    H135044   1.780   0.884   1.739
 4495TIP3    H235045   1.903   0.796   1.750
 4496TIP3   OH235046   0.783   3.881   7.239
 4496TIP3    H135047   0.760   3.788   7.231
 4496TIP3    H235048   0.867   3.888   7.194
 4497TIP3   OH235049   5.848   5.165   2.586
 4497TIP3    H135050   5.790   5.238   2.567
 4497TIP3    H235051   5.910   5.200   2.651
 4498TIP3   OH235052   5.674   0.910   7.541
 4498TIP3    H135053   5.719   0.960   7.608
 4498TIP3    H235054   5.679   0.964   7.462
 4499TIP3   OH235055   3.946   0.341   1.394
 4499TIP3    H135056   3.909   0.390   1.321
 4499TIP3    H235057   3.958   0.252   1.359
 4500TIP3   OH235058   6.025   1.076   1.743
 4500TIP3    H135059   6.041   1.039   1.656
 4500TIP3    H235060   6.074   1.019   1.802
 4501TIP3   OH235061   4.962   5.371   1.859
 4501TIP3    H135062   4.985   5.283   1.828
 4501TIP3    H235063   4.972   5.426   1.781
 4502TIP3   OH235064   2.415   1.487   7.227
 4502TIP3    H135065   2.504   1.452   7.221
 4502TIP3    H235066   2.362   1.413   7.255
 4503TIP3   OH235067   1.066   1.499   7.396
 4503TIP3    H135068   1.125   1.575   7.402
 4503TIP3    H235069   1.088   1.446   7.473
 4504TIP3   OH235070   5.288   1.948   0.426
 4504TIP3    H135071   5.354   1.903   0.479
 4504TIP3    H235072   5.296   2.040   0.452
 4505TIP3   OH235073   2.904   6.848   1.501
 4505TIP3    H135074   2.822   6.812   1.469
 4505TIP3    H235075   2.910   6.817   1.592
 4506TIP3   OH235076   2.192   5.914   7.695
 4506TIP3    H135077   2.149   5.845   7.646
 4506TIP3    H235078   2.163   5.995   7.653
 4507TIP3   OH235079   3.961   0.403   6.934
 4507TIP3    H135080   3.878   0.434   6.971
 4507TIP3    H235081   3.983   0.467   6.867
 4508TIP3   OH235082   2.630   6.518   1.288
 4508TIP3    H135083   2.712   6.471   1.279
 4508TIP3    H235084   2.596   6.525   1.199
 4509TIP3   OH235085   6.287   5.902   1.982
 4509TIP3    H135086   6.224   5.836   2.012
 4509TIP3    H235087   6.240   5.950   1.914
 4510TIP3   OH235088   6.435   5.192   6.647
 4510TIP3    H135089   6.456   5.190   6.553
 4510TIP3    H235090   6.374   5.264   6.656
 4511TIP3   OH235091   2.812   3.160   6.774
 4511TIP3    H135092   2.810   3.243   6.821
 4511TIP3    H235093   2.749   3.170   6.703
 4512TIP3   OH235094   1.110   0.247   6.705
 4512TIP3    H135095   1.070   0.319   6.655
 4512TIP3    H235096   1.160   0.198   6.640
 4513TIP3   OH235097   2.131   5.743   7.487
 4513TIP3    H135098   2.207   5.685   7.492
 4513TIP3    H235099   2.069   5.696   7.431
 4514TIP3   OH235100   5.554   0.418   8.072
 4514TIP3    H135101   5.586   0.345   8.019
 4514TIP3    H235102   5.551   0.384   8.161
 4515TIP3   OH235103   3.188   2.213   1.095
 4515TIP3    H135104   3.233   2.290   1.130
 4515TIP3    H235105   3.095   2.231   1.107
 4516TIP3   OH235106   1.139   5.390   2.313
 4516TIP3    H135107   1.203   5.402   2.243
 4516TIP3    H235108   1.173   5.317   2.364
 4517TIP3   OH235109   4.861   1.223   2.092
 4517TIP3    H135110   4.795   1.201   2.157
 4517TIP3    H235111   4.841   1.166   2.017
 4518TIP3   OH235112   5.452   4.187   1.111
 4518TIP3    H135113   5.493   4.235   1.184
 4518TIP3    H235114   5.508   4.206   1.036
 4519TIP3   OH235115   3.621   0.358   7.564
 4519TIP3    H135116   3.674   0.322   7.636
 4519TIP3    H235117   3.608   0.450   7.588
 4520TIP3   OH235118   0.829   1.855   1.353
 4520TIP3    H135119   0.773   1.900   1.289
 4520TIP3    H235120   0.787   1.770   1.366
 4521TIP3   OH235121   0.696   5.203   7.137
 4521TIP3    H135122   0.613   5.250   7.129
 4521TIP3    H235123   0.753   5.264   7.184
 4522TIP3   OH235124   5.179   6.181   1.969
 4522TIP3    H135125   5.161   6.088   1.959
 4522TIP3    H235126   5.140   6.204   2.054
 4523TIP3   OH235127   1.179   2.392   1.387
 4523TIP3    H135128   1.262   2.426   1.352
 4523TIP3    H235129   1.160   2.315   1.332
 4524TIP3   OH235130   6.799   6.831   1.080
 4524TIP3    H135131   6.862   6.792   1.020
 4524TIP3    H235132   6.807   6.779   1.161
 4525TIP3   OH235133   5.011   4.044   1.138
 4525TIP3    H135134   5.033   3.965   1.187
 4525TIP3    H235135   4.987   4.108   1.204
 4526TIP3   OH235136   4.867   0.315   0.399
 4526TIP3    H135137   4.957   0.333   0.428
 4526TIP3    H235138   4.826   0.402   0.396
 4527TIP3   OH235139   4.597   5.581   8.409
 4527TIP3    H135140   4.570   5.638   8.481
 4527TIP3    H235141   4.524   5.519   8.399
 4528TIP3   OH235142   4.833   0.459   7.154
 4528TIP3    H135143   4.743   0.489   7.144
 4528TIP3    H235144   4.833   0.371   7.116
 4529TIP3   OH235145   1.560   4.441   7.278
 4529TIP3    H135146   1.470   4.420   7.302
 4529TIP3    H235147   1.612   4.369   7.315
 4530TIP3   OH235148   5.697   3.827   6.519
 4530TIP3    H135149   5.686   3.880   6.440
 4530TIP3    H235150   5.696   3.737   6.488
 4531TIP3   OH235151   2.715   4.645   7.050
 4531TIP3    H135152   2.630   4.620   7.085
 4531TIP3    H235153   2.702   4.646   6.955
 4532TIP3   OH235154   3.600   1.480   2.317
 4532TIP3    H135155   3.590   1.398   2.268
 4532TIP3    H235156   3.528   1.535   2.285
 4533TIP3   OH235157   5.839   4.930   7.842
 4533TIP3    H135158   5.857   5.014   7.883
 4533TIP3    H235159   5.752   4.938   7.805
 4534TIP3   OH235160   6.110   1.375   1.150
 4534TIP3    H135161   6.037   1.314   1.147
 4534TIP3    H235162   6.105   1.416   1.236
 4535TIP3   OH235163   2.894   5.872   7.315
 4535TIP3    H135164   2.879   5.917   7.232
 4535TIP3    H235165   2.987   5.850   7.314
 4536TIP3   OH235166   6.719   4.712   6.471
 4536TIP3    H135167   6.632   4.684   6.499
 4536TIP3    H235168   6.775   4.636   6.487
 4537TIP3   OH235169   6.398   0.000   8.168
 4537TIP3    H135170   6.323   6.845   8.216
 4537TIP3    H235171   6.451   0.043   8.235
 4538TIP3   OH235172   6.856   6.719   7.761
 4538TIP3    H135173   6.771   6.756   7.740
 4538TIP3    H235174   6.873   6.746   7.851
 4539TIP3   OH235175   2.540   6.510   8.407
 4539TIP3    H135176   2.463   6.545   8.361
 4539TIP3    H235177   2.615   6.553   8.366
 4540TIP3   OH235178   2.744   6.401   2.224
 4540TIP3    H135179   2.820   6.453   2.248
 4540TIP3    H235180   2.779   6.313   2.209
 4541TIP3   OH235181   1.899   0.197   6.771
 4541TIP3    H135182   1.863   0.204   6.683
 4541TIP3    H235183   1.992   0.221   6.761
 4542TIP3   OH235184   5.514   2.604   7.193
 4542TIP3    H135185   5.542   2.627   7.104
 4542TIP3    H235186   5.525   2.686   7.243
 4543TIP3   OH235187   2.253   4.768   6.597
 4543TIP3    H135188   2.290   4.814   6.522
 4543TIP3    H235189   2.327   4.719   6.634
 4544TIP3   OH235190   5.934   6.321   1.341
 4544TIP3    H135191   5.852   6.353   1.303
 4544TIP3    H235192   5.997   6.323   1.268
 4545TIP3   OH235193   5.712   5.567   7.347
 4545TIP3    H135194   5.706   5.637   7.282
 4545TIP3    H235195   5.794   5.583   7.393
 4546TIP3   OH235196   2.155   5.005   1.909
 4546TIP3    H135197   2.201   4.924   1.932
 4546TIP3    H235198   2.141   4.999   1.814
 4547TIP3   OH235199   0.039   4.094   8.479
 4547TIP3    H135200   0.089   4.169   8.444
 4547TIP3    H235201   0.105   4.026   8.493
 4548TIP3   OH235202   0.580   0.877   1.088
 4548TIP3    H135203   0.671   0.848   1.085
 4548TIP3    H235204   0.585   0.965   1.127
 4549TIP3   OH235205   3.207   0.071   8.487
 4549TIP3    H135206   3.251   0.145   8.527
 4549TIP3    H235207   3.120   0.070   8.527
 4550TIP3   OH235208   6.817   1.754   7.135
 4550TIP3    H135209   6.742   1.717   7.088
 4550TIP3    H235210   6.876   1.783   7.065
 4551TIP3   OH235211   2.801   2.062   7.509
 4551TIP3    H135212   2.764   2.035   7.593
 4551TIP3    H235213   2.729   2.104   7.463
 4552TIP3   OH235214   6.726   2.662   8.554
 4552TIP3    H135215   6.813   2.682   8.520
 4552TIP3    H235216   6.717   2.567   8.543
 4553TIP3   OH235217   0.555   0.182   1.683
 4553TIP3    H135218   0.564   0.170   1.589
 4553TIP3    H235219   0.503   0.262   1.692
 4554TIP3   OH235220   3.274   0.550   6.765
 4554TIP3    H135221   3.305   0.573   6.677
 4554TIP3    H235222   3.190   0.507   6.751
 4555TIP3   OH235223   1.497   5.398   1.552
 4555TIP3    H135224   1.501   5.340   1.628
 4555TIP3    H235225   1.588   5.407   1.524
 4556TIP3   OH235226   0.779   1.023   2.161
 4556TIP3    H135227   0.755   1.006   2.252
 4556TIP3    H235228   0.734   0.954   2.112
 4557TIP3   OH235229   5.564   4.886   7.965
 4557TIP3    H135230   5.516   4.803   7.968
 4557TIP3    H235231   5.564   4.910   7.872
 4558TIP3   OH235232   1.181   1.827   0.870
 4558TIP3    H135233   1.111   1.862   0.926
 4558TIP3    H235234   1.195   1.738   0.903
 4559TIP3   OH235235   6.274   5.456   1.362
 4559TIP3    H135236   6.239   5.469   1.274
 4559TIP3    H235237   6.273   5.543   1.402
 4560TIP3   OH235238   1.723   4.588   1.403
 4560TIP3    H135239   1.731   4.497   1.373
 4560TIP3    H235240   1.633   4.593   1.437
 4561TIP3   OH235241   1.160   2.218   0.840
 4561TIP3    H135242   1.155   2.290   0.777
 4561TIP3    H235243   1.254   2.206   0.855
 4562TIP3   OH235244   0.914   3.282   8.466
 4562TIP3    H135245   1.004   3.313   8.470
 4562TIP3    H235246   0.861   3.362   8.471
 4563TIP3   OH235247   0.200   0.319   1.841
 4563TIP3    H135248   0.179   0.258   1.912
 4563TIP3    H235249   0.292   0.340   1.854
 4564TIP3   OH235250   2.932   2.164   0.882
 4564TIP3    H135251   2.982   2.082   0.879
 4564TIP3    H235252   2.971   2.212   0.955
 4565TIP3   OH235253   6.272   0.939   6.937
 4565TIP3    H135254   6.368   0.940   6.943
 4565TIP3    H235255   6.252   1.001   6.866
 4566TIP3   OH235256   1.643   3.584   6.556
 4566TIP3    H135257   1.633   3.673   6.522
 4566TIP3    H235258   1.655   3.530   6.478
 4567TIP3   OH235259   2.296   6.331   7.746
 4567TIP3    H135260   2.238   6.406   7.735
 4567TIP3    H235261   2.238   6.255   7.746
 4568TIP3   OH235262   0.797   5.666   7.653
 4568TIP3    H135263   0.759   5.746   7.618
 4568TIP3    H235264   0.765   5.597   7.594
 4569TIP3   OH235265   4.374   5.238   2.396
 4569TIP3    H135266   4.299   5.198   2.352
 4569TIP3    H235267   4.428   5.164   2.422
 4570TIP3   OH235268   1.634   3.279   6.770
 4570TIP3    H135269   1.561   3.221   6.747
 4570TIP3    H235270   1.602   3.367   6.750
 4571TIP3   OH235271   3.520   6.616   7.644
 4571TIP3    H135272   3.454   6.666   7.595
 4571TIP3    H235273   3.493   6.625   7.735
 4572TIP3   OH235274   3.579   4.691   0.750
 4572TIP3    H135275   3.520   4.729   0.684
 4572TIP3    H235276   3.626   4.622   0.703
 4573TIP3   OH235277   1.913   5.195   0.067
 4573TIP3    H135278   1.847   5.156   0.123
 4573TIP3    H235279   1.952   5.265   0.120
 4574TIP3   OH235280   0.629   1.146   0.678
 4574TIP3    H135281   0.673   1.061   0.682
 4574TIP3    H235282   0.536   1.126   0.675
 4575TIP3   OH235283   4.692   2.223   7.193
 4575TIP3    H135284   4.666   2.208   7.102
 4575TIP3    H235285   4.622   2.182   7.245
 4576TIP3   OH235286   5.705   5.401   2.595
 4576TIP3    H135287   5.628   5.454   2.614
 4576TIP3    H235288   5.779   5.462   2.599
 4577TIP3   OH235289   1.501   6.545   1.844
 4577TIP3    H135290   1.407   6.533   1.834
 4577TIP3    H235291   1.513   6.571   1.935
 4578TIP3   OH235292   6.004   5.635   0.311
 4578TIP3    H135293   6.060   5.558   0.309
 4578TIP3    H235294   5.986   5.648   0.404
 4579TIP3   OH235295   3.762   3.114   1.052
 4579TIP3    H135296   3.775   3.026   1.087
 4579TIP3    H235297   3.778   3.104   0.958
 4580TIP3   OH235298   4.977   5.238   8.267
 4580TIP3    H135299   4.981   5.142   8.260
 4580TIP3    H235300   4.909   5.264   8.205
 4581TIP3   OH235301   3.549   6.291   0.798
 4581TIP3    H135302   3.604   6.248   0.864
 4581TIP3    H235303   3.611   6.319   0.730
 4582TIP3   OH235304   6.636   1.791   0.361
 4582TIP3    H135305   6.629   1.699   0.339
 4582TIP3    H235306   6.714   1.821   0.315
 4583TIP3   OH235307   0.959   0.581   6.175
 4583TIP3    H135308   0.906   0.541   6.245
 4583TIP3    H235309   0.895   0.628   6.121
 4584TIP3   OH235310   5.088   1.473   7.538
 4584TIP3    H135311   5.092   1.451   7.445
 4584TIP3    H235312   5.061   1.564   7.541
 4585TIP3   OH235313   5.288   0.543   1.180
 4585TIP3    H135314   5.233   0.559   1.104
 4585TIP3    H235315   5.317   0.452   1.170
 4586TIP3   OH235316   0.773   2.364   1.315
 4586TIP3    H135317   0.803   2.397   1.230
 4586TIP3    H235318   0.677   2.365   1.309
 4587TIP3   OH235319   2.406   6.183   7.505
 4587TIP3    H135320   2.345   6.110   7.492
 4587TIP3    H235321   2.385   6.245   7.435
 4588TIP3   OH235322   6.050   1.851   7.728
 4588TIP3    H135323   6.071   1.836   7.820
 4588TIP3    H235324   5.999   1.774   7.703
 4589TIP3   OH235325   2.582   5.304   0.189
 4589TIP3    H135326   2.488   5.301   0.209
 4589TIP3    H235327   2.619   5.360   0.257
 4590TIP3   OH235328   1.823   5.772   8.106
 4590TIP3    H135329   1.862   5.690   8.074
 4590TIP3    H235330   1.873   5.841   8.062
 4591TIP3   OH235331   1.583   4.539   7.709
 4591TIP3    H135332   1.668   4.503   7.684
 4591TIP3    H235333   1.564   4.498   7.793
 4592TIP3   OH235334   2.621   6.370   6.884
 4592TIP3    H135335   2.624   6.456   6.842
 4592TIP3    H235336   2.616   6.308   6.812
 4593TIP3   OH235337   6.557   2.102   8.189
 4593TIP3    H135338   6.620   2.137   8.126
 4593TIP3    H235339   6.519   2.179   8.231
 4594TIP3   OH235340   5.691   6.557   7.565
 4594TIP3    H135341   5.719   6.630   7.510
 4594TIP3    H235342   5.743   6.567   7.645
 4595TIP3   OH235343   3.861   3.257   7.575
 4595TIP3    H135344   3.953   3.282   7.575
 4595TIP3    H235345   3.813   3.340   7.578
 4596TIP3   OH235346   2.329   3.702   7.952
 4596TIP3    H135347   2.363   3.788   7.974
 4596TIP3    H235348   2.266   3.683   8.021
 4597TIP3   OH235349   3.009   2.355   6.679
 4597TIP3    H135350   3.049   2.399   6.754
 4597TIP3    H235351   3.074   2.365   6.609
 4598TIP3   OH235352   4.922   4.247   7.991
 4598TIP3    H135353   4.909   4.170   7.935
 4598TIP3    H235354   4.834   4.265   8.026
 4599TIP3   OH235355   2.507   2.451   8.511
 4599TIP3    H135356   2.574   2.515   8.533
 4599TIP3    H235357   2.443   2.456   8.582
 4600TIP3   OH235358   5.620   2.876   8.157
 4600TIP3    H135359   5.550   2.818   8.189
 4600TIP3    H235360   5.660   2.827   8.085
 4601TIP3   OH235361   0.057   4.168   7.487
 4601TIP3    H135362   0.008   4.218   7.423
 4601TIP3    H235363   0.052   4.078   7.456
 4602TIP3   OH235364   5.464   4.472   0.361
 4602TIP3    H135365   5.449   4.456   0.454
 4602TIP3    H235366   5.409   4.408   0.316
 4603TIP3   OH235367   1.830   0.217   7.968
 4603TIP3    H135368   1.902   0.163   8.001
 4603TIP3    H235369   1.832   0.296   8.021
 4604TIP3   OH235370   6.064   1.823   0.848
 4604TIP3    H135371   6.136   1.848   0.790
 4604TIP3    H235372   6.075   1.880   0.924
 4605TIP3   OH235373   6.537   4.510   7.197
 4605TIP3    H135374   6.630   4.529   7.209
 4605TIP3    H235375   6.493   4.591   7.222
 4606TIP3   OH235376   2.596   4.343   6.749
 4606TIP3    H135377   2.601   4.435   6.773
 4606TIP3    H235378   2.520   4.310   6.797
 4607TIP3   OH235379   5.118   1.528   8.374
 4607TIP3    H135380   5.154   1.617   8.376
 4607TIP3    H235381   5.031   1.536   8.412
 4608TIP3   OH235382   5.761   4.192   6.591
 4608TIP3    H135383   5.840   4.147   6.563
 4608TIP3    H235384   5.713   4.209   6.510
 4609TIP3   OH235385   1.074   0.024   8.161
 4609TIP3    H135386   1.003   6.846   8.192
 4609TIP3    H235387   1.076   0.010   8.066
 4610TIP3   OH235388   4.369   1.465   7.530
 4610TIP3    H135389   4.314   1.387   7.519
 4610TIP3    H235390   4.436   1.438   7.592
 4611TIP3   OH235391   5.032   5.196   7.900
 4611TIP3    H135392   5.004   5.245   7.823
 4611TIP3    H235393   4.961   5.133   7.915
 4612TIP3   OH235394   5.145   4.164   7.188
 4612TIP3    H135395   5.206   4.228   7.152
 4612TIP3    H235396   5.096   4.132   7.113
 4613TIP3   OH235397   3.644   0.672   7.986
 4613TIP3    H135398   3.609   0.595   7.942
 4613TIP3    H235399   3.652   0.646   8.078
 4614TIP3   OH235400   3.327   1.767   0.536
 4614TIP3    H135401   3.295   1.834   0.476
 4614TIP3    H235402   3.422   1.765   0.521
 4615TIP3   OH235403   1.822   4.773   1.066
 4615TIP3    H135404   1.864   4.792   1.150
 4615TIP3    H235405   1.732   4.748   1.089
 4616TIP3   OH235406   3.555   2.393   0.377
 4616TIP3    H135407   3.536   2.483   0.403
 4616TIP3    H235408   3.614   2.402   0.302
 4617TIP3   OH235409   3.740   6.128   1.377
 4617TIP3    H135410   3.716   6.169   1.294
 4617TIP3    H235411   3.801   6.058   1.353
 4618TIP3   OH235412   6.389   6.598   6.540
 4618TIP3    H135413   6.474   6.593   6.583
 4618TIP3    H235414   6.331   6.547   6.597
 4619TIP3   OH235415   3.355   3.916   0.816
 4619TIP3    H135416   3.278   3.863   0.837
 4619TIP3    H235417   3.360   3.980   0.887
 4620TIP3   OH235418   4.242   6.577   7.525
 4620TIP3    H135419   4.168   6.622   7.485
 4620TIP3    H235420   4.220   6.484   7.520
 4621TIP3   OH235421   2.421   6.496   1.102
 4621TIP3    H135422   2.453   6.503   1.013
 4621TIP3    H235423   2.358   6.568   1.111
 4622TIP3   OH235424   2.841   6.674   6.964
 4622TIP3    H135425   2.778   6.679   7.036
 4622TIP3    H235426   2.789   6.649   6.888
 4623TIP3   OH235427   2.782   4.318   8.501
 4623TIP3    H135428   2.832   4.237   8.498
 4623TIP3    H235429   2.848   4.387   8.505
 4624TIP3   OH235430   2.559   0.537   6.956
 4624TIP3    H135431   2.596   0.565   6.872
 4624TIP3    H235432   2.626   0.559   7.020
 4625TIP3   OH235433   2.587   6.493   0.856
 4625TIP3    H135434   2.515   6.482   0.794
 4625TIP3    H235435   2.654   6.432   0.826
 4626TIP3   OH235436   4.261   6.151   6.250
 4626TIP3    H135437   4.301   6.077   6.204
 4626TIP3    H235438   4.297   6.147   6.338
 4627TIP3   OH235439   1.956   4.922   1.276
 4627TIP3    H135440   1.962   4.977   1.199
 4627TIP3    H235441   1.890   4.965   1.331
 4628TIP3   OH235442   0.144   3.080   0.645
 4628TIP3    H135443   0.115   3.170   0.662
 4628TIP3    H235444   0.231   3.075   0.686
 4629TIP3   OH235445   5.029   2.963   1.413
 4629TIP3    H135446   5.065   3.040   1.457
 4629TIP3    H235447   4.988   2.912   1.483
 4630TIP3   OH235448   0.579   3.260   8.237
 4630TIP3    H135449   0.590   3.342   8.189
 4630TIP3    H235450   0.665   3.218   8.235
 4631TIP3   OH235451   1.371   5.712   6.441
 4631TIP3    H135452   1.365   5.617   6.445
 4631TIP3    H235453   1.296   5.742   6.492
 4632TIP3   OH235454   0.008   3.876   1.362
 4632TIP3    H135455   0.042   3.912   1.444
 4632TIP3    H235456   0.073   3.810   1.336
 4633TIP3   OH235457   0.882   1.084   1.018
 4633TIP3    H135458   0.903   1.113   0.929
 4633TIP3    H235459   0.899   0.990   1.018
 4634TIP3   OH235460   4.941   4.996   0.882
 4634TIP3    H135461   4.975   5.077   0.845
 4634TIP3    H235462   4.858   4.982   0.837
 4635TIP3   OH235463   2.623   4.908   0.427
 4635TIP3    H135464   2.580   4.916   0.342
 4635TIP3    H235465   2.709   4.947   0.414
 4636TIP3   OH235466   4.257   6.524   7.920
 4636TIP3    H135467   4.280   6.584   7.850
 4636TIP3    H235468   4.236   6.580   7.995
 4637TIP3   OH235469   4.671   4.245   7.262
 4637TIP3    H135470   4.656   4.278   7.173
 4637TIP3    H235471   4.594   4.192   7.281
 4638TIP3   OH235472   1.231   5.886   1.959
 4638TIP3    H135473   1.312   5.837   1.973
 4638TIP3    H235474   1.163   5.832   2.000
 4639TIP3   OH235475   5.065   6.008   0.933
 4639TIP3    H135476   5.118   5.933   0.958
 4639TIP3    H235477   5.121   6.084   0.950
 4640TIP3   OH235478   4.158   1.384   7.792
 4640TIP3    H135479   4.235   1.332   7.768
 4640TIP3    H235480   4.137   1.354   7.881
 4641TIP3   OH235481   1.176   3.599   1.127
 4641TIP3    H135482   1.167   3.639   1.041
 4641TIP3    H235483   1.129   3.516   1.120
 4642TIP3   OH235484   2.088   4.837   7.591
 4642TIP3    H135485   2.081   4.744   7.569
 4642TIP3    H235486   2.110   4.880   7.509
 4643TIP3   OH235487   6.380   0.918   1.349
 4643TIP3    H135488   6.419   0.887   1.267
 4643TIP3    H235489   6.414   1.006   1.360
 4644TIP3   OH235490   0.148   3.172   1.593
 4644TIP3    H135491   0.089   3.179   1.668
 4644TIP3    H235492   0.097   3.202   1.518
 4645TIP3   OH235493   1.669   2.763   7.780
 4645TIP3    H135494   1.665   2.670   7.802
 4645TIP3    H235495   1.758   2.777   7.749
 4646TIP3   OH235496   6.251   2.643   7.854
 4646TIP3    H135497   6.343   2.651   7.828
 4646TIP3    H235498   6.207   2.714   7.808
 4647TIP3   OH235499   0.340   6.195   8.561
 4647TIP3    H135500   0.257   6.154   8.535
 4647TIP3    H235501   0.404   6.160   8.500
 4648TIP3   OH235502   1.312   3.035   8.087
 4648TIP3    H135503   1.385   3.044   8.026
 4648TIP3    H235504   1.237   3.011   8.032
 4649TIP3   OH235505   2.915   0.295   1.482
 4649TIP3    H135506   2.970   0.273   1.407
 4649TIP3    H235507   2.844   0.231   1.479
 4650TIP3   OH235508   5.357   6.759   2.446
 4650TIP3    H135509   5.269   6.794   2.460
 4650TIP3    H235510   5.347   6.697   2.374
 4651TIP3   OH235511   4.345   5.016   0.978
 4651TIP3    H135512   4.275   4.960   0.945
 4651TIP3    H235513   4.355   5.083   0.911
 4652TIP3   OH235514   1.659   0.820   7.406
 4652TIP3    H135515   1.741   0.860   7.379
 4652TIP3    H235516   1.602   0.894   7.426
 4653TIP3   OH235517   2.312   0.550   0.026
 4653TIP3    H135518   2.377   0.487   0.057
 4653TIP3    H235519   2.229   0.518   0.060
 4654TIP3   OH235520   5.044   3.254   8.072
 4654TIP3    H135521   5.011   3.172   8.107
 4654TIP3    H235522   5.101   3.289   8.140
 4655TIP3   OH235523   1.147   2.534   1.057
 4655TIP3    H135524   1.175   2.554   0.968
 4655TIP3    H235525   1.226   2.545   1.110
 4656TIP3   OH235526   6.160   6.000   8.573
 4656TIP3    H135527   6.092   5.984   0.014
 4656TIP3    H235528   6.235   5.950   8.604
 4657TIP3   OH235529   2.066   1.385   1.456
 4657TIP3    H135530   2.130   1.366   1.387
 4657TIP3    H235531   2.082   1.319   1.522
 4658TIP3   OH235532   2.231   5.764   0.199
 4658TIP3    H135533   2.214   5.675   0.229
 4658TIP3    H235534   2.158   5.815   0.232
 4659TIP3   OH235535   4.565   0.551   7.197
 4659TIP3    H135536   4.574   0.603   7.277
 4659TIP3    H235537   4.482   0.504   7.209
 4660TIP3   OH235538   4.893   4.689   7.391
 4660TIP3    H135539   4.950   4.625   7.434
 4660TIP3    H235540   4.848   4.640   7.322
 4661TIP3   OH235541   2.581   1.860   0.183
 4661TIP3    H135542   2.487   1.877   0.181
 4661TIP3    H235543   2.620   1.940   0.150
 4662TIP3   OH235544   2.248   0.506   0.493
 4662TIP3    H135545   2.288   0.436   0.544
 4662TIP3    H235546   2.278   0.586   0.535
 4663TIP3   OH235547   6.852   0.968   7.372
 4663TIP3    H135548   6.806   0.960   7.289
 4663TIP3    H235549   6.829   0.889   7.420
 4664TIP3   OH235550   6.346   5.044   8.221
 4664TIP3    H135551   6.414   5.015   8.283
 4664TIP3    H235552   6.271   5.066   8.277
 4665TIP3   OH235553   6.103   3.872   7.723
 4665TIP3    H135554   6.040   3.943   7.717
 4665TIP3    H235555   6.050   3.794   7.740
 4666TIP3   OH235556   5.351   6.138   1.669
 4666TIP3    H135557   5.292   6.213   1.675
 4666TIP3    H235558   5.295   6.062   1.682
 4667TIP3   OH235559   1.007   2.974   1.826
 4667TIP3    H135560   1.030   2.916   1.898
 4667TIP3    H235561   0.982   3.057   1.868
 4668TIP3   OH235562   5.441   3.737   1.982
 4668TIP3    H135563   5.497   3.746   2.059
 4668TIP3    H235564   5.460   3.649   1.949
 4669TIP3   OH235565   6.453   5.425   6.345
 4669TIP3    H135566   6.518   5.357   6.363
 4669TIP3    H235567   6.500   5.489   6.291
 4670TIP3   OH235568   4.911   0.801   1.560
 4670TIP3    H135569   4.818   0.790   1.541
 4670TIP3    H235570   4.924   0.896   1.566
 4671TIP3   OH235571   1.843   5.698   1.731
 4671TIP3    H135572   1.890   5.675   1.812
 4671TIP3    H235573   1.829   5.615   1.687
 4672TIP3   OH235574   4.987   6.249   0.746
 4672TIP3    H135575   4.951   6.201   0.821
 4672TIP3    H235576   5.066   6.290   0.780
 4673TIP3   OH235577   3.524   5.353   8.221
 4673TIP3    H135578   3.533   5.396   8.306
 4673TIP3    H235579   3.430   5.339   8.210
 4674TIP3   OH235580   1.373   3.195   7.219
 4674TIP3    H135581   1.390   3.286   7.194
 4674TIP3    H235582   1.291   3.173   7.175
 4675TIP3   OH235583   2.753   1.673   1.380
 4675TIP3    H135584   2.751   1.714   1.467
 4675TIP3    H235585   2.822   1.607   1.386
 4676TIP3   OH235586   1.546   6.009   1.757
 4676TIP3    H135587   1.529   5.915   1.746
 4676TIP3    H235588   1.600   6.033   1.682
 4677TIP3   OH235589   2.024   6.550   7.970
 4677TIP3    H135590   2.069   6.524   7.889
 4677TIP3    H235591   2.032   6.474   8.027
 4678TIP3   OH235592   1.201   4.563   1.519
 4678TIP3    H135593   1.138   4.499   1.487
 4678TIP3    H235594   1.203   4.631   1.451
 4679TIP3   OH235595   3.257   2.823   6.953
 4679TIP3    H135596   3.338   2.778   6.930
 4679TIP3    H235597   3.214   2.765   7.016
 4680TIP3   OH235598   1.766   0.368   1.904
 4680TIP3    H135599   1.861   0.358   1.896
 4680TIP3    H235600   1.741   0.421   1.828
 4681TIP3   OH235601   1.204   5.261   6.007
 4681TIP3    H135602   1.224   5.332   5.946
 4681TIP3    H235603   1.200   5.303   6.093
 4682TIP3   OH235604   4.554   6.629   0.909
 4682TIP3    H135605   4.551   6.663   0.819
 4682TIP3    H235606   4.469   6.587   0.921
 4683TIP3   OH235607   0.069   5.818   6.815
 4683TIP3    H135608   0.016   5.758   6.763
 4683TIP3    H235609   0.093   5.888   6.754
 4684TIP3   OH235610   5.706   4.577   7.389
 4684TIP3    H135611   5.674   4.550   7.303
 4684TIP3    H235612   5.633   4.625   7.428
 4685TIP3   OH235613   0.211   2.184   0.433
 4685TIP3    H135614   0.163   2.111   0.393
 4685TIP3    H235615   0.145   2.228   0.487
 4686TIP3   OH235616   1.376   5.435   5.864
 4686TIP3    H135617   1.432   5.451   5.941
 4686TIP3    H235618   1.429   5.464   5.790
 4687TIP3   OH235619   2.518   2.512   7.012
 4687TIP3    H135620   2.432   2.492   7.051
 4687TIP3    H235621   2.503   2.590   6.959
 4688TIP3   OH235622   4.655   5.622   2.377
 4688TIP3    H135623   4.648   5.542   2.429
 4688TIP3    H235624   4.599   5.685   2.424
 4689TIP3   OH235625   2.980   1.161   6.685
 4689TIP3    H135626   2.977   1.098   6.614
 4689TIP3    H235627   3.070   1.194   6.685
 4690TIP3   OH235628   4.026   4.493   0.183
 4690TIP3    H135629   3.959   4.439   0.141
 4690TIP3    H235630   3.992   4.582   0.175
 4691TIP3   OH235631   4.364   6.635   1.257
 4691TIP3    H135632   4.459   6.632   1.248
 4691TIP3    H235633   4.339   6.544   1.276
 4692TIP3   OH235634   4.803   2.061   1.174
 4692TIP3    H135635   4.816   1.997   1.104
 4692TIP3    H235636   4.884   2.058   1.224
 4693TIP3   OH235637   2.769   1.460   0.191
 4693TIP3    H135638   2.780   1.527   0.124
 4693TIP3    H235639   2.674   1.452   0.202
 4694TIP3   OH235640   0.037   4.959   0.955
 4694TIP3    H135641   0.010   4.885   0.900
 4694TIP3    H235642   6.851   5.027   0.936
 4695TIP3   OH235643   4.290   0.555   2.214
 4695TIP3    H135644   4.367   0.498   2.205
 4695TIP3    H235645   4.255   0.533   2.300
 4696TIP3   OH235646   2.389   6.656   1.395
 4696TIP3    H135647   2.415   6.579   1.345
 4696TIP3    H235648   2.397   6.629   1.486
 4697TIP3   OH235649   4.430   4.339   0.878
 4697TIP3    H135650   4.520   4.370   0.870
 4697TIP3    H235651   4.380   4.395   0.820
 4698TIP3   OH235652   5.793   3.870   0.962
 4698TIP3    H135653   5.704   3.855   0.931
 4698TIP3    H235654   5.784   3.892   1.054
 4699TIP3   OH235655   4.479   4.274   8.518
 4699TIP3    H135656   4.414   4.277   8.447
 4699TIP3    H235657   4.454   4.347   8.575
 4700TIP3   OH235658   0.934   3.844   6.964
 4700TIP3    H135659   1.018   3.802   6.948
 4700TIP3    H235660   0.954   3.936   6.978
 4701TIP3   OH235661   2.655   6.624   7.982
 4701TIP3    H135662   2.718   6.611   7.911
 4701TIP3    H235663   2.569   6.609   7.942
 4702TIP3   OH235664   4.090   6.096   1.137
 4702TIP3    H135665   4.140   6.019   1.163
 4702TIP3    H235666   4.002   6.062   1.120
 4703TIP3   OH235667   5.784   0.997   8.612
 4703TIP3    H135668   5.826   0.950   8.540
 4703TIP3    H235669   5.856   1.041   0.033
 4704TIP3   OH235670   3.704   3.608   0.391
 4704TIP3    H135671   3.657   3.679   0.348
 4704TIP3    H235672   3.652   3.529   0.373
 4705TIP3   OH235673   4.786   6.111   1.648
 4705TIP3    H135674   4.751   6.199   1.668
 4705TIP3    H235675   4.801   6.112   1.554
 4706TIP3   OH235676   2.688   5.596   7.735
 4706TIP3    H135677   2.678   5.664   7.667
 4706TIP3    H235678   2.621   5.531   7.714
 4707TIP3   OH235679   1.112   5.496   2.772
 4707TIP3    H135680   1.200   5.530   2.753
 4707TIP3    H235681   1.056   5.537   2.707
 4708TIP3   OH235682   6.228   1.014   8.404
 4708TIP3    H135683   6.203   0.963   8.327
 4708TIP3    H235684   6.224   0.951   8.476
 4709TIP3   OH235685   4.215   2.583   1.736
 4709TIP3    H135686   4.296   2.629   1.759
 4709TIP3    H235687   4.239   2.524   1.665
 4710TIP3   OH235688   4.158   5.871   0.395
 4710TIP3    H135689   4.179   5.963   0.411
 4710TIP3    H235690   4.072   5.873   0.352
 4711TIP3   OH235691   1.465   4.261   6.702
 4711TIP3    H135692   1.505   4.319   6.638
 4711TIP3    H235693   1.371   4.265   6.683
 4712TIP3   OH235694   1.816   2.262   7.380
 4712TIP3    H135695   1.739   2.304   7.342
 4712TIP3    H235696   1.797   2.259   7.474
 4713TIP3   OH235697   2.717   6.583   0.344
 4713TIP3    H135698   2.750   6.672   0.355
 4713TIP3    H235699   2.790   6.534   0.306
 4714TIP3   OH235700   4.257   2.988   0.537
 4714TIP3    H135701   4.170   2.959   0.565
 4714TIP3    H235702   4.259   3.081   0.559
 4715TIP3   OH235703   5.048   4.846   1.434
 4715TIP3    H135704   5.070   4.767   1.483
 4715TIP3    H235705   4.953   4.850   1.436
 4716TIP3   OH235706   2.182   0.945   0.548
 4716TIP3    H135707   2.264   0.919   0.506
 4716TIP3    H235708   2.197   0.928   0.641
 4717TIP3   OH235709   6.085   1.761   1.564
 4717TIP3    H135710   6.066   1.812   1.643
 4717TIP3    H235711   6.181   1.756   1.562
 4718TIP3   OH235712   6.606   0.376   1.704
 4718TIP3    H135713   6.543   0.307   1.722
 4718TIP3    H235714   6.648   0.393   1.788
 4719TIP3   OH235715   4.258   0.234   2.266
 4719TIP3    H135716   4.239   0.174   2.338
 4719TIP3    H235717   4.342   0.273   2.288
 4720TIP3   OH235718   4.499   2.179   6.989
 4720TIP3    H135719   4.419   2.197   7.038
 4720TIP3    H235720   4.476   2.197   6.898
 4721TIP3   OH235721   4.288   3.065   0.171
 4721TIP3    H135722   4.315   3.125   0.240
 4721TIP3    H235723   4.195   3.051   0.187
 4722TIP3   OH235724   2.383   3.266   2.226
 4722TIP3    H135725   2.456   3.319   2.260
 4722TIP3    H235726   2.312   3.329   2.214
 4723TIP3   OH235727   1.507   0.754   8.213
 4723TIP3    H135728   1.587   0.799   8.240
 4723TIP3    H235729   1.500   0.679   8.271
 4724TIP3   OH235730   6.370   2.757   8.578
 4724TIP3    H135731   6.363   2.661   8.574
 4724TIP3    H235732   6.463   2.773   8.591
 4725TIP3   OH235733   0.451   5.995   1.244
 4725TIP3    H135734   0.385   6.053   1.282
 4725TIP3    H235735   0.420   5.907   1.264
 4726TIP3   OH235736   5.325   3.931   7.555
 4726TIP3    H135737   5.378   3.915   7.633
 4726TIP3    H235738   5.287   4.018   7.570
 4727TIP3   OH235739   5.941   4.093   7.767
 4727TIP3    H135740   5.955   4.184   7.743
 4727TIP3    H235741   5.862   4.094   7.820
 4728TIP3   OH235742   5.607   1.614   2.017
 4728TIP3    H135743   5.612   1.617   2.113
 4728TIP3    H235744   5.513   1.607   1.998
 4729TIP3   OH235745   2.920   0.302   7.600
 4729TIP3    H135746   2.925   0.394   7.626
 4729TIP3    H235747   2.934   0.303   7.505
 4730TIP3   OH235748   2.116   2.996   7.068
 4730TIP3    H135749   2.025   3.015   7.045
 4730TIP3    H235750   2.141   2.923   7.011
 4731TIP3   OH235751   2.353   2.825   2.011
 4731TIP3    H135752   2.426   2.777   2.051
 4731TIP3    H235753   2.277   2.768   2.024
 4732TIP3   OH235754   6.051   0.705   0.863
 4732TIP3    H135755   6.140   0.741   0.857
 4732TIP3    H235756   6.063   0.610   0.854
 4733TIP3   OH235757   3.278   6.464   0.271
 4733TIP3    H135758   3.234   6.398   0.219
 4733TIP3    H235759   3.262   6.546   0.224
 4734TIP3   OH235760   1.374   5.037   1.448
 4734TIP3    H135761   1.378   5.075   1.360
 4734TIP3    H235762   1.465   5.038   1.478
 4735TIP3   OH235763   3.367   5.099   8.548
 4735TIP3    H135764   3.328   5.019   8.512
 4735TIP3    H235765   3.450   5.070   8.587
 4736TIP3   OH235766   5.926   4.750   1.802
 4736TIP3    H135767   5.888   4.800   1.875
 4736TIP3    H235768   5.967   4.816   1.747
 4737TIP3   OH235769   4.210   4.553   1.427
 4737TIP3    H135770   4.180   4.464   1.443
 4737TIP3    H235771   4.268   4.545   1.351
 4738TIP3   OH235772   3.402   5.453   7.363
 4738TIP3    H135773   3.360   5.370   7.341
 4738TIP3    H235774   3.469   5.465   7.296
 4739TIP3   OH235775   0.674   3.623   7.291
 4739TIP3    H135776   0.599   3.565   7.300
 4739TIP3    H235777   0.750   3.564   7.288
 4740TIP3   OH235778   2.799   6.149   0.413
 4740TIP3    H135779   2.852   6.218   0.373
 4740TIP3    H235780   2.739   6.195   0.472
 4741TIP3   OH235781   4.405   2.521   0.736
 4741TIP3    H135782   4.429   2.609   0.705
 4741TIP3    H235783   4.370   2.536   0.824
 4742TIP3   OH235784   1.287   2.632   0.835
 4742TIP3    H135785   1.277   2.706   0.775
 4742TIP3    H235786   1.380   2.608   0.827
 4743TIP3   OH235787   1.329   2.094   1.099
 4743TIP3    H135788   1.406   2.037   1.102
 4743TIP3    H235789   1.351   2.160   1.033
 4744TIP3   OH235790   1.864   6.082   6.820
 4744TIP3    H135791   1.910   6.030   6.887
 4744TIP3    H235792   1.933   6.109   6.760
 4745TIP3   OH235793   5.497   6.479   0.936
 4745TIP3    H135794   5.412   6.436   0.946
 4745TIP3    H235795   5.537   6.434   0.861
 4746TIP3   OH235796   4.364   6.526   6.920
 4746TIP3    H135797   4.333   6.552   7.007
 4746TIP3    H235798   4.335   6.596   6.862
 4747TIP3   OH235799   6.085   0.785   7.284
 4747TIP3    H135800   6.075   0.773   7.189
 4747TIP3    H235801   6.159   0.846   7.293
 4748TIP3   OH235802   1.290   4.763   0.767
 4748TIP3    H135803   1.258   4.673   0.771
 4748TIP3    H235804   1.339   4.768   0.685
 4749TIP3   OH235805   4.553   1.346   2.239
 4749TIP3    H135806   4.570   1.289   2.314
 4749TIP3    H235807   4.553   1.434   2.276
 4750TIP3   OH235808   5.806   1.437   1.796
 4750TIP3    H135809   5.714   1.435   1.820
 4750TIP3    H235810   5.824   1.529   1.777
 4751TIP3   OH235811   6.227   1.064   7.468
 4751TIP3    H135812   6.232   1.033   7.378
 4751TIP3    H235813   6.304   1.027   7.511
 4752TIP3   OH235814   2.122   5.486   8.603
 4752TIP3    H135815   2.194   5.450   0.030
 4752TIP3    H235816   2.058   5.515   0.044
 4753TIP3   OH235817   0.767   1.469   7.438
 4753TIP3    H135818   0.862   1.459   7.434
 4753TIP3    H235819   0.754   1.557   7.474
 4754TIP3   OH235820   0.968   3.429   7.733
 4754TIP3    H135821   0.889   3.402   7.779
 4754TIP3    H235822   1.029   3.356   7.745
 4755TIP3   OH235823   2.076   3.415   7.503
 4755TIP3    H135824   2.002   3.358   7.527
 4755TIP3    H235825   2.059   3.439   7.412
 4756TIP3   OH235826   6.474   3.146   0.115
 4756TIP3    H135827   6.421   3.073   0.147
 4756TIP3    H235828   6.423   3.224   0.136
 4757TIP3   OH235829   5.377   6.276   7.802
 4757TIP3    H135830   5.414   6.300   7.717
 4757TIP3    H235831   5.303   6.218   7.780
 4758TIP3   OH235832   5.857   4.984   0.886
 4758TIP3    H135833   5.771   4.990   0.843
 4758TIP3    H235834   5.882   5.075   0.902
 4759TIP3   OH235835   0.057   2.321   1.361
 4759TIP3    H135836   0.091   2.394   1.309
 4759TIP3    H235837   0.027   2.361   1.442
 4760TIP3   OH235838   0.945   5.809   1.442
 4760TIP3    H135839   0.874   5.834   1.502
 4760TIP3    H235840   1.015   5.779   1.499
 4761TIP3   OH235841   5.434   1.294   0.175
 4761TIP3    H135842   5.524   1.293   0.210
 4761TIP3    H235843   5.399   1.379   0.203
 4762TIP3   OH235844   3.834   1.466   0.115
 4762TIP3    H135845   3.890   1.396   0.081
 4762TIP3    H235846   3.749   1.451   0.074
 4763TIP3   OH235847   6.718   1.477   0.044
 4763TIP3    H135848   6.641   1.499   8.615
 4763TIP3    H235849   6.775   1.554   0.036
 4764TIP3   OH235850   1.357   0.852   1.400
 4764TIP3    H135851   1.446   0.854   1.436
 4764TIP3    H235852   1.356   0.920   1.333
 4765TIP3   OH235853   6.250   5.866   7.933
 4765TIP3    H135854   6.322   5.902   7.984
 4765TIP3    H235855   6.291   5.807   7.870
 4766TIP3   OH235856   0.657   4.016   1.180
 4766TIP3    H135857   0.645   4.054   1.093
 4766TIP3    H235858   0.737   4.057   1.213
 4767TIP3   OH235859   3.241   5.322   8.236
 4767TIP3    H135860   3.165   5.299   8.182
 4767TIP3    H235861   3.224   5.412   8.264
 4768TIP3   OH235862   5.274   5.404   7.171
 4768TIP3    H135863   5.331   5.335   7.205
 4768TIP3    H235864   5.187   5.363   7.167
 4769TIP3   OH235865   4.656   5.532   7.738
 4769TIP3    H135866   4.591   5.488   7.684
 4769TIP3    H235867   4.615   5.616   7.762
 4770TIP3   OH235868   6.589   2.697   1.021
 4770TIP3    H135869   6.501   2.702   0.983
 4770TIP3    H235870   6.602   2.604   1.041
 4771TIP3   OH235871   5.242   4.967   6.796
 4771TIP3    H135872   5.327   4.990   6.833
 4771TIP3    H235873   5.259   4.954   6.703
 4772TIP3   OH235874   0.451   4.906   6.470
 4772TIP3    H135875   0.385   4.904   6.539
 4772TIP3    H235876   0.410   4.957   6.400
 4773TIP3   OH235877   1.284   1.704   8.106
 4773TIP3    H135878   1.284   1.666   8.018
 4773TIP3    H235879   1.212   1.659   8.150
 4774TIP3   OH235880   6.507   6.359   8.285
 4774TIP3    H135881   6.512   6.329   8.376
 4774TIP3    H235882   6.413   6.355   8.264
 4775TIP3   OH235883   0.165   6.743   0.949
 4775TIP3    H135884   0.225   6.714   1.019
 4775TIP3    H235885   0.177   6.678   0.880
 4776TIP3   OH235886   0.438   3.416   0.419
 4776TIP3    H135887   0.359   3.454   0.459
 4776TIP3    H235888   0.411   3.393   0.330
 4777TIP3   OH235889   6.531   0.949   6.979
 4777TIP3    H135890   6.590   1.016   7.013
 4777TIP3    H235891   6.584   0.869   6.976
 4778TIP3   OH235892   1.630   2.418   7.251
 4778TIP3    H135893   1.632   2.473   7.173
 4778TIP3    H235894   1.647   2.478   7.324
 4779TIP3   OH235895   3.393   5.661   7.119
 4779TIP3    H135896   3.454   5.703   7.059
 4779TIP3    H235897   3.309   5.661   7.072
 4780TIP3   OH235898   0.565   5.702   8.148
 4780TIP3    H135899   0.484   5.653   8.135
 4780TIP3    H235900   0.619   5.680   8.072
 4781TIP3   OH235901   1.351   1.003   7.751
 4781TIP3    H135902   1.285   1.046   7.697
 4781TIP3    H235903   1.365   1.062   7.825
 4782TIP3   OH235904   1.872   6.177   0.646
 4782TIP3    H135905   1.928   6.225   0.708
 4782TIP3    H235906   1.888   6.219   0.562
 4783TIP3   OH235907   1.391   2.014   1.505
 4783TIP3    H135908   1.429   2.028   1.592
 4783TIP3    H235909   1.431   2.080   1.450
 4784TIP3   OH235910   1.106   1.036   7.032
 4784TIP3    H135911   1.030   1.058   7.085
 4784TIP3    H235912   1.101   1.094   6.956
 4785TIP3   OH235913   0.964   4.279   8.583
 4785TIP3    H135914   0.886   4.222   8.581
 4785TIP3    H235915   0.964   4.315   0.048
 4786TIP3   OH235916   5.158   1.266   8.283
 4786TIP3    H135917   5.195   1.334   8.339
 4786TIP3    H235918   5.066   1.262   8.307
 4787TIP3   OH235919   5.702   6.675   6.859
 4787TIP3    H135920   5.727   6.600   6.805
 4787TIP3    H235921   5.784   6.705   6.898
 4788TIP3   OH235922   6.350   1.186   0.096
 4788TIP3    H135923   6.258   1.183   0.072
 4788TIP3    H235924   6.350   1.175   0.191
 4789TIP3   OH235925   6.504   2.380   7.519
 4789TIP3    H135926   6.454   2.310   7.477
 4789TIP3    H235927   6.595   2.351   7.513
 4790TIP3   OH235928   1.126   4.116   6.937
 4790TIP3    H135929   1.087   4.112   7.024
 4790TIP3    H235930   1.077   4.186   6.893
 4791TIP3   OH235931   2.934   1.542   7.656
 4791TIP3    H135932   2.999   1.598   7.614
 4791TIP3    H235933   2.931   1.463   7.602
 4792TIP3   OH235934   1.168   0.863   0.539
 4792TIP3    H135935   1.157   0.768   0.547
 4792TIP3    H235936   1.086   0.900   0.573
 4793TIP3   OH235937   3.390   0.848   7.162
 4793TIP3    H135938   3.423   0.786   7.096
 4793TIP3    H235939   3.310   0.884   7.123
 4794TIP3   OH235940   0.376   6.284   7.289
 4794TIP3    H135941   0.330   6.285   7.205
 4794TIP3    H235942   0.308   6.266   7.354
 4795TIP3   OH235943   1.343   3.473   7.122
 4795TIP3    H135944   1.290   3.439   7.050
 4795TIP3    H235945   1.288   3.541   7.162
 4796TIP3   OH235946   2.703   1.684   1.659
 4796TIP3    H135947   2.633   1.620   1.650
 4796TIP3    H235948   2.707   1.701   1.754
 4797TIP3   OH235949   1.169   0.531   1.321
 4797TIP3    H135950   1.106   0.583   1.370
 4797TIP3    H235951   1.254   0.553   1.361
 4798TIP3   OH235952   2.337   3.866   0.117
 4798TIP3    H135953   2.385   3.890   0.196
 4798TIP3    H235954   2.385   3.791   0.082
 4799TIP3   OH235955   5.946   6.009   1.574
 4799TIP3    H135956   5.871   5.950   1.573
 4799TIP3    H235957   5.972   6.015   1.482
 4800TIP3   OH235958   4.352   4.949   1.278
 4800TIP3    H135959   4.322   4.998   1.201
 4800TIP3    H235960   4.289   4.973   1.347
 4801TIP3   OH235961   6.432   0.250   7.090
 4801TIP3    H135962   6.436   0.259   6.995
 4801TIP3    H235963   6.339   0.257   7.111
 4802TIP3   OH235964   3.957   6.590   6.882
 4802TIP3    H135965   3.953   6.568   6.789
 4802TIP3    H235966   4.027   6.535   6.917
 4803TIP3   OH235967   2.636   4.123   1.301
 4803TIP3    H135968   2.660   4.032   1.283
 4803TIP3    H235969   2.593   4.152   1.220
 4804TIP3   OH235970   1.048   3.514   0.192
 4804TIP3    H135971   1.056   3.605   0.164
 4804TIP3    H235972   1.128   3.472   0.162
 4805TIP3   OH235973   6.605   2.626   7.958
 4805TIP3    H135974   6.595   2.606   7.865
 4805TIP3    H235975   6.540   2.570   8.000
 4806TIP3   OH235976   5.258   6.325   0.335
 4806TIP3    H135977   5.291   6.312   0.424
 4806TIP3    H235978   5.334   6.359   0.287
 4807TIP3   OH235979   1.303   4.138   7.165
 4807TIP3    H135980   1.210   4.114   7.161
 4807TIP3    H235981   1.308   4.203   7.234
 4808TIP3   OH235982   4.437   1.751   0.798
 4808TIP3    H135983   4.383   1.816   0.753
 4808TIP3    H235984   4.523   1.792   0.803
 4809TIP3   OH235985   5.161   3.970   6.447
 4809TIP3    H135986   5.071   3.946   6.470
 4809TIP3    H235987   5.151   4.043   6.386
 4810TIP3   OH235988   2.456   3.155   7.891
 4810TIP3    H135989   2.467   3.247   7.867
 4810TIP3    H235990   2.365   3.135   7.871
 4811TIP3   OH235991   6.709   4.914   7.862
 4811TIP3    H135992   6.643   4.982   7.847
 4811TIP3    H235993   6.700   4.892   7.955
 4812TIP3   OH235994   6.770   1.156   1.568
 4812TIP3    H135995   6.679   1.138   1.544
 4812TIP3    H235996   6.764   1.223   1.636
 4813TIP3   OH235997   6.319   5.320   7.808
 4813TIP3    H135998   6.355   5.274   7.884
 4813TIP3    H235999   6.278   5.251   7.756
 4814TIP3   OH236000   1.535   6.814   7.263
 4814TIP3    H136001   1.510   6.862   7.184
 4814TIP3    H236002   1.497   6.727   7.250
 4815TIP3   OH236003   5.874   4.846   7.397
 4815TIP3    H136004   5.860   4.867   7.489
 4815TIP3    H236005   5.807   4.896   7.350
 4816TIP3   OH236006   3.565   6.781   7.092
 4816TIP3    H136007   3.489   6.824   7.053
 4816TIP3    H236008   3.588   6.836   7.168
 4817TIP3   OH236009   1.203   6.026   7.148
 4817TIP3    H136010   1.140   5.970   7.193
 4817TIP3    H236011   1.182   6.115   7.179
 4818TIP3   OH236012   3.139   0.976   7.150
 4818TIP3    H136013   3.077   0.973   7.222
 4818TIP3    H236014   3.167   1.068   7.145
 4819TIP3   OH236015   4.547   4.399   6.993
 4819TIP3    H136016   4.457   4.419   6.968
 4819TIP3    H236017   4.598   4.471   6.957
 4820TIP3   OH236018   5.507   6.275   2.452
 4820TIP3    H136019   5.576   6.331   2.417
 4820TIP3    H236020   5.553   6.201   2.491
 4821TIP3   OH236021   0.691   5.125   0.829
 4821TIP3    H136022   0.770   5.175   0.850
 4821TIP3    H236023   0.625   5.192   0.809
 4822TIP3   OH236024   4.973   1.247   8.495
 4822TIP3    H136025   4.921   1.326   8.514
 4822TIP3    H236026   5.003   1.217   8.581
 4823TIP3   OH236027   5.985   6.033   7.827
 4823TIP3    H136028   5.952   5.943   7.829
 4823TIP3    H236029   6.043   6.039   7.903
 4824TIP3   OH236030   4.806   6.186   7.745
 4824TIP3    H136031   4.846   6.262   7.702
 4824TIP3    H236032   4.755   6.224   7.817
 4825TIP3   OH236033   5.350   0.626   0.463
 4825TIP3    H136034   5.301   0.581   0.395
 4825TIP3    H236035   5.432   0.577   0.471
 4826TIP3   OH236036   3.831   4.412   8.112
 4826TIP3    H136037   3.904   4.353   8.096
 4826TIP3    H236038   3.760   4.355   8.141
 4827TIP3   OH236039   5.353   5.193   7.652
 4827TIP3    H136040   5.286   5.157   7.594
 4827TIP3    H236041   5.436   5.168   7.611
 4828TIP3   OH236042   6.532   1.810   1.010
 4828TIP3    H136043   6.624   1.816   0.984
 4828TIP3    H236044   6.526   1.729   1.059
 4829TIP3   OH236045   5.804   6.385   7.384
 4829TIP3    H136046   5.740   6.330   7.338
 4829TIP3    H236047   5.755   6.423   7.457
 4830TIP3   OH236048   6.819   0.191   8.362
 4830TIP3    H136049   6.738   0.192   8.414
 4830TIP3    H236050   0.002   0.143   8.417
 4831TIP3   OH236051   4.168   4.389   2.330
 4831TIP3    H136052   4.143   4.479   2.351
 4831TIP3    H236053   4.216   4.359   2.408
 4832TIP3   OH236054   4.709   3.622   2.360
 4832TIP3    H136055   4.667   3.592   2.441
 4832TIP3    H236056   4.799   3.591   2.367
 4833TIP3   OH236057   6.667   2.979   1.071
 4833TIP3    H136058   6.635   3.030   0.997
 4833TIP3    H236059   6.627   2.893   1.060
 4834TIP3   OH236060   0.486   6.136   7.712
 4834TIP3    H136061   0.493   6.198   7.785
 4834TIP3    H236062   0.417   6.172   7.656
 4835TIP3   OH236063   5.598   4.282   0.142
 4835TIP3    H136064   5.566   4.204   0.097
 4835TIP3    H236065   5.549   4.354   0.102
 4836TIP3   OH236066   2.416   5.393   7.170
 4836TIP3    H136067   2.381   5.305   7.185
 4836TIP3    H236068   2.459   5.387   7.084
 4837TIP3   OH236069   6.393   0.309   0.241
 4837TIP3    H136070   6.446   0.315   0.161
 4837TIP3    H236071   6.316   0.362   0.222
 4838TIP3   OH236072   2.744   5.683   0.254
 4838TIP3    H136073   2.818   5.725   0.212
 4838TIP3    H236074   2.686   5.658   0.182
 4839TIP3   OH236075   5.793   6.389   1.041
 4839TIP3    H136076   5.844   6.412   0.964
 4839TIP3    H236077   5.736   6.464   1.055
 4840TIP3   OH236078   3.915   6.779   7.852
 4840TIP3    H136079   3.841   6.819   7.805
 4840TIP3    H236080   3.964   6.853   7.887
 4841TIP3   OH236081   1.647   0.729   6.768
 4841TIP3    H136082   1.598   0.721   6.850
 4841TIP3    H236083   1.588   0.775   6.709
 4842TIP3   OH236084   3.628   1.620   7.490
 4842TIP3    H136085   3.715   1.658   7.501
 4842TIP3    H236086   3.592   1.614   7.579
 4843TIP3   OH236087   2.573   0.612   7.622
 4843TIP3    H136088   2.530   0.554   7.685
 4843TIP3    H236089   2.604   0.686   7.674
 4844TIP3   OH236090   5.488   3.110   8.306
 4844TIP3    H136091   5.526   3.041   8.252
 4844TIP3    H236092   5.403   3.076   8.333
 4845TIP3   OH236093   4.343   3.522   0.355
 4845TIP3    H136094   4.392   3.491   0.432
 4845TIP3    H236095   4.360   3.457   0.288
 4846TIP3   OH236096   2.026   1.959   1.376
 4846TIP3    H136097   1.996   1.891   1.316
 4846TIP3    H236098   1.998   1.930   1.463
 4847TIP3   OH236099   1.179   2.890   1.422
 4847TIP3    H136100   1.254   2.880   1.364
 4847TIP3    H236101   1.211   2.863   1.508
 4848TIP3   OH236102   0.640   1.823   6.989
 4848TIP3    H136103   0.699   1.808   6.915
 4848TIP3    H236104   0.627   1.737   7.027
 4849TIP3   OH236105   6.546   1.185   1.411
 4849TIP3    H136106   6.463   1.232   1.418
 4849TIP3    H236107   6.610   1.252   1.387
 4850TIP3   OH236108   4.884   6.841   7.235
 4850TIP3    H136109   4.850   6.765   7.187
 4850TIP3    H236110   4.807   0.016   7.251
 4851TIP3   OH236111   2.409   2.698   6.389
 4851TIP3    H136112   2.383   2.766   6.451
 4851TIP3    H236113   2.334   2.689   6.330
 4852TIP3   OH236114   3.618   1.295   0.313
 4852TIP3    H136115   3.589   1.383   0.337
 4852TIP3    H236116   3.695   1.279   0.368
 4853TIP3   OH236117   0.743   0.002   7.819
 4853TIP3    H136118   0.761   6.835   7.737
 4853TIP3    H236119   0.691   0.078   7.792
 4854TIP3   OH236120   6.879   6.638   6.421
 4854TIP3    H136121   0.043   6.700   6.363
 4854TIP3    H236122   6.821   6.589   6.363
 4855TIP3   OH236123   4.099   3.494   8.390
 4855TIP3    H136124   4.028   3.476   8.451
 4855TIP3    H236125   4.106   3.590   8.388
 4856TIP3   OH236126   5.454   0.127   0.052
 4856TIP3    H136127   5.471   0.193   0.120
 4856TIP3    H236128   5.390   0.169   8.618
 4857TIP3   OH236129   0.258   2.007   6.773
 4857TIP3    H136130   0.204   2.076   6.736
 4857TIP3    H236131   0.343   2.017   6.730
 4858TIP3   OH236132   6.735   0.443   0.096
 4858TIP3    H136133   6.765   0.504   0.163
 4858TIP3    H236134   6.804   0.377   0.090
 4859TIP3   OH236135   1.598   5.711   1.039
 4859TIP3    H136136   1.585   5.758   0.956
 4859TIP3    H236137   1.602   5.780   1.105
 4860TIP3   OH236138   0.838   1.504   8.496
 4860TIP3    H136139   0.810   1.590   8.464
 4860TIP3    H236140   0.865   1.520   8.587
 4861TIP3   OH236141   3.314   0.671   6.503
 4861TIP3    H136142   3.259   0.632   6.434
 4861TIP3    H236143   3.304   0.765   6.490
 4862TIP3   OH236144   0.415   3.099   1.930
 4862TIP3    H136145   0.381   3.165   1.869
 4862TIP3    H236146   0.462   3.150   1.996
 4863TIP3   OH236147   6.768   4.878   7.242
 4863TIP3    H136148   6.756   4.973   7.244
 4863TIP3    H236149   6.708   4.845   7.309
 4864TIP3   OH236150   2.491   4.297   0.359
 4864TIP3    H136151   2.424   4.357   0.390
 4864TIP3    H236152   2.573   4.347   0.365
 4865TIP3   OH236153   0.433   2.288   0.601
 4865TIP3    H136154   0.511   2.246   0.563
 4865TIP3    H236155   0.359   2.246   0.558
 4866TIP3   OH236156   3.058   6.674   0.411
 4866TIP3    H136157   3.139   6.648   0.453
 4866TIP3    H236158   3.080   6.680   0.318
 4867TIP3   OH236159   3.449   6.292   7.954
 4867TIP3    H136160   3.417   6.365   8.007
 4867TIP3    H236161   3.539   6.278   7.986
 4868TIP3   OH236162   5.214   5.650   0.444
 4868TIP3    H136163   5.185   5.691   0.362
 4868TIP3    H236164   5.205   5.556   0.427
 4869TIP3   OH236165   0.935   6.287   8.231
 4869TIP3    H136166   0.916   6.361   8.173
 4869TIP3    H236167   0.860   6.228   8.219
 4870TIP3   OH236168   5.726   5.337   0.119
 4870TIP3    H136169   5.650   5.379   0.080
 4870TIP3    H236170   5.799   5.395   0.098
 4871TIP3   OH236171   5.844   2.236   6.911
 4871TIP3    H136172   5.901   2.254   6.836
 4871TIP3    H236173   5.852   2.142   6.926
 4872TIP3   OH236174   0.175   6.799   1.375
 4872TIP3    H136175   0.233   6.800   1.451
 4872TIP3    H236176   0.173   0.011   1.346
 4873TIP3   OH236177   0.235   1.209   8.276
 4873TIP3    H136178   0.244   1.163   8.192
 4873TIP3    H236179   0.161   1.168   8.319
 4874TIP3   OH236180   5.065   0.620   0.194
 4874TIP3    H136181   4.973   0.642   0.177
 4874TIP3    H236182   5.113   0.699   0.168
 4875TIP3   OH236183   6.694   6.838   7.488
 4875TIP3    H136184   6.658   6.870   7.570
 4875TIP3    H236185   6.665   0.022   7.422
 4876TIP3   OH236186   0.837   3.221   8.139
 4876TIP3    H136187   0.861   3.310   8.166
 4876TIP3    H236188   0.918   3.185   8.101
 4877TIP3   OH236189   0.473   5.242   1.214
 4877TIP3    H136190   0.386   5.213   1.187
 4877TIP3    H236191   0.514   5.164   1.253
 4878TIP3   OH236192   2.594   4.051   0.101
 4878TIP3    H136193   2.606   3.987   0.031
 4878TIP3    H236194   2.539   4.006   0.165
 4879TIP3   OH236195   2.588   0.068   7.038
 4879TIP3    H136196   2.533   0.075   6.960
 4879TIP3    H236197   2.551   0.131   7.100
 4880TIP3   OH236198   3.074   1.552   8.433
 4880TIP3    H136199   3.073   1.493   8.508
 4880TIP3    H236200   3.163   1.586   8.430
 4881TIP3   OH236201   6.438   5.691   2.505
 4881TIP3    H136202   6.381   5.716   2.433
 4881TIP3    H236203   6.483   5.612   2.474
 4882TIP3   OH236204   6.559   3.529   7.081
 4882TIP3    H136205   6.510   3.568   7.008
 4882TIP3    H236206   6.587   3.443   7.049
 4883TIP3   OH236207   4.580   6.812   2.088
 4883TIP3    H136208   4.611   0.022   2.107
 4883TIP3    H236209   4.561   6.775   2.174
 4884TIP3   OH236210   6.713   4.129   0.362
 4884TIP3    H136211   6.696   4.099   0.451
 4884TIP3    H236212   6.774   4.064   0.326
 4885TIP3   OH236213   3.894   3.941   0.619
 4885TIP3    H136214   3.800   3.930   0.611
 4885TIP3    H236215   3.914   3.917   0.709
 4886TIP3   OH236216   2.517   1.346   8.551
 4886TIP3    H136217   2.506   1.437   8.526
 4886TIP3    H236218   2.506   1.345   0.022
 4887TIP3   OH236219   6.411   1.074   0.629
 4887TIP3    H136220   6.465   1.151   0.612
 4887TIP3    H236221   6.354   1.101   0.701
 4888TIP3   OH236222   1.070   0.221   8.352
 4888TIP3    H136223   1.065   0.144   8.295
 4888TIP3    H236224   1.083   0.294   8.291
 4889TIP3   OH236225   4.645   1.781   1.039
 4889TIP3    H136226   4.689   1.865   1.050
 4889TIP3    H236227   4.680   1.747   0.956
 4890TIP3   OH236228   6.355   2.864   8.078
 4890TIP3    H136229   6.341   2.843   8.170
 4890TIP3    H236230   6.279   2.828   8.033
 4891TIP3   OH236231   0.476   2.503   7.711
 4891TIP3    H136232   0.532   2.525   7.636
 4891TIP3    H236233   0.521   2.431   7.755
 4892TIP3   OH236234   6.600   2.668   1.645
 4892TIP3    H136235   6.657   2.675   1.721
 4892TIP3    H236236   6.587   2.759   1.616
 4893TIP3   OH236237   3.909   3.167   6.939
 4893TIP3    H136238   3.880   3.082   6.973
 4893TIP3    H236239   3.845   3.190   6.872
 4894TIP3   OH236240   0.157   0.144   2.056
 4894TIP3    H136241   0.098   0.132   2.131
 4894TIP3    H236242   0.240   0.107   2.085
 4895TIP3   OH236243   2.069   0.425   0.113
 4895TIP3    H136244   2.022   0.504   0.140
 4895TIP3    H236245   2.036   0.405   0.026
 4896TIP3   OH236246   5.735   4.117   1.293
 4896TIP3    H136247   5.722   4.033   1.249
 4896TIP3    H236248   5.709   4.182   1.228
 4897TIP3   OH236249   5.685   2.431   1.214
 4897TIP3    H136250   5.624   2.382   1.160
 4897TIP3    H236251   5.664   2.523   1.198
 4898TIP3   OH236252   0.530   0.688   7.202
 4898TIP3    H136253   0.477   0.613   7.175
 4898TIP3    H236254   0.536   0.680   7.297
 4899TIP3   OH236255   3.160   6.251   0.153
 4899TIP3    H136256   3.155   6.170   0.204
 4899TIP3    H236257   3.200   6.224   0.071
 4900TIP3   OH236258   5.674   5.585   8.248
 4900TIP3    H136259   5.755   5.561   8.203
 4900TIP3    H236260   5.609   5.523   8.215
 4901TIP3   OH236261   4.490   5.447   2.537
 4901TIP3    H136262   4.434   5.382   2.494
 4901TIP3    H236263   4.562   5.396   2.574
 4902TIP3   OH236264   0.209   6.193   7.634
 4902TIP3    H136265   0.229   6.286   7.628
 4902TIP3    H236266   0.152   6.185   7.711
 4903TIP3   OH236267   0.513   5.875   8.536
 4903TIP3    H136268   0.419   5.871   8.553
 4903TIP3    H236269   0.551   5.905   8.618
 4904TIP3   OH236270   1.000   6.159   1.543
 4904TIP3    H136271   0.951   6.079   1.561
 4904TIP3    H236272   1.068   6.161   1.611
 4905TIP3   OH236273   6.821   5.513   1.281
 4905TIP3    H136274   6.809   5.420   1.263
 4905TIP3    H236275   6.738   5.541   1.319
 4906TIP3   OH236276   6.495   6.417   0.931
 4906TIP3    H136277   6.486   6.494   0.876
 4906TIP3    H236278   6.572   6.434   0.984
 4907TIP3   OH236279   5.554   1.276   8.566
 4907TIP3    H136280   5.497   1.341   8.525
 4907TIP3    H236281   5.521   1.268   0.031
 4908TIP3   OH236282   2.970   5.949   1.010
 4908TIP3    H136283   2.951   5.978   0.921
 4908TIP3    H236284   2.891   5.968   1.060
 4909TIP3   OH236285   4.352   0.823   0.935
 4909TIP3    H136286   4.280   0.867   0.890
 4909TIP3    H236287   4.362   0.740   0.889
 4910TIP3   OH236288   4.785   6.640   7.093
 4910TIP3    H136289   4.826   6.561   7.129
 4910TIP3    H236290   4.718   6.606   7.034
 4911TIP3   OH236291   5.456   4.362   1.799
 4911TIP3    H136292   5.373   4.402   1.773
 4911TIP3    H236293   5.438   4.323   1.885
 4912TIP3   OH236294   6.876   3.510   0.706
 4912TIP3    H136295   0.016   3.587   0.760
 4912TIP3    H236296   6.847   3.444   0.768
 4913TIP3   OH236297   3.684   4.393   8.376
 4913TIP3    H136298   3.644   4.451   8.312
 4913TIP3    H236299   3.611   4.365   8.433
 4914TIP3   OH236300   2.273   6.196   0.906
 4914TIP3    H136301   2.242   6.105   0.899
 4914TIP3    H236302   2.205   6.240   0.957
 4915TIP3   OH236303   0.436   4.821   8.447
 4915TIP3    H136304   0.445   4.842   8.354
 4915TIP3    H236305   0.401   4.732   8.449
 4916TIP3   OH236306   6.007   4.255   1.313
 4916TIP3    H136307   6.036   4.164   1.327
 4916TIP3    H236308   5.933   4.247   1.254
 4917TIP3   OH236309   4.158   6.295   7.810
 4917TIP3    H136310   4.199   6.376   7.841
 4917TIP3    H236311   4.169   6.298   7.715
 4918TIP3   OH236312   4.369   2.179   8.242
 4918TIP3    H136313   4.320   2.254   8.276
 4918TIP3    H236314   4.434   2.217   8.183
 4919TIP3   OH236315   1.074   2.316   6.891
 4919TIP3    H136316   1.168   2.322   6.872
 4919TIP3    H236317   1.067   2.343   6.982
 4920TIP3   OH236318   1.972   1.231   0.752
 4920TIP3    H136319   1.893   1.194   0.791
 4920TIP3    H236320   2.027   1.254   0.827
 4921TIP3   OH236321   5.104   5.681   1.077
 4921TIP3    H136322   5.021   5.662   1.121
 4921TIP3    H236323   5.127   5.769   1.107
 4922TIP3   OH236324   0.259   4.933   0.508
 4922TIP3    H136325   0.342   4.941   0.462
 4922TIP3    H236326   0.271   4.984   0.588
 4923TIP3   OH236327   0.511   2.372   1.174
 4923TIP3    H136328   0.520   2.330   1.088
 4923TIP3    H236329   0.422   2.352   1.202
 4924TIP3   OH236330   5.724   4.284   7.903
 4924TIP3    H136331   5.728   4.379   7.896
 4924TIP3    H236332   5.648   4.259   7.851
 4925TIP3   OH236333   4.693   5.903   6.581
 4925TIP3    H136334   4.730   5.976   6.631
 4925TIP3    H236335   4.620   5.872   6.634
 4926TIP3   OH236336   2.691   6.828   7.720
 4926TIP3    H136337   2.761   0.007   7.750
 4926TIP3    H236338   2.733   6.743   7.710
 4927TIP3   OH236339   2.848   1.896   0.718
 4927TIP3    H136340   2.847   1.980   0.765
 4927TIP3    H236341   2.931   1.896   0.671
 4928TIP3   OH236342   5.636   1.242   7.732
 4928TIP3    H136343   5.702   1.222   7.798
 4928TIP3    H236344   5.684   1.243   7.649
 4929TIP3   OH236345   2.553   6.457   7.633
 4929TIP3    H136346   2.611   6.499   7.569
 4929TIP3    H236347   2.474   6.511   7.631
 4930TIP3   OH236348   6.605   6.066   7.598
 4930TIP3    H136349   6.526   6.065   7.652
 4930TIP3    H236350   6.592   6.141   7.539
 4931TIP3   OH236351   1.244   6.479   2.031
 4931TIP3    H136352   1.218   6.461   1.941
 4931TIP3    H236353   1.271   6.571   2.030
 4932TIP3   OH236354   5.858   1.759   8.426
 4932TIP3    H136355   5.945   1.765   8.385
 4932TIP3    H236356   5.872   1.706   8.504
 4933TIP3   OH236357   3.199   4.288   1.205
 4933TIP3    H136358   3.189   4.354   1.274
 4933TIP3    H236359   3.180   4.335   1.124
 4934TIP3   OH236360   2.974   6.781   7.334
 4934TIP3    H136361   2.936   6.860   7.296
 4934TIP3    H236362   3.051   6.812   7.383
 4935TIP3   OH236363   6.078   1.777   0.483
 4935TIP3    H136364   6.085   1.736   0.397
 4935TIP3    H236365   6.116   1.712   0.544
 4936TIP3   OH236366   0.953   4.331   6.821
 4936TIP3    H136367   0.942   4.345   6.915
 4936TIP3    H236368   0.868   4.299   6.791
 4937TIP3   OH236369   5.575   0.111   0.637
 4937TIP3    H136370   5.512   0.168   0.595
 4937TIP3    H236371   5.655   0.163   0.643
 4938TIP3   OH236372   2.709   4.371   7.328
 4938TIP3    H136373   2.728   4.278   7.340
 4938TIP3    H236374   2.712   4.384   7.233
 4939TIP3   OH236375   0.929   0.147   7.412
 4939TIP3    H136376   0.905   0.085   7.344
 4939TIP3    H236377   0.845   0.188   7.437
 4940TIP3   OH236378   2.122   2.438   0.118
 4940TIP3    H136379   2.133   2.346   0.092
 4940TIP3    H236380   2.030   2.444   0.144
 4941TIP3   OH236381   6.584   0.982   2.011
 4941TIP3    H136382   6.621   0.957   1.926
 4941TIP3    H236383   6.608   1.074   2.021
 4942TIP3   OH236384   5.086   1.196   0.127
 4942TIP3    H136385   4.999   1.180   0.163
 4942TIP3    H236386   5.130   1.111   0.132
 4943TIP3   OH236387   0.862   5.490   1.248
 4943TIP3    H136388   0.946   5.495   1.203
 4943TIP3    H236389   0.819   5.574   1.229
 4944TIP3   OH236390   1.393   0.736   0.166
 4944TIP3    H136391   1.337   0.792   0.114
 4944TIP3    H236392   1.345   0.653   0.172
 4945TIP3   OH236393   6.776   1.791   1.858
 4945TIP3    H136394   6.866   1.809   1.883
 4945TIP3    H236395   6.730   1.779   1.941
 4946TIP3   OH236396   3.956   1.448   2.562
 4946TIP3    H136397   4.002   1.423   2.482
 4946TIP3    H236398   3.900   1.521   2.535
 4947TIP3   OH236399   6.708   0.473   1.298
 4947TIP3    H136400   6.679   0.398   1.246
 4947TIP3    H236401   6.774   0.437   1.357
 4948TIP3   OH236402   0.533   0.658   7.490
 4948TIP3    H136403   0.562   0.609   7.566
 4948TIP3    H236404   0.473   0.599   7.444
 4949TIP3   OH236405   1.886   5.125   6.400
 4949TIP3    H136406   1.848   5.077   6.326
 4949TIP3    H236407   1.810   5.161   6.446
 4950TIP3   OH236408   6.793   3.285   0.856
 4950TIP3    H136409   6.764   3.340   0.929
 4950TIP3    H236410   6.714   3.237   0.830
 4951TIP3   OH236411   5.782   5.110   0.258
 4951TIP3    H136412   5.771   5.174   0.188
 4951TIP3    H236413   5.693   5.092   0.289
 4952TIP3   OH236414   6.057   3.445   7.997
 4952TIP3    H136415   6.021   3.496   7.924
 4952TIP3    H236416   6.146   3.423   7.968
 4953TIP3   OH236417   2.207   3.689   0.582
 4953TIP3    H136418   2.239   3.640   0.657
 4953TIP3    H236419   2.218   3.781   0.606
 4954TIP3   OH236420   2.766   1.205   7.759
 4954TIP3    H136421   2.746   1.115   7.731
 4954TIP3    H236422   2.689   1.231   7.810
 4955TIP3   OH236423   4.604   1.165   7.335
 4955TIP3    H136424   4.685   1.196   7.293
 4955TIP3    H236425   4.565   1.244   7.373
 4956TIP3   OH236426   0.599   3.090   6.877
 4956TIP3    H136427   0.623   2.999   6.858
 4956TIP3    H236428   0.646   3.141   6.811
 4957TIP3   OH236429   5.927   3.563   0.582
 4957TIP3    H136430   5.999   3.534   0.638
 4957TIP3    H236431   5.969   3.620   0.517
 4958TIP3   OH236432   3.098   4.953   0.064
 4958TIP3    H136433   3.040   4.896   0.114
 4958TIP3    H236434   3.050   4.972   8.608
 4959TIP3   OH236435   5.434   0.793   0.667
 4959TIP3    H136436   5.420   0.880   0.629
 4959TIP3    H236437   5.413   0.732   0.597
 4960TIP3   OH236438   5.662   2.943   7.838
 4960TIP3    H136439   5.743   2.891   7.836
 4960TIP3    H236440   5.623   2.931   7.752
 4961TIP3   OH236441   4.167   1.342   1.047
 4961TIP3    H136442   4.175   1.317   0.955
 4961TIP3    H236443   4.257   1.357   1.076
 4962TIP3   OH236444   3.466   3.256   8.143
 4962TIP3    H136445   3.431   3.171   8.115
 4962TIP3    H236446   3.398   3.319   8.121
 4963TIP3   OH236447   3.649   6.104   7.644
 4963TIP3    H136448   3.593   6.171   7.606
 4963TIP3    H236449   3.732   6.149   7.660
 4964TIP3   OH236450   0.575   0.862   7.980
 4964TIP3    H136451   0.516   0.900   8.045
 4964TIP3    H236452   0.657   0.911   7.990
 4965TIP3   OH236453   2.472   1.026   1.046
 4965TIP3    H136454   2.561   1.004   1.074
 4965TIP3    H236455   2.416   0.996   1.118
 4966TIP3   OH236456   2.717   6.658   8.232
 4966TIP3    H136457   2.778   6.586   8.249
 4966TIP3    H236458   2.690   6.646   8.141
 4967TIP3   OH236459   3.936   4.958   6.614
 4967TIP3    H136460   3.981   4.938   6.532
 4967TIP3    H236461   3.957   4.885   6.672
 4968TIP3   OH236462   1.173   0.493   0.233
 4968TIP3    H136463   1.202   0.456   0.316
 4968TIP3    H236464   1.091   0.449   0.214
 4969TIP3   OH236465   6.157   5.517   1.115
 4969TIP3    H136466   6.166   5.541   1.023
 4969TIP3    H236467   6.118   5.594   1.156
 4970TIP3   OH236468   6.615   6.686   1.804
 4970TIP3    H136469   6.632   6.640   1.886
 4970TIP3    H236470   6.624   6.779   1.826
 4971TIP3   OH236471   3.235   1.064   7.692
 4971TIP3    H136472   3.177   1.029   7.624
 4971TIP3    H236473   3.197   1.149   7.714
 4972TIP3   OH236474   4.944   0.257   8.323
 4972TIP3    H136475   4.930   0.184   8.263
 4972TIP3    H236476   4.986   0.217   8.399
 4973TIP3   OH236477   4.891   4.167   0.251
 4973TIP3    H136478   4.865   4.126   0.168
 4973TIP3    H236479   4.986   4.159   0.253
 4974TIP3   OH236480   3.463   0.081   7.682
 4974TIP3    H136481   3.424   0.161   7.719
 4974TIP3    H236482   3.459   0.094   7.587
 4975TIP3   OH236483   2.329   4.617   8.517
 4975TIP3    H136484   2.419   4.586   8.507
 4975TIP3    H236485   2.323   4.644   8.609
 4976TIP3   OH236486   5.146   6.524   8.305
 4976TIP3    H136487   5.161   6.580   8.229
 4976TIP3    H236488   5.189   6.568   8.378
 4977TIP3   OH236489   6.270   5.765   6.879
 4977TIP3    H136490   6.248   5.768   6.972
 4977TIP3    H236491   6.305   5.677   6.865
 4978TIP3   OH236492   2.023   4.839   0.892
 4978TIP3    H136493   1.948   4.804   0.940
 4978TIP3    H236494   2.015   4.934   0.902
 4979TIP3   OH236495   3.485   6.657   6.239
 4979TIP3    H136496   3.472   6.619   6.326
 4979TIP3    H236497   3.577   6.681   6.237
 4980TIP3   OH236498   4.273   0.825   8.596
 4980TIP3    H136499   4.338   0.755   8.596
 4980TIP3    H236500   4.189   0.781   8.604
 4981TIP3   OH236501   6.200   2.571   0.209
 4981TIP3    H136502   6.211   2.652   0.258
 4981TIP3    H236503   6.167   2.599   0.124
 4982TIP3   OH236504   4.915   5.116   2.129
 4982TIP3    H136505   4.950   5.072   2.207
 4982TIP3    H236506   4.824   5.087   2.123
 4983TIP3   OH236507   5.208   1.256   7.982
 4983TIP3    H136508   5.180   1.296   8.064
 4983TIP3    H236509   5.167   1.169   7.982
 4984TIP3   OH236510   6.563   1.220   7.135
 4984TIP3    H136511   6.478   1.243   7.097
 4984TIP3    H236512   6.547   1.219   7.230
 4985TIP3   OH236513   6.016   5.278   0.940
 4985TIP3    H136514   5.948   5.339   0.910
 4985TIP3    H236515   6.064   5.327   1.007
 4986TIP3   OH236516   2.212   5.027   8.114
 4986TIP3    H136517   2.260   5.057   8.191
 4986TIP3    H236518   2.195   5.107   8.064
 4987TIP3   OH236519   0.896   5.055   7.829
 4987TIP3    H136520   0.896   5.038   7.735
 4987TIP3    H236521   0.867   4.973   7.869
 4988TIP3   OH236522   0.514   6.644   1.620
 4988TIP3    H136523   0.500   6.604   1.534
 4988TIP3    H236524   0.607   6.667   1.621
 4989TIP3   OH236525   0.382   0.742   0.680
 4989TIP3    H136526   0.440   0.800   0.631
 4989TIP3    H236527   0.427   0.730   0.765
 4990TIP3   OH236528   4.373   4.572   7.605
 4990TIP3    H136529   4.320   4.494   7.621
 4990TIP3    H236530   4.463   4.540   7.598
 4991TIP3   OH236531   6.174   3.441   1.877
 4991TIP3    H136532   6.240   3.493   1.922
 4991TIP3    H236533   6.090   3.474   1.910
 4992TIP3   OH236534   2.331   0.869   1.250
 4992TIP3    H136535   2.411   0.851   1.299
 4992TIP3    H236536   2.261   0.864   1.316
 4993TIP3   OH236537   1.776   1.579   7.564
 4993TIP3    H136538   1.868   1.565   7.543
 4993TIP3    H236539   1.775   1.655   7.621
 4994TIP3   OH236540   0.052   0.688   7.771
 4994TIP3    H136541   0.053   0.748   7.846
 4994TIP3    H236542   6.858   0.629   7.789
 4995TIP3   OH236543   5.601   0.044   1.862
 4995TIP3    H136544   5.681   0.049   1.913
 4995TIP3    H236545   5.628   0.059   1.771
 4996TIP3   OH236546   5.561   5.235   1.157
 4996TIP3    H136547   5.650   5.227   1.191
 4996TIP3    H236548   5.523   5.147   1.168
 4997TIP3   OH236549   5.265   3.964   6.736
 4997TIP3    H136550   5.233   3.984   6.648
 4997TIP3    H236551   5.197   3.908   6.774
 4998TIP3   OH236552   6.246   0.392   1.396
 4998TIP3    H136553   6.257   0.298   1.411
 4998TIP3    H236554   6.331   0.430   1.420
 4999TIP3   OH236555   4.779   5.256   0.409
 4999TIP3    H136556   4.839   5.190   0.445
 4999TIP3    H236557   4.714   5.270   0.477
 5000TIP3   OH236558   3.885   1.726   0.695
 5000TIP3    H136559   3.839   1.719   0.778
 5000TIP3    H236560   3.839   1.797   0.649
 5001TIP3   OH236561   6.151   3.107   7.602
 5001TIP3    H136562   6.103   3.078   7.524
 5001TIP3    H236563   6.205   3.180   7.572
 5002TIP3   OH236564   0.966   3.893   1.492
 5002TIP3    H136565   0.953   3.814   1.544
 5002TIP3    H236566   1.031   3.944   1.541
 5003TIP3   OH236567   0.538   4.610   1.197
 5003TIP3    H136568   0.608   4.674   1.195
 5003TIP3    H236569   0.577   4.531   1.160
 5004TIP3   OH236570   3.488   1.312   7.285
 5004TIP3    H136571   3.549   1.371   7.240
 5004TIP3    H236572   3.442   1.367   7.348
 5005TIP3   OH236573   0.445   6.648   8.213
 5005TIP3    H136574   0.517   6.619   8.269
 5005TIP3    H236575   0.382   6.576   8.216
 5006TIP3   OH236576   6.619   4.065   1.682
 5006TIP3    H136577   6.697   4.103   1.642
 5006TIP3    H236578   6.626   4.087   1.775
 5007TIP3   OH236579   5.764   0.674   0.893
 5007TIP3    H136580   5.741   0.690   0.801
 5007TIP3    H236581   5.859   0.687   0.897
 5008TIP3   OH236582   5.217   1.225   1.609
 5008TIP3    H136583   5.145   1.165   1.588
 5008TIP3    H236584   5.177   1.312   1.605
 5009TIP3   OH236585   4.076   5.361   6.846
 5009TIP3    H136586   4.131   5.438   6.829
 5009TIP3    H236587   4.122   5.313   6.915
 5010TIP3   OH236588   1.831   6.438   0.193
 5010TIP3    H136589   1.806   6.527   0.168
 5010TIP3    H236590   1.783   6.382   0.132
 5011TIP3   OH236591   6.754   5.164   0.859
 5011TIP3    H136592   6.699   5.189   0.786
 5011TIP3    H236593   6.838   5.206   0.842
 5012TIP3   OH236594   5.605   6.073   0.994
 5012TIP3    H136595   5.658   6.096   0.918
 5012TIP3    H236596   5.630   6.138   1.061
 5013TIP3   OH236597   5.458   4.384   8.115
 5013TIP3    H136598   5.477   4.295   8.087
 5013TIP3    H236599   5.377   4.377   8.165
 5014TIP3   OH236600   3.504   1.695   7.730
 5014TIP3    H136601   3.541   1.735   7.808
 5014TIP3    H236602   3.477   1.769   7.675
 5015TIP3   OH236603   3.113   0.437   7.018
 5015TIP3    H136604   3.078   0.488   6.945
 5015TIP3    H236605   3.045   0.372   7.036
 5016TIP3   OH236606   1.308   4.766   1.347
 5016TIP3    H136607   1.309   4.856   1.382
 5016TIP3    H236608   1.400   4.748   1.326
 5017TIP3   OH236609   3.252   3.593   6.848
 5017TIP3    H136610   3.237   3.680   6.887
 5017TIP3    H236611   3.164   3.557   6.836
 5018TIP3   OH236612   3.916   0.788   1.240
 5018TIP3    H136613   3.876   0.772   1.155
 5018TIP3    H236614   4.003   0.822   1.220
 5019TIP3   OH236615   3.202   3.959   0.030
 5019TIP3    H136616   3.222   3.870   0.059
 5019TIP3    H236617   3.109   3.956   0.005
 5020TIP3   OH236618   4.905   5.941   7.875
 5020TIP3    H136619   4.889   6.010   7.811
 5020TIP3    H236620   4.965   5.981   7.938
 5021TIP3   OH236621   1.153   0.444   8.189
 5021TIP3    H136622   1.076   0.492   8.158
 5021TIP3    H236623   1.228   0.492   8.154
 5022TIP3   OH236624   5.552   2.446   0.320
 5022TIP3    H136625   5.510   2.511   0.263
 5022TIP3    H236626   5.623   2.411   0.266
 5023TIP3   OH236627   6.642   2.500   0.360
 5023TIP3    H136628   6.728   2.501   0.403
 5023TIP3    H236629   6.636   2.412   0.323
 5024TIP3   OH236630   2.924   5.753   8.222
 5024TIP3    H136631   2.983   5.815   8.179
 5024TIP3    H236632   2.916   5.681   8.160
 5025TIP3   OH236633   6.828   6.006   1.803
 5025TIP3    H136634   6.800   6.088   1.843
 5025TIP3    H236635   6.749   5.971   1.761
 5026TIP3   OH236636   6.677   6.555   2.049
 5026TIP3    H136637   6.682   6.585   2.139
 5026TIP3    H236638   6.767   6.561   2.016
 5027TIP3   OH236639   3.873   2.860   1.037
 5027TIP3    H136640   3.891   2.811   0.957
 5027TIP3    H236641   3.959   2.883   1.072
 5028TIP3   OH236642   0.644   1.173   7.448
 5028TIP3    H136643   0.641   1.211   7.360
 5028TIP3    H236644   0.594   1.092   7.441
 5029TIP3   OH236645   6.460   4.655   7.928
 5029TIP3    H136646   6.510   4.587   7.972
 5029TIP3    H236647   6.369   4.640   7.956
 5030TIP3   OH236648   5.634   6.688   1.024
 5030TIP3    H136649   5.630   6.659   1.115
 5030TIP3    H236650   5.600   6.614   0.974
 5031TIP3   OH236651   4.115   1.309   1.678
 5031TIP3    H136652   4.148   1.355   1.601
 5031TIP3    H236653   4.031   1.350   1.696
 5032TIP3   OH236654   0.031   1.017   1.007
 5032TIP3    H136655   6.876   1.052   1.089
 5032TIP3    H236656   6.867   1.069   0.939
 5033TIP3   OH236657   0.881   6.456   7.518
 5033TIP3    H136658   0.939   6.446   7.442
 5033TIP3    H236659   0.793   6.443   7.482
 5034TIP3   OH236660   4.835   1.636   8.358
 5034TIP3    H136661   4.824   1.594   8.443
 5034TIP3    H236662   4.817   1.567   8.294
 5035TIP3   OH236663   6.535   1.323   0.610
 5035TIP3    H136664   6.441   1.339   0.610
 5035TIP3    H236665   6.568   1.376   0.683
 5036TIP3   OH236666   5.018   1.624   1.061
 5036TIP3    H136667   5.051   1.709   1.090
 5036TIP3    H236668   4.979   1.585   1.140
 5037TIP3   OH236669   6.061   0.512   7.276
 5037TIP3    H136670   6.129   0.465   7.227
 5037TIP3    H236671   6.102   0.596   7.297
 5038TIP3   OH236672   1.613   3.732   6.927
 5038TIP3    H136673   1.675   3.803   6.908
 5038TIP3    H236674   1.663   3.671   6.982
 5039TIP3   OH236675   5.478   6.696   1.727
 5039TIP3    H136676   5.541   6.757   1.766
 5039TIP3    H236677   5.393   6.722   1.763
 5040TIP3   OH236678   0.444   0.963   0.857
 5040TIP3    H136679   0.527   0.975   0.904
 5040TIP3    H236680   0.393   0.904   0.913
 5041TIP3   OH236681   2.107   6.087   6.092
 5041TIP3    H136682   2.098   6.044   6.007
 5041TIP3    H236683   2.019   6.083   6.130
 5042TIP3   OH236684   3.252   1.834   1.637
 5042TIP3    H136685   3.278   1.915   1.680
 5042TIP3    H236686   3.192   1.862   1.568
 5043TIP3   OH236687   5.827   2.883   1.658
 5043TIP3    H136688   5.803   2.803   1.613
 5043TIP3    H236689   5.762   2.947   1.630
 5044TIP3   OH236690   1.777   3.278   0.918
 5044TIP3    H136691   1.710   3.267   0.986
 5044TIP3    H236692   1.732   3.258   0.836
 5045TIP3   OH236693   2.829   6.711   0.915
 5045TIP3    H136694   2.894   6.643   0.925
 5045TIP3    H236695   2.791   6.697   0.828
 5046TIP3   OH236696   3.489   2.249   7.804
 5046TIP3    H136697   3.420   2.194   7.768
 5046TIP3    H236698   3.517   2.304   7.731
 5047TIP3   OH236699   4.260   0.112   1.417
 5047TIP3    H136700   4.189   0.165   1.453
 5047TIP3    H236701   4.283   0.052   1.487
 5048TIP3   OH236702   0.516   1.135   7.826
 5048TIP3    H136703   0.598   1.163   7.784
 5048TIP3    H236704   0.488   1.059   7.775
 5049TIP3   OH236705   4.120   3.578   0.837
 5049TIP3    H136706   4.166   3.586   0.920
 5049TIP3    H236707   4.170   3.633   0.777
 5050TIP3   OH236708   4.227   3.788   0.644
 5050TIP3    H136709   4.162   3.857   0.644
 5050TIP3    H236710   4.277   3.801   0.563
 5051TIP3   OH236711   3.922   2.427   8.392
 5051TIP3    H136712   3.884   2.489   8.330
 5051TIP3    H236713   3.968   2.482   8.456
 5052TIP3   OH236714   3.334   4.260   1.526
 5052TIP3    H136715   3.285   4.299   1.454
 5052TIP3    H236716   3.390   4.331   1.558
 5053TIP3   OH236717   2.570   0.785   2.303
 5053TIP3    H136718   2.492   0.835   2.277
 5053TIP3    H236719   2.569   0.790   2.399
 5054TIP3   OH236720   0.442   2.850   0.794
 5054TIP3    H136721   0.415   2.817   0.709
 5054TIP3    H236722   0.365   2.837   0.850
 5055TIP3   OH236723   3.280   0.710   0.559
 5055TIP3    H136724   3.302   0.679   0.646
 5055TIP3    H236725   3.200   0.663   0.536
 5056TIP3   OH236726   3.991   5.979   7.936
 5056TIP3    H136727   3.901   6.003   7.915
 5056TIP3    H236728   3.996   5.885   7.920
 5057TIP3   OH236729   5.822   3.185   0.539
 5057TIP3    H136730   5.772   3.212   0.616
 5057TIP3    H236731   5.899   3.140   0.574
 5058TIP3   OH236732   1.659   5.069   0.159
 5058TIP3    H136733   1.658   5.023   0.075
 5058TIP3    H236734   1.612   5.151   0.142
 5059TIP3   OH236735   6.105   5.849   6.637
 5059TIP3    H136736   6.170   5.825   6.704
 5059TIP3    H236737   6.107   5.777   6.575
 5060TIP3   OH236738   4.955   2.863   0.604
 5060TIP3    H136739   4.947   2.953   0.575
 5060TIP3    H236740   4.881   2.849   0.663
 5061TIP3   OH236741   3.311   0.862   8.008
 5061TIP3    H136742   3.331   0.898   8.095
 5061TIP3    H236743   3.233   0.809   8.021
 5062TIP3   OH236744   1.035   1.757   8.427
 5062TIP3    H136745   1.025   1.852   8.436
 5062TIP3    H236746   1.129   1.743   8.427
 5063TIP3   OH236747   5.153   3.330   1.843
 5063TIP3    H136748   5.248   3.325   1.834
 5063TIP3    H236749   5.123   3.376   1.765
 5064TIP3   OH236750   0.343   5.558   1.944
 5064TIP3    H136751   0.424   5.603   1.966
 5064TIP3    H236752   0.288   5.626   1.904
 5065TIP3   OH236753   6.465   3.156   8.437
 5065TIP3    H136754   6.515   3.075   8.452
 5065TIP3    H236755   6.440   3.185   8.525
 5066TIP3   OH236756   3.639   3.949   8.272
 5066TIP3    H136757   3.675   4.025   8.318
 5066TIP3    H236758   3.715   3.907   8.231
 5067TIP3   OH236759   1.615   2.904   8.326
 5067TIP3    H136760   1.689   2.905   8.265
 5067TIP3    H236761   1.587   2.996   8.330
 5068TIP3   OH236762   5.942   3.447   6.644
 5068TIP3    H136763   5.859   3.482   6.609
 5068TIP3    H236764   5.958   3.369   6.591
 5069TIP3   OH236765   4.239   4.099   1.698
 5069TIP3    H136766   4.271   4.148   1.775
 5069TIP3    H236767   4.307   4.034   1.682
 5070TIP3   OH236768   0.463   3.429   7.856
 5070TIP3    H136769   0.493   3.342   7.831
 5070TIP3    H236770   0.499   3.487   7.789
 5071TIP3   OH236771   2.801   1.308   8.484
 5071TIP3    H136772   2.706   1.321   8.489
 5071TIP3    H236773   2.827   1.281   8.572
 5072TIP3   OH236774   2.976   3.890   7.247
 5072TIP3    H136775   2.975   3.796   7.230
 5072TIP3    H236776   2.903   3.924   7.195
 5073TIP3   OH236777   1.539   1.555   8.381
 5073TIP3    H136778   1.599   1.481   8.385
 5073TIP3    H236779   1.561   1.600   8.300
 5074TIP3   OH236780   4.427   3.430   0.673
 5074TIP3    H136781   4.499   3.366   0.677
 5074TIP3    H236782   4.349   3.379   0.695
 5075TIP3   OH236783   4.603   3.318   7.266
 5075TIP3    H136784   4.661   3.257   7.311
 5075TIP3    H236785   4.518   3.306   7.307
 5076TIP3   OH236786   3.701   5.566   6.939
 5076TIP3    H136787   3.744   5.651   6.930
 5076TIP3    H236788   3.698   5.531   6.850
 5077TIP3   OH236789   2.600   3.679   7.758
 5077TIP3    H136790   2.592   3.632   7.841
 5077TIP3    H236791   2.548   3.628   7.696
 5078TIP3   OH236792   5.128   0.165   7.896
 5078TIP3    H136793   5.066   0.094   7.878
 5078TIP3    H236794   5.188   0.163   7.821
 5079TIP3   OH236795   0.737   0.501   0.346
 5079TIP3    H136796   0.752   0.576   0.288
 5079TIP3    H236797   0.660   0.526   0.398
 5080TIP3   OH236798   0.043   3.191   8.321
 5080TIP3    H136799   0.035   3.118   8.382
 5080TIP3    H236800   0.080   3.263   8.373
 5081TIP3   OH236801   3.420   5.123   7.447
 5081TIP3    H136802   3.508   5.156   7.427
 5081TIP3    H236803   3.369   5.143   7.368
 5082TIP3   OH236804   6.263   1.878   7.927
 5082TIP3    H136805   6.254   1.787   7.899
 5082TIP3    H236806   6.356   1.890   7.944
 5083TIP3   OH236807   4.010   0.765   1.659
 5083TIP3    H136808   4.056   0.847   1.640
 5083TIP3    H236809   3.952   0.752   1.584
 5084TIP3   OH236810   6.508   1.979   1.307
 5084TIP3    H136811   6.561   1.899   1.312
 5084TIP3    H236812   6.464   1.972   1.222
 5085TIP3   OH236813   3.182   2.511   1.489
 5085TIP3    H136814   3.231   2.584   1.527
 5085TIP3    H236815   3.198   2.518   1.395
 5086TIP3   OH236816   1.197   0.626   1.078
 5086TIP3    H136817   1.120   0.682   1.074
 5086TIP3    H236818   1.191   0.584   1.164
 5087TIP3   OH236819   1.771   3.310   8.151
 5087TIP3    H136820   1.686   3.353   8.146
 5087TIP3    H236821   1.809   3.341   8.233
 5088TIP3   OH236822   0.795   1.727   2.318
 5088TIP3    H136823   0.712   1.684   2.295
 5088TIP3    H236824   0.825   1.766   2.236
 5089TIP3   OH236825   4.464   1.764   7.846
 5089TIP3    H136826   4.445   1.681   7.888
 5089TIP3    H236827   4.427   1.830   7.904
 5090TIP3   OH236828   4.459   2.266   2.447
 5090TIP3    H136829   4.384   2.236   2.395
 5090TIP3    H236830   4.490   2.187   2.491
 5091TIP3   OH236831   4.380   5.375   1.203
 5091TIP3    H136832   4.314   5.313   1.233
 5091TIP3    H236833   4.460   5.349   1.248
 5092TIP3   OH236834   4.804   5.499   1.031
 5092TIP3    H136835   4.823   5.589   1.056
 5092TIP3    H236836   4.746   5.467   1.100
 5093TIP3   OH236837   2.210   5.910   0.866
 5093TIP3    H136838   2.207   5.908   0.771
 5093TIP3    H236839   2.119   5.900   0.893
 5094TIP3   OH236840   2.393   0.052   0.809
 5094TIP3    H136841   2.458   0.012   0.751
 5094TIP3    H236842   2.323   6.866   0.814
 5095TIP3   OH236843   3.253   0.156   2.464
 5095TIP3    H136844   3.275   0.063   2.466
 5095TIP3    H236845   3.330   0.198   2.425
 5096TIP3   OH236846   6.698   1.844   7.359
 5096TIP3    H136847   6.749   1.832   7.278
 5096TIP3    H236848   6.653   1.760   7.372
 5097TIP3   OH236849   4.734   4.511   7.238
 5097TIP3    H136850   4.786   4.490   7.160
 5097TIP3    H236851   4.717   4.427   7.280
 5098TIP3   OH236852   5.433   0.452   6.876
 5098TIP3    H136853   5.440   0.473   6.783
 5098TIP3    H236854   5.393   0.529   6.916
 5099TIP3   OH236855   4.490   4.130   8.214
 5099TIP3    H136856   4.470   4.039   8.235
 5099TIP3    H236857   4.584   4.131   8.200
 5100TIP3   OH236858   6.091   1.136   7.988
 5100TIP3    H136859   6.144   1.056   7.978
 5100TIP3    H236860   6.014   1.108   8.037
 5101TIP3   OH236861   2.880   0.831   0.600
 5101TIP3    H136862   2.889   0.804   0.692
 5101TIP3    H236863   2.939   0.772   0.552
 5102TIP3   OH236864   5.722   6.666   0.412
 5102TIP3    H136865   5.774   6.638   0.337
 5102TIP3    H236866   5.693   6.755   0.389
 5103TIP3   OH236867   3.508   5.440   1.097
 5103TIP3    H136868   3.427   5.420   1.050
 5103TIP3    H236869   3.575   5.392   1.050
 5104TIP3   OH236870   3.704   3.885   1.415
 5104TIP3    H136871   3.611   3.884   1.437
 5104TIP3    H236872   3.749   3.894   1.499
 5105TIP3   OH236873   3.293   4.526   8.227
 5105TIP3    H136874   3.333   4.585   8.163
 5105TIP3    H236875   3.271   4.448   8.177
 5106TIP3   OH236876   0.664   5.350   7.757
 5106TIP3    H136877   0.572   5.370   7.777
 5106TIP3    H236878   0.668   5.254   7.757
 5107TIP3   OH236879   2.935   1.875   7.372
 5107TIP3    H136880   3.017   1.895   7.327
 5107TIP3    H236881   2.897   1.961   7.392
 5108TIP3   OH236882   3.566   6.338   7.550
 5108TIP3    H136883   3.525   6.359   7.466
 5108TIP3    H236884   3.600   6.422   7.582
 5109TIP3   OH236885   1.123   1.804   0.197
 5109TIP3    H136886   1.092   1.882   0.243
 5109TIP3    H236887   1.136   1.832   0.107
 5110TIP3   OH236888   0.643   1.958   7.656
 5110TIP3    H136889   0.577   1.963   7.724
 5110TIP3    H236890   0.658   1.865   7.643
 5111TIP3   OH236891   4.479   1.081   1.338
 5111TIP3    H136892   4.486   1.000   1.389
 5111TIP3    H236893   4.489   1.053   1.247
 5112TIP3   OH236894   2.289   2.419   7.750
 5112TIP3    H136895   2.271   2.409   7.657
 5112TIP3    H236896   2.204   2.410   7.792
 5113TIP3   OH236897   4.855   4.494   0.176
 5113TIP3    H136898   4.895   4.501   0.089
 5113TIP3    H236899   4.903   4.424   0.219
 5114TIP3   OH236900   4.188   3.851   8.090
 5114TIP3    H136901   4.245   3.918   8.053
 5114TIP3    H236902   4.174   3.789   8.019
 5115TIP3   OH236903   4.886   2.980   0.076
 5115TIP3    H136904   4.937   2.940   0.147
 5115TIP3    H236905   4.818   3.031   0.121
 5116TIP3   OH236906   5.790   1.561   1.111
 5116TIP3    H136907   5.870   1.546   1.162
 5116TIP3    H236908   5.792   1.655   1.090
 5117TIP3   OH236909   6.659   0.927   1.750
 5117TIP3    H136910   6.700   0.968   1.674
 5117TIP3    H236911   6.673   0.833   1.737
 5118TIP3   OH236912   6.324   2.192   7.892
 5118TIP3    H136913   6.365   2.138   7.959
 5118TIP3    H236914   6.290   2.130   7.828
 5119TIP3   OH236915   4.821   3.264   6.626
 5119TIP3    H136916   4.736   3.308   6.631
 5119TIP3    H236917   4.885   3.336   6.622
 5120TIP3   OH236918   4.976   4.591   8.509
 5120TIP3    H136919   5.007   4.505   8.538
 5120TIP3    H236920   4.972   4.584   8.414
 5121TIP3   OH236921   3.217   4.870   1.441
 5121TIP3    H136922   3.275   4.933   1.398
 5121TIP3    H236923   3.201   4.803   1.375
 5122TIP3   OH236924   5.050   3.930   0.412
 5122TIP3    H136925   5.137   3.964   0.388
 5122TIP3    H236926   5.020   3.885   0.333
 5123TIP3   OH236927   6.526   0.074   1.767
 5123TIP3    H136928   6.605   0.081   1.821
 5123TIP3    H236929   6.472   0.009   1.811
 5124TIP3   OH236930   5.836   5.528   6.621
 5124TIP3    H136931   5.795   5.446   6.649
 5124TIP3    H236932   5.783   5.597   6.661
 5125TIP3   OH236933   3.023   3.262   0.509
 5125TIP3    H136934   2.961   3.318   0.461
 5125TIP3    H236935   3.081   3.324   0.554
 5126TIP3   OH236936   4.309   4.699   0.946
 5126TIP3    H136937   4.350   4.728   1.027
 5126TIP3    H236938   4.382   4.690   0.884
 5127TIP3   OH236939   0.155   2.910   7.711
 5127TIP3    H136940   0.222   2.842   7.707
 5127TIP3    H236941   0.089   2.876   7.771
 5128TIP3   OH236942   1.025   3.163   7.857
 5128TIP3    H136943   0.936   3.194   7.841
 5128TIP3    H236944   1.015   3.070   7.875
 5129TIP3   OH236945   0.761   2.537   7.587
 5129TIP3    H136946   0.733   2.451   7.558
 5129TIP3    H236947   0.780   2.584   7.506
 5130TIP3   OH236948   1.929   3.722   6.998
 5130TIP3    H136949   2.001   3.763   6.949
 5130TIP3    H236950   1.883   3.669   6.933
 5131TIP3   OH236951   6.574   0.368   8.068
 5131TIP3    H136952   6.522   0.364   8.148
 5131TIP3    H236953   6.609   0.457   8.067
 5132TIP3   OH236954   4.730   5.270   0.868
 5132TIP3    H136955   4.763   5.341   0.923
 5132TIP3    H236956   4.702   5.203   0.931
 5133TIP3   OH236957   6.373   4.912   1.705
 5133TIP3    H136958   6.464   4.911   1.734
 5133TIP3    H236959   6.330   4.845   1.759
 5134TIP3   OH236960   1.201   5.157   6.442
 5134TIP3    H136961   1.278   5.111   6.475
 5134TIP3    H236962   1.134   5.089   6.435
 5135TIP3   OH236963   0.496   1.680   7.396
 5135TIP3    H136964   0.533   1.592   7.394
 5135TIP3    H236965   0.499   1.706   7.488
 5136TIP3   OH236966   3.176   6.153   1.126
 5136TIP3    H136967   3.184   6.181   1.035
 5136TIP3    H236968   3.087   6.119   1.133
 5137TIP3   OH236969   4.466   5.645   0.855
 5137TIP3    H136970   4.448   5.558   0.889
 5137TIP3    H236971   4.519   5.687   0.923
 5138TIP3   OH236972   5.360   4.634   0.984
 5138TIP3    H136973   5.337   4.543   0.965
 5138TIP3    H236974   5.334   4.648   1.075
 5139TIP3   OH236975   5.906   5.017   8.600
 5139TIP3    H136976   5.910   4.962   0.054
 5139TIP3    H236977   5.906   5.106   0.010
 5140TIP3   OH236978   3.910   1.163   8.071
 5140TIP3    H136979   3.939   1.100   8.137
 5140TIP3    H236980   3.815   1.169   8.083
 5141TIP3   OH236981   5.200   5.251   2.178
 5141TIP3    H136982   5.196   5.182   2.113
 5141TIP3    H236983   5.273   5.227   2.235
 5142TIP3   OH236984   3.126   2.887   8.609
 5142TIP3    H136985   3.082   2.822   0.040
 5142TIP3    H236986   3.213   2.850   8.592
 5143TIP3   OH236987   4.632   0.290   6.219
 5143TIP3    H136988   4.560   0.349   6.242
 5143TIP3    H236989   4.590   0.208   6.196
 5144TIP3   OH236990   3.716   2.620   8.589
 5144TIP3    H136991   3.641   2.562   8.603
 5144TIP3    H236992   3.692   2.673   8.513
 5145TIP3   OH236993   6.292   2.902   8.343
 5145TIP3    H136994   6.318   2.861   8.425
 5145TIP3    H236995   6.310   2.995   8.356
 5146TIP3   OH236996   3.409   4.783   0.542
 5146TIP3    H136997   3.489   4.825   0.510
 5146TIP3    H236998   3.374   4.737   0.466
 5147TIP3   OH236999   4.704   2.374   7.510
 5147TIP3    H137000   4.625   2.396   7.559
 5147TIP3    H237001   4.680   2.296   7.460
 5148TIP3   OH237002   2.375   3.737   7.251
 5148TIP3    H137003   2.282   3.747   7.272
 5148TIP3    H237004   2.385   3.644   7.231
 5149TIP3   OH237005   5.454   6.772   0.773
 5149TIP3    H137006   5.505   6.840   0.728
 5149TIP3    H237007   5.510   6.745   0.846
 5150TIP3   OH237008   6.357   1.921   8.271
 5150TIP3    H137009   6.423   1.977   8.231
 5150TIP3    H237010   6.406   1.854   8.319
 5151TIP3   OH237011   1.722   3.874   0.177
 5151TIP3    H137012   1.690   3.933   0.108
 5151TIP3    H237013   1.692   3.787   0.149
 5152TIP3   OH237014   1.760   6.579   0.828
 5152TIP3    H137015   1.753   6.657   0.882
 5152TIP3    H237016   1.721   6.605   0.744
 5153TIP3   OH237017   6.020   0.117   7.102
 5153TIP3    H137018   6.011   0.053   7.172
 5153TIP3    H237019   5.932   0.155   7.092
 5154TIP3   OH237020   0.338   5.688   6.688
 5154TIP3    H137021   0.374   5.606   6.722
 5154TIP3    H237022   0.250   5.693   6.727
 5155TIP3   OH237023   3.756   4.876   2.191
 5155TIP3    H137024   3.725   4.956   2.147
 5155TIP3    H237025   3.703   4.869   2.270
 5156TIP3   OH237026   1.300   5.334   1.111
 5156TIP3    H137027   1.343   5.255   1.145
 5156TIP3    H237028   1.236   5.301   1.048
 5157TIP3   OH237029   4.865   0.065   8.116
 5157TIP3    H137030   4.875   0.038   8.024
 5157TIP3    H237031   4.813   6.875   8.156
 5158TIP3   OH237032   0.116   5.240   8.558
 5158TIP3    H137033   0.149   5.298   0.003
 5158TIP3    H237034   0.190   5.181   8.539
 5159TIP3   OH237035   0.709   4.213   6.785
 5159TIP3    H137036   0.652   4.153   6.833
 5159TIP3    H237037   0.681   4.205   6.694
 5160TIP3   OH237038   2.904   6.793   8.016
 5160TIP3    H137039   2.977   6.731   8.015
 5160TIP3    H237040   2.918   6.848   7.939
 5161TIP3   OH237041   3.408   6.780   2.009
 5161TIP3    H137042   3.437   6.829   2.086
 5161TIP3    H237043   3.316   6.804   1.998
 5162TIP3   OH237044   2.474   2.888   7.847
 5162TIP3    H137045   2.490   2.981   7.866
 5162TIP3    H237046   2.381   2.884   7.823
 5163TIP3   OH237047   4.533   3.856   0.960
 5163TIP3    H137048   4.577   3.920   0.904
 5163TIP3    H237049   4.506   3.786   0.900
 5164TIP3   OH237050   4.878   1.558   0.292
 5164TIP3    H137051   4.890   1.613   0.370
 5164TIP3    H237052   4.792   1.581   0.259
 5165TIP3   OH237053   3.838   3.461   7.272
 5165TIP3    H137054   3.803   3.388   7.221
 5165TIP3    H237055   3.761   3.509   7.301
 5166TIP3   OH237056   1.246   5.821   2.353
 5166TIP3    H137057   1.328   5.780   2.382
 5166TIP3    H237058   1.254   5.912   2.380
 5167TIP3   OH237059   5.588   3.630   0.323
 5167TIP3    H137060   5.664   3.591   0.365
 5167TIP3    H237061   5.526   3.645   0.394
 5168TIP3   OH237062   2.644   6.099   1.801
 5168TIP3    H137063   2.627   6.058   1.886
 5168TIP3    H237064   2.724   6.150   1.814
 5169TIP3   OH237065   2.677   3.684   7.259
 5169TIP3    H137066   2.628   3.738   7.198
 5169TIP3    H237067   2.633   3.696   7.343
 5170TIP3   OH237068   4.987   0.487   1.139
 5170TIP3    H137069   4.975   0.565   1.194
 5170TIP3    H237070   4.966   0.414   1.197
 5171TIP3   OH237071   3.234   1.570   7.723
 5171TIP3    H137072   3.192   1.654   7.705
 5171TIP3    H237073   3.309   1.593   7.778
 5172TIP3   OH237074   0.123   4.451   1.740
 5172TIP3    H137075   0.116   4.534   1.693
 5172TIP3    H237076   0.145   4.476   1.830
 5173TIP3   OH237077   1.686   3.013   1.459
 5173TIP3    H137078   1.652   3.064   1.532
 5173TIP3    H237079   1.649   2.925   1.470
 5174TIP3   OH237080   3.689   4.011   7.474
 5174TIP3    H137081   3.676   3.973   7.561
 5174TIP3    H237082   3.605   4.050   7.452
 5175TIP3   OH237083   6.122   4.436   0.455
 5175TIP3    H137084   6.131   4.342   0.442
 5175TIP3    H237085   6.178   4.475   0.389
 5176TIP3   OH237086   6.623   3.990   7.604
 5176TIP3    H137087   6.639   4.038   7.523
 5176TIP3    H237088   6.694   4.015   7.663
 5177TIP3   OH237089   1.874   5.536   2.078
 5177TIP3    H137090   1.965   5.539   2.109
 5177TIP3    H237091   1.845   5.627   2.081
 5178TIP3   OH237092   5.906   5.579   7.552
 5178TIP3    H137093   5.951   5.529   7.620
 5178TIP3    H237094   5.843   5.633   7.600
 5179TIP3   OH237095   4.213   2.162   6.571
 5179TIP3    H137096   4.213   2.253   6.542
 5179TIP3    H237097   4.192   2.112   6.493
 5180TIP3   OH237098   3.442   3.053   7.840
 5180TIP3    H137099   3.347   3.045   7.850
 5180TIP3    H237100   3.458   3.147   7.833
 5181TIP3   OH237101   6.098   6.685   7.455
 5181TIP3    H137102   6.190   6.671   7.479
 5181TIP3    H237103   6.048   6.651   7.529
 5182TIP3   OH237104   0.656   5.653   1.211
 5182TIP3    H137105   0.642   5.651   1.116
 5182TIP3    H237106   0.597   5.587   1.246
 5183TIP3   OH237107   5.611   5.633   0.381
 5183TIP3    H137108   5.567   5.674   0.455
 5183TIP3    H237109   5.620   5.704   0.317
 5184TIP3   OH237110   2.499   5.042   1.812
 5184TIP3    H137111   2.483   4.971   1.874
 5184TIP3    H237112   2.512   4.999   1.728
 5185TIP3   OH237113   5.803   1.592   0.028
 5185TIP3    H137114   5.710   1.602   0.007
 5185TIP3    H237115   5.832   1.521   8.594
 5186TIP3   OH237116   6.149   0.796   8.246
 5186TIP3    H137117   6.226   0.805   8.191
 5186TIP3    H237118   6.092   0.735   8.199
 5187TIP3   OH237119   2.471   4.157   1.763
 5187TIP3    H137120   2.555   4.198   1.779
 5187TIP3    H237121   2.409   4.206   1.818
 5188TIP3   OH237122   2.646   3.837   0.824
 5188TIP3    H137123   2.645   3.856   0.730
 5188TIP3    H237124   2.619   3.919   0.866
 5189TIP3   OH237125   6.141   0.148   1.751
 5189TIP3    H137126   6.126   0.060   1.716
 5189TIP3    H237127   6.123   0.141   1.845
 5190TIP3   OH237128   5.320   5.984   7.579
 5190TIP3    H137129   5.414   5.970   7.589
 5190TIP3    H237130   5.297   5.936   7.500
 5191TIP3   OH237131   3.482   1.295   6.786
 5191TIP3    H137132   3.468   1.235   6.859
 5191TIP3    H237133   3.569   1.273   6.752
 5192TIP3   OH237134   1.498   5.415   0.377
 5192TIP3    H137135   1.410   5.441   0.403
 5192TIP3    H237136   1.496   5.319   0.378
 5193TIP3   OH237137   3.707   6.387   0.595
 5193TIP3    H137138   3.789   6.353   0.560
 5193TIP3    H237139   3.677   6.449   0.528
 5194TIP3   OH237140   2.511   1.635   8.606
 5194TIP3    H137141   2.553   1.641   0.068
 5194TIP3    H237142   2.486   1.725   8.585
 5195TIP3   OH237143   2.952   3.184   0.201
 5195TIP3    H137144   3.044   3.186   0.175
 5195TIP3    H237145   2.936   3.093   0.227
 5196TIP3   OH237146   4.675   4.719   8.236
 5196TIP3    H137147   4.663   4.659   8.309
 5196TIP3    H237148   4.651   4.805   8.272
 5197TIP3   OH237149   2.266   1.745   7.865
 5197TIP3    H137150   2.299   1.816   7.922
 5197TIP3    H237151   2.194   1.706   7.914
 5198TIP3   OH237152   3.013   3.287   2.081
 5198TIP3    H137153   2.998   3.374   2.118
 5198TIP3    H237154   3.105   3.268   2.100
 5199TIP3   OH237155   1.834   6.856   1.506
 5199TIP3    H137156   1.888   6.786   1.468
 5199TIP3    H237157   1.756   6.811   1.538
 5200TIP3   OH237158   1.964   4.206   0.281
 5200TIP3    H137159   2.012   4.282   0.316
 5200TIP3    H237160   2.032   4.145   0.254
 5201TIP3   OH237161   0.405   5.289   2.062
 5201TIP3    H137162   0.324   5.251   2.095
 5201TIP3    H237163   0.416   5.370   2.111
 5202TIP3   OH237164   4.725   5.042   0.691
 5202TIP3    H137165   4.645   5.039   0.639
 5202TIP3    H237166   4.719   5.125   0.739
 5203TIP3   OH237167   3.768   3.443   0.058
 5203TIP3    H137168   3.850   3.489   0.076
 5203TIP3    H237169   3.758   3.382   0.132
 5204TIP3   OH237170   1.924   5.130   2.008
 5204TIP3    H137171   1.895   5.053   2.057
 5204TIP3    H237172   2.012   5.108   1.978
 5205TIP3   OH237173   5.903   0.236   1.583
 5205TIP3    H137174   5.974   0.225   1.646
 5205TIP3    H237175   5.907   0.327   1.555
 5206TIP3   OH237176   5.510   4.917   6.361
 5206TIP3    H137177   5.553   4.832   6.353
 5206TIP3    H237178   5.438   4.914   6.298
 5207TIP3   OH237179   3.866   1.867   6.424
 5207TIP3    H137180   3.915   1.824   6.354
 5207TIP3    H237181   3.810   1.798   6.459
 5208TIP3   OH237182   5.292   1.780   8.376
 5208TIP3    H137183   5.352   1.847   8.408
 5208TIP3    H237184   5.306   1.779   8.282
 5209TIP3   OH237185   0.760   6.735   7.560
 5209TIP3    H137186   0.696   6.791   7.517
 5209TIP3    H237187   0.765   6.657   7.505
 5210TIP3   OH237188   4.541   1.223   8.463
 5210TIP3    H137189   4.550   1.131   8.487
 5210TIP3    H237190   4.573   1.227   8.373
 5211TIP3   OH237191   5.441   2.551   0.563
 5211TIP3    H137192   5.491   2.520   0.487
 5211TIP3    H237193   5.469   2.494   0.635
 5212TIP3   OH237194   5.651   2.646   7.598
 5212TIP3    H137195   5.640   2.607   7.685
 5212TIP3    H237196   5.609   2.731   7.604
 5213TIP3   OH237197   5.581   0.071   7.513
 5213TIP3    H137198   5.641   0.036   7.580
 5213TIP3    H237199   5.507   0.011   7.514
 5214TIP3   OH237200   0.525   4.994   0.408
 5214TIP3    H137201   0.513   4.972   0.315
 5214TIP3    H237202   0.605   4.947   0.433
 5215TIP3   OH237203   6.676   3.375   8.158
 5215TIP3    H137204   6.724   3.292   8.164
 5215TIP3    H237205   6.642   3.377   8.069
 5216TIP3   OH237206   3.881   6.228   7.712
 5216TIP3    H137207   3.956   6.252   7.767
 5216TIP3    H237208   3.823   6.303   7.718
 5217TIP3   OH237209   1.667   0.568   7.252
 5217TIP3    H137210   1.612   0.644   7.275
 5217TIP3    H237211   1.742   0.606   7.206
 5218TIP3   OH237212   4.721   5.150   6.372
 5218TIP3    H137213   4.755   5.061   6.380
 5218TIP3    H237214   4.690   5.156   6.282
 5219TIP3   OH237215   1.405   4.284   1.356
 5219TIP3    H137216   1.383   4.358   1.413
 5219TIP3    H237217   1.500   4.290   1.344
 5220TIP3   OH237218   5.019   5.802   0.573
 5220TIP3    H137219   5.085   5.764   0.515
 5220TIP3    H237220   5.029   5.754   0.655
 5221TIP3   OH237221   5.246   3.910   0.691
 5221TIP3    H137222   5.231   3.911   0.785
 5221TIP3    H237223   5.159   3.918   0.652
 5222TIP3   OH237224   1.821   4.700   1.666
 5222TIP3    H137225   1.804   4.683   1.573
 5222TIP3    H237226   1.833   4.613   1.704
 5223TIP3   OH237227   3.147   6.342   1.707
 5223TIP3    H137228   3.189   6.352   1.793
 5223TIP3    H237229   3.073   6.403   1.709
 5224TIP3   OH237230   1.970   4.883   8.200
 5224TIP3    H137231   2.047   4.938   8.186
 5224TIP3    H237232   1.992   4.829   8.275
 5225TIP3   OH237233   3.881   3.586   1.843
 5225TIP3    H137234   3.872   3.646   1.917
 5225TIP3    H237235   3.814   3.615   1.780
 5226TIP3   OH237236   0.916   3.961   1.228
 5226TIP3    H137237   0.997   4.003   1.202
 5226TIP3    H237238   0.926   3.943   1.321
 5227TIP3   OH237239   4.646   1.939   0.791
 5227TIP3    H137240   4.564   1.989   0.789
 5227TIP3    H237241   4.694   1.967   0.713
 5228TIP3   OH237242   5.121   2.360   0.191
 5228TIP3    H137243   5.134   2.312   0.273
 5228TIP3    H237244   5.034   2.401   0.201
 5229TIP3   OH237245   5.069   6.669   0.426
 5229TIP3    H137246   5.010   6.675   0.501
 5229TIP3    H237247   5.153   6.645   0.464
 5230TIP3   OH237248   3.777   5.037   6.088
 5230TIP3    H137249   3.748   4.946   6.081
 5230TIP3    H237250   3.709   5.079   6.141
 5231TIP3   OH237251   1.289   6.771   8.248
 5231TIP3    H137252   1.204   6.788   8.206
 5231TIP3    H237253   1.336   6.716   8.186
 5232TIP3   OH237254   0.935   5.509   6.943
 5232TIP3    H137255   0.940   5.585   7.002
 5232TIP3    H237256   0.992   5.532   6.870
 5233TIP3   OH237257   0.383   1.205   7.196
 5233TIP3    H137258   0.458   1.260   7.174
 5233TIP3    H237259   0.341   1.187   7.112
 5234TIP3   OH237260   0.906   4.836   8.491
 5234TIP3    H137261   0.945   4.787   8.563
 5234TIP3    H237262   0.825   4.872   8.528
 5235TIP3   OH237263   6.098   1.107   0.380
 5235TIP3    H137264   6.109   1.050   0.456
 5235TIP3    H237265   6.020   1.158   0.399
 5236TIP3   OH237266   5.933   4.742   8.027
 5236TIP3    H137267   5.875   4.787   7.966
 5236TIP3    H237268   5.878   4.726   8.104
 5237TIP3   OH237269   3.964   6.419   7.321
 5237TIP3    H137270   3.896   6.363   7.284
 5237TIP3    H237271   4.001   6.463   7.245
 5238TIP3   OH237272   0.906   5.206   6.340
 5238TIP3    H137273   0.922   5.112   6.344
 5238TIP3    H237274   0.812   5.213   6.320
 5239TIP3   OH237275   4.687   4.557   8.511
 5239TIP3    H137276   4.781   4.566   8.504
 5239TIP3    H237277   4.674   4.491   8.580
 5240TIP3   OH237278   3.969   0.990   8.279
 5240TIP3    H137279   3.946   1.057   8.344
 5240TIP3    H237280   4.056   0.961   8.306
 5241TIP3   OH237281   0.746   0.960   6.885
 5241TIP3    H137282   0.777   0.926   6.969
 5241TIP3    H237283   0.761   1.054   6.891
 5242TIP3   OH237284   5.006   5.601   8.197
 5242TIP3    H137285   4.928   5.546   8.204
 5242TIP3    H237286   5.060   5.557   8.132
 5243TIP3   OH237287   3.256   6.661   7.209
 5243TIP3    H137288   3.263   6.726   7.139
 5243TIP3    H237289   3.162   6.643   7.216
 5244TIP3   OH237290   2.189   5.027   0.280
 5244TIP3    H137291   2.101   5.039   0.244
 5244TIP3    H237292   2.178   4.961   0.349
 5245TIP3   OH237293   1.497   4.708   1.737
 5245TIP3    H137294   1.502   4.614   1.719
 5245TIP3    H237295   1.586   4.741   1.719
 5246TIP3   OH237296   3.509   4.405   6.744
 5246TIP3    H137297   3.518   4.344   6.671
 5246TIP3    H237298   3.583   4.465   6.734
 5247TIP3   OH237299   4.559   2.124   7.414
 5247TIP3    H137300   4.475   2.140   7.371
 5247TIP3    H237301   4.546   2.041   7.461
 5248TIP3   OH237302   2.594   0.975   0.702
 5248TIP3    H137303   2.666   0.931   0.657
 5248TIP3    H237304   2.617   0.970   0.795
 5249TIP3   OH237305   0.912   2.401   1.081
 5249TIP3    H137306   1.001   2.436   1.071
 5249TIP3    H237307   0.923   2.306   1.074
 5250TIP3   OH237308   1.078   4.556   7.249
 5250TIP3    H137309   1.091   4.594   7.336
 5250TIP3    H237310   1.006   4.607   7.211
 5251TIP3   OH237311   3.926   1.966   0.938
 5251TIP3    H137312   3.852   1.923   0.894
 5251TIP3    H237313   3.956   2.031   0.874
 5252TIP3   OH237314   1.445   6.260   0.799
 5252TIP3    H137315   1.451   6.351   0.769
 5252TIP3    H237316   1.389   6.217   0.735
 5253TIP3   OH237317   2.988   5.611   7.724
 5253TIP3    H137318   2.946   5.633   7.641
 5253TIP3    H237319   2.919   5.618   7.789
 5254TIP3   OH237320   0.900   5.628   0.874
 5254TIP3    H137321   0.894   5.661   0.784
 5254TIP3    H237322   0.809   5.614   0.900
 5255TIP3   OH237323   1.320   4.583   1.041
 5255TIP3    H137324   1.303   4.565   0.948
 5255TIP3    H237325   1.411   4.556   1.055
 5256TIP3   OH237326   6.775   5.110   1.319
 5256TIP3    H137327   6.729   5.166   1.256
 5256TIP3    H237328   6.783   5.164   1.397
 5257TIP3   OH237329   5.994   2.384   7.557
 5257TIP3    H137330   6.081   2.423   7.550
 5257TIP3    H237331   6.009   2.298   7.596
 5258TIP3   OH237332   4.460   5.610   0.248
 5258TIP3    H137333   4.515   5.533   0.262
 5258TIP3    H237334   4.401   5.611   0.323
 5259TIP3   OH237335   1.865   6.365   6.630
 5259TIP3    H137336   1.804   6.292   6.614
 5259TIP3    H237337   1.898   6.388   6.543
 5260TIP3   OH237338   5.289   5.393   1.947
 5260TIP3    H137339   5.336   5.332   2.004
 5260TIP3    H237340   5.315   5.366   1.858
 5261TIP3   OH237341   1.398   1.314   7.305
 5261TIP3    H137342   1.386   1.390   7.362
 5261TIP3    H237343   1.315   1.306   7.259
 5262TIP3   OH237344   1.818   1.776   1.231
 5262TIP3    H137345   1.817   1.718   1.307
 5262TIP3    H237346   1.737   1.755   1.183
 5263TIP3   OH237347   1.870   6.731   0.472
 5263TIP3    H137348   1.910   6.793   0.534
 5263TIP3    H237349   1.944   6.681   0.438
 5264TIP3   OH237350   5.720   4.451   8.195
 5264TIP3    H137351   5.633   4.443   8.156
 5264TIP3    H237352   5.734   4.546   8.204
 5265TIP3   OH237353   3.343   6.816   0.522
 5265TIP3    H137354   3.308   6.727   0.523
 5265TIP3    H237355   3.419   6.813   0.580
 5266TIP3   OH237356   3.764   4.983   7.301
 5266TIP3    H137357   3.720   5.067   7.315
 5266TIP3    H237358   3.703   4.918   7.337
 5267TIP3   OH237359   0.147   4.361   2.273
 5267TIP3    H137360   0.218   4.335   2.333
 5267TIP3    H237361   0.095   4.423   2.324
 5268TIP3   OH237362   2.770   5.539   1.803
 5268TIP3    H137363   2.831   5.565   1.734
 5268TIP3    H237364   2.684   5.564   1.770
 5269TIP3   OH237365   3.081   4.810   6.432
 5269TIP3    H137366   3.100   4.811   6.338
 5269TIP3    H237367   3.057   4.719   6.450
 5270TIP3   OH237368   0.052   3.366   6.712
 5270TIP3    H137369   0.055   3.441   6.653
 5270TIP3    H237370   0.137   3.324   6.702
 5271TIP3   OH237371   1.187   6.650   1.188
 5271TIP3    H137372   1.233   6.579   1.142
 5271TIP3    H237373   1.161   6.711   1.118
 5272TIP3   OH237374   5.298   2.281   6.395
 5272TIP3    H137375   5.346   2.363   6.394
 5272TIP3    H237376   5.206   2.306   6.393
 5273TIP3   OH237377   2.614   5.641   8.607
 5273TIP3    H137378   2.657   5.702   8.548
 5273TIP3    H237379   2.538   5.608   8.558
 5274TIP3   OH237380   0.365   5.008   0.735
 5274TIP3    H137381   0.427   5.081   0.723
 5274TIP3    H237382   0.413   4.945   0.788
 5275TIP3   OH237383   2.837   3.267   1.127
 5275TIP3    H137384   2.745   3.282   1.107
 5275TIP3    H237385   2.838   3.180   1.167
 5276TIP3   OH237386   2.224   3.537   8.287
 5276TIP3    H137387   2.211   3.515   8.195
 5276TIP3    H237388   2.273   3.464   8.323
 5277TIP3   OH237389   6.692   6.794   8.475
 5277TIP3    H137390   6.663   6.730   8.410
 5277TIP3    H237391   6.627   6.864   8.470
 5278TIP3   OH237392   2.210   2.055   0.636
 5278TIP3    H137393   2.192   1.970   0.677
 5278TIP3    H237394   2.298   2.045   0.599
 5279TIP3   OH237395   3.355   6.015   1.312
 5279TIP3    H137396   3.321   6.061   1.235
 5279TIP3    H237397   3.399   6.083   1.363
 5280TIP3   OH237398   1.668   6.827   2.372
 5280TIP3    H137399   1.756   6.795   2.353
 5280TIP3    H237400   1.676   0.043   2.369
 5281TIP3   OH237401   1.768   5.555   1.231
 5281TIP3    H137402   1.737   5.635   1.273
 5281TIP3    H237403   1.732   5.559   1.142
 5282TIP3   OH237404   2.293   1.439   0.431
 5282TIP3    H137405   2.283   1.373   0.500
 5282TIP3    H237406   2.353   1.504   0.469
 5283TIP3   OH237407   0.004   5.063   2.579
 5283TIP3    H137408   6.829   5.128   2.535
 5283TIP3    H237409   0.072   5.041   2.515
 5284TIP3   OH237410   1.092   0.938   1.431
 5284TIP3    H137411   1.174   0.899   1.460
 5284TIP3    H237412   1.109   0.965   1.341
 5285TIP3   OH237413   5.180   6.688   0.874
 5285TIP3    H137414   5.215   6.757   0.817
 5285TIP3    H237415   5.249   6.673   0.938
 5286TIP3   OH237416   5.011   1.548   7.946
 5286TIP3    H137417   4.992   1.461   7.909
 5286TIP3    H237418   5.097   1.571   7.910
 5287TIP3   OH237419   5.036   3.442   7.678
 5287TIP3    H137420   5.000   3.502   7.613
 5287TIP3    H237421   4.960   3.417   7.731
 5288TIP3   OH237422   6.735   0.674   0.852
 5288TIP3    H137423   6.826   0.648   0.839
 5288TIP3    H237424   6.694   0.661   0.767
 5289TIP3   OH237425   0.921   5.773   7.031
 5289TIP3    H137426   0.842   5.826   7.023
 5289TIP3    H237427   0.957   5.771   6.942
 5290TIP3   OH237428   1.528   0.124   8.495
 5290TIP3    H137429   1.495   0.212   8.516
 5290TIP3    H237430   1.454   0.066   8.512
 5291TIP3   OH237431   2.568   4.479   1.584
 5291TIP3    H137432   2.505   4.508   1.650
 5291TIP3    H237433   2.635   4.546   1.583
 5292TIP3   OH237434   5.360   5.636   7.410
 5292TIP3    H137435   5.398   5.690   7.479
 5292TIP3    H237436   5.322   5.561   7.456
 5293TIP3   OH237437   5.626   0.222   7.863
 5293TIP3    H137438   5.648   0.237   7.771
 5293TIP3    H237439   5.653   0.131   7.879
 5294TIP3   OH237440   6.278   3.028   0.635
 5294TIP3    H137441   6.332   3.052   0.560
 5294TIP3    H237442   6.330   3.052   0.711
 5295TIP3   OH237443   3.596   2.802   0.969
 5295TIP3    H137444   3.690   2.821   0.976
 5295TIP3    H237445   3.559   2.834   1.052
 5296TIP3   OH237446   0.114   1.650   0.790
 5296TIP3    H137447   0.072   1.705   0.722
 5296TIP3    H237448   0.042   1.598   0.826
 5297TIP3   OH237449   0.066   6.170   0.845
 5297TIP3    H137450   0.155   6.135   0.848
 5297TIP3    H237451   0.046   6.178   0.752
 5298TIP3   OH237452   3.127   2.191   2.194
 5298TIP3    H137453   3.032   2.192   2.198
 5298TIP3    H237454   3.151   2.274   2.151
 5299TIP3   OH237455   5.788   3.285   2.157
 5299TIP3    H137456   5.866   3.329   2.191
 5299TIP3    H237457   5.728   3.357   2.137
 5300TIP3   OH237458   2.105   2.137   0.898
 5300TIP3    H137459   2.160   2.156   0.822
 5300TIP3    H237460   2.149   2.181   0.971
 5301TIP3   OH237461   0.280   6.497   0.817
 5301TIP3    H137462   0.365   6.467   0.849
 5301TIP3    H237463   0.263   6.443   0.740
 5302TIP3   OH237464   0.205   3.998   2.433
 5302TIP3    H137465   0.146   3.968   2.363
 5302TIP3    H237466   0.283   3.944   2.423
 5303TIP3   OH237467   5.500   0.346   0.244
 5303TIP3    H137468   5.414   0.389   0.245
 5303TIP3    H237469   5.520   0.330   0.336
 5304TIP3   OH237470   1.945   5.969   0.904
 5304TIP3    H137471   1.935   5.958   0.998
 5304TIP3    H237472   1.855   5.972   0.871
 5305TIP3   OH237473   5.084   4.456   8.293
 5305TIP3    H137474   5.154   4.427   8.352
 5305TIP3    H237475   5.115   4.538   8.256
 5306TIP3   OH237476   3.651   3.570   0.967
 5306TIP3    H137477   3.644   3.651   1.018
 5306TIP3    H237478   3.568   3.563   0.921
 5307TIP3   OH237479   2.860   5.527   1.095
 5307TIP3    H137480   2.918   5.582   1.043
 5307TIP3    H237481   2.912   5.502   1.171
 5308TIP3   OH237482   4.798   2.567   1.587
 5308TIP3    H137483   4.787   2.652   1.629
 5308TIP3    H237484   4.709   2.531   1.582
 5309TIP3   OH237485   0.630   3.099   2.263
 5309TIP3    H137486   0.650   3.187   2.231
 5309TIP3    H237487   0.692   3.084   2.334
 5310TIP3   OH237488   0.491   4.423   7.656
 5310TIP3    H137489   0.486   4.371   7.576
 5310TIP3    H237490   0.584   4.422   7.680
 5311TIP3   OH237491   1.005   5.164   8.177
 5311TIP3    H137492   1.024   5.071   8.172
 5311TIP3    H237493   1.071   5.206   8.122
 5312TIP3   OH237494   0.337   4.285   7.854
 5312TIP3    H137495   0.290   4.322   7.929
 5312TIP3    H237496   0.340   4.356   7.790
 5313TIP3   OH237497   4.287   2.648   0.989
 5313TIP3    H137498   4.236   2.708   1.043
 5313TIP3    H237499   4.284   2.564   1.035
 5314TIP3   OH237500   2.961   1.809   1.914
 5314TIP3    H137501   2.968   1.903   1.931
 5314TIP3    H237502   2.905   1.776   1.984
 5315TIP3   OH237503   1.241   4.263   0.934
 5315TIP3    H137504   1.231   4.306   0.849
 5315TIP3    H237505   1.267   4.174   0.913
 5316TIP3   OH237506   5.697   0.768   0.636
 5316TIP3    H137507   5.735   0.824   0.568
 5316TIP3    H237508   5.605   0.796   0.641
 5317TIP3   OH237509   6.663   2.810   6.950
 5317TIP3    H137510   6.731   2.769   6.896
 5317TIP3    H237511   6.606   2.856   6.888
 5318TIP3   OH237512   0.916   3.813   0.101
 5318TIP3    H137513   0.976   3.776   0.035
 5318TIP3    H237514   0.829   3.789   0.069
 5319TIP3   OH237515   6.416   4.356   0.296
 5319TIP3    H137516   6.338   4.301   0.298
 5319TIP3    H237517   6.429   4.382   0.388
 5320TIP3   OH237518   6.284   4.921   7.944
 5320TIP3    H137519   6.245   4.882   8.022
 5320TIP3    H237520   6.357   4.863   7.921
 5321TIP3   OH237521   1.886   0.703   7.536
 5321TIP3    H137522   1.810   0.750   7.503
 5321TIP3    H237523   1.955   0.769   7.543
 5322TIP3   OH237524   2.418   5.528   8.413
 5322TIP3    H137525   2.329   5.542   8.379
 5322TIP3    H237526   2.415   5.441   8.454
 5323TIP3   OH237527   6.194   2.198   0.720
 5323TIP3    H137528   6.175   2.189   0.626
 5323TIP3    H237529   6.244   2.279   0.726
 5324TIP3   OH237530   0.826   6.843   6.009
 5324TIP3    H137531   0.755   6.854   6.072
 5324TIP3    H237532   0.841   6.749   6.006
 5325TIP3   OH237533   5.433   2.312   7.678
 5325TIP3    H137534   5.458   2.235   7.628
 5325TIP3    H237535   5.400   2.373   7.613
 5326TIP3   OH237536   0.072   5.575   7.736
 5326TIP3    H137537   0.156   5.613   7.760
 5326TIP3    H237538   0.080   5.554   7.643
 5327TIP3   OH237539   3.499   0.105   6.358
 5327TIP3    H137540   3.507   0.010   6.350
 5327TIP3    H237541   3.412   0.125   6.322
 5328TIP3   OH237542   5.783   2.310   7.726
 5328TIP3    H137543   5.816   2.342   7.642
 5328TIP3    H237544   5.755   2.221   7.708
 5329TIP3   OH237545   0.375   1.951   2.566
 5329TIP3    H137546   0.323   1.902   2.502
 5329TIP3    H237547   0.460   1.906   2.566
 5330TIP3   OH237548   3.698   0.774   1.736
 5330TIP3    H137549   3.770   0.823   1.776
 5330TIP3    H237550   3.724   0.764   1.645
 5331TIP3   OH237551   1.124   0.225   7.937
 5331TIP3    H137552   1.102   0.270   8.019
 5331TIP3    H237553   1.046   0.237   7.882
 5332TIP3   OH237554   6.057   5.920   0.198
 5332TIP3    H137555   6.040   5.839   0.246
 5332TIP3    H237556   5.970   5.953   0.176
 5333TIP3   OH237557   4.309   4.751   8.130
 5333TIP3    H137558   4.283   4.831   8.084
 5333TIP3    H237559   4.277   4.762   8.219
 5334TIP3   OH237560   0.664   2.126   6.917
 5334TIP3    H137561   0.682   2.170   6.834
 5334TIP3    H237562   0.695   2.036   6.903
 5335TIP3   OH237563   6.352   0.893   2.128
 5335TIP3    H137564   6.442   0.918   2.104
 5335TIP3    H237565   6.351   0.896   2.223
 5336TIP3   OH237566   4.107   0.000   7.085
 5336TIP3    H137567   4.054   6.800   7.081
 5336TIP3    H237568   4.176   6.866   7.021
 5337TIP3   OH237569   0.852   0.796   8.409
 5337TIP3    H137570   0.896   0.751   8.481
 5337TIP3    H237571   0.762   0.764   8.411
 5338TIP3   OH237572   6.162   6.508   6.381
 5338TIP3    H137573   6.107   6.478   6.453
 5338TIP3    H237574   6.252   6.489   6.409
 5339TIP3   OH237575   6.509   2.924   1.580
 5339TIP3    H137576   6.417   2.907   1.557
 5339TIP3    H237577   6.534   2.999   1.527
 5340TIP3   OH237578   2.458   2.668   7.544
 5340TIP3    H137579   2.423   2.734   7.603
 5340TIP3    H237580   2.423   2.692   7.458
 5341TIP3   OH237581   4.318   4.106   1.009
 5341TIP3    H137582   4.368   4.180   0.973
 5341TIP3    H237583   4.249   4.147   1.061
 5342TIP3   OH237584   0.595   5.985   0.977
 5342TIP3    H137585   0.535   5.970   1.049
 5342TIP3    H237586   0.682   5.963   1.012
 5343TIP3   OH237587   2.280   1.473   0.898
 5343TIP3    H137588   2.324   1.529   0.962
 5343TIP3    H237589   2.339   1.473   0.822
 5344TIP3   OH237590   5.819   2.204   2.228
 5344TIP3    H137591   5.822   2.246   2.314
 5344TIP3    H237592   5.895   2.239   2.182
 5345TIP3   OH237593   6.138   0.395   2.127
 5345TIP3    H137594   6.093   0.477   2.148
 5345TIP3    H237595   6.225   0.423   2.098
 5346TIP3   OH237596   2.610   0.634   0.631
 5346TIP3    H137597   2.685   0.576   0.615
 5346TIP3    H237598   2.605   0.689   0.552
 5347TIP3   OH237599   6.367   3.507   8.125
 5347TIP3    H137600   6.453   3.486   8.088
 5347TIP3    H237601   6.315   3.428   8.110
 5348TIP3   OH237602   5.835   6.789   8.462
 5348TIP3    H137603   5.888   6.829   8.531
 5348TIP3    H237604   5.762   6.850   8.449
 5349TIP3   OH237605   0.012   3.825   8.265
 5349TIP3    H137606   0.040   3.850   8.177
 5349TIP3    H237607   6.802   3.858   8.272
 5350TIP3   OH237608   6.238   0.236   2.725
 5350TIP3    H137609   6.298   0.188   2.668
 5350TIP3    H237610   6.295   0.295   2.776
 5351TIP3   OH237611   2.792   3.392   6.537
 5351TIP3    H137612   2.717   3.334   6.530
 5351TIP3    H237613   2.812   3.417   6.447
 5352TIP3   OH237614   4.340   0.581   0.526
 5352TIP3    H137615   4.288   0.501   0.519
 5352TIP3    H237616   4.414   0.567   0.466
 5353TIP3   OH237617   2.243   0.963   8.561
 5353TIP3    H137618   2.149   0.961   8.546
 5353TIP3    H237619   2.260   0.887   8.617
 5354TIP3   OH237620   5.364   3.583   1.696
 5354TIP3    H137621   5.419   3.535   1.758
 5354TIP3    H237622   5.279   3.538   1.698
 5355TIP3   OH237623   4.841   3.139   7.037
 5355TIP3    H137624   4.920   3.157   6.985
 5355TIP3    H237625   4.776   3.200   7.003
 5356TIP3   OH237626   0.011   4.253   7.083
 5356TIP3    H137627   0.027   4.290   6.996
 5356TIP3    H237628   0.004   4.159   7.068
 5357TIP3   OH237629   2.746   3.199   7.165
 5357TIP3    H137630   2.783   3.124   7.211
 5357TIP3    H237631   2.784   3.276   7.208
 5358TIP3   OH237632   0.270   4.598   1.307
 5358TIP3    H137633   0.229   4.647   1.235
 5358TIP3    H237634   0.353   4.568   1.270
 5359TIP3   OH237635   2.346   5.158   8.308
 5359TIP3    H137636   2.263   5.203   8.327
 5359TIP3    H237637   2.407   5.191   8.374
 5360TIP3   OH237638   6.475   6.562   1.404
 5360TIP3    H137639   6.528   6.482   1.410
 5360TIP3    H237640   6.528   6.629   1.446
 5361TIP3   OH237641   1.348   6.456   1.006
 5361TIP3    H137642   1.415   6.498   1.061
 5361TIP3    H237643   1.397   6.396   0.950
 5362TIP3   OH237644   4.010   3.470   1.151
 5362TIP3    H137645   4.101   3.469   1.122
 5362TIP3    H237646   3.967   3.533   1.093
 5363TIP3   OH237647   4.947   5.079   1.783
 5363TIP3    H137648   5.016   5.048   1.842
 5363TIP3    H237649   4.869   5.030   1.811
 5364TIP3   OH237650   0.520   5.759   0.645
 5364TIP3    H137651   0.550   5.849   0.654
 5364TIP3    H237652   0.449   5.750   0.708
 5365TIP3   OH237653   5.585   2.091   7.616
 5365TIP3    H137654   5.557   2.004   7.646
 5365TIP3    H237655   5.590   2.083   7.521
 5366TIP3   OH237656   1.559   3.342   6.073
 5366TIP3    H137657   1.628   3.402   6.102
 5366TIP3    H237658   1.603   3.278   6.018
 5367TIP3   OH237659   0.082   4.779   7.061
 5367TIP3    H137660   0.070   4.845   6.993
 5367TIP3    H237661   0.019   4.803   7.129
 5368TIP3   OH237662   6.011   2.244   8.568
 5368TIP3    H137663   5.923   2.238   8.530
 5368TIP3    H237664   6.047   2.326   8.534
 5369TIP3   OH237665   6.474   4.225   2.151
 5369TIP3    H137666   6.446   4.148   2.199
 5369TIP3    H237667   6.513   4.282   2.217
 5370TIP3   OH237668   0.897   3.535   8.375
 5370TIP3    H137669   0.915   3.501   8.287
 5370TIP3    H237670   0.949   3.616   8.380
 5371TIP3   OH237671   0.929   5.658   8.467
 5371TIP3    H137672   0.855   5.714   8.442
 5371TIP3    H237673   0.961   5.623   8.383
 5372TIP3   OH237674   0.574   1.165   1.330
 5372TIP3    H137675   0.515   1.240   1.334
 5372TIP3    H237676   0.658   1.199   1.360
 5373TIP3   OH237677   3.176   1.320   7.828
 5373TIP3    H137678   3.083   1.329   7.851
 5373TIP3    H237679   3.200   1.405   7.792
 5374TIP3   OH237680   1.691   3.725   7.385
 5374TIP3    H137681   1.724   3.772   7.462
 5374TIP3    H237682   1.617   3.674   7.418
 5375TIP3   OH237683   6.333   5.987   1.538
 5375TIP3    H137684   6.264   5.979   1.603
 5375TIP3    H237685   6.399   6.043   1.580
 5376TIP3   OH237686   4.808   6.587   1.507
 5376TIP3    H137687   4.858   6.598   1.427
 5376TIP3    H237688   4.754   6.666   1.513
 5377TIP3   OH237689   2.307   6.226   8.259
 5377TIP3    H137690   2.293   6.222   8.354
 5377TIP3    H237691   2.267   6.145   8.226
 5378TIP3   OH237692   4.349   3.574   8.244
 5378TIP3    H137693   4.441   3.588   8.221
 5378TIP3    H237694   4.353   3.532   8.330
 5379TIP3   OH237695   3.549   2.924   7.628
 5379TIP3    H137696   3.510   2.842   7.656
 5379TIP3    H237697   3.530   2.986   7.698
 5380TIP3   OH237698   2.840   3.023   0.639
 5380TIP3    H137699   2.893   3.038   0.560
 5380TIP3    H237700   2.879   3.080   0.705
 5381TIP3   OH237701   2.417   4.038   1.503
 5381TIP3    H137702   2.434   4.081   1.587
 5381TIP3    H237703   2.456   4.096   1.438
 5382TIP3   OH237704   4.512   2.337   1.832
 5382TIP3    H137705   4.417   2.336   1.817
 5382TIP3    H237706   4.535   2.244   1.838
 5383TIP3   OH237707   6.531   3.692   1.821
 5383TIP3    H137708   6.449   3.673   1.867
 5383TIP3    H237709   6.566   3.769   1.866
 5384TIP3   OH237710   5.720   0.920   7.876
 5384TIP3    H137711   5.649   0.863   7.906
 5384TIP3    H237712   5.756   0.957   7.957
 5385TIP3   OH237713   4.254   2.521   2.025
 5385TIP3    H137714   4.265   2.513   1.930
 5385TIP3    H237715   4.193   2.451   2.048
 5386TIP3   OH237716   5.846   2.271   0.424
 5386TIP3    H137717   5.870   2.362   0.408
 5386TIP3    H237718   5.927   2.229   0.452
 5387TIP3   OH237719   0.159   3.882   8.028
 5387TIP3    H137720   0.109   3.832   7.963
 5387TIP3    H237721   0.251   3.859   8.009
 5388TIP3   OH237722   0.061   2.810   2.364
 5388TIP3    H137723   0.003   2.824   2.289
 5388TIP3    H237724   0.132   2.872   2.351
 5389TIP3   OH237725   3.748   5.159   6.626
 5389TIP3    H137726   3.662   5.123   6.648
 5389TIP3    H237727   3.805   5.082   6.616
 5390TIP3   OH237728   0.752   6.816   0.765
 5390TIP3    H137729   0.692   6.763   0.818
 5390TIP3    H237730   0.773   0.011   0.821
 5391TIP3   OH237731   5.230   0.657   2.145
 5391TIP3    H137732   5.265   0.706   2.071
 5391TIP3    H237733   5.295   0.668   2.215
 5392TIP3   OH237734   1.715   4.170   0.629
 5392TIP3    H137735   1.667   4.106   0.680
 5392TIP3    H237736   1.676   4.166   0.541
 5393TIP3   OH237737   5.472   1.433   2.565
 5393TIP3    H137738   5.528   1.479   2.628
 5393TIP3    H237739   5.404   1.497   2.542
 5394TIP3   OH237740   4.786   0.770   0.586
 5394TIP3    H137741   4.791   0.850   0.638
 5394TIP3    H237742   4.874   0.733   0.588
 5395TIP3   OH237743   4.979   0.498   8.541
 5395TIP3    H137744   5.051   0.536   8.592
 5395TIP3    H237745   4.945   0.427   8.595
 5396TIP3   OH237746   6.757   3.097   0.076
 5396TIP3    H137747   6.799   3.118   0.159
 5396TIP3    H237748   6.674   3.144   0.077
 5397TIP3   OH237749   3.316   3.393   7.505
 5397TIP3    H137750   3.333   3.487   7.504
 5397TIP3    H237751   3.292   3.372   7.415
 5398TIP3   OH237752   5.177   4.795   7.609
 5398TIP3    H137753   5.222   4.710   7.602
 5398TIP3    H237754   5.102   4.777   7.666
 5399TIP3   OH237755   4.222   3.209   2.291
 5399TIP3    H137756   4.227   3.259   2.209
 5399TIP3    H237757   4.304   3.229   2.336
 5400TIP3   OH237758   1.192   6.250   0.437
 5400TIP3    H137759   1.106   6.210   0.422
 5400TIP3    H237760   1.231   6.195   0.505
 5401TIP3   OH237761   1.825   2.648   7.283
 5401TIP3    H137762   1.856   2.648   7.374
 5401TIP3    H237763   1.743   2.699   7.287
 5402TIP3   OH237764   3.606   5.956   1.562
 5402TIP3    H137765   3.625   6.029   1.503
 5402TIP3    H237766   3.638   5.879   1.515
 5403TIP3   OH237767   3.490   1.617   7.032
 5403TIP3    H137768   3.564   1.561   7.054
 5403TIP3    H237769   3.453   1.578   6.953
 5404TIP3   OH237770   1.232   4.497   0.755
 5404TIP3    H137771   1.138   4.479   0.765
 5404TIP3    H237772   1.256   4.453   0.674
 5405TIP3   OH237773   3.324   6.481   2.555
 5405TIP3    H137774   3.293   6.426   2.483
 5405TIP3    H237775   3.412   6.508   2.528
 5406TIP3   OH237776   1.217   5.435   1.536
 5406TIP3    H137777   1.211   5.460   1.628
 5406TIP3    H237778   1.308   5.407   1.524
 5407TIP3   OH237779   1.051   5.620   8.193
 5407TIP3    H137780   1.073   5.532   8.163
 5407TIP3    H237781   1.135   5.665   8.201
 5408TIP3   OH237782   5.199   2.546   8.180
 5408TIP3    H137783   5.280   2.499   8.198
 5408TIP3    H237784   5.145   2.534   8.258
 5409TIP3   OH237785   0.790   6.375   0.763
 5409TIP3    H137786   0.812   6.432   0.836
 5409TIP3    H237787   0.873   6.360   0.718
 5410TIP3   OH237788   2.753   1.318   6.912
 5410TIP3    H137789   2.716   1.235   6.882
 5410TIP3    H237790   2.748   1.376   6.835
 5411TIP3   OH237791   6.784   2.282   7.703
 5411TIP3    H137792   6.771   2.314   7.614
 5411TIP3    H237793   6.872   2.312   7.727
 5412TIP3   OH237794   4.549   0.027   6.289
 5412TIP3    H137795   4.544   6.867   6.376
 5412TIP3    H237796   4.556   6.833   6.229
 5413TIP3   OH237797   1.198   5.417   0.804
 5413TIP3    H137798   1.211   5.468   0.725
 5413TIP3    H237799   1.156   5.477   0.866
 5414TIP3   OH237800   4.677   0.125   8.596
 5414TIP3    H137801   4.582   0.135   8.584
 5414TIP3    H237802   4.699   0.044   8.549
 5415TIP3   OH237803   2.754   6.133   8.149
 5415TIP3    H137804   2.822   6.087   8.198
 5415TIP3    H237805   2.690   6.159   8.216
 5416TIP3   OH237806   5.389   3.606   8.106
 5416TIP3    H137807   5.394   3.651   8.190
 5416TIP3    H237808   5.354   3.671   8.045
 5417TIP3   OH237809   3.340   2.524   8.566
 5417TIP3    H137810   3.391   2.445   8.549
 5417TIP3    H237811   3.251   2.501   8.541
 5418TIP3   OH237812   5.698   1.954   2.137
 5418TIP3    H137813   5.715   2.032   2.190
 5418TIP3    H237814   5.703   1.882   2.199
 5419TIP3   OH237815   3.503   3.331   6.497
 5419TIP3    H137816   3.492   3.394   6.426
 5419TIP3    H237817   3.575   3.275   6.469
 5420TIP3   OH237818   2.274   4.480   0.635
 5420TIP3    H137819   2.261   4.409   0.573
 5420TIP3    H237820   2.338   4.447   0.697
 5421TIP3   OH237821   2.374   2.572   0.113
 5421TIP3    H137822   2.301   2.519   0.147
 5421TIP3    H237823   2.331   2.645   0.068
 5422TIP3   OH237824   3.032   1.029   0.921
 5422TIP3    H137825   3.049   0.941   0.954
 5422TIP3    H237826   3.115   1.055   0.879
 5423TIP3   OH237827   4.871   2.352   0.952
 5423TIP3    H137828   4.878   2.446   0.968
 5423TIP3    H237829   4.792   2.342   0.899
 5424TIP3   OH237830   1.789   6.237   1.625
 5424TIP3    H137831   1.867   6.258   1.575
 5424TIP3    H237832   1.742   6.174   1.570
 5425TIP3   OH237833   6.408   1.428   1.432
 5425TIP3    H137834   6.436   1.501   1.488
 5425TIP3    H237835   6.312   1.435   1.432
 5426TIP3   OH237836   1.891   1.061   7.321
 5426TIP3    H137837   1.923   1.073   7.410
 5426TIP3    H237838   1.838   1.139   7.304
 5427TIP3   OH237839   2.733   3.318   7.976
 5427TIP3    H137840   2.686   3.401   7.981
 5427TIP3    H237841   2.758   3.309   7.884
 5428TIP3   OH237842   0.962   2.737   2.247
 5428TIP3    H137843   0.946   2.739   2.152
 5428TIP3    H237844   0.992   2.648   2.264
 5429TIP3   OH237845   4.968   1.164   7.483
 5429TIP3    H137846   5.006   1.101   7.421
 5429TIP3    H237847   5.013   1.246   7.463
 5430TIP3   OH237848   6.630   0.884   7.977
 5430TIP3    H137849   6.647   0.973   8.009
 5430TIP3    H237850   6.575   0.897   7.900
 5431TIP3   OH237851   1.409   2.101   7.326
 5431TIP3    H137852   1.414   2.008   7.303
 5431TIP3    H237853   1.413   2.147   7.243
 5432TIP3   OH237854   2.426   5.703   7.858
 5432TIP3    H137855   2.520   5.716   7.862
 5432TIP3    H237856   2.398   5.751   7.780
 5433TIP3   OH237857   6.208   4.995   0.969
 5433TIP3    H137858   6.131   4.959   1.014
 5433TIP3    H237859   6.225   5.078   1.015
 5434TIP3   OH237860   4.920   5.411   8.471
 5434TIP3    H137861   5.012   5.400   8.496
 5434TIP3    H237862   4.920   5.398   8.376
 5435TIP3   OH237863   4.738   0.889   1.216
 5435TIP3    H137864   4.689   0.894   1.134
 5435TIP3    H237865   4.672   0.867   1.282
 5436TIP3   OH237866   1.025   1.933   6.375
 5436TIP3    H137867   0.978   2.000   6.424
 5436TIP3    H237868   0.962   1.862   6.363
 5437TIP3   OH237869   5.260   2.366   0.740
 5437TIP3    H137870   5.242   2.459   0.749
 5437TIP3    H237871   5.287   2.338   0.827
 5438TIP3   OH237872   6.847   4.081   2.531
 5438TIP3    H137873   0.051   4.038   2.510
 5438TIP3    H237874   6.872   4.161   2.578
 5439TIP3   OH237875   3.612   3.672   7.343
 5439TIP3    H137876   3.546   3.738   7.364
 5439TIP3    H237877   3.673   3.717   7.284
 5440TIP3   OH237878   3.620   1.295   1.154
 5440TIP3    H137879   3.704   1.251   1.168
 5440TIP3    H237880   3.554   1.228   1.175
 5441TIP3   OH237881   5.381   5.682   0.659
 5441TIP3    H137882   5.320   5.667   0.587
 5441TIP3    H237883   5.358   5.616   0.724
 5442TIP3   OH237884   1.669   5.522   7.024
 5442TIP3    H137885   1.687   5.570   7.104
 5442TIP3    H237886   1.644   5.434   7.054
 5443TIP3   OH237887   3.091   3.605   0.099
 5443TIP3    H137888   3.066   3.650   0.180
 5443TIP3    H237889   3.175   3.643   0.075
 5444TIP3   OH237890   2.910   6.431   6.791
 5444TIP3    H137891   2.891   6.338   6.774
 5444TIP3    H237892   2.832   6.477   6.760
 5445TIP3   OH237893   5.922   1.562   7.752
 5445TIP3    H137894   5.863   1.544   7.679
 5445TIP3    H237895   5.919   1.484   7.806
 5446TIP3   OH237896   4.851   5.463   1.388
 5446TIP3    H137897   4.790   5.529   1.421
 5446TIP3    H237898   4.860   5.401   1.460
 5447TIP3   OH237899   5.355   2.059   8.544
 5447TIP3    H137900   5.413   2.065   8.619
 5447TIP3    H237901   5.413   2.057   8.468
 5448TIP3   OH237902   5.548   0.983   2.164
 5448TIP3    H137903   5.552   0.935   2.247
 5448TIP3    H237904   5.553   1.075   2.189
 5449TIP3   OH237905   1.692   5.249   7.715
 5449TIP3    H137906   1.693   5.174   7.656
 5449TIP3    H237907   1.600   5.274   7.722
 5450TIP3   OH237908   0.562   5.383   0.367
 5450TIP3    H137909   0.474   5.418   0.364
 5450TIP3    H237910   0.601   5.407   0.283
 5451TIP3   OH237911   6.055   0.401   8.518
 5451TIP3    H137912   6.124   0.465   8.536
 5451TIP3    H237913   6.014   0.433   8.438
 5452TIP3   OH237914   1.523   1.560   7.482
 5452TIP3    H137915   1.616   1.566   7.501
 5452TIP3    H237916   1.515   1.586   7.390
 5453TIP3   OH237917   2.348   4.678   0.195
 5453TIP3    H137918   2.350   4.670   0.291
 5453TIP3    H237919   2.436   4.650   0.168
 5454TIP3   OH237920   4.431   3.825   1.476
 5454TIP3    H137921   4.489   3.888   1.520
 5454TIP3    H237922   4.405   3.869   1.395
 5455TIP3   OH237923   5.727   5.606   1.113
 5455TIP3    H137924   5.757   5.553   1.187
 5455TIP3    H237925   5.759   5.695   1.132
 5456TIP3   OH237926   1.175   0.474   6.917
 5456TIP3    H137927   1.168   0.381   6.938
 5456TIP3    H237928   1.134   0.482   6.831
 5457TIP3   OH237929   5.786   6.319   2.328
 5457TIP3    H137930   5.775   6.282   2.240
 5457TIP3    H237931   5.879   6.311   2.346
 5458TIP3   OH237932   0.961   4.350   7.091
 5458TIP3    H137933   1.024   4.412   7.128
 5458TIP3    H237934   0.886   4.353   7.150
 5459TIP3   OH237935   5.336   5.554   0.072
 5459TIP3    H137936   5.406   5.556   0.006
 5459TIP3    H237937   5.377   5.521   0.151
 5460TIP3   OH237938   2.978   1.387   8.033
 5460TIP3    H137939   3.008   1.297   8.045
 5460TIP3    H237940   2.928   1.407   8.112
 5461TIP3   OH237941   4.862   3.757   0.888
 5461TIP3    H137942   4.908   3.681   0.923
 5461TIP3    H237943   4.804   3.784   0.959
 5462TIP3   OH237944   3.994   4.075   6.339
 5462TIP3    H137945   4.014   4.165   6.313
 5462TIP3    H237946   4.023   4.070   6.431
 5463TIP3   OH237947   4.271   0.020   1.747
 5463TIP3    H137948   4.306   6.828   1.800
 5463TIP3    H237949   4.180   0.028   1.775
 5464TIP3   OH237950   4.635   3.580   0.364
 5464TIP3    H137951   4.645   3.485   0.370
 5464TIP3    H237952   4.543   3.593   0.338
 5465TIP3   OH237953   2.157   3.856   8.163
 5465TIP3    H137954   2.103   3.912   8.220
 5465TIP3    H237955   2.207   3.803   8.224
 5466TIP3   OH237956   4.846   6.869   0.932
 5466TIP3    H137957   4.853   6.773   0.933
 5466TIP3    H237958   4.761   0.006   0.892
 5467TIP3   OH237959   4.902   2.788   7.931
 5467TIP3    H137960   4.878   2.759   7.843
 5467TIP3    H237961   4.998   2.779   7.933
 5468TIP3   OH237962   2.008   5.129   7.643
 5468TIP3    H137963   2.026   5.170   7.559
 5468TIP3    H237964   2.018   5.035   7.627
 5469TIP3   OH237965   6.258   6.084   7.161
 5469TIP3    H137966   6.170   6.047   7.162
 5469TIP3    H237967   6.313   6.018   7.204
 5470TIP3   OH237968   0.253   0.864   1.953
 5470TIP3    H137969   0.210   0.911   1.881
 5470TIP3    H237970   0.344   0.856   1.924
 5471TIP3   OH237971   6.652   0.349   0.869
 5471TIP3    H137972   6.578   0.408   0.855
 5471TIP3    H237973   6.709   0.365   0.794
 5472TIP3   OH237974   1.309   0.019   7.431
 5472TIP3    H137975   1.378   0.079   7.402
 5472TIP3    H237976   1.228   0.070   7.422
 5473TIP3   OH237977   1.004   5.633   2.562
 5473TIP3    H137978   0.920   5.592   2.582
 5473TIP3    H237979   0.992   5.725   2.584
 5474TIP3   OH237980   1.196   4.316   6.668
 5474TIP3    H137981   1.188   4.365   6.586
 5474TIP3    H237982   1.108   4.317   6.706
 5475TIP3   OH237983   6.111   6.758   1.606
 5475TIP3    H137984   6.050   6.698   1.647
 5475TIP3    H237985   6.184   6.704   1.577
 5476TIP3   OH237986   4.584   4.423   7.530
 5476TIP3    H137987   4.665   4.443   7.577
 5476TIP3    H237988   4.608   4.356   7.467
 5477TIP3   OH237989   5.783   4.318   7.391
 5477TIP3    H137990   5.696   4.283   7.412
 5477TIP3    H237991   5.766   4.410   7.371
 5478TIP3   OH237992   0.628   3.753   1.231
 5478TIP3    H137993   0.564   3.754   1.302
 5478TIP3    H237994   0.646   3.845   1.213
 5479TIP3   OH237995   4.216   6.822   1.141
 5479TIP3    H137996   4.286   6.766   1.174
 5479TIP3    H237997   4.162   6.765   1.087
 5480TIP3   OH237998   3.992   3.452   0.351
 5480TIP3    H137999   4.025   3.365   0.376
 5480TIP3    H238000   3.898   3.447   0.365
 5481TIP3   OH238001   5.614   3.862   1.303
 5481TIP3    H138002   5.534   3.906   1.276
 5481TIP3    H238003   5.590   3.814   1.382
 5482TIP3   OH238004   3.716   1.422   2.046
 5482TIP3    H138005   3.712   1.390   2.136
 5482TIP3    H238006   3.707   1.517   2.054
 5483TIP3   OH238007   0.193   5.534   8.361
 5483TIP3    H138008   0.099   5.526   8.345
 5483TIP3    H238009   0.213   5.463   8.422
 5484TIP3   OH238010   1.940   0.054   7.163
 5484TIP3    H138011   1.911   0.001   7.089
 5484TIP3    H238012   1.946   0.143   7.128
 5485TIP3   OH238013   0.010   5.524   7.076
 5485TIP3    H138014   0.078   5.487   7.019
 5485TIP3    H238015   0.006   5.616   7.052
 5486TIP3   OH238016   4.490   0.255   7.436
 5486TIP3    H138017   4.404   0.292   7.419
 5486TIP3    H238018   4.549   0.305   7.379
 5487TIP3   OH238019   3.498   4.324   8.601
 5487TIP3    H138020   3.432   4.260   8.576
 5487TIP3    H238021   3.452   4.385   0.035
 5488TIP3   OH238022   0.306   2.681   8.186
 5488TIP3    H138023   0.222   2.637   8.172
 5488TIP3    H238024   0.282   2.768   8.219
 5489TIP3   OH238025   4.790   1.207   0.728
 5489TIP3    H138026   4.851   1.280   0.718
 5489TIP3    H238027   4.822   1.158   0.803
 5490TIP3   OH238028   4.751   1.238   1.229
 5490TIP3    H138029   4.751   1.206   1.319
 5490TIP3    H238030   4.669   1.206   1.192
 5491TIP3   OH238031   4.476   2.610   7.043
 5491TIP3    H138032   4.551   2.653   7.084
 5491TIP3    H238033   4.474   2.645   6.954
 5492TIP3   OH238034   0.965   2.117   1.024
 5492TIP3    H138035   0.985   2.025   1.041
 5492TIP3    H238036   1.028   2.144   0.956
 5493TIP3   OH238037   6.106   0.984   1.403
 5493TIP3    H138038   6.130   1.074   1.428
 5493TIP3    H238039   6.186   0.947   1.366
 5494TIP3   OH238040   3.503   2.303   8.544
 5494TIP3    H138041   3.557   2.252   8.604
 5494TIP3    H238042   3.557   2.313   8.466
 5495TIP3   OH238043   6.368   5.816   8.576
 5495TIP3    H138044   6.458   5.834   8.547
 5495TIP3    H238045   6.377   5.745   0.016
 5496TIP3   OH238046   1.409   3.375   1.024
 5496TIP3    H138047   1.332   3.366   0.967
 5496TIP3    H238048   1.429   3.469   1.022
 5497TIP3   OH238049   0.581   0.615   1.493
 5497TIP3    H138050   0.646   0.552   1.462
 5497TIP3    H238051   0.551   0.660   1.414
 5498TIP3   OH238052   4.362   0.058   0.116
 5498TIP3    H138053   4.273   0.093   0.116
 5498TIP3    H238054   4.412   0.119   0.170
 5499TIP3   OH238055   4.332   1.577   2.467
 5499TIP3    H138056   4.338   1.661   2.513
 5499TIP3    H238057   4.423   1.553   2.448
 5500TIP3   OH238058   0.971   1.202   0.798
 5500TIP3    H138059   0.914   1.278   0.787
 5500TIP3    H238060   0.971   1.160   0.711
 5501TIP3   OH238061   3.426   5.287   6.712
 5501TIP3    H138062   3.503   5.316   6.662
 5501TIP3    H238063   3.352   5.328   6.667
 5502TIP3   OH238064   5.479   0.668   0.924
 5502TIP3    H138065   5.570   0.696   0.922
 5502TIP3    H238066   5.433   0.730   0.868
 5503TIP3   OH238067   5.519   4.579   7.694
 5503TIP3    H138068   5.549   4.490   7.679
 5503TIP3    H238069   5.434   4.584   7.649
 5504TIP3   OH238070   6.714   3.279   7.387
 5504TIP3    H138071   6.769   3.356   7.403
 5504TIP3    H238072   6.767   3.205   7.416
 5505TIP3   OH238073   6.829   2.758   1.390
 5505TIP3    H138074   6.734   2.773   1.392
 5505TIP3    H238075   6.866   2.826   1.446
 5506TIP3   OH238076   5.617   6.001   7.061
 5506TIP3    H138077   5.540   5.948   7.039
 5506TIP3    H238078   5.638   6.049   6.981
 5507TIP3   OH238079   4.331   1.778   7.603
 5507TIP3    H138080   4.327   1.689   7.566
 5507TIP3    H238081   4.404   1.774   7.665
 5508TIP3   OH238082   5.425   0.943   7.351
 5508TIP3    H138083   5.359   0.951   7.420
 5508TIP3    H238084   5.474   1.025   7.356
 5509TIP3   OH238085   0.621   2.268   7.575
 5509TIP3    H138086   0.529   2.265   7.552
 5509TIP3    H238087   0.634   2.192   7.632
 5510TIP3   OH238088   3.026   2.580   7.445
 5510TIP3    H138089   3.019   2.618   7.532
 5510TIP3    H238090   2.958   2.512   7.442
 5511TIP3   OH238091   6.464   4.527   1.733
 5511TIP3    H138092   6.386   4.549   1.683
 5511TIP3    H238093   6.469   4.595   1.800
 5512TIP3   OH238094   6.694   3.624   0.897
 5512TIP3    H138095   6.607   3.598   0.925
 5512TIP3    H238096   6.705   3.712   0.932
 5513TIP3   OH238097   0.622   0.865   1.598
 5513TIP3    H138098   0.556   0.891   1.533
 5513TIP3    H238099   0.649   0.777   1.572
 5514TIP3   OH238100   5.146   4.693   2.114
 5514TIP3    H138101   5.109   4.623   2.060
 5514TIP3    H238102   5.219   4.651   2.160
 5515TIP3   OH238103   2.738   3.913   1.994
 5515TIP3    H138104   2.805   3.880   2.054
 5515TIP3    H238105   2.701   3.989   2.039
 5516TIP3   OH238106   6.871   2.985   7.021
 5516TIP3    H138107   6.780   2.965   7.001
 5516TIP3    H238108   0.011   3.065   6.971
 5517TIP3   OH238109   4.635   4.006   7.897
 5517TIP3    H138110   4.650   4.091   7.856
 5517TIP3    H238111   4.545   4.010   7.927
 5518TIP3   OH238112   0.281   4.938   6.704
 5518TIP3    H138113   0.221   4.909   6.773
 5518TIP3    H238114   0.297   5.030   6.722
 5519TIP3   OH238115   6.380   5.214   0.708
 5519TIP3    H138116   6.291   5.199   0.739
 5519TIP3    H238117   6.424   5.256   0.782
 5520TIP3   OH238118   2.226   0.070   1.874
 5520TIP3    H138119   2.260   6.870   1.917
 5520TIP3    H238120   2.163   0.106   1.936
 5521TIP3   OH238121   4.320   4.115   0.328
 5521TIP3    H138122   4.231   4.087   0.307
 5521TIP3    H238123   4.310   4.203   0.364
 5522TIP3   OH238124   4.398   4.270   2.467
 5522TIP3    H138125   4.424   4.284   2.558
 5522TIP3    H238126   4.480   4.259   2.420
 5523TIP3   OH238127   2.861   1.756   7.804
 5523TIP3    H138128   2.869   1.677   7.752
 5523TIP3    H238129   2.948   1.771   7.840
 5524TIP3   OH238130   3.269   3.485   1.024
 5524TIP3    H138131   3.272   3.547   1.097
 5524TIP3    H238132   3.308   3.533   0.951
 5525TIP3   OH238133   4.960   3.887   0.690
 5525TIP3    H138134   4.880   3.920   0.649
 5525TIP3    H238135   4.932   3.850   0.773
 5526TIP3   OH238136   4.182   6.288   7.443
 5526TIP3    H138137   4.103   6.329   7.409
 5526TIP3    H238138   4.243   6.288   7.369
 5527TIP3   OH238139   2.257   5.124   1.511
 5527TIP3    H138140   2.243   5.102   1.419
 5527TIP3    H238141   2.276   5.040   1.553
 5528TIP3   OH238142   2.317   0.587   7.501
 5528TIP3    H138143   2.275   0.652   7.446
 5528TIP3    H238144   2.397   0.629   7.532
 5529TIP3   OH238145   1.780   6.216   7.133
 5529TIP3    H138146   1.855   6.255   7.088
 5529TIP3    H238147   1.809   6.127   7.154
 5530TIP3   OH238148   2.113   4.862   0.514
 5530TIP3    H138149   2.045   4.796   0.498
 5530TIP3    H238150   2.068   4.933   0.560
 5531TIP3   OH238151   2.784   3.993   7.077
 5531TIP3    H138152   2.732   3.918   7.047
 5531TIP3    H238153   2.735   4.070   7.048
 5532TIP3   OH238154   5.110   1.137   1.880
 5532TIP3    H138155   5.166   1.190   1.823
 5532TIP3    H238156   5.172   1.089   1.936
 5533TIP3   OH238157   4.846   6.253   0.490
 5533TIP3    H138158   4.828   6.159   0.497
 5533TIP3    H238159   4.905   6.271   0.564
 5534TIP3   OH238160   0.456   4.108   8.384
 5534TIP3    H138161   0.462   4.053   8.306
 5534TIP3    H238162   0.460   4.046   8.457
 5535TIP3   OH238163   0.661   2.922   8.617
 5535TIP3    H138164   0.733   2.924   0.057
 5535TIP3    H238165   0.603   2.994   0.020
 5536TIP3   OH238166   3.738   4.448   7.546
 5536TIP3    H138167   3.814   4.432   7.603
 5536TIP3    H238168   3.757   4.531   7.503
 5537TIP3   OH238169   0.640   0.065   6.585
 5537TIP3    H138170   0.571   0.004   6.558
 5537TIP3    H238171   0.672   0.030   6.668
 5538TIP3   OH238172   5.147   4.066   0.151
 5538TIP3    H138173   5.086   4.000   0.117
 5538TIP3    H238174   5.210   4.016   0.202
 5539TIP3   OH238175   5.537   6.731   6.453
 5539TIP3    H138176   5.582   6.652   6.422
 5539TIP3    H238177   5.454   6.731   6.406
 5540TIP3   OH238178   3.664   1.808   7.185
 5540TIP3    H138179   3.718   1.732   7.164
 5540TIP3    H238180   3.577   1.771   7.200
 5541TIP3   OH238181   5.170   5.734   8.401
 5541TIP3    H138182   5.243   5.789   8.375
 5541TIP3    H238183   5.145   5.688   8.321
 5542TIP3   OH238184   4.578   0.749   2.049
 5542TIP3    H138185   4.664   0.707   2.054
 5542TIP3    H238186   4.548   0.753   2.140
 5543TIP3   OH238187   2.816   2.870   0.948
 5543TIP3    H138188   2.772   2.934   0.892
 5543TIP3    H238189   2.773   2.879   1.033
 5544TIP3   OH238190   0.899   3.015   8.436
 5544TIP3    H138191   0.927   3.106   8.449
 5544TIP3    H238192   0.813   3.011   8.478
 5545TIP3   OH238193   0.330   3.040   6.401
 5545TIP3    H138194   0.418   3.039   6.362
 5545TIP3    H238195   0.312   3.132   6.417
 5546TIP3   OH238196   6.397   2.055   1.823
 5546TIP3    H138197   6.320   2.015   1.784
 5546TIP3    H238198   6.462   2.056   1.753
 5547TIP3   OH238199   0.761   2.277   0.805
 5547TIP3    H138200   0.737   2.354   0.857
 5547TIP3    H238201   0.835   2.307   0.753
 5548TIP3   OH238202   2.650   2.756   6.278
 5548TIP3    H138203   2.592   2.728   6.348
 5548TIP3    H238204   2.651   2.683   6.217
 5549TIP3   OH238205   3.842   4.398   1.223
 5549TIP3    H138206   3.777   4.336   1.253
 5549TIP3    H238207   3.826   4.406   1.129
 5550TIP3   OH238208   1.306   2.152   0.538
 5550TIP3    H138209   1.329   2.175   0.448
 5550TIP3    H238210   1.364   2.207   0.592
 5551TIP3   OH238211   6.632   5.728   8.580
 5551TIP3    H138212   6.681   5.760   8.505
 5551TIP3    H238213   6.634   5.633   8.571
 5552TIP3   OH238214   6.100   3.471   6.377
 5552TIP3    H138215   6.060   3.547   6.336
 5552TIP3    H238216   6.109   3.407   6.307
 5553TIP3   OH238217   5.189   1.358   6.867
 5553TIP3    H138218   5.144   1.443   6.869
 5553TIP3    H238219   5.123   1.297   6.834
 5554TIP3   OH238220   6.428   4.080   8.151
 5554TIP3    H138221   6.371   4.004   8.162
 5554TIP3    H238222   6.439   4.088   8.056
 5555TIP3   OH238223   1.329   4.928   7.279
 5555TIP3    H138224   1.393   4.860   7.301
 5555TIP3    H238225   1.285   4.896   7.201
 5556TIP3   OH238226   0.702   1.631   1.274
 5556TIP3    H138227   0.606   1.635   1.272
 5556TIP3    H238228   0.729   1.658   1.187
 5557TIP3   OH238229   4.954   2.455   0.633
 5557TIP3    H138230   5.049   2.462   0.645
 5557TIP3    H238231   4.935   2.363   0.650
 5558TIP3   OH238232   5.699   4.573   0.268
 5558TIP3    H138233   5.763   4.536   0.328
 5558TIP3    H238234   5.617   4.527   0.289
 5559TIP3   OH238235   3.623   3.273   7.138
 5559TIP3    H138236   3.658   3.209   7.199
 5559TIP3    H238237   3.576   3.222   7.072
 5560TIP3   OH238238   3.552   4.199   6.494
 5560TIP3    H138239   3.477   4.142   6.511
 5560TIP3    H238240   3.547   4.217   6.400
 5561TIP3   OH238241   3.156   5.267   8.592
 5561TIP3    H138242   3.242   5.230   8.573
 5561TIP3    H238243   3.108   5.195   0.010
 5562TIP3   OH238244   4.177   0.406   0.168
 5562TIP3    H138245   4.102   0.427   0.224
 5562TIP3    H238246   4.138   0.362   0.092
 5563TIP3   OH238247   3.426   6.853   1.272
 5563TIP3    H138248   3.470   0.034   1.213
 5563TIP3    H238249   3.348   6.826   1.225
 5564TIP3   OH238250   0.367   3.301   1.744
 5564TIP3    H138251   0.438   3.359   1.715
 5564TIP3    H238252   0.313   3.289   1.666
 5565TIP3   OH238253   3.466   6.203   1.648
 5565TIP3    H138254   3.460   6.241   1.736
 5565TIP3    H238255   3.504   6.117   1.661
 5566TIP3   OH238256   2.096   2.656   1.211
 5566TIP3    H138257   2.185   2.626   1.192
 5566TIP3    H238258   2.069   2.602   1.286
 5567TIP3   OH238259   6.556   6.634   8.286
 5567TIP3    H138260   6.539   6.540   8.273
 5567TIP3    H238261   6.479   6.666   8.333
 5568TIP3   OH238262   0.106   5.261   0.347
 5568TIP3    H138263   0.120   5.196   0.416
 5568TIP3    H238264   0.132   5.217   0.266
 5569TIP3   OH238265   6.103   4.045   8.165
 5569TIP3    H138266   6.017   4.012   8.142
 5569TIP3    H238267   6.160   4.018   8.093
 5570TIP3   OH238268   4.045   3.091   7.402
 5570TIP3    H138269   4.032   3.125   7.490
 5570TIP3    H238270   4.040   3.167   7.345
 5571TIP3   OH238271   5.514   1.531   1.554
 5571TIP3    H138272   5.592   1.575   1.588
 5571TIP3    H238273   5.543   1.441   1.537
 5572TIP3   OH238274   3.554   4.443   0.930
 5572TIP3    H138275   3.559   4.376   0.862
 5572TIP3    H238276   3.641   4.485   0.929
 5573TIP3   OH238277   4.065   6.601   8.372
 5573TIP3    H138278   4.082   6.604   8.466
 5573TIP3    H238279   4.098   6.684   8.339
 5574TIP3   OH238280   6.627   5.230   1.129
 5574TIP3    H138281   6.577   5.180   1.065
 5574TIP3    H238282   6.655   5.309   1.082
 5575TIP3   OH238283   3.804   1.661   2.439
 5575TIP3    H138284   3.740   1.593   2.418
 5575TIP3    H238285   3.763   1.712   2.509
 5576TIP3   OH238286   4.445   1.753   0.133
 5576TIP3    H138287   4.373   1.769   0.195
 5576TIP3    H238288   4.402   1.719   0.055
 5577TIP3   OH238289   4.456   4.833   1.502
 5577TIP3    H138290   4.503   4.754   1.478
 5577TIP3    H238291   4.432   4.873   1.419
 5578TIP3   OH238292   6.712   4.100   0.077
 5578TIP3    H138293   6.684   4.019   0.035
 5578TIP3    H238294   6.801   4.114   0.046
 5579TIP3   OH238295   4.173   0.249   7.456
 5579TIP3    H138296   4.154   0.182   7.522
 5579TIP3    H238297   4.137   0.330   7.492
 5580TIP3   OH238298   5.285   5.458   0.756
 5580TIP3    H138299   5.294   5.413   0.840
 5580TIP3    H238300   5.272   5.387   0.692
 5581TIP3   OH238301   1.944   5.471   7.482
 5581TIP3    H138302   1.863   5.423   7.468
 5581TIP3    H238303   1.972   5.497   7.394
 5582TIP3   OH238304   4.265   6.255   6.846
 5582TIP3    H138305   4.345   6.235   6.799
 5582TIP3    H238306   4.273   6.347   6.870
 5583TIP3   OH238307   2.770   3.080   0.010
 5583TIP3    H138308   2.849   3.105   0.057
 5583TIP3    H238309   2.801   3.036   8.556
 5584TIP3   OH238310   1.780   2.838   1.162
 5584TIP3    H138311   1.734   2.882   1.090
 5584TIP3    H238312   1.739   2.872   1.241
 5585TIP3   OH238313   4.003   3.531   2.151
 5585TIP3    H138314   4.097   3.531   2.133
 5585TIP3    H238315   3.988   3.451   2.200
 5586TIP3   OH238316   1.129   5.357   6.256
 5586TIP3    H138317   1.182   5.341   6.334
 5586TIP3    H238318   1.055   5.298   6.265
 5587TIP3   OH238319   0.491   2.295   6.606
 5587TIP3    H138320   0.412   2.338   6.574
 5587TIP3    H238321   0.463   2.205   6.623
 5588TIP3   OH238322   4.404   5.576   7.205
 5588TIP3    H138323   4.443   5.576   7.292
 5588TIP3    H238324   4.479   5.584   7.146
 5589TIP3   OH238325   2.044   3.719   0.331
 5589TIP3    H138326   2.109   3.716   0.401
 5589TIP3    H238327   1.970   3.767   0.369
 5590TIP3   OH238328   1.055   4.566   8.090
 5590TIP3    H138329   0.970   4.552   8.047
 5590TIP3    H238330   1.040   4.540   8.181
 5591TIP3   OH238331   5.645   4.824   0.132
 5591TIP3    H138332   5.667   4.891   0.196
 5591TIP3    H238333   5.653   4.741   0.180
 5592TIP3   OH238334   2.891   1.868   8.494
 5592TIP3    H138335   2.806   1.888   8.455
 5592TIP3    H238336   2.952   1.928   8.452
 5593TIP3   OH238337   6.810   6.671   1.307
 5593TIP3    H138338   6.879   6.727   1.343
 5593TIP3    H238339   6.787   6.613   1.379
 5594TIP3   OH238340   5.254   4.846   0.083
 5594TIP3    H138341   5.295   4.795   0.152
 5594TIP3    H238342   5.302   4.929   0.082
 5595TIP3   OH238343   1.501   0.640   7.575
 5595TIP3    H138344   1.575   0.692   7.542
 5595TIP3    H238345   1.429   0.660   7.515
 5596TIP3   OH238346   3.272   5.649   8.336
 5596TIP3    H138347   3.329   5.704   8.390
 5596TIP3    H238348   3.303   5.664   8.247
 5597TIP3   OH238349   4.245   6.702   0.410
 5597TIP3    H138350   4.250   6.623   0.465
 5597TIP3    H238351   4.277   6.673   0.324
 5598TIP3   OH238352   4.629   4.372   1.163
 5598TIP3    H138353   4.642   4.278   1.153
 5598TIP3    H238354   4.663   4.410   1.082
 5599TIP3   OH238355   3.000   4.972   1.584
 5599TIP3    H138356   3.052   4.913   1.529
 5599TIP3    H238357   3.064   5.008   1.646
 5600TIP3   OH238358   0.153   2.730   2.068
 5600TIP3    H138359   0.168   2.713   2.161
 5600TIP3    H238360   0.065   2.696   2.051
 5601TIP3   OH238361   4.656   6.239   8.270
 5601TIP3    H138362   4.724   6.291   8.313
 5601TIP3    H238363   4.578   6.255   8.322
 5602TIP3   OH238364   0.912   5.262   0.911
 5602TIP3    H138365   0.919   5.244   1.005
 5602TIP3    H238366   0.964   5.341   0.897
 5603TIP3   OH238367   5.530   3.694   1.500
 5603TIP3    H138368   5.496   3.651   1.578
 5603TIP3    H238369   5.510   3.634   1.428
 5604TIP3   OH238370   4.722   2.196   2.102
 5604TIP3    H138371   4.652   2.247   2.142
 5604TIP3    H238372   4.801   2.222   2.149
 5605TIP3   OH238373   1.296   5.744   8.242
 5605TIP3    H138374   1.279   5.801   8.167
 5605TIP3    H238375   1.391   5.736   8.245
 5606TIP3   OH238376   4.958   1.248   1.031
 5606TIP3    H138377   4.898   1.220   1.100
 5606TIP3    H238378   5.039   1.268   1.076
 5607TIP3   OH238379   3.577   6.804   0.668
 5607TIP3    H138380   3.545   6.746   0.738
 5607TIP3    H238381   3.611   6.744   0.602
 5608TIP3   OH238382   3.125   1.992   6.042
 5608TIP3    H138383   3.096   1.968   6.130
 5608TIP3    H238384   3.155   2.082   6.050
 5609TIP3   OH238385   6.050   5.993   1.321
 5609TIP3    H138386   6.130   6.017   1.275
 5609TIP3    H238387   5.981   6.039   1.272
 5610TIP3   OH238388   6.181   3.988   0.138
 5610TIP3    H138389   6.112   3.950   0.193
 5610TIP3    H238390   6.213   3.914   0.086
 5611TIP3   OH238391   4.845   0.114   6.786
 5611TIP3    H138392   4.932   0.155   6.789
 5611TIP3    H238393   4.861   0.022   6.808
 5612TIP3   OH238394   4.958   6.686   0.674
 5612TIP3    H138395   5.012   6.689   0.754
 5612TIP3    H238396   4.869   6.675   0.706
 5613TIP3   OH238397   2.130   4.413   7.105
 5613TIP3    H138398   2.135   4.439   7.013
 5613TIP3    H238399   2.154   4.321   7.106
 5614TIP3   OH238400   5.875   0.607   1.963
 5614TIP3    H138401   5.868   0.619   2.057
 5614TIP3    H238402   5.799   0.554   1.939
 5615TIP3   OH238403   3.618   3.691   6.445
 5615TIP3    H138404   3.703   3.670   6.485
 5615TIP3    H238405   3.560   3.704   6.520
 5616TIP3   OH238406   6.481   0.927   7.468
 5616TIP3    H138407   6.477   0.853   7.529
 5616TIP3    H238408   6.521   0.890   7.389
 5617TIP3   OH238409   0.962   0.614   1.537
 5617TIP3    H138410   0.904   0.651   1.471
 5617TIP3    H238411   0.904   0.574   1.602
 5618TIP3   OH238412   5.550   0.624   1.339
 5618TIP3    H138413   5.535   0.539   1.297
 5618TIP3    H238414   5.604   0.604   1.416
 5619TIP3   OH238415   0.648   2.422   0.404
 5619TIP3    H138416   0.733   2.466   0.405
 5619TIP3    H238417   0.658   2.351   0.341
 5620TIP3   OH238418   0.162   1.457   1.874
 5620TIP3    H138419   0.079   1.419   1.848
 5620TIP3    H238420   0.167   1.442   1.968
 5621TIP3   OH238421   5.860   0.608   7.114
 5621TIP3    H138422   5.909   0.535   7.152
 5621TIP3    H238423   5.924   0.655   7.061
 5622TIP3   OH238424   6.363   4.472   2.041
 5622TIP3    H138425   6.375   4.403   2.107
 5622TIP3    H238426   6.269   4.487   2.041
 5623TIP3   OH238427   4.328   6.669   0.169
 5623TIP3    H138428   4.359   6.755   0.142
 5623TIP3    H238429   4.397   6.609   0.142
 5624TIP3   OH238430   3.944   3.968   0.891
 5624TIP3    H138431   3.937   3.935   0.981
 5624TIP3    H238432   3.967   4.060   0.901
 5625TIP3   OH238433   2.259   6.425   1.719
 5625TIP3    H138434   2.324   6.491   1.741
 5625TIP3    H238435   2.310   6.346   1.701
 5626TIP3   OH238436   2.119   3.358   0.434
 5626TIP3    H138437   2.204   3.399   0.418
 5626TIP3    H238438   2.140   3.268   0.457
 5627TIP3   OH238439   6.352   3.366   0.659
 5627TIP3    H138440   6.414   3.436   0.640
 5627TIP3    H238441   6.403   3.303   0.711
 5628TIP3   OH238442   5.673   6.350   7.764
 5628TIP3    H138443   5.757   6.302   7.761
 5628TIP3    H238444   5.615   6.293   7.814
 5629TIP3   OH238445   5.055   3.190   7.519
 5629TIP3    H138446   5.018   3.138   7.590
 5629TIP3    H238447   5.131   3.234   7.559
 5630TIP3   OH238448   6.415   3.806   7.266
 5630TIP3    H138449   6.398   3.712   7.273
 5630TIP3    H238450   6.350   3.846   7.325
 5631TIP3   OH238451   2.122   1.104   7.469
 5631TIP3    H138452   2.176   1.169   7.516
 5631TIP3    H238453   2.108   1.142   7.383
 5632TIP3   OH238454   3.586   4.966   1.065
 5632TIP3    H138455   3.600   4.987   0.973
 5632TIP3    H238456   3.661   4.912   1.090
 5633TIP3   OH238457   3.033   5.294   8.001
 5633TIP3    H138458   3.098   5.268   7.935
 5633TIP3    H238459   2.951   5.303   7.952
 5634TIP3   OH238460   5.258   3.906   7.072
 5634TIP3    H138461   5.191   3.863   7.019
 5634TIP3    H238462   5.225   3.995   7.085
 5635TIP3   OH238463   4.899   2.617   0.400
 5635TIP3    H138464   4.940   2.701   0.424
 5635TIP3    H238465   4.962   2.551   0.429
 5636TIP3   OH238466   1.842   1.535   1.912
 5636TIP3    H138467   1.885   1.503   1.991
 5636TIP3    H238468   1.764   1.480   1.903
 5637TIP3   OH238469   2.095   0.561   1.114
 5637TIP3    H138470   2.113   0.468   1.098
 5637TIP3    H238471   2.000   0.567   1.112
 5638TIP3   OH238472   6.486   0.468   1.482
 5638TIP3    H138473   6.553   0.515   1.431
 5638TIP3    H238474   6.533   0.436   1.559
 5639TIP3   OH238475   1.408   6.026   8.379
 5639TIP3    H138476   1.361   5.980   8.448
 5639TIP3    H238477   1.341   6.077   8.334
 5640TIP3   OH238478   4.134   0.524   2.439
 5640TIP3    H138479   4.084   0.453   2.399
 5640TIP3    H238480   4.086   0.546   2.519
 5641TIP3   OH238481   2.325   6.452   6.445
 5641TIP3    H138482   2.398   6.461   6.506
 5641TIP3    H238483   2.290   6.541   6.436
 5642TIP3   OH238484   0.973   3.449   1.013
 5642TIP3    H138485   0.927   3.483   0.936
 5642TIP3    H238486   0.905   3.402   1.062
 5643TIP3   OH238487   0.025   4.825   0.430
 5643TIP3    H138488   0.114   4.850   0.456
 5643TIP3    H238489   0.034   4.735   0.398
 5644TIP3   OH238490   2.503   5.046   1.150
 5644TIP3    H138491   2.414   5.073   1.174
 5644TIP3    H238492   2.521   4.969   1.205
 5645TIP3   OH238493   2.417   0.075   6.829
 5645TIP3    H138494   2.470   0.040   6.757
 5645TIP3    H238495   2.367   0.000   6.861
 5646TIP3   OH238496   5.502   5.899   0.526
 5646TIP3    H138497   5.476   5.827   0.583
 5646TIP3    H238498   5.421   5.949   0.513
 5647TIP3   OH238499   2.198   5.347   7.496
 5647TIP3    H138500   2.274   5.406   7.495
 5647TIP3    H238501   2.123   5.406   7.508
 5648TIP3   OH238502   2.192   0.336   7.021
 5648TIP3    H138503   2.231   0.331   6.934
 5648TIP3    H238504   2.232   0.264   7.070
 5649TIP3   OH238505   0.788   6.143   7.408
 5649TIP3    H138506   0.726   6.072   7.388
 5649TIP3    H238507   0.804   6.184   7.323
 5650TIP3   OH238508   5.617   2.082   0.393
 5650TIP3    H138509   5.647   2.008   0.446
 5650TIP3    H238510   5.671   2.155   0.421
 5651TIP3   OH238511   5.246   2.474   6.832
 5651TIP3    H138512   5.198   2.525   6.767
 5651TIP3    H238513   5.338   2.497   6.819
 5652TIP3   OH238514   4.637   4.292   8.057
 5652TIP3    H138515   4.610   4.256   7.973
 5652TIP3    H238516   4.560   4.338   8.090
 5653TIP3   OH238517   5.928   3.526   1.989
 5653TIP3    H138518   5.877   3.573   1.924
 5653TIP3    H238519   5.921   3.579   2.068
 5654TIP3   OH238520   4.057   4.123   7.419
 5654TIP3    H138521   3.999   4.064   7.371
 5654TIP3    H238522   4.116   4.158   7.352
 5655TIP3   OH238523   1.451   1.332   7.699
 5655TIP3    H138524   1.510   1.331   7.624
 5655TIP3    H238525   1.509   1.319   7.775
 5656TIP3   OH238526   0.862   1.908   8.162
 5656TIP3    H138527   0.810   1.968   8.109
 5656TIP3    H238528   0.870   1.952   8.247
 5657TIP3   OH238529   2.343   1.276   6.950
 5657TIP3    H138530   2.384   1.363   6.955
 5657TIP3    H238531   2.400   1.227   6.890
 5658TIP3   OH238532   1.361   6.416   6.488
 5658TIP3    H138533   1.451   6.383   6.488
 5658TIP3    H238534   1.370   6.511   6.499
 5659TIP3   OH238535   3.361   3.345   1.278
 5659TIP3    H138536   3.404   3.293   1.346
 5659TIP3    H238537   3.430   3.401   1.243
 5660TIP3   OH238538   5.837   5.868   1.124
 5660TIP3    H138539   5.789   5.884   1.205
 5660TIP3    H238540   5.876   5.953   1.102
 5661TIP3   OH238541   0.110   5.284   7.657
 5661TIP3    H138542   0.135   5.337   7.732
 5661TIP3    H238543   0.184   5.291   7.596
 5662TIP3   OH238544   0.742   0.091   1.951
 5662TIP3    H138545   0.801   0.128   1.885
 5662TIP3    H238546   0.680   0.038   1.901
 5663TIP3   OH238547   0.499   4.769   1.623
 5663TIP3    H138548   0.580   4.813   1.597
 5663TIP3    H238549   0.439   4.841   1.645
 5664TIP3   OH238550   2.074   4.605   1.307
 5664TIP3    H138551   2.035   4.547   1.372
 5664TIP3    H238552   2.045   4.692   1.332
 5665TIP3   OH238553   4.866   3.936   1.709
 5665TIP3    H138554   4.835   4.020   1.744
 5665TIP3    H238555   4.867   3.878   1.786
 5666TIP3   OH238556   4.051   1.333   7.461
 5666TIP3    H138557   3.974   1.346   7.516
 5666TIP3    H238558   4.046   1.241   7.435
 5667TIP3   OH238559   4.175   5.642   8.498
 5667TIP3    H138560   4.179   5.638   8.594
 5667TIP3    H238561   4.249   5.698   8.473
 5668TIP3   OH238562   0.909   2.522   0.415
 5668TIP3    H138563   0.889   2.604   0.370
 5668TIP3    H238564   0.987   2.489   0.371
 5669TIP3   OH238565   4.220   6.875   6.462
 5669TIP3    H138566   4.186   0.077   6.424
 5669TIP3    H238567   4.141   6.825   6.485
 5670TIP3   OH238568   0.840   2.501   0.033
 5670TIP3    H138569   0.902   2.474   8.589
 5670TIP3    H238570   0.883   2.575   0.076
 5671TIP3   OH238571   2.364   1.151   1.716
 5671TIP3    H138572   2.300   1.211   1.754
 5671TIP3    H238573   2.319   1.067   1.712
 5672TIP3   OH238574   5.150   6.795   1.225
 5672TIP3    H138575   5.227   6.742   1.201
 5672TIP3    H238576   5.139   6.856   1.152
 5673TIP3   OH238577   5.486   1.386   8.184
 5673TIP3    H138578   5.579   1.404   8.197
 5673TIP3    H238579   5.465   1.428   8.101
 5674TIP3   OH238580   3.000   0.155   0.941
 5674TIP3    H138581   2.985   0.237   0.895
 5674TIP3    H238582   2.945   0.091   0.895
 5675TIP3   OH238583   1.566   4.013   6.587
 5675TIP3    H138584   1.636   4.035   6.525
 5675TIP3    H238585   1.578   4.075   6.659
 5676TIP3   OH238586   5.718   0.076   0.393
 5676TIP3    H138587   5.658   0.060   0.466
 5676TIP3    H238588   5.761   0.159   0.414
 5677TIP3   OH238589   2.998   3.665   1.427
 5677TIP3    H138590   2.937   3.592   1.413
 5677TIP3    H238591   3.009   3.668   1.522
 5678TIP3   OH238592   3.661   0.678   1.119
 5678TIP3    H138593   3.584   0.650   1.069
 5678TIP3    H238594   3.655   0.774   1.119
 5679TIP3   OH238595   1.772   6.026   6.062
 5679TIP3    H138596   1.827   6.002   6.136
 5679TIP3    H238597   1.696   5.968   6.068
 5680TIP3   OH238598   2.584   0.440   1.450
 5680TIP3    H138599   2.664   0.477   1.412
 5680TIP3    H238600   2.518   0.452   1.382
 5681TIP3   OH238601   1.204   1.393   5.934
 5681TIP3    H138602   1.138   1.372   6.001
 5681TIP3    H238603   1.245   1.309   5.914
 5682TIP3   OH238604   3.740   3.234   8.471
 5682TIP3    H138605   3.723   3.317   8.517
 5682TIP3    H238606   3.835   3.230   8.463
 5683TIP3   OH238607   4.404   3.023   8.100
 5683TIP3    H138608   4.322   3.062   8.069
 5683TIP3    H238609   4.398   2.930   8.075
 5684TIP3   OH238610   2.251   4.313   1.562
 5684TIP3    H138611   2.280   4.290   1.651
 5684TIP3    H238612   2.331   4.311   1.510
 5685TIP3   OH238613   0.248   3.670   7.283
 5685TIP3    H138614   0.313   3.730   7.320
 5685TIP3    H238615   0.164   3.716   7.296
 5686TIP3   OH238616   3.229   0.120   6.295
 5686TIP3    H138617   3.138   0.148   6.288
 5686TIP3    H238618   3.223   0.026   6.314
 5687TIP3   OH238619   0.373   3.738   6.935
 5687TIP3    H138620   0.468   3.742   6.943
 5687TIP3    H238621   0.343   3.694   7.014
 5688TIP3   OH238622   3.937   5.716   2.017
 5688TIP3    H138623   3.997   5.660   1.967
 5688TIP3    H238624   3.995   5.771   2.070
 5689TIP3   OH238625   6.024   0.271   7.505
 5689TIP3    H138626   6.055   0.316   7.426
 5689TIP3    H238627   5.985   0.190   7.473
 5690TIP3   OH238628   5.164   5.809   6.869
 5690TIP3    H138629   5.154   5.777   6.958
 5690TIP3    H238630   5.256   5.794   6.848
 5691TIP3   OH238631   5.530   1.435   1.061
 5691TIP3    H138632   5.532   1.343   1.087
 5691TIP3    H238633   5.620   1.465   1.073
 5692TIP3   OH238634   0.875   3.140   6.555
 5692TIP3    H138635   0.904   3.204   6.489
 5692TIP3    H238636   0.799   3.182   6.596
 5693TIP3   OH238637   5.645   0.774   1.991
 5693TIP3    H138638   5.740   0.768   1.999
 5693TIP3    H238639   5.621   0.849   2.046
 5694TIP3   OH238640   3.868   5.423   7.390
 5694TIP3    H138641   3.823   5.494   7.343
 5694TIP3    H238642   3.927   5.468   7.450
 5695TIP3   OH238643   5.538   2.987   0.064
 5695TIP3    H138644   5.446   2.961   0.054
 5695TIP3    H238645   5.544   3.020   0.154
 5696TIP3   OH238646   0.964   2.749   1.168
 5696TIP3    H138647   0.899   2.713   1.228
 5696TIP3    H238648   1.024   2.676   1.151
 5697TIP3   OH238649   6.503   0.112   8.464
 5697TIP3    H138650   6.511   0.175   8.536
 5697TIP3    H238651   6.415   0.125   8.430
 5698TIP3   OH238652   4.832   4.757   8.005
 5698TIP3    H138653   4.924   4.733   8.012
 5698TIP3    H238654   4.795   4.736   8.090
 5699TIP3   OH238655   1.641   1.737   1.958
 5699TIP3    H138656   1.654   1.815   1.905
 5699TIP3    H238657   1.727   1.695   1.960
 5700TIP3   OH238658   5.252   6.831   0.162
 5700TIP3    H138659   5.157   6.829   0.172
 5700TIP3    H238660   5.281   6.742   0.182
 5701TIP3   OH238661   1.624   3.842   0.618
 5701TIP3    H138662   1.529   3.843   0.606
 5701TIP3    H238663   1.647   3.749   0.619
 5702TIP3   OH238664   5.224   2.300   1.198
 5702TIP3    H138665   5.281   2.273   1.271
 5702TIP3    H238666   5.284   2.337   1.134
 5703TIP3   OH238667   4.335   2.816   7.308
 5703TIP3    H138668   4.358   2.726   7.330
 5703TIP3    H238669   4.385   2.869   7.370
 5704TIP3   OH238670   5.049   4.037   7.890
 5704TIP3    H138671   5.006   3.981   7.955
 5704TIP3    H238672   5.136   3.998   7.878
 5705TIP3   OH238673   3.491   1.384   7.716
 5705TIP3    H138674   3.447   1.417   7.638
 5705TIP3    H238675   3.531   1.301   7.688
 5706TIP3   OH238676   5.760   4.153   0.332
 5706TIP3    H138677   5.698   4.213   0.290
 5706TIP3    H238678   5.824   4.210   0.374
 5707TIP3   OH238679   4.510   2.285   8.047
 5707TIP3    H138680   4.604   2.277   8.061
 5707TIP3    H238681   4.492   2.378   8.063
 5708TIP3   OH238682   0.158   5.947   1.617
 5708TIP3    H138683   0.135   5.882   1.550
 5708TIP3    H238684   0.096   5.932   1.688
 5709TIP3   OH238685   6.037   5.934   7.237
 5709TIP3    H138686   6.042   5.915   7.331
 5709TIP3    H238687   5.947   5.913   7.214
 5710TIP3   OH238688   2.161   3.640   0.869
 5710TIP3    H138689   2.075   3.681   0.879
 5710TIP3    H238690   2.144   3.546   0.869
 5711TIP3   OH238691   3.287   3.662   7.463
 5711TIP3    H138692   3.327   3.725   7.523
 5711TIP3    H238693   3.284   3.708   7.379
 5712TIP3   OH238694   4.937   5.471   7.835
 5712TIP3    H138695   4.843   5.475   7.819
 5712TIP3    H238696   4.971   5.553   7.799
 5713TIP3   OH238697   1.465   3.598   7.433
 5713TIP3    H138698   1.467   3.504   7.450
 5713TIP3    H238699   1.417   3.634   7.508
 5714TIP3   OH238700   0.734   2.041   0.917
 5714TIP3    H138701   0.735   2.126   0.872
 5714TIP3    H238702   0.824   2.030   0.947
 5715TIP3   OH238703   3.979   0.370   8.591
 5715TIP3    H138704   3.915   0.344   0.033
 5715TIP3    H238705   3.952   0.324   8.512
 5716TIP3   OH238706   3.186   4.471   1.409
 5716TIP3    H138707   3.100   4.507   1.428
 5716TIP3    H238708   3.237   4.546   1.379
 5717TIP3   OH238709   6.686   2.854   0.235
 5717TIP3    H138710   6.747   2.780   0.231
 5717TIP3    H238711   6.738   2.930   0.209
 5718TIP3   OH238712   1.555   3.762   1.102
 5718TIP3    H138713   1.565   3.709   1.023
 5718TIP3    H238714   1.615   3.835   1.089
 5719TIP3   OH238715   4.891   5.390   7.082
 5719TIP3    H138716   4.915   5.469   7.132
 5719TIP3    H238717   4.932   5.318   7.130
 5720TIP3   OH238718   3.728   1.487   7.091
 5720TIP3    H138719   3.811   1.479   7.138
 5720TIP3    H238720   3.745   1.446   7.007
 5721TIP3   OH238721   6.208   6.403   2.193
 5721TIP3    H138722   6.233   6.359   2.274
 5721TIP3    H238723   6.234   6.494   2.205
 5722TIP3   OH238724   5.418   6.588   7.052
 5722TIP3    H138725   5.392   6.583   7.144
 5722TIP3    H238726   5.350   6.540   7.005
 5723TIP3   OH238727   2.261   3.995   0.535
 5723TIP3    H138728   2.169   3.979   0.557
 5723TIP3    H238729   2.302   4.013   0.619
 5724TIP3   OH238730   3.025   1.916   0.531
 5724TIP3    H138731   3.097   1.974   0.553
 5724TIP3    H238732   2.998   1.943   0.443
 5725TIP3   OH238733   1.990   6.509   1.239
 5725TIP3    H138734   1.915   6.477   1.289
 5725TIP3    H238735   2.030   6.575   1.295
 5726TIP3   OH238736   4.392   5.302   0.443
 5726TIP3    H138737   4.310   5.274   0.484
 5726TIP3    H238738   4.450   5.319   0.517
 5727TIP3   OH238739   5.465   5.383   8.243
 5727TIP3    H138740   5.478   5.342   8.157
 5727TIP3    H238741   5.405   5.324   8.288
 5728TIP3   OH238742   5.063   2.125   8.535
 5728TIP3    H138743   5.154   2.102   8.517
 5728TIP3    H238744   5.058   2.132   0.007
 5729TIP3   OH238745   0.662   4.634   7.141
 5729TIP3    H138746   0.622   4.691   7.076
 5729TIP3    H238747   0.753   4.626   7.114
 5730TIP3   OH238748   2.606   5.388   1.017
 5730TIP3    H138749   2.673   5.435   1.067
 5730TIP3    H238750   2.656   5.333   0.957
 5731TIP3   OH238751   3.258   1.370   0.750
 5731TIP3    H138752   3.273   1.464   0.755
 5731TIP3    H238753   3.315   1.340   0.680
 5732TIP3   OH238754   3.314   0.239   8.263
 5732TIP3    H138755   3.358   0.286   8.334
 5732TIP3    H238756   3.242   0.193   8.306
 5733TIP3   OH238757   5.629   5.345   7.486
 5733TIP3    H138758   5.617   5.356   7.580
 5733TIP3    H238759   5.620   5.433   7.450
 5734TIP3   OH238760   6.708   1.753   8.171
 5734TIP3    H138761   6.785   1.811   8.172
 5734TIP3    H238762   6.744   1.667   8.151
 5735TIP3   OH238763   6.448   4.606   1.052
 5735TIP3    H138764   6.536   4.635   1.029
 5735TIP3    H238765   6.410   4.680   1.098
 5736TIP3   OH238766   4.690   1.872   2.033
 5736TIP3    H138767   4.692   1.813   1.958
 5736TIP3    H238768   4.707   1.816   2.108
 5737TIP3   OH238769   0.332   4.713   0.721
 5737TIP3    H138770   0.247   4.671   0.705
 5737TIP3    H238771   0.333   4.789   0.662
 5738TIP3   OH238772   2.268   3.848   8.482
 5738TIP3    H138773   2.351   3.806   8.459
 5738TIP3    H238774   2.268   3.848   8.578
 5739TIP3   OH238775   5.779   0.454   6.885
 5739TIP3    H138776   5.766   0.502   6.967
 5739TIP3    H238777   5.738   0.510   6.818
 5740TIP3   OH238778   0.259   6.868   6.907
 5740TIP3    H138779   0.245   0.044   6.830
 5740TIP3    H238780   0.171   6.856   6.944
 5741TIP3   OH238781   4.119   4.564   6.658
 5741TIP3    H138782   4.076   4.636   6.704
 5741TIP3    H238783   4.081   4.566   6.570
 5742TIP3   OH238784   6.239   3.093   1.617
 5742TIP3    H138785   6.221   3.059   1.529
 5742TIP3    H238786   6.200   3.180   1.617
 5743TIP3   OH238787   0.521   6.835   1.285
 5743TIP3    H138788   0.523   6.772   1.357
 5743TIP3    H238789   0.443   6.812   1.235
 5744TIP3   OH238790   4.741   6.256   1.398
 5744TIP3    H138791   4.818   6.261   1.342
 5744TIP3    H238792   4.709   6.346   1.404
 5745TIP3   OH238793   0.235   5.346   8.073
 5745TIP3    H138794   0.188   5.302   8.002
 5745TIP3    H238795   0.232   5.283   8.146
 5746TIP3   OH238796   2.431   1.855   6.945
 5746TIP3    H138797   2.493   1.924   6.919
 5746TIP3    H238798   2.368   1.851   6.873
 5747TIP3   OH238799   2.416   3.437   7.895
 5747TIP3    H138800   2.441   3.521   7.933
 5747TIP3    H238801   2.320   3.435   7.902
 5748TIP3   OH238802   0.846   0.079   0.141
 5748TIP3    H138803   0.852   0.165   0.183
 5748TIP3    H238804   0.798   0.025   0.204
 5749TIP3   OH238805   4.301   2.364   1.571
 5749TIP3    H138806   4.284   2.410   1.488
 5749TIP3    H238807   4.288   2.271   1.550
 5750TIP3   OH238808   1.038   5.850   0.022
 5750TIP3    H138809   0.988   5.915   0.071
 5750TIP3    H238810   1.013   5.865   8.554
 5751TIP3   OH238811   0.642   6.270   1.917
 5751TIP3    H138812   0.736   6.288   1.908
 5751TIP3    H238813   0.636   6.213   1.994
 5752TIP3   OH238814   4.067   3.887   1.654
 5752TIP3    H138815   4.094   3.975   1.677
 5752TIP3    H238816   3.980   3.877   1.693
 5753TIP3   OH238817   3.770   2.852   1.535
 5753TIP3    H138818   3.679   2.840   1.508
 5753TIP3    H238819   3.768   2.851   1.630
 5754TIP3   OH238820   1.314   4.106   0.078
 5754TIP3    H138821   1.330   4.135   8.612
 5754TIP3    H238822   1.219   4.094   0.082
 5755TIP3   OH238823   4.107   0.564   1.166
 5755TIP3    H138824   4.122   0.658   1.162
 5755TIP3    H238825   4.012   0.555   1.163
 5756TIP3   OH238826   2.835   2.785   1.757
 5756TIP3    H138827   2.741   2.802   1.765
 5756TIP3    H238828   2.840   2.690   1.746
 5757TIP3   OH238829   2.330   3.757   1.443
 5757TIP3    H138830   2.382   3.837   1.452
 5757TIP3    H238831   2.376   3.706   1.377
 5758TIP3   OH238832   3.795   0.739   1.466
 5758TIP3    H138833   3.715   0.689   1.451
 5758TIP3    H238834   3.843   0.733   1.384
 5759TIP3   OH238835   4.387   4.136   6.779
 5759TIP3    H138836   4.391   4.185   6.697
 5759TIP3    H238837   4.459   4.074   6.773
 5760TIP3   OH238838   6.466   5.119   6.898
 5760TIP3    H138839   6.558   5.094   6.896
 5760TIP3    H238840   6.445   5.142   6.808
 5761TIP3   OH238841   3.888   4.216   0.406
 5761TIP3    H138842   3.940   4.146   0.446
 5761TIP3    H238843   3.825   4.170   0.350
 5762TIP3   OH238844   4.173   0.672   7.705
 5762TIP3    H138845   4.109   0.725   7.752
 5762TIP3    H238846   4.147   0.581   7.722
 5763TIP3   OH238847   3.941   5.755   0.928
 5763TIP3    H138848   3.850   5.743   0.902
 5763TIP3    H238849   3.963   5.674   0.974
 5764TIP3   OH238850   4.157   0.376   1.557
 5764TIP3    H138851   4.136   0.429   1.634
 5764TIP3    H238852   4.072   0.358   1.516
 5765TIP3   OH238853   6.273   4.558   0.675
 5765TIP3    H138854   6.253   4.640   0.720
 5765TIP3    H238855   6.194   4.538   0.625
 5766TIP3   OH238856   3.540   5.306   8.484
 5766TIP3    H138857   3.601   5.243   8.445
 5766TIP3    H238858   3.463   5.253   8.507
 5767TIP3   OH238859   2.344   1.155   0.094
 5767TIP3    H138860   2.288   1.124   0.023
 5767TIP3    H238861   2.306   1.117   0.173
 5768TIP3   OH238862   0.333   2.843   8.533
 5768TIP3    H138863   0.402   2.908   8.523
 5768TIP3    H238864   0.363   2.786   8.603
 5769TIP3   OH238865   6.851   4.655   0.879
 5769TIP3    H138866   0.029   4.597   0.828
 5769TIP3    H238867   6.821   4.720   0.815
 5770TIP3   OH238868   5.367   3.945   1.238
 5770TIP3    H138869   5.371   3.946   1.143
 5770TIP3    H238870   5.357   4.037   1.263
 5771TIP3   OH238871   6.784   5.553   8.350
 5771TIP3    H138872   6.796   5.465   8.384
 5771TIP3    H238873   6.743   5.541   8.264
 5772TIP3   OH238874   4.064   4.330   1.810
 5772TIP3    H138875   3.984   4.280   1.794
 5772TIP3    H238876   4.105   4.285   1.884
 5773TIP3   OH238877   5.430   6.109   7.302
 5773TIP3    H138878   5.490   6.040   7.271
 5773TIP3    H238879   5.469   6.138   7.384
 5774TIP3   OH238880   4.612   5.508   6.180
 5774TIP3    H138881   4.530   5.554   6.160
 5774TIP3    H238882   4.657   5.564   6.242
 5775TIP3   OH238883   2.154   2.098   8.225
 5775TIP3    H138884   2.085   2.099   8.291
 5775TIP3    H238885   2.108   2.076   8.144
 5776TIP3   OH238886   6.571   0.544   7.520
 5776TIP3    H138887   6.608   0.560   7.433
 5776TIP3    H238888   6.519   0.464   7.510
 5777TIP3   OH238889   2.516   4.254   1.100
 5777TIP3    H138890   2.488   4.266   1.009
 5777TIP3    H238891   2.602   4.296   1.103
 5778TIP3   OH238892   4.293   5.408   7.012
 5778TIP3    H138893   4.284   5.470   6.940
 5778TIP3    H238894   4.324   5.460   7.086
 5779TIP3   OH238895   5.221   2.182   1.760
 5779TIP3    H138896   5.296   2.197   1.818
 5779TIP3    H238897   5.238   2.097   1.720
 5780TIP3   OH238898   0.470   5.027   1.733
 5780TIP3    H138899   0.420   5.012   1.652
 5780TIP3    H238900   0.448   5.116   1.759
 5781TIP3   OH238901   0.894   6.786   1.779
 5781TIP3    H138902   0.974   6.832   1.807
 5781TIP3    H238903   0.888   6.712   1.839
 5782TIP3   OH238904   1.506   2.895   6.482
 5782TIP3    H138905   1.427   2.842   6.490
 5782TIP3    H238906   1.557   2.873   6.561
 5783TIP3   OH238907   5.961   0.456   6.572
 5783TIP3    H138908   6.015   0.402   6.630
 5783TIP3    H238909   5.872   0.427   6.590
 5784TIP3   OH238910   5.916   1.306   7.864
 5784TIP3    H138911   5.859   1.333   7.937
 5784TIP3    H238912   5.980   1.247   7.905
 5785TIP3   OH238913   0.046   4.295   2.684
 5785TIP3    H138914   0.106   4.317   2.612
 5785TIP3    H238915   0.055   4.368   2.745
 5786TIP3   OH238916   0.125   5.150   0.665
 5786TIP3    H138917   0.170   5.227   0.701
 5786TIP3    H238918   0.139   5.082   0.731
 5787TIP3   OH238919   0.772   0.361   6.040
 5787TIP3    H138920   0.795   0.452   6.022
 5787TIP3    H238921   0.726   0.364   6.124
 5788TIP3   OH238922   1.695   1.987   8.299
 5788TIP3    H138923   1.682   2.024   8.212
 5788TIP3    H238924   1.611   2.002   8.344
 5789TIP3   OH238925   1.266   0.398   8.450
 5789TIP3    H138926   1.257   0.313   8.492
 5789TIP3    H238927   1.194   0.402   8.387
 5790TIP3   OH238928   3.992   4.968   0.390
 5790TIP3    H138929   4.051   5.025   0.341
 5790TIP3    H238930   3.912   5.020   0.401
 5791TIP3   OH238931   5.692   3.594   1.115
 5791TIP3    H138932   5.738   3.542   1.048
 5791TIP3    H238933   5.762   3.642   1.159
 5792TIP3   OH238934   0.563   2.355   1.944
 5792TIP3    H138935   0.541   2.404   2.024
 5792TIP3    H238936   0.626   2.289   1.973
 5793TIP3   OH238937   0.151   0.559   1.239
 5793TIP3    H138938   0.113   0.641   1.207
 5793TIP3    H238939   0.086   0.526   1.302
 5794TIP3   OH238940   1.404   6.495   0.670
 5794TIP3    H138941   1.340   6.564   0.656
 5794TIP3    H238942   1.476   6.516   0.610
 5795TIP3   OH238943   1.701   2.935   0.421
 5795TIP3    H138944   1.655   2.871   0.476
 5795TIP3    H238945   1.721   2.888   0.341
 5796TIP3   OH238946   6.005   3.728   0.823
 5796TIP3    H138947   6.004   3.766   0.734
 5796TIP3    H238948   5.952   3.789   0.875
 5797TIP3   OH238949   4.426   0.356   1.657
 5797TIP3    H138950   4.337   0.340   1.625
 5797TIP3    H238951   4.478   0.285   1.620
 5798TIP3   OH238952   0.192   1.769   1.022
 5798TIP3    H138953   0.144   1.732   0.948
 5798TIP3    H238954   0.240   1.695   1.059
 5799TIP3   OH238955   6.110   2.887   7.817
 5799TIP3    H138956   6.155   2.969   7.838
 5799TIP3    H238957   6.056   2.909   7.741
 5800TIP3   OH238958   4.174   6.212   1.686
 5800TIP3    H138959   4.097   6.269   1.692
 5800TIP3    H238960   4.137   6.124   1.673
 5801TIP3   OH238961   2.590   0.940   8.403
 5801TIP3    H138962   2.543   0.857   8.411
 5801TIP3    H238963   2.631   0.935   8.317
 5802TIP3   OH238964   1.682   4.001   0.853
 5802TIP3    H138965   1.619   4.031   0.919
 5802TIP3    H238966   1.637   3.931   0.806
 5803TIP3   OH238967   1.779   4.820   7.979
 5803TIP3    H138968   1.830   4.739   7.986
 5803TIP3    H238969   1.783   4.843   7.886
 5804TIP3   OH238970   2.751   2.821   7.079
 5804TIP3    H138971   2.744   2.742   7.133
 5804TIP3    H238972   2.797   2.884   7.135
 5805TIP3   OH238973   4.528   6.011   7.451
 5805TIP3    H138974   4.465   6.003   7.379
 5805TIP3    H238975   4.598   6.065   7.416
 5806TIP3   OH238976   1.568   5.612   0.542
 5806TIP3    H138977   1.473   5.612   0.540
 5806TIP3    H238978   1.594   5.580   0.455
 5807TIP3   OH238979   4.398   1.916   1.094
 5807TIP3    H138980   4.347   1.894   1.016
 5807TIP3    H238981   4.478   1.865   1.085
 5808TIP3   OH238982   2.660   3.174   0.261
 5808TIP3    H138983   2.721   3.241   0.293
 5808TIP3    H238984   2.680   3.166   0.168
 5809TIP3   OH238985   3.988   4.611   8.216
 5809TIP3    H138986   3.925   4.551   8.175
 5809TIP3    H238987   4.059   4.617   8.153
 5810TIP3   OH238988   2.163   3.978   7.779
 5810TIP3    H138989   2.132   3.957   7.691
 5810TIP3    H238990   2.135   4.069   7.793
 5811TIP3   OH238991   2.173   2.903   8.375
 5811TIP3    H138992   2.169   2.898   8.279
 5811TIP3    H238993   2.235   2.973   8.393
 5812TIP3   OH238994   4.587   0.469   7.870
 5812TIP3    H138995   4.577   0.478   7.965
 5812TIP3    H238996   4.614   0.378   7.857
 5813TIP3   OH238997   3.819   3.244   8.000
 5813TIP3    H138998   3.831   3.175   7.935
 5813TIP3    H238999   3.851   3.323   7.958
 5814TIP3   OH239000   0.285   2.491   0.003
 5814TIP3    H139001   0.277   2.558   0.071
 5814TIP3    H239002   0.368   2.446   0.023
 5815TIP3   OH239003   0.418   3.422   0.143
 5815TIP3    H139004   0.348   3.475   0.104
 5815TIP3    H239005   0.489   3.484   0.159
 5816TIP3   OH239006   6.749   1.460   0.457
 5816TIP3    H139007   6.679   1.480   0.394
 5816TIP3    H239008   6.732   1.370   0.484
 5817TIP3   OH239009   2.331   4.792   1.605
 5817TIP3    H139010   2.345   4.817   1.696
 5817TIP3    H239011   2.241   4.759   1.603
 5818TIP3   OH239012   5.656   0.622   8.478
 5818TIP3    H139013   5.629   0.714   8.470
 5818TIP3    H239014   5.744   0.626   8.515
 5819TIP3   OH239015   1.881   2.520   0.761
 5819TIP3    H139016   1.903   2.453   0.826
 5819TIP3    H239017   1.884   2.602   0.810
 5820TIP3   OH239018   4.753   3.863   1.131
 5820TIP3    H139019   4.741   3.794   1.196
 5820TIP3    H239020   4.677   3.854   1.073
 5821TIP3   OH239021   0.314   3.530   2.008
 5821TIP3    H139022   0.320   3.605   1.949
 5821TIP3    H239023   0.394   3.481   1.993
 5822TIP3   OH239024   2.565   1.722   2.151
 5822TIP3    H139025   2.657   1.716   2.128
 5822TIP3    H239026   2.552   1.815   2.171
 5823TIP3   OH239027   3.410   3.923   6.847
 5823TIP3    H139028   3.408   3.963   6.760
 5823TIP3    H239029   3.318   3.901   6.865
 5824TIP3   OH239030   2.843   3.456   7.263
 5824TIP3    H139031   2.932   3.488   7.248
 5824TIP3    H239032   2.787   3.529   7.239
 5825TIP3   OH239033   2.828   3.662   0.963
 5825TIP3    H139034   2.852   3.712   1.041
 5825TIP3    H239035   2.788   3.726   0.904
 5826TIP3   OH239036   3.640   6.036   0.400
 5826TIP3    H139037   3.667   6.112   0.451
 5826TIP3    H239038   3.565   6.067   0.349
 5827TIP3   OH239039   1.078   5.533   1.061
 5827TIP3    H139040   1.011   5.572   1.005
 5827TIP3    H239041   1.147   5.599   1.067
 5828TIP3   OH239042   5.467   6.087   1.418
 5828TIP3    H139043   5.433   6.099   1.507
 5828TIP3    H239044   5.536   6.152   1.409
 5829TIP3   OH239045   0.222   0.923   0.454
 5829TIP3    H139046   0.144   0.892   0.499
 5829TIP3    H239047   0.263   0.984   0.516
 5830TIP3   OH239048   3.739   0.017   8.170
 5830TIP3    H139049   3.712   6.870   8.258
 5830TIP3    H239050   3.702   0.105   8.158
 5831TIP3   OH239051   1.458   1.670   0.378
 5831TIP3    H139052   1.393   1.716   0.431
 5831TIP3    H239053   1.406   1.623   0.312
 5832TIP3   OH239054   1.150   0.320   6.369
 5832TIP3    H139055   1.189   0.406   6.351
 5832TIP3    H239056   1.225   0.261   6.375
 5833TIP3   OH239057   3.153   2.241   8.422
 5833TIP3    H139058   3.069   2.206   8.391
 5833TIP3    H239059   3.133   2.278   8.508
 5834TIP3   OH239060   5.222   5.051   1.409
 5834TIP3    H139061   5.205   5.121   1.471
 5834TIP3    H239062   5.139   5.004   1.402
 5835TIP3   OH239063   1.571   0.266   1.541
 5835TIP3    H139064   1.594   0.358   1.528
 5835TIP3    H239065   1.490   0.254   1.492
 5836TIP3   OH239066   5.899   4.747   7.106
 5836TIP3    H139067   5.882   4.778   7.194
 5836TIP3    H239068   5.973   4.687   7.115
 5837TIP3   OH239069   0.287   2.647   0.207
 5837TIP3    H139070   0.301   2.578   0.271
 5837TIP3    H239071   0.358   2.709   0.223
 5838TIP3   OH239072   4.160   0.236   6.257
 5838TIP3    H139073   4.185   0.322   6.292
 5838TIP3    H239074   4.215   0.224   6.180
 5839TIP3   OH239075   2.647   0.782   0.346
 5839TIP3    H139076   2.676   0.704   0.299
 5839TIP3    H239077   2.706   0.851   0.317
 5840TIP3   OH239078   1.589   6.783   6.948
 5840TIP3    H139079   1.674   6.827   6.950
 5840TIP3    H239080   1.566   6.779   6.855
 5841TIP3   OH239081   6.197   5.358   7.354
 5841TIP3    H139082   6.229   5.444   7.328
 5841TIP3    H239083   6.239   5.297   7.294
 5842TIP3   OH239084   6.749   4.327   6.742
 5842TIP3    H139085   6.824   4.269   6.758
 5842TIP3    H239086   6.785   4.399   6.690
 5843TIP3   OH239087   4.835   2.403   8.491
 5843TIP3    H139088   4.768   2.345   8.528
 5843TIP3    H239089   4.898   2.344   8.450
 5844TIP3   OH239090   2.204   6.149   8.501
 5844TIP3    H139091   2.168   6.070   8.461
 5844TIP3    H239092   2.236   6.121   8.586
 5845TIP3   OH239093   2.799   4.840   0.074
 5845TIP3    H139094   2.791   4.935   0.074
 5845TIP3    H239095   2.795   4.815   8.606
 5846TIP3   OH239096   6.672   2.406   0.684
 5846TIP3    H139097   6.585   2.414   0.724
 5846TIP3    H239098   6.719   2.485   0.711
 5847TIP3   OH239099   1.484   2.708   7.212
 5847TIP3    H139100   1.389   2.719   7.223
 5847TIP3    H239101   1.495   2.687   7.119
 5848TIP3   OH239102   4.177   4.939   8.322
 5848TIP3    H139103   4.214   5.022   8.352
 5848TIP3    H239104   4.161   4.889   8.402
 5849TIP3   OH239105   1.981   5.953   0.531
 5849TIP3    H139106   1.920   6.010   0.578
 5849TIP3    H239107   2.066   5.994   0.544
 5850TIP3   OH239108   4.066   0.629   8.543
 5850TIP3    H139109   4.042   0.541   8.570
 5850TIP3    H239110   3.999   0.655   8.480
 5851TIP3   OH239111   3.717   1.352   6.442
 5851TIP3    H139112   3.656   1.403   6.388
 5851TIP3    H239113   3.803   1.387   6.422
 5852TIP3   OH239114   6.175   5.386   6.759
 5852TIP3    H139115   6.170   5.404   6.853
 5852TIP3    H239116   6.119   5.453   6.719
 5853TIP3   OH239117   3.958   2.155   7.156
 5853TIP3    H139118   3.992   2.228   7.209
 5853TIP3    H239119   3.944   2.084   7.219
 5854TIP3   OH239120   0.324   1.801   2.202
 5854TIP3    H139121   0.252   1.816   2.264
 5854TIP3    H239122   0.334   1.706   2.199
 5855TIP3   OH239123   1.339   5.642   1.242
 5855TIP3    H139124   1.305   5.554   1.226
 5855TIP3    H239125   1.358   5.677   1.155
 5856TIP3   OH239126   2.369   4.158   7.386
 5856TIP3    H139127   2.305   4.145   7.316
 5856TIP3    H239128   2.368   4.252   7.402
 5857TIP3   OH239129   3.004   3.270   8.049
 5857TIP3    H139130   2.917   3.248   8.016
 5857TIP3    H239131   2.988   3.310   8.135
 5858TIP3   OH239132   5.330   3.840   0.244
 5858TIP3    H139133   5.331   3.788   0.324
 5858TIP3    H239134   5.396   3.799   0.188
 5859TIP3   OH239135   4.047   6.459   1.455
 5859TIP3    H139136   4.024   6.428   1.543
 5859TIP3    H239137   3.972   6.436   1.401
 5860TIP3   OH239138   1.996   2.758   0.988
 5860TIP3    H139139   2.067   2.715   1.035
 5860TIP3    H239140   1.932   2.781   1.055
 5861TIP3   OH239141   1.547   2.529   0.742
 5861TIP3    H139142   1.589   2.464   0.687
 5861TIP3    H239143   1.566   2.502   0.832
 5862TIP3   OH239144   3.958   2.250   0.155
 5862TIP3    H139145   4.023   2.180   0.160
 5862TIP3    H239146   3.999   2.316   0.099
 5863TIP3   OH239147   2.678   5.226   8.438
 5863TIP3    H139148   2.715   5.271   8.362
 5863TIP3    H239149   2.721   5.266   8.513
 5864TIP3   OH239150   3.290   4.695   6.982
 5864TIP3    H139151   3.218   4.632   6.977
 5864TIP3    H239152   3.352   4.655   7.043
 5865TIP3   OH239153   1.082   1.183   6.775
 5865TIP3    H139154   1.034   1.234   6.711
 5865TIP3    H239155   1.166   1.162   6.733
 5866TIP3   OH239156   6.088   3.369   0.978
 5866TIP3    H139157   6.095   3.458   0.943
 5866TIP3    H239158   6.152   3.366   1.049
 5867TIP3   OH239159   1.591   2.992   7.207
 5867TIP3    H139160   1.560   2.902   7.222
 5867TIP3    H239161   1.511   3.043   7.198
 5868TIP3   OH239162   0.863   5.336   0.001
 5868TIP3    H139163   0.869   5.362   8.533
 5868TIP3    H239164   0.882   5.242   8.624
 5869TIP3   OH239165   5.615   3.014   0.462
 5869TIP3    H139166   5.620   2.924   0.430
 5869TIP3    H239167   5.695   3.055   0.430
 5870TIP3   OH239168   3.943   1.547   7.935
 5870TIP3    H139169   3.946   1.630   7.983
 5870TIP3    H239170   4.010   1.556   7.867
 5871TIP3   OH239171   2.090   5.518   6.405
 5871TIP3    H139172   2.180   5.549   6.416
 5871TIP3    H239173   2.056   5.570   6.333
 5872TIP3   OH239174   4.153   2.809   1.176
 5872TIP3    H139175   4.211   2.796   1.250
 5872TIP3    H239176   4.157   2.903   1.158
 5873TIP3   OH239177   5.679   3.106   1.548
 5873TIP3    H139178   5.667   3.139   1.637
 5873TIP3    H239179   5.700   3.183   1.496
 5874TIP3   OH239180   6.324   4.230   1.070
 5874TIP3    H139181   6.274   4.304   1.104
 5874TIP3    H239182   6.323   4.242   0.975
 5875TIP3   OH239183   5.254   2.990   0.763
 5875TIP3    H139184   5.262   2.904   0.720
 5875TIP3    H239185   5.343   3.011   0.790
 5876TIP3   OH239186   0.357   6.159   2.133
 5876TIP3    H139187   0.333   6.163   2.040
 5876TIP3    H239188   0.452   6.152   2.133
 5877TIP3   OH239189   1.028   1.794   2.438
 5877TIP3    H139190   0.949   1.745   2.414
 5877TIP3    H239191   1.000   1.850   2.511
 5878TIP3   OH239192   5.433   1.108   1.430
 5878TIP3    H139193   5.377   1.121   1.507
 5878TIP3    H239194   5.502   1.049   1.461
 5879TIP3   OH239195   2.045   3.637   6.606
 5879TIP3    H139196   2.050   3.576   6.680
 5879TIP3    H239197   2.045   3.580   6.529
 5880TIP3   OH239198   3.083   6.236   8.495
 5880TIP3    H139199   3.085   6.189   8.412
 5880TIP3    H239200   3.132   6.317   8.478
 5881TIP3   OH239201   3.053   5.304   1.909
 5881TIP3    H139202   3.139   5.344   1.893
 5881TIP3    H239203   3.057   5.273   1.999
 5882TIP3   OH239204   4.204   0.921   2.168
 5882TIP3    H139205   4.166   0.986   2.228
 5882TIP3    H239206   4.203   0.840   2.218
 5883TIP3   OH239207   3.938   5.044   0.936
 5883TIP3    H139208   3.982   4.967   0.971
 5883TIP3    H239209   3.856   5.010   0.900
 5884TIP3   OH239210   0.372   2.984   2.295
 5884TIP3    H139211   0.409   2.896   2.292
 5884TIP3    H239212   0.448   3.042   2.299
 5885TIP3   OH239213   1.237   3.201   6.473
 5885TIP3    H139214   1.178   3.142   6.521
 5885TIP3    H239215   1.195   3.212   6.388
 5886TIP3   OH239216   5.964   6.263   7.679
 5886TIP3    H139217   5.949   6.170   7.694
 5886TIP3    H239218   6.049   6.280   7.720
 5887TIP3   OH239219   6.757   4.232   8.296
 5887TIP3    H139220   6.665   4.259   8.300
 5887TIP3    H239221   6.773   4.190   8.381
 5888TIP3   OH239222   6.812   1.091   1.253
 5888TIP3    H139223   6.873   1.063   1.322
 5888TIP3    H239224   6.784   1.178   1.280
 5889TIP3   OH239225   0.226   3.867   8.443
 5889TIP3    H139226   0.272   3.791   8.409
 5889TIP3    H239227   0.142   3.867   8.396
 5890TIP3   OH239228   3.351   2.437   8.274
 5890TIP3    H139229   3.291   2.386   8.329
 5890TIP3    H239230   3.413   2.373   8.239
 5891TIP3   OH239231   5.279   2.391   8.584
 5891TIP3    H139232   5.220   2.406   0.034
 5891TIP3    H239233   5.221   2.364   8.513
 5892TIP3   OH239234   6.188   5.434   7.045
 5892TIP3    H139235   6.175   5.518   7.087
 5892TIP3    H239236   6.262   5.395   7.091
 5893TIP3   OH239237   5.062   2.098   1.276
 5893TIP3    H139238   5.031   2.115   1.364
 5893TIP3    H239239   5.125   2.169   1.259
 5894TIP3   OH239240   1.333   4.324   0.542
 5894TIP3    H139241   1.316   4.247   0.598
 5894TIP3    H239242   1.313   4.294   0.454
 5895TIP3   OH239243   3.710   6.821   7.676
 5895TIP3    H139244   3.692   6.734   7.642
 5895TIP3    H239245   3.624   6.864   7.679
 5896TIP3   OH239246   0.683   4.650   1.815
 5896TIP3    H139247   0.618   4.663   1.746
 5896TIP3    H239248   0.633   4.661   1.896
 5897TIP3   OH239249   5.842   6.690   0.121
 5897TIP3    H139250   5.763   6.740   0.100
 5897TIP3    H239251   5.828   6.605   0.080
 5898TIP3   OH239252   1.124   6.543   8.528
 5898TIP3    H139253   1.180   6.477   8.488
 5898TIP3    H239254   1.096   6.599   8.456
 5899TIP3   OH239255   2.050   6.313   8.237
 5899TIP3    H139256   2.057   6.337   8.330
 5899TIP3    H239257   2.139   6.321   8.203
 5900TIP3   OH239258   1.676   6.275   7.380
 5900TIP3    H139259   1.718   6.274   7.294
 5900TIP3    H239260   1.584   6.258   7.362
 5901TIP3   OH239261   5.635   6.823   7.765
 5901TIP3    H139262   5.550   6.788   7.738
 5901TIP3    H239263   5.646   6.795   7.856
 5902TIP3   OH239264   5.492   4.172   1.586
 5902TIP3    H139265   5.490   4.180   1.682
 5902TIP3    H239266   5.400   4.183   1.560
 5903TIP3   OH239267   3.390   3.682   1.488
 5903TIP3    H139268   3.329   3.739   1.535
 5903TIP3    H239269   3.344   3.660   1.407
 5904TIP3   OH239270   4.924   0.726   1.828
 5904TIP3    H139271   4.935   0.815   1.861
 5904TIP3    H239272   4.901   0.737   1.736
 5905TIP3   OH239273   4.142   6.189   0.411
 5905TIP3    H139274   4.167   6.191   0.319
 5905TIP3    H239275   4.209   6.241   0.455
 5906TIP3   OH239276   3.883   6.686   8.103
 5906TIP3    H139277   3.899   6.684   8.009
 5906TIP3    H239278   3.826   6.762   8.116
 5907TIP3   OH239279   2.672   1.650   7.135
 5907TIP3    H139280   2.698   1.559   7.146
 5907TIP3    H239281   2.718   1.697   7.204
 5908TIP3   OH239282   6.617   4.886   1.411
 5908TIP3    H139283   6.581   4.901   1.498
 5908TIP3    H239284   6.653   4.971   1.385
 5909TIP3   OH239285   6.216   0.915   7.864
 5909TIP3    H139286   6.264   0.906   7.781
 5909TIP3    H239287   6.171   0.832   7.875
 5910TIP3   OH239288   3.212   4.695   0.813
 5910TIP3    H139289   3.260   4.720   0.892
 5910TIP3    H239290   3.273   4.714   0.741
 5911TIP3   OH239291   5.666   6.047   2.481
 5911TIP3    H139292   5.740   6.039   2.541
 5911TIP3    H239293   5.705   6.053   2.394
 5912TIP3   OH239294   0.393   5.354   1.748
 5912TIP3    H139295   0.474   5.384   1.708
 5912TIP3    H239296   0.406   5.368   1.842
 5913TIP3   OH239297   2.209   5.854   8.528
 5913TIP3    H139298   2.217   5.832   8.621
 5913TIP3    H239299   2.234   5.773   8.483
 5914TIP3   OH239300   1.039   3.312   0.494
 5914TIP3    H139301   1.058   3.219   0.477
 5914TIP3    H239302   1.017   3.348   0.408
 5915TIP3   OH239303   0.326   5.090   8.414
 5915TIP3    H139304   0.401   5.150   8.411
 5915TIP3    H239305   0.358   5.014   8.464
 5916TIP3   OH239306   4.017   0.217   1.766
 5916TIP3    H139307   4.101   0.185   1.736
 5916TIP3    H239308   4.036   0.304   1.802
 5917TIP3   OH239309   4.041   3.258   8.577
 5917TIP3    H139310   4.029   3.336   0.008
 5917TIP3    H239311   4.136   3.248   8.571
 5918TIP3   OH239312   4.318   1.320   0.124
 5918TIP3    H139313   4.289   1.228   0.130
 5918TIP3    H239314   4.333   1.346   0.215
 5919TIP3   OH239315   1.220   3.778   8.030
 5919TIP3    H139316   1.168   3.730   7.965
 5919TIP3    H239317   1.297   3.806   7.982
 5920TIP3   OH239318   2.166   1.289   1.913
 5920TIP3    H139319   2.082   1.242   1.913
 5920TIP3    H239320   2.214   1.254   1.988
 5921TIP3   OH239321   0.044   6.532   8.183
 5921TIP3    H139322   0.077   6.588   8.113
 5921TIP3    H239323   0.079   6.445   8.162
 5922TIP3   OH239324   3.444   5.626   0.505
 5922TIP3    H139325   3.370   5.573   0.476
 5922TIP3    H239326   3.521   5.576   0.478
 5923TIP3   OH239327   5.678   3.330   1.738
 5923TIP3    H139328   5.753   3.388   1.727
 5923TIP3    H239329   5.625   3.372   1.806
 5924TIP3   OH239330   1.519   0.486   6.887
 5924TIP3    H139331   1.502   0.394   6.865
 5924TIP3    H239332   1.612   0.488   6.909
 5925TIP3   OH239333   2.988   1.491   2.206
 5925TIP3    H139334   3.032   1.462   2.125
 5925TIP3    H239335   3.051   1.472   2.275
 5926TIP3   OH239336   5.577   1.249   2.237
 5926TIP3    H139337   5.589   1.285   2.325
 5926TIP3    H239338   5.506   1.301   2.199
 5927TIP3   OH239339   1.946   5.153   7.950
 5927TIP3    H139340   1.950   5.138   7.855
 5927TIP3    H239341   1.970   5.245   7.960
 5928TIP3   OH239342   1.233   4.953   7.806
 5928TIP3    H139343   1.193   4.915   7.728
 5928TIP3    H239344   1.326   4.932   7.796
 5929TIP3   OH239345   2.970   1.084   6.944
 5929TIP3    H139346   2.991   1.112   6.855
 5929TIP3    H239347   2.899   1.142   6.970
 5930TIP3   OH239348   1.161   3.650   6.224
 5930TIP3    H139349   1.227   3.705   6.183
 5930TIP3    H239350   1.212   3.592   6.282
 5931TIP3   OH239351   1.322   6.586   0.107
 5931TIP3    H139352   1.281   6.607   0.191
 5931TIP3    H239353   1.253   6.598   0.042
 5932TIP3   OH239354   2.177   4.132   8.463
 5932TIP3    H139355   2.226   4.054   8.436
 5932TIP3    H239356   2.171   4.125   8.558
 5933TIP3   OH239357   4.601   3.893   7.563
 5933TIP3    H139358   4.693   3.913   7.545
 5933TIP3    H239359   4.599   3.875   7.657
 5934TIP3   OH239360   3.221   6.100   1.595
 5934TIP3    H139361   3.167   6.154   1.652
 5934TIP3    H239362   3.311   6.127   1.615
 5935TIP3   OH239363   0.632   1.325   7.217
 5935TIP3    H139364   0.650   1.399   7.274
 5935TIP3    H239365   0.629   1.363   7.129
 5936TIP3   OH239366   2.071   4.427   8.503
 5936TIP3    H139367   2.084   4.334   8.484
 5936TIP3    H239368   2.002   4.429   8.569
 5937TIP3   OH239369   2.141   4.087   1.887
 5937TIP3    H139370   2.093   4.081   1.970
 5937TIP3    H239371   2.203   4.158   1.901
 5938TIP3   OH239372   1.190   3.235   6.200
 5938TIP3    H139373   1.276   3.198   6.218
 5938TIP3    H239374   1.204   3.297   6.128
 5939TIP3   OH239375   4.748   3.646   0.666
 5939TIP3    H139376   4.656   3.672   0.661
 5939TIP3    H239377   4.782   3.692   0.742
 5940TIP3   OH239378   1.943   0.360   0.853
 5940TIP3    H139379   1.850   0.383   0.856
 5940TIP3    H239380   1.984   0.435   0.810
 5941TIP3   OH239381   3.413   3.320   1.966
 5941TIP3    H139382   3.436   3.269   2.044
 5941TIP3    H239383   3.497   3.342   1.926
 5942TIP3   OH239384   1.731   1.387   0.352
 5942TIP3    H139385   1.732   1.318   0.285
 5942TIP3    H239386   1.735   1.469   0.302
 5943TIP3   OH239387   0.417   3.093   0.705
 5943TIP3    H139388   0.463   3.154   0.762
 5943TIP3    H239389   0.418   3.010   0.753
 5944TIP3   OH239390   0.933   3.160   1.181
 5944TIP3    H139391   0.879   3.118   1.115
 5944TIP3    H239392   0.871   3.202   1.241
 5945TIP3   OH239393   5.605   4.734   1.200
 5945TIP3    H139394   5.564   4.736   1.286
 5945TIP3    H239395   5.699   4.742   1.217
 5946TIP3   OH239396   3.194   5.904   8.549
 5946TIP3    H139397   3.133   5.830   8.546
 5946TIP3    H239398   3.251   5.885   8.624
 5947TIP3   OH239399   0.082   5.935   7.647
 5947TIP3    H139400   0.159   5.887   7.676
 5947TIP3    H239401   0.116   6.016   7.610
 5948TIP3   OH239402   3.796   6.465   7.808
 5948TIP3    H139403   3.716   6.501   7.769
 5948TIP3    H239404   3.866   6.516   7.768
 5949TIP3   OH239405   1.413   6.487   1.394
 5949TIP3    H139406   1.466   6.494   1.473
 5949TIP3    H239407   1.367   6.571   1.388
 5950TIP3   OH239408   4.829   0.782   6.974
 5950TIP3    H139409   4.842   0.703   6.923
 5950TIP3    H239410   4.866   0.852   6.919
 5951TIP3   OH239411   5.840   1.123   8.092
 5951TIP3    H139412   5.890   1.135   8.173
 5951TIP3    H239413   5.749   1.119   8.121
 5952TIP3   OH239414   0.165   0.622   7.377
 5952TIP3    H139415   0.208   0.623   7.463
 5952TIP3    H239416   0.072   0.618   7.397
 5953TIP3   OH239417   2.410   4.116   8.231
 5953TIP3    H139418   2.468   4.093   8.304
 5953TIP3    H239419   2.349   4.179   8.268
 5954TIP3   OH239420   1.416   4.687   0.537
 5954TIP3    H139421   1.424   4.650   0.449
 5954TIP3    H239422   1.472   4.632   0.591
 5955TIP3   OH239423   5.179   4.219   8.153
 5955TIP3    H139424   5.139   4.290   8.202
 5955TIP3    H239425   5.120   4.203   8.080
 5956TIP3   OH239426   6.111   4.206   8.615
 5956TIP3    H139427   6.156   4.157   8.545
 5956TIP3    H239428   6.111   4.147   0.066
 5957TIP3   OH239429   4.110   4.014   7.696
 5957TIP3    H139430   4.093   4.061   7.615
 5957TIP3    H239431   4.181   3.954   7.675
 5958TIP3   OH239432   6.052   3.730   0.131
 5958TIP3    H139433   5.981   3.787   0.160
 5958TIP3    H239434   6.079   3.683   0.210
 5959TIP3   OH239435   3.042   3.978   0.291
 5959TIP3    H139436   3.049   4.035   0.215
 5959TIP3    H239437   2.966   4.012   0.340
 5960TIP3   OH239438   5.157   3.412   8.558
 5960TIP3    H139439   5.092   3.342   8.553
 5960TIP3    H239440   5.189   3.409   0.024
 5961TIP3   OH239441   1.964   6.868   7.661
 5961TIP3    H139442   2.041   0.009   7.714
 5961TIP3    H239443   1.895   6.850   7.725
 5962TIP3   OH239444   1.449   6.718   0.844
 5962TIP3    H139445   1.425   6.773   0.770
 5962TIP3    H239446   1.449   6.629   0.809
 5963TIP3   OH239447   6.351   0.770   0.341
 5963TIP3    H139448   6.373   0.858   0.311
 5963TIP3    H239449   6.382   0.767   0.432
 5964TIP3   OH239450   4.086   3.261   6.296
 5964TIP3    H139451   3.998   3.225   6.289
 5964TIP3    H239452   4.135   3.218   6.227
 5965TIP3   OH239453   0.810   0.908   0.746
 5965TIP3    H139454   0.797   0.854   0.824
 5965TIP3    H239455   0.801   0.847   0.673
 5966TIP3   OH239456   2.437   5.926   1.415
 5966TIP3    H139457   2.389   5.981   1.352
 5966TIP3    H239458   2.371   5.898   1.478
 5967TIP3   OH239459   0.269   3.963   0.600
 5967TIP3    H139460   0.321   3.892   0.639
 5967TIP3    H239461   0.313   4.043   0.629
 5968TIP3   OH239462   4.470   6.533   1.687
 5968TIP3    H139463   4.457   6.581   1.770
 5968TIP3    H239464   4.419   6.582   1.623
 5969TIP3   OH239465   0.643   0.413   6.872
 5969TIP3    H139466   0.700   0.366   6.811
 5969TIP3    H239467   0.703   0.467   6.923
 5970TIP3   OH239468   5.136   0.965   8.053
 5970TIP3    H139469   5.131   0.891   7.993
 5970TIP3    H239470   5.167   0.927   8.135
 5971TIP3   OH239471   2.448   0.255   7.202
 5971TIP3    H139472   2.462   0.243   7.296
 5971TIP3    H239473   2.435   0.350   7.192
 5972TIP3   OH239474   4.569   5.977   8.315
 5972TIP3    H139475   4.642   5.917   8.299
 5972TIP3    H239476   4.605   6.064   8.298
 5973TIP3   OH239477   4.724   6.374   1.682
 5973TIP3    H139478   4.744   6.452   1.630
 5973TIP3    H239479   4.631   6.357   1.665
 5974TIP3   OH239480   4.869   3.518   7.386
 5974TIP3    H139481   4.775   3.528   7.373
 5974TIP3    H239482   4.895   3.451   7.322
 5975TIP3   OH239483   1.982   6.019   7.182
 5975TIP3    H139484   2.066   5.976   7.167
 5975TIP3    H239485   1.998   6.078   7.255
 5976TIP3   OH239486   2.794   5.305   7.883
 5976TIP3    H139487   2.748   5.339   7.806
 5976TIP3    H239488   2.801   5.211   7.867
 5977TIP3   OH239489   4.163   1.000   2.616
 5977TIP3    H139490   4.121   0.996   2.702
 5977TIP3    H239491   4.102   1.049   2.561
 5978TIP3   OH239492   2.408   5.297   0.696
 5978TIP3    H139493   2.435   5.291   0.787
 5978TIP3    H239494   2.488   5.280   0.646
 5979TIP3   OH239495   2.053   3.483   8.076
 5979TIP3    H139496   1.977   3.517   8.123
 5979TIP3    H239497   2.029   3.489   7.983
 5980TIP3   OH239498   0.982   6.558   1.422
 5980TIP3    H139499   1.001   6.496   1.492
 5980TIP3    H239500   1.049   6.540   1.355
 5981TIP3   OH239501   0.027   5.351   7.308
 5981TIP3    H139502   0.047   5.376   7.218
 5981TIP3    H239503   0.040   5.431   7.359
 5982TIP3   OH239504   6.706   2.332   7.964
 5982TIP3    H139505   6.619   2.372   7.966
 5982TIP3    H239506   6.730   2.332   7.871
 5983TIP3   OH239507   4.984   5.915   1.576
 5983TIP3    H139508   5.075   5.934   1.601
 5983TIP3    H239509   4.933   5.978   1.627
 5984TIP3   OH239510   1.810   4.191   7.773
 5984TIP3    H139511   1.869   4.228   7.840
 5984TIP3    H239512   1.867   4.138   7.718
 5985TIP3   OH239513   4.661   2.711   7.482
 5985TIP3    H139514   4.617   2.652   7.544
 5985TIP3    H239515   4.672   2.659   7.403
 5986TIP3   OH239516   2.376   4.001   7.975
 5986TIP3    H139517   2.294   3.972   7.935
 5986TIP3    H239518   2.350   4.045   8.056
 5987TIP3   OH239519   5.112   6.488   2.235
 5987TIP3    H139520   5.203   6.505   2.259
 5987TIP3    H239521   5.101   6.394   2.247
 5988TIP3   OH239522   5.897   0.865   8.392
 5988TIP3    H139523   5.902   0.823   8.307
 5988TIP3    H239524   5.919   0.796   8.455
 5989TIP3   OH239525   3.173   6.722   8.190
 5989TIP3    H139526   3.243   6.785   8.203
 5989TIP3    H239527   3.189   6.685   8.104
 5990TIP3   OH239528   1.930   1.879   7.664
 5990TIP3    H139529   2.018   1.842   7.667
 5990TIP3    H239530   1.927   1.925   7.580
 5991TIP3   OH239531   3.799   1.254   7.339
 5991TIP3    H139532   3.735   1.313   7.380
 5991TIP3    H239533   3.829   1.198   7.411
 5992TIP3   OH239534   6.637   6.453   7.884
 5992TIP3    H139535   6.669   6.532   7.928
 5992TIP3    H239536   6.630   6.479   7.792
 5993TIP3   OH239537   4.494   3.886   6.764
 5993TIP3    H139538   4.578   3.844   6.746
 5993TIP3    H239539   4.428   3.823   6.735
 5994TIP3   OH239540   2.004   4.301   2.128
 5994TIP3    H139541   1.976   4.214   2.102
 5994TIP3    H239542   2.041   4.290   2.215
 5995TIP3   OH239543   0.540   0.881   0.500
 5995TIP3    H139544   0.578   0.955   0.452
 5995TIP3    H239545   0.612   0.819   0.510
 5996TIP3   OH239546   3.699   5.671   0.848
 5996TIP3    H139547   3.620   5.643   0.894
 5996TIP3    H239548   3.668   5.733   0.781
 5997TIP3   OH239549   5.001   4.064   6.993
 5997TIP3    H139550   5.022   4.007   6.918
 5997TIP3    H239551   4.919   4.105   6.969
 5998TIP3   OH239552   4.345   1.424   8.504
 5998TIP3    H139553   4.306   1.428   8.592
 5998TIP3    H239554   4.414   1.358   8.512
 5999TIP3   OH239555   6.138   5.593   1.680
 5999TIP3    H139556   6.105   5.592   1.770
 5999TIP3    H239557   6.181   5.509   1.669
 6000TIP3   OH239558   0.360   2.774   0.519
 6000TIP3    H139559   0.286   2.788   0.460
 6000TIP3    H239560   0.414   2.853   0.508
 6001TIP3   OH239561   2.907   4.583   8.454
 6001TIP3    H139562   2.977   4.595   8.518
 6001TIP3    H239563   2.936   4.634   8.378
 6002TIP3   OH239564   6.637   6.336   1.367
 6002TIP3    H139565   6.667   6.358   1.279
 6002TIP3    H239566   6.684   6.255   1.388
 6003TIP3   OH239567   0.695   4.894   7.505
 6003TIP3    H139568   0.665   4.895   7.595
 6003TIP3    H239569   0.616   4.888   7.452
 6004TIP3   OH239570   1.479   5.723   1.483
 6004TIP3    H139571   1.449   5.694   1.396
 6004TIP3    H239572   1.509   5.643   1.526
 6005TIP3   OH239573   1.407   3.668   8.194
 6005TIP3    H139574   1.406   3.750   8.243
 6005TIP3    H239575   1.325   3.668   8.144
 6006TIP3   OH239576   1.609   4.354   6.368
 6006TIP3    H139577   1.519   4.379   6.350
 6006TIP3    H239578   1.632   4.294   6.297
 6007TIP3   OH239579   0.325   6.389   0.517
 6007TIP3    H139580   0.346   6.427   0.432
 6007TIP3    H239581   0.409   6.360   0.552
 6008TIP3   OH239582   0.666   5.992   0.084
 6008TIP3    H139583   0.743   6.047   0.068
 6008TIP3    H239584   0.701   5.915   0.130
 6009TIP3   OH239585   5.018   5.622   1.732
 6009TIP3    H139586   4.978   5.706   1.709
 6009TIP3    H239587   5.045   5.634   1.824
 6010TIP3   OH239588   0.916   6.764   8.333
 6010TIP3    H139589   0.895   6.710   8.410
 6010TIP3    H239590   0.839   6.757   8.277
 6011TIP3   OH239591   4.868   1.938   0.955
 6011TIP3    H139592   4.807   1.939   0.882
 6011TIP3    H239593   4.948   1.898   0.919
 6012TIP3   OH239594   2.739   6.686   0.052
 6012TIP3    H139595   2.683   6.670   0.128
 6012TIP3    H239596   2.681   6.727   8.611
 6013TIP3   OH239597   2.661   2.522   8.052
 6013TIP3    H139598   2.602   2.577   8.104
 6013TIP3    H239599   2.682   2.575   7.976
 6014TIP3   OH239600   0.578   3.427   0.657
 6014TIP3    H139601   0.542   3.409   0.570
 6014TIP3    H239602   0.528   3.503   0.688
 6015TIP3   OH239603   1.877   2.549   7.914
 6015TIP3    H139604   1.801   2.518   7.866
 6015TIP3    H239605   1.842   2.573   8.000
 6016TIP3   OH239606   1.624   4.541   6.667
 6016TIP3    H139607   1.624   4.473   6.734
 6016TIP3    H239608   1.560   4.605   6.698
 6017TIP3   OH239609   5.532   2.988   1.058
 6017TIP3    H139610   5.488   3.069   1.081
 6017TIP3    H239611   5.539   2.990   0.963
 6018TIP3   OH239612   5.853   6.384   8.401
 6018TIP3    H139613   5.879   6.364   8.491
 6018TIP3    H239614   5.906   6.325   8.348
 6019TIP3   OH239615   3.122   4.273   8.137
 6019TIP3    H139616   3.035   4.307   8.161
 6019TIP3    H239617   3.137   4.200   8.197
 6020TIP3   OH239618   0.229   6.259   6.977
 6020TIP3    H139619   0.191   6.247   6.890
 6020TIP3    H239620   0.200   6.346   7.004
 6021TIP3   OH239621   3.483   1.620   1.616
 6021TIP3    H139622   3.480   1.630   1.521
 6021TIP3    H239623   3.392   1.632   1.644
 6022TIP3   OH239624   4.653   4.113   1.093
 6022TIP3    H139625   4.699   4.038   1.131
 6022TIP3    H239626   4.635   4.086   1.003
 6023TIP3   OH239627   3.955   2.472   6.593
 6023TIP3    H139628   4.036   2.452   6.545
 6023TIP3    H239629   3.985   2.517   6.672
 6024TIP3   OH239630   5.119   3.180   1.548
 6024TIP3    H139631   5.210   3.193   1.573
 6024TIP3    H239632   5.112   3.219   1.461
 6025TIP3   OH239633   1.443   0.166   0.608
 6025TIP3    H139634   1.539   0.166   0.608
 6025TIP3    H239635   1.419   0.103   0.540
 6026TIP3   OH239636   1.664   0.525   1.703
 6026TIP3    H139637   1.615   0.601   1.733
 6026TIP3    H239638   1.702   0.551   1.619
 6027TIP3   OH239639   5.638   2.330   6.756
 6027TIP3    H139640   5.589   2.249   6.762
 6027TIP3    H239641   5.714   2.317   6.813
 6028TIP3   OH239642   4.726   0.381   8.221
 6028TIP3    H139643   4.748   0.348   8.133
 6028TIP3    H239644   4.798   0.351   8.276
 6029TIP3   OH239645   2.509   0.781   8.141
 6029TIP3    H139646   2.499   0.765   8.047
 6029TIP3    H239647   2.564   0.709   8.171
 6030TIP3   OH239648   5.820   5.887   1.894
 6030TIP3    H139649   5.914   5.899   1.907
 6030TIP3    H239650   5.804   5.796   1.916
 6031TIP3   OH239651   1.577   6.781   1.611
 6031TIP3    H139652   1.618   6.856   1.655
 6031TIP3    H239653   1.527   6.737   1.680
 6032TIP3   OH239654   3.831   5.203   7.694
 6032TIP3    H139655   3.902   5.170   7.639
 6032TIP3    H239656   3.788   5.269   7.640
 6033TIP3   OH239657   0.682   6.784   6.790
 6033TIP3    H139658   0.693   6.717   6.722
 6033TIP3    H239659   0.616   6.749   6.849
 6034TIP3   OH239660   3.166   6.687   1.719
 6034TIP3    H139661   3.181   6.758   1.783
 6034TIP3    H239662   3.071   6.683   1.710
 6035TIP3   OH239663   1.968   1.006   8.440
 6035TIP3    H139664   1.897   0.944   8.456
 6035TIP3    H239665   1.954   1.075   8.505
 6036TIP3   OH239666   4.192   3.149   1.379
 6036TIP3    H139667   4.111   3.118   1.419
 6036TIP3    H239668   4.248   3.172   1.453
 6037TIP3   OH239669   4.344   5.925   7.261
 6037TIP3    H139670   4.418   5.897   7.207
 6037TIP3    H239671   4.276   5.949   7.197
 6038TIP3   OH239672   1.849   1.002   1.107
 6038TIP3    H139673   1.945   0.991   1.104
 6038TIP3    H239674   1.829   1.054   1.030
 6039TIP3   OH239675   4.237   4.248   7.250
 6039TIP3    H139676   4.284   4.326   7.280
 6039TIP3    H239677   4.230   4.259   7.155
 6040TIP3   OH239678   0.162   6.121   7.377
 6040TIP3    H139679   0.138   6.131   7.469
 6040TIP3    H239680   0.217   6.043   7.375
 6041TIP3   OH239681   1.436   0.436   6.104
 6041TIP3    H139682   1.409   0.344   6.115
 6041TIP3    H239683   1.519   0.432   6.058
 6042TIP3   OH239684   2.639   0.158   8.235
 6042TIP3    H139685   2.629   0.123   8.147
 6042TIP3    H239686   2.640   0.253   8.223
 6043TIP3   OH239687   1.811   4.442   6.502
 6043TIP3    H139688   1.753   4.499   6.551
 6043TIP3    H239689   1.755   4.404   6.433
 6044TIP3   OH239690   3.756   6.715   1.499
 6044TIP3    H139691   3.672   6.681   1.469
 6044TIP3    H239692   3.754   6.808   1.477
 6045TIP3   OH239693   1.958   2.794   7.650
 6045TIP3    H139694   2.022   2.738   7.607
 6045TIP3    H239695   1.962   2.877   7.602
 6046TIP3   OH239696   2.332   0.704   0.985
 6046TIP3    H139697   2.387   0.765   1.034
 6046TIP3    H239698   2.269   0.671   1.050
 6047TIP3   OH239699   3.100   4.829   6.781
 6047TIP3    H139700   3.183   4.820   6.827
 6047TIP3    H239701   3.042   4.875   6.842
 6048TIP3   OH239702   0.540   3.058   0.451
 6048TIP3    H139703   0.546   3.132   0.511
 6048TIP3    H239704   0.622   3.010   0.464
 6049TIP3   OH239705   5.010   1.515   1.543
 6049TIP3    H139706   4.979   1.496   1.632
 6049TIP3    H239707   4.935   1.496   1.487
 6050TIP3   OH239708   6.303   6.327   0.194
 6050TIP3    H139709   6.303   6.245   0.244
 6050TIP3    H239710   6.359   6.310   0.119
 6051TIP3   OH239711   6.601   4.555   0.701
 6051TIP3    H139712   6.516   4.511   0.696
 6051TIP3    H239713   6.640   4.524   0.783
 6052TIP3   OH239714   4.500   2.981   0.674
 6052TIP3    H139715   4.452   3.006   0.753
 6052TIP3    H239716   4.432   2.951   0.613
 6053TIP3   OH239717   3.345   6.090   8.417
 6053TIP3    H139718   3.322   6.069   8.327
 6053TIP3    H239719   3.288   6.034   8.470
 6054TIP3   OH239720   6.614   3.999   0.573
 6054TIP3    H139721   6.549   3.992   0.642
 6054TIP3    H239722   6.679   3.932   0.594
 6055TIP3   OH239723   1.092   0.183   0.352
 6055TIP3    H139724   0.998   0.189   0.337
 6055TIP3    H239725   1.131   0.186   0.265
 6056TIP3   OH239726   0.876   4.773   7.895
 6056TIP3    H139727   0.831   4.709   7.951
 6056TIP3    H239728   0.928   4.719   7.836
 6057TIP3   OH239729   6.207   1.129   0.813
 6057TIP3    H139730   6.118   1.106   0.842
 6057TIP3    H239731   6.215   1.222   0.834
 6058TIP3   OH239732   5.859   0.017   1.985
 6058TIP3    H139733   5.937   0.072   1.985
 6058TIP3    H239734   5.891   6.810   1.960
 6059TIP3   OH239735   4.120   6.414   7.051
 6059TIP3    H139736   4.068   6.339   7.022
 6059TIP3    H239737   4.185   6.377   7.110
 6060TIP3   OH239738   0.693   1.532   1.962
 6060TIP3    H139739   0.619   1.544   2.021
 6060TIP3    H239740   0.755   1.601   1.986
 6061TIP3   OH239741   3.500   3.388   6.791
 6061TIP3    H139742   3.471   3.391   6.700
 6061TIP3    H239743   3.450   3.458   6.834
 6062TIP3   OH239744   3.435   6.264   1.396
 6062TIP3    H139745   3.357   6.320   1.392
 6062TIP3    H239746   3.462   6.267   1.488
 6063TIP3   OH239747   5.441   3.661   7.230
 6063TIP3    H139748   5.439   3.673   7.325
 6063TIP3    H239749   5.460   3.748   7.196
 6064TIP3   OH239750   6.311   0.339   1.846
 6064TIP3    H139751   6.269   0.290   1.775
 6064TIP3    H239752   6.331   0.273   1.912
 6065TIP3   OH239753   0.721   4.574   8.427
 6065TIP3    H139754   0.684   4.624   8.354
 6065TIP3    H239755   0.814   4.566   8.405
 6066TIP3   OH239756   4.181   2.190   1.354
 6066TIP3    H139757   4.108   2.128   1.353
 6066TIP3    H239758   4.139   2.276   1.343
 6067TIP3   OH239759   1.643   3.541   7.146
 6067TIP3    H139760   1.664   3.601   7.218
 6067TIP3    H239761   1.551   3.557   7.127
 6068TIP3   OH239762   5.538   0.653   1.732
 6068TIP3    H139763   5.592   0.604   1.670
 6068TIP3    H239764   5.593   0.662   1.810
 6069TIP3   OH239765   2.223   2.315   6.110
 6069TIP3    H139766   2.266   2.232   6.131
 6069TIP3    H239767   2.277   2.382   6.152
 6070TIP3   OH239768   4.476   1.095   7.971
 6070TIP3    H139769   4.560   1.066   7.937
 6070TIP3    H239770   4.461   1.179   7.928
 6071TIP3   OH239771   0.859   1.197   0.221
 6071TIP3    H139772   0.917   1.136   0.175
 6071TIP3    H239773   0.809   1.142   0.282
 6072TIP3   OH239774   6.525   6.616   1.138
 6072TIP3    H139775   6.453   6.562   1.107
 6072TIP3    H239776   6.527   6.602   1.233
 6073TIP3   OH239777   2.031   3.765   7.917
 6073TIP3    H139778   2.072   3.782   8.002
 6073TIP3    H239779   2.067   3.833   7.859
 6074TIP3   OH239780   0.243   0.781   0.993
 6074TIP3    H139781   0.151   0.808   0.996
 6074TIP3    H239782   0.268   0.772   1.084
 6075TIP3   OH239783   6.471   5.266   7.532
 6075TIP3    H139784   6.379   5.291   7.536
 6075TIP3    H239785   6.511   5.331   7.474
 6076TIP3   OH239786   5.373   0.828   1.148
 6076TIP3    H139787   5.394   0.735   1.150
 6076TIP3    H239788   5.400   0.861   1.234
 6077TIP3   OH239789   6.681   4.993   0.335
 6077TIP3    H139790   6.724   4.912   0.362
 6077TIP3    H239791   6.633   5.022   0.412
 6078TIP3   OH239792   3.331   1.810   8.191
 6078TIP3    H139793   3.295   1.736   8.241
 6078TIP3    H239794   3.296   1.888   8.235
 6079TIP3   OH239795   2.004   2.062   7.945
 6079TIP3    H139796   1.996   2.016   7.861
 6079TIP3    H239797   1.981   1.996   8.011
 6080TIP3   OH239798   3.432   6.542   1.091
 6080TIP3    H139799   3.470   6.609   1.034
 6080TIP3    H239800   3.343   6.572   1.108
 6081TIP3   OH239801   6.399   1.964   2.090
 6081TIP3    H139802   6.438   2.003   2.012
 6081TIP3    H239803   6.342   2.032   2.126
 6082TIP3   OH239804   0.667   1.096   0.377
 6082TIP3    H139805   0.613   1.135   0.308
 6082TIP3    H239806   0.710   1.171   0.419
 6083TIP3   OH239807   3.978   0.893   0.403
 6083TIP3    H139808   3.941   0.821   0.454
 6083TIP3    H239809   3.952   0.972   0.450
 6084TIP3   OH239810   5.434   4.600   7.940
 6084TIP3    H139811   5.452   4.517   7.984
 6084TIP3    H239812   5.488   4.598   7.861
 6085TIP3   OH239813   1.383   5.908   7.732
 6085TIP3    H139814   1.465   5.864   7.757
 6085TIP3    H239815   1.402   5.949   7.648
 6086TIP3   OH239816   1.847   4.701   6.808
 6086TIP3    H139817   1.767   4.665   6.771
 6086TIP3    H239818   1.899   4.727   6.733
 6087TIP3   OH239819   6.569   0.884   0.904
 6087TIP3    H139820   6.625   0.808   0.919
 6087TIP3    H239821   6.586   0.908   0.813
 6088TIP3   OH239822   2.103   1.236   7.878
 6088TIP3    H139823   2.173   1.196   7.929
 6088TIP3    H239824   2.128   1.223   7.787
 6089TIP3   OH239825   3.654   6.217   6.692
 6089TIP3    H139826   3.640   6.306   6.661
 6089TIP3    H239827   3.749   6.211   6.707
 6090TIP3   OH239828   1.329   3.683   0.543
 6090TIP3    H139829   1.252   3.651   0.590
 6090TIP3    H239830   1.388   3.607   0.538
 6091TIP3   OH239831   5.523   5.137   8.061
 6091TIP3    H139832   5.436   5.156   8.026
 6091TIP3    H239833   5.534   5.043   8.047
 6092TIP3   OH239834   2.594   6.699   2.316
 6092TIP3    H139835   2.562   6.720   2.404
 6092TIP3    H239836   2.589   6.782   2.269
 6093TIP3   OH239837   2.611   1.962   8.449
 6093TIP3    H139838   2.599   2.047   8.406
 6093TIP3    H239839   2.538   1.955   8.510
 6094TIP3   OH239840   3.929   4.487   0.453
 6094TIP3    H139841   3.989   4.490   0.378
 6094TIP3    H239842   3.893   4.399   0.451
 6095TIP3   OH239843   1.047   1.130   7.945
 6095TIP3    H139844   1.110   1.200   7.962
 6095TIP3    H239845   1.094   1.049   7.968
 6096TIP3   OH239846   6.366   3.970   1.580
 6096TIP3    H139847   6.450   3.983   1.623
 6096TIP3    H239848   6.301   3.989   1.648
 6097TIP3   OH239849   2.176   5.532   2.083
 6097TIP3    H139850   2.128   5.528   2.001
 6097TIP3    H239851   2.187   5.440   2.109
 6098TIP3   OH239852   0.023   2.502   0.456
 6098TIP3    H139853   0.036   2.416   0.495
 6098TIP3    H239854   0.081   2.560   0.506
 6099TIP3   OH239855   1.280   3.512   6.458
 6099TIP3    H139856   1.362   3.466   6.472
 6099TIP3    H239857   1.212   3.446   6.474
 6100TIP3   OH239858   4.320   2.412   7.128
 6100TIP3    H139859   4.293   2.460   7.206
 6100TIP3    H239860   4.398   2.457   7.098
 6101TIP3   OH239861   5.801   1.349   7.180
 6101TIP3    H139862   5.761   1.423   7.226
 6101TIP3    H239863   5.736   1.325   7.113
 6102TIP3   OH239864   0.842   4.199   0.518
 6102TIP3    H139865   0.850   4.121   0.464
 6102TIP3    H239866   0.897   4.264   0.474
 6103TIP3   OH239867   1.951   6.536   6.819
 6103TIP3    H139868   1.930   6.472   6.887
 6103TIP3    H239869   1.951   6.486   6.738
 6104TIP3   OH239870   2.264   2.154   7.311
 6104TIP3    H139871   2.246   2.061   7.324
 6104TIP3    H239872   2.270   2.164   7.216
 6105TIP3   OH239873   0.862   6.847   1.324
 6105TIP3    H139874   0.898   6.807   1.244
 6105TIP3    H239875   0.826   6.773   1.373
 6106TIP3   OH239876   2.594   1.451   1.276
 6106TIP3    H139877   2.545   1.519   1.322
 6106TIP3    H239878   2.665   1.428   1.336
 6107TIP3   OH239879   2.671   0.485   8.576
 6107TIP3    H139880   2.691   0.483   8.482
 6107TIP3    H239881   2.590   0.435   8.584
 6108TIP3   OH239882   0.338   0.918   7.679
 6108TIP3    H139883   0.357   0.921   7.585
 6108TIP3    H239884   0.353   0.827   7.704
 6109TIP3   OH239885   0.046   1.917   6.911
 6109TIP3    H139886   0.035   1.986   6.976
 6109TIP3    H239887   0.115   1.949   6.853
 6110TIP3   OH239888   2.940   6.792   1.195
 6110TIP3    H139889   2.901   6.786   1.108
 6110TIP3    H239890   2.867   6.816   1.252
 6111TIP3   OH239891   1.721   0.076   1.782
 6111TIP3    H139892   1.698   0.157   1.737
 6111TIP3    H239893   1.733   0.103   1.873
 6112TIP3   OH239894   0.373   4.471   8.154
 6112TIP3    H139895   0.444   4.449   8.094
 6112TIP3    H239896   0.301   4.499   8.097
 6113TIP3   OH239897   0.368   0.610   8.168
 6113TIP3    H139898   0.459   0.629   8.145
 6113TIP3    H239899   0.374   0.543   8.236
 6114TIP3   OH239900   5.433   6.478   7.569
 6114TIP3    H139901   5.527   6.497   7.571
 6114TIP3    H239902   5.416   6.449   7.479
 6115TIP3   OH239903   2.921   1.073   8.358
 6115TIP3    H139904   2.865   1.131   8.410
 6115TIP3    H239905   2.935   1.120   8.276
 6116TIP3   OH239906   4.410   0.276   8.087
 6116TIP3    H139907   4.368   0.262   8.003
 6116TIP3    H239908   4.479   0.209   8.091
 6117TIP3   OH239909   1.581   1.047   0.341
 6117TIP3    H139910   1.577   0.951   0.336
 6117TIP3    H239911   1.640   1.072   0.270
 6118TIP3   OH239912   1.159   5.738   1.638
 6118TIP3    H139913   1.152   5.678   1.713
 6118TIP3    H239914   1.243   5.715   1.597
 6119TIP3   OH239915   4.486   0.776   1.281
 6119TIP3    H139916   4.549   0.717   1.240
 6119TIP3    H239917   4.421   0.719   1.321
 6120TIP3   OH239918   5.498   1.923   7.884
 6120TIP3    H139919   5.594   1.912   7.882
 6120TIP3    H239920   5.470   1.891   7.798
 6121TIP3   OH239921   0.642   2.243   7.150
 6121TIP3    H139922   0.662   2.188   7.073
 6121TIP3    H239923   0.547   2.246   7.153
 6122TIP3   OH239924   1.382   2.517   1.231
 6122TIP3    H139925   1.415   2.567   1.306
 6122TIP3    H239926   1.426   2.555   1.155
 6123TIP3   OH239927   2.932   3.106   2.571
 6123TIP3    H139928   2.914   3.014   2.591
 6123TIP3    H239929   2.912   3.114   2.478
 6124TIP3   OH239930   3.298   0.379   7.331
 6124TIP3    H139931   3.368   0.432   7.292
 6124TIP3    H239932   3.343   0.303   7.367
 6125TIP3   OH239933   4.335   6.080   6.520
 6125TIP3    H139934   4.252   6.125   6.534
 6125TIP3    H239935   4.397   6.126   6.577
 6126TIP3   OH239936   2.948   5.740   8.516
 6126TIP3    H139937   2.939   5.745   8.421
 6126TIP3    H239938   2.976   5.649   8.532
 6127TIP3   OH239939   3.403   4.746   7.981
 6127TIP3    H139940   3.451   4.780   7.906
 6127TIP3    H239941   3.429   4.654   7.987
 6128TIP3   OH239942   5.239   2.613   2.495
 6128TIP3    H139943   5.146   2.602   2.472
 6128TIP3    H239944   5.237   2.658   2.579
 6129TIP3   OH239945   4.187   2.787   7.615
 6129TIP3    H139946   4.093   2.773   7.618
 6129TIP3    H239947   4.197   2.883   7.613
 6130TIP3   OH239948   5.926   4.757   1.026
 6130TIP3    H139949   5.982   4.707   0.967
 6130TIP3    H239950   5.903   4.835   0.976
 6131TIP3   OH239951   3.425   3.290   0.130
 6131TIP3    H139952   3.483   3.217   0.152
 6131TIP3    H239953   3.431   3.349   0.205
 6132TIP3   OH239954   5.103   5.916   1.229
 6132TIP3    H139955   5.176   5.971   1.199
 6132TIP3    H239956   5.128   5.888   1.316
 6133TIP3   OH239957   6.555   3.538   0.622
 6133TIP3    H139958   6.576   3.575   0.536
 6133TIP3    H239959   6.633   3.554   0.675
 6134TIP3   OH239960   1.027   2.001   0.364
 6134TIP3    H139961   1.043   2.017   0.456
 6134TIP3    H239962   0.932   2.004   0.355
 6135TIP3   OH239963   3.398   2.616   6.824
 6135TIP3    H139964   3.332   2.570   6.875
 6135TIP3    H239965   3.375   2.599   6.733
 6136TIP3   OH239966   1.266   5.333   7.018
 6136TIP3    H139967   1.337   5.320   7.080
 6136TIP3    H239968   1.303   5.389   6.950
 6137TIP3   OH239969   3.161   2.453   0.721
 6137TIP3    H139970   3.121   2.500   0.648
 6137TIP3    H239971   3.140   2.506   0.798
 6138TIP3   OH239972   5.532   2.159   7.112
 6138TIP3    H139973   5.570   2.071   7.110
 6138TIP3    H239974   5.523   2.183   7.020
 6139TIP3   OH239975   3.680   5.600   7.255
 6139TIP3    H139976   3.660   5.635   7.168
 6139TIP3    H239977   3.648   5.667   7.316
 6140TIP3   OH239978   2.955   3.935   2.344
 6140TIP3    H139979   2.991   3.868   2.402
 6140TIP3    H239980   2.935   3.888   2.263
 6141TIP3   OH239981   5.719   2.439   1.474
 6141TIP3    H139982   5.697   2.423   1.383
 6141TIP3    H239983   5.701   2.533   1.487
 6142TIP3   OH239984   6.398   6.468   7.145
 6142TIP3    H139985   6.351   6.409   7.204
 6142TIP3    H239986   6.490   6.441   7.153
 6143TIP3   OH239987   4.802   4.670   1.344
 6143TIP3    H139988   4.793   4.648   1.437
 6143TIP3    H239989   4.796   4.766   1.342
 6144TIP3   OH239990   4.625   3.098   0.019
 6144TIP3    H139991   4.662   3.015   8.615
 6144TIP3    H239992   4.648   3.160   8.573
 6145TIP3   OH239993   3.787   6.084   1.758
 6145TIP3    H139994   3.731   6.035   1.698
 6145TIP3    H239995   3.869   6.035   1.760
 6146TIP3   OH239996   1.607   6.840   8.097
 6146TIP3    H139997   1.540   0.015   8.055
 6146TIP3    H239998   1.643   0.016   8.166
 6147TIP3   OH239999   4.059   2.251   0.548
 6147TIP3    H140000   4.154   2.247   0.536
 6147TIP3    H240001   4.044   2.211   0.633
 6148TIP3   OH240002   6.227   0.339   7.735
 6148TIP3    H140003   6.191   0.261   7.777
 6148TIP3    H240004   6.150   0.393   7.715
 6149TIP3   OH240005   3.247   2.753   7.479
 6149TIP3    H140006   3.289   2.685   7.531
 6149TIP3    H240007   3.199   2.705   7.412
 6150TIP3   OH240008   3.131   5.751   0.325
 6150TIP3    H140009   3.095   5.728   0.239
 6150TIP3    H240010   3.149   5.666   0.367
 6151TIP3   OH240011   2.511   2.031   0.657
 6151TIP3    H140012   2.494   2.067   0.743
 6151TIP3    H240013   2.580   1.965   0.671
 6152TIP3   OH240014   6.225   4.787   0.792
 6152TIP3    H140015   6.151   4.809   0.735
 6152TIP3    H240016   6.229   4.859   0.855
 6153TIP3   OH240017   0.279   2.542   0.658
 6153TIP3    H140018   0.190   2.526   0.692
 6153TIP3    H240019   0.280   2.636   0.639
 6154TIP3   OH240020   6.805   3.658   1.775
 6154TIP3    H140021   6.809   3.700   1.689
 6154TIP3    H240022   6.713   3.634   1.786
 6155TIP3   OH240023   5.358   3.032   0.359
 6155TIP3    H140024   5.350   2.941   0.387
 6155TIP3    H240025   5.443   3.060   0.392
 6156TIP3   OH240026   1.155   0.803   6.877
 6156TIP3    H140027   1.073   0.779   6.833
 6156TIP3    H240028   1.131   0.874   6.936
 6157TIP3   OH240029   1.969   1.231   0.455
 6157TIP3    H140030   1.924   1.151   0.430
 6157TIP3    H240031   1.988   1.219   0.548
 6158TIP3   OH240032   2.011   3.600   8.454
 6158TIP3    H140033   2.092   3.561   8.423
 6158TIP3    H240034   2.038   3.658   8.526
 6159TIP3   OH240035   0.205   3.724   1.180
 6159TIP3    H140036   0.157   3.783   1.123
 6159TIP3    H240037   0.272   3.779   1.220
 6160TIP3   OH240038   4.204   6.491   1.855
 6160TIP3    H140039   4.238   6.557   1.915
 6160TIP3    H240040   4.121   6.463   1.896
 6161TIP3   OH240041   5.483   5.230   7.240
 6161TIP3    H140042   5.408   5.170   7.242
 6161TIP3    H240043   5.516   5.231   7.329
 6162TIP3   OH240044   1.624   1.357   1.896
 6162TIP3    H140045   1.604   1.268   1.869
 6162TIP3    H240046   1.623   1.354   1.992
 6163TIP3   OH240047   3.736   0.785   2.842
 6163TIP3    H140048   3.668   0.847   2.815
 6163TIP3    H240049   3.707   0.701   2.807
 6164TIP3   OH240050   5.159   6.383   0.013
 6164TIP3    H140051   5.170   6.409   0.104
 6164TIP3    H240052   5.066   6.360   0.005
 6165TIP3   OH240053   2.365   3.770   7.651
 6165TIP3    H140054   2.336   3.763   7.742
 6165TIP3    H240055   2.451   3.728   7.649
 6166TIP3   OH240056   5.095   4.836   8.471
 6166TIP3    H140057   5.164   4.855   8.534
 6166TIP3    H240058   5.084   4.741   8.476
 6167TIP3   OH240059   4.221   3.747   6.647
 6167TIP3    H140060   4.158   3.698   6.700
 6167TIP3    H240061   4.303   3.698   6.656
 6168TIP3   OH240062   3.865   1.438   0.711
 6168TIP3    H140063   3.957   1.437   0.685
 6168TIP3    H240064   3.838   1.529   0.702
 6169TIP3   OH240065   5.906   2.282   2.533
 6169TIP3    H140066   5.922   2.370   2.500
 6169TIP3    H240067   5.831   2.292   2.592
 6170TIP3   OH240068   4.468   6.803   8.211
 6170TIP3    H140069   4.518   6.815   8.130
 6170TIP3    H240070   4.385   6.766   8.183
 6171TIP3   OH240071   1.144   4.643   0.329
 6171TIP3    H140072   1.078   4.576   0.346
 6171TIP3    H240073   1.216   4.622   0.390
 6172TIP3   OH240074   0.543   4.904   7.741
 6172TIP3    H140075   0.472   4.870   7.685
 6172TIP3    H240076   0.498   4.932   7.821
 6173TIP3   OH240077   0.623   1.650   0.203
 6173TIP3    H140078   0.701   1.660   0.258
 6173TIP3    H240079   0.559   1.709   0.242
 6174TIP3   OH240080   5.032   1.585   6.803
 6174TIP3    H140081   5.074   1.669   6.784
 6174TIP3    H240082   4.984   1.564   6.723
 6175TIP3   OH240083   2.962   4.876   7.645
 6175TIP3    H140084   2.989   4.793   7.607
 6175TIP3    H240085   3.042   4.928   7.649
 6176TIP3   OH240086   4.322   2.273   0.609
 6176TIP3    H140087   4.366   2.358   0.606
 6176TIP3    H240088   4.356   2.231   0.688
 6177TIP3   OH240089   5.588   0.924   2.784
 6177TIP3    H140090   5.614   0.887   2.868
 6177TIP3    H240091   5.495   0.901   2.775
 6178TIP3   OH240092   0.212   3.595   1.499
 6178TIP3    H140093   0.147   3.527   1.517
 6178TIP3    H240094   0.274   3.554   1.440
 6179TIP3   OH240095   5.217   3.617   8.391
 6179TIP3    H140096   5.178   3.601   8.305
 6179TIP3    H240097   5.192   3.541   8.443
 6180TIP3   OH240098   1.731   6.761   6.667
 6180TIP3    H140099   1.719   6.677   6.711
 6180TIP3    H240100   1.642   6.794   6.654
 6181TIP3   OH240101   6.063   6.645   0.295
 6181TIP3    H140102   6.097   6.610   0.212
 6181TIP3    H240103   5.991   6.703   0.268
 6182TIP3   OH240104   1.178   3.337   8.047
 6182TIP3    H140105   1.205   3.379   7.965
 6182TIP3    H240106   1.159   3.247   8.022
 6183TIP3   OH240107   5.595   2.469   7.835
 6183TIP3    H140108   5.664   2.421   7.788
 6183TIP3    H240109   5.514   2.440   7.793
 6184TIP3   OH240110   5.223   4.516   7.215
 6184TIP3    H140111   5.240   4.485   7.126
 6184TIP3    H240112   5.143   4.568   7.207
 6185TIP3   OH240113   2.785   3.305   8.411
 6185TIP3    H140114   2.815   3.365   8.479
 6185TIP3    H240115   2.734   3.239   8.458
 6186TIP3   OH240116   5.200   6.815   7.285
 6186TIP3    H140117   5.106   6.798   7.289
 6186TIP3    H240118   5.206   0.025   7.250
 6187TIP3   OH240119   3.734   6.518   2.195
 6187TIP3    H140120   3.734   6.523   2.100
 6187TIP3    H240121   3.824   6.537   2.220
 6188TIP3   OH240122   4.863   1.120   2.744
 6188TIP3    H140123   4.930   1.188   2.754
 6188TIP3    H240124   4.781   1.164   2.768
 6189TIP3   OH240125   5.109   2.575   1.841
 6189TIP3    H140126   5.177   2.629   1.882
 6189TIP3    H240127   5.027   2.613   1.872
 6190TIP3   OH240128   0.806   0.494   8.352
 6190TIP3    H140129   0.762   0.423   8.397
 6190TIP3    H240130   0.739   0.561   8.339
 6191TIP3   OH240131   4.260   1.085   1.904
 6191TIP3    H140132   4.175   1.111   1.869
 6191TIP3    H240133   4.247   0.996   1.935
 6192TIP3   OH240134   4.453   1.739   1.436
 6192TIP3    H140135   4.471   1.682   1.361
 6192TIP3    H240136   4.424   1.822   1.396
 6193TIP3   OH240137   6.116   4.616   7.862
 6193TIP3    H140138   6.075   4.682   7.917
 6193TIP3    H240139   6.150   4.551   7.924
 6194TIP3   OH240140   2.181   6.703   6.989
 6194TIP3    H140141   2.171   6.718   6.895
 6194TIP3    H240142   2.105   6.651   7.014
 6195TIP3   OH240143   4.606   4.862   0.400
 6195TIP3    H140144   4.669   4.844   0.331
 6195TIP3    H240145   4.628   4.802   0.471
 6196TIP3   OH240146   6.495   5.302   1.391
 6196TIP3    H140147   6.487   5.277   1.299
 6196TIP3    H240148   6.432   5.374   1.402
 6197TIP3   OH240149   0.046   6.432   7.568
 6197TIP3    H140150   0.059   6.519   7.606
 6197TIP3    H240151   6.844   6.401   7.606
 6198TIP3   OH240152   4.619   2.252   8.609
 6198TIP3    H140153   4.620   2.289   0.074
 6198TIP3    H240154   4.581   2.165   8.621
 6199TIP3   OH240155   5.599   4.953   7.709
 6199TIP3    H140156   5.530   4.904   7.664
 6199TIP3    H240157   5.639   5.007   7.641
 6200TIP3   OH240158   5.281   5.483   7.607
 6200TIP3    H140159   5.259   5.528   7.688
 6200TIP3    H240160   5.318   5.399   7.636
 6201TIP3   OH240161   6.724   5.264   1.543
 6201TIP3    H140162   6.689   5.298   1.626
 6201TIP3    H240163   6.652   5.274   1.481
 6202TIP3   OH240164   3.735   1.810   2.201
 6202TIP3    H140165   3.703   1.892   2.239
 6202TIP3    H240166   3.770   1.762   2.276
 6203TIP3   OH240167   5.286   2.937   8.582
 6203TIP3    H140168   5.239   2.871   0.010
 6203TIP3    H240169   5.244   3.020   8.605
 6204TIP3   OH240170   2.385   1.552   2.022
 6204TIP3    H140171   2.327   1.504   2.081
 6204TIP3    H240172   2.465   1.565   2.072
 6205TIP3   OH240173   1.801   6.146   8.194
 6205TIP3    H140174   1.880   6.180   8.237
 6205TIP3    H240175   1.771   6.219   8.139
 6206TIP3   OH240176   4.592   2.222   7.739
 6206TIP3    H140177   4.562   2.260   7.822
 6206TIP3    H240178   4.684   2.201   7.754
 6207TIP3   OH240179   5.829   2.365   0.937
 6207TIP3    H140180   5.777   2.397   1.010
 6207TIP3    H240181   5.832   2.438   0.875
 6208TIP3   OH240182   6.310   4.819   2.718
 6208TIP3    H140183   6.317   4.889   2.653
 6208TIP3    H240184   6.218   4.792   2.714
 6209TIP3   OH240185   6.870   3.907   2.244
 6209TIP3    H140186   6.833   3.996   2.251
 6209TIP3    H240187   6.793   3.850   2.239
 6210TIP3   OH240188   1.890   4.939   0.302
 6210TIP3    H140189   1.814   4.887   0.277
 6210TIP3    H240190   1.966   4.885   0.277
 6211TIP3   OH240191   3.608   5.491   2.172
 6211TIP3    H140192   3.660   5.415   2.144
 6211TIP3    H240193   3.525   5.481   2.125
 6212TIP3   OH240194   0.567   5.216   8.377
 6212TIP3    H140195   0.656   5.193   8.350
 6212TIP3    H240196   0.566   5.312   8.375
 6213TIP3   OH240197   6.456   0.134   0.551
 6213TIP3    H140198   6.380   0.123   0.494
 6213TIP3    H240199   6.494   0.218   0.525
 6214TIP3   OH240200   3.306   0.528   1.382
 6214TIP3    H140201   3.280   0.620   1.392
 6214TIP3    H240202   3.241   0.492   1.322
 6215TIP3   OH240203   4.498   1.028   1.067
 6215TIP3    H140204   4.437   0.959   1.043
 6215TIP3    H240205   4.506   1.082   0.988
 6216TIP3   OH240206   0.417   3.525   1.313
 6216TIP3    H140207   0.366   3.570   1.246
 6216TIP3    H240208   0.486   3.479   1.264
 6217TIP3   OH240209   2.185   5.350   0.503
 6217TIP3    H140210   2.255   5.330   0.566
 6217TIP3    H240211   2.144   5.430   0.537
 6218TIP3   OH240212   5.374   1.547   0.336
 6218TIP3    H140213   5.340   1.542   0.426
 6218TIP3    H240214   5.306   1.593   0.288
 6219TIP3   OH240215   6.150   0.872   0.003
 6219TIP3    H140216   6.106   0.827   0.075
 6219TIP3    H240217   6.133   0.965   0.018
 6220TIP3   OH240218   2.305   5.769   6.599
 6220TIP3    H140219   2.239   5.833   6.572
 6220TIP3    H240220   2.261   5.717   6.667
 6221TIP3   OH240221   3.584   2.724   8.369
 6221TIP3    H140222   3.535   2.796   8.329
 6221TIP3    H240223   3.519   2.656   8.385
 6222TIP3   OH240224   0.210   2.830   6.948
 6222TIP3    H140225   0.131   2.879   6.972
 6222TIP3    H240226   0.185   2.780   6.871
 6223TIP3   OH240227   5.307   6.597   0.580
 6223TIP3    H140228   5.352   6.659   0.638
 6223TIP3    H240229   5.377   6.554   0.531
 6224TIP3   OH240230   0.781   4.534   8.018
 6224TIP3    H140231   0.708   4.554   8.077
 6224TIP3    H240232   0.763   4.445   7.987
 6225TIP3   OH240233   4.945   3.121   0.512
 6225TIP3    H140234   5.006   3.195   0.506
 6225TIP3    H240235   4.873   3.153   0.566
 6226TIP3   OH240236   2.611   1.079   1.283
 6226TIP3    H140237   2.610   0.988   1.313
 6226TIP3    H240238   2.549   1.124   1.341
 6227TIP3   OH240239   2.670   4.862   7.744
 6227TIP3    H140240   2.750   4.814   7.764
 6227TIP3    H240241   2.600   4.804   7.772
 6228TIP3   OH240242   0.960   6.621   7.747
 6228TIP3    H140243   0.954   6.555   7.679
 6228TIP3    H240244   0.952   6.705   7.700
 6229TIP3   OH240245   5.197   6.012   0.539
 6229TIP3    H140246   5.117   5.974   0.575
 6229TIP3    H240247   5.168   6.062   0.463
 6230TIP3   OH240248   3.413   1.779   7.377
 6230TIP3    H140249   3.478   1.709   7.389
 6230TIP3    H240250   3.418   1.831   7.457
 6231TIP3   OH240251   1.318   3.114   7.737
 6231TIP3    H140252   1.254   3.050   7.768
 6231TIP3    H240253   1.401   3.082   7.772
 6232TIP3   OH240254   5.278   4.050   0.941
 6232TIP3    H140255   5.189   4.079   0.962
 6232TIP3    H240256   5.334   4.102   0.998
 6233TIP3   OH240257   6.043   3.469   2.244
 6233TIP3    H140258   5.978   3.538   2.257
 6233TIP3    H240259   6.114   3.511   2.195
 6234TIP3   OH240260   1.134   2.124   1.294
 6234TIP3    H140261   1.084   2.155   1.219
 6234TIP3    H240262   1.218   2.095   1.257
 6235TIP3   OH240263   4.839   3.627   8.290
 6235TIP3    H140264   4.903   3.675   8.238
 6235TIP3    H240265   4.870   3.537   8.289
 6236TIP3   OH240266   4.666   0.183   0.298
 6236TIP3    H140267   4.596   0.245   0.319
 6236TIP3    H240268   4.734   0.202   0.362
 6237TIP3   OH240269   1.529   0.511   1.350
 6237TIP3    H140270   1.536   0.468   1.264
 6237TIP3    H240271   1.613   0.556   1.361
 6238TIP3   OH240272   4.449   3.354   0.156
 6238TIP3    H140273   4.494   3.282   0.200
 6238TIP3    H240274   4.491   3.360   0.070
 6239TIP3   OH240275   2.877   0.423   6.437
 6239TIP3    H140276   2.967   0.395   6.453
 6239TIP3    H240277   2.883   0.519   6.431
 6240TIP3   OH240278   0.710   3.219   0.992
 6240TIP3    H140279   0.633   3.220   0.935
 6240TIP3    H240280   0.783   3.201   0.933
 6241TIP3   OH240281   3.565   0.423   7.922
 6241TIP3    H140282   3.639   0.379   7.881
 6241TIP3    H240283   3.490   0.398   7.869
 6242TIP3   OH240284   0.783   3.493   0.291
 6242TIP3    H140285   0.846   3.509   0.221
 6242TIP3    H240286   0.706   3.545   0.267
 6243TIP3   OH240287   2.067   1.148   1.623
 6243TIP3    H140288   1.978   1.175   1.645
 6243TIP3    H240289   2.095   1.094   1.697
 6244TIP3   OH240290   5.027   4.998   6.983
 6244TIP3    H140291   4.957   4.972   6.924
 6244TIP3    H240292   5.105   4.999   6.928
 6245TIP3   OH240293   1.424   3.359   1.712
 6245TIP3    H140294   1.424   3.403   1.798
 6245TIP3    H240295   1.465   3.423   1.653
 6246TIP3   OH240296   2.920   4.621   6.690
 6246TIP3    H140297   2.958   4.603   6.604
 6246TIP3    H240298   2.970   4.696   6.722
 6247TIP3   OH240299   6.065   5.719   8.036
 6247TIP3    H140300   6.034   5.683   7.952
 6247TIP3    H240301   6.121   5.793   8.011
 6248TIP3   OH240302   1.629   0.877   1.445
 6248TIP3    H140303   1.666   0.905   1.528
 6248TIP3    H240304   1.650   0.949   1.384
 6249TIP3   OH240305   2.134   0.784   6.468
 6249TIP3    H140306   2.061   0.732   6.435
 6249TIP3    H240307   2.133   0.864   6.416
 6250TIP3   OH240308   3.737   1.143   7.083
 6250TIP3    H140309   3.754   1.172   7.172
 6250TIP3    H240310   3.784   1.205   7.027
 6251TIP3   OH240311   5.330   6.062   1.178
 6251TIP3    H140312   5.411   6.078   1.130
 6251TIP3    H240313   5.354   6.070   1.270
 6252TIP3   OH240314   5.173   2.873   7.523
 6252TIP3    H140315   5.115   2.851   7.595
 6252TIP3    H240316   5.224   2.947   7.555
 6253TIP3   OH240317   0.548   0.225   1.395
 6253TIP3    H140318   0.550   0.156   1.328
 6253TIP3    H240319   0.488   0.291   1.360
 6254TIP3   OH240320   3.032   3.528   0.684
 6254TIP3    H140321   3.113   3.476   0.676
 6254TIP3    H240322   2.986   3.488   0.758
 6255TIP3   OH240323   2.681   0.041   1.258
 6255TIP3    H140324   2.614   0.039   1.326
 6255TIP3    H240325   2.633   0.036   1.176
 6256TIP3   OH240326   4.021   4.056   8.351
 6256TIP3    H140327   4.107   4.066   8.392
 6256TIP3    H240328   4.015   4.130   8.290
 6257TIP3   OH240329   4.779   3.068   7.300
 6257TIP3    H140330   4.787   3.121   7.221
 6257TIP3    H240331   4.862   3.022   7.307
 6258TIP3   OH240332   0.724   4.433   0.247
 6258TIP3    H140333   0.710   4.340   0.229
 6258TIP3    H240334   0.656   4.478   0.196
 6259TIP3   OH240335   2.346   2.636   7.926
 6259TIP3    H140336   2.401   2.702   7.885
 6259TIP3    H240337   2.347   2.562   7.865
 6260TIP3   OH240338   1.664   6.493   6.752
 6260TIP3    H140339   1.642   6.401   6.769
 6260TIP3    H240340   1.755   6.490   6.722
 6261TIP3   OH240341   4.004   6.422   0.694
 6261TIP3    H140342   3.947   6.439   0.768
 6261TIP3    H240343   3.970   6.478   0.624
 6262TIP3   OH240344   0.537   3.700   0.952
 6262TIP3    H140345   0.534   3.796   0.957
 6262TIP3    H240346   0.567   3.672   1.038
 6263TIP3   OH240347   4.118   1.946   8.187
 6263TIP3    H140348   4.027   1.973   8.174
 6263TIP3    H240349   4.132   1.953   8.282
 6264TIP3   OH240350   0.298   4.573   6.303
 6264TIP3    H140351   0.368   4.612   6.251
 6264TIP3    H240352   0.233   4.642   6.310
 6265TIP3   OH240353   2.900   2.521   0.993
 6265TIP3    H140354   2.996   2.530   0.988
 6265TIP3    H240355   2.868   2.576   0.921
 6266TIP3   OH240356   0.521   4.307   1.142
 6266TIP3    H140357   0.479   4.355   1.070
 6266TIP3    H240358   0.448   4.275   1.195
 6267TIP3   OH240359   3.575   0.563   6.552
 6267TIP3    H140360   3.636   0.627   6.516
 6267TIP3    H240361   3.491   0.609   6.555
 6268TIP3   OH240362   2.607   6.409   7.283
 6268TIP3    H140363   2.585   6.485   7.230
 6268TIP3    H240364   2.670   6.443   7.347
 6269TIP3   OH240365   5.760   6.828   2.698
 6269TIP3    H140366   5.667   6.853   2.691
 6269TIP3    H240367   5.807   0.031   2.698
 6270TIP3   OH240368   4.224   2.083   7.012
 6270TIP3    H140369   4.145   2.044   7.049
 6270TIP3    H240370   4.225   2.052   6.921
 6271TIP3   OH240371   0.875   1.768   0.689
 6271TIP3    H140372   0.784   1.796   0.685
 6271TIP3    H240373   0.925   1.849   0.694
 6272TIP3   OH240374   5.442   2.659   0.120
 6272TIP3    H140375   5.358   2.700   0.139
 6272TIP3    H240376   5.459   2.679   0.028
 6273TIP3   OH240377   0.997   4.569   2.349
 6273TIP3    H140378   0.958   4.481   2.347
 6273TIP3    H240379   0.932   4.623   2.394
 6274TIP3   OH240380   0.391   1.958   1.133
 6274TIP3    H140381   0.351   2.039   1.162
 6274TIP3    H240382   0.324   1.891   1.148
 6275TIP3   OH240383   2.805   2.512   1.740
 6275TIP3    H140384   2.885   2.458   1.742
 6275TIP3    H240385   2.736   2.455   1.772
 6276TIP3   OH240386   1.550   3.069   0.696
 6276TIP3    H140387   1.467   3.070   0.744
 6276TIP3    H240388   1.528   3.101   0.608
 6277TIP3   OH240389   4.246   2.410   7.909
 6277TIP3    H140390   4.316   2.457   7.953
 6277TIP3    H240391   4.189   2.380   7.980
 6278TIP3   OH240392   5.082   4.314   7.765
 6278TIP3    H140393   5.063   4.240   7.824
 6278TIP3    H240394   5.095   4.274   7.679
 6279TIP3   OH240395   1.778   1.693   7.814
 6279TIP3    H140396   1.816   1.779   7.797
 6279TIP3    H240397   1.852   1.633   7.808
 6280TIP3   OH240398   5.523   1.598   0.842
 6280TIP3    H140399   5.593   1.587   0.778
 6280TIP3    H240400   5.531   1.522   0.900
 6281TIP3   OH240401   1.776   4.875   2.105
 6281TIP3    H140402   1.736   4.800   2.062
 6281TIP3    H240403   1.701   4.928   2.135
 6282TIP3   OH240404   4.440   2.483   0.140
 6282TIP3    H140405   4.401   2.396   0.142
 6282TIP3    H240406   4.369   2.542   0.165
 6283TIP3   OH240407   2.774   3.705   0.071
 6283TIP3    H140408   2.826   3.785   0.062
 6283TIP3    H240409   2.710   3.727   0.139
 6284TIP3   OH240410   6.344   5.494   8.209
 6284TIP3    H140411   6.306   5.580   8.226
 6284TIP3    H240412   6.393   5.506   8.128
 6285TIP3   OH240413   1.892   2.827   0.747
 6285TIP3    H140414   1.911   2.829   0.841
 6285TIP3    H240415   1.978   2.817   0.706
 6286TIP3   OH240416   0.723   4.583   7.476
 6286TIP3    H140417   0.753   4.519   7.540
 6286TIP3    H240418   0.791   4.651   7.476
 6287TIP3   OH240419   6.744   6.104   1.441
 6287TIP3    H140420   6.757   6.042   1.513
 6287TIP3    H240421   6.759   6.052   1.362
 6288TIP3   OH240422   0.023   1.816   1.607
 6288TIP3    H140423   0.011   1.899   1.560
 6288TIP3    H240424   6.858   1.829   1.690
 6289TIP3   OH240425   5.250   2.582   7.621
 6289TIP3    H140426   5.156   2.567   7.607
 6289TIP3    H240427   5.260   2.583   7.716
 6290TIP3   OH240428   6.538   5.806   8.149
 6290TIP3    H140429   6.618   5.858   8.145
 6290TIP3    H240430   6.568   5.717   8.129
 6291TIP3   OH240431   3.233   1.467   1.325
 6291TIP3    H140432   3.282   1.549   1.337
 6291TIP3    H240433   3.148   1.494   1.291
 6292TIP3   OH240434   0.952   1.430   2.112
 6292TIP3    H140435   1.027   1.414   2.054
 6292TIP3    H240436   0.878   1.390   2.068
 6293TIP3   OH240437   5.832   6.495   6.415
 6293TIP3    H140438   5.867   6.406   6.412
 6293TIP3    H240439   5.757   6.493   6.355
 6294TIP3   OH240440   4.849   5.054   7.572
 6294TIP3    H140441   4.778   5.000   7.605
 6294TIP3    H240442   4.806   5.130   7.532
 6295TIP3   OH240443   2.717   0.838   7.420
 6295TIP3    H140444   2.684   0.753   7.392
 6295TIP3    H240445   2.687   0.848   7.510
 6296TIP3   OH240446   0.001   4.517   6.602
 6296TIP3    H140447   0.058   4.474   6.538
 6296TIP3    H240448   0.059   4.536   6.676
 6297TIP3   OH240449   5.267   4.622   8.167
 6297TIP3    H140450   5.333   4.661   8.223
 6297TIP3    H240451   5.317   4.580   8.096
 6298TIP3   OH240452   4.327   1.419   1.822
 6298TIP3    H140453   4.269   1.363   1.771
 6298TIP3    H240454   4.313   1.392   1.913
 6299TIP3   OH240455   3.536   1.269   0.694
 6299TIP3    H140456   3.617   1.296   0.651
 6299TIP3    H240457   3.510   1.345   0.746
 6300TIP3   OH240458   0.996   2.988   8.144
 6300TIP3    H140459   1.034   2.904   8.122
 6300TIP3    H240460   0.971   2.980   8.236
 6301TIP3   OH240461   5.317   1.087   8.433
 6301TIP3    H140462   5.391   1.075   8.374
 6301TIP3    H240463   5.257   1.144   8.384
 6302TIP3   OH240464   5.255   1.851   1.865
 6302TIP3    H140465   5.195   1.777   1.850
 6302TIP3    H240466   5.285   1.840   1.955
 6303TIP3   OH240467   0.407   0.658   7.864
 6303TIP3    H140468   0.468   0.722   7.901
 6303TIP3    H240469   0.338   0.649   7.930
 6304TIP3   OH240470   1.129   4.000   0.984
 6304TIP3    H140471   1.132   3.930   0.919
 6304TIP3    H240472   1.054   4.054   0.958
 6305TIP3   OH240473   2.751   0.584   1.244
 6305TIP3    H140474   2.675   0.589   1.186
 6305TIP3    H240475   2.821   0.630   1.197
 6306TIP3   OH240476   1.102   5.050   1.298
 6306TIP3    H140477   1.167   5.023   1.233
 6306TIP3    H240478   1.128   5.138   1.324
 6307TIP3   OH240479   4.157   1.927   7.261
 6307TIP3    H140480   4.189   1.865   7.327
 6307TIP3    H240481   4.062   1.922   7.268
 6308TIP3   OH240482   0.092   6.387   1.012
 6308TIP3    H140483   0.133   6.435   0.939
 6308TIP3    H240484   0.079   6.298   0.977
 6309TIP3   OH240485   2.452   6.631   0.130
 6309TIP3    H140486   2.366   6.601   0.160
 6309TIP3    H240487   2.473   6.572   0.057
 6310TIP3   OH240488   3.645   5.756   7.764
 6310TIP3    H140489   3.649   5.840   7.808
 6310TIP3    H240490   3.617   5.694   7.831
 6311TIP3   OH240491   5.761   2.749   7.310
 6311TIP3    H140492   5.762   2.811   7.237
 6311TIP3    H240493   5.830   2.687   7.290
 6312TIP3   OH240494   6.050   6.256   2.025
 6312TIP3    H140495   6.087   6.299   1.949
 6312TIP3    H240496   6.098   6.292   2.100
 6313TIP3   OH240497   3.003   6.586   7.149
 6313TIP3    H140498   2.964   6.602   7.063
 6313TIP3    H240499   2.953   6.640   7.209
 6314TIP3   OH240500   5.656   1.990   1.318
 6314TIP3    H140501   5.585   1.970   1.257
 6314TIP3    H240502   5.612   2.012   1.400
 6315TIP3   OH240503   3.710   3.930   7.768
 6315TIP3    H140504   3.740   4.013   7.805
 6315TIP3    H240505   3.649   3.896   7.834
 6316TIP3   OH240506   3.003   3.842   0.659
 6316TIP3    H140507   3.049   3.761   0.683
 6316TIP3    H240508   3.010   3.897   0.737
 6317TIP3   OH240509   3.842   5.487   0.011
 6317TIP3    H140510   3.902   5.459   8.565
 6317TIP3    H240511   3.814   5.575   8.607
 6318TIP3   OH240512   2.836   1.636   0.842
 6318TIP3    H140513   2.824   1.627   0.937
 6318TIP3    H240514   2.820   1.728   0.825
 6319TIP3   OH240515   3.167   6.378   6.322
 6319TIP3    H140516   3.111   6.305   6.351
 6319TIP3    H240517   3.256   6.343   6.327
 6320TIP3   OH240518   6.020   1.436   0.123
 6320TIP3    H140519   5.943   1.493   0.115
 6320TIP3    H240520   6.085   1.491   0.168
 6321TIP3   OH240521   0.490   0.905   7.025
 6321TIP3    H140522   0.521   0.847   7.094
 6321TIP3    H240523   0.395   0.905   7.034
 6322TIP3   OH240524   1.645   3.421   1.434
 6322TIP3    H140525   1.551   3.410   1.417
 6322TIP3    H240526   1.673   3.483   1.367
 6323TIP3   OH240527   6.092   1.833   8.275
 6323TIP3    H140528   6.031   1.877   8.216
 6323TIP3    H240529   6.174   1.881   8.265
 6324TIP3   OH240530   4.183   0.824   1.186
 6324TIP3    H140531   4.182   0.919   1.199
 6324TIP3    H240532   4.256   0.809   1.127
 6325TIP3   OH240533   1.240   3.448   2.170
 6325TIP3    H140534   1.245   3.538   2.203
 6325TIP3    H240535   1.176   3.406   2.227
 6326TIP3   OH240536   2.353   5.015   8.553
 6326TIP3    H140537   2.368   5.013   8.458
 6326TIP3    H240538   2.368   5.107   8.577
 6327TIP3   OH240539   1.495   6.827   1.337
 6327TIP3    H140540   1.448   0.030   1.343
 6327TIP3    H240541   1.519   6.806   1.427
 6328TIP3   OH240542   6.518   0.337   8.615
 6328TIP3    H140543   6.493   0.380   8.534
 6328TIP3    H240544   6.593   0.386   0.023
 6329TIP3   OH240545   6.692   0.724   6.898
 6329TIP3    H140546   6.641   0.653   6.860
 6329TIP3    H240547   6.782   0.706   6.871
 6330TIP3   OH240548   3.346   4.843   6.230
 6330TIP3    H140549   3.418   4.787   6.261
 6330TIP3    H240550   3.285   4.783   6.189
 6331TIP3   OH240551   5.371   1.832   2.160
 6331TIP3    H140552   5.444   1.818   2.220
 6331TIP3    H240553   5.315   1.756   2.172
 6332TIP3   OH240554   3.171   0.401   6.457
 6332TIP3    H140555   3.258   0.362   6.462
 6332TIP3    H240556   3.172   0.453   6.377
 6333TIP3   OH240557   1.544   2.275   6.913
 6333TIP3    H140558   1.619   2.314   6.869
 6333TIP3    H240559   1.468   2.315   6.872
 6334TIP3   OH240560   4.656   0.831   7.881
 6334TIP3    H140561   4.741   0.793   7.860
 6334TIP3    H240562   4.593   0.776   7.833
 6335TIP3   OH240563   1.915   1.413   2.149
 6335TIP3    H140564   1.968   1.333   2.141
 6335TIP3    H240565   1.829   1.381   2.176
 6336TIP3   OH240566   5.804   2.785   0.604
 6336TIP3    H140567   5.879   2.838   0.632
 6336TIP3    H240568   5.814   2.777   0.509
 6337TIP3   OH240569   3.371   2.034   2.211
 6337TIP3    H140570   3.291   2.087   2.210
 6337TIP3    H240571   3.442   2.098   2.211
 6338TIP3   OH240572   4.755   6.838   1.820
 6338TIP3    H140573   4.800   0.021   1.877
 6338TIP3    H240574   4.747   6.759   1.872
 6339TIP3   OH240575   3.699   1.898   0.512
 6339TIP3    H140576   3.694   1.823   0.453
 6339TIP3    H240577   3.754   1.961   0.466
 6340TIP3   OH240578   6.151   3.496   7.651
 6340TIP3    H140579   6.089   3.428   7.677
 6340TIP3    H240580   6.095   3.569   7.622
 6341TIP3   OH240581   6.703   4.610   1.467
 6341TIP3    H140582   6.622   4.568   1.438
 6341TIP3    H240583   6.703   4.695   1.422
 6342TIP3   OH240584   6.421   1.652   0.727
 6342TIP3    H140585   6.453   1.720   0.667
 6342TIP3    H240586   6.438   1.687   0.814
 6343TIP3   OH240587   1.765   5.441   1.581
 6343TIP3    H140588   1.795   5.384   1.652
 6343TIP3    H240589   1.769   5.386   1.503
 6344TIP3   OH240590   4.761   1.880   8.437
 6344TIP3    H140591   4.679   1.910   8.399
 6344TIP3    H240592   4.785   1.804   8.383
 6345TIP3   OH240593   4.537   0.087   1.687
 6345TIP3    H140594   4.588   0.033   1.748
 6345TIP3    H240595   4.447   0.060   1.700
 6346TIP3   OH240596   4.131   5.539   7.491
 6346TIP3    H140597   4.188   5.582   7.554
 6346TIP3    H240598   4.130   5.599   7.415
 6347TIP3   OH240599   5.304   6.647   7.925
 6347TIP3    H140600   5.237   6.693   7.976
 6347TIP3    H240601   5.267   6.559   7.912
 6348TIP3   OH240602   5.312   0.000   8.399
 6348TIP3    H140603   5.287   0.081   8.445
 6348TIP3    H240604   5.266   6.810   8.447
 6349TIP3   OH240605   2.021   3.469   0.202
 6349TIP3    H140606   2.013   3.554   0.247
 6349TIP3    H240607   2.026   3.405   0.273
 6350TIP3   OH240608   1.805   2.350   8.226
 6350TIP3    H140609   1.891   2.374   8.260
 6350TIP3    H240610   1.756   2.432   8.226
 6351TIP3   OH240611   3.424   5.987   8.103
 6351TIP3    H140612   3.396   5.896   8.106
 6351TIP3    H240613   3.470   5.995   8.019
 6352TIP3   OH240614   6.589   1.137   8.496
 6352TIP3    H140615   6.526   1.198   8.457
 6352TIP3    H240616   6.539   1.092   8.564
 6353TIP3   OH240617   0.058   1.650   0.526
 6353TIP3    H140618   6.869   1.586   0.505
 6353TIP3    H240619   0.072   1.698   0.445
 6354TIP3   OH240620   0.630   2.773   1.270
 6354TIP3    H140621   0.683   2.847   1.299
 6354TIP3    H240622   0.675   2.696   1.305
 6355TIP3   OH240623   5.696   6.456   0.046
 6355TIP3    H140624   5.644   6.489   8.597
 6355TIP3    H240625   5.651   6.376   0.074
 6356TIP3   OH240626   4.293   0.627   7.980
 6356TIP3    H140627   4.372   0.635   8.034
 6356TIP3    H240628   4.266   0.717   7.964
 6357TIP3   OH240629   0.883   0.843   7.106
 6357TIP3    H140630   0.962   0.789   7.105
 6357TIP3    H240631   0.896   0.902   7.181
 6358TIP3   OH240632   0.817   4.279   0.809
 6358TIP3    H140633   0.858   4.194   0.825
 6358TIP3    H240634   0.817   4.288   0.713
 6359TIP3   OH240635   3.372   3.481   5.952
 6359TIP3    H140636   3.467   3.466   5.951
 6359TIP3    H240637   3.338   3.411   6.007
 6360TIP3   OH240638   2.617   4.667   8.467
 6360TIP3    H140639   2.602   4.755   8.433
 6360TIP3    H240640   2.710   4.651   8.451
 6361TIP3   OH240641   1.471   1.114   1.035
 6361TIP3    H140642   1.416   1.106   0.958
 6361TIP3    H240643   1.550   1.158   1.004
 6362TIP3   OH240644   0.315   5.388   0.673
 6362TIP3    H140645   0.391   5.343   0.636
 6362TIP3    H240646   0.344   5.415   0.761
 6363TIP3   OH240647   2.131   4.244   7.818
 6363TIP3    H140648   2.145   4.303   7.891
 6363TIP3    H240649   2.196   4.270   7.753
 6364TIP3   OH240650   6.649   0.401   1.979
 6364TIP3    H140651   6.607   0.487   1.987
 6364TIP3    H240652   6.596   0.344   2.034
 6365TIP3   OH240653   1.347   6.824   7.727
 6365TIP3    H140654   1.339   6.829   7.632
 6365TIP3    H240655   1.423   6.768   7.741
 6366TIP3   OH240656   1.946   4.608   8.018
 6366TIP3    H140657   2.017   4.641   8.072
 6366TIP3    H240658   1.912   4.532   8.066
 6367TIP3   OH240659   0.497   2.772   7.442
 6367TIP3    H140660   0.441   2.836   7.398
 6367TIP3    H240661   0.451   2.689   7.432
 6368TIP3   OH240662   5.004   0.941   7.284
 6368TIP3    H140663   4.990   0.975   7.196
 6368TIP3    H240664   4.953   0.859   7.287
 6369TIP3   OH240665   3.094   4.362   8.417
 6369TIP3    H140666   3.167   4.410   8.377
 6369TIP3    H240667   3.031   4.429   8.442
 6370TIP3   OH240668   3.840   5.172   7.117
 6370TIP3    H140669   3.823   5.095   7.171
 6370TIP3    H240670   3.771   5.233   7.141
 6371TIP3   OH240671   4.369   2.403   1.101
 6371TIP3    H140672   4.464   2.401   1.104
 6371TIP3    H240673   4.345   2.331   1.043
 6372TIP3   OH240674   1.023   0.607   8.546
 6372TIP3    H140675   1.100   0.572   8.500
 6372TIP3    H240676   0.950   0.589   8.486
 6373TIP3   OH240677   2.776   5.105   0.149
 6373TIP3    H140678   2.690   5.146   0.154
 6373TIP3    H240679   2.829   5.166   0.098
 6374TIP3   OH240680   5.944   0.127   1.229
 6374TIP3    H140681   5.993   0.203   1.259
 6374TIP3    H240682   5.896   0.158   1.152
 6375TIP3   OH240683   4.151   5.285   7.620
 6375TIP3    H140684   4.151   5.366   7.569
 6375TIP3    H240685   4.079   5.233   7.583
 6376TIP3   OH240686   1.367   6.061   0.219
 6376TIP3    H140687   1.323   6.129   0.271
 6376TIP3    H240688   1.424   6.017   0.281
 6377TIP3   OH240689   3.387   3.474   1.686
 6377TIP3    H140690   3.426   3.472   1.773
 6377TIP3    H240691   3.433   3.544   1.640
 6378TIP3   OH240692   0.806   0.297   6.692
 6378TIP3    H140693   0.858   0.328   6.617
 6378TIP3    H240694   0.770   0.213   6.662
 6379TIP3   OH240695   6.337   6.599   6.833
 6379TIP3    H140696   6.425   6.594   6.794
 6379TIP3    H240697   6.282   6.545   6.776
 6380TIP3   OH240698   0.148   4.598   8.565
 6380TIP3    H140699   0.082   4.529   8.555
 6380TIP3    H240700   0.225   4.564   8.521
 6381TIP3   OH240701   1.147   4.397   1.825
 6381TIP3    H140702   1.106   4.368   1.906
 6381TIP3    H240703   1.078   4.446   1.780
 6382TIP3   OH240704   4.642   0.550   1.724
 6382TIP3    H140705   4.558   0.507   1.705
 6382TIP3    H240706   4.628   0.592   1.809
 6383TIP3   OH240707   3.084   0.664   7.147
 6383TIP3    H140708   3.130   0.589   7.108
 6383TIP3    H240709   3.020   0.625   7.206
 6384TIP3   OH240710   4.336   2.804   7.947
 6384TIP3    H140711   4.392   2.759   7.884
 6384TIP3    H240712   4.254   2.755   7.945
 6385TIP3   OH240713   4.268   5.013   7.991
 6385TIP3    H140714   4.252   5.096   7.947
 6385TIP3    H240715   4.349   4.981   7.952
 6386TIP3   OH240716   0.731   0.073   2.270
 6386TIP3    H140717   0.688   0.002   2.222
 6386TIP3    H240718   0.782   0.120   2.203
 6387TIP3   OH240719   6.543   2.719   1.344
 6387TIP3    H140720   6.483   2.745   1.415
 6387TIP3    H240721   6.491   2.727   1.265
 6388TIP3   OH240722   5.014   5.720   7.757
 6388TIP3    H140723   5.093   5.735   7.809
 6388TIP3    H240724   4.959   5.796   7.774
 6389TIP3   OH240725   2.314   1.984   0.298
 6389TIP3    H140726   2.320   2.080   0.291
 6389TIP3    H240727   2.221   1.966   0.287
 6390TIP3   OH240728   5.479   1.024   7.975
 6390TIP3    H140729   5.386   1.007   7.958
 6390TIP3    H240730   5.522   1.003   7.893
 6391TIP3   OH240731   0.420   6.595   6.685
 6391TIP3    H140732   0.349   6.531   6.679
 6391TIP3    H240733   0.430   6.611   6.779
 6392TIP3   OH240734   4.443   2.687   7.732
 6392TIP3    H140735   4.355   2.703   7.699
 6392TIP3    H240736   4.450   2.591   7.736
 6393TIP3   OH240737   6.710   4.423   1.798
 6393TIP3    H140738   6.783   4.449   1.742
 6393TIP3    H240739   6.633   4.465   1.759
 6394TIP3   OH240740   0.328   5.739   1.271
 6394TIP3    H140741   0.384   5.663   1.252
 6394TIP3    H240742   0.256   5.703   1.323
 6395TIP3   OH240743   4.325   4.522   6.843
 6395TIP3    H140744   4.246   4.538   6.792
 6395TIP3    H240745   4.384   4.593   6.819
 6396TIP3   OH240746   3.032   0.614   0.465
 6396TIP3    H140747   3.024   0.587   0.373
 6396TIP3    H240748   2.999   0.539   0.515
 6397TIP3   OH240749   6.867   2.117   0.267
 6397TIP3    H140750   0.022   2.132   0.179
 6397TIP3    H240751   6.782   2.161   0.268
 6398TIP3   OH240752   3.671   6.092   2.033
 6398TIP3    H140753   3.766   6.081   2.046
 6398TIP3    H240754   3.664   6.124   1.943
 6399TIP3   OH240755   6.220   0.615   8.540
 6399TIP3    H140756   6.173   0.696   8.560
 6399TIP3    H240757   6.292   0.642   8.483
 6400TIP3   OH240758   3.755   0.155   1.730
 6400TIP3    H140759   3.846   0.184   1.727
 6400TIP3    H240760   3.738   0.121   1.642
 6401TIP3   OH240761   5.134   0.918   1.027
 6401TIP3    H140762   5.224   0.899   1.052
 6401TIP3    H240763   5.104   0.839   0.982
 6402TIP3   OH240764   6.570   0.369   0.457
 6402TIP3    H140765   6.651   0.337   0.418
 6402TIP3    H240766   6.524   0.413   0.386
 6403TIP3   OH240767   6.169   5.124   1.684
 6403TIP3    H140768   6.217   5.207   1.684
 6403TIP3    H240769   6.236   5.059   1.708
 6404TIP3   OH240770   3.736   4.750   7.526
 6404TIP3    H140771   3.761   4.842   7.529
 6404TIP3    H240772   3.667   4.742   7.592
 6405TIP3   OH240773   2.421   0.737   1.882
 6405TIP3    H140774   2.444   0.798   1.952
 6405TIP3    H240775   2.342   0.693   1.913
 6406TIP3   OH240776   0.888   2.811   7.520
 6406TIP3    H140777   0.835   2.847   7.591
 6406TIP3    H240778   0.977   2.842   7.538
 6407TIP3   OH240779   5.723   1.128   1.823
 6407TIP3    H140780   5.669   1.049   1.828
 6407TIP3    H240781   5.663   1.200   1.843
 6408TIP3   OH240782   5.690   3.691   1.755
 6408TIP3    H140783   5.631   3.639   1.808
 6408TIP3    H240784   5.635   3.759   1.717
 6409TIP3   OH240785   2.608   4.329   8.124
 6409TIP3    H140786   2.557   4.409   8.143
 6409TIP3    H240787   2.543   4.259   8.127
 6410TIP3   OH240788   4.959   4.548   1.165
 6410TIP3    H140789   5.012   4.484   1.212
 6410TIP3    H240790   4.883   4.562   1.221
 6411TIP3   OH240791   3.406   6.767   7.877
 6411TIP3    H140792   3.403   6.814   7.961
 6411TIP3    H240793   3.401   6.836   7.811
 6412TIP3   OH240794   4.233   1.236   0.764
 6412TIP3    H140795   4.316   1.190   0.754
 6412TIP3    H240796   4.256   1.328   0.754
 6413TIP3   OH240797   3.382   5.064   0.643
 6413TIP3    H140798   3.335   4.982   0.631
 6413TIP3    H240799   3.464   5.052   0.595
 6414TIP3   OH240800   4.917   3.016   1.180
 6414TIP3    H140801   4.982   2.973   1.125
 6414TIP3    H240802   4.944   2.994   1.270
 6415TIP3   OH240803   3.880   5.735   0.570
 6415TIP3    H140804   3.940   5.661   0.559
 6415TIP3    H240805   3.908   5.776   0.652
 6416TIP3   OH240806   4.120   5.233   1.220
 6416TIP3    H140807   4.130   5.236   1.124
 6416TIP3    H240808   4.044   5.176   1.234
 6417TIP3   OH240809   4.955   2.343   7.213
 6417TIP3    H140810   5.019   2.298   7.269
 6417TIP3    H240811   4.874   2.295   7.226
 6418TIP3   OH240812   4.464   0.220   6.994
 6418TIP3    H140813   4.417   0.300   6.972
 6418TIP3    H240814   4.406   0.176   7.057
 6419TIP3   OH240815   0.035   4.527   2.443
 6419TIP3    H140816   0.069   4.615   2.457
 6419TIP3    H240817   6.832   4.525   2.492
 6420TIP3   OH240818   2.478   4.336   0.837
 6420TIP3    H140819   2.507   4.427   0.838
 6420TIP3    H240820   2.539   4.292   0.778
 6421TIP3   OH240821   0.446   5.706   7.540
 6421TIP3    H140822   0.474   5.639   7.477
 6421TIP3    H240823   0.516   5.771   7.539
 6422TIP3   OH240824   6.381   4.690   7.676
 6422TIP3    H140825   6.386   4.673   7.770
 6422TIP3    H240826   6.340   4.612   7.639
 6423TIP3   OH240827   6.597   5.348   1.766
 6423TIP3    H140828   6.586   5.277   1.830
 6423TIP3    H240829   6.548   5.421   1.802
 6424TIP3   OH240830   4.419   1.150   6.383
 6424TIP3    H140831   4.468   1.069   6.367
 6424TIP3    H240832   4.483   1.209   6.422
 6425TIP3   OH240833   3.751   4.438   0.687
 6425TIP3    H140834   3.691   4.373   0.651
 6425TIP3    H240835   3.802   4.468   0.612
 6426TIP3   OH240836   5.105   0.061   0.993
 6426TIP3    H140837   5.127   0.074   0.901
 6426TIP3    H240838   5.009   0.062   0.995
 6427TIP3   OH240839   5.693   1.544   2.716
 6427TIP3    H140840   5.745   1.538   2.796
 6427TIP3    H240841   5.756   1.567   2.648
 6428TIP3   OH240842   5.796   1.762   7.526
 6428TIP3    H140843   5.755   1.829   7.472
 6428TIP3    H240844   5.746   1.682   7.509
 6429TIP3   OH240845   0.146   4.779   2.443
 6429TIP3    H140846   0.171   4.821   2.525
 6429TIP3    H240847   0.142   4.851   2.380
 6430TIP3   OH240848   6.672   5.871   1.621
 6430TIP3    H140849   6.601   5.861   1.558
 6430TIP3    H240850   6.670   5.790   1.673
 6431TIP3   OH240851   6.677   4.254   2.878
 6431TIP3    H140852   6.717   4.339   2.899
 6431TIP3    H240853   6.654   4.261   2.785
 6432TIP3   OH240854   2.054   1.282   6.889
 6432TIP3    H140855   2.124   1.254   6.948
 6432TIP3    H240856   1.988   1.320   6.947
 6433TIP3   OH240857   1.696   4.427   8.092
 6433TIP3    H140858   1.753   4.357   8.059
 6433TIP3    H240859   1.620   4.425   8.034
 6434TIP3   OH240860   0.920   2.417   1.528
 6434TIP3    H140861   1.012   2.415   1.501
 6434TIP3    H240862   0.872   2.395   1.448
 6435TIP3   OH240863   1.787   5.239   1.395
 6435TIP3    H140864   1.813   5.307   1.333
 6435TIP3    H240865   1.732   5.180   1.344
 6436TIP3   OH240866   4.156   1.008   1.602
 6436TIP3    H140867   4.069   1.030   1.568
 6436TIP3    H240868   4.196   1.093   1.620
 6437TIP3   OH240869   2.683   4.321   1.802
 6437TIP3    H140870   2.639   4.389   1.751
 6437TIP3    H240871   2.774   4.351   1.809
 6438TIP3   OH240872   3.000   1.454   1.141
 6438TIP3    H140873   2.965   1.419   1.223
 6438TIP3    H240874   3.056   1.385   1.107
 6439TIP3   OH240875   4.532   4.892   8.566
 6439TIP3    H140876   4.507   4.833   8.495
 6439TIP3    H240877   4.625   4.874   8.581
 6440TIP3   OH240878   4.098   3.376   6.969
 6440TIP3    H140879   4.142   3.374   6.884
 6440TIP3    H240880   4.008   3.349   6.950
 6441TIP3   OH240881   6.174   4.288   8.224
 6441TIP3    H140882   6.250   4.262   8.277
 6441TIP3    H240883   6.120   4.209   8.220
 6442TIP3   OH240884   1.953   2.016   0.190
 6442TIP3    H140885   1.902   2.033   0.111
 6442TIP3    H240886   1.893   2.036   0.262
 6443TIP3   OH240887   3.914   5.946   0.748
 6443TIP3    H140888   3.958   5.910   0.825
 6443TIP3    H240889   3.961   6.028   0.731
 6444TIP3   OH240890   1.599   2.308   8.513
 6444TIP3    H140891   1.589   2.395   8.475
 6444TIP3    H240892   1.534   2.254   8.468
 6445TIP3   OH240893   1.506   4.967   2.032
 6445TIP3    H140894   1.551   4.959   1.948
 6445TIP3    H240895   1.501   5.061   2.049
 6446TIP3   OH240896   1.185   1.370   7.938
 6446TIP3    H140897   1.182   1.337   7.848
 6446TIP3    H240898   1.276   1.358   7.965
 6447TIP3   OH240899   0.997   6.406   2.216
 6447TIP3    H140900   1.067   6.376   2.158
 6447TIP3    H240901   0.919   6.359   2.186
 6448TIP3   OH240902   6.098   4.012   1.394
 6448TIP3    H140903   6.168   3.998   1.329
 6448TIP3    H240904   6.135   3.980   1.476
 6449TIP3   OH240905   0.819   0.242   0.382
 6449TIP3    H140906   0.805   0.334   0.360
 6449TIP3    H240907   0.834   0.243   0.477
 6450TIP3   OH240908   3.307   2.878   1.092
 6450TIP3    H140909   3.212   2.888   1.099
 6450TIP3    H240910   3.333   2.943   1.027
 6451TIP3   OH240911   1.964   1.891   0.791
 6451TIP3    H140912   1.967   1.813   0.735
 6451TIP3    H240913   1.885   1.937   0.762
 6452TIP3   OH240914   1.312   4.287   1.634
 6452TIP3    H140915   1.382   4.303   1.696
 6452TIP3    H240916   1.234   4.325   1.675
 6453TIP3   OH240917   3.101   2.694   7.173
 6453TIP3    H140918   3.054   2.623   7.216
 6453TIP3    H240919   3.040   2.768   7.177
 6454TIP3   OH240920   5.390   1.475   8.423
 6454TIP3    H140921   5.303   1.512   8.404
 6454TIP3    H240922   5.406   1.416   8.349
 6455TIP3   OH240923   5.422   4.358   7.306
 6455TIP3    H140924   5.348   4.418   7.303
 6455TIP3    H240925   5.488   4.399   7.250
 6456TIP3   OH240926   4.309   1.951   1.735
 6456TIP3    H140927   4.241   2.011   1.705
 6456TIP3    H240928   4.267   1.865   1.738
 6457TIP3   OH240929   0.932   2.830   1.613
 6457TIP3    H140930   0.989   2.879   1.554
 6457TIP3    H240931   0.953   2.862   1.700
 6458TIP3   OH240932   1.741   6.793   7.446
 6458TIP3    H140933   1.672   6.799   7.380
 6458TIP3    H240934   1.697   6.817   7.528
 6459TIP3   OH240935   3.235   4.887   8.405
 6459TIP3    H140936   3.168   4.820   8.393
 6459TIP3    H240937   3.315   4.838   8.423
 6460TIP3   OH240938   1.662   2.473   7.738
 6460TIP3    H140939   1.636   2.506   7.652
 6460TIP3    H240940   1.585   2.486   7.794
 6461TIP3   OH240941   6.071   2.239   0.970
 6461TIP3    H140942   5.987   2.280   0.951
 6461TIP3    H240943   6.102   2.207   0.885
 6462TIP3   OH240944   5.909   0.932   1.193
 6462TIP3    H140945   5.978   0.922   1.259
 6462TIP3    H240946   5.846   0.864   1.214
 6463TIP3   OH240947   2.233   0.265   0.327
 6463TIP3    H140948   2.205   0.284   0.237
 6463TIP3    H240949   2.256   0.351   0.364
 6464TIP3   OH240950   5.903   3.767   1.235
 6464TIP3    H140951   5.986   3.814   1.230
 6464TIP3    H240952   5.857   3.805   1.309
 6465TIP3   OH240953   0.607   1.456   0.992
 6465TIP3    H140954   0.550   1.533   0.997
 6465TIP3    H240955   0.564   1.398   0.929
 6466TIP3   OH240956   5.547   2.818   0.711
 6466TIP3    H140957   5.475   2.836   0.650
 6466TIP3    H240958   5.621   2.796   0.655
 6467TIP3   OH240959   4.696   5.933   8.041
 6467TIP3    H140960   4.635   5.893   7.979
 6467TIP3    H240961   4.782   5.919   8.002
 6468TIP3   OH240962   0.833   3.691   1.616
 6468TIP3    H140963   0.878   3.622   1.569
 6468TIP3    H240964   0.747   3.697   1.574
 6469TIP3   OH240965   6.192   2.567   8.104
 6469TIP3    H140966   6.164   2.642   8.156
 6469TIP3    H240967   6.221   2.604   8.021
 6470TIP3   OH240968   1.292   6.461   1.696
 6470TIP3    H140969   1.344   6.418   1.628
 6470TIP3    H240970   1.205   6.424   1.686
 6471TIP3   OH240971   0.915   5.775   0.372
 6471TIP3    H140972   0.863   5.787   0.293
 6471TIP3    H240973   0.866   5.710   0.423
 6472TIP3   OH240974   1.797   4.813   7.684
 6472TIP3    H140975   1.783   4.721   7.662
 6472TIP3    H240976   1.880   4.835   7.641
 6473TIP3   OH240977   4.487   4.478   1.863
 6473TIP3    H140978   4.413   4.519   1.818
 6473TIP3    H240979   4.450   4.399   1.902
 6474TIP3   OH240980   0.951   0.465   0.895
 6474TIP3    H140981   0.907   0.442   0.977
 6474TIP3    H240982   0.964   0.559   0.901
 6475TIP3   OH240983   1.172   3.093   2.129
 6475TIP3    H140984   1.146   3.004   2.152
 6475TIP3    H240985   1.220   3.125   2.206
 6476TIP3   OH240986   3.750   2.602   1.211
 6476TIP3    H140987   3.690   2.599   1.286
 6476TIP3    H240988   3.745   2.692   1.180
 6477TIP3   OH240989   3.468   0.178   7.434
 6477TIP3    H140990   3.517   0.256   7.461
 6477TIP3    H240991   3.519   0.141   7.362
 6478TIP3   OH240992   3.543   2.887   8.051
 6478TIP3    H140993   3.499   2.946   7.989
 6478TIP3    H240994   3.487   2.809   8.052
 6479TIP3   OH240995   1.197   1.341   7.608
 6479TIP3    H140996   1.291   1.354   7.620
 6479TIP3    H240997   1.188   1.246   7.595
 6480TIP3   OH240998   3.603   0.929   7.885
 6480TIP3    H140999   3.618   0.842   7.920
 6480TIP3    H241000   3.627   0.988   7.956
 6481TIP3   OH241001   4.341   1.502   0.732
 6481TIP3    H141002   4.396   1.510   0.654
 6481TIP3    H241003   4.366   1.574   0.788
 6482TIP3   OH241004   5.961   0.517   1.549
 6482TIP3    H141005   5.942   0.606   1.521
 6482TIP3    H241006   6.004   0.526   1.634
 6483TIP3   OH241007   3.013   5.057   8.187
 6483TIP3    H141008   3.034   5.142   8.149
 6483TIP3    H241009   3.081   4.998   8.155
 6484TIP3   OH241010   6.452   2.327   8.328
 6484TIP3    H141011   6.391   2.255   8.345
 6484TIP3    H241012   6.419   2.400   8.381
 6485TIP3   OH241013   6.044   4.465   1.489
 6485TIP3    H141014   6.029   4.378   1.452
 6485TIP3    H241015   6.002   4.463   1.575
 6486TIP3   OH241016   4.117   5.535   1.888
 6486TIP3    H141017   4.201   5.506   1.855
 6486TIP3    H241018   4.053   5.477   1.846
 6487TIP3   OH241019   4.289   0.343   1.906
 6487TIP3    H141020   4.300   0.256   1.944
 6487TIP3    H241021   4.365   0.353   1.848
 6488TIP3   OH241022   1.410   2.629   8.168
 6488TIP3    H141023   1.398   2.582   8.086
 6488TIP3    H241024   1.331   2.681   8.177
 6489TIP3   OH241025   3.712   4.875   6.933
 6489TIP3    H141026   3.632   4.855   6.886
 6489TIP3    H241027   3.756   4.942   6.880
 6490TIP3   OH241028   4.816   5.170   1.205
 6490TIP3    H141029   4.780   5.130   1.126
 6490TIP3    H241030   4.741   5.214   1.245
 6491TIP3   OH241031   3.112   2.070   1.940
 6491TIP3    H141032   3.040   2.119   1.901
 6491TIP3    H241033   3.131   2.115   2.022
 6492TIP3   OH241034   0.930   3.899   8.333
 6492TIP3    H141035   0.928   3.908   8.237
 6492TIP3    H241036   1.023   3.901   8.355
 6493TIP3   OH241037   0.261   2.053   1.503
 6493TIP3    H141038   0.235   2.086   1.589
 6493TIP3    H241039   0.350   2.084   1.491
 6494TIP3   OH241040   0.262   0.248   7.850
 6494TIP3    H141041   0.241   0.214   7.937
 6494TIP3    H241042   0.177   0.267   7.811
 6495TIP3   OH241043   4.914   4.275   6.237
 6495TIP3    H141044   5.000   4.245   6.265
 6495TIP3    H241045   4.931   4.347   6.176
 6496TIP3   OH241046   6.235   1.746   1.279
 6496TIP3    H141047   6.188   1.700   1.210
 6496TIP3    H241048   6.228   1.839   1.257
 6497TIP3   OH241049   0.655   2.990   7.413
 6497TIP3    H141050   0.693   3.017   7.497
 6497TIP3    H241051   0.614   2.906   7.431
 6498TIP3   OH241052   6.120   1.660   0.219
 6498TIP3    H141053   6.212   1.642   0.201
 6498TIP3    H241054   6.094   1.722   0.151
 6499TIP3   OH241055   6.649   0.243   7.560
 6499TIP3    H141056   6.582   0.284   7.506
 6499TIP3    H241057   6.612   0.244   7.649
 6500TIP3   OH241058   1.465   0.705   1.016
 6500TIP3    H141059   1.400   0.650   1.061
 6500TIP3    H241060   1.546   0.690   1.064
 6501TIP3   OH241061   5.555   4.399   2.123
 6501TIP3    H141062   5.594   4.322   2.166
 6501TIP3    H241063   5.567   4.470   2.185
 6502TIP3   OH241064   4.950   0.592   8.299
 6502TIP3    H141065   4.889   0.528   8.262
 6502TIP3    H241066   4.944   0.579   8.393
 6503TIP3   OH241067   4.098   0.006   8.331
 6503TIP3    H141068   4.078   0.012   8.425
 6503TIP3    H241069   4.108   0.097   8.303
 6504TIP3   OH241070   3.591   4.353   6.242
 6504TIP3    H141071   3.541   4.429   6.274
 6504TIP3    H241072   3.660   4.392   6.188
 6505TIP3   OH241073   4.672   0.557   1.202
 6505TIP3    H141074   4.738   0.534   1.267
 6505TIP3    H241075   4.720   0.561   1.119
 6506TIP3   OH241076   4.339   4.601   2.085
 6506TIP3    H141077   4.315   4.581   1.995
 6506TIP3    H241078   4.356   4.516   2.125
 6507TIP3   OH241079   5.625   6.338   1.490
 6507TIP3    H141080   5.579   6.391   1.555
 6507TIP3    H241081   5.656   6.402   1.426
 6508TIP3   OH241082   0.683   6.324   0.116
 6508TIP3    H141083   0.773   6.352   0.128
 6508TIP3    H241084   0.672   6.250   0.176
 6509TIP3   OH241085   2.748   3.190   1.488
 6509TIP3    H141086   2.795   3.107   1.497
 6509TIP3    H241087   2.667   3.166   1.442
 6510TIP3   OH241088   3.117   5.861   7.546
 6510TIP3    H141089   3.198   5.911   7.546
 6510TIP3    H241090   3.115   5.818   7.631
 6511TIP3   OH241091   4.170   5.093   0.241
 6511TIP3    H141092   4.256   5.054   0.260
 6511TIP3    H241093   4.190   5.168   0.185
 6512TIP3   OH241094   6.478   1.852   2.321
 6512TIP3    H141095   6.435   1.889   2.244
 6512TIP3    H241096   6.571   1.851   2.299
 6513TIP3   OH241097   2.633   1.356   7.150
 6513TIP3    H141098   2.709   1.372   7.206
 6513TIP3    H241099   2.669   1.351   7.061
 6514TIP3   OH241100   1.053   0.537   6.653
 6514TIP3    H141101   1.010   0.605   6.704
 6514TIP3    H241102   1.054   0.571   6.564
 6515TIP3   OH241103   6.269   1.186   7.732
 6515TIP3    H141104   6.231   1.152   7.813
 6515TIP3    H241105   6.210   1.156   7.663
 6516TIP3   OH241106   4.672   6.714   2.538
 6516TIP3    H141107   4.741   6.653   2.513
 6516TIP3    H241108   4.602   6.659   2.572
 6517TIP3   OH241109   0.696   5.627   6.780
 6517TIP3    H141110   0.772   5.600   6.832
 6517TIP3    H241111   0.676   5.551   6.726
 6518TIP3   OH241112   4.862   1.023   0.902
 6518TIP3    H141113   4.903   1.053   0.983
 6518TIP3    H241114   4.797   0.958   0.930
 6519TIP3   OH241115   1.698   0.343   5.989
 6519TIP3    H141116   1.760   0.382   5.927
 6519TIP3    H241117   1.724   0.252   5.997
 6520TIP3   OH241118   1.558   3.398   8.515
 6520TIP3    H141119   1.506   3.331   8.558
 6520TIP3    H241120   1.635   3.351   8.483
 6521TIP3   OH241121   3.073   4.689   8.245
 6521TIP3    H141122   3.069   4.745   8.168
 6521TIP3    H241123   3.143   4.627   8.225
 6522TIP3   OH241124   2.919   2.963   1.521
 6522TIP3    H141125   2.867   2.924   1.591
 6522TIP3    H241126   3.007   2.971   1.558
 6523TIP3   OH241127   0.608   2.614   0.671
 6523TIP3    H141128   0.580   2.698   0.706
 6523TIP3    H241129   0.698   2.604   0.703
 6524TIP3   OH241130   3.595   5.488   1.515
 6524TIP3    H141131   3.544   5.460   1.590
 6524TIP3    H241132   3.530   5.507   1.447
 6525TIP3   OH241133   1.273   1.530   0.821
 6525TIP3    H141134   1.283   1.524   0.726
 6525TIP3    H241135   1.358   1.505   0.856
 6526TIP3   OH241136   0.935   2.089   6.780
 6526TIP3    H141137   0.908   2.115   6.692
 6526TIP3    H241138   0.960   2.170   6.824
 6527TIP3   OH241139   4.445   0.554   8.594
 6527TIP3    H141140   4.497   0.490   0.018
 6527TIP3    H241141   4.426   0.512   8.510
 6528TIP3   OH241142   5.520   5.061   0.286
 6528TIP3    H141143   5.468   5.059   0.206
 6528TIP3    H241144   5.457   5.042   0.356
 6529TIP3   OH241145   4.544   0.701   6.952
 6529TIP3    H141146   4.512   0.651   7.027
 6529TIP3    H241147   4.632   0.728   6.978
 6530TIP3   OH241148   2.207   5.544   8.244
 6530TIP3    H141149   2.123   5.526   8.287
 6530TIP3    H241150   2.192   5.525   8.152
 6531TIP3   OH241151   4.980   5.429   7.540
 6531TIP3    H141152   5.008   5.418   7.631
 6531TIP3    H241153   5.048   5.385   7.489
 6532TIP3   OH241154   4.523   4.695   0.755
 6532TIP3    H141155   4.603   4.744   0.771
 6532TIP3    H241156   4.547   4.630   0.689
 6533TIP3   OH241157   6.075   2.646   8.581
 6533TIP3    H141158   6.070   2.598   8.499
 6533TIP3    H241159   6.041   2.734   8.561
 6534TIP3   OH241160   2.588   0.611   6.682
 6534TIP3    H141161   2.544   0.661   6.613
 6534TIP3    H241162   2.675   0.592   6.646
 6535TIP3   OH241163   0.224   4.624   1.560
 6535TIP3    H141164   0.304   4.592   1.601
 6535TIP3    H241165   0.243   4.622   1.466
 6536TIP3   OH241166   4.869   4.245   7.468
 6536TIP3    H141167   4.900   4.156   7.486
 6536TIP3    H241168   4.786   4.233   7.423
 6537TIP3   OH241169   3.163   2.005   1.420
 6537TIP3    H141170   3.108   2.035   1.347
 6537TIP3    H241171   3.100   1.983   1.489
 6538TIP3   OH241172   2.306   5.645   7.175
 6538TIP3    H141173   2.350   5.698   7.107
 6538TIP3    H241174   2.332   5.555   7.156
 6539TIP3   OH241175   1.554   1.694   8.136
 6539TIP3    H141176   1.612   1.764   8.105
 6539TIP3    H241177   1.469   1.737   8.148
 6540TIP3   OH241178   0.759   4.297   1.327
 6540TIP3    H141179   0.828   4.256   1.275
 6540TIP3    H241180   0.694   4.325   1.263
 6541TIP3   OH241181   0.735   4.855   1.480
 6541TIP3    H141182   0.791   4.785   1.514
 6541TIP3    H241183   0.791   4.902   1.418
 6542TIP3   OH241184   1.989   6.427   0.756
 6542TIP3    H141185   1.921   6.484   0.793
 6542TIP3    H241186   2.054   6.419   0.826
 6543TIP3   OH241187   0.438   4.346   6.379
 6543TIP3    H141188   0.479   4.308   6.301
 6543TIP3    H241189   0.396   4.426   6.348
 6544TIP3   OH241190   0.798   1.322   1.181
 6544TIP3    H141191   0.776   1.233   1.152
 6544TIP3    H241192   0.720   1.373   1.162
 6545TIP3   OH241193   0.229   5.837   7.398
 6545TIP3    H141194   0.292   5.784   7.447
 6545TIP3    H241195   0.257   5.830   7.307
 6546TIP3   OH241196   2.223   5.461   7.967
 6546TIP3    H141197   2.304   5.511   7.957
 6546TIP3    H241198   2.228   5.393   7.900
 6547TIP3   OH241199   0.479   6.119   6.893
 6547TIP3    H141200   0.466   6.030   6.925
 6547TIP3    H241201   0.391   6.155   6.885
 6548TIP3   OH241202   4.706   6.423   2.120
 6548TIP3    H141203   4.731   6.493   2.180
 6548TIP3    H241204   4.754   6.346   2.152
 6549TIP3   OH241205   1.396   3.644   0.902
 6549TIP3    H141206   1.316   3.686   0.871
 6549TIP3    H241207   1.403   3.564   0.850
 6550TIP3   OH241208   0.053   3.411   0.219
 6550TIP3    H141209   0.064   3.317   0.230
 6550TIP3    H241210   6.844   3.421   0.184
 6551TIP3   OH241211   0.682   4.150   0.173
 6551TIP3    H141212   0.723   4.131   0.089
 6551TIP3    H241213   0.595   4.110   0.167
 6552TIP3   OH241214   6.138   0.945   0.596
 6552TIP3    H141215   6.147   0.996   0.676
 6552TIP3    H241216   6.209   0.881   0.599
 6553TIP3   OH241217   2.346   3.215   1.576
 6553TIP3    H141218   2.265   3.229   1.526
 6553TIP3    H241219   2.402   3.164   1.517
 6554TIP3   OH241220   2.698   4.243   0.661
 6554TIP3    H141221   2.661   4.249   0.573
 6554TIP3    H241222   2.792   4.235   0.646
 6555TIP3   OH241223   2.439   3.103   6.773
 6555TIP3    H141224   2.491   3.121   6.851
 6555TIP3    H241225   2.372   3.170   6.772
 6556TIP3   OH241226   5.530   4.305   7.676
 6556TIP3    H141227   5.459   4.273   7.733
 6556TIP3    H241228   5.524   4.249   7.598
 6557TIP3   OH241229   0.464   4.512   0.881
 6557TIP3    H141230   0.442   4.435   0.828
 6557TIP3    H241231   0.439   4.586   0.826
 6558TIP3   OH241232   5.992   2.497   7.829
 6558TIP3    H141233   6.087   2.492   7.817
 6558TIP3    H241234   5.956   2.440   7.761
 6559TIP3   OH241235   2.430   1.111   7.835
 6559TIP3    H141236   2.379   1.089   7.913
 6559TIP3    H241237   2.485   1.034   7.820
 6560TIP3   OH241238   2.698   2.255   8.130
 6560TIP3    H141239   2.750   2.211   8.062
 6560TIP3    H241240   2.668   2.336   8.089
 6561TIP3   OH241241   1.868   3.047   7.541
 6561TIP3    H141242   1.876   3.101   7.619
 6561TIP3    H241243   1.807   3.096   7.485
 6562TIP3   OH241244   0.686   4.129   7.172
 6562TIP3    H141245   0.723   4.203   7.221
 6562TIP3    H241246   0.724   4.051   7.213
 6563TIP3   OH241247   3.219   3.276   7.897
 6563TIP3    H141248   3.198   3.274   7.803
 6563TIP3    H241249   3.133   3.281   7.940
 6564TIP3   OH241250   6.878   4.056   7.736
 6564TIP3    H141251   0.070   4.033   7.796
 6564TIP3    H241252   0.040   4.110   7.669
 6565TIP3   OH241253   6.820   4.369   0.107
 6565TIP3    H141254   6.836   4.413   0.024
 6565TIP3    H241255   0.020   4.319   0.124
 6566TIP3   OH241256   5.480   1.844   2.503
 6566TIP3    H141257   5.500   1.923   2.452
 6566TIP3    H241258   5.526   1.857   2.586
 6567TIP3   OH241259   2.746   6.319   0.753
 6567TIP3    H141260   2.820   6.346   0.700
 6567TIP3    H241261   2.692   6.265   0.695
 6568TIP3   OH241262   4.246   5.870   1.184
 6568TIP3    H141263   4.337   5.870   1.214
 6568TIP3    H241264   4.223   5.777   1.180
 6569TIP3   OH241265   3.983   4.371   7.563
 6569TIP3    H141266   4.037   4.421   7.502
 6569TIP3    H241267   3.988   4.281   7.531
 6570TIP3   OH241268   5.784   6.101   7.263
 6570TIP3    H141269   5.708   6.077   7.210
 6570TIP3    H241270   5.760   6.075   7.352
 6571TIP3   OH241271   4.457   4.498   0.103
 6571TIP3    H141272   4.477   4.589   0.079
 6571TIP3    H241273   4.388   4.505   0.169
 6572TIP3   OH241274   3.833   0.181   7.608
 6572TIP3    H141275   3.794   0.094   7.597
 6572TIP3    H241276   3.862   0.205   7.521
 6573TIP3   OH241277   4.614   3.391   6.021
 6573TIP3    H141278   4.668   3.470   6.022
 6573TIP3    H241279   4.635   3.346   6.103
 6574TIP3   OH241280   6.362   6.285   1.991
 6574TIP3    H141281   6.293   6.294   1.926
 6574TIP3    H241282   6.331   6.334   2.067
 6575TIP3   OH241283   0.633   4.532   0.574
 6575TIP3    H141284   0.606   4.445   0.605
 6575TIP3    H241285   0.572   4.552   0.503
 6576TIP3   OH241286   0.918   5.250   0.583
 6576TIP3    H141287   0.964   5.228   0.663
 6576TIP3    H241288   0.963   5.201   0.514
 6577TIP3   OH241289   6.000   0.264   2.418
 6577TIP3    H141290   5.952   0.347   2.423
 6577TIP3    H241291   5.966   0.221   2.340
 6578TIP3   OH241292   2.390   3.633   0.410
 6578TIP3    H141293   2.385   3.537   0.406
 6578TIP3    H241294   2.315   3.659   0.462
 6579TIP3   OH241295   6.806   5.971   1.182
 6579TIP3    H141296   6.781   6.022   1.105
 6579TIP3    H241297   6.821   5.883   1.148
 6580TIP3   OH241298   4.853   2.620   6.080
 6580TIP3    H141299   4.935   2.629   6.129
 6580TIP3    H241300   4.793   2.681   6.122
 6581TIP3   OH241301   4.144   0.630   7.024
 6581TIP3    H141302   4.065   0.662   7.067
 6581TIP3    H241303   4.215   0.679   7.065
 6582TIP3   OH241304   3.650   1.232   8.084
 6582TIP3    H141305   3.562   1.217   8.119
 6582TIP3    H241306   3.641   1.310   8.030
 6583TIP3   OH241307   6.589   6.084   0.020
 6583TIP3    H141308   6.540   6.092   0.101
 6583TIP3    H241309   6.677   6.058   0.048
 6584TIP3   OH241310   2.314   5.801   1.109
 6584TIP3    H141311   2.284   5.834   1.024
 6584TIP3    H241312   2.267   5.854   1.173
 6585TIP3   OH241313   3.268   4.415   6.867
 6585TIP3    H141314   3.279   4.398   6.961
 6585TIP3    H241315   3.358   4.417   6.833
 6586TIP3   OH241316   5.130   1.631   0.200
 6586TIP3    H141317   5.042   1.604   0.225
 6586TIP3    H241318   5.117   1.677   0.117
 6587TIP3   OH241319   4.952   3.625   2.193
 6587TIP3    H141320   4.960   3.716   2.224
 6587TIP3    H241321   4.871   3.625   2.142
 6588TIP3   OH241322   5.220   4.482   1.745
 6588TIP3    H141323   5.160   4.468   1.818
 6588TIP3    H241324   5.173   4.540   1.686
 6589TIP3   OH241325   0.503   6.508   1.386
 6589TIP3    H141326   0.497   6.413   1.385
 6589TIP3    H241327   0.562   6.529   1.314
 6590TIP3   OH241328   3.495   2.234   8.160
 6590TIP3    H141329   3.569   2.267   8.110
 6590TIP3    H241330   3.522   2.147   8.190
 6591TIP3   OH241331   6.416   2.879   0.232
 6591TIP3    H141332   6.370   2.802   0.197
 6591TIP3    H241333   6.508   2.864   0.210
 6592TIP3   OH241334   2.496   0.149   7.719
 6592TIP3    H141335   2.545   0.079   7.675
 6592TIP3    H241336   2.404   0.128   7.703
 6593TIP3   OH241337   4.772   5.948   8.529
 6593TIP3    H141338   4.680   5.925   8.533
 6593TIP3    H241339   4.802   5.911   8.445
 6594TIP3   OH241340   3.967   1.449   7.215
 6594TIP3    H141341   3.955   1.397   7.294
 6594TIP3    H241342   4.062   1.460   7.208
 6595TIP3   OH241343   4.397   3.984   1.244
 6595TIP3    H141344   4.374   4.045   1.174
 6595TIP3    H241345   4.484   4.013   1.272
 6596TIP3   OH241346   5.440   0.891   0.265
 6596TIP3    H141347   5.392   0.819   0.224
 6596TIP3    H241348   5.407   0.970   0.222
 6597TIP3   OH241349   5.832   5.587   6.329
 6597TIP3    H141350   5.839   5.521   6.398
 6597TIP3    H241351   5.738   5.594   6.312
 6598TIP3   OH241352   4.045   0.225   6.513
 6598TIP3    H141353   4.071   0.313   6.486
 6598TIP3    H241354   4.066   0.222   6.607
 6599TIP3   OH241355   2.344   5.580   7.521
 6599TIP3    H141356   2.394   5.638   7.464
 6599TIP3    H241357   2.408   5.546   7.584
 6600TIP3   OH241358   1.145   3.249   0.961
 6600TIP3    H141359   1.073   3.294   1.006
 6600TIP3    H241360   1.102   3.185   0.905
 6601TIP3   OH241361   0.201   2.286   7.743
 6601TIP3    H141362   0.276   2.338   7.773
 6601TIP3    H241363   0.223   2.261   7.654
 6602TIP3   OH241364   0.376   5.393   7.583
 6602TIP3    H141365   0.451   5.334   7.567
 6602TIP3    H241366   0.380   5.411   7.677
 6603TIP3   OH241367   6.700   5.029   8.362
 6603TIP3    H141368   6.706   4.985   8.447
 6603TIP3    H241369   6.718   5.121   8.381
 6604TIP3   OH241370   6.591   6.539   7.582
 6604TIP3    H141371   6.657   6.608   7.589
 6604TIP3    H241372   6.574   6.531   7.488
 6605TIP3   OH241373   0.373   3.825   2.235
 6605TIP3    H141374   0.304   3.835   2.170
 6605TIP3    H241375   0.454   3.848   2.189
 6606TIP3   OH241376   2.883   0.711   0.844
 6606TIP3    H141377   2.933   0.730   0.924
 6606TIP3    H241378   2.799   0.679   0.876
 6607TIP3   OH241379   3.313   2.246   0.401
 6607TIP3    H141380   3.391   2.301   0.411
 6607TIP3    H241381   3.332   2.193   0.323
 6608TIP3   OH241382   4.682   1.328   0.095
 6608TIP3    H141383   4.745   1.257   0.103
 6608TIP3    H241384   4.632   1.307   0.016
 6609TIP3   OH241385   6.448   3.062   0.439
 6609TIP3    H141386   6.448   2.979   0.391
 6609TIP3    H241387   6.408   3.125   0.380
 6610TIP3   OH241388   1.450   5.293   7.887
 6610TIP3    H141389   1.457   5.371   7.942
 6610TIP3    H241390   1.355   5.279   7.877
 6611TIP3   OH241391   4.019   1.043   2.389
 6611TIP3    H141392   3.924   1.040   2.391
 6611TIP3    H241393   4.040   1.102   2.317
 6612TIP3   OH241394   4.345   1.141   2.411
 6612TIP3    H141395   4.423   1.130   2.465
 6612TIP3    H241396   4.306   1.054   2.405
 6613TIP3   OH241397   4.575   2.802   0.010
 6613TIP3    H141398   4.561   2.770   8.545
 6613TIP3    H241399   4.613   2.727   0.057
 6614TIP3   OH241400   1.308   6.062   0.641
 6614TIP3    H141401   1.326   5.973   0.614
 6614TIP3    H241402   1.249   6.053   0.716
 6615TIP3   OH241403   3.752   1.552   1.520
 6615TIP3    H141404   3.661   1.580   1.520
 6615TIP3    H241405   3.773   1.541   1.427
 6616TIP3   OH241406   1.767   3.987   1.245
 6616TIP3    H141407   1.761   4.082   1.238
 6616TIP3    H241408   1.678   3.959   1.265
 6617TIP3   OH241409   5.081   0.930   8.550
 6617TIP3    H141410   4.994   0.967   8.539
 6617TIP3    H241411   5.135   0.976   8.486
 6618TIP3   OH241412   2.758   4.904   1.414
 6618TIP3    H141413   2.832   4.925   1.471
 6618TIP3    H241414   2.686   4.886   1.474
 6619TIP3   OH241415   6.518   1.513   8.497
 6619TIP3    H141416   6.575   1.516   8.421
 6619TIP3    H241417   6.453   1.446   8.477
 6620TIP3   OH241418   3.870   0.738   8.385
 6620TIP3    H141419   3.826   0.765   8.465
 6620TIP3    H241420   3.888   0.820   8.339
 6621TIP3   OH241421   1.769   3.190   7.316
 6621TIP3    H141422   1.775   3.238   7.233
 6621TIP3    H241423   1.721   3.111   7.293
 6622TIP3   OH241424   0.437   4.063   0.226
 6622TIP3    H141425   0.481   4.086   0.308
 6622TIP3    H241426   0.366   4.127   0.219
 6623TIP3   OH241427   0.647   4.783   0.707
 6623TIP3    H141428   0.647   4.838   0.629
 6623TIP3    H241429   0.636   4.694   0.673
 6624TIP3   OH241430   2.354   0.526   7.203
 6624TIP3    H141431   2.309   0.597   7.249
 6624TIP3    H241432   2.304   0.516   7.121
 6625TIP3   OH241433   2.983   0.495   6.757
 6625TIP3    H141434   2.942   0.551   6.692
 6625TIP3    H241435   2.964   0.406   6.727
 6626TIP3   OH241436   4.232   6.842   7.793
 6626TIP3    H141437   4.306   6.806   7.745
 6626TIP3    H241438   4.186   0.016   7.728
 6627TIP3   OH241439   4.421   2.260   6.743
 6627TIP3    H141440   4.493   2.222   6.693
 6627TIP3    H241441   4.343   2.239   6.691
 6628TIP3   OH241442   2.941   3.621   8.448
 6628TIP3    H141443   3.036   3.629   8.445
 6628TIP3    H241444   2.918   3.628   8.540
 6629TIP3   OH241445   0.422   4.057   7.708
 6629TIP3    H141446   0.391   4.141   7.740
 6629TIP3    H241447   0.486   4.079   7.640
 6630TIP3   OH241448   4.099   1.830   8.611
 6630TIP3    H141449   4.161   1.759   8.595
 6630TIP3    H241450   4.112   1.890   8.538
 6631TIP3   OH241451   2.530   4.392   8.442
 6631TIP3    H141452   2.558   4.477   8.407
 6631TIP3    H241453   2.610   4.355   8.480
 6632TIP3   OH241454   4.795   4.242   6.924
 6632TIP3    H141455   4.704   4.270   6.926
 6632TIP3    H241456   4.823   4.256   6.834
 6633TIP3   OH241457   6.605   5.639   0.849
 6633TIP3    H141458   6.573   5.729   0.858
 6633TIP3    H241459   6.567   5.608   0.767
 6634TIP3   OH241460   2.607   3.145   6.531
 6634TIP3    H141461   2.551   3.185   6.464
 6634TIP3    H241462   2.546   3.102   6.591
 6635TIP3   OH241463   0.708   2.119   8.565
 6635TIP3    H141464   0.666   2.184   8.509
 6635TIP3    H241465   0.706   2.157   0.029
 6636TIP3   OH241466   1.899   4.255   8.041
 6636TIP3    H141467   1.983   4.301   8.034
 6636TIP3    H241468   1.906   4.208   8.125
 6637TIP3   OH241469   2.609   6.857   0.688
 6637TIP3    H141470   2.581   0.044   0.624
 6637TIP3    H241471   2.664   6.797   0.638
 6638TIP3   OH241472   0.793   3.630   0.530
 6638TIP3    H141473   0.718   3.685   0.510
 6638TIP3    H241474   0.803   3.574   0.453
 6639TIP3   OH241475   5.578   2.293   0.006
 6639TIP3    H141476   5.492   2.324   8.604
 6639TIP3    H241477   5.639   2.349   8.581
 6640TIP3   OH241478   3.068   2.522   8.472
 6640TIP3    H141479   2.985   2.559   8.503
 6640TIP3    H241480   3.045   2.475   8.392
 6641TIP3   OH241481   4.835   5.614   0.074
 6641TIP3    H141482   4.872   5.533   0.040
 6641TIP3    H241483   4.898   5.682   0.048
 6642TIP3   OH241484   0.327   4.240   2.439
 6642TIP3    H141485   0.420   4.222   2.454
 6642TIP3    H241486   0.285   4.154   2.441
 6643TIP3   OH241487   3.399   2.835   8.604
 6643TIP3    H141488   3.468   2.775   8.577
 6643TIP3    H241489   3.440   2.921   8.601
 6644TIP3   OH241490   3.476   1.840   2.405
 6644TIP3    H141491   3.473   1.760   2.353
 6644TIP3    H241492   3.461   1.910   2.342
 6645TIP3   OH241493   5.407   3.872   2.340
 6645TIP3    H141494   5.330   3.893   2.287
 6645TIP3    H241495   5.461   3.816   2.284
 6646TIP3   OH241496   0.929   1.062   0.506
 6646TIP3    H141497   0.873   1.031   0.577
 6646TIP3    H241498   0.914   0.999   0.435
 6647TIP3   OH241499   1.045   2.876   0.600
 6647TIP3    H141500   1.124   2.825   0.580
 6647TIP3    H241501   0.993   2.817   0.655
 6648TIP3   OH241502   6.048   2.471   8.368
 6648TIP3    H141503   5.953   2.475   8.363
 6648TIP3    H241504   6.079   2.531   8.300
 6649TIP3   OH241505   1.420   6.839   0.196
 6649TIP3    H141506   1.512   6.858   0.211
 6649TIP3    H241507   1.419   6.779   0.121
 6650TIP3   OH241508   1.682   4.964   8.520
 6650TIP3    H141509   1.747   4.905   8.482
 6650TIP3    H241510   1.666   5.029   8.452
 6651TIP3   OH241511   6.837   5.284   8.345
 6651TIP3    H141512   6.873   5.262   8.430
 6651TIP3    H241513   0.010   5.234   8.283
 6652TIP3   OH241514   6.769   4.475   1.112
 6652TIP3    H141515   6.859   4.480   1.081
 6652TIP3    H241516   6.723   4.544   1.064
 6653TIP3   OH241517   5.009   4.700   7.105
 6653TIP3    H141518   5.025   4.748   7.024
 6653TIP3    H241519   5.005   4.608   7.078
 6654TIP3   OH241520   3.587   5.993   7.885
 6654TIP3    H141521   3.631   6.068   7.926
 6654TIP3    H241522   3.585   6.014   7.792
 6655TIP3   OH241523   3.418   0.528   1.627
 6655TIP3    H141524   3.506   0.496   1.647
 6655TIP3    H241525   3.387   0.470   1.557
 6656TIP3   OH241526   3.339   1.506   8.202
 6656TIP3    H141527   3.277   1.484   8.272
 6656TIP3    H241528   3.412   1.445   8.215
 6657TIP3   OH241529   4.385   3.167   7.655
 6657TIP3    H141530   4.471   3.167   7.697
 6657TIP3    H241531   4.384   3.086   7.604
 6658TIP3   OH241532   4.703   4.353   6.379
 6658TIP3    H141533   4.782   4.332   6.330
 6658TIP3    H241534   4.659   4.269   6.390
 6659TIP3   OH241535   5.123   2.139   6.653
 6659TIP3    H141536   5.044   2.121   6.602
 6659TIP3    H241537   5.192   2.152   6.588
 6660TIP3   OH241538   6.696   5.635   1.738
 6660TIP3    H141539   6.650   5.567   1.787
 6660TIP3    H241540   6.736   5.590   1.664
 6661TIP3   OH241541   2.468   0.717   8.510
 6661TIP3    H141542   2.423   0.658   8.570
 6661TIP3    H241543   2.512   0.659   8.447
 6662TIP3   OH241544   2.367   5.115   7.548
 6662TIP3    H141545   2.408   5.123   7.634
 6662TIP3    H241546   2.315   5.195   7.539
 6663TIP3   OH241547   3.848   1.759   8.079
 6663TIP3    H141548   3.881   1.769   8.168
 6663TIP3    H241549   3.757   1.733   8.090
 6664TIP3   OH241550   3.165   4.739   1.196
 6664TIP3    H141551   3.079   4.733   1.153
 6664TIP3    H241552   3.222   4.777   1.130
 6665TIP3   OH241553   1.054   5.103   7.250
 6665TIP3    H141554   1.149   5.096   7.241
 6665TIP3    H241555   1.027   5.022   7.292
 6666TIP3   OH241556   6.142   1.504   1.475
 6666TIP3    H141557   6.135   1.597   1.456
 6666TIP3    H241558   6.058   1.467   1.446
 6667TIP3   OH241559   4.299   6.750   7.279
 6667TIP3    H141560   4.389   6.721   7.291
 6667TIP3    H241561   4.308   6.842   7.254
 6668TIP3   OH241562   0.436   1.716   8.480
 6668TIP3    H141563   0.505   1.780   8.497
 6668TIP3    H241564   0.480   1.642   8.439
 6669TIP3   OH241565   5.514   2.759   0.351
 6669TIP3    H141566   5.491   2.724   0.265
 6669TIP3    H241567   5.533   2.681   0.404
 6670TIP3   OH241568   2.825   2.069   1.925
 6670TIP3    H141569   2.741   2.106   1.897
 6670TIP3    H241570   2.822   2.074   2.020
 6671TIP3   OH241571   5.471   0.760   6.837
 6671TIP3    H141572   5.551   0.732   6.793
 6671TIP3    H241573   5.483   0.735   6.929
 6672TIP3   OH241574   2.605   0.010   8.006
 6672TIP3    H141575   2.616   6.872   7.912
 6672TIP3    H241576   2.653   6.819   8.048
 6673TIP3   OH241577   1.042   3.091   0.753
 6673TIP3    H141578   1.030   3.052   0.666
 6673TIP3    H241579   0.968   3.058   0.804
 6674TIP3   OH241580   3.426   4.822   0.166
 6674TIP3    H141581   3.504   4.767   0.165
 6674TIP3    H241582   3.454   4.903   0.209
 6675TIP3   OH241583   3.961   5.007   2.053
 6675TIP3    H141584   4.035   4.946   2.055
 6675TIP3    H241585   3.894   4.966   2.108
 6676TIP3   OH241586   3.747   6.282   7.209
 6676TIP3    H141587   3.693   6.359   7.223
 6676TIP3    H241588   3.688   6.208   7.225
 6677TIP3   OH241589   3.482   4.499   7.635
 6677TIP3    H141590   3.446   4.539   7.556
 6677TIP3    H241591   3.574   4.482   7.613
 6678TIP3   OH241592   5.220   6.729   1.834
 6678TIP3    H141593   5.170   6.667   1.887
 6678TIP3    H241594   5.162   6.751   1.761
 6679TIP3   OH241595   4.739   3.983   7.121
 6679TIP3    H141596   4.663   3.927   7.105
 6679TIP3    H241597   4.702   4.068   7.143
 6680TIP3   OH241598   2.054   2.340   7.928
 6680TIP3    H141599   1.985   2.405   7.926
 6680TIP3    H241600   2.009   2.256   7.934
 6681TIP3   OH241601   5.466   4.844   7.064
 6681TIP3    H141602   5.443   4.763   7.018
 6681TIP3    H241603   5.470   4.911   6.996
 6682TIP3   OH241604   4.935   5.592   7.259
 6682TIP3    H141605   4.865   5.657   7.262
 6682TIP3    H241606   4.939   5.557   7.349
 6683TIP3   OH241607   4.208   5.595   1.202
 6683TIP3    H141608   4.140   5.572   1.139
 6683TIP3    H241609   4.268   5.521   1.201
 6684TIP3   OH241610   6.238   3.122   7.926
 6684TIP3    H141611   6.243   3.140   8.020
 6684TIP3    H241612   6.247   3.207   7.885
 6685TIP3   OH241613   2.962   5.046   8.456
 6685TIP3    H141614   2.997   4.994   8.384
 6685TIP3    H241615   2.960   5.135   8.423
 6686TIP3   OH241616   4.272   1.974   6.755
 6686TIP3    H141617   4.284   2.053   6.702
 6686TIP3    H241618   4.220   1.915   6.700
 6687TIP3   OH241619   2.092   0.790   7.941
 6687TIP3    H141620   2.047   0.739   7.873
 6687TIP3    H241621   2.026   0.803   8.009
 6688TIP3   OH241622   1.341   2.224   8.370
 6688TIP3    H141623   1.313   2.280   8.297
 6688TIP3    H241624   1.306   2.137   8.347
 6689TIP3   OH241625   1.103   3.334   1.787
 6689TIP3    H141626   1.163   3.261   1.769
 6689TIP3    H241627   1.055   3.306   1.865
 6690TIP3   OH241628   5.856   4.400   0.434
 6690TIP3    H141629   5.950   4.422   0.434
 6690TIP3    H241630   5.836   4.383   0.526
 6691TIP3   OH241631   3.110   5.195   0.492
 6691TIP3    H141632   3.148   5.171   0.407
 6691TIP3    H241633   3.183   5.189   0.553
 6692TIP3   OH241634   0.615   4.052   0.905
 6692TIP3    H141635   0.529   4.057   0.864
 6692TIP3    H241636   0.661   4.130   0.875
 6693TIP3   OH241637   0.306   3.064   7.944
 6693TIP3    H141638   0.264   3.029   7.866
 6693TIP3    H241639   0.241   3.122   7.983
 6694TIP3   OH241640   1.403   6.219   1.582
 6694TIP3    H141641   1.458   6.167   1.523
 6694TIP3    H241642   1.347   6.154   1.625
 6695TIP3   OH241643   6.614   2.347   7.185
 6695TIP3    H141644   6.612   2.377   7.094
 6695TIP3    H241645   6.551   2.275   7.188
 6696TIP3   OH241646   5.322   4.785   6.592
 6696TIP3    H141647   5.379   4.791   6.515
 6696TIP3    H241648   5.378   4.746   6.659
 6697TIP3   OH241649   4.788   0.911   0.341
 6697TIP3    H141650   4.752   0.877   0.423
 6697TIP3    H241651   4.881   0.888   0.343
 6698TIP3   OH241652   4.258   2.523   7.404
 6698TIP3    H141653   4.288   2.487   7.488
 6698TIP3    H241654   4.189   2.585   7.428
 6699TIP3   OH241655   5.512   3.067   0.815
 6699TIP3    H141656   5.521   2.982   0.773
 6699TIP3    H241657   5.570   3.125   0.766
 6700TIP3   OH241658   4.532   3.201   6.546
 6700TIP3    H141659   4.542   3.281   6.598
 6700TIP3    H241660   4.542   3.130   6.609
 6701TIP3   OH241661   3.198   4.918   8.040
 6701TIP3    H141662   3.287   4.892   8.017
 6701TIP3    H241663   3.142   4.852   7.998
 6702TIP3   OH241664   1.101   1.527   8.172
 6702TIP3    H141665   1.090   1.448   8.120
 6702TIP3    H241666   1.124   1.494   8.260
 6703TIP3   OH241667   6.281   0.219   2.356
 6703TIP3    H141668   6.263   0.131   2.325
 6703TIP3    H241669   6.247   0.221   2.445
 6704TIP3   OH241670   3.905   2.602   1.589
 6704TIP3    H141671   3.819   2.591   1.630
 6704TIP3    H241672   3.901   2.549   1.510
 6705TIP3   OH241673   2.248   3.036   7.445
 6705TIP3    H141674   2.332   3.080   7.437
 6705TIP3    H241675   2.184   3.107   7.443
 6706TIP3   OH241676   2.812   2.370   7.745
 6706TIP3    H141677   2.903   2.340   7.752
 6706TIP3    H241678   2.776   2.352   7.832
 6707TIP3   OH241679   3.721   1.984   1.226
 6707TIP3    H141680   3.662   2.039   1.175
 6707TIP3    H241681   3.712   1.897   1.187
 6708TIP3   OH241682   2.645   5.476   7.358
 6708TIP3    H141683   2.707   5.403   7.355
 6708TIP3    H241684   2.576   5.450   7.297
 6709TIP3   OH241685   5.452   5.652   1.126
 6709TIP3    H141686   5.546   5.640   1.110
 6709TIP3    H241687   5.449   5.703   1.207
 6710TIP3   OH241688   1.990   0.466   7.390
 6710TIP3    H141689   1.962   0.502   7.474
 6710TIP3    H241690   2.036   0.538   7.348
 6711TIP3   OH241691   0.604   2.908   1.002
 6711TIP3    H141692   0.545   2.874   0.935
 6711TIP3    H241693   0.579   2.861   1.081
 6712TIP3   OH241694   1.274   3.628   1.836
 6712TIP3    H141695   1.331   3.564   1.878
 6712TIP3    H241696   1.218   3.576   1.778
 6713TIP3   OH241697   2.605   3.570   8.054
 6713TIP3    H141698   2.591   3.509   8.126
 6713TIP3    H241699   2.569   3.653   8.085
 6714TIP3   OH241700   3.018   0.012   2.321
 6714TIP3    H141701   3.085   6.860   2.382
 6714TIP3    H241702   3.067   0.034   2.242
 6715TIP3   OH241703   2.856   6.108   2.123
 6715TIP3    H141704   2.762   6.092   2.111
 6715TIP3    H241705   2.887   6.031   2.171
 6716TIP3   OH241706   2.175   0.949   1.788
 6716TIP3    H141707   2.166   0.855   1.775
 6716TIP3    H241708   2.210   0.959   1.876
 6717TIP3   OH241709   5.246   1.582   1.671
 6717TIP3    H141710   5.182   1.570   1.600
 6717TIP3    H241711   5.331   1.575   1.628
 6718TIP3   OH241712   0.808   6.623   8.542
 6718TIP3    H141713   0.732   6.653   8.593
 6718TIP3    H241714   0.850   6.558   8.599
 6719TIP3   OH241715   2.350   0.037   1.309
 6719TIP3    H141716   2.392   6.830   1.308
 6719TIP3    H241717   2.313   0.045   1.397
 6720TIP3   OH241718   5.584   4.964   0.765
 6720TIP3    H141719   5.558   4.924   0.848
 6720TIP3    H241720   5.502   4.976   0.718
 6721TIP3   OH241721   0.153   0.358   8.191
 6721TIP3    H141722   0.071   0.313   8.208
 6721TIP3    H241723   0.171   0.341   8.099
 6722TIP3   OH241724   6.186   3.360   1.612
 6722TIP3    H141725   6.194   3.420   1.687
 6722TIP3    H241726   6.259   3.384   1.555
 6723TIP3   OH241727   4.356   3.856   7.702
 6723TIP3    H141728   4.359   3.795   7.629
 6723TIP3    H241729   4.363   3.802   7.780
 6724TIP3   OH241730   2.371   4.830   1.329
 6724TIP3    H141731   2.340   4.760   1.272
 6724TIP3    H241732   2.387   4.787   1.413
 6725TIP3   OH241733   6.867   2.126   7.095
 6725TIP3    H141734   0.054   2.134   7.164
 6725TIP3    H241735   0.003   2.201   7.038
 6726TIP3   OH241736   6.436   0.264   2.108
 6726TIP3    H141737   6.459   0.173   2.089
 6726TIP3    H241738   6.420   0.266   2.202
 6727TIP3   OH241739   3.921   2.788   0.057
 6727TIP3    H141740   3.842   2.735   0.044
 6727TIP3    H241741   3.926   2.843   8.603
 6728TIP3   OH241742   5.727   0.028   1.583
 6728TIP3    H141743   5.799   0.089   1.601
 6728TIP3    H241744   5.722   0.025   1.487
 6729TIP3   OH241745   4.128   2.440   6.949
 6729TIP3    H141746   4.187   2.410   7.018
 6729TIP3    H241747   4.185   2.487   6.887
 6730TIP3   OH241748   0.257   1.709   6.841
 6730TIP3    H141749   0.301   1.784   6.802
 6730TIP3    H241750   0.170   1.740   6.864
 6731TIP3   OH241751   0.046   0.237   1.063
 6731TIP3    H141752   0.088   0.192   1.136
 6731TIP3    H241753   0.081   0.326   1.067
 6732TIP3   OH241754   0.167   0.221   0.793
 6732TIP3    H141755   0.160   0.236   0.887
 6732TIP3    H241756   0.240   0.160   0.784
 6733TIP3   OH241757   5.669   2.699   1.518
 6733TIP3    H141758   5.609   2.689   1.592
 6733TIP3    H241759   5.612   2.718   1.443
 6734TIP3   OH241760   5.185   0.531   8.162
 6734TIP3    H141761   5.111   0.545   8.221
 6734TIP3    H241762   5.219   0.444   8.186
 6735TIP3   OH241763   3.814   1.756   8.602
 6735TIP3    H141764   3.905   1.767   0.006
 6735TIP3    H241765   3.800   1.661   8.605
 6736TIP3   OH241766   6.250   4.531   6.954
 6736TIP3    H141767   6.306   4.460   6.985
 6736TIP3    H241768   6.190   4.548   7.027
 6737TIP3   OH241769   0.082   4.179   6.838
 6737TIP3    H141770   0.146   4.246   6.862
 6737TIP3    H241771   0.133   4.099   6.828
 6738TIP3   OH241772   5.480   4.880   1.004
 6738TIP3    H141773   5.548   4.839   1.059
 6738TIP3    H241774   5.423   4.807   0.979
 6739TIP3   OH241775   3.330   3.719   0.072
 6739TIP3    H141776   3.381   3.734   0.151
 6739TIP3    H241777   3.394   3.688   0.008
 6740TIP3   OH241778   2.051   5.333   7.124
 6740TIP3    H141779   1.970   5.282   7.126
 6740TIP3    H241780   2.117   5.273   7.159
 6741TIP3   OH241781   3.095   6.617   6.666
 6741TIP3    H141782   3.032   6.550   6.694
 6741TIP3    H241783   3.173   6.568   6.642
 6742TIP3   OH241784   6.768   6.663   0.719
 6742TIP3    H141785   6.754   6.683   0.626
 6742TIP3    H241786   6.858   6.632   0.724
 6743TIP3   OH241787   4.588   5.716   0.030
 6743TIP3    H141788   4.541   5.673   0.101
 6743TIP3    H241789   4.677   5.682   0.035
 6744TIP3   OH241790   0.183   0.532   0.391
 6744TIP3    H141791   0.256   0.594   0.381
 6744TIP3    H241792   0.224   0.446   0.384
 6745TIP3   OH241793   3.036   2.104   6.344
 6745TIP3    H141794   2.981   2.176   6.372
 6745TIP3    H241795   3.125   2.132   6.367
 6746TIP3   OH241796   5.947   6.850   7.312
 6746TIP3    H141797   5.853   6.853   7.330
 6746TIP3    H241798   5.981   6.786   7.374
 6747TIP3   OH241799   0.650   6.540   8.353
 6747TIP3    H141800   0.725   6.563   8.408
 6747TIP3    H241801   0.596   6.484   8.408
 6748TIP3   OH241802   2.384   1.849   1.928
 6748TIP3    H141803   2.384   1.756   1.950
 6748TIP3    H241804   2.444   1.888   1.991
 6749TIP3   OH241805   3.520   1.122   7.594
 6749TIP3    H141806   3.496   1.079   7.512
 6749TIP3    H241807   3.436   1.139   7.637
 6750TIP3   OH241808   3.977   0.184   8.062
 6750TIP3    H141809   3.906   0.169   8.125
 6750TIP3    H241810   4.051   0.211   8.116
 6751TIP3   OH241811   3.385   5.055   8.211
 6751TIP3    H141812   3.332   5.131   8.236
 6751TIP3    H241813   3.323   4.982   8.210
 6752TIP3   OH241814   1.647   1.346   1.390
 6752TIP3    H141815   1.659   1.260   1.348
 6752TIP3    H241816   1.553   1.360   1.388
 6753TIP3   OH241817   4.882   2.586   1.294
 6753TIP3    H141818   4.786   2.589   1.299
 6753TIP3    H241819   4.901   2.564   1.203
 6754TIP3   OH241820   4.030   1.562   1.155
 6754TIP3    H141821   4.083   1.489   1.124
 6754TIP3    H241822   4.083   1.603   1.223
 6755TIP3   OH241823   2.036   1.164   0.054
 6755TIP3    H141824   2.081   1.144   0.136
 6755TIP3    H241825   2.076   1.245   0.024
 6756TIP3   OH241826   5.487   2.081   0.154
 6756TIP3    H141827   5.520   2.089   0.244
 6756TIP3    H241828   5.511   2.164   0.112
 6757TIP3   OH241829   5.093   0.051   0.716
 6757TIP3    H141830   5.077   6.840   0.689
 6757TIP3    H241831   5.164   0.080   0.659
 6758TIP3   OH241832   2.041   5.900   7.949
 6758TIP3    H141833   2.112   5.879   7.888
 6758TIP3    H241834   2.084   5.943   8.023
 6759TIP3   OH241835   2.202   3.489   2.193
 6759TIP3    H141836   2.109   3.488   2.169
 6759TIP3    H241837   2.232   3.577   2.169
 6760TIP3   OH241838   3.990   4.539   2.140
 6760TIP3    H141839   4.070   4.544   2.087
 6760TIP3    H241840   4.009   4.595   2.215
 6761TIP3   OH241841   4.717   4.728   1.605
 6761TIP3    H141842   4.751   4.734   1.694
 6761TIP3    H241843   4.646   4.664   1.610
 6762TIP3   OH241844   4.419   5.003   0.540
 6762TIP3    H141845   4.342   4.954   0.510
 6762TIP3    H241846   4.488   4.980   0.478
 6763TIP3   OH241847   0.471   4.529   2.044
 6763TIP3    H141848   0.443   4.594   2.109
 6763TIP3    H241849   0.551   4.492   2.081
 6764TIP3   OH241850   0.971   6.186   6.856
 6764TIP3    H141851   0.950   6.265   6.806
 6764TIP3    H241852   0.986   6.218   6.945
 6765TIP3   OH241853   1.996   1.799   8.052
 6765TIP3    H141854   1.928   1.734   8.071
 6765TIP3    H241855   2.072   1.769   8.101
 6766TIP3   OH241856   0.822   1.842   6.792
 6766TIP3    H141857   0.759   1.859   6.722
 6766TIP3    H241858   0.876   1.921   6.796
 6767TIP3   OH241859   0.918   5.892   8.188
 6767TIP3    H141860   0.859   5.870   8.260
 6767TIP3    H241861   0.862   5.939   8.126
 6768TIP3   OH241862   0.383   0.006   2.174
 6768TIP3    H141863   0.336   6.832   2.238
 6768TIP3    H241864   0.448   6.827   2.137
 6769TIP3   OH241865   1.561   5.793   0.784
 6769TIP3    H141866   1.524   5.739   0.715
 6769TIP3    H241867   1.584   5.875   0.741
 6770TIP3   OH241868   2.709   1.235   0.619
 6770TIP3    H141869   2.768   1.165   0.645
 6770TIP3    H241870   2.640   1.190   0.569
 6771TIP3   OH241871   2.404   5.583   6.890
 6771TIP3    H141872   2.474   5.517   6.897
 6771TIP3    H241873   2.442   5.661   6.930
 6772TIP3   OH241874   1.108   4.700   7.502
 6772TIP3    H141875   1.071   4.637   7.563
 6772TIP3    H241876   1.203   4.690   7.511
 6773TIP3   OH241877   0.429   3.136   7.539
 6773TIP3    H141878   0.471   3.099   7.462
 6773TIP3    H241879   0.340   3.098   7.538
 6774TIP3   OH241880   6.466   5.292   8.386
 6774TIP3    H141881   6.422   5.336   8.314
 6774TIP3    H241882   6.526   5.231   8.344
 6775TIP3   OH241883   5.079   3.207   0.860
 6775TIP3    H141884   5.040   3.269   0.799
 6775TIP3    H241885   5.150   3.165   0.811
 6776TIP3   OH241886   0.721   3.720   7.905
 6776TIP3    H141887   0.681   3.681   7.827
 6776TIP3    H241888   0.693   3.811   7.904
 6777TIP3   OH241889   4.397   0.641   0.221
 6777TIP3    H141890   4.421   0.602   0.137
 6777TIP3    H241891   4.301   0.640   0.221
 6778TIP3   OH241892   1.077   6.403   0.673
 6778TIP3    H141893   1.143   6.398   0.604
 6778TIP3    H241894   1.126   6.423   0.753
 6779TIP3   OH241895   2.796   5.256   7.429
 6779TIP3    H141896   2.761   5.177   7.470
 6779TIP3    H241897   2.891   5.243   7.429
 6780TIP3   OH241898   4.248   0.918   7.567
 6780TIP3    H141899   4.335   0.953   7.584
 6780TIP3    H241900   4.214   0.896   7.654
 6781TIP3   OH241901   2.023   1.490   7.383
 6781TIP3    H141902   2.069   1.410   7.356
 6781TIP3    H241903   2.022   1.544   7.304
 6782TIP3   OH241904   4.864   4.117   8.237
 6782TIP3    H141905   4.874   4.040   8.181
 6782TIP3    H241906   4.859   4.191   8.176
 6783TIP3   OH241907   4.748   3.826   0.343
 6783TIP3    H141908   4.661   3.863   0.329
 6783TIP3    H241909   4.732   3.742   0.384
 6784TIP3   OH241910   0.051   4.827   2.085
 6784TIP3    H141911   0.020   4.894   2.147
 6784TIP3    H241912   0.082   4.756   2.141
 6785TIP3   OH241913   5.660   2.790   8.488
 6785TIP3    H141914   5.579   2.739   8.492
 6785TIP3    H241915   5.650   2.856   8.556
 6786TIP3   OH241916   0.141   2.350   7.431
 6786TIP3    H141917   0.210   2.287   7.447
 6786TIP3    H241918   0.126   2.347   7.337
 6787TIP3   OH241919   4.159   0.742   0.639
 6787TIP3    H141920   4.239   0.715   0.596
 6787TIP3    H241921   4.104   0.663   0.639
 6788TIP3   OH241922   5.696   3.503   6.537
 6788TIP3    H141923   5.687   3.523   6.444
 6788TIP3    H241924   5.617   3.540   6.578
 6789TIP3   OH241925   5.428   6.701   2.017
 6789TIP3    H141926   5.358   6.735   1.962
 6789TIP3    H241927   5.451   6.773   2.075
 6790TIP3   OH241928   3.554   4.662   6.292
 6790TIP3    H141929   3.614   4.674   6.365
 6790TIP3    H241930   3.599   4.701   6.217
 6791TIP3   OH241931   5.182   3.863   7.338
 6791TIP3    H141932   5.226   3.895   7.259
 6791TIP3    H241933   5.250   3.866   7.405
 6792TIP3   OH241934   1.166   2.375   7.695
 6792TIP3    H141935   1.218   2.310   7.648
 6792TIP3    H241936   1.129   2.430   7.627
 6793TIP3   OH241937   0.460   3.473   7.311
 6793TIP3    H141938   0.380   3.519   7.338
 6793TIP3    H241939   0.431   3.413   7.242
 6794TIP3   OH241940   0.899   3.624   6.296
 6794TIP3    H141941   0.994   3.640   6.293
 6794TIP3    H241942   0.869   3.640   6.206
 6795TIP3   OH241943   1.595   1.759   6.447
 6795TIP3    H141944   1.505   1.761   6.412
 6795TIP3    H241945   1.621   1.667   6.441
 6796TIP3   OH241946   2.130   6.625   6.159
 6796TIP3    H141947   2.132   6.679   6.079
 6796TIP3    H241948   2.161   6.539   6.130
 6797TIP3   OH241949   0.374   6.619   7.253
 6797TIP3    H141950   0.299   6.668   7.220
 6797TIP3    H241951   0.361   6.615   7.348
 6798TIP3   OH241952   5.953   6.601   1.421
 6798TIP3    H141953   6.007   6.530   1.387
 6798TIP3    H241954   5.953   6.588   1.516
 6799TIP3   OH241955   4.032   6.878   8.614
 6799TIP3    H141956   3.986   6.794   8.620
 6799TIP3    H241957   4.049   0.023   0.081
 6800TIP3   OH241958   2.168   1.814   0.104
 6800TIP3    H141959   2.086   1.860   0.124
 6800TIP3    H241960   2.141   1.724   0.087
 6801TIP3   OH241961   3.114   6.214   0.553
 6801TIP3    H141962   3.106   6.143   0.490
 6801TIP3    H241963   3.206   6.213   0.579
 6802TIP3   OH241964   4.778   5.768   1.455
 6802TIP3    H141965   4.754   5.737   1.543
 6802TIP3    H241966   4.841   5.838   1.471
 6803TIP3   OH241967   0.222   5.440   0.100
 6803TIP3    H141968   0.278   5.445   0.178
 6803TIP3    H241969   0.191   5.529   0.087
 6804TIP3   OH241970   4.039   3.013   6.754
 6804TIP3    H141971   4.018   3.050   6.669
 6804TIP3    H241972   3.989   3.066   6.817
 6805TIP3   OH241973   1.881   4.545   0.929
 6805TIP3    H141974   1.916   4.558   0.841
 6805TIP3    H241975   1.866   4.634   0.962
 6806TIP3   OH241976   2.556   5.383   7.637
 6806TIP3    H141977   2.616   5.370   7.564
 6806TIP3    H241978   2.533   5.294   7.665
 6807TIP3   OH241979   2.481   2.775   6.861
 6807TIP3    H141980   2.505   2.867   6.876
 6807TIP3    H241981   2.410   2.759   6.923
 6808TIP3   OH241982   5.531   6.281   1.833
 6808TIP3    H141983   5.462   6.246   1.777
 6808TIP3    H241984   5.612   6.242   1.800
 6809TIP3   OH241985   6.328   5.701   1.475
 6809TIP3    H141986   6.303   5.688   1.567
 6809TIP3    H241987   6.330   5.796   1.465
 6810TIP3   OH241988   2.157   5.644   6.822
 6810TIP3    H141989   2.099   5.567   6.829
 6810TIP3    H241990   2.243   5.611   6.848
 6811TIP3   OH241991   4.097   5.226   1.927
 6811TIP3    H141992   4.187   5.204   1.950
 6811TIP3    H241993   4.045   5.157   1.968
 6812TIP3   OH241994   5.735   6.014   1.334
 6812TIP3    H141995   5.716   6.097   1.291
 6812TIP3    H241996   5.706   6.026   1.424
 6813TIP3   OH241997   1.671   2.692   8.554
 6813TIP3    H141998   1.695   2.754   8.486
 6813TIP3    H241999   1.615   2.628   8.510
 6814TIP3   OH242000   1.001   0.234   6.138
 6814TIP3    H142001   1.011   0.293   6.213
 6814TIP3    H242002   0.941   0.279   6.079
 6815TIP3   OH242003   1.755   2.873   8.072
 6815TIP3    H142004   1.704   2.950   8.045
 6815TIP3    H242005   1.845   2.904   8.077
 6816TIP3   OH242006   0.028   1.839   0.300
 6816TIP3    H142007   0.063   1.832   0.211
 6816TIP3    H242008   6.859   1.921   0.301
 6817TIP3   OH242009   4.339   3.703   7.929
 6817TIP3    H142010   4.320   3.609   7.922
 6817TIP3    H242011   4.430   3.707   7.958
 6818TIP3   OH242012   2.436   6.515   0.401
 6818TIP3    H142013   2.422   6.607   0.419
 6818TIP3    H242014   2.522   6.512   0.357
 6819TIP3   OH242015   0.235   5.819   1.876
 6819TIP3    H142016   0.327   5.834   1.898
 6819TIP3    H242017   0.196   5.906   1.874
 6820TIP3   OH242018   3.153   0.971   7.434
 6820TIP3    H142019   3.236   1.011   7.407
 6820TIP3    H242020   3.169   0.877   7.430
 6821TIP3   OH242021   5.622   2.935   1.312
 6821TIP3    H142022   5.583   2.933   1.225
 6821TIP3    H242023   5.551   2.962   1.370
 6822TIP3   OH242024   0.571   2.722   0.322
 6822TIP3    H142025   0.592   2.769   0.403
 6822TIP3    H242026   0.651   2.728   0.270
 6823TIP3   OH242027   6.200   5.915   2.512
 6823TIP3    H142028   6.203   5.856   2.587
 6823TIP3    H242029   6.159   5.995   2.546
 6824TIP3   OH242030   2.423   6.155   1.648
 6824TIP3    H142031   2.487   6.125   1.713
 6824TIP3    H242032   2.475   6.196   1.579
 6825TIP3   OH242033   4.568   5.853   7.069
 6825TIP3    H142034   4.521   5.886   6.992
 6825TIP3    H242035   4.588   5.762   7.047
 6826TIP3   OH242036   1.957   5.556   8.011
 6826TIP3    H142037   1.916   5.499   7.947
 6826TIP3    H242038   2.050   5.558   7.987
 6827TIP3   OH242039   0.289   1.131   0.026
 6827TIP3    H142040   0.215   1.174   0.068
 6827TIP3    H242041   0.284   1.040   0.057
 6828TIP3   OH242042   0.627   4.930   8.051
 6828TIP3    H142043   0.710   4.883   8.042
 6828TIP3    H242044   0.648   5.020   8.027
 6829TIP3   OH242045   1.913   2.908   8.413
 6829TIP3    H142046   1.904   2.820   8.451
 6829TIP3    H242047   2.005   2.915   8.391
 6830TIP3   OH242048   1.321   0.551   6.670
 6830TIP3    H142049   1.226   0.559   6.664
 6830TIP3    H242050   1.343   0.589   6.755
 6831TIP3   OH242051   1.427   4.280   8.474
 6831TIP3    H142052   1.518   4.256   8.460
 6831TIP3    H242053   1.389   4.283   8.386
 6832TIP3   OH242054   5.779   5.955   7.512
 6832TIP3    H142055   5.805   5.946   7.604
 6832TIP3    H242056   5.786   5.867   7.476
 6833TIP3   OH242057   2.067   3.557   1.392
 6833TIP3    H142058   2.078   3.483   1.332
 6833TIP3    H242059   2.138   3.617   1.369
 6834TIP3   OH242060   3.287   0.664   0.842
 6834TIP3    H142061   3.247   0.700   0.921
 6834TIP3    H242062   3.326   0.581   0.871
 6835TIP3   OH242063   1.398   0.625   1.549
 6835TIP3    H142064   1.433   0.554   1.494
 6835TIP3    H242065   1.394   0.701   1.490
 6836TIP3   OH242066   0.294   6.707   0.492
 6836TIP3    H142067   0.352   6.707   0.415
 6836TIP3    H242068   0.231   6.777   0.475
 6837TIP3   OH242069   2.170   1.104   0.291
 6837TIP3    H142070   2.176   1.031   0.353
 6837TIP3    H242071   2.112   1.166   0.333
 6838TIP3   OH242072   5.134   3.867   8.485
 6838TIP3    H142073   5.167   3.917   8.410
 6838TIP3    H242074   5.148   3.776   8.460
 6839TIP3   OH242075   0.603   6.504   7.144
 6839TIP3    H142076   0.594   6.551   7.061
 6839TIP3    H242077   0.529   6.535   7.197
 6840TIP3   OH242078   2.134   3.249   1.400
 6840TIP3    H142079   2.169   3.290   1.322
 6840TIP3    H242080   2.039   3.247   1.387
 6841TIP3   OH242081   0.547   0.249   7.908
 6841TIP3    H142082   0.454   0.253   7.888
 6841TIP3    H242083   0.555   0.176   7.969
 6842TIP3   OH242084   4.400   0.177   1.208
 6842TIP3    H142085   4.364   0.174   1.297
 6842TIP3    H242086   4.343   0.118   1.158
 6843TIP3   OH242087   3.655   0.116   7.234
 6843TIP3    H142088   3.746   0.143   7.235
 6843TIP3    H242089   3.616   0.165   7.162
 6844TIP3   OH242090   3.056   6.388   1.159
 6844TIP3    H142091   3.016   6.409   1.244
 6844TIP3    H242092   3.125   6.325   1.180
 6845TIP3   OH242093   1.502   0.643   2.329
 6845TIP3    H142094   1.454   0.588   2.391
 6845TIP3    H242095   1.469   0.732   2.344
 6846TIP3   OH242096   4.084   5.515   0.240
 6846TIP3    H142097   4.006   5.505   0.185
 6846TIP3    H242098   4.134   5.435   0.225
 6847TIP3   OH242099   3.427   3.053   6.450
 6847TIP3    H142100   3.520   3.076   6.451
 6847TIP3    H242101   3.420   2.989   6.379
 6848TIP3   OH242102   1.140   1.089   7.557
 6848TIP3    H142103   1.059   1.062   7.602
 6848TIP3    H242104   1.133   1.049   7.470
 6849TIP3   OH242105   5.334   1.095   6.515
 6849TIP3    H142106   5.370   1.015   6.477
 6849TIP3    H242107   5.240   1.078   6.522
 6850TIP3   OH242108   2.636   3.170   0.925
 6850TIP3    H142109   2.630   3.257   0.886
 6850TIP3    H242110   2.546   3.138   0.930
 6851TIP3   OH242111   6.248   0.119   0.382
 6851TIP3    H142112   6.288   0.186   0.325
 6851TIP3    H242113   6.155   0.119   0.356
 6852TIP3   OH242114   5.930   5.158   1.816
 6852TIP3    H142115   5.950   5.160   1.910
 6852TIP3    H242116   6.014   5.139   1.774
 6853TIP3   OH242117   6.811   5.822   8.369
 6853TIP3    H142118   6.802   5.735   8.330
 6853TIP3    H242119   6.835   5.878   8.295
 6854TIP3   OH242120   2.921   6.388   7.912
 6854TIP3    H142121   2.968   6.359   7.834
 6854TIP3    H242122   2.986   6.384   7.983
 6855TIP3   OH242123   3.841   6.396   0.986
 6855TIP3    H142124   3.822   6.316   1.033
 6855TIP3    H242125   3.936   6.408   0.996
 6856TIP3   OH242126   6.256   2.329   0.380
 6856TIP3    H142127   6.307   2.307   0.458
 6856TIP3    H242128   6.204   2.405   0.406
 6857TIP3   OH242129   0.710   0.177   5.852
 6857TIP3    H142130   0.708   0.248   5.916
 6857TIP3    H242131   0.761   0.108   5.894
 6858TIP3   OH242132   6.504   1.109   8.136
 6858TIP3    H142133   6.428   1.166   8.130
 6858TIP3    H242134   6.468   1.021   8.148
 6859TIP3   OH242135   5.120   5.250   0.227
 6859TIP3    H142136   5.172   5.225   0.303
 6859TIP3    H242137   5.087   5.337   0.249
 6860TIP3   OH242138   4.679   2.653   0.546
 6860TIP3    H142139   4.758   2.617   0.505
 6860TIP3    H242140   4.710   2.694   0.626
 6861TIP3   OH242141   5.255   0.597   7.032
 6861TIP3    H142142   5.259   0.634   7.120
 6861TIP3    H242143   5.210   0.513   7.042
 6862TIP3   OH242144   1.878   5.302   1.801
 6862TIP3    H142145   1.937   5.363   1.844
 6862TIP3    H242146   1.869   5.229   1.862
 6863TIP3   OH242147   1.413   2.447   0.173
 6863TIP3    H142148   1.328   2.439   0.130
 6863TIP3    H242149   1.477   2.439   0.102
 6864TIP3   OH242150   1.749   2.068   1.292
 6864TIP3    H142151   1.829   2.047   1.244
 6864TIP3    H242152   1.750   2.011   1.368
 6865TIP3   OH242153   2.793   4.281   7.040
 6865TIP3    H142154   2.848   4.332   6.981
 6865TIP3    H242155   2.712   4.332   7.049
 6866TIP3   OH242156   3.534   3.286   1.004
 6866TIP3    H142157   3.605   3.247   1.056
 6866TIP3    H242158   3.576   3.358   0.958
 6867TIP3   OH242159   1.859   6.246   6.369
 6867TIP3    H142160   1.887   6.160   6.337
 6867TIP3    H242161   1.936   6.302   6.358
 6868TIP3   OH242162   0.190   4.138   6.517
 6868TIP3    H142163   0.141   4.062   6.546
 6868TIP3    H242164   0.187   4.134   6.422
 6869TIP3   OH242165   1.634   3.176   1.703
 6869TIP3    H142166   1.554   3.227   1.710
 6869TIP3    H242167   1.703   3.242   1.691
 6870TIP3   OH242168   4.209   5.372   0.652
 6870TIP3    H142169   4.233   5.438   0.716
 6870TIP3    H242170   4.142   5.413   0.598
 6871TIP3   OH242171   3.661   1.487   7.933
 6871TIP3    H142172   3.624   1.470   7.846
 6871TIP3    H242173   3.755   1.500   7.916
 6872TIP3   OH242174   1.358   3.756   1.272
 6872TIP3    H142175   1.423   3.763   1.202
 6872TIP3    H242176   1.288   3.702   1.234
 6873TIP3   OH242177   0.610   5.930   7.504
 6873TIP3    H142178   0.565   5.943   7.421
 6873TIP3    H242179   0.576   5.999   7.561
 6874TIP3   OH242180   0.292   4.370   6.902
 6874TIP3    H142181   0.352   4.358   6.976
 6874TIP3    H242182   0.343   4.340   6.826
 6875TIP3   OH242183   2.333   0.298   7.476
 6875TIP3    H142184   2.291   0.363   7.420
 6875TIP3    H242185   2.337   0.338   7.562
 6876TIP3   OH242186   6.266   0.113   1.474
 6876TIP3    H142187   6.206   0.055   1.427
 6876TIP3    H242188   6.246   0.098   1.567
 6877TIP3   OH242189   4.181   0.256   8.250
 6877TIP3    H142190   4.266   0.261   8.206
 6877TIP3    H242191   4.146   0.345   8.246
 6878TIP3   OH242192   2.429   1.684   0.729
 6878TIP3    H142193   2.409   1.727   0.646
 6878TIP3    H242194   2.456   1.756   0.787
 6879TIP3   OH242195   1.596   0.766   8.604
 6879TIP3    H142196   1.519   0.772   0.037
 6879TIP3    H242197   1.659   0.825   0.021
 6880TIP3   OH242198   3.007   4.794   0.262
 6880TIP3    H142199   2.927   4.772   0.215
 6880TIP3    H242200   2.984   4.869   0.316
 6881TIP3   OH242201   2.689   2.921   1.180
 6881TIP3    H142202   2.653   2.858   1.242
 6881TIP3    H242203   2.615   2.946   1.125
 6882TIP3   OH242204   5.961   3.286   7.731
 6882TIP3    H142205   5.890   3.240   7.776
 6882TIP3    H242206   6.027   3.218   7.715
 6883TIP3   OH242207   3.376   3.731   6.592
 6883TIP3    H142208   3.327   3.678   6.655
 6883TIP3    H242209   3.338   3.819   6.599
 6884TIP3   OH242210   3.711   2.349   1.742
 6884TIP3    H142211   3.619   2.339   1.716
 6884TIP3    H242212   3.706   2.387   1.830
 6885TIP3   OH242213   1.286   3.583   7.634
 6885TIP3    H142214   1.202   3.585   7.588
 6885TIP3    H242215   1.280   3.505   7.690
 6886TIP3   OH242216   6.609   2.581   7.686
 6886TIP3    H142217   6.667   2.633   7.631
 6886TIP3    H242218   6.560   2.527   7.624
 6887TIP3   OH242219   3.504   1.577   0.698
 6887TIP3    H142220   3.544   1.548   0.780
 6887TIP3    H242221   3.428   1.627   0.725
 6888TIP3   OH242222   6.666   3.256   0.542
 6888TIP3    H142223   6.603   3.190   0.513
 6888TIP3    H242224   6.645   3.270   0.635
 6889TIP3   OH242225   4.132   6.199   8.155
 6889TIP3    H142226   4.132   6.157   8.241
 6889TIP3    H242227   4.108   6.290   8.173
 6890TIP3   OH242228   6.618   2.490   6.952
 6890TIP3    H142229   6.613   2.458   6.863
 6890TIP3    H242230   6.531   2.529   6.968
 6891TIP3   OH242231   2.458   4.857   8.040
 6891TIP3    H142232   2.373   4.901   8.039
 6891TIP3    H242233   2.514   4.914   8.094
 6892TIP3   OH242234   6.613   5.448   7.337
 6892TIP3    H142235   6.586   5.526   7.289
 6892TIP3    H242236   6.697   5.424   7.299
 6893TIP3   OH242237   0.019   4.327   0.856
 6893TIP3    H142238   6.817   4.284   0.830
 6893TIP3    H242239   0.087   4.263   0.837
 6894TIP3   OH242240   6.545   3.201   7.193
 6894TIP3    H142241   6.575   3.205   7.102
 6894TIP3    H242242   6.604   3.260   7.240
 6895TIP3   OH242243   2.488   6.346   2.045
 6895TIP3    H142244   2.516   6.255   2.041
 6895TIP3    H242245   2.410   6.350   1.989
 6896TIP3   OH242246   2.519   4.425   7.853
 6896TIP3    H142247   2.538   4.385   7.938
 6896TIP3    H242248   2.582   4.385   7.793
 6897TIP3   OH242249   5.527   5.392   7.732
 6897TIP3    H142250   5.523   5.463   7.796
 6897TIP3    H242251   5.464   5.327   7.764
 6898TIP3   OH242252   5.424   1.840   7.620
 6898TIP3    H142253   5.361   1.875   7.557
 6898TIP3    H242254   5.429   1.747   7.600
 6899TIP3   OH242255   2.765   4.620   7.921
 6899TIP3    H142256   2.672   4.634   7.904
 6899TIP3    H242257   2.779   4.527   7.907
 6900TIP3   OH242258   3.278   6.173   7.779
 6900TIP3    H142259   3.322   6.215   7.853
 6900TIP3    H242260   3.187   6.204   7.785
 6901TIP3   OH242261   0.603   3.976   7.900
 6901TIP3    H142262   0.528   3.968   7.842
 6901TIP3    H242263   0.677   3.991   7.841
 6902TIP3   OH242264   0.677   3.760   8.578
 6902TIP3    H142265   0.652   3.841   8.533
 6902TIP3    H242266   0.629   3.692   8.533
 6903TIP3   OH242267   6.270   1.015   7.202
 6903TIP3    H142268   6.278   1.097   7.154
 6903TIP3    H242269   6.303   0.948   7.141
 6904TIP3   OH242270   6.365   6.203   6.264
 6904TIP3    H142271   6.287   6.184   6.212
 6904TIP3    H242272   6.382   6.121   6.311
 6905TIP3   OH242273   0.513   4.687   0.347
 6905TIP3    H142274   0.604   4.690   0.319
 6905TIP3    H242275   0.470   4.756   0.295
 6906TIP3   OH242276   3.913   2.723   0.798
 6906TIP3    H142277   3.968   2.670   0.740
 6906TIP3    H242278   3.839   2.666   0.819
 6907TIP3   OH242279   0.528   4.354   8.498
 6907TIP3    H142280   0.609   4.384   8.456
 6907TIP3    H242281   0.518   4.263   8.470
 6908TIP3   OH242282   1.853   2.117   0.651
 6908TIP3    H142283   1.931   2.163   0.682
 6908TIP3    H242284   1.877   2.086   0.564
 6909TIP3   OH242285   1.973   3.184   7.772
 6909TIP3    H142286   2.023   3.262   7.796
 6909TIP3    H242287   2.036   3.112   7.779
 6910TIP3   OH242288   5.872   4.316   0.090
 6910TIP3    H142289   5.918   4.243   0.047
 6910TIP3    H242290   5.780   4.290   0.088
 6911TIP3   OH242291   3.516   4.191   6.937
 6911TIP3    H142292   3.500   4.107   6.894
 6911TIP3    H242293   3.572   4.239   6.875
 6912TIP3   OH242294   1.003   0.784   8.164
 6912TIP3    H142295   0.942   0.775   8.238
 6912TIP3    H242296   0.987   0.706   8.111
 6913TIP3   OH242297   5.818   2.640   8.307
 6913TIP3    H142298   5.774   2.642   8.222
 6913TIP3    H242299   5.779   2.712   8.356
 6914TIP3   OH242300   5.209   3.046   8.273
 6914TIP3    H142301   5.175   3.131   8.300
 6914TIP3    H242302   5.212   2.994   8.354
 6915TIP3   OH242303   6.697   6.267   8.082
 6915TIP3    H142304   6.661   6.295   8.166
 6915TIP3    H242305   6.687   6.343   8.025
 6916TIP3   OH242306   4.069   0.489   7.993
 6916TIP3    H142307   4.141   0.550   8.007
 6916TIP3    H242308   4.058   0.445   8.076
 6917TIP3   OH242309   5.087   0.695   0.547
 6917TIP3    H142310   5.056   0.767   0.602
 6917TIP3    H242311   5.182   0.695   0.558
 6918TIP3   OH242312   0.142   3.254   8.064
 6918TIP3    H142313   0.074   3.211   8.117
 6918TIP3    H242314   0.179   3.320   8.123
 6919TIP3   OH242315   5.346   0.431   0.865
 6919TIP3    H142316   5.396   0.510   0.883
 6919TIP3    H242317   5.412   0.365   0.844
 6920TIP3   OH242318   3.154   0.091   7.431
 6920TIP3    H142319   3.107   0.144   7.495
 6920TIP3    H242320   3.150   0.141   7.350
 6921TIP3   OH242321   6.753   5.191   2.196
 6921TIP3    H142322   6.748   5.198   2.291
 6921TIP3    H242323   6.847   5.197   2.177
 6922TIP3   OH242324   2.623   1.394   1.542
 6922TIP3    H142325   2.580   1.328   1.487
 6922TIP3    H242326   2.553   1.454   1.567
 6923TIP3   OH242327   1.519   1.271   0.498
 6923TIP3    H142328   1.597   1.322   0.481
 6923TIP3    H242329   1.514   1.209   0.424
 6924TIP3   OH242330   4.896   1.868   0.258
 6924TIP3    H142331   4.844   1.829   0.188
 6924TIP3    H242332   4.907   1.960   0.232
 6925TIP3   OH242333   0.003   2.015   7.459
 6925TIP3    H142334   6.823   1.942   7.442
 6925TIP3    H242335   6.825   2.091   7.469
 6926TIP3   OH242336   3.106   5.398   1.132
 6926TIP3    H142337   3.186   5.451   1.134
 6926TIP3    H242338   3.134   5.311   1.159
 6927TIP3   OH242339   1.325   0.691   7.335
 6927TIP3    H142340   1.252   0.631   7.346
 6927TIP3    H242341   1.339   0.694   7.240
 6928TIP3   OH242342   3.892   6.037   8.401
 6928TIP3    H142343   3.972   6.044   8.453
 6928TIP3    H242344   3.829   5.994   8.459
 6929TIP3   OH242345   3.022   6.058   1.351
 6929TIP3    H142346   2.936   6.017   1.353
 6929TIP3    H242347   3.011   6.139   1.402
 6930TIP3   OH242348   1.589   4.356   0.845
 6930TIP3    H142349   1.643   4.303   0.787
 6930TIP3    H242350   1.607   4.323   0.933
 6931TIP3   OH242351   3.165   4.014   7.407
 6931TIP3    H142352   3.152   3.998   7.500
 6931TIP3    H242353   3.100   3.958   7.363
 6932TIP3   OH242354   1.162   1.342   7.158
 6932TIP3    H142355   1.086   1.284   7.158
 6932TIP3    H242356   1.126   1.430   7.160
 6933TIP3   OH242357   6.327   1.504   0.086
 6933TIP3    H142358   6.306   1.529   8.620
 6933TIP3    H242359   6.333   1.408   0.083
 6934TIP3   OH242360   0.545   1.172   1.833
 6934TIP3    H142361   0.529   1.078   1.819
 6934TIP3    H242362   0.475   1.215   1.783
 6935TIP3   OH242363   2.685   0.531   0.248
 6935TIP3    H142364   2.601   0.498   0.282
 6935TIP3    H242365   2.681   0.512   0.154
 6936TIP3   OH242366   2.713   6.646   1.518
 6936TIP3    H142367   2.644   6.663   1.583
 6936TIP3    H242368   2.670   6.591   1.452
 6937TIP3   OH242369   3.318   0.268   6.961
 6937TIP3    H142370   3.312   0.252   6.867
 6937TIP3    H242371   3.252   0.334   6.979
 6938TIP3   OH242372   1.302   0.330   0.438
 6938TIP3    H142373   1.232   0.265   0.437
 6938TIP3    H242374   1.369   0.293   0.496
 6939TIP3   OH242375   5.488   0.252   7.065
 6939TIP3    H142376   5.456   0.333   7.024
 6939TIP3    H242377   5.455   0.255   7.154
 6940TIP3   OH242378   6.290   6.135   7.565
 6940TIP3    H142379   6.286   6.219   7.611
 6940TIP3    H242380   6.304   6.158   7.473
 6941TIP3   OH242381   4.698   5.280   2.356
 6941TIP3    H142382   4.666   5.197   2.320
 6941TIP3    H242383   4.672   5.278   2.448
 6942TIP3   OH242384   4.339   3.738   1.159
 6942TIP3    H142385   4.389   3.814   1.188
 6942TIP3    H242386   4.274   3.774   1.099
 6943TIP3   OH242387   0.824   5.347   8.304
 6943TIP3    H142388   0.788   5.394   8.229
 6943TIP3    H242389   0.888   5.287   8.265
 6944TIP3   OH242390   0.349   6.190   6.440
 6944TIP3    H142391   0.440   6.213   6.422
 6944TIP3    H242392   0.345   6.095   6.425
 6945TIP3   OH242393   1.831   5.827   2.069
 6945TIP3    H142394   1.892   5.862   2.133
 6945TIP3    H242395   1.840   5.883   1.993
 6946TIP3   OH242396   4.261   3.511   1.056
 6946TIP3    H142397   4.309   3.442   1.100
 6946TIP3    H242398   4.309   3.591   1.077
 6947TIP3   OH242399   3.722   1.715   1.788
 6947TIP3    H142400   3.673   1.797   1.795
 6947TIP3    H242401   3.656   1.650   1.764
 6948TIP3   OH242402   1.508   2.988   7.888
 6948TIP3    H142403   1.582   3.046   7.907
 6948TIP3    H242404   1.549   2.905   7.863
 6949TIP3   OH242405   4.368   2.860   1.350
 6949TIP3    H142406   4.448   2.815   1.379
 6949TIP3    H242407   4.394   2.907   1.271
 6950TIP3   OH242408   0.942   0.552   8.027
 6950TIP3    H142409   0.854   0.585   8.009
 6950TIP3    H242410   0.987   0.557   7.943
 6951TIP3   OH242411   2.511   2.116   0.923
 6951TIP3    H142412   2.432   2.122   0.976
 6951TIP3    H242413   2.576   2.169   0.969
 6952TIP3   OH242414   6.101   6.610   8.482
 6952TIP3    H142415   6.007   6.605   8.466
 6952TIP3    H242416   6.119   6.539   8.543
 6953TIP3   OH242417   4.698   5.844   0.740
 6953TIP3    H142418   4.638   5.893   0.797
 6953TIP3    H242419   4.649   5.766   0.715
 6954TIP3   OH242420   4.005   2.288   1.129
 6954TIP3    H142421   3.975   2.375   1.156
 6954TIP3    H242422   3.931   2.251   1.081
 6955TIP3   OH242423   0.020   5.570   0.838
 6955TIP3    H142424   0.056   5.627   0.771
 6955TIP3    H242425   6.805   5.576   0.826
 6956TIP3   OH242426   3.055   0.769   7.956
 6956TIP3    H142427   3.040   0.800   7.867
 6956TIP3    H242428   2.968   0.749   7.990
 6957TIP3   OH242429   4.679   1.500   8.014
 6957TIP3    H142430   4.707   1.467   8.100
 6957TIP3    H242431   4.735   1.576   7.998
 6958TIP3   OH242432   2.822   5.876   6.724
 6958TIP3    H142433   2.856   5.789   6.744
 6958TIP3    H242434   2.734   5.860   6.689
 6959TIP3   OH242435   4.811   5.633   0.459
 6959TIP3    H142436   4.850   5.707   0.506
 6959TIP3    H242437   4.746   5.597   0.520
 6960TIP3   OH242438   0.759   0.546   7.111
 6960TIP3    H142439   0.692   0.613   7.118
 6960TIP3    H242440   0.835   0.591   7.075
 6961TIP3   OH242441   6.260   1.997   7.647
 6961TIP3    H142442   6.312   1.939   7.590
 6961TIP3    H242443   6.209   1.937   7.701
 6962TIP3   OH242444   6.602   1.455   7.565
 6962TIP3    H142445   6.690   1.448   7.602
 6962TIP3    H242446   6.543   1.454   7.640
 6963TIP3   OH242447   1.915   2.451   1.313
 6963TIP3    H142448   1.824   2.480   1.304
 6963TIP3    H242449   1.939   2.419   1.226
 6964TIP3   OH242450   3.100   3.561   7.204
 6964TIP3    H142451   3.171   3.499   7.216
 6964TIP3    H242452   3.122   3.634   7.262
 6965TIP3   OH242453   1.241   3.894   1.950
 6965TIP3    H142454   1.271   3.810   1.916
 6965TIP3    H242455   1.193   3.871   2.030
 6966TIP3   OH242456   5.021   1.858   0.516
 6966TIP3    H142457   5.079   1.857   0.440
 6966TIP3    H242458   4.933   1.848   0.479
 6967TIP3   OH242459   4.695   2.488   7.244
 6967TIP3    H142460   4.658   2.402   7.226
 6967TIP3    H242461   4.785   2.471   7.272
 6968TIP3   OH242462   6.003   5.814   2.335
 6968TIP3    H142463   5.954   5.895   2.344
 6968TIP3    H242464   6.085   5.830   2.381
 6969TIP3   OH242465   6.735   1.102   0.543
 6969TIP3    H142466   6.642   1.114   0.521
 6969TIP3    H242467   6.758   1.180   0.594
 6970TIP3   OH242468   4.259   4.290   6.978
 6970TIP3    H142469   4.262   4.377   6.940
 6970TIP3    H242470   4.332   4.243   6.937
 6971TIP3   OH242471   2.543   2.734   8.200
 6971TIP3    H142472   2.512   2.817   8.164
 6971TIP3    H242473   2.635   2.750   8.222
 6972TIP3   OH242474   3.605   0.951   1.323
 6972TIP3    H142475   3.520   0.907   1.325
 6972TIP3    H242476   3.634   0.944   1.232
 6973TIP3   OH242477   4.746   5.608   1.943
 6973TIP3    H142478   4.794   5.538   1.900
 6973TIP3    H242479   4.747   5.680   1.880
 6974TIP3   OH242480   4.218   2.322   7.635
 6974TIP3    H142481   4.198   2.364   7.718
 6974TIP3    H242482   4.176   2.236   7.640
 6975TIP3   OH242483   3.787   3.005   0.278
 6975TIP3    H142484   3.806   2.932   0.337
 6975TIP3    H242485   3.855   3.000   0.211
 6976TIP3   OH242486   1.872   5.666   0.564
 6976TIP3    H142487   1.778   5.648   0.562
 6976TIP3    H242488   1.877   5.761   0.565
 6977TIP3   OH242489   6.090   1.486   0.542
 6977TIP3    H142490   6.013   1.542   0.536
 6977TIP3    H242491   6.090   1.436   0.460
 6978TIP3   OH242492   4.608   1.169   8.205
 6978TIP3    H142493   4.555   1.135   8.133
 6978TIP3    H242494   4.697   1.138   8.187
 6979TIP3   OH242495   3.070   5.201   7.466
 6979TIP3    H142496   3.118   5.278   7.496
 6979TIP3    H242497   3.121   5.127   7.500
 6980TIP3   OH242498   6.602   2.493   1.196
 6980TIP3    H142499   6.561   2.571   1.234
 6980TIP3    H242500   6.566   2.420   1.247
 6981TIP3   OH242501   2.509   1.372   0.223
 6981TIP3    H142502   2.501   1.279   0.204
 6981TIP3    H242503   2.439   1.390   0.287
 6982TIP3   OH242504   0.052   3.887   0.978
 6982TIP3    H142505   0.070   3.979   0.957
 6982TIP3    H242506   6.836   3.882   0.985
 6983TIP3   OH242507   4.648   6.704   1.241
 6983TIP3    H142508   4.741   6.696   1.220
 6983TIP3    H242509   4.646   6.739   1.330
 6984TIP3   OH242510   0.142   6.576   0.074
 6984TIP3    H142511   0.092   6.499   0.046
 6984TIP3    H242512   0.076   6.645   0.085
 6985TIP3   OH242513   6.831   3.094   7.549
 6985TIP3    H142514   0.012   3.035   7.594
 6985TIP3    H242515   6.748   3.084   7.595
 6986TIP3   OH242516   1.237   1.741   7.738
 6986TIP3    H142517   1.228   1.719   7.645
 6986TIP3    H242518   1.320   1.702   7.764
 6987TIP3   OH242519   1.496   3.342   6.426
 6987TIP3    H142520   1.505   3.336   6.331
 6987TIP3    H242521   1.458   3.258   6.452
 6988TIP3   OH242522   5.890   1.339   2.362
 6988TIP3    H142523   5.838   1.292   2.427
 6988TIP3    H242524   5.873   1.431   2.379
 6989TIP3   OH242525   5.053   2.578   6.269
 6989TIP3    H142526   5.097   2.641   6.327
 6989TIP3    H242527   5.052   2.496   6.319
 6990TIP3   OH242528   3.791   4.946   0.135
 6990TIP3    H142529   3.730   4.924   0.206
 6990TIP3    H242530   3.791   5.042   0.132
 6991TIP3   OH242531   2.294   4.397   7.660
 6991TIP3    H142532   2.352   4.407   7.584
 6991TIP3    H242533   2.354   4.377   7.732
 6992TIP3   OH242534   3.246   3.112   5.811
 6992TIP3    H142535   3.273   3.161   5.889
 6992TIP3    H242536   3.162   3.150   5.787
 6993TIP3   OH242537   3.923   5.820   7.078
 6993TIP3    H142538   3.927   5.771   7.160
 6993TIP3    H242539   3.841   5.869   7.083
 6994TIP3   OH242540   4.350   0.869   6.424
 6994TIP3    H142541   4.276   0.853   6.365
 6994TIP3    H242542   4.392   0.783   6.432
 6995TIP3   OH242543   6.746   2.286   7.436
 6995TIP3    H142544   6.825   2.330   7.403
 6995TIP3    H242545   6.700   2.259   7.357
 6996TIP3   OH242546   5.756   6.154   0.772
 6996TIP3    H142547   5.763   6.098   0.695
 6996TIP3    H242548   5.842   6.195   0.779
 6997TIP3   OH242549   6.862   3.008   8.022
 6997TIP3    H142550   6.867   2.942   7.952
 6997TIP3    H242551   6.769   3.031   8.025
 6998TIP3   OH242552   3.147   3.833   6.982
 6998TIP3    H142553   3.141   3.924   7.009
 6998TIP3    H242554   3.070   3.819   6.926
 6999TIP3   OH242555   5.511   4.219   0.804
 6999TIP3    H142556   5.422   4.252   0.789
 6999TIP3    H242557   5.522   4.150   0.738
 7000TIP3   OH242558   6.727   5.436   7.772
 7000TIP3    H142559   6.810   5.482   7.760
 7000TIP3    H242560   6.662   5.490   7.727
 7001TIP3   OH242561   2.174   6.807   6.355
 7001TIP3    H142562   2.106   6.811   6.423
 7001TIP3    H242563   2.138   6.748   6.289
 7002TIP3   OH242564   5.678   0.780   1.177
 7002TIP3    H142565   5.699   0.732   1.096
 7002TIP3    H242566   5.605   0.731   1.216
 7003TIP3   OH242567   0.229   6.189   1.537
 7003TIP3    H142568   0.189   6.110   1.573
 7003TIP3    H242569   0.323   6.170   1.538
 7004TIP3   OH242570   2.501   2.258   7.856
 7004TIP3    H142571   2.440   2.243   7.929
 7004TIP3    H242572   2.459   2.327   7.804
 7005TIP3   OH242573   2.417   5.590   0.917
 7005TIP3    H142574   2.483   5.524   0.935
 7005TIP3    H242575   2.451   5.670   0.957
 7006TIP3   OH242576   6.696   4.877   8.140
 7006TIP3    H142577   6.701   4.930   8.220
 7006TIP3    H242578   6.615   4.826   8.151
 7007TIP3   OH242579   2.424   3.267   0.668
 7007TIP3    H142580   2.335   3.281   0.701
 7007TIP3    H242581   2.418   3.283   0.574
 7008TIP3   OH242582   0.594   6.732   0.045
 7008TIP3    H142583   0.592   6.826   0.027
 7008TIP3    H242584   0.522   6.718   0.107
 7009TIP3   OH242585   2.485   5.318   1.922
 7009TIP3    H142586   2.492   5.232   1.880
 7009TIP3    H242587   2.566   5.326   1.972
 7010TIP3   OH242588   4.001   4.201   6.625
 7010TIP3    H142589   4.014   4.276   6.567
 7010TIP3    H242590   4.074   4.142   6.605
 7011TIP3   OH242591   0.976   0.846   0.343
 7011TIP3    H142592   1.056   0.841   0.396
 7011TIP3    H242593   1.004   0.819   0.255
 7012TIP3   OH242594   0.247   0.918   0.185
 7012TIP3    H142595   0.237   0.893   0.277
 7012TIP3    H242596   0.207   0.846   0.136
 7013TIP3   OH242597   0.230   1.542   8.435
 7013TIP3    H142598   0.168   1.607   8.401
 7013TIP3    H242599   0.269   1.584   8.512
 7014TIP3   OH242600   4.983   6.791   0.195
 7014TIP3    H142601   4.996   6.744   0.278
 7014TIP3    H242602   4.888   6.797   0.186
 7015TIP3   OH242603   1.808   0.880   0.156
 7015TIP3    H142604   1.854   0.921   0.228
 7015TIP3    H242605   1.849   0.793   0.148
 7016TIP3   OH242606   0.200   4.127   0.938
 7016TIP3    H142607   0.270   4.152   0.878
 7016TIP3    H242608   0.208   4.188   1.011
 7017TIP3   OH242609   0.915   3.395   1.593
 7017TIP3    H142610   0.961   3.384   1.676
 7017TIP3    H242611   0.933   3.314   1.545
 7018TIP3   OH242612   6.612   5.482   1.070
 7018TIP3    H142613   6.641   5.539   0.999
 7018TIP3    H242614   6.592   5.542   1.142
 7019TIP3   OH242615   5.102   1.749   8.576
 7019TIP3    H142616   5.058   1.834   8.572
 7019TIP3    H242617   5.160   1.748   8.500
 7020TIP3   OH242618   0.071   5.853   0.739
 7020TIP3    H142619   0.146   5.854   0.679
 7020TIP3    H242620   6.874   5.845   0.682
 7021TIP3   OH242621   6.200   4.462   1.774
 7021TIP3    H142622   6.259   4.390   1.794
 7021TIP3    H242623   6.114   4.431   1.802
 7022TIP3   OH242624   2.906   4.149   8.314
 7022TIP3    H142625   2.859   4.128   8.233
 7022TIP3    H242626   2.925   4.243   8.306
 7023TIP3   OH242627   3.805   5.433   8.232
 7023TIP3    H142628   3.829   5.345   8.262
 7023TIP3    H242629   3.711   5.427   8.213
 7024TIP3   OH242630   6.205   6.771   0.506
 7024TIP3    H142631   6.151   6.743   0.433
 7024TIP3    H242632   6.264   6.837   0.469
 7025TIP3   OH242633   1.042   1.824   7.253
 7025TIP3    H142634   1.063   1.906   7.208
 7025TIP3    H242635   0.965   1.790   7.208
 7026TIP3   OH242636   3.780   4.030   0.225
 7026TIP3    H142637   3.696   4.036   0.179
 7026TIP3    H242638   3.801   3.936   0.224
 7027TIP3   OH242639   1.200   1.162   0.525
 7027TIP3    H142640   1.232   1.082   0.485
 7027TIP3    H242641   1.105   1.161   0.509
 7028TIP3   OH242642   1.693   2.519   6.989
 7028TIP3    H142643   1.738   2.576   6.926
 7028TIP3    H242644   1.601   2.524   6.965
 7029TIP3   OH242645   4.796   1.269   1.774
 7029TIP3    H142646   4.727   1.293   1.836
 7029TIP3    H242647   4.863   1.337   1.784
 7030TIP3   OH242648   6.178   4.953   7.172
 7030TIP3    H142649   6.092   4.993   7.159
 7030TIP3    H242650   6.207   4.927   7.085
 7031TIP3   OH242651   1.632   4.861   8.215
 7031TIP3    H142652   1.692   4.811   8.270
 7031TIP3    H242653   1.664   4.846   8.126
 7032TIP3   OH242654   5.712   0.649   0.265
 7032TIP3    H142655   5.673   0.736   0.264
 7032TIP3    H242656   5.689   0.611   0.180
 7033TIP3   OH242657   4.125   0.287   1.116
 7033TIP3    H142658   4.213   0.248   1.115
 7033TIP3    H242659   4.137   0.372   1.158
 7034TIP3   OH242660   0.684   5.014   6.470
 7034TIP3    H142661   0.620   4.942   6.473
 7034TIP3    H242662   0.647   5.076   6.406
 7035TIP3   OH242663   2.800   6.669   0.637
 7035TIP3    H142664   2.793   6.663   0.541
 7035TIP3    H242665   2.855   6.594   0.662
 7036TIP3   OH242666   4.584   1.602   1.233
 7036TIP3    H142667   4.551   1.521   1.195
 7036TIP3    H242668   4.594   1.661   1.159
 7037TIP3   OH242669   0.553   4.301   8.025
 7037TIP3    H142670   0.629   4.260   7.984
 7037TIP3    H242671   0.477   4.260   7.982
 7038TIP3   OH242672   2.871   0.794   1.388
 7038TIP3    H142673   2.957   0.769   1.419
 7038TIP3    H242674   2.834   0.714   1.351
 7039TIP3   OH242675   3.152   2.951   2.260
 7039TIP3    H142676   3.064   2.984   2.241
 7039TIP3    H242677   3.158   2.952   2.355
 7040TIP3   OH242678   6.193   6.303   1.195
 7040TIP3    H142679   6.224   6.288   1.106
 7040TIP3    H242680   6.267   6.278   1.250
 7041TIP3   OH242681   3.101   1.665   0.784
 7041TIP3    H142682   3.017   1.620   0.797
 7041TIP3    H242683   3.093   1.709   0.700
 7042TIP3   OH242684   5.205   5.922   1.739
 7042TIP3    H142685   5.155   5.938   1.819
 7042TIP3    H242686   5.237   5.833   1.748
 7043TIP3   OH242687   2.898   1.289   7.537
 7043TIP3    H142688   2.842   1.255   7.467
 7043TIP3    H242689   2.872   1.238   7.614
 7044TIP3   OH242690   0.277   4.130   7.155
 7044TIP3    H142691   0.289   4.084   7.072
 7044TIP3    H242692   0.183   4.123   7.173
 7045TIP3   OH242693   5.946   4.686   2.144
 7045TIP3    H142694   5.978   4.615   2.089
 7045TIP3    H242695   5.890   4.644   2.209
 7046TIP3   OH242696   3.617   6.538   7.170
 7046TIP3    H142697   3.596   6.631   7.160
 7046TIP3    H242698   3.640   6.509   7.081
 7047TIP3   OH242699   2.282   6.712   0.572
 7047TIP3    H142700   2.218   6.644   0.552
 7047TIP3    H242701   2.274   6.726   0.667
 7048TIP3   OH242702   5.863   6.827   7.594
 7048TIP3    H142703   5.942   6.845   7.646
 7048TIP3    H242704   5.792   6.829   7.657
 7049TIP3   OH242705   4.520   6.290   2.567
 7049TIP3    H142706   4.569   6.238   2.504
 7049TIP3    H242707   4.443   6.236   2.588
 7050TIP3   OH242708   6.260   3.298   8.600
 7050TIP3    H142709   6.225   3.387   8.594
 7050TIP3    H242710   6.191   3.243   8.564
 7051TIP3   OH242711   6.394   0.320   7.478
 7051TIP3    H142712   6.342   0.316   7.559
 7051TIP3    H242713   6.355   0.253   7.422
 7052TIP3   OH242714   5.275   0.717   1.707
 7052TIP3    H142715   5.366   0.687   1.699
 7052TIP3    H242716   5.234   0.690   1.625
 7053TIP3   OH242717   3.253   0.997   0.753
 7053TIP3    H142718   3.237   0.902   0.751
 7053TIP3    H242719   3.247   1.025   0.662
 7054TIP3   OH242720   3.614   3.898   0.702
 7054TIP3    H142721   3.547   3.911   0.770
 7054TIP3    H242722   3.583   3.823   0.652
 7055TIP3   OH242723   0.348   5.746   0.864
 7055TIP3    H142724   0.304   5.826   0.892
 7055TIP3    H242725   0.333   5.684   0.935
 7056TIP3   OH242726   6.775   1.089   8.163
 7056TIP3    H142727   6.794   1.089   8.257
 7056TIP3    H242728   6.683   1.114   8.157
 7057TIP3   OH242729   2.273   5.980   7.150
 7057TIP3    H142730   2.342   5.917   7.128
 7057TIP3    H242731   2.254   6.025   7.067
 7058TIP3   OH242732   3.943   1.789   1.595
 7058TIP3    H142733   3.931   1.876   1.633
 7058TIP3    H242734   3.866   1.740   1.625
 7059TIP3   OH242735   0.927   0.189   1.455
 7059TIP3    H142736   0.886   0.106   1.431
 7059TIP3    H242737   0.984   0.210   1.381
 7060TIP3   OH242738   1.615   4.651   8.602
 7060TIP3    H142739   1.596   4.740   0.007
 7060TIP3    H242740   1.557   4.637   8.527
 7061TIP3   OH242741   2.790   2.254   8.616
 7061TIP3    H142742   2.746   2.340   8.612
 7061TIP3    H242743   2.718   2.191   8.617
 7062TIP3   OH242744   5.165   1.464   1.301
 7062TIP3    H142745   5.101   1.481   1.370
 7062TIP3    H242746   5.161   1.370   1.287
 7063TIP3   OH242747   0.952   1.408   7.745
 7063TIP3    H142748   0.989   1.437   7.828
 7063TIP3    H242749   1.027   1.396   7.687
 7064TIP3   OH242750   6.489   3.906   0.305
 7064TIP3    H142751   6.523   3.989   0.340
 7064TIP3    H242752   6.406   3.893   0.352
 7065TIP3   OH242753   0.108   4.861   1.825
 7065TIP3    H142754   0.059   4.799   1.772
 7065TIP3    H242755   0.091   4.835   1.915
 7066TIP3   OH242756   3.089   5.756   1.322
 7066TIP3    H142757   3.039   5.677   1.342
 7066TIP3    H242758   3.094   5.758   1.227
 7067TIP3   OH242759   5.156   3.239   1.132
 7067TIP3    H142760   5.147   3.217   1.039
 7067TIP3    H242761   5.069   3.228   1.168
 7068TIP3   OH242762   5.064   2.155   0.985
 7068TIP3    H142763   5.087   2.179   1.075
 7068TIP3    H242764   4.995   2.216   0.961
 7069TIP3   OH242765   6.554   1.899   7.988
 7069TIP3    H142766   6.632   1.862   8.029
 7069TIP3    H242767   6.519   1.960   8.053
 7070TIP3   OH242768   5.850   5.737   0.829
 7070TIP3    H142769   5.791   5.662   0.824
 7070TIP3    H242770   5.857   5.756   0.922
 7071TIP3   OH242771   3.303   6.053   7.293
 7071TIP3    H142772   3.232   6.001   7.255
 7071TIP3    H242773   3.310   6.022   7.383
 7072LIG      O42774   4.871   5.304   6.564
 7072LIG     C142775   4.988   5.233   6.598
 7072LIG     C242776   5.059   5.324   6.700
 7072LIG     C342777   4.947   5.101   6.660
 7072LIG     H142778   5.059   5.208   6.516
 7072LIG     H242779   4.991   5.336   6.787
 7072LIG     H342780   5.077   5.424   6.655
 7072LIG     H442781   5.159   5.279   6.717
 7072LIG     H542782   4.879   5.116   6.747
 7072LIG     H642783   5.030   5.038   6.699
 7072LIG     H742784   4.890   5.036   6.591
 7072LIG     H842785   4.811   5.250   6.513
   6.87946   6.87946   8.62376
