Title t= 12600.00000 step= 6300000
42785
    1SAPS     N    1   4.023   4.230   6.952
    1SAPS   HN1    2   4.048   4.262   7.048
    1SAPS   HN2    3   4.106   4.184   6.910
    1SAPS   HN3    4   4.001   4.312   6.891
    1SAPS   C12    5   3.913   4.131   6.961
    1SAPS  H12A    6   3.938   4.072   7.048
    1SAPS   C13    7   3.778   4.193   6.979
    1SAPS  O13A    8   3.753   4.317   6.982
    1SAPS  O13B    9   3.684   4.114   6.988
    1SAPS   C11   10   3.905   4.037   6.843
    1SAPS  H11A   11   3.856   4.071   6.748
    1SAPS  H11B   12   3.828   3.964   6.876
    1SAPS     P   13   4.130   3.999   6.700
    1SAPS   O13   14   4.178   4.135   6.724
    1SAPS   O14   15   4.228   3.888   6.698
    1SAPS   O12   16   4.028   3.969   6.814
    1SAPS   O11   17   4.033   3.989   6.578
    1SAPS    C1   18   3.958   3.862   6.560
    1SAPS    HA   19   4.033   3.780   6.561
    1SAPS    HB   20   3.889   3.833   6.642
    1SAPS    C2   21   3.880   3.868   6.428
    1SAPS    HS   22   3.801   3.790   6.432
    1SAPS   O21   23   3.984   3.839   6.335
    1SAPS   C21   24   3.951   3.762   6.236
    1SAPS   O22   25   3.838   3.733   6.206
    1SAPS   C22   26   4.071   3.690   6.178
    1SAPS   H2R   27   4.168   3.734   6.212
    1SAPS   H2S   28   4.060   3.583   6.207
    1SAPS    C3   29   3.818   4.005   6.402
    1SAPS    HX   30   3.897   4.083   6.405
    1SAPS    HY   31   3.756   4.038   6.489
    1SAPS   O31   32   3.754   4.023   6.273
    1SAPS   C31   33   3.641   3.951   6.274
    1SAPS   O32   34   3.581   3.905   6.372
    1SAPS   C32   35   3.580   3.936   6.134
    1SAPS   H2X   36   3.603   3.833   6.099
    1SAPS   H2Y   37   3.627   4.007   6.063
    1SAPS   C23   38   4.066   3.700   6.020
    1SAPS   H3R   39   3.960   3.689   5.988
    1SAPS   H3S   40   4.114   3.608   5.979
    1SAPS   C24   41   4.144   3.821   5.962
    1SAPS   H4R   42   4.145   3.795   5.854
    1SAPS   H4S   43   4.247   3.806   6.001
    1SAPS   C25   44   4.092   3.957   5.997
    1SAPS   H5R   45   4.104   3.995   6.100
    1SAPS   C26   46   4.041   4.050   5.917
    1SAPS   H6R   47   3.998   4.139   5.965
    1SAPS   C27   48   4.006   4.044   5.767
    1SAPS   H7R   49   4.055   3.955   5.722
    1SAPS   H7S   50   4.045   4.126   5.703
    1SAPS   C28   51   3.864   4.028   5.729
    1SAPS   H8R   52   3.792   4.031   5.812
    1SAPS   C29   53   3.813   4.014   5.600
    1SAPS   H9R   54   3.707   3.987   5.590
    1SAPS  C210   55   3.895   4.022   5.475
    1SAPS  H10R   56   3.953   3.927   5.469
    1SAPS  H10S   57   3.965   4.108   5.486
    1SAPS  C211   58   3.800   4.045   5.353
    1SAPS  H11R   59   3.725   4.125   5.368
    1SAPS  C212   60   3.809   3.989   5.228
    1SAPS  H12R   61   3.748   4.030   5.146
    1SAPS  C213   62   3.914   3.886   5.192
    1SAPS  H13R   63   3.875   3.783   5.209
    1SAPS  H13S   64   4.003   3.904   5.255
    1SAPS  C214   65   3.951   3.897   5.052
    1SAPS  H14R   66   3.967   3.996   5.008
    1SAPS  C215   67   3.996   3.796   4.977
    1SAPS  H15R   68   4.041   3.817   4.878
    1SAPS  C216   69   4.006   3.650   5.001
    1SAPS  H16R   70   3.929   3.607   4.933
    1SAPS  H16S   71   3.965   3.632   5.103
    1SAPS  C217   72   4.142   3.570   4.976
    1SAPS  H17R   73   4.228   3.594   5.042
    1SAPS  H17S   74   4.180   3.588   4.874
    1SAPS  C218   75   4.122   3.417   4.985
    1SAPS  H18R   76   4.203   3.358   4.937
    1SAPS  H18S   77   4.034   3.396   4.920
    1SAPS  C219   78   4.078   3.357   5.115
    1SAPS  H19R   79   3.994   3.413   5.162
    1SAPS  H19S   80   4.167   3.366   5.180
    1SAPS  C220   81   4.034   3.212   5.102
    1SAPS  H20R   82   4.104   3.139   5.056
    1SAPS  H20S   83   3.934   3.199   5.054
    1SAPS  H20T   84   4.017   3.178   5.206
    1SAPS   C33   85   3.419   3.952   6.132
    1SAPS   H3X   86   3.385   4.056   6.151
    1SAPS   H3Y   87   3.390   3.887   6.217
    1SAPS   C34   88   3.346   3.893   6.011
    1SAPS   H4X   89   3.238   3.917   6.021
    1SAPS   H4Y   90   3.364   3.783   6.008
    1SAPS   C35   91   3.394   3.955   5.878
    1SAPS   H5X   92   3.354   3.904   5.788
    1SAPS   H5Y   93   3.501   3.924   5.869
    1SAPS   C36   94   3.367   4.105   5.854
    1SAPS   H6X   95   3.423   4.141   5.943
    1SAPS   H6Y   96   3.258   4.126   5.855
    1SAPS   C37   97   3.428   4.157   5.727
    1SAPS   H7X   98   3.532   4.118   5.730
    1SAPS   H7Y   99   3.439   4.268   5.728
    1SAPS   C38  100   3.358   4.117   5.594
    1SAPS   H8X  101   3.270   4.182   5.577
    1SAPS   H8Y  102   3.335   4.009   5.586
    1SAPS   C39  103   3.437   4.147   5.468
    1SAPS   H9X  104   3.522   4.076   5.460
    1SAPS   H9Y  105   3.491   4.243   5.484
    1SAPS  C310  106   3.352   4.153   5.342
    1SAPS  H10X  107   3.286   4.242   5.332
    1SAPS  H10Y  108   3.294   4.059   5.332
    1SAPS  C311  109   3.448   4.144   5.227
    1SAPS  H11X  110   3.522   4.064   5.248
    1SAPS  H11Y  111   3.509   4.236   5.218
    1SAPS  C312  112   3.390   4.129   5.087
    1SAPS  H12X  113   3.331   4.218   5.058
    1SAPS  H12Y  114   3.322   4.041   5.082
    1SAPS  C313  115   3.495   4.095   4.985
    1SAPS  H13X  116   3.550   3.999   4.989
    1SAPS  H13Y  117   3.574   4.174   4.987
    1SAPS  C314  118   3.431   4.083   4.849
    1SAPS  H14X  119   3.398   4.186   4.826
    1SAPS  H14Y  120   3.341   4.019   4.862
    1SAPS  C315  121   3.529   4.025   4.749
    1SAPS  H15X  122   3.545   3.917   4.769
    1SAPS  H15Y  123   3.629   4.066   4.777
    1SAPS  C316  124   3.476   4.051   4.609
    1SAPS  H16X  125   3.443   4.156   4.596
    1SAPS  H16Y  126   3.373   4.010   4.606
    1SAPS  C317  127   3.569   4.005   4.504
    1SAPS  H17X  128   3.572   3.896   4.487
    1SAPS  H17Y  129   3.674   4.035   4.528
    1SAPS  C318  130   3.517   4.063   4.368
    1SAPS  H18X  131   3.412   4.032   4.352
    1SAPS  H18Y  132   3.587   4.031   4.288
    1SAPS  H18Z  133   3.506   4.173   4.381
    2SAPS     N  134   4.345   5.960   6.920
    2SAPS   HN1  135   4.258   5.932   6.871
    2SAPS   HN2  136   4.414   5.973   6.843
    2SAPS   HN3  137   4.369   5.891   6.994
    2SAPS   C12  138   4.322   6.090   6.988
    2SAPS  H12A  139   4.256   6.092   7.074
    2SAPS   C13  140   4.452   6.154   7.054
    2SAPS  O13A  141   4.567   6.102   7.033
    2SAPS  O13B  142   4.434   6.263   7.121
    2SAPS   C11  143   4.267   6.198   6.890
    2SAPS  H11A  144   4.336   6.207   6.803
    2SAPS  H11B  145   4.255   6.293   6.946
    2SAPS     P  146   4.047   6.229   6.749
    2SAPS   O13  147   3.914   6.171   6.753
    2SAPS   O14  148   4.058   6.371   6.790
    2SAPS   O12  149   4.135   6.149   6.843
    2SAPS   O11  150   4.103   6.212   6.601
    2SAPS    C1  151   4.163   6.086   6.553
    2SAPS    HA  152   4.266   6.082   6.593
    2SAPS    HB  153   4.106   5.996   6.584
    2SAPS    C2  154   4.184   6.080   6.403
    2SAPS    HS  155   4.228   5.981   6.379
    2SAPS   O21  156   4.261   6.187   6.353
    2SAPS   C21  157   4.392   6.179   6.389
    2SAPS   O22  158   4.440   6.088   6.455
    2SAPS   C22  159   4.462   6.287   6.308
    2SAPS   H2R  160   4.468   6.384   6.361
    2SAPS   H2S  161   4.567   6.252   6.309
    2SAPS    C3  162   4.045   6.081   6.338
    2SAPS    HX  163   3.995   6.174   6.374
    2SAPS    HY  164   3.977   6.000   6.373
    2SAPS   O31  165   4.051   6.070   6.194
    2SAPS   C31  166   4.043   6.183   6.121
    2SAPS   O32  167   4.038   6.294   6.168
    2SAPS   C32  168   4.051   6.161   5.975
    2SAPS   H2X  169   3.952   6.161   5.924
    2SAPS   H2Y  170   4.077   6.054   5.958
    2SAPS   C23  171   4.415   6.319   6.169
    2SAPS   H3R  172   4.319   6.373   6.186
    2SAPS   H3S  173   4.396   6.228   6.108
    2SAPS   C24  174   4.524   6.409   6.097
    2SAPS   H4R  175   4.623   6.359   6.095
    2SAPS   H4S  176   4.532   6.504   6.155
    2SAPS   C25  177   4.467   6.451   5.960
    2SAPS   H5R  178   4.357   6.455   5.954
    2SAPS   C26  179   4.544   6.466   5.854
    2SAPS   H6R  180   4.504   6.497   5.756
    2SAPS   C27  181   4.691   6.463   5.861
    2SAPS   H7R  182   4.731   6.366   5.826
    2SAPS   H7S  183   4.728   6.480   5.965
    2SAPS   C28  184   4.745   6.560   5.756
    2SAPS   H8R  185   4.776   6.658   5.795
    2SAPS   C29  186   4.749   6.552   5.620
    2SAPS   H9R  187   4.799   6.629   5.559
    2SAPS  C210  188   4.713   6.430   5.544
    2SAPS  H10R  189   4.650   6.360   5.603
    2SAPS  H10S  190   4.801   6.375   5.505
    2SAPS  C211  191   4.628   6.480   5.434
    2SAPS  H11R  192   4.539   6.536   5.467
    2SAPS  C212  193   4.638   6.462   5.298
    2SAPS  H12R  194   4.568   6.516   5.232
    2SAPS  C213  195   4.737   6.382   5.225
    2SAPS  H13R  196   4.700   6.359   5.122
    2SAPS  H13S  197   4.740   6.282   5.273
    2SAPS  C214  198   4.868   6.449   5.205
    2SAPS  H14R  199   4.940   6.423   5.283
    2SAPS  C215  200   4.915   6.521   5.099
    2SAPS  H15R  201   4.997   6.593   5.111
    2SAPS  C216  202   4.820   6.541   4.978
    2SAPS  H16R  203   4.843   6.641   4.935
    2SAPS  H16S  204   4.713   6.542   5.009
    2SAPS  C217  205   4.829   6.435   4.867
    2SAPS  H17R  206   4.732   6.445   4.814
    2SAPS  H17S  207   4.827   6.336   4.918
    2SAPS  C218  208   4.953   6.442   4.767
    2SAPS  H18R  209   5.044   6.441   4.832
    2SAPS  H18S  210   4.964   6.528   4.698
    2SAPS  C219  211   4.950   6.313   4.684
    2SAPS  H19R  212   4.873   6.318   4.604
    2SAPS  H19S  213   4.928   6.226   4.750
    2SAPS  C220  214   5.086   6.302   4.617
    2SAPS  H20R  215   5.163   6.288   4.696
    2SAPS  H20S  216   5.103   6.387   4.548
    2SAPS  H20T  217   5.077   6.206   4.562
    2SAPS   C33  218   4.156   6.247   5.900
    2SAPS   H3X  219   4.255   6.210   5.932
    2SAPS   H3Y  220   4.137   6.354   5.925
    2SAPS   C34  221   4.153   6.218   5.758
    2SAPS   H4X  222   4.072   6.272   5.703
    2SAPS   H4Y  223   4.141   6.108   5.751
    2SAPS   C35  224   4.279   6.269   5.691
    2SAPS   H5X  225   4.366   6.210   5.728
    2SAPS   H5Y  226   4.291   6.375   5.723
    2SAPS   C36  227   4.279   6.262   5.536
    2SAPS   H6X  228   4.351   6.336   5.496
    2SAPS   H6Y  229   4.185   6.307   5.498
    2SAPS   C37  230   4.287   6.122   5.474
    2SAPS   H7X  231   4.204   6.062   5.515
    2SAPS   H7Y  232   4.383   6.076   5.506
    2SAPS   C38  233   4.280   6.125   5.323
    2SAPS   H8X  234   4.282   6.021   5.284
    2SAPS   H8Y  235   4.375   6.173   5.292
    2SAPS   C39  236   4.154   6.181   5.263
    2SAPS   H9X  237   4.151   6.289   5.290
    2SAPS   H9Y  238   4.066   6.128   5.305
    2SAPS  C310  239   4.165   6.147   5.108
    2SAPS  H10X  240   4.173   6.036   5.102
    2SAPS  H10Y  241   4.252   6.192   5.056
    2SAPS  C311  242   4.052   6.198   5.020
    2SAPS  H11X  243   3.961   6.148   5.060
    2SAPS  H11Y  244   4.076   6.167   4.916
    2SAPS  C312  245   4.032   6.350   5.021
    2SAPS  H12X  246   4.127   6.406   5.033
    2SAPS  H12Y  247   3.985   6.371   5.119
    2SAPS  C313  248   3.954   6.389   4.903
    2SAPS  H13X  249   3.850   6.351   4.916
    2SAPS  H13Y  250   3.997   6.320   4.828
    2SAPS  C314  251   3.957   6.532   4.845
    2SAPS  H14X  252   3.916   6.595   4.927
    2SAPS  H14Y  253   3.883   6.550   4.764
    2SAPS  C315  254   4.091   6.589   4.797
    2SAPS  H15X  255   4.174   6.552   4.860
    2SAPS  H15Y  256   4.090   6.697   4.823
    2SAPS  C316  257   4.118   6.573   4.643
    2SAPS  H16X  258   4.219   6.614   4.622
    2SAPS  H16Y  259   4.051   6.638   4.583
    2SAPS  C317  260   4.098   6.432   4.581
    2SAPS  H17X  261   3.997   6.392   4.606
    2SAPS  H17Y  262   4.175   6.364   4.622
    2SAPS  C318  263   4.112   6.428   4.429
    2SAPS  H18X  264   4.112   6.330   4.377
    2SAPS  H18Y  265   4.199   6.488   4.393
    2SAPS  H18Z  266   4.031   6.489   4.383
    3SAPS     N  267   4.423   4.538   6.927
    3SAPS   HN1  268   4.365   4.463   6.884
    3SAPS   HN2  269   4.421   4.529   7.031
    3SAPS   HN3  270   4.390   4.630   6.893
    3SAPS   C12  271   4.563   4.514   6.872
    3SAPS  H12A  272   4.626   4.588   6.919
    3SAPS   C13  273   4.627   4.385   6.930
    3SAPS  O13A  274   4.552   4.308   6.993
    3SAPS  O13B  275   4.738   4.348   6.886
    3SAPS   C11  276   4.572   4.519   6.724
    3SAPS  H11A  277   4.528   4.432   6.670
    3SAPS  H11B  278   4.682   4.523   6.707
    3SAPS     P  279   4.482   4.677   6.536
    3SAPS   O13  280   4.391   4.579   6.475
    3SAPS   O14  281   4.443   4.819   6.538
    3SAPS   O12  282   4.514   4.638   6.682
    3SAPS   O11  283   4.621   4.665   6.462
    3SAPS    C1  284   4.712   4.764   6.478
    3SAPS    HA  285   4.707   4.811   6.579
    3SAPS    HB  286   4.810   4.711   6.482
    3SAPS    C2  287   4.709   4.864   6.365
    3SAPS    HS  288   4.601   4.891   6.355
    3SAPS   O21  289   4.762   4.804   6.248
    3SAPS   C21  290   4.668   4.746   6.170
    3SAPS   O22  291   4.548   4.765   6.177
    3SAPS   C22  292   4.735   4.649   6.073
    3SAPS   H2R  293   4.840   4.685   6.061
    3SAPS   H2S  294   4.728   4.548   6.120
    3SAPS    C3  295   4.789   4.993   6.391
    3SAPS    HX  296   4.882   4.966   6.445
    3SAPS    HY  297   4.721   5.056   6.452
    3SAPS   O31  298   4.818   5.065   6.271
    3SAPS   C31  299   4.720   5.132   6.216
    3SAPS   O32  300   4.611   5.154   6.274
    3SAPS   C32  301   4.751   5.172   6.079
    3SAPS   H2X  302   4.848   5.225   6.080
    3SAPS   H2Y  303   4.674   5.244   6.045
    3SAPS   C23  304   4.657   4.632   5.936
    3SAPS   H3R  305   4.609   4.729   5.910
    3SAPS   H3S  306   4.570   4.564   5.948
    3SAPS   C24  307   4.758   4.587   5.825
    3SAPS   H4R  308   4.820   4.502   5.860
    3SAPS   H4S  309   4.829   4.670   5.808
    3SAPS   C25  310   4.662   4.564   5.707
    3SAPS   H5R  311   4.579   4.494   5.726
    3SAPS   C26  312   4.673   4.615   5.581
    3SAPS   H6R  313   4.596   4.597   5.504
    3SAPS   C27  314   4.779   4.709   5.528
    3SAPS   H7R  315   4.826   4.659   5.441
    3SAPS   H7S  316   4.863   4.698   5.600
    3SAPS   C28  317   4.723   4.849   5.504
    3SAPS   H8R  318   4.685   4.902   5.593
    3SAPS   C29  319   4.719   4.908   5.381
    3SAPS   H9R  320   4.661   4.998   5.355
    3SAPS  C210  321   4.763   4.847   5.251
    3SAPS  H10R  322   4.690   4.888   5.178
    3SAPS  H10S  323   4.764   4.736   5.247
    3SAPS  C211  324   4.904   4.883   5.210
    3SAPS  H11R  325   4.978   4.880   5.292
    3SAPS  C212  326   4.952   4.934   5.096
    3SAPS  H12R  327   5.054   4.974   5.089
    3SAPS  C213  328   4.883   4.977   4.966
    3SAPS  H13R  329   4.778   4.940   4.971
    3SAPS  H13S  330   4.936   4.908   4.897
    3SAPS  C214  331   4.873   5.124   4.933
    3SAPS  H14R  332   4.865   5.193   5.019
    3SAPS  C215  333   4.864   5.164   4.803
    3SAPS  H15R  334   4.861   5.273   4.790
    3SAPS  C216  335   4.863   5.078   4.682
    3SAPS  H16R  336   4.774   5.012   4.688
    3SAPS  H16S  337   4.957   5.019   4.679
    3SAPS  C217  338   4.874   5.149   4.549
    3SAPS  H17R  339   4.973   5.196   4.536
    3SAPS  H17S  340   4.798   5.230   4.545
    3SAPS  C218  341   4.831   5.056   4.427
    3SAPS  H18R  342   4.724   5.067   4.399
    3SAPS  H18S  343   4.855   4.953   4.460
    3SAPS  C219  344   4.912   5.073   4.294
    3SAPS  H19R  345   4.921   5.181   4.270
    3SAPS  H19S  346   5.015   5.035   4.312
    3SAPS  C220  347   4.850   5.003   4.179
    3SAPS  H20R  348   4.837   4.894   4.194
    3SAPS  H20S  349   4.912   5.014   4.087
    3SAPS  H20T  350   4.747   5.040   4.159
    3SAPS   C33  351   4.747   5.059   5.979
    3SAPS   H3X  352   4.645   5.015   5.980
    3SAPS   H3Y  353   4.804   4.970   6.014
    3SAPS   C34  354   4.767   5.085   5.833
    3SAPS   H4X  355   4.700   5.162   5.790
    3SAPS   H4Y  356   4.749   4.986   5.784
    3SAPS   C35  357   4.908   5.131   5.795
    3SAPS   H5X  358   4.928   5.225   5.850
    3SAPS   H5Y  359   4.973   5.051   5.836
    3SAPS   C36  360   4.940   5.142   5.649
    3SAPS   H6X  361   4.890   5.227   5.598
    3SAPS   H6Y  362   4.900   5.045   5.610
    3SAPS   C37  363   5.089   5.157   5.613
    3SAPS   H7X  364   5.144   5.076   5.666
    3SAPS   H7Y  365   5.128   5.256   5.643
    3SAPS   C38  366   5.121   5.138   5.467
    3SAPS   H8X  367   5.085   5.223   5.405
    3SAPS   H8Y  368   5.057   5.052   5.438
    3SAPS   C39  369   5.266   5.107   5.435
    3SAPS   H9X  370   5.289   5.013   5.490
    3SAPS   H9Y  371   5.336   5.185   5.472
    3SAPS  C310  372   5.283   5.069   5.287
    3SAPS  H10X  373   5.216   4.986   5.254
    3SAPS  H10Y  374   5.386   5.028   5.292
    3SAPS  C311  375   5.290   5.186   5.191
    3SAPS  H11X  376   5.372   5.257   5.213
    3SAPS  H11Y  377   5.203   5.252   5.211
    3SAPS  C312  378   5.317   5.148   5.046
    3SAPS  H12X  379   5.239   5.074   5.019
    3SAPS  H12Y  380   5.409   5.087   5.035
    3SAPS  C313  381   5.312   5.248   4.937
    3SAPS  H13X  382   5.346   5.348   4.973
    3SAPS  H13Y  383   5.205   5.270   4.917
    3SAPS  C314  384   5.392   5.202   4.814
    3SAPS  H14X  385   5.350   5.112   4.765
    3SAPS  H14Y  386   5.496   5.181   4.849
    3SAPS  C315  387   5.387   5.296   4.695
    3SAPS  H15X  388   5.451   5.384   4.716
    3SAPS  H15Y  389   5.282   5.330   4.680
    3SAPS  C316  390   5.441   5.235   4.573
    3SAPS  H16X  391   5.406   5.290   4.483
    3SAPS  H16Y  392   5.387   5.137   4.568
    3SAPS  C317  393   5.587   5.238   4.572
    3SAPS  H17X  394   5.631   5.183   4.658
    3SAPS  H17Y  395   5.618   5.344   4.570
    3SAPS  C318  396   5.648   5.182   4.439
    3SAPS  H18X  397   5.757   5.201   4.427
    3SAPS  H18Y  398   5.587   5.215   4.352
    3SAPS  H18Z  399   5.625   5.074   4.440
    4SAPS     N  400   1.716   3.105   6.600
    4SAPS   HN1  401   1.775   3.177   6.646
    4SAPS   HN2  402   1.782   3.031   6.567
    4SAPS   HN3  403   1.682   3.158   6.517
    4SAPS   C12  404   1.607   3.080   6.703
    4SAPS  H12A  405   1.661   3.040   6.788
    4SAPS   C13  406   1.538   3.211   6.745
    4SAPS  O13A  407   1.564   3.325   6.689
    4SAPS  O13B  408   1.442   3.202   6.826
    4SAPS   C11  409   1.506   2.987   6.641
    4SAPS  H11A  410   1.450   3.029   6.555
    4SAPS  H11B  411   1.429   2.973   6.720
    4SAPS     P  412   1.501   2.737   6.548
    4SAPS   O13  413   1.588   2.620   6.558
    4SAPS   O14  414   1.362   2.715   6.587
    4SAPS   O12  415   1.564   2.856   6.615
    4SAPS   O11  416   1.504   2.775   6.398
    4SAPS    C1  417   1.602   2.855   6.332
    4SAPS    HA  418   1.615   2.952   6.384
    4SAPS    HB  419   1.694   2.793   6.324
    4SAPS    C2  420   1.553   2.876   6.188
    4SAPS    HS  421   1.612   2.949   6.129
    4SAPS   O21  422   1.418   2.921   6.189
    4SAPS   C21  423   1.391   3.041   6.247
    4SAPS   O22  424   1.475   3.120   6.294
    4SAPS   C22  425   1.242   3.059   6.250
    4SAPS   H2R  426   1.188   2.987   6.185
    4SAPS   H2S  427   1.222   3.041   6.357
    4SAPS    C3  428   1.559   2.739   6.110
    4SAPS    HX  429   1.542   2.651   6.176
    4SAPS    HY  430   1.668   2.731   6.088
    4SAPS   O31  431   1.477   2.740   5.993
    4SAPS   C31  432   1.351   2.705   6.018
    4SAPS   O32  433   1.317   2.645   6.122
    4SAPS   C32  434   1.252   2.756   5.913
    4SAPS   H2X  435   1.302   2.733   5.816
    4SAPS   H2Y  436   1.230   2.865   5.915
    4SAPS   C23  437   1.204   3.208   6.213
    4SAPS   H3R  438   1.264   3.285   6.266
    4SAPS   H3S  439   1.094   3.222   6.211
    4SAPS   C24  440   1.231   3.232   6.063
    4SAPS   H4R  441   1.338   3.208   6.047
    4SAPS   H4S  442   1.219   3.341   6.042
    4SAPS   C25  443   1.143   3.155   5.969
    4SAPS   H5R  444   1.036   3.145   5.991
    4SAPS   C26  445   1.176   3.137   5.842
    4SAPS   H6R  446   1.097   3.094   5.778
    4SAPS   C27  447   1.302   3.190   5.773
    4SAPS   H7R  448   1.340   3.283   5.821
    4SAPS   H7S  449   1.276   3.228   5.672
    4SAPS   C28  450   1.412   3.088   5.765
    4SAPS   H8R  451   1.478   3.089   5.852
    4SAPS   C29  452   1.442   3.007   5.658
    4SAPS   H9R  453   1.532   2.947   5.671
    4SAPS  C210  454   1.374   3.000   5.522
    4SAPS  H10R  455   1.265   2.991   5.540
    4SAPS  H10S  456   1.405   2.909   5.466
    4SAPS  C211  457   1.397   3.120   5.431
    4SAPS  H11R  458   1.445   3.202   5.486
    4SAPS  C212  459   1.372   3.130   5.297
    4SAPS  H12R  460   1.406   3.221   5.245
    4SAPS  C213  461   1.301   3.027   5.214
    4SAPS  H13R  462   1.197   3.059   5.193
    4SAPS  H13S  463   1.283   2.937   5.277
    4SAPS  C214  464   1.357   2.995   5.076
    4SAPS  H14R  465   1.427   2.911   5.080
    4SAPS  C215  466   1.332   3.063   4.962
    4SAPS  H15R  467   1.372   3.028   4.866
    4SAPS  C216  468   1.235   3.178   4.957
    4SAPS  H16R  469   1.170   3.195   5.046
    4SAPS  H16S  470   1.164   3.170   4.872
    4SAPS  C217  471   1.312   3.311   4.925
    4SAPS  H17R  472   1.369   3.337   5.017
    4SAPS  H17S  473   1.235   3.390   4.913
    4SAPS  C218  474   1.410   3.320   4.810
    4SAPS  H18R  475   1.349   3.296   4.720
    4SAPS  H18S  476   1.487   3.240   4.807
    4SAPS  C219  477   1.487   3.453   4.787
    4SAPS  H19R  478   1.414   3.537   4.783
    4SAPS  H19S  479   1.535   3.456   4.687
    4SAPS  C220  480   1.595   3.482   4.893
    4SAPS  H20R  481   1.562   3.540   4.982
    4SAPS  H20S  482   1.692   3.515   4.850
    4SAPS  H20T  483   1.626   3.383   4.932
    4SAPS   C33  484   1.115   2.685   5.906
    4SAPS   H3X  485   1.055   2.691   5.999
    4SAPS   H3Y  486   1.142   2.578   5.888
    4SAPS   C34  487   1.031   2.747   5.794
    4SAPS   H4X  488   1.007   2.852   5.824
    4SAPS   H4Y  489   0.939   2.686   5.784
    4SAPS   C35  490   1.108   2.757   5.663
    4SAPS   H5X  491   1.149   2.659   5.631
    4SAPS   H5Y  492   1.184   2.836   5.676
    4SAPS   C36  493   1.017   2.782   5.544
    4SAPS   H6X  494   1.030   2.890   5.524
    4SAPS   H6Y  495   0.908   2.763   5.558
    4SAPS   C37  496   1.067   2.712   5.421
    4SAPS   H7X  497   1.069   2.602   5.439
    4SAPS   H7Y  498   1.174   2.736   5.401
    4SAPS   C38  499   0.988   2.737   5.292
    4SAPS   H8X  500   0.988   2.844   5.263
    4SAPS   H8Y  501   0.883   2.703   5.299
    4SAPS   C39  502   1.058   2.669   5.175
    4SAPS   H9X  503   1.016   2.566   5.169
    4SAPS   H9Y  504   1.165   2.663   5.203
    4SAPS  C310  505   1.045   2.748   5.046
    4SAPS  H10X  506   1.079   2.851   5.072
    4SAPS  H10Y  507   0.939   2.766   5.019
    4SAPS  C311  508   1.123   2.703   4.921
    4SAPS  H11X  509   1.056   2.623   4.884
    4SAPS  H11Y  510   1.221   2.671   4.963
    4SAPS  C312  511   1.126   2.807   4.806
    4SAPS  H12X  512   1.152   2.902   4.858
    4SAPS  H12Y  513   1.022   2.819   4.769
    4SAPS  C313  514   1.234   2.771   4.707
    4SAPS  H13X  515   1.212   2.671   4.663
    4SAPS  H13Y  516   1.332   2.765   4.758
    4SAPS  C314  517   1.249   2.861   4.585
    4SAPS  H14X  518   1.273   2.967   4.608
    4SAPS  H14Y  519   1.148   2.866   4.538
    4SAPS  C315  520   1.365   2.825   4.494
    4SAPS  H15X  521   1.365   2.717   4.469
    4SAPS  H15Y  522   1.459   2.832   4.552
    4SAPS  C316  523   1.381   2.914   4.375
    4SAPS  H16X  524   1.473   2.899   4.315
    4SAPS  H16Y  525   1.380   3.022   4.404
    4SAPS  C317  526   1.257   2.898   4.281
    4SAPS  H17X  527   1.166   2.910   4.342
    4SAPS  H17Y  528   1.242   2.794   4.246
    4SAPS  C318  529   1.265   2.990   4.160
    4SAPS  H18X  530   1.370   3.015   4.137
    4SAPS  H18Y  531   1.218   3.088   4.183
    4SAPS  H18Z  532   1.223   2.945   4.067
    5SAPS     N  533   4.376   5.026   6.698
    5SAPS   HN1  534   4.397   4.942   6.641
    5SAPS   HN2  535   4.273   5.041   6.692
    5SAPS   HN3  536   4.412   5.110   6.647
    5SAPS   C12  537   4.431   5.008   6.838
    5SAPS  H12A  538   4.393   5.088   6.899
    5SAPS   C13  539   4.397   4.880   6.907
    5SAPS  O13A  540   4.301   4.806   6.871
    5SAPS  O13B  541   4.446   4.856   7.018
    5SAPS   C11  542   4.582   5.011   6.839
    5SAPS  H11A  543   4.610   4.933   6.765
    5SAPS  H11B  544   4.628   4.978   6.934
    5SAPS     P  545   4.779   5.162   6.778
    5SAPS   O13  546   4.800   5.291   6.705
    5SAPS   O14  547   4.842   5.147   6.914
    5SAPS   O12  548   4.623   5.142   6.800
    5SAPS   O11  549   4.819   5.040   6.691
    5SAPS    C1  550   4.928   4.951   6.710
    5SAPS    HA  551   4.924   4.911   6.814
    5SAPS    HB  552   4.924   4.864   6.641
    5SAPS    C2  553   5.066   5.023   6.685
    5SAPS    HS  554   5.087   5.078   6.779
    5SAPS   O21  555   5.060   5.114   6.570
    5SAPS   C21  556   5.131   5.225   6.580
    5SAPS   O22  557   5.225   5.241   6.661
    5SAPS   C22  558   5.089   5.322   6.470
    5SAPS   H2R  559   5.023   5.266   6.399
    5SAPS   H2S  560   5.037   5.404   6.523
    5SAPS    C3  561   5.184   4.923   6.669
    5SAPS    HX  562   5.203   4.874   6.766
    5SAPS    HY  563   5.279   4.974   6.645
    5SAPS   O31  564   5.151   4.830   6.557
    5SAPS   C31  565   5.184   4.866   6.441
    5SAPS   O32  566   5.262   4.954   6.411
    5SAPS   C32  567   5.126   4.773   6.326
    5SAPS   H2X  568   5.015   4.780   6.325
    5SAPS   H2Y  569   5.160   4.669   6.345
    5SAPS   C23  570   5.202   5.383   6.392
    5SAPS   H3R  571   5.274   5.432   6.461
    5SAPS   H3S  572   5.165   5.471   6.334
    5SAPS   C24  573   5.284   5.282   6.312
    5SAPS   H4R  574   5.326   5.207   6.382
    5SAPS   H4S  575   5.370   5.337   6.269
    5SAPS   C25  576   5.204   5.206   6.204
    5SAPS   H5R  577   5.102   5.173   6.231
    5SAPS   C26  578   5.248   5.192   6.076
    5SAPS   H6R  579   5.191   5.121   6.015
    5SAPS   C27  580   5.383   5.231   6.023
    5SAPS   H7R  581   5.395   5.170   5.931
    5SAPS   H7S  582   5.465   5.198   6.090
    5SAPS   C28  583   5.398   5.383   5.996
    5SAPS   H8R  584   5.340   5.432   6.076
    5SAPS   C29  585   5.465   5.441   5.893
    5SAPS   H9R  586   5.479   5.550   5.893
    5SAPS  C210  587   5.550   5.365   5.798
    5SAPS  H10R  588   5.504   5.381   5.698
    5SAPS  H10S  589   5.547   5.254   5.801
    5SAPS  C211  590   5.697   5.407   5.803
    5SAPS  H11R  591   5.741   5.436   5.900
    5SAPS  C212  592   5.768   5.411   5.692
    5SAPS  H12R  593   5.871   5.448   5.709
    5SAPS  C213  594   5.735   5.374   5.549
    5SAPS  H13R  595   5.736   5.465   5.485
    5SAPS  H13S  596   5.639   5.320   5.534
    5SAPS  C214  597   5.842   5.272   5.501
    5SAPS  H14R  598   5.884   5.212   5.582
    5SAPS  C215  599   5.874   5.263   5.370
    5SAPS  H15R  600   5.926   5.171   5.341
    5SAPS  C216  601   5.822   5.355   5.265
    5SAPS  H16R  602   5.877   5.450   5.277
    5SAPS  H16S  603   5.716   5.387   5.281
    5SAPS  C217  604   5.819   5.298   5.124
    5SAPS  H17R  605   5.757   5.369   5.066
    5SAPS  H17S  606   5.782   5.193   5.125
    5SAPS  C218  607   5.960   5.299   5.059
    5SAPS  H18R  608   6.022   5.213   5.095
    5SAPS  H18S  609   6.024   5.386   5.085
    5SAPS  C219  610   5.967   5.278   4.910
    5SAPS  H19R  611   5.928   5.368   4.856
    5SAPS  H19S  612   5.905   5.189   4.886
    5SAPS  C220  613   6.110   5.244   4.865
    5SAPS  H20R  614   6.158   5.175   4.937
    5SAPS  H20S  615   6.166   5.338   4.884
    5SAPS  H20T  616   6.109   5.198   4.764
    5SAPS   C33  617   5.185   4.815   6.193
    5SAPS   H3X  618   5.296   4.829   6.191
    5SAPS   H3Y  619   5.134   4.910   6.166
    5SAPS   C34  620   5.148   4.722   6.076
    5SAPS   H4X  621   5.041   4.691   6.077
    5SAPS   H4Y  622   5.211   4.630   6.080
    5SAPS   C35  623   5.180   4.788   5.941
    5SAPS   H5X  624   5.276   4.844   5.941
    5SAPS   H5Y  625   5.097   4.859   5.919
    5SAPS   C36  626   5.196   4.692   5.820
    5SAPS   H6X  627   5.103   4.632   5.824
    5SAPS   H6Y  628   5.286   4.627   5.825
    5SAPS   C37  629   5.189   4.764   5.685
    5SAPS   H7X  630   5.272   4.838   5.680
    5SAPS   H7Y  631   5.103   4.834   5.677
    5SAPS   C38  632   5.189   4.665   5.567
    5SAPS   H8X  633   5.103   4.595   5.570
    5SAPS   H8Y  634   5.282   4.606   5.559
    5SAPS   C39  635   5.179   4.713   5.418
    5SAPS   H9X  636   5.256   4.793   5.418
    5SAPS   H9Y  637   5.073   4.747   5.423
    5SAPS  C310  638   5.216   4.607   5.310
    5SAPS  H10X  639   5.151   4.519   5.332
    5SAPS  H10Y  640   5.314   4.558   5.329
    5SAPS  C311  641   5.202   4.662   5.160
    5SAPS  H11X  642   5.242   4.764   5.146
    5SAPS  H11Y  643   5.093   4.667   5.137
    5SAPS  C312  644   5.252   4.567   5.050
    5SAPS  H12X  645   5.199   4.471   5.062
    5SAPS  H12Y  646   5.357   4.533   5.067
    5SAPS  C313  647   5.255   4.609   4.909
    5SAPS  H13X  648   5.286   4.523   4.845
    5SAPS  H13Y  649   5.329   4.692   4.905
    5SAPS  C314  650   5.115   4.647   4.873
    5SAPS  H14X  651   5.101   4.750   4.912
    5SAPS  H14Y  652   5.056   4.568   4.925
    5SAPS  C315  653   5.095   4.662   4.726
    5SAPS  H15X  654   4.990   4.691   4.705
    5SAPS  H15Y  655   5.107   4.562   4.681
    5SAPS  C316  656   5.187   4.764   4.657
    5SAPS  H16X  657   5.288   4.717   4.653
    5SAPS  H16Y  658   5.191   4.857   4.716
    5SAPS  C317  659   5.158   4.802   4.512
    5SAPS  H17X  660   5.251   4.850   4.474
    5SAPS  H17Y  661   5.075   4.876   4.518
    5SAPS  C318  662   5.095   4.685   4.427
    5SAPS  H18X  663   5.154   4.592   4.411
    5SAPS  H18Y  664   5.056   4.719   4.329
    5SAPS  H18Z  665   5.006   4.654   4.486
    6SAPS     N  666   2.272   4.588   6.473
    6SAPS   HN1  667   2.170   4.594   6.490
    6SAPS   HN2  668   2.318   4.680   6.457
    6SAPS   HN3  669   2.272   4.540   6.381
    6SAPS   C12  670   2.335   4.509   6.579
    6SAPS  H12A  671   2.338   4.573   6.667
    6SAPS   C13  672   2.260   4.382   6.619
    6SAPS  O13A  673   2.178   4.331   6.539
    6SAPS  O13B  674   2.287   4.319   6.729
    6SAPS   C11  675   2.482   4.476   6.547
    6SAPS  H11A  676   2.481   4.402   6.464
    6SAPS  H11B  677   2.517   4.424   6.640
    6SAPS     P  678   2.684   4.582   6.413
    6SAPS   O13  679   2.726   4.721   6.386
    6SAPS   O14  680   2.793   4.484   6.448
    6SAPS   O12  681   2.568   4.587   6.531
    6SAPS   O11  682   2.603   4.526   6.296
    6SAPS    C1  683   2.668   4.425   6.214
    6SAPS    HA  684   2.737   4.359   6.269
    6SAPS    HB  685   2.582   4.370   6.169
    6SAPS    C2  686   2.759   4.476   6.101
    6SAPS    HS  687   2.839   4.541   6.144
    6SAPS   O21  688   2.671   4.549   6.004
    6SAPS   C21  689   2.725   4.656   5.960
    6SAPS   O22  690   2.834   4.704   5.991
    6SAPS   C22  691   2.632   4.738   5.870
    6SAPS   H2R  692   2.556   4.677   5.817
    6SAPS   H2S  693   2.574   4.806   5.936
    6SAPS    C3  694   2.818   4.357   6.022
    6SAPS    HX  695   2.735   4.290   5.992
    6SAPS    HY  696   2.880   4.290   6.085
    6SAPS   O31  697   2.884   4.397   5.900
    6SAPS   C31  698   3.012   4.388   5.907
    6SAPS   O32  699   3.083   4.378   6.005
    6SAPS   C32  700   3.077   4.387   5.766
    6SAPS   H2X  701   3.162   4.316   5.772
    6SAPS   H2Y  702   3.118   4.490   5.757
    6SAPS   C23  703   2.711   4.817   5.765
    6SAPS   H3R  704   2.792   4.751   5.725
    6SAPS   H3S  705   2.761   4.902   5.814
    6SAPS   C24  706   2.619   4.880   5.647
    6SAPS   H4R  707   2.598   4.795   5.579
    6SAPS   H4S  708   2.679   4.951   5.586
    6SAPS   C25  709   2.489   4.947   5.710
    6SAPS   H5R  710   2.424   4.876   5.764
    6SAPS   C26  711   2.447   5.068   5.687
    6SAPS   H6R  712   2.357   5.106   5.736
    6SAPS   C27  713   2.512   5.181   5.608
    6SAPS   H7R  714   2.439   5.249   5.561
    6SAPS   H7S  715   2.557   5.136   5.517
    6SAPS   C28  716   2.593   5.271   5.693
    6SAPS   H8R  717   2.542   5.314   5.781
    6SAPS   C29  718   2.711   5.323   5.658
    6SAPS   H9R  719   2.765   5.377   5.738
    6SAPS  C210  720   2.782   5.300   5.526
    6SAPS  H10R  721   2.742   5.216   5.466
    6SAPS  H10S  722   2.889   5.280   5.548
    6SAPS  C211  723   2.778   5.436   5.451
    6SAPS  H11R  724   2.809   5.522   5.512
    6SAPS  C212  725   2.731   5.458   5.323
    6SAPS  H12R  726   2.751   5.552   5.271
    6SAPS  C213  727   2.685   5.346   5.234
    6SAPS  H13R  728   2.762   5.265   5.226
    6SAPS  H13S  729   2.688   5.385   5.130
    6SAPS  C214  730   2.546   5.307   5.271
    6SAPS  H14R  731   2.507   5.367   5.354
    6SAPS  C215  732   2.477   5.199   5.226
    6SAPS  H15R  733   2.380   5.172   5.269
    6SAPS  C216  734   2.531   5.121   5.107
    6SAPS  H16R  735   2.585   5.036   5.155
    6SAPS  H16S  736   2.603   5.173   5.041
    6SAPS  C217  737   2.420   5.054   5.019
    6SAPS  H17R  738   2.355   4.987   5.080
    6SAPS  H17S  739   2.481   4.993   4.950
    6SAPS  C218  740   2.329   5.152   4.946
    6SAPS  H18R  741   2.252   5.191   5.015
    6SAPS  H18S  742   2.280   5.100   4.861
    6SAPS  C219  743   2.411   5.275   4.896
    6SAPS  H19R  744   2.508   5.246   4.850
    6SAPS  H19S  745   2.441   5.338   4.983
    6SAPS  C220  746   2.324   5.365   4.803
    6SAPS  H20R  747   2.281   5.298   4.726
    6SAPS  H20S  748   2.390   5.434   4.747
    6SAPS  H20T  749   2.243   5.420   4.854
    6SAPS   C33  750   2.980   4.351   5.650
    6SAPS   H3X  751   2.889   4.414   5.653
    6SAPS   H3Y  752   2.947   4.246   5.663
    6SAPS   C34  753   3.044   4.392   5.514
    6SAPS   H4X  754   3.153   4.371   5.523
    6SAPS   H4Y  755   3.025   4.501   5.502
    6SAPS   C35  756   2.978   4.315   5.400
    6SAPS   H5X  757   2.867   4.322   5.399
    6SAPS   H5Y  758   3.002   4.207   5.408
    6SAPS   C36  759   3.027   4.365   5.264
    6SAPS   H6X  760   3.138   4.370   5.260
    6SAPS   H6Y  761   2.994   4.467   5.237
    6SAPS   C37  762   2.976   4.269   5.150
    6SAPS   H7X  763   2.866   4.253   5.150
    6SAPS   H7Y  764   3.034   4.175   5.164
    6SAPS   C38  765   3.017   4.311   5.008
    6SAPS   H8X  766   3.128   4.312   5.011
    6SAPS   H8Y  767   2.967   4.409   4.994
    6SAPS   C39  768   2.962   4.221   4.897
    6SAPS   H9X  769   2.856   4.191   4.908
    6SAPS   H9Y  770   3.027   4.130   4.892
    6SAPS  C310  771   2.988   4.289   4.764
    6SAPS  H10X  772   2.995   4.206   4.691
    6SAPS  H10Y  773   3.091   4.330   4.770
    6SAPS  C311  774   2.895   4.398   4.715
    6SAPS  H11X  775   2.875   4.478   4.790
    6SAPS  H11Y  776   2.798   4.355   4.683
    6SAPS  C312  777   2.955   4.474   4.601
    6SAPS  H12X  778   3.044   4.534   4.628
    6SAPS  H12Y  779   2.885   4.560   4.589
    6SAPS  C313  780   2.988   4.398   4.473
    6SAPS  H13X  781   2.928   4.305   4.460
    6SAPS  H13Y  782   3.092   4.358   4.465
    6SAPS  C314  783   2.946   4.483   4.351
    6SAPS  H14X  784   2.839   4.513   4.347
    6SAPS  H14Y  785   2.946   4.420   4.260
    6SAPS  C315  786   3.040   4.600   4.326
    6SAPS  H15X  787   3.141   4.566   4.294
    6SAPS  H15Y  788   3.051   4.665   4.415
    6SAPS  C316  789   3.001   4.707   4.226
    6SAPS  H16X  790   3.066   4.796   4.228
    6SAPS  H16Y  791   2.900   4.750   4.244
    6SAPS  C317  792   3.003   4.646   4.089
    6SAPS  H17X  793   2.941   4.554   4.087
    6SAPS  H17Y  794   3.110   4.618   4.076
    6SAPS  C318  795   2.953   4.742   3.979
    6SAPS  H18X  796   2.999   4.843   3.986
    6SAPS  H18Y  797   2.844   4.759   3.989
    6SAPS  H18Z  798   2.965   4.693   3.880
    7SAPS     N  799   1.898   0.389   6.579
    7SAPS   HN1  800   1.840   0.304   6.565
    7SAPS   HN2  801   1.872   0.465   6.513
    7SAPS   HN3  802   1.991   0.350   6.551
    7SAPS   C12  803   1.899   0.429   6.722
    7SAPS  H12A  804   1.808   0.486   6.737
    7SAPS   C13  805   1.903   0.303   6.817
    7SAPS  O13A  806   1.885   0.183   6.773
    7SAPS  O13B  807   1.942   0.315   6.935
    7SAPS   C11  808   2.017   0.525   6.745
    7SAPS  H11A  809   2.106   0.460   6.759
    7SAPS  H11B  810   1.985   0.575   6.839
    7SAPS     P  811   2.154   0.720   6.652
    7SAPS   O13  812   2.083   0.852   6.649
    7SAPS   O14  813   2.247   0.684   6.764
    7SAPS   O12  814   2.045   0.609   6.632
    7SAPS   O11  815   2.248   0.711   6.523
    7SAPS    C1  816   2.173   0.674   6.400
    7SAPS    HA  817   2.156   0.568   6.373
    7SAPS    HB  818   2.067   0.709   6.399
    7SAPS    C2  819   2.238   0.747   6.279
    7SAPS    HS  820   2.168   0.763   6.194
    7SAPS   O21  821   2.350   0.666   6.236
    7SAPS   C21  822   2.368   0.650   6.104
    7SAPS   O22  823   2.320   0.722   6.016
    7SAPS   C22  824   2.444   0.524   6.069
    7SAPS   H2R  825   2.548   0.528   6.108
    7SAPS   H2S  826   2.380   0.442   6.109
    7SAPS    C3  827   2.298   0.892   6.327
    7SAPS    HX  828   2.389   0.881   6.390
    7SAPS    HY  829   2.216   0.942   6.383
    7SAPS   O31  830   2.349   0.963   6.212
    7SAPS   C31  831   2.261   1.035   6.141
    7SAPS   O32  832   2.147   1.059   6.177
    7SAPS   C32  833   2.329   1.070   6.013
    7SAPS   H2X  834   2.366   0.976   5.968
    7SAPS   H2Y  835   2.413   1.138   6.040
    7SAPS   C23  836   2.465   0.509   5.914
    7SAPS   H3R  837   2.519   0.598   5.877
    7SAPS   H3S  838   2.365   0.514   5.867
    7SAPS   C24  839   2.530   0.381   5.877
    7SAPS   H4R  840   2.496   0.350   5.776
    7SAPS   H4S  841   2.489   0.300   5.941
    7SAPS   C25  842   2.679   0.381   5.890
    7SAPS   H5R  843   2.725   0.344   5.983
    7SAPS   C26  844   2.765   0.441   5.798
    7SAPS   H6R  845   2.873   0.452   5.816
    7SAPS   C27  846   2.720   0.488   5.664
    7SAPS   H7R  847   2.632   0.556   5.665
    7SAPS   H7S  848   2.680   0.392   5.626
    7SAPS   C28  849   2.826   0.560   5.590
    7SAPS   H8R  850   2.869   0.641   5.650
    7SAPS   C29  851   2.862   0.533   5.463
    7SAPS   H9R  852   2.951   0.586   5.427
    7SAPS  C210  853   2.816   0.416   5.387
    7SAPS  H10R  854   2.832   0.319   5.439
    7SAPS  H10S  855   2.897   0.405   5.312
    7SAPS  C211  856   2.677   0.425   5.325
    7SAPS  H11R  857   2.608   0.486   5.386
    7SAPS  C212  858   2.637   0.389   5.203
    7SAPS  H12R  859   2.528   0.396   5.189
    7SAPS  C213  860   2.715   0.320   5.102
    7SAPS  H13R  861   2.681   0.216   5.119
    7SAPS  H13S  862   2.824   0.328   5.124
    7SAPS  C214  863   2.696   0.363   4.963
    7SAPS  H14R  864   2.715   0.467   4.934
    7SAPS  C215  865   2.644   0.282   4.871
    7SAPS  H15R  866   2.638   0.318   4.767
    7SAPS  C216  867   2.626   0.131   4.868
    7SAPS  H16R  868   2.628   0.095   4.973
    7SAPS  H16S  869   2.705   0.077   4.812
    7SAPS  C217  870   2.496   0.085   4.805
    7SAPS  H17R  871   2.510   0.101   4.696
    7SAPS  H17S  872   2.409   0.151   4.828
    7SAPS  C218  873   2.461   6.788   4.829
    7SAPS  H18R  874   2.436   6.788   4.937
    7SAPS  H18S  875   2.555   6.731   4.811
    7SAPS  C219  876   2.344   6.726   4.750
    7SAPS  H19R  877   2.340   6.616   4.765
    7SAPS  H19S  878   2.373   6.754   4.647
    7SAPS  C220  879   2.209   6.790   4.782
    7SAPS  H20R  880   2.152   6.745   4.865
    7SAPS  H20S  881   2.141   6.776   4.695
    7SAPS  H20T  882   2.210   0.043   4.796
    7SAPS   C33  883   2.232   1.138   5.911
    7SAPS   H3X  884   2.214   1.246   5.929
    7SAPS   H3Y  885   2.134   1.086   5.907
    7SAPS   C34  886   2.299   1.131   5.765
    7SAPS   H4X  887   2.314   1.024   5.740
    7SAPS   H4Y  888   2.400   1.178   5.758
    7SAPS   C35  889   2.218   1.197   5.654
    7SAPS   H5X  890   2.222   1.308   5.666
    7SAPS   H5Y  891   2.111   1.171   5.647
    7SAPS   C36  892   2.280   1.187   5.512
    7SAPS   H6X  893   2.272   1.081   5.479
    7SAPS   H6Y  894   2.389   1.208   5.515
    7SAPS   C37  895   2.209   1.275   5.407
    7SAPS   H7X  896   2.203   1.381   5.442
    7SAPS   H7Y  897   2.106   1.243   5.381
    7SAPS   C38  898   2.288   1.264   5.271
    7SAPS   H8X  899   2.263   1.173   5.211
    7SAPS   H8Y  900   2.396   1.267   5.298
    7SAPS   C39  901   2.253   1.384   5.179
    7SAPS   H9X  902   2.279   1.479   5.231
    7SAPS   H9Y  903   2.143   1.380   5.163
    7SAPS  C310  904   2.325   1.374   5.050
    7SAPS  H10X  905   2.294   1.281   4.996
    7SAPS  H10Y  906   2.434   1.362   5.067
    7SAPS  C311  907   2.302   1.488   4.952
    7SAPS  H11X  908   2.361   1.569   5.001
    7SAPS  H11Y  909   2.193   1.504   4.961
    7SAPS  C312  910   2.358   1.458   4.813
    7SAPS  H12X  911   2.353   1.352   4.778
    7SAPS  H12Y  912   2.467   1.468   4.833
    7SAPS  C313  913   2.311   1.551   4.699
    7SAPS  H13X  914   2.318   1.654   4.741
    7SAPS  H13Y  915   2.206   1.530   4.669
    7SAPS  C314  916   2.390   1.520   4.571
    7SAPS  H14X  917   2.385   1.411   4.548
    7SAPS  H14Y  918   2.497   1.547   4.577
    7SAPS  C315  919   2.322   1.601   4.455
    7SAPS  H15X  920   2.219   1.569   4.428
    7SAPS  H15Y  921   2.379   1.571   4.365
    7SAPS  C316  922   2.340   1.752   4.466
    7SAPS  H16X  923   2.435   1.781   4.516
    7SAPS  H16Y  924   2.260   1.797   4.529
    7SAPS  C317  925   2.333   1.799   4.319
    7SAPS  H17X  926   2.261   1.739   4.260
    7SAPS  H17Y  927   2.434   1.782   4.277
    7SAPS  C318  928   2.295   1.945   4.309
    7SAPS  H18X  929   2.288   1.982   4.205
    7SAPS  H18Y  930   2.371   2.009   4.358
    7SAPS  H18Z  931   2.203   1.972   4.367
    8SAPS     N  932   1.768   1.824   6.701
    8SAPS   HN1  933   1.856   1.769   6.686
    8SAPS   HN2  934   1.692   1.754   6.705
    8SAPS   HN3  935   1.755   1.891   6.623
    8SAPS   C12  936   1.780   1.891   6.834
    8SAPS  H12A  937   1.681   1.905   6.875
    8SAPS   C13  938   1.868   1.809   6.936
    8SAPS  O13A  939   1.957   1.733   6.897
    8SAPS  O13B  940   1.857   1.846   7.054
    8SAPS   C11  941   1.849   2.027   6.809
    8SAPS  H11A  942   1.956   2.020   6.779
    8SAPS  H11B  943   1.842   2.087   6.903
    8SAPS     P  944   1.852   2.242   6.654
    8SAPS   O13  945   1.741   2.339   6.626
    8SAPS   O14  946   1.950   2.286   6.752
    8SAPS   O12  947   1.781   2.112   6.708
    8SAPS   O11  948   1.918   2.214   6.512
    8SAPS    C1  949   1.946   2.081   6.473
    8SAPS    HA  950   1.950   2.008   6.557
    8SAPS    HB  951   1.870   2.046   6.400
    8SAPS    C2  952   2.083   2.073   6.401
    8SAPS    HS  953   2.087   2.131   6.306
    8SAPS   O21  954   2.107   1.936   6.382
    8SAPS   C21  955   2.067   1.883   6.266
    8SAPS   O22  956   1.998   1.949   6.193
    8SAPS   C22  957   2.106   1.735   6.254
    8SAPS   H2R  958   2.202   1.715   6.305
    8SAPS   H2S  959   2.031   1.669   6.302
    8SAPS    C3  960   2.189   2.141   6.487
    8SAPS    HX  961   2.185   2.103   6.591
    8SAPS    HY  962   2.170   2.250   6.493
    8SAPS   O31  963   2.313   2.117   6.427
    8SAPS   C31  964   2.394   2.035   6.491
    8SAPS   O32  965   2.373   1.968   6.588
    8SAPS   C32  966   2.528   2.046   6.428
    8SAPS   H2X  967   2.594   1.995   6.502
    8SAPS   H2Y  968   2.545   2.154   6.412
    8SAPS   C23  969   2.107   1.698   6.103
    8SAPS   H3R  970   2.155   1.780   6.045
    8SAPS   H3S  971   2.004   1.696   6.061
    8SAPS   C24  972   2.172   1.567   6.058
    8SAPS   H4R  973   2.167   1.566   5.947
    8SAPS   H4S  974   2.120   1.480   6.103
    8SAPS   C25  975   2.318   1.552   6.086
    8SAPS   H5R  976   2.336   1.550   6.194
    8SAPS   C26  977   2.423   1.530   6.000
    8SAPS   H6R  978   2.527   1.519   6.034
    8SAPS   C27  979   2.418   1.523   5.851
    8SAPS   H7R  980   2.319   1.560   5.819
    8SAPS   H7S  981   2.435   1.415   5.828
    8SAPS   C28  982   2.511   1.617   5.775
    8SAPS   H8R  983   2.562   1.696   5.832
    8SAPS   C29  984   2.522   1.624   5.644
    8SAPS   H9R  985   2.600   1.687   5.599
    8SAPS  C210  986   2.443   1.544   5.541
    8SAPS  H10R  987   2.377   1.613   5.486
    8SAPS  H10S  988   2.370   1.475   5.589
    8SAPS  C211  989   2.534   1.477   5.439
    8SAPS  H11R  990   2.528   1.367   5.439
    8SAPS  C212  991   2.625   1.533   5.354
    8SAPS  H12R  992   2.688   1.467   5.292
    8SAPS  C213  993   2.640   1.679   5.319
    8SAPS  H13R  994   2.740   1.719   5.347
    8SAPS  H13S  995   2.559   1.730   5.377
    8SAPS  C214  996   2.602   1.721   5.179
    8SAPS  H14R  997   2.522   1.796   5.176
    8SAPS  C215  998   2.662   1.683   5.065
    8SAPS  H15R  999   2.618   1.728   4.975
    8SAPS  C216 1000   2.793   1.613   5.053
    8SAPS  H16R 1001   2.756   1.511   5.030
    8SAPS  H16S 1002   2.851   1.614   5.148
    8SAPS  C217 1003   2.871   1.658   4.932
    8SAPS  H17R 1004   2.969   1.606   4.925
    8SAPS  H17S 1005   2.897   1.766   4.932
    8SAPS  C218 1006   2.805   1.636   4.789
    8SAPS  H18R 1007   2.699   1.667   4.784
    8SAPS  H18S 1008   2.810   1.529   4.759
    8SAPS  C219 1009   2.881   1.707   4.668
    8SAPS  H19R 1010   2.868   1.816   4.685
    8SAPS  H19S 1011   2.833   1.677   4.573
    8SAPS  C220 1012   3.035   1.680   4.667
    8SAPS  H20R 1013   3.079   1.725   4.575
    8SAPS  H20S 1014   3.077   1.577   4.678
    8SAPS  H20T 1015   3.080   1.731   4.755
    8SAPS   C33 1016   2.535   1.967   6.294
    8SAPS   H3X 1017   2.514   1.862   6.325
    8SAPS   H3Y 1018   2.641   1.958   6.262
    8SAPS   C34 1019   2.455   2.026   6.179
    8SAPS   H4X 1020   2.477   2.134   6.170
    8SAPS   H4Y 1021   2.349   2.015   6.212
    8SAPS   C35 1022   2.472   1.947   6.048
    8SAPS   H5X 1023   2.464   1.836   6.054
    8SAPS   H5Y 1024   2.574   1.965   6.009
    8SAPS   C36 1025   2.369   2.019   5.943
    8SAPS   H6X 1026   2.384   2.128   5.934
    8SAPS   H6Y 1027   2.263   2.007   5.975
    8SAPS   C37 1028   2.377   1.953   5.809
    8SAPS   H7X 1029   2.364   1.843   5.816
    8SAPS   H7Y 1030   2.476   1.970   5.763
    8SAPS   C38 1031   2.267   1.983   5.707
    8SAPS   H8X 1032   2.307   2.072   5.654
    8SAPS   H8Y 1033   2.168   2.012   5.748
    8SAPS   C39 1034   2.246   1.865   5.613
    8SAPS   H9X 1035   2.192   1.778   5.658
    8SAPS   H9Y 1036   2.345   1.825   5.582
    8SAPS  C310 1037   2.186   1.901   5.476
    8SAPS  H10X 1038   2.233   1.995   5.439
    8SAPS  H10Y 1039   2.076   1.919   5.473
    8SAPS  C311 1040   2.224   1.803   5.360
    8SAPS  H11X 1041   2.192   1.701   5.388
    8SAPS  H11Y 1042   2.335   1.798   5.351
    8SAPS  C312 1043   2.164   1.840   5.229
    8SAPS  H12X 1044   2.057   1.811   5.223
    8SAPS  H12Y 1045   2.216   1.767   5.165
    8SAPS  C313 1046   2.194   1.980   5.169
    8SAPS  H13X 1047   2.303   1.972   5.150
    8SAPS  H13Y 1048   2.176   2.071   5.229
    8SAPS  C314 1049   2.105   2.001   5.049
    8SAPS  H14X 1050   2.050   2.095   5.070
    8SAPS  H14Y 1051   2.027   1.922   5.045
    8SAPS  C315 1052   2.182   2.018   4.917
    8SAPS  H15X 1053   2.194   1.915   4.878
    8SAPS  H15Y 1054   2.280   2.067   4.932
    8SAPS  C316 1055   2.104   2.109   4.820
    8SAPS  H16X 1056   2.126   2.217   4.834
    8SAPS  H16Y 1057   1.999   2.090   4.853
    8SAPS  C317 1058   2.126   2.074   4.673
    8SAPS  H17X 1059   2.114   1.964   4.660
    8SAPS  H17Y 1060   2.230   2.103   4.646
    8SAPS  C318 1061   2.008   2.121   4.584
    8SAPS  H18X 1062   2.031   2.087   4.481
    8SAPS  H18Y 1063   2.003   2.232   4.577
    8SAPS  H18Z 1064   1.913   2.080   4.624
    9SAPS     N 1065   1.315   5.242   6.620
    9SAPS   HN1 1066   1.280   5.263   6.524
    9SAPS   HN2 1067   1.332   5.339   6.654
    9SAPS   HN3 1068   1.402   5.185   6.616
    9SAPS   C12 1069   1.214   5.172   6.710
    9SAPS  H12A 1070   1.265   5.143   6.800
    9SAPS   C13 1071   1.096   5.258   6.772
    9SAPS  O13A 1072   1.081   5.378   6.733
    9SAPS  O13B 1073   1.005   5.197   6.831
    9SAPS   C11 1074   1.169   5.039   6.642
    9SAPS  H11A 1075   1.116   5.075   6.551
    9SAPS  H11B 1076   1.093   4.988   6.705
    9SAPS     P 1077   1.242   4.802   6.573
    9SAPS   O13 1078   1.369   4.737   6.533
    9SAPS   O14 1079   1.159   4.740   6.675
    9SAPS   O12 1080   1.278   4.953   6.609
    9SAPS   O11 1081   1.146   4.817   6.450
    9SAPS    C1 1082   1.199   4.846   6.323
    9SAPS    HA 1083   1.226   4.954   6.320
    9SAPS    HB 1084   1.292   4.787   6.308
    9SAPS    C2 1085   1.100   4.817   6.211
    9SAPS    HS 1086   1.158   4.839   6.118
    9SAPS   O21 1087   0.979   4.892   6.211
    9SAPS   C21 1088   0.986   5.021   6.207
    9SAPS   O22 1089   1.087   5.082   6.171
    9SAPS   C22 1090   0.847   5.078   6.235
    9SAPS   H2R 1091   0.768   5.003   6.217
    9SAPS   H2S 1092   0.841   5.098   6.345
    9SAPS    C3 1093   1.068   4.664   6.201
    9SAPS    HX 1094   0.976   4.661   6.263
    9SAPS    HY 1095   1.153   4.616   6.252
    9SAPS   O31 1096   1.050   4.611   6.063
    9SAPS   C31 1097   1.158   4.597   5.994
    9SAPS   O32 1098   1.272   4.603   6.032
    9SAPS   C32 1099   1.126   4.560   5.848
    9SAPS   H2X 1100   1.016   4.560   5.836
    9SAPS   H2Y 1101   1.162   4.458   5.822
    9SAPS   C23 1102   0.823   5.204   6.145
    9SAPS   H3R 1103   0.864   5.203   6.042
    9SAPS   H3S 1104   0.874   5.291   6.191
    9SAPS   C24 1105   0.671   5.226   6.131
    9SAPS   H4R 1106   0.629   5.232   6.234
    9SAPS   H4S 1107   0.627   5.139   6.078
    9SAPS   C25 1108   0.663   5.349   6.051
    9SAPS   H5R 1109   0.652   5.442   6.108
    9SAPS   C26 1110   0.634   5.350   5.921
    9SAPS   H6R 1111   0.627   5.448   5.872
    9SAPS   C27 1112   0.633   5.232   5.834
    9SAPS   H7R 1113   0.532   5.190   5.854
    9SAPS   H7S 1114   0.703   5.152   5.867
    9SAPS   C28 1115   0.642   5.220   5.684
    9SAPS   H8R 1116   0.590   5.132   5.644
    9SAPS   C29 1117   0.714   5.300   5.597
    9SAPS   H9R 1118   0.703   5.269   5.492
    9SAPS  C210 1119   0.803   5.417   5.635
    9SAPS  H10R 1120   0.901   5.417   5.583
    9SAPS  H10S 1121   0.838   5.414   5.740
    9SAPS  C211 1122   0.729   5.550   5.620
    9SAPS  H11R 1123   0.689   5.587   5.716
    9SAPS  C212 1124   0.711   5.623   5.509
    9SAPS  H12R 1125   0.687   5.730   5.524
    9SAPS  C213 1126   0.753   5.598   5.368
    9SAPS  H13R 1127   0.664   5.603   5.302
    9SAPS  H13S 1128   0.792   5.495   5.355
    9SAPS  C214 1129   0.856   5.694   5.320
    9SAPS  H14R 1130   0.934   5.708   5.397
    9SAPS  C215 1131   0.848   5.771   5.207
    9SAPS  H15R 1132   0.932   5.838   5.180
    9SAPS  C216 1133   0.738   5.776   5.101
    9SAPS  H16R 1134   0.748   5.873   5.049
    9SAPS  H16S 1135   0.638   5.779   5.148
    9SAPS  C217 1136   0.747   5.662   4.999
    9SAPS  H17R 1137   0.665   5.677   4.926
    9SAPS  H17S 1138   0.735   5.566   5.054
    9SAPS  C218 1139   0.880   5.641   4.914
    9SAPS  H18R 1140   0.963   5.608   4.980
    9SAPS  H18S 1141   0.910   5.735   4.862
    9SAPS  C219 1142   0.860   5.539   4.801
    9SAPS  H19R 1143   0.779   5.468   4.829
    9SAPS  H19S 1144   0.957   5.486   4.783
    9SAPS  C220 1145   0.838   5.596   4.667
    9SAPS  H20R 1146   0.836   5.526   4.580
    9SAPS  H20S 1147   0.917   5.670   4.643
    9SAPS  H20T 1148   0.738   5.645   4.671
    9SAPS   C33 1149   1.204   4.648   5.747
    9SAPS   H3X 1150   1.304   4.679   5.784
    9SAPS   H3Y 1151   1.134   4.732   5.728
    9SAPS   C34 1152   1.232   4.574   5.614
    9SAPS   H4X 1153   1.140   4.520   5.582
    9SAPS   H4Y 1154   1.314   4.498   5.616
    9SAPS   C35 1155   1.267   4.676   5.507
    9SAPS   H5X 1156   1.373   4.706   5.521
    9SAPS   H5Y 1157   1.199   4.763   5.520
    9SAPS   C36 1158   1.254   4.628   5.360
    9SAPS   H6X 1159   1.308   4.531   5.354
    9SAPS   H6Y 1160   1.307   4.710   5.306
    9SAPS   C37 1161   1.109   4.619   5.313
    9SAPS   H7X 1162   1.052   4.700   5.363
    9SAPS   H7Y 1163   1.080   4.527   5.367
    9SAPS   C38 1164   1.091   4.621   5.164
    9SAPS   H8X 1165   1.140   4.713   5.124
    9SAPS   H8Y 1166   0.987   4.636   5.128
    9SAPS   C39 1167   1.144   4.488   5.102
    9SAPS   H9X 1168   1.096   4.400   5.148
    9SAPS   H9Y 1169   1.242   4.467   5.150
    9SAPS  C310 1170   1.153   4.485   4.949
    9SAPS  H10X 1171   1.209   4.577   4.920
    9SAPS  H10Y 1172   1.056   4.487   4.897
    9SAPS  C311 1173   1.232   4.367   4.896
    9SAPS  H11X 1174   1.168   4.280   4.920
    9SAPS  H11Y 1175   1.335   4.367   4.938
    9SAPS  C312 1176   1.277   4.381   4.751
    9SAPS  H12X 1177   1.359   4.454   4.735
    9SAPS  H12Y 1178   1.193   4.420   4.689
    9SAPS  C313 1179   1.327   4.254   4.695
    9SAPS  H13X 1180   1.255   4.170   4.695
    9SAPS  H13Y 1181   1.430   4.229   4.728
    9SAPS  C314 1182   1.336   4.266   4.539
    9SAPS  H14X 1183   1.262   4.343   4.506
    9SAPS  H14Y 1184   1.311   4.175   4.481
    9SAPS  C315 1185   1.469   4.326   4.484
    9SAPS  H15X 1186   1.532   4.236   4.474
    9SAPS  H15Y 1187   1.509   4.382   4.572
    9SAPS  C316 1188   1.440   4.407   4.357
    9SAPS  H16X 1189   1.358   4.481   4.364
    9SAPS  H16Y 1190   1.417   4.342   4.270
    9SAPS  C317 1191   1.566   4.485   4.314
    9SAPS  H17X 1192   1.655   4.418   4.304
    9SAPS  H17Y 1193   1.598   4.549   4.399
    9SAPS  C318 1194   1.539   4.572   4.193
    9SAPS  H18X 1195   1.463   4.651   4.213
    9SAPS  H18Y 1196   1.497   4.513   4.109
    9SAPS  H18Z 1197   1.631   4.616   4.149
   10SAPS     N 1198   2.040   5.205   6.487
   10SAPS   HN1 1199   2.104   5.140   6.437
   10SAPS   HN2 1200   1.966   5.214   6.415
   10SAPS   HN3 1201   2.084   5.297   6.509
   10SAPS   C12 1202   1.982   5.144   6.609
   10SAPS  H12A 1203   2.057   5.137   6.686
   10SAPS   C13 1204   1.875   5.237   6.673
   10SAPS  O13A 1205   1.847   5.344   6.613
   10SAPS  O13B 1206   1.812   5.197   6.774
   10SAPS   C11 1207   1.917   5.005   6.577
   10SAPS  H11A 1208   1.838   5.028   6.503
   10SAPS  H11B 1209   1.865   4.975   6.671
   10SAPS     P 1210   1.974   4.797   6.425
   10SAPS   O13 1211   2.029   4.830   6.295
   10SAPS   O14 1212   2.011   4.669   6.488
   10SAPS   O12 1213   2.012   4.911   6.527
   10SAPS   O11 1214   1.823   4.789   6.417
   10SAPS    C1 1215   1.747   4.718   6.317
   10SAPS    HA 1216   1.806   4.640   6.264
   10SAPS    HB 1217   1.662   4.667   6.369
   10SAPS    C2 1218   1.670   4.807   6.210
   10SAPS    HS 1219   1.612   4.745   6.138
   10SAPS   O21 1220   1.764   4.885   6.135
   10SAPS   C21 1221   1.829   4.828   6.039
   10SAPS   O22 1222   1.811   4.713   6.007
   10SAPS   C22 1223   1.929   4.925   5.975
   10SAPS   H2R 1224   1.881   5.020   5.943
   10SAPS   H2S 1225   2.014   4.948   6.043
   10SAPS    C3 1226   1.578   4.899   6.283
   10SAPS    HX 1227   1.630   4.959   6.361
   10SAPS    HY 1228   1.504   4.833   6.332
   10SAPS   O31 1229   1.504   4.988   6.200
   10SAPS   C31 1230   1.550   5.105   6.166
   10SAPS   O32 1231   1.660   5.151   6.189
   10SAPS   C32 1232   1.452   5.170   6.070
   10SAPS   H2X 1233   1.426   5.262   6.126
   10SAPS   H2Y 1234   1.355   5.115   6.072
   10SAPS   C23 1235   1.995   4.870   5.847
   10SAPS   H3R 1236   1.912   4.839   5.780
   10SAPS   H3S 1237   2.042   4.775   5.878
   10SAPS   C24 1238   2.105   4.950   5.776
   10SAPS   H4R 1239   2.120   4.894   5.681
   10SAPS   H4S 1240   2.195   4.933   5.838
   10SAPS   C25 1241   2.055   5.094   5.757
   10SAPS   H5R 1242   2.051   5.158   5.847
   10SAPS   C26 1243   2.015   5.143   5.636
   10SAPS   H6R 1244   1.985   5.249   5.634
   10SAPS   C27 1245   2.027   5.063   5.504
   10SAPS   H7R 1246   1.944   4.990   5.491
   10SAPS   H7S 1247   2.123   5.008   5.519
   10SAPS   C28 1248   2.041   5.151   5.378
   10SAPS   H8R 1249   2.058   5.257   5.402
   10SAPS   C29 1250   2.027   5.110   5.249
   10SAPS   H9R 1251   2.060   5.182   5.172
   10SAPS  C210 1252   2.005   4.966   5.205
   10SAPS  H10R 1253   1.977   4.904   5.293
   10SAPS  H10S 1254   2.106   4.929   5.178
   10SAPS  C211 1255   1.913   4.956   5.089
   10SAPS  H11R 1256   1.811   4.990   5.113
   10SAPS  C212 1257   1.930   4.920   4.954
   10SAPS  H12R 1258   1.839   4.920   4.893
   10SAPS  C213 1259   2.061   4.877   4.892
   10SAPS  H13R 1260   2.149   4.895   4.958
   10SAPS  H13S 1261   2.088   4.936   4.802
   10SAPS  C214 1262   2.044   4.733   4.846
   10SAPS  H14R 1263   2.015   4.661   4.924
   10SAPS  C215 1264   2.057   4.681   4.717
   10SAPS  H15R 1265   2.022   4.580   4.693
   10SAPS  C216 1266   2.083   4.768   4.591
   10SAPS  H16R 1267   2.171   4.834   4.606
   10SAPS  H16S 1268   2.000   4.842   4.593
   10SAPS  C217 1269   2.081   4.687   4.464
   10SAPS  H17R 1270   1.989   4.625   4.465
   10SAPS  H17S 1271   2.171   4.624   4.476
   10SAPS  C218 1272   2.087   4.780   4.344
   10SAPS  H18R 1273   2.147   4.728   4.266
   10SAPS  H18S 1274   2.150   4.867   4.370
   10SAPS  C219 1275   1.957   4.821   4.283
   10SAPS  H19R 1276   1.888   4.879   4.348
   10SAPS  H19S 1277   1.898   4.734   4.250
   10SAPS  C220 1278   1.970   4.909   4.162
   10SAPS  H20R 1279   2.040   4.991   4.188
   10SAPS  H20S 1280   1.870   4.954   4.143
   10SAPS  H20T 1281   2.012   4.854   4.076
   10SAPS   C33 1282   1.507   5.193   5.926
   10SAPS   H3X 1283   1.610   5.231   5.942
   10SAPS   H3Y 1284   1.448   5.269   5.872
   10SAPS   C34 1285   1.528   5.066   5.834
   10SAPS   H4X 1286   1.431   5.012   5.822
   10SAPS   H4Y 1287   1.607   5.002   5.880
   10SAPS   C35 1288   1.571   5.100   5.688
   10SAPS   H5X 1289   1.669   5.150   5.704
   10SAPS   H5Y 1290   1.497   5.177   5.656
   10SAPS   C36 1291   1.584   4.986   5.585
   10SAPS   H6X 1292   1.551   4.888   5.625
   10SAPS   H6Y 1293   1.695   4.976   5.579
   10SAPS   C37 1294   1.512   5.003   5.454
   10SAPS   H7X 1295   1.552   5.096   5.408
   10SAPS   H7Y 1296   1.402   5.011   5.467
   10SAPS   C38 1297   1.537   4.892   5.346
   10SAPS   H8X 1298   1.514   4.792   5.388
   10SAPS   H8Y 1299   1.643   4.897   5.311
   10SAPS   C39 1300   1.456   4.924   5.223
   10SAPS   H9X 1301   1.490   5.021   5.181
   10SAPS   H9Y 1302   1.345   4.923   5.228
   10SAPS  C310 1303   1.495   4.822   5.114
   10SAPS  H10X 1304   1.489   4.719   5.153
   10SAPS  H10Y 1305   1.600   4.837   5.081
   10SAPS  C311 1306   1.406   4.826   4.992
   10SAPS  H11X 1307   1.400   4.930   4.953
   10SAPS  H11Y 1308   1.301   4.807   5.025
   10SAPS  C312 1309   1.445   4.741   4.870
   10SAPS  H12X 1310   1.440   4.632   4.893
   10SAPS  H12Y 1311   1.555   4.752   4.858
   10SAPS  C313 1312   1.369   4.762   4.735
   10SAPS  H13X 1313   1.335   4.868   4.732
   10SAPS  H13Y 1314   1.271   4.710   4.746
   10SAPS  C314 1315   1.451   4.738   4.614
   10SAPS  H14X 1316   1.384   4.729   4.526
   10SAPS  H14Y 1317   1.513   4.647   4.630
   10SAPS  C315 1318   1.561   4.844   4.587
   10SAPS  H15X 1319   1.634   4.800   4.516
   10SAPS  H15Y 1320   1.622   4.847   4.680
   10SAPS  C316 1321   1.515   4.985   4.545
   10SAPS  H16X 1322   1.515   5.067   4.619
   10SAPS  H16Y 1323   1.411   4.984   4.505
   10SAPS  C317 1324   1.594   5.025   4.418
   10SAPS  H17X 1325   1.570   4.959   4.333
   10SAPS  H17Y 1326   1.705   5.023   4.423
   10SAPS  C318 1327   1.558   5.166   4.387
   10SAPS  H18X 1328   1.581   5.229   4.476
   10SAPS  H18Y 1329   1.447   5.174   4.390
   10SAPS  H18Z 1330   1.601   5.215   4.297
   11SAPS     N 1331   3.143   2.463   2.180
   11SAPS   HN1 1332   3.145   2.560   2.219
   11SAPS   HN2 1333   3.042   2.443   2.164
   11SAPS   HN3 1334   3.183   2.387   2.238
   11SAPS   C12 1335   3.228   2.481   2.060
   11SAPS  H12A 1336   3.328   2.447   2.081
   11SAPS   C13 1337   3.180   2.391   1.942
   11SAPS  O13A 1338   3.115   2.284   1.976
   11SAPS  O13B 1339   3.243   2.396   1.830
   11SAPS   C11 1340   3.231   2.628   2.024
   11SAPS  H11A 1341   3.129   2.673   2.017
   11SAPS  H11B 1342   3.263   2.637   1.918
   11SAPS     P 1343   3.374   2.844   2.054
   11SAPS   O13 1344   3.452   2.827   1.931
   11SAPS   O14 1345   3.254   2.933   2.047
   11SAPS   O12 1346   3.325   2.702   2.101
   11SAPS   O11 1347   3.475   2.899   2.166
   11SAPS    C1 1348   3.442   2.859   2.303
   11SAPS    HA 1349   3.354   2.791   2.309
   11SAPS    HB 1350   3.522   2.799   2.351
   11SAPS    C2 1351   3.407   2.979   2.395
   11SAPS    HS 1352   3.298   2.990   2.372
   11SAPS   O21 1353   3.472   3.103   2.351
   11SAPS   C21 1354   3.418   3.224   2.393
   11SAPS   O22 1355   3.330   3.237   2.472
   11SAPS   C22 1356   3.487   3.333   2.310
   11SAPS   H2R 1357   3.589   3.321   2.353
   11SAPS   H2S 1358   3.501   3.305   2.203
   11SAPS    C3 1359   3.413   2.949   2.544
   11SAPS    HX 1360   3.381   3.041   2.598
   11SAPS    HY 1361   3.521   2.932   2.563
   11SAPS   O31 1362   3.335   2.836   2.574
   11SAPS   C31 1363   3.285   2.842   2.696
   11SAPS   O32 1364   3.310   2.926   2.778
   11SAPS   C32 1365   3.183   2.730   2.718
   11SAPS   H2X 1366   3.197   2.643   2.650
   11SAPS   H2Y 1367   3.078   2.763   2.702
   11SAPS   C23 1368   3.450   3.479   2.323
   11SAPS   H3R 1369   3.340   3.497   2.320
   11SAPS   H3S 1370   3.477   3.524   2.226
   11SAPS   C24 1371   3.511   3.549   2.443
   11SAPS   H4R 1372   3.621   3.532   2.442
   11SAPS   H4S 1373   3.480   3.504   2.539
   11SAPS   C25 1374   3.489   3.696   2.446
   11SAPS   H5R 1375   3.487   3.745   2.348
   11SAPS   C26 1376   3.466   3.776   2.555
   11SAPS   H6R 1377   3.453   3.884   2.538
   11SAPS   C27 1378   3.450   3.730   2.697
   11SAPS   H7R 1379   3.525   3.651   2.717
   11SAPS   H7S 1380   3.346   3.691   2.703
   11SAPS   C28 1381   3.456   3.847   2.789
   11SAPS   H8R 1382   3.464   3.946   2.741
   11SAPS   C29 1383   3.450   3.831   2.927
   11SAPS   H9R 1384   3.437   3.927   2.980
   11SAPS  C210 1385   3.420   3.698   3.005
   11SAPS  H10R 1386   3.376   3.617   2.944
   11SAPS  H10S 1387   3.345   3.722   3.084
   11SAPS  C211 1388   3.549   3.646   3.058
   11SAPS  H11R 1389   3.609   3.598   2.979
   11SAPS  C212 1390   3.604   3.660   3.182
   11SAPS  H12R 1391   3.698   3.602   3.182
   11SAPS  C213 1392   3.549   3.733   3.300
   11SAPS  H13R 1393   3.485   3.818   3.270
   11SAPS  H13S 1394   3.635   3.777   3.353
   11SAPS  C214 1395   3.457   3.635   3.382
   11SAPS  H14R 1396   3.394   3.580   3.310
   11SAPS  C215 1397   3.448   3.614   3.513
   11SAPS  H15R 1398   3.373   3.542   3.551
   11SAPS  C216 1399   3.522   3.678   3.628
   11SAPS  H16R 1400   3.452   3.756   3.665
   11SAPS  H16S 1401   3.599   3.739   3.577
   11SAPS  C217 1402   3.578   3.586   3.734
   11SAPS  H17R 1403   3.605   3.639   3.828
   11SAPS  H17S 1404   3.672   3.543   3.695
   11SAPS  C218 1405   3.472   3.482   3.797
   11SAPS  H18R 1406   3.445   3.408   3.718
   11SAPS  H18S 1407   3.385   3.535   3.841
   11SAPS  C219 1408   3.528   3.408   3.923
   11SAPS  H19R 1409   3.575   3.485   3.988
   11SAPS  H19S 1410   3.605   3.337   3.886
   11SAPS  C220 1411   3.418   3.338   3.999
   11SAPS  H20R 1412   3.350   3.418   4.037
   11SAPS  H20S 1413   3.458   3.279   4.084
   11SAPS  H20T 1414   3.362   3.271   3.930
   11SAPS   C33 1415   3.193   2.665   2.861
   11SAPS   H3X 1416   3.294   2.666   2.906
   11SAPS   H3Y 1417   3.155   2.561   2.853
   11SAPS   C34 1418   3.093   2.723   2.962
   11SAPS   H4X 1419   2.997   2.671   2.942
   11SAPS   H4Y 1420   3.066   2.829   2.941
   11SAPS   C35 1421   3.132   2.706   3.109
   11SAPS   H5X 1422   3.149   2.598   3.130
   11SAPS   H5Y 1423   3.044   2.738   3.170
   11SAPS   C36 1424   3.269   2.778   3.141
   11SAPS   H6X 1425   3.279   2.880   3.100
   11SAPS   H6Y 1426   3.348   2.717   3.094
   11SAPS   C37 1427   3.289   2.774   3.293
   11SAPS   H7X 1428   3.392   2.814   3.304
   11SAPS   H7Y 1429   3.287   2.665   3.314
   11SAPS   C38 1430   3.181   2.844   3.377
   11SAPS   H8X 1431   3.084   2.793   3.358
   11SAPS   H8Y 1432   3.181   2.949   3.342
   11SAPS   C39 1433   3.226   2.837   3.530
   11SAPS   H9X 1434   3.233   2.734   3.570
   11SAPS   H9Y 1435   3.146   2.888   3.589
   11SAPS  C310 1436   3.357   2.910   3.570
   11SAPS  H10X 1437   3.358   3.016   3.539
   11SAPS  H10Y 1438   3.439   2.854   3.519
   11SAPS  C311 1439   3.394   2.907   3.720
   11SAPS  H11X 1440   3.498   2.939   3.740
   11SAPS  H11Y 1441   3.384   2.802   3.755
   11SAPS  C312 1442   3.325   3.005   3.819
   11SAPS  H12X 1443   3.215   2.989   3.831
   11SAPS  H12Y 1444   3.347   3.109   3.790
   11SAPS  C313 1445   3.384   2.979   3.962
   11SAPS  H13X 1446   3.481   3.034   3.955
   11SAPS  H13Y 1447   3.406   2.870   3.965
   11SAPS  C314 1448   3.291   3.014   4.077
   11SAPS  H14X 1449   3.197   2.960   4.056
   11SAPS  H14Y 1450   3.261   3.121   4.084
   11SAPS  C315 1451   3.350   2.968   4.210
   11SAPS  H15X 1452   3.355   2.857   4.204
   11SAPS  H15Y 1453   3.286   2.997   4.296
   11SAPS  C316 1454   3.498   3.020   4.235
   11SAPS  H16X 1455   3.492   3.125   4.271
   11SAPS  H16Y 1456   3.565   3.010   4.146
   11SAPS  C317 1457   3.562   2.940   4.349
   11SAPS  H17X 1458   3.492   2.965   4.431
   11SAPS  H17Y 1459   3.662   2.975   4.382
   11SAPS  C318 1460   3.580   2.787   4.327
   11SAPS  H18X 1461   3.658   2.754   4.398
   11SAPS  H18Y 1462   3.616   2.761   4.226
   11SAPS  H18Z 1463   3.485   2.732   4.345
   12SAPS     N 1464   2.219   2.772   2.157
   12SAPS   HN1 1465   2.143   2.809   2.096
   12SAPS   HN2 1466   2.192   2.800   2.254
   12SAPS   HN3 1467   2.307   2.825   2.143
   12SAPS   C12 1468   2.238   2.632   2.128
   12SAPS  H12A 1469   2.237   2.579   2.222
   12SAPS   C13 1470   2.112   2.568   2.051
   12SAPS  O13A 1471   2.011   2.645   2.033
   12SAPS  O13B 1472   2.091   2.443   2.056
   12SAPS   C11 1473   2.365   2.616   2.046
   12SAPS  H11A 1474   2.374   2.694   1.967
   12SAPS  H11B 1475   2.367   2.514   2.001
   12SAPS     P 1476   2.548   2.522   2.209
   12SAPS   O13 1477   2.493   2.385   2.164
   12SAPS   O14 1478   2.688   2.545   2.202
   12SAPS   O12 1479   2.476   2.636   2.129
   12SAPS   O11 1480   2.490   2.557   2.351
   12SAPS    C1 1481   2.529   2.667   2.431
   12SAPS    HA 1482   2.638   2.670   2.448
   12SAPS    HB 1483   2.496   2.766   2.391
   12SAPS    C2 1484   2.459   2.658   2.572
   12SAPS    HS 1485   2.507   2.731   2.642
   12SAPS   O21 1486   2.461   2.521   2.623
   12SAPS   C21 1487   2.587   2.493   2.660
   12SAPS   O22 1488   2.680   2.571   2.648
   12SAPS   C22 1489   2.597   2.350   2.716
   12SAPS   H2R 1490   2.504   2.295   2.689
   12SAPS   H2S 1491   2.687   2.306   2.668
   12SAPS    C3 1492   2.309   2.697   2.564
   12SAPS    HX 1493   2.261   2.621   2.497
   12SAPS    HY 1494   2.301   2.794   2.512
   12SAPS   O31 1495   2.247   2.685   2.691
   12SAPS   C31 1496   2.276   2.784   2.771
   12SAPS   O32 1497   2.319   2.891   2.742
   12SAPS   C32 1498   2.240   2.725   2.911
   12SAPS   H2X 1499   2.333   2.677   2.947
   12SAPS   H2Y 1500   2.165   2.643   2.911
   12SAPS   C23 1501   2.625   2.357   2.871
   12SAPS   H3R 1502   2.706   2.432   2.887
   12SAPS   H3S 1503   2.655   2.254   2.898
   12SAPS   C24 1504   2.501   2.398   2.957
   12SAPS   H4R 1505   2.457   2.489   2.912
   12SAPS   H4S 1506   2.533   2.419   3.062
   12SAPS   C25 1507   2.400   2.277   2.952
   12SAPS   H5R 1508   2.311   2.287   2.889
   12SAPS   C26 1509   2.415   2.158   3.024
   12SAPS   H6R 1510   2.329   2.090   3.012
   12SAPS   C27 1511   2.521   2.118   3.119
   12SAPS   H7R 1512   2.593   2.200   3.143
   12SAPS   H7S 1513   2.583   2.041   3.069
   12SAPS   C28 1514   2.472   2.050   3.245
   12SAPS   H8R 1515   2.402   1.966   3.232
   12SAPS   C29 1516   2.514   2.076   3.372
   12SAPS   H9R 1517   2.470   2.005   3.444
   12SAPS  C210 1518   2.616   2.169   3.429
   12SAPS  H10R 1519   2.562   2.253   3.479
   12SAPS  H10S 1520   2.685   2.204   3.349
   12SAPS  C211 1521   2.693   2.084   3.531
   12SAPS  H11R 1522   2.753   2.003   3.487
   12SAPS  C212 1523   2.711   2.108   3.664
   12SAPS  H12R 1524   2.761   2.024   3.716
   12SAPS  C213 1525   2.640   2.204   3.758
   12SAPS  H13R 1526   2.541   2.161   3.787
   12SAPS  H13S 1527   2.619   2.299   3.705
   12SAPS  C214 1528   2.710   2.224   3.893
   12SAPS  H14R 1529   2.818   2.244   3.890
   12SAPS  C215 1530   2.648   2.232   4.011
   12SAPS  H15R 1531   2.702   2.249   4.105
   12SAPS  C216 1532   2.495   2.216   4.028
   12SAPS  H16R 1533   2.477   2.107   4.025
   12SAPS  H16S 1534   2.435   2.266   3.949
   12SAPS  C217 1535   2.447   2.285   4.161
   12SAPS  H17R 1536   2.483   2.390   4.163
   12SAPS  H17S 1537   2.486   2.228   4.247
   12SAPS  C218 1538   2.293   2.296   4.172
   12SAPS  H18R 1539   2.252   2.194   4.161
   12SAPS  H18S 1540   2.260   2.351   4.081
   12SAPS  C219 1541   2.240   2.357   4.301
   12SAPS  H19R 1542   2.296   2.451   4.318
   12SAPS  H19S 1543   2.259   2.286   4.385
   12SAPS  C220 1544   2.086   2.377   4.291
   12SAPS  H20R 1545   2.063   2.449   4.372
   12SAPS  H20S 1546   2.033   2.279   4.292
   12SAPS  H20T 1547   2.061   2.426   4.195
   12SAPS   C33 1548   2.207   2.832   3.026
   12SAPS   H3X 1549   2.109   2.877   2.999
   12SAPS   H3Y 1550   2.281   2.915   3.030
   12SAPS   C34 1551   2.212   2.765   3.166
   12SAPS   H4X 1552   2.315   2.726   3.173
   12SAPS   H4Y 1553   2.143   2.678   3.166
   12SAPS   C35 1554   2.167   2.867   3.276
   12SAPS   H5X 1555   2.088   2.930   3.230
   12SAPS   H5Y 1556   2.249   2.939   3.298
   12SAPS   C36 1557   2.121   2.801   3.406
   12SAPS   H6X 1558   2.206   2.746   3.451
   12SAPS   H6Y 1559   2.039   2.728   3.386
   12SAPS   C37 1560   2.083   2.903   3.510
   12SAPS   H7X 1561   2.008   2.973   3.466
   12SAPS   H7Y 1562   2.176   2.955   3.540
   12SAPS   C38 1563   2.041   2.848   3.647
   12SAPS   H8X 1564   2.054   2.937   3.712
   12SAPS   H8Y 1565   2.118   2.777   3.684
   12SAPS   C39 1566   1.900   2.786   3.653
   12SAPS   H9X 1567   1.914   2.690   3.598
   12SAPS   H9Y 1568   1.824   2.846   3.599
   12SAPS  C310 1569   1.861   2.762   3.803
   12SAPS  H10X 1570   1.760   2.715   3.810
   12SAPS  H10Y 1571   1.832   2.853   3.859
   12SAPS  C311 1572   1.958   2.683   3.894
   12SAPS  H11X 1573   1.899   2.667   3.986
   12SAPS  H11Y 1574   2.050   2.741   3.917
   12SAPS  C312 1575   2.019   2.550   3.843
   12SAPS  H12X 1576   2.077   2.513   3.930
   12SAPS  H12Y 1577   2.094   2.568   3.763
   12SAPS  C313 1578   1.910   2.447   3.804
   12SAPS  H13X 1579   1.962   2.362   3.754
   12SAPS  H13Y 1580   1.826   2.483   3.742
   12SAPS  C314 1581   1.838   2.384   3.922
   12SAPS  H14X 1582   1.788   2.462   3.984
   12SAPS  H14Y 1583   1.918   2.344   3.987
   12SAPS  C315 1584   1.728   2.282   3.882
   12SAPS  H15X 1585   1.748   2.219   3.792
   12SAPS  H15Y 1586   1.645   2.353   3.861
   12SAPS  C316 1587   1.675   2.206   4.008
   12SAPS  H16X 1588   1.658   2.284   4.086
   12SAPS  H16Y 1589   1.761   2.144   4.042
   12SAPS  C317 1590   1.544   2.124   3.987
   12SAPS  H17X 1591   1.566   2.057   3.901
   12SAPS  H17Y 1592   1.467   2.196   3.953
   12SAPS  C318 1593   1.472   2.057   4.111
   12SAPS  H18X 1594   1.513   1.954   4.115
   12SAPS  H18Y 1595   1.363   2.057   4.085
   12SAPS  H18Z 1596   1.497   2.111   4.204
   13SAPS     N 1597   4.623   1.010   2.360
   13SAPS   HN1 1598   4.657   1.002   2.458
   13SAPS   HN2 1599   4.520   1.022   2.364
   13SAPS   HN3 1600   4.650   0.924   2.308
   13SAPS   C12 1601   4.678   1.137   2.293
   13SAPS  H12A 1602   4.784   1.119   2.278
   13SAPS   C13 1603   4.624   1.175   2.152
   13SAPS  O13A 1604   4.541   1.108   2.088
   13SAPS  O13B 1605   4.672   1.282   2.106
   13SAPS   C11 1606   4.652   1.246   2.401
   13SAPS  H11A 1607   4.706   1.339   2.371
   13SAPS  H11B 1608   4.699   1.229   2.500
   13SAPS     P 1609   4.452   1.389   2.504
   13SAPS   O13 1610   4.513   1.504   2.435
   13SAPS   O14 1611   4.307   1.376   2.511
   13SAPS   O12 1612   4.513   1.266   2.438
   13SAPS   O11 1613   4.506   1.394   2.656
   13SAPS    C1 1614   4.502   1.296   2.762
   13SAPS    HA 1615   4.411   1.329   2.816
   13SAPS    HB 1616   4.494   1.194   2.719
   13SAPS    C2 1617   4.627   1.317   2.853
   13SAPS    HS 1618   4.719   1.273   2.808
   13SAPS   O21 1619   4.601   1.256   2.991
   13SAPS   C21 1620   4.614   1.124   2.995
   13SAPS   O22 1621   4.654   1.049   2.910
   13SAPS   C22 1622   4.578   1.075   3.136
   13SAPS   H2R 1623   4.532   0.976   3.115
   13SAPS   H2S 1624   4.672   1.049   3.189
   13SAPS    C3 1625   4.654   1.470   2.864
   13SAPS    HX 1626   4.555   1.519   2.880
   13SAPS    HY 1627   4.693   1.501   2.765
   13SAPS   O31 1628   4.751   1.502   2.965
   13SAPS   C31 1629   4.748   1.621   3.018
   13SAPS   O32 1630   4.696   1.724   2.972
   13SAPS   C32 1631   4.814   1.613   3.160
   13SAPS   H2X 1632   4.889   1.695   3.153
   13SAPS   H2Y 1633   4.851   1.509   3.166
   13SAPS   C23 1634   4.492   1.176   3.213
   13SAPS   H3R 1635   4.416   1.130   3.280
   13SAPS   H3S 1636   4.419   1.223   3.144
   13SAPS   C24 1637   4.575   1.283   3.293
   13SAPS   H4R 1638   4.619   1.351   3.218
   13SAPS   H4S 1639   4.653   1.234   3.355
   13SAPS   C25 1640   4.485   1.361   3.386
   13SAPS   H5R 1641   4.429   1.442   3.337
   13SAPS   C26 1642   4.476   1.349   3.519
   13SAPS   H6R 1643   4.409   1.411   3.581
   13SAPS   C27 1644   4.548   1.249   3.603
   13SAPS   H7R 1645   4.568   1.158   3.543
   13SAPS   H7S 1646   4.471   1.218   3.677
   13SAPS   C28 1647   4.668   1.308   3.670
   13SAPS   H8R 1648   4.763   1.280   3.622
   13SAPS   C29 1649   4.669   1.388   3.778
   13SAPS   H9R 1650   4.766   1.407   3.827
   13SAPS  C210 1651   4.544   1.436   3.841
   13SAPS  H10R 1652   4.467   1.356   3.841
   13SAPS  H10S 1653   4.513   1.525   3.783
   13SAPS  C211 1654   4.558   1.480   3.987
   13SAPS  H11R 1655   4.579   1.587   4.002
   13SAPS  C212 1656   4.530   1.398   4.095
   13SAPS  H12R 1657   4.557   1.436   4.194
   13SAPS  C213 1658   4.490   1.254   4.091
   13SAPS  H13R 1659   4.428   1.226   4.003
   13SAPS  H13S 1660   4.425   1.233   4.179
   13SAPS  C214 1661   4.605   1.150   4.077
   13SAPS  H14R 1662   4.634   1.118   3.976
   13SAPS  C215 1663   4.661   1.081   4.174
   13SAPS  H15R 1664   4.731   1.008   4.130
   13SAPS  C216 1665   4.637   1.090   4.323
   13SAPS  H16R 1666   4.528   1.076   4.344
   13SAPS  H16S 1667   4.672   1.188   4.360
   13SAPS  C217 1668   4.717   0.993   4.411
   13SAPS  H17R 1669   4.821   1.029   4.424
   13SAPS  H17S 1670   4.715   0.889   4.372
   13SAPS  C218 1671   4.649   0.980   4.551
   13SAPS  H18R 1672   4.708   0.906   4.610
   13SAPS  H18S 1673   4.552   0.932   4.529
   13SAPS  C219 1674   4.641   1.116   4.625
   13SAPS  H19R 1675   4.605   1.087   4.726
   13SAPS  H19S 1676   4.565   1.185   4.583
   13SAPS  C220 1677   4.771   1.202   4.631
   13SAPS  H20R 1678   4.769   1.267   4.541
   13SAPS  H20S 1679   4.863   1.144   4.610
   13SAPS  H20T 1680   4.767   1.271   4.718
   13SAPS   C33 1681   4.715   1.646   3.276
   13SAPS   H3X 1682   4.752   1.604   3.372
   13SAPS   H3Y 1683   4.620   1.590   3.267
   13SAPS   C34 1684   4.693   1.797   3.291
   13SAPS   H4X 1685   4.642   1.838   3.202
   13SAPS   H4Y 1686   4.795   1.842   3.292
   13SAPS   C35 1687   4.601   1.830   3.406
   13SAPS   H5X 1688   4.599   1.940   3.419
   13SAPS   H5Y 1689   4.648   1.788   3.498
   13SAPS   C36 1690   4.453   1.799   3.389
   13SAPS   H6X 1691   4.441   1.689   3.378
   13SAPS   H6Y 1692   4.410   1.846   3.298
   13SAPS   C37 1693   4.370   1.854   3.504
   13SAPS   H7X 1694   4.261   1.836   3.489
   13SAPS   H7Y 1695   4.367   1.965   3.505
   13SAPS   C38 1696   4.414   1.809   3.636
   13SAPS   H8X 1697   4.513   1.859   3.647
   13SAPS   H8Y 1698   4.445   1.702   3.640
   13SAPS   C39 1699   4.316   1.837   3.749
   13SAPS   H9X 1700   4.211   1.807   3.730
   13SAPS   H9Y 1701   4.326   1.945   3.772
   13SAPS  C310 1702   4.356   1.755   3.868
   13SAPS  H10X 1703   4.467   1.746   3.868
   13SAPS  H10Y 1704   4.323   1.651   3.846
   13SAPS  C311 1705   4.297   1.796   3.997
   13SAPS  H11X 1706   4.186   1.800   3.987
   13SAPS  H11Y 1707   4.334   1.892   4.039
   13SAPS  C312 1708   4.316   1.694   4.107
   13SAPS  H12X 1709   4.422   1.663   4.117
   13SAPS  H12Y 1710   4.253   1.603   4.099
   13SAPS  C313 1711   4.275   1.750   4.248
   13SAPS  H13X 1712   4.168   1.778   4.241
   13SAPS  H13Y 1713   4.334   1.841   4.270
   13SAPS  C314 1714   4.304   1.651   4.362
   13SAPS  H14X 1715   4.414   1.636   4.354
   13SAPS  H14Y 1716   4.245   1.561   4.336
   13SAPS  C315 1717   4.269   1.699   4.509
   13SAPS  H15X 1718   4.165   1.739   4.504
   13SAPS  H15Y 1719   4.337   1.784   4.530
   13SAPS  C316 1720   4.272   1.589   4.612
   13SAPS  H16X 1721   4.207   1.505   4.579
   13SAPS  H16Y 1722   4.220   1.618   4.706
   13SAPS  C317 1723   4.413   1.538   4.643
   13SAPS  H17X 1724   4.486   1.621   4.633
   13SAPS  H17Y 1725   4.434   1.468   4.559
   13SAPS  C318 1726   4.429   1.484   4.790
   13SAPS  H18X 1727   4.350   1.410   4.813
   13SAPS  H18Y 1728   4.420   1.560   4.871
   13SAPS  H18Z 1729   4.529   1.437   4.791
   14SAPS     N 1730   4.480   3.738   2.046
   14SAPS   HN1 1731   4.405   3.805   2.018
   14SAPS   HN2 1732   4.456   3.659   2.108
   14SAPS   HN3 1733   4.555   3.797   2.089
   14SAPS   C12 1734   4.537   3.703   1.908
   14SAPS  H12A 1735   4.620   3.635   1.920
   14SAPS   C13 1736   4.433   3.664   1.801
   14SAPS  O13A 1737   4.316   3.643   1.830
   14SAPS  O13B 1738   4.476   3.638   1.683
   14SAPS   C11 1739   4.612   3.828   1.861
   14SAPS  H11A 1740   4.546   3.912   1.831
   14SAPS  H11B 1741   4.661   3.793   1.767
   14SAPS     P 1742   4.810   3.970   1.913
   14SAPS   O13 1743   4.895   3.898   1.816
   14SAPS   O14 1744   4.758   4.104   1.877
   14SAPS   O12 1745   4.708   3.865   1.963
   14SAPS   O11 1746   4.903   3.987   2.033
   14SAPS    C1 1747   4.875   3.935   2.163
   14SAPS    HA 1748   4.904   4.010   2.239
   14SAPS    HB 1749   4.768   3.925   2.190
   14SAPS    C2 1750   4.952   3.806   2.182
   14SAPS    HS 1751   4.909   3.737   2.106
   14SAPS   O21 1752   4.956   3.757   2.318
   14SAPS   C21 1753   4.833   3.709   2.351
   14SAPS   O22 1754   4.731   3.712   2.284
   14SAPS   C22 1755   4.845   3.656   2.498
   14SAPS   H2R 1756   4.926   3.581   2.488
   14SAPS   H2S 1757   4.898   3.731   2.560
   14SAPS    C3 1758   5.098   3.834   2.143
   14SAPS    HX 1759   5.096   3.860   2.035
   14SAPS    HY 1760   5.142   3.732   2.144
   14SAPS   O31 1761   5.177   3.935   2.220
   14SAPS   C31 1762   5.253   3.879   2.321
   14SAPS   O32 1763   5.272   3.759   2.339
   14SAPS   C32 1764   5.313   3.984   2.406
   14SAPS   H2X 1765   5.264   4.083   2.399
   14SAPS   H2Y 1766   5.417   3.996   2.369
   14SAPS   C23 1767   4.714   3.614   2.556
   14SAPS   H3R 1768   4.734   3.556   2.648
   14SAPS   H3S 1769   4.647   3.559   2.485
   14SAPS   C24 1770   4.630   3.731   2.604
   14SAPS   H4R 1771   4.631   3.816   2.532
   14SAPS   H4S 1772   4.695   3.768   2.687
   14SAPS   C25 1773   4.491   3.697   2.656
   14SAPS   H5R 1774   4.407   3.702   2.585
   14SAPS   C26 1775   4.454   3.691   2.791
   14SAPS   H6R 1776   4.349   3.671   2.818
   14SAPS   C27 1777   4.547   3.689   2.911
   14SAPS   H7R 1778   4.641   3.653   2.865
   14SAPS   H7S 1779   4.511   3.616   2.987
   14SAPS   C28 1780   4.570   3.821   2.978
   14SAPS   H8R 1781   4.550   3.907   2.913
   14SAPS   C29 1782   4.587   3.844   3.113
   14SAPS   H9R 1783   4.626   3.943   3.142
   14SAPS  C210 1784   4.601   3.740   3.221
   14SAPS  H10R 1785   4.704   3.747   3.260
   14SAPS  H10S 1786   4.588   3.631   3.205
   14SAPS  C211 1787   4.518   3.772   3.348
   14SAPS  H11R 1788   4.412   3.796   3.326
   14SAPS  C212 1789   4.547   3.763   3.477
   14SAPS  H12R 1790   4.474   3.805   3.547
   14SAPS  C213 1791   4.681   3.719   3.537
   14SAPS  H13R 1792   4.716   3.794   3.612
   14SAPS  H13S 1793   4.758   3.716   3.458
   14SAPS  C214 1794   4.678   3.580   3.598
   14SAPS  H14R 1795   4.648   3.491   3.541
   14SAPS  C215 1796   4.721   3.545   3.720
   14SAPS  H15R 1797   4.726   3.439   3.752
   14SAPS  C216 1798   4.779   3.638   3.827
   14SAPS  H16R 1799   4.780   3.743   3.791
   14SAPS  H16S 1800   4.886   3.617   3.843
   14SAPS  C217 1801   4.701   3.624   3.961
   14SAPS  H17R 1802   4.684   3.519   3.994
   14SAPS  H17S 1803   4.605   3.680   3.960
   14SAPS  C218 1804   4.786   3.664   4.082
   14SAPS  H18R 1805   4.829   3.767   4.077
   14SAPS  H18S 1806   4.862   3.587   4.106
   14SAPS  C219 1807   4.692   3.661   4.208
   14SAPS  H19R 1808   4.618   3.579   4.203
   14SAPS  H19S 1809   4.642   3.761   4.212
   14SAPS  C220 1810   4.768   3.638   4.339
   14SAPS  H20R 1811   4.698   3.639   4.425
   14SAPS  H20S 1812   4.843   3.719   4.354
   14SAPS  H20T 1813   4.837   3.551   4.335
   14SAPS   C33 1814   5.314   3.930   2.554
   14SAPS   H3X 1815   5.390   3.988   2.612
   14SAPS   H3Y 1816   5.344   3.823   2.552
   14SAPS   C34 1817   5.172   3.944   2.611
   14SAPS   H4X 1818   5.109   3.871   2.556
   14SAPS   H4Y 1819   5.139   4.049   2.598
   14SAPS   C35 1820   5.176   3.901   2.770
   14SAPS   H5X 1821   5.250   3.973   2.811
   14SAPS   H5Y 1822   5.215   3.797   2.771
   14SAPS   C36 1823   5.046   3.913   2.848
   14SAPS   H6X 1824   4.974   3.844   2.799
   14SAPS   H6Y 1825   5.015   4.016   2.821
   14SAPS   C37 1826   5.030   3.887   2.995
   14SAPS   H7X 1827   4.927   3.865   3.029
   14SAPS   H7Y 1828   5.060   3.981   3.047
   14SAPS   C38 1829   5.110   3.763   3.048
   14SAPS   H8X 1830   5.214   3.799   3.032
   14SAPS   H8Y 1831   5.106   3.676   2.979
   14SAPS   C39 1832   5.082   3.717   3.190
   14SAPS   H9X 1833   5.120   3.614   3.206
   14SAPS   H9Y 1834   4.972   3.708   3.199
   14SAPS  C310 1835   5.131   3.802   3.307
   14SAPS  H10X 1836   5.088   3.904   3.300
   14SAPS  H10Y 1837   5.241   3.805   3.295
   14SAPS  C311 1838   5.096   3.747   3.450
   14SAPS  H11X 1839   5.134   3.644   3.466
   14SAPS  H11Y 1840   4.986   3.729   3.455
   14SAPS  C312 1841   5.138   3.830   3.570
   14SAPS  H12X 1842   5.064   3.910   3.590
   14SAPS  H12Y 1843   5.240   3.873   3.557
   14SAPS  C313 1844   5.152   3.741   3.699
   14SAPS  H13X 1845   5.255   3.701   3.691
   14SAPS  H13Y 1846   5.075   3.660   3.694
   14SAPS  C314 1847   5.146   3.814   3.836
   14SAPS  H14X 1848   5.044   3.855   3.845
   14SAPS  H14Y 1849   5.213   3.902   3.822
   14SAPS  C315 1850   5.171   3.731   3.966
   14SAPS  H15X 1851   5.250   3.658   3.937
   14SAPS  H15Y 1852   5.084   3.670   4.000
   14SAPS  C316 1853   5.215   3.806   4.096
   14SAPS  H16X 1854   5.317   3.846   4.077
   14SAPS  H16Y 1855   5.244   3.730   4.172
   14SAPS  C317 1856   5.102   3.890   4.163
   14SAPS  H17X 1857   5.013   3.826   4.177
   14SAPS  H17Y 1858   5.082   3.971   4.089
   14SAPS  C318 1859   5.139   3.949   4.297
   14SAPS  H18X 1860   5.159   3.862   4.362
   14SAPS  H18Y 1861   5.055   4.004   4.345
   14SAPS  H18Z 1862   5.233   4.008   4.299
   15SAPS     N 1863   4.086   3.745   1.877
   15SAPS   HN1 1864   4.083   3.849   1.867
   15SAPS   HN2 1865   4.062   3.710   1.971
   15SAPS   HN3 1866   4.181   3.716   1.846
   15SAPS   C12 1867   3.978   3.693   1.783
   15SAPS  H12A 1868   3.881   3.721   1.822
   15SAPS   C13 1869   3.986   3.752   1.641
   15SAPS  O13A 1870   4.070   3.836   1.604
   15SAPS  O13B 1871   3.912   3.707   1.555
   15SAPS   C11 1872   3.992   3.534   1.788
   15SAPS  H11A 1873   4.091   3.498   1.753
   15SAPS  H11B 1874   3.920   3.489   1.716
   15SAPS     P 1875   3.845   3.496   2.005
   15SAPS   O13 1876   3.736   3.503   1.906
   15SAPS   O14 1877   3.838   3.384   2.103
   15SAPS   O12 1878   3.973   3.480   1.916
   15SAPS   O11 1879   3.873   3.633   2.077
   15SAPS    C1 1880   3.765   3.724   2.112
   15SAPS    HA 1881   3.746   3.787   2.023
   15SAPS    HB 1882   3.667   3.673   2.129
   15SAPS    C2 1883   3.809   3.829   2.208
   15SAPS    HS 1884   3.910   3.857   2.170
   15SAPS   O21 1885   3.806   3.768   2.339
   15SAPS   C21 1886   3.911   3.791   2.409
   15SAPS   O22 1887   4.007   3.855   2.372
   15SAPS   C22 1888   3.888   3.758   2.549
   15SAPS   H2R 1889   3.818   3.836   2.586
   15SAPS   H2S 1890   3.825   3.666   2.547
   15SAPS    C3 1891   3.716   3.961   2.203
   15SAPS    HX 1892   3.609   3.933   2.217
   15SAPS    HY 1893   3.720   3.993   2.096
   15SAPS   O31 1894   3.765   4.063   2.289
   15SAPS   C31 1895   3.694   4.084   2.401
   15SAPS   O32 1896   3.578   4.053   2.413
   15SAPS   C32 1897   3.775   4.159   2.495
   15SAPS   H2X 1898   3.780   4.267   2.469
   15SAPS   H2Y 1899   3.877   4.115   2.499
   15SAPS   C23 1900   4.015   3.749   2.638
   15SAPS   H3R 1901   4.045   3.854   2.658
   15SAPS   H3S 1902   4.103   3.711   2.583
   15SAPS   C24 1903   3.998   3.675   2.776
   15SAPS   H4R 1904   4.084   3.694   2.844
   15SAPS   H4S 1905   3.992   3.565   2.764
   15SAPS   C25 1906   3.886   3.720   2.863
   15SAPS   H5R 1907   3.788   3.703   2.814
   15SAPS   C26 1908   3.891   3.765   2.987
   15SAPS   H6R 1909   3.799   3.797   3.038
   15SAPS   C27 1910   4.008   3.796   3.075
   15SAPS   H7R 1911   3.994   3.898   3.117
   15SAPS   H7S 1912   4.103   3.789   3.017
   15SAPS   C28 1913   4.016   3.692   3.182
   15SAPS   H8R 1914   4.034   3.591   3.144
   15SAPS   C29 1915   4.027   3.705   3.320
   15SAPS   H9R 1916   4.035   3.614   3.382
   15SAPS  C210 1917   4.022   3.840   3.401
   15SAPS  H10R 1918   4.008   3.931   3.339
   15SAPS  H10S 1919   4.120   3.864   3.447
   15SAPS  C211 1920   3.911   3.812   3.498
   15SAPS  H11R 1921   3.824   3.876   3.478
   15SAPS  C212 1922   3.918   3.743   3.612
   15SAPS  H12R 1923   3.830   3.749   3.677
   15SAPS  C213 1924   4.037   3.666   3.671
   15SAPS  H13R 1925   4.112   3.745   3.693
   15SAPS  H13S 1926   4.077   3.592   3.598
   15SAPS  C214 1927   4.002   3.598   3.799
   15SAPS  H14R 1928   3.896   3.572   3.806
   15SAPS  C215 1929   4.086   3.568   3.902
   15SAPS  H15R 1930   4.050   3.499   3.980
   15SAPS  C216 1931   4.226   3.611   3.907
   15SAPS  H16R 1932   4.253   3.675   3.821
   15SAPS  H16S 1933   4.298   3.526   3.911
   15SAPS  C217 1934   4.264   3.708   4.019
   15SAPS  H17R 1935   4.184   3.782   4.041
   15SAPS  H17S 1936   4.358   3.761   3.992
   15SAPS  C218 1937   4.292   3.645   4.157
   15SAPS  H18R 1938   4.360   3.558   4.144
   15SAPS  H18S 1939   4.201   3.588   4.186
   15SAPS  C219 1940   4.335   3.749   4.263
   15SAPS  H19R 1941   4.406   3.818   4.213
   15SAPS  H19S 1942   4.392   3.700   4.346
   15SAPS  C220 1943   4.207   3.833   4.310
   15SAPS  H20R 1944   4.124   3.776   4.356
   15SAPS  H20S 1945   4.161   3.885   4.223
   15SAPS  H20T 1946   4.247   3.920   4.367
   15SAPS   C33 1947   3.727   4.160   2.647
   15SAPS   H3X 1948   3.660   4.076   2.677
   15SAPS   H3Y 1949   3.664   4.252   2.649
   15SAPS   C34 1950   3.844   4.156   2.743
   15SAPS   H4X 1951   3.912   4.240   2.716
   15SAPS   H4Y 1952   3.904   4.063   2.744
   15SAPS   C35 1953   3.820   4.203   2.890
   15SAPS   H5X 1954   3.777   4.306   2.886
   15SAPS   H5Y 1955   3.910   4.196   2.954
   15SAPS   C36 1956   3.714   4.117   2.955
   15SAPS   H6X 1957   3.758   4.015   2.954
   15SAPS   H6Y 1958   3.624   4.116   2.891
   15SAPS   C37 1959   3.670   4.176   3.090
   15SAPS   H7X 1960   3.559   4.169   3.099
   15SAPS   H7Y 1961   3.682   4.287   3.095
   15SAPS   C38 1962   3.750   4.105   3.198
   15SAPS   H8X 1963   3.854   4.088   3.164
   15SAPS   H8Y 1964   3.694   4.014   3.229
   15SAPS   C39 1965   3.760   4.191   3.320
   15SAPS   H9X 1966   3.801   4.290   3.290
   15SAPS   H9Y 1967   3.837   4.138   3.381
   15SAPS  C310 1968   3.623   4.203   3.392
   15SAPS  H10X 1969   3.584   4.099   3.402
   15SAPS  H10Y 1970   3.544   4.243   3.326
   15SAPS  C311 1971   3.614   4.272   3.527
   15SAPS  H11X 1972   3.512   4.263   3.571
   15SAPS  H11Y 1973   3.622   4.382   3.518
   15SAPS  C312 1974   3.700   4.226   3.640
   15SAPS  H12X 1975   3.790   4.289   3.653
   15SAPS  H12Y 1976   3.743   4.132   3.600
   15SAPS  C313 1977   3.626   4.225   3.774
   15SAPS  H13X 1978   3.537   4.160   3.762
   15SAPS  H13Y 1979   3.587   4.328   3.789
   15SAPS  C314 1980   3.712   4.182   3.891
   15SAPS  H14X 1981   3.644   4.190   3.978
   15SAPS  H14Y 1982   3.795   4.254   3.903
   15SAPS  C315 1983   3.754   4.032   3.886
   15SAPS  H15X 1984   3.835   4.008   3.814
   15SAPS  H15Y 1985   3.664   3.971   3.862
   15SAPS  C316 1986   3.797   3.981   4.018
   15SAPS  H16X 1987   3.711   3.980   4.088
   15SAPS  H16Y 1988   3.883   4.033   4.066
   15SAPS  C317 1989   3.852   3.833   4.018
   15SAPS  H17X 1990   3.946   3.830   3.959
   15SAPS  H17Y 1991   3.778   3.760   3.979
   15SAPS  C318 1992   3.868   3.787   4.166
   15SAPS  H18X 1993   3.924   3.860   4.228
   15SAPS  H18Y 1994   3.921   3.690   4.169
   15SAPS  H18Z 1995   3.770   3.779   4.216
   16SAPS     N 1996   5.690   3.621   1.823
   16SAPS   HN1 1997   5.643   3.544   1.772
   16SAPS   HN2 1998   5.667   3.703   1.763
   16SAPS   HN3 1999   5.791   3.606   1.843
   16SAPS   C12 2000   5.634   3.637   1.965
   16SAPS  H12A 2001   5.548   3.575   1.947
   16SAPS   C13 2002   5.717   3.562   2.077
   16SAPS  O13A 2003   5.820   3.494   2.050
   16SAPS  O13B 2004   5.658   3.558   2.192
   16SAPS   C11 2005   5.617   3.792   1.999
   16SAPS  H11A 2006   5.714   3.839   2.026
   16SAPS  H11B 2007   5.563   3.788   2.096
   16SAPS     P 2008   5.470   3.998   1.930
   16SAPS   O13 2009   5.507   4.088   1.817
   16SAPS   O14 2010   5.326   3.966   1.952
   16SAPS   O12 2011   5.543   3.862   1.905
   16SAPS   O11 2012   5.521   4.060   2.064
   16SAPS    C1 2013   5.643   4.140   2.070
   16SAPS    HA 2014   5.731   4.082   2.106
   16SAPS    HB 2015   5.673   4.193   1.977
   16SAPS    C2 2016   5.627   4.252   2.176
   16SAPS    HS 2017   5.717   4.315   2.163
   16SAPS   O21 2018   5.612   4.202   2.308
   16SAPS   C21 2019   5.644   4.272   2.409
   16SAPS   O22 2020   5.708   4.378   2.406
   16SAPS   C22 2021   5.578   4.208   2.531
   16SAPS   H2R 2022   5.469   4.194   2.518
   16SAPS   H2S 2023   5.622   4.107   2.539
   16SAPS    C3 2024   5.501   4.341   2.134
   16SAPS    HX 2025   5.406   4.294   2.166
   16SAPS    HY 2026   5.482   4.356   2.025
   16SAPS   O31 2027   5.502   4.475   2.186
   16SAPS   C31 2028   5.419   4.511   2.285
   16SAPS   O32 2029   5.341   4.437   2.339
   16SAPS   C32 2030   5.432   4.666   2.309
   16SAPS   H2X 2031   5.357   4.709   2.238
   16SAPS   H2Y 2032   5.534   4.700   2.280
   16SAPS   C23 2033   5.617   4.293   2.660
   16SAPS   H3R 2034   5.568   4.392   2.649
   16SAPS   H3S 2035   5.728   4.301   2.662
   16SAPS   C24 2036   5.556   4.258   2.795
   16SAPS   H4R 2037   5.589   4.335   2.867
   16SAPS   H4S 2038   5.601   4.166   2.839
   16SAPS   C25 2039   5.407   4.235   2.804
   16SAPS   H5R 2040   5.359   4.209   2.708
   16SAPS   C26 2041   5.328   4.244   2.908
   16SAPS   H6R 2042   5.220   4.233   2.890
   16SAPS   C27 2043   5.362   4.272   3.054
   16SAPS   H7R 2044   5.277   4.331   3.095
   16SAPS   H7S 2045   5.451   4.338   3.051
   16SAPS   C28 2046   5.378   4.139   3.122
   16SAPS   H8R 2047   5.458   4.078   3.079
   16SAPS   C29 2048   5.324   4.100   3.234
   16SAPS   H9R 2049   5.356   4.007   3.283
   16SAPS  C210 2050   5.236   4.193   3.313
   16SAPS  H10R 2051   5.176   4.121   3.373
   16SAPS  H10S 2052   5.146   4.241   3.269
   16SAPS  C211 2053   5.306   4.296   3.401
   16SAPS  H11R 2054   5.337   4.383   3.341
   16SAPS  C212 2055   5.367   4.277   3.528
   16SAPS  H12R 2056   5.389   4.367   3.588
   16SAPS  C213 2057   5.349   4.156   3.612
   16SAPS  H13R 2058   5.439   4.123   3.669
   16SAPS  H13S 2059   5.325   4.070   3.546
   16SAPS  C214 2060   5.234   4.183   3.706
   16SAPS  H14R 2061   5.144   4.224   3.657
   16SAPS  C215 2062   5.249   4.168   3.841
   16SAPS  H15R 2063   5.157   4.202   3.892
   16SAPS  C216 2064   5.370   4.122   3.919
   16SAPS  H16R 2065   5.435   4.054   3.860
   16SAPS  H16S 2066   5.335   4.053   3.999
   16SAPS  C217 2067   5.447   4.246   3.962
   16SAPS  H17R 2068   5.370   4.307   4.014
   16SAPS  H17S 2069   5.478   4.302   3.872
   16SAPS  C218 2070   5.569   4.216   4.058
   16SAPS  H18R 2071   5.539   4.203   4.164
   16SAPS  H18S 2072   5.635   4.305   4.060
   16SAPS  C219 2073   5.657   4.098   4.016
   16SAPS  H19R 2074   5.670   4.095   3.906
   16SAPS  H19S 2075   5.607   4.005   4.053
   16SAPS  C220 2076   5.801   4.100   4.078
   16SAPS  H20R 2077   5.797   4.066   4.184
   16SAPS  H20S 2078   5.830   4.207   4.077
   16SAPS  H20T 2079   5.862   4.031   4.016
   16SAPS   C33 2080   5.409   4.713   2.456
   16SAPS   H3X 2081   5.366   4.637   2.524
   16SAPS   H3Y 2082   5.343   4.802   2.446
   16SAPS   C34 2083   5.541   4.763   2.530
   16SAPS   H4X 2084   5.582   4.848   2.471
   16SAPS   H4Y 2085   5.608   4.674   2.528
   16SAPS   C35 2086   5.508   4.813   2.674
   16SAPS   H5X 2087   5.423   4.885   2.676
   16SAPS   H5Y 2088   5.593   4.871   2.716
   16SAPS   C36 2089   5.472   4.700   2.775
   16SAPS   H6X 2090   5.556   4.628   2.788
   16SAPS   H6Y 2091   5.384   4.638   2.747
   16SAPS   C37 2092   5.421   4.751   2.913
   16SAPS   H7X 2093   5.339   4.827   2.908
   16SAPS   H7Y 2094   5.501   4.812   2.958
   16SAPS   C38 2095   5.383   4.640   3.008
   16SAPS   H8X 2096   5.456   4.556   3.015
   16SAPS   H8Y 2097   5.292   4.595   2.964
   16SAPS   C39 2098   5.343   4.685   3.149
   16SAPS   H9X 2099   5.273   4.609   3.190
   16SAPS   H9Y 2100   5.298   4.787   3.144
   16SAPS  C310 2101   5.455   4.692   3.252
   16SAPS  H10X 2102   5.530   4.769   3.225
   16SAPS  H10Y 2103   5.507   4.595   3.242
   16SAPS  C311 2104   5.411   4.700   3.397
   16SAPS  H11X 2105   5.314   4.646   3.393
   16SAPS  H11Y 2106   5.390   4.807   3.419
   16SAPS  C312 2107   5.506   4.635   3.497
   16SAPS  H12X 2108   5.599   4.695   3.504
   16SAPS  H12Y 2109   5.526   4.529   3.470
   16SAPS  C313 2110   5.454   4.639   3.637
   16SAPS  H13X 2111   5.502   4.556   3.694
   16SAPS  H13Y 2112   5.347   4.610   3.636
   16SAPS  C314 2113   5.470   4.774   3.702
   16SAPS  H14X 2114   5.409   4.848   3.645
   16SAPS  H14Y 2115   5.575   4.811   3.701
   16SAPS  C315 2116   5.405   4.766   3.845
   16SAPS  H15X 2117   5.465   4.703   3.913
   16SAPS  H15Y 2118   5.303   4.725   3.828
   16SAPS  C316 2119   5.374   4.905   3.906
   16SAPS  H16X 2120   5.301   4.952   3.836
   16SAPS  H16Y 2121   5.465   4.968   3.901
   16SAPS  C317 2122   5.322   4.914   4.052
   16SAPS  H17X 2123   5.372   4.999   4.103
   16SAPS  H17Y 2124   5.356   4.820   4.101
   16SAPS  C318 2125   5.170   4.935   4.078
   16SAPS  H18X 2126   5.103   4.864   4.025
   16SAPS  H18Y 2127   5.137   5.034   4.039
   16SAPS  H18Z 2128   5.139   4.950   4.184
   17SAPS     N 2129   1.189   1.637   1.825
   17SAPS   HN1 2130   1.120   1.714   1.816
   17SAPS   HN2 2131   1.141   1.545   1.827
   17SAPS   HN3 2132   1.238   1.659   1.914
   17SAPS   C12 2133   1.295   1.626   1.723
   17SAPS  H12A 2134   1.351   1.538   1.750
   17SAPS   C13 2135   1.245   1.593   1.587
   17SAPS  O13A 2136   1.127   1.553   1.564
   17SAPS  O13B 2137   1.332   1.568   1.499
   17SAPS   C11 2138   1.381   1.758   1.722
   17SAPS  H11A 2139   1.313   1.835   1.680
   17SAPS  H11B 2140   1.467   1.737   1.655
   17SAPS     P 2141   1.501   1.925   1.882
   17SAPS   O13 2142   1.542   1.925   2.024
   17SAPS   O14 2143   1.612   1.925   1.784
   17SAPS   O12 2144   1.417   1.785   1.858
   17SAPS   O11 2145   1.391   2.041   1.861
   17SAPS    C1 2146   1.251   2.028   1.895
   17SAPS    HA 2147   1.187   2.035   1.804
   17SAPS    HB 2148   1.232   1.934   1.950
   17SAPS    C2 2149   1.202   2.127   2.003
   17SAPS    HS 2150   1.207   2.230   1.960
   17SAPS   O21 2151   1.286   2.111   2.120
   17SAPS   C21 2152   1.253   2.157   2.239
   17SAPS   O22 2153   1.174   2.249   2.257
   17SAPS   C22 2154   1.331   2.090   2.348
   17SAPS   H2R 2155   1.437   2.125   2.350
   17SAPS   H2S 2156   1.289   2.119   2.446
   17SAPS    C3 2157   1.050   2.092   2.027
   17SAPS    HX 2158   1.051   1.996   2.084
   17SAPS    HY 2159   1.012   2.077   1.924
   17SAPS   O31 2160   0.974   2.199   2.082
   17SAPS   C31 2161   0.864   2.177   2.146
   17SAPS   O32 2162   0.794   2.082   2.152
   17SAPS   C32 2163   0.839   2.305   2.234
   17SAPS   H2X 2164   0.810   2.400   2.184
   17SAPS   H2Y 2165   0.939   2.324   2.278
   17SAPS   C23 2166   1.341   1.938   2.336
   17SAPS   H3R 2167   1.414   1.913   2.256
   17SAPS   H3S 2168   1.239   1.908   2.302
   17SAPS   C24 2169   1.367   1.872   2.467
   17SAPS   H4R 2170   1.354   1.762   2.467
   17SAPS   H4S 2171   1.290   1.907   2.539
   17SAPS   C25 2172   1.512   1.896   2.505
   17SAPS   H5R 2173   1.576   1.858   2.424
   17SAPS   C26 2174   1.555   1.965   2.609
   17SAPS   H6R 2175   1.664   1.976   2.615
   17SAPS   C27 2176   1.480   2.012   2.730
   17SAPS   H7R 2177   1.392   1.947   2.747
   17SAPS   H7S 2178   1.458   2.121   2.725
   17SAPS   C28 2179   1.585   2.007   2.845
   17SAPS   H8R 2180   1.691   2.034   2.831
   17SAPS   C29 2181   1.542   1.987   2.970
   17SAPS   H9R 2182   1.629   1.982   3.037
   17SAPS  C210 2183   1.412   1.955   3.034
   17SAPS  H10R 2184   1.405   1.844   3.028
   17SAPS  H10S 2185   1.328   1.990   2.971
   17SAPS  C211 2186   1.385   2.014   3.170
   17SAPS  H11R 2187   1.394   2.122   3.185
   17SAPS  C212 2188   1.354   1.945   3.278
   17SAPS  H12R 2189   1.351   1.989   3.379
   17SAPS  C213 2190   1.331   1.789   3.288
   17SAPS  H13R 2191   1.384   1.758   3.380
   17SAPS  H13S 2192   1.383   1.741   3.202
   17SAPS  C214 2193   1.183   1.751   3.282
   17SAPS  H14R 2194   1.109   1.833   3.294
   17SAPS  C215 2195   1.129   1.637   3.242
   17SAPS  H15R 2196   1.020   1.629   3.228
   17SAPS  C216 2197   1.212   1.517   3.201
   17SAPS  H16R 2198   1.177   1.425   3.253
   17SAPS  H16S 2199   1.317   1.532   3.235
   17SAPS  C217 2200   1.217   1.490   3.051
   17SAPS  H17R 2201   1.116   1.499   3.005
   17SAPS  H17S 2202   1.238   1.382   3.033
   17SAPS  C218 2203   1.318   1.571   2.972
   17SAPS  H18R 2204   1.423   1.549   3.000
   17SAPS  H18S 2205   1.296   1.679   2.988
   17SAPS  C219 2206   1.314   1.547   2.819
   17SAPS  H19R 2207   1.228   1.596   2.770
   17SAPS  H19S 2208   1.305   1.440   2.794
   17SAPS  C220 2209   1.436   1.611   2.751
   17SAPS  H20R 2210   1.434   1.718   2.780
   17SAPS  H20S 2211   1.435   1.603   2.640
   17SAPS  H20T 2212   1.529   1.576   2.800
   17SAPS   C33 2213   0.735   2.293   2.343
   17SAPS   H3X 2214   0.767   2.208   2.407
   17SAPS   H3Y 2215   0.634   2.268   2.304
   17SAPS   C34 2216   0.717   2.429   2.411
   17SAPS   H4X 2217   0.644   2.415   2.493
   17SAPS   H4Y 2218   0.672   2.502   2.340
   17SAPS   C35 2219   0.844   2.488   2.479
   17SAPS   H5X 2220   0.819   2.581   2.534
   17SAPS   H5Y 2221   0.905   2.516   2.391
   17SAPS   C36 2222   0.928   2.410   2.582
   17SAPS   H6X 2223   1.003   2.484   2.617
   17SAPS   H6Y 2224   0.976   2.323   2.532
   17SAPS   C37 2225   0.844   2.359   2.697
   17SAPS   H7X 2226   0.762   2.292   2.664
   17SAPS   H7Y 2227   0.809   2.449   2.753
   17SAPS   C38 2228   0.929   2.276   2.790
   17SAPS   H8X 2229   1.022   2.237   2.744
   17SAPS   H8Y 2230   0.870   2.193   2.834
   17SAPS   C39 2231   0.977   2.350   2.916
   17SAPS   H9X 2232   0.891   2.405   2.960
   17SAPS   H9Y 2233   1.051   2.424   2.879
   17SAPS  C310 2234   1.046   2.266   3.025
   17SAPS  H10X 2235   1.152   2.248   2.994
   17SAPS  H10Y 2236   1.020   2.158   3.015
   17SAPS  C311 2237   1.029   2.331   3.164
   17SAPS  H11X 2238   0.926   2.356   3.197
   17SAPS  H11Y 2239   1.085   2.428   3.165
   17SAPS  C312 2240   1.090   2.241   3.278
   17SAPS  H12X 2241   1.189   2.209   3.239
   17SAPS  H12Y 2242   1.024   2.153   3.285
   17SAPS  C313 2243   1.112   2.303   3.420
   17SAPS  H13X 2244   1.026   2.370   3.444
   17SAPS  H13Y 2245   1.207   2.360   3.415
   17SAPS  C314 2246   1.123   2.184   3.519
   17SAPS  H14X 2247   1.231   2.162   3.529
   17SAPS  H14Y 2248   1.073   2.088   3.493
   17SAPS  C315 2249   1.067   2.217   3.656
   17SAPS  H15X 2250   1.040   2.135   3.726
   17SAPS  H15Y 2251   0.978   2.278   3.631
   17SAPS  C316 2252   1.168   2.301   3.740
   17SAPS  H16X 2253   1.199   2.396   3.691
   17SAPS  H16Y 2254   1.258   2.240   3.762
   17SAPS  C317 2255   1.112   2.326   3.882
   17SAPS  H17X 2256   1.080   2.229   3.927
   17SAPS  H17Y 2257   1.027   2.397   3.888
   17SAPS  C318 2258   1.203   2.402   3.982
   17SAPS  H18X 2259   1.207   2.511   3.957
   17SAPS  H18Y 2260   1.312   2.383   3.996
   17SAPS  H18Z 2261   1.149   2.402   4.079
   18SAPS     N 2262   4.473   2.749   2.093
   18SAPS   HN1 2263   4.425   2.724   2.183
   18SAPS   HN2 2264   4.565   2.704   2.080
   18SAPS   HN3 2265   4.486   2.852   2.095
   18SAPS   C12 2266   4.392   2.719   1.975
   18SAPS  H12A 2267   4.350   2.812   1.938
   18SAPS   C13 2268   4.483   2.663   1.863
   18SAPS  O13A 2269   4.608   2.663   1.884
   18SAPS  O13B 2270   4.436   2.586   1.775
   18SAPS   C11 2271   4.268   2.627   2.010
   18SAPS  H11A 2272   4.305   2.524   2.027
   18SAPS  H11B 2273   4.212   2.627   1.914
   18SAPS     P 2274   4.037   2.655   2.138
   18SAPS   O13 2275   3.976   2.664   2.007
   18SAPS   O14 2276   4.017   2.525   2.210
   18SAPS   O12 2277   4.190   2.678   2.119
   18SAPS   O11 2278   3.983   2.773   2.228
   18SAPS    C1 2279   4.052   2.838   2.322
   18SAPS    HA 2280   4.159   2.843   2.294
   18SAPS    HB 2281   4.010   2.940   2.336
   18SAPS    C2 2282   4.048   2.761   2.458
   18SAPS    HS 2283   4.090   2.659   2.444
   18SAPS   O21 2284   3.918   2.761   2.511
   18SAPS   C21 2285   3.884   2.655   2.577
   18SAPS   O22 2286   3.948   2.557   2.608
   18SAPS   C22 2287   3.731   2.659   2.601
   18SAPS   H2R 2288   3.680   2.706   2.514
   18SAPS   H2S 2289   3.698   2.553   2.594
   18SAPS    C3 2290   4.134   2.840   2.562
   18SAPS    HX 2291   4.110   2.948   2.554
   18SAPS    HY 2292   4.238   2.808   2.540
   18SAPS   O31 2293   4.102   2.802   2.696
   18SAPS   C31 2294   4.158   2.873   2.789
   18SAPS   O32 2295   4.232   2.969   2.766
   18SAPS   C32 2296   4.133   2.805   2.921
   18SAPS   H2X 2297   4.172   2.702   2.925
   18SAPS   H2Y 2298   4.023   2.793   2.936
   18SAPS   C23 2299   3.685   2.730   2.732
   18SAPS   H3R 2300   3.599   2.797   2.709
   18SAPS   H3S 2301   3.764   2.801   2.764
   18SAPS   C24 2302   3.648   2.633   2.843
   18SAPS   H4R 2303   3.579   2.558   2.797
   18SAPS   H4S 2304   3.575   2.676   2.916
   18SAPS   C25 2305   3.762   2.572   2.916
   18SAPS   H5R 2306   3.814   2.483   2.877
   18SAPS   C26 2307   3.801   2.624   3.029
   18SAPS   H6R 2308   3.890   2.578   3.074
   18SAPS   C27 2309   3.727   2.742   3.104
   18SAPS   H7R 2310   3.644   2.694   3.162
   18SAPS   H7S 2311   3.689   2.817   3.032
   18SAPS   C28 2312   3.820   2.814   3.202
   18SAPS   H8R 2313   3.868   2.905   3.162
   18SAPS   C29 2314   3.828   2.797   3.335
   18SAPS   H9R 2315   3.916   2.838   3.387
   18SAPS  C210 2316   3.759   2.691   3.419
   18SAPS  H10R 2317   3.707   2.613   3.359
   18SAPS  H10S 2318   3.682   2.717   3.495
   18SAPS  C211 2319   3.867   2.621   3.493
   18SAPS  H11R 2320   3.922   2.554   3.425
   18SAPS  C212 2321   3.888   2.624   3.626
   18SAPS  H12R 2322   3.977   2.569   3.659
   18SAPS  C213 2323   3.806   2.702   3.723
   18SAPS  H13R 2324   3.705   2.659   3.709
   18SAPS  H13S 2325   3.808   2.810   3.698
   18SAPS  C214 2326   3.848   2.680   3.870
   18SAPS  H14R 2327   3.909   2.762   3.910
   18SAPS  C215 2328   3.830   2.569   3.936
   18SAPS  H15R 2329   3.865   2.581   4.040
   18SAPS  C216 2330   3.759   2.441   3.893
   18SAPS  H16R 2331   3.837   2.367   3.865
   18SAPS  H16S 2332   3.694   2.455   3.804
   18SAPS  C217 2333   3.665   2.375   3.990
   18SAPS  H17R 2334   3.722   2.336   4.077
   18SAPS  H17S 2335   3.639   2.281   3.937
   18SAPS  C218 2336   3.541   2.450   4.022
   18SAPS  H18R 2337   3.493   2.462   3.923
   18SAPS  H18S 2338   3.554   2.549   4.072
   18SAPS  C219 2339   3.450   2.372   4.120
   18SAPS  H19R 2340   3.505   2.367   4.216
   18SAPS  H19S 2341   3.436   2.268   4.084
   18SAPS  C220 2342   3.309   2.438   4.151
   18SAPS  H20R 2343   3.317   2.536   4.202
   18SAPS  H20S 2344   3.244   2.374   4.215
   18SAPS  H20T 2345   3.254   2.461   4.058
   18SAPS   C33 2346   4.187   2.899   3.036
   18SAPS   H3X 2347   4.124   2.991   3.038
   18SAPS   H3Y 2348   4.292   2.924   3.007
   18SAPS   C34 2349   4.176   2.828   3.173
   18SAPS   H4X 2350   4.243   2.739   3.170
   18SAPS   H4Y 2351   4.083   2.775   3.199
   18SAPS   C35 2352   4.219   2.905   3.298
   18SAPS   H5X 2353   4.143   2.984   3.318
   18SAPS   H5Y 2354   4.322   2.941   3.280
   18SAPS   C36 2355   4.228   2.813   3.421
   18SAPS   H6X 2356   4.308   2.738   3.404
   18SAPS   H6Y 2357   4.139   2.749   3.442
   18SAPS   C37 2358   4.253   2.888   3.557
   18SAPS   H7X 2359   4.194   2.981   3.540
   18SAPS   H7Y 2360   4.360   2.917   3.558
   18SAPS   C38 2361   4.218   2.806   3.683
   18SAPS   H8X 2362   4.287   2.719   3.688
   18SAPS   H8Y 2363   4.126   2.752   3.654
   18SAPS   C39 2364   4.207   2.880   3.815
   18SAPS   H9X 2365   4.123   2.847   3.881
   18SAPS   H9Y 2366   4.179   2.986   3.795
   18SAPS  C310 2367   4.341   2.886   3.894
   18SAPS  H10X 2368   4.398   2.968   3.847
   18SAPS  H10Y 2369   4.398   2.791   3.904
   18SAPS  C311 2370   4.317   2.924   4.042
   18SAPS  H11X 2371   4.232   2.855   4.065
   18SAPS  H11Y 2372   4.275   3.027   4.052
   18SAPS  C312 2373   4.440   2.906   4.135
   18SAPS  H12X 2374   4.531   2.964   4.108
   18SAPS  H12Y 2375   4.469   2.799   4.134
   18SAPS  C313 2376   4.392   2.937   4.286
   18SAPS  H13X 2377   4.288   2.900   4.290
   18SAPS  H13Y 2378   4.390   3.047   4.306
   18SAPS  C314 2379   4.482   2.874   4.383
   18SAPS  H14X 2380   4.583   2.915   4.358
   18SAPS  H14Y 2381   4.463   2.765   4.380
   18SAPS  C315 2382   4.457   2.904   4.535
   18SAPS  H15X 2383   4.356   2.875   4.573
   18SAPS  H15Y 2384   4.455   3.014   4.548
   18SAPS  C316 2385   4.568   2.837   4.613
   18SAPS  H16X 2386   4.668   2.880   4.589
   18SAPS  H16Y 2387   4.575   2.728   4.593
   18SAPS  C317 2388   4.552   2.855   4.760
   18SAPS  H17X 2389   4.457   2.805   4.788
   18SAPS  H17Y 2390   4.527   2.961   4.784
   18SAPS  C318 2391   4.662   2.812   4.852
   18SAPS  H18X 2392   4.685   2.704   4.843
   18SAPS  H18Y 2393   4.646   2.845   4.957
   18SAPS  H18Z 2394   4.751   2.861   4.808
   19SAPS     N 2395   4.017   5.092   2.009
   19SAPS   HN1 2396   4.107   5.042   2.021
   19SAPS   HN2 2397   3.977   5.124   2.100
   19SAPS   HN3 2398   3.949   5.028   1.963
   19SAPS   C12 2399   4.034   5.210   1.928
   19SAPS  H12A 2400   4.107   5.185   1.852
   19SAPS   C13 2401   3.921   5.270   1.853
   19SAPS  O13A 2402   3.805   5.220   1.865
   19SAPS  O13B 2403   3.954   5.349   1.761
   19SAPS   C11 2404   4.084   5.320   2.026
   19SAPS  H11A 2405   4.001   5.332   2.099
   19SAPS  H11B 2406   4.103   5.419   1.979
   19SAPS     P 2407   4.263   5.358   2.215
   19SAPS   O13 2408   4.367   5.451   2.148
   19SAPS   O14 2409   4.161   5.413   2.309
   19SAPS   O12 2410   4.204   5.280   2.091
   19SAPS   O11 2411   4.352   5.254   2.289
   19SAPS    C1 2412   4.296   5.131   2.323
   19SAPS    HA 2413   4.193   5.108   2.290
   19SAPS    HB 2414   4.351   5.052   2.267
   19SAPS    C2 2415   4.309   5.096   2.480
   19SAPS    HS 2416   4.285   4.989   2.497
   19SAPS   O21 2417   4.222   5.179   2.563
   19SAPS   C21 2418   4.092   5.168   2.544
   19SAPS   O22 2419   4.035   5.083   2.473
   19SAPS   C22 2420   4.027   5.282   2.615
   19SAPS   H2R 2421   4.055   5.280   2.722
   19SAPS   H2S 2422   4.078   5.367   2.564
   19SAPS    C3 2423   4.450   5.120   2.544
   19SAPS    HX 2424   4.457   5.229   2.564
   19SAPS    HY 2425   4.533   5.098   2.474
   19SAPS   O31 2426   4.473   5.044   2.657
   19SAPS   C31 2427   4.593   5.066   2.710
   19SAPS   O32 2428   4.669   5.154   2.666
   19SAPS   C32 2429   4.622   4.970   2.824
   19SAPS   H2X 2430   4.733   4.979   2.835
   19SAPS   H2Y 2431   4.583   4.867   2.812
   19SAPS   C23 2432   3.876   5.308   2.586
   19SAPS   H3R 2433   3.814   5.217   2.598
   19SAPS   H3S 2434   3.876   5.332   2.478
   19SAPS   C24 2435   3.812   5.414   2.667
   19SAPS   H4R 2436   3.817   5.387   2.774
   19SAPS   H4S 2437   3.705   5.419   2.635
   19SAPS   C25 2438   3.876   5.546   2.638
   19SAPS   H5R 2439   3.840   5.593   2.546
   19SAPS   C26 2440   3.960   5.619   2.719
   19SAPS   H6R 2441   3.993   5.714   2.676
   19SAPS   C27 2442   4.013   5.583   2.850
   19SAPS   H7R 2443   4.122   5.602   2.849
   19SAPS   H7S 2444   4.007   5.475   2.873
   19SAPS   C28 2445   3.941   5.650   2.966
   19SAPS   H8R 2446   3.936   5.760   2.967
   19SAPS   C29 2447   3.856   5.593   3.050
   19SAPS   H9R 2448   3.815   5.659   3.127
   19SAPS  C210 2449   3.819   5.446   3.068
   19SAPS  H10R 2450   3.874   5.421   3.161
   19SAPS  H10S 2451   3.856   5.396   2.976
   19SAPS  C211 2452   3.674   5.416   3.089
   19SAPS  H11R 2453   3.625   5.400   2.992
   19SAPS  C212 2454   3.606   5.434   3.205
   19SAPS  H12R 2455   3.497   5.420   3.214
   19SAPS  C213 2456   3.659   5.480   3.334
   19SAPS  H13R 2457   3.766   5.497   3.310
   19SAPS  H13S 2458   3.657   5.392   3.401
   19SAPS  C214 2459   3.588   5.605   3.378
   19SAPS  H14R 2460   3.584   5.691   3.310
   19SAPS  C215 2461   3.507   5.611   3.484
   19SAPS  H15R 2462   3.440   5.698   3.476
   19SAPS  C216 2463   3.480   5.503   3.585
   19SAPS  H16R 2464   3.499   5.402   3.543
   19SAPS  H16S 2465   3.373   5.514   3.612
   19SAPS  C217 2466   3.548   5.526   3.717
   19SAPS  H17R 2467   3.510   5.624   3.752
   19SAPS  H17S 2468   3.658   5.540   3.712
   19SAPS  C218 2469   3.518   5.421   3.829
   19SAPS  H18R 2470   3.564   5.445   3.927
   19SAPS  H18S 2471   3.561   5.322   3.803
   19SAPS  C219 2472   3.371   5.394   3.855
   19SAPS  H19R 2473   3.313   5.350   3.771
   19SAPS  H19S 2474   3.314   5.489   3.873
   19SAPS  C220 2475   3.349   5.303   3.976
   19SAPS  H20R 2476   3.243   5.272   3.986
   19SAPS  H20S 2477   3.383   5.350   4.071
   19SAPS  H20T 2478   3.416   5.214   3.970
   19SAPS   C33 2479   4.546   5.015   2.960
   19SAPS   H3X 2480   4.436   5.012   2.949
   19SAPS   H3Y 2481   4.564   5.124   2.967
   19SAPS   C34 2482   4.600   4.951   3.092
   19SAPS   H4X 2483   4.705   4.987   3.092
   19SAPS   H4Y 2484   4.595   4.840   3.089
   19SAPS   C35 2485   4.524   5.009   3.212
   19SAPS   H5X 2486   4.414   4.989   3.210
   19SAPS   H5Y 2487   4.548   5.117   3.207
   19SAPS   C36 2488   4.579   4.961   3.348
   19SAPS   H6X 2489   4.688   4.978   3.343
   19SAPS   H6Y 2490   4.558   4.852   3.355
   19SAPS   C37 2491   4.530   5.024   3.476
   19SAPS   H7X 2492   4.419   5.024   3.462
   19SAPS   H7Y 2493   4.579   5.123   3.482
   19SAPS   C38 2494   4.565   4.938   3.590
   19SAPS   H8X 2495   4.670   4.904   3.578
   19SAPS   H8Y 2496   4.501   4.847   3.591
   19SAPS   C39 2497   4.559   5.012   3.726
   19SAPS   H9X 2498   4.623   5.102   3.718
   19SAPS   H9Y 2499   4.597   4.951   3.811
   19SAPS  C310 2500   4.422   5.069   3.765
   19SAPS  H10X 2501   4.360   4.987   3.723
   19SAPS  H10Y 2502   4.387   5.152   3.700
   19SAPS  C311 2503   4.390   5.114   3.908
   19SAPS  H11X 2504   4.307   5.187   3.897
   19SAPS  H11Y 2505   4.478   5.168   3.951
   19SAPS  C312 2506   4.343   4.996   3.985
   19SAPS  H12X 2507   4.398   4.905   3.954
   19SAPS  H12Y 2508   4.236   4.976   3.961
   19SAPS  C313 2509   4.367   5.014   4.139
   19SAPS  H13X 2510   4.309   5.100   4.177
   19SAPS  H13Y 2511   4.474   5.035   4.161
   19SAPS  C314 2512   4.326   4.892   4.222
   19SAPS  H14X 2513   4.366   4.799   4.175
   19SAPS  H14Y 2514   4.216   4.877   4.220
   19SAPS  C315 2515   4.375   4.881   4.367
   19SAPS  H15X 2516   4.485   4.870   4.377
   19SAPS  H15Y 2517   4.333   4.793   4.421
   19SAPS  C316 2518   4.328   5.002   4.449
   19SAPS  H16X 2519   4.222   5.019   4.418
   19SAPS  H16Y 2520   4.373   5.102   4.435
   19SAPS  C317 2521   4.355   4.968   4.596
   19SAPS  H17X 2522   4.329   4.860   4.598
   19SAPS  H17Y 2523   4.282   5.020   4.661
   19SAPS  C318 2524   4.497   4.978   4.645
   19SAPS  H18X 2525   4.540   5.081   4.642
   19SAPS  H18Y 2526   4.563   4.917   4.580
   19SAPS  H18Z 2527   4.503   4.932   4.746
   20SAPS     N 2528   4.249   6.626   2.301
   20SAPS   HN1 2529   4.227   6.723   2.334
   20SAPS   HN2 2530   4.160   6.580   2.329
   20SAPS   HN3 2531   4.327   6.605   2.368
   20SAPS   C12 2532   4.273   6.615   2.152
   20SAPS  H12A 2533   4.183   6.636   2.097
   20SAPS   C13 2534   4.381   6.706   2.091
   20SAPS  O13A 2535   4.435   6.794   2.161
   20SAPS  O13B 2536   4.406   6.717   1.966
   20SAPS   C11 2537   4.309   6.468   2.118
   20SAPS  H11A 2538   4.383   6.418   2.184
   20SAPS  H11B 2539   4.337   6.461   2.011
   20SAPS     P 2540   4.180   6.239   2.098
   20SAPS   O13 2541   4.034   6.212   2.078
   20SAPS   O14 2542   4.272   6.214   1.988
   20SAPS   O12 2543   4.188   6.396   2.139
   20SAPS   O11 2544   4.232   6.148   2.219
   20SAPS    C1 2545   4.196   6.179   2.363
   20SAPS    HA 2546   4.086   6.186   2.376
   20SAPS    HB 2547   4.235   6.093   2.421
   20SAPS    C2 2548   4.285   6.288   2.427
   20SAPS    HS 2549   4.261   6.387   2.385
   20SAPS   O21 2550   4.427   6.259   2.417
   20SAPS   C21 2551   4.506   6.366   2.413
   20SAPS   O22 2552   4.467   6.484   2.391
   20SAPS   C22 2553   4.650   6.325   2.463
   20SAPS   H2R 2554   4.673   6.224   2.423
   20SAPS   H2S 2555   4.717   6.403   2.422
   20SAPS    C3 2556   4.262   6.316   2.581
   20SAPS    HX 2557   4.153   6.336   2.590
   20SAPS    HY 2558   4.317   6.407   2.610
   20SAPS   O31 2559   4.306   6.211   2.663
   20SAPS   C31 2560   4.221   6.109   2.700
   20SAPS   O32 2561   4.112   6.089   2.641
   20SAPS   C32 2562   4.276   6.031   2.814
   20SAPS   H2X 2563   4.354   5.964   2.770
   20SAPS   H2Y 2564   4.188   5.980   2.857
   20SAPS   C23 2565   4.670   6.318   2.613
   20SAPS   H3R 2566   4.580   6.286   2.670
   20SAPS   H3S 2567   4.695   6.419   2.652
   20SAPS   C24 2568   4.797   6.234   2.638
   20SAPS   H4R 2569   4.830   6.264   2.740
   20SAPS   H4S 2570   4.880   6.267   2.573
   20SAPS   C25 2571   4.773   6.091   2.668
   20SAPS   H5R 2572   4.789   6.026   2.580
   20SAPS   C26 2573   4.717   6.041   2.776
   20SAPS   H6R 2574   4.720   5.931   2.785
   20SAPS   C27 2575   4.684   6.122   2.909
   20SAPS   H7R 2576   4.618   6.056   2.969
   20SAPS   H7S 2577   4.624   6.213   2.887
   20SAPS   C28 2578   4.806   6.170   2.989
   20SAPS   H8R 2579   4.894   6.192   2.926
   20SAPS   C29 2580   4.814   6.167   3.121
   20SAPS   H9R 2581   4.905   6.201   3.174
   20SAPS  C210 2582   4.702   6.132   3.211
   20SAPS  H10R 2583   4.644   6.045   3.174
   20SAPS  H10S 2584   4.626   6.212   3.217
   20SAPS  C211 2585   4.749   6.102   3.351
   20SAPS  H11R 2586   4.856   6.114   3.375
   20SAPS  C212 2587   4.673   6.052   3.454
   20SAPS  H12R 2588   4.715   6.025   3.552
   20SAPS  C213 2589   4.522   6.031   3.442
   20SAPS  H13R 2590   4.486   5.979   3.534
   20SAPS  H13S 2591   4.489   5.972   3.354
   20SAPS  C214 2592   4.453   6.165   3.430
   20SAPS  H14R 2593   4.430   6.196   3.327
   20SAPS  C215 2594   4.401   6.240   3.530
   20SAPS  H15R 2595   4.355   6.333   3.494
   20SAPS  C216 2596   4.416   6.208   3.673
   20SAPS  H16R 2597   4.408   6.101   3.704
   20SAPS  H16S 2598   4.337   6.252   3.737
   20SAPS  C217 2599   4.556   6.249   3.730
   20SAPS  H17R 2600   4.563   6.358   3.752
   20SAPS  H17S 2601   4.626   6.237   3.645
   20SAPS  C218 2602   4.600   6.166   3.852
   20SAPS  H18R 2603   4.621   6.060   3.825
   20SAPS  H18S 2604   4.515   6.154   3.922
   20SAPS  C219 2605   4.710   6.219   3.938
   20SAPS  H19R 2606   4.691   6.325   3.966
   20SAPS  H19S 2607   4.808   6.225   3.885
   20SAPS  C220 2608   4.737   6.137   4.067
   20SAPS  H20R 2609   4.651   6.141   4.137
   20SAPS  H20S 2610   4.835   6.169   4.108
   20SAPS  H20T 2611   4.743   6.027   4.051
   20SAPS   C33 2612   4.331   6.118   2.930
   20SAPS   H3X 2613   4.248   6.186   2.960
   20SAPS   H3Y 2614   4.414   6.173   2.881
   20SAPS   C34 2615   4.381   6.034   3.048
   20SAPS   H4X 2616   4.440   6.100   3.115
   20SAPS   H4Y 2617   4.452   5.964   2.999
   20SAPS   C35 2618   4.267   5.963   3.130
   20SAPS   H5X 2619   4.309   5.952   3.232
   20SAPS   H5Y 2620   4.243   5.861   3.092
   20SAPS   C36 2621   4.138   6.041   3.147
   20SAPS   H6X 2622   4.100   6.052   3.043
   20SAPS   H6Y 2623   4.159   6.147   3.172
   20SAPS   C37 2624   4.039   5.967   3.229
   20SAPS   H7X 2625   4.023   5.864   3.189
   20SAPS   H7Y 2626   3.944   6.024   3.231
   20SAPS   C38 2627   4.080   5.950   3.376
   20SAPS   H8X 2628   4.086   6.047   3.430
   20SAPS   H8Y 2629   4.183   5.908   3.375
   20SAPS   C39 2630   3.988   5.854   3.458
   20SAPS   H9X 2631   3.963   5.760   3.404
   20SAPS   H9Y 2632   3.885   5.895   3.459
   20SAPS  C310 2633   4.046   5.817   3.597
   20SAPS  H10X 2634   4.056   5.919   3.640
   20SAPS  H10Y 2635   4.150   5.779   3.594
   20SAPS  C311 2636   3.952   5.741   3.695
   20SAPS  H11X 2637   4.011   5.728   3.788
   20SAPS  H11Y 2638   3.927   5.644   3.646
   20SAPS  C312 2639   3.821   5.814   3.736
   20SAPS  H12X 2640   3.731   5.781   3.681
   20SAPS  H12Y 2641   3.838   5.920   3.707
   20SAPS  C313 2642   3.792   5.786   3.884
   20SAPS  H13X 2643   3.878   5.811   3.950
   20SAPS  H13Y 2644   3.793   5.675   3.893
   20SAPS  C314 2645   3.666   5.853   3.938
   20SAPS  H14X 2646   3.579   5.818   3.879
   20SAPS  H14Y 2647   3.682   5.961   3.917
   20SAPS  C315 2648   3.640   5.846   4.089
   20SAPS  H15X 2649   3.565   5.923   4.117
   20SAPS  H15Y 2650   3.733   5.849   4.150
   20SAPS  C316 2651   3.571   5.707   4.125
   20SAPS  H16X 2652   3.644   5.628   4.096
   20SAPS  H16Y 2653   3.475   5.689   4.071
   20SAPS  C317 2654   3.536   5.697   4.275
   20SAPS  H17X 2655   3.446   5.758   4.295
   20SAPS  H17Y 2656   3.613   5.749   4.335
   20SAPS  C318 2657   3.499   5.557   4.324
   20SAPS  H18X 2658   3.503   5.555   4.435
   20SAPS  H18Y 2659   3.583   5.490   4.293
   20SAPS  H18Z 2660   3.401   5.521   4.287
   21CHL1    C3 2661   1.345   4.208   5.860
   21CHL1    H3 2662   1.381   4.309   5.831
   21CHL1    O3 2663   1.278   4.223   5.989
   21CHL1   H3' 2664   1.318   4.159   6.049
   21CHL1    C4 2665   1.237   4.167   5.758
   21CHL1   H4A 2666   1.183   4.079   5.799
   21CHL1   H4B 2667   1.160   4.246   5.746
   21CHL1    C5 2668   1.303   4.154   5.629
   21CHL1    C6 2669   1.272   4.232   5.522
   21CHL1    H6 2670   1.193   4.309   5.521
   21CHL1    C7 2671   1.326   4.223   5.387
   21CHL1   H7A 2672   1.236   4.257   5.331
   21CHL1   H7B 2673   1.415   4.288   5.372
   21CHL1    C8 2674   1.381   4.077   5.365
   21CHL1    H8 2675   1.299   4.002   5.368
   21CHL1   C14 2676   1.453   4.071   5.232
   21CHL1   H14 2677   1.534   4.146   5.242
   21CHL1   C15 2678   1.374   4.119   5.113
   21CHL1  H15A 2679   1.272   4.076   5.109
   21CHL1  H15B 2680   1.361   4.229   5.122
   21CHL1   C16 2681   1.449   4.060   4.995
   21CHL1  H16A 2682   1.379   4.008   4.927
   21CHL1  H16B 2683   1.494   4.138   4.930
   21CHL1   C17 2684   1.557   3.964   5.053
   21CHL1   H17 2685   1.642   4.036   5.062
   21CHL1   C13 2686   1.508   3.931   5.191
   21CHL1   C18 2687   1.401   3.821   5.191
   21CHL1  H18A 2688   1.349   3.812   5.288
   21CHL1  H18B 2689   1.320   3.832   5.116
   21CHL1  H18C 2690   1.452   3.724   5.171
   21CHL1   C12 2691   1.618   3.889   5.301
   21CHL1  H12A 2692   1.647   3.783   5.283
   21CHL1  H12B 2693   1.707   3.954   5.292
   21CHL1   C11 2694   1.550   3.904   5.444
   21CHL1  H11A 2695   1.486   3.812   5.447
   21CHL1  H11B 2696   1.636   3.890   5.513
   21CHL1    C9 2697   1.477   4.031   5.478
   21CHL1    H9 2698   1.545   4.119   5.477
   21CHL1   C10 2699   1.407   4.038   5.618
   21CHL1   C19 2700   1.345   3.902   5.640
   21CHL1  H19A 2701   1.268   3.892   5.719
   21CHL1  H19B 2702   1.291   3.871   5.548
   21CHL1  H19C 2703   1.421   3.830   5.678
   21CHL1    C1 2704   1.509   4.073   5.731
   21CHL1   H1A 2705   1.590   3.997   5.725
   21CHL1   H1B 2706   1.547   4.167   5.683
   21CHL1    C2 2707   1.450   4.099   5.868
   21CHL1   H2A 2708   1.528   4.119   5.945
   21CHL1   H2B 2709   1.410   4.001   5.902
   21CHL1   C20 2710   1.599   3.850   4.962
   21CHL1   H20 2711   1.528   3.765   4.968
   21CHL1   C21 2712   1.736   3.784   5.008
   21CHL1  H21A 2713   1.731   3.674   5.002
   21CHL1  H21B 2714   1.752   3.820   5.112
   21CHL1  H21C 2715   1.823   3.826   4.952
   21CHL1   C22 2716   1.613   3.902   4.815
   21CHL1  H22A 2717   1.517   3.941   4.774
   21CHL1  H22B 2718   1.686   3.986   4.814
   21CHL1   C23 2719   1.654   3.805   4.702
   21CHL1  H23A 2720   1.748   3.759   4.740
   21CHL1  H23B 2721   1.580   3.723   4.708
   21CHL1   C24 2722   1.685   3.879   4.570
   21CHL1  H24A 2723   1.603   3.950   4.550
   21CHL1  H24B 2724   1.777   3.939   4.590
   21CHL1   C25 2725   1.701   3.792   4.446
   21CHL1   H25 2726   1.605   3.739   4.424
   21CHL1   C26 2727   1.743   3.877   4.322
   21CHL1  H26A 2728   1.675   3.965   4.313
   21CHL1  H26B 2729   1.846   3.915   4.341
   21CHL1  H26C 2730   1.750   3.813   4.232
   21CHL1   C27 2731   1.806   3.679   4.465
   21CHL1  H27A 2732   1.808   3.624   4.368
   21CHL1  H27B 2733   1.909   3.712   4.490
   21CHL1  H27C 2734   1.772   3.614   4.548
   22CHL1    C3 2735   1.783   2.114   5.961
   22CHL1    H3 2736   1.748   2.215   5.932
   22CHL1    O3 2737   1.820   2.139   6.099
   22CHL1   H3' 2738   1.878   2.065   6.117
   22CHL1    C4 2739   1.686   2.000   5.940
   22CHL1   H4A 2740   1.736   1.905   5.970
   22CHL1   H4B 2741   1.597   2.016   6.006
   22CHL1    C5 2742   1.648   1.990   5.800
   22CHL1    C6 2743   1.520   1.992   5.765
   22CHL1    H6 2744   1.449   1.999   5.849
   22CHL1    C7 2745   1.472   1.968   5.624
   22CHL1   H7A 2746   1.400   1.883   5.626
   22CHL1   H7B 2747   1.421   2.064   5.602
   22CHL1    C8 2748   1.580   1.935   5.520
   22CHL1    H8 2749   1.609   1.828   5.520
   22CHL1   C14 2750   1.533   1.969   5.381
   22CHL1   H14 2751   1.522   2.080   5.384
   22CHL1   C15 2752   1.402   1.920   5.331
   22CHL1  H15A 2753   1.391   1.813   5.360
   22CHL1  H15B 2754   1.314   1.973   5.371
   22CHL1   C16 2755   1.405   1.946   5.176
   22CHL1  H16A 2756   1.388   1.846   5.129
   22CHL1  H16B 2757   1.328   2.020   5.145
   22CHL1   C17 2758   1.546   2.007   5.151
   22CHL1   H17 2759   1.546   2.115   5.178
   22CHL1   C13 2760   1.633   1.955   5.269
   22CHL1   C18 2761   1.658   1.808   5.234
   22CHL1  H18A 2762   1.568   1.750   5.204
   22CHL1  H18B 2763   1.734   1.806   5.152
   22CHL1  H18C 2764   1.710   1.762   5.321
   22CHL1   C12 2765   1.757   2.040   5.297
   22CHL1  H12A 2766   1.841   2.025   5.226
   22CHL1  H12B 2767   1.734   2.148   5.288
   22CHL1   C11 2768   1.809   2.020   5.442
   22CHL1  H11A 2769   1.871   1.928   5.446
   22CHL1  H11B 2770   1.882   2.100   5.469
   22CHL1    C9 2771   1.699   2.017   5.554
   22CHL1    H9 2772   1.679   2.126   5.564
   22CHL1   C10 2773   1.756   1.979   5.698
   22CHL1   C19 2774   1.815   1.833   5.704
   22CHL1  H19A 2775   1.870   1.814   5.799
   22CHL1  H19B 2776   1.732   1.761   5.689
   22CHL1  H19C 2777   1.877   1.821   5.612
   22CHL1    C1 2778   1.872   2.075   5.730
   22CHL1   H1A 2779   1.968   2.040   5.687
   22CHL1   H1B 2780   1.850   2.179   5.698
   22CHL1    C2 2781   1.907   2.088   5.880
   22CHL1   H2A 2782   1.989   2.163   5.885
   22CHL1   H2B 2783   1.953   1.993   5.915
   22CHL1   C20 2784   1.590   1.988   4.998
   22CHL1   H20 2785   1.575   1.879   4.983
   22CHL1   C21 2786   1.737   2.041   4.976
   22CHL1  H21A 2787   1.752   2.060   4.868
   22CHL1  H21B 2788   1.814   1.969   5.012
   22CHL1  H21C 2789   1.749   2.134   5.035
   22CHL1   C22 2790   1.477   2.059   4.907
   22CHL1  H22A 2791   1.372   2.028   4.925
   22CHL1  H22B 2792   1.480   2.169   4.923
   22CHL1   C23 2793   1.507   2.069   4.753
   22CHL1  H23A 2794   1.408   2.096   4.712
   22CHL1  H23B 2795   1.581   2.150   4.735
   22CHL1   C24 2796   1.546   1.928   4.689
   22CHL1  H24A 2797   1.645   1.890   4.721
   22CHL1  H24B 2798   1.464   1.856   4.710
   22CHL1   C25 2799   1.551   1.938   4.533
   22CHL1   H25 2800   1.452   1.983   4.512
   22CHL1   C26 2801   1.664   2.038   4.482
   22CHL1  H26A 2802   1.761   1.999   4.517
   22CHL1  H26B 2803   1.672   2.047   4.372
   22CHL1  H26C 2804   1.645   2.138   4.525
   22CHL1   C27 2805   1.559   1.799   4.476
   22CHL1  H27A 2806   1.523   1.803   4.371
   22CHL1  H27B 2807   1.666   1.772   4.476
   22CHL1  H27C 2808   1.503   1.726   4.538
   23CHL1    C3 2809   0.652   3.771   5.922
   23CHL1    H3 2810   0.710   3.684   5.886
   23CHL1    O3 2811   0.627   3.756   6.066
   23CHL1   H3' 2812   0.559   3.820   6.089
   23CHL1    C4 2813   0.728   3.908   5.905
   23CHL1   H4A 2814   0.662   3.991   5.939
   23CHL1   H4B 2815   0.816   3.913   5.972
   23CHL1    C5 2816   0.768   3.920   5.758
   23CHL1    C6 2817   0.898   3.944   5.717
   23CHL1    H6 2818   0.965   3.975   5.799
   23CHL1    C7 2819   0.938   3.983   5.578
   23CHL1   H7A 2820   0.996   4.077   5.567
   23CHL1   H7B 2821   1.003   3.909   5.528
   23CHL1    C8 2822   0.806   4.011   5.489
   23CHL1    H8 2823   0.772   4.114   5.512
   23CHL1   C14 2824   0.855   4.005   5.342
   23CHL1   H14 2825   0.883   3.899   5.326
   23CHL1   C15 2826   0.971   4.092   5.300
   23CHL1  H15A 2827   0.966   4.189   5.354
   23CHL1  H15B 2828   1.072   4.053   5.329
   23CHL1   C16 2829   0.960   4.095   5.147
   23CHL1  H16A 2830   0.963   4.199   5.108
   23CHL1  H16B 2831   1.029   4.040   5.080
   23CHL1   C17 2832   0.823   4.033   5.103
   23CHL1   H17 2833   0.848   3.927   5.081
   23CHL1   C13 2834   0.743   4.025   5.240
   23CHL1   C18 2835   0.680   4.163   5.262
   23CHL1  H18A 2836   0.618   4.156   5.354
   23CHL1  H18B 2837   0.754   4.246   5.272
   23CHL1  H18C 2838   0.614   4.199   5.181
   23CHL1   C12 2839   0.644   3.913   5.258
   23CHL1  H12A 2840   0.557   3.918   5.189
   23CHL1  H12B 2841   0.696   3.818   5.235
   23CHL1   C11 2842   0.586   3.903   5.403
   23CHL1  H11A 2843   0.511   3.985   5.407
   23CHL1  H11B 2844   0.539   3.803   5.418
   23CHL1    C9 2845   0.693   3.910   5.512
   23CHL1    H9 2846   0.745   3.812   5.506
   23CHL1   C10 2847   0.644   3.912   5.659
   23CHL1   C19 2848   0.563   4.038   5.672
   23CHL1  H19A 2849   0.475   4.036   5.604
   23CHL1  H19B 2850   0.518   4.058   5.772
   23CHL1  H19C 2851   0.611   4.135   5.646
   23CHL1    C1 2852   0.564   3.787   5.693
   23CHL1   H1A 2853   0.473   3.791   5.630
   23CHL1   H1B 2854   0.622   3.696   5.665
   23CHL1    C2 2855   0.520   3.767   5.837
   23CHL1   H2A 2856   0.477   3.666   5.853
   23CHL1   H2B 2857   0.451   3.850   5.866
   23CHL1   C20 2858   0.752   4.092   4.975
   23CHL1   H20 2859   0.705   4.188   5.004
   23CHL1   C21 2860   0.638   3.993   4.933
   23CHL1  H21A 2861   0.686   3.893   4.946
   23CHL1  H21B 2862   0.603   4.009   4.829
   23CHL1  H21C 2863   0.559   3.971   5.008
   23CHL1   C22 2864   0.853   4.106   4.856
   23CHL1  H22A 2865   0.938   4.168   4.890
   23CHL1  H22B 2866   0.882   4.003   4.825
   23CHL1   C23 2867   0.806   4.179   4.727
   23CHL1  H23A 2868   0.741   4.102   4.680
   23CHL1  H23B 2869   0.744   4.266   4.757
   23CHL1   C24 2870   0.917   4.224   4.631
   23CHL1  H24A 2871   0.990   4.280   4.693
   23CHL1  H24B 2872   0.968   4.131   4.598
   23CHL1   C25 2873   0.862   4.316   4.518
   23CHL1   H25 2874   0.820   4.402   4.574
   23CHL1   C26 2875   0.977   4.373   4.427
   23CHL1  H26A 2876   1.018   4.294   4.361
   23CHL1  H26B 2877   0.923   4.452   4.370
   23CHL1  H26C 2878   1.051   4.420   4.496
   23CHL1   C27 2879   0.755   4.244   4.435
   23CHL1  H27A 2880   0.669   4.203   4.492
   23CHL1  H27B 2881   0.710   4.313   4.360
   23CHL1  H27C 2882   0.794   4.159   4.375
   24CHL1    C3 2883   3.294   5.180   5.950
   24CHL1    H3 2884   3.375   5.112   5.916
   24CHL1    O3 2885   3.273   5.151   6.086
   24CHL1   H3' 2886   3.212   5.218   6.117
   24CHL1    C4 2887   3.340   5.325   5.924
   24CHL1   H4A 2888   3.262   5.395   5.961
   24CHL1   H4B 2889   3.428   5.343   5.990
   24CHL1    C5 2890   3.363   5.354   5.777
   24CHL1    C6 2891   3.465   5.422   5.727
   24CHL1    H6 2892   3.536   5.455   5.804
   24CHL1    C7 2893   3.496   5.468   5.585
   24CHL1   H7A 2894   3.514   5.578   5.584
   24CHL1   H7B 2895   3.584   5.410   5.549
   24CHL1    C8 2896   3.375   5.451   5.491
   24CHL1    H8 2897   3.306   5.535   5.516
   24CHL1   C14 2898   3.416   5.443   5.345
   24CHL1   H14 2899   3.491   5.361   5.341
   24CHL1   C15 2900   3.494   5.560   5.293
   24CHL1  H15A 2901   3.458   5.657   5.334
   24CHL1  H15B 2902   3.601   5.550   5.322
   24CHL1   C16 2903   3.474   5.558   5.139
   24CHL1  H16A 2904   3.417   5.649   5.110
   24CHL1  H16B 2905   3.572   5.554   5.086
   24CHL1   C17 2906   3.376   5.436   5.113
   24CHL1   H17 2907   3.444   5.348   5.111
   24CHL1   C13 2908   3.296   5.419   5.243
   24CHL1   C18 2909   3.196   5.537   5.254
   24CHL1  H18A 2910   3.150   5.557   5.353
   24CHL1  H18B 2911   3.230   5.640   5.231
   24CHL1  H18C 2912   3.105   5.514   5.195
   24CHL1   C12 2913   3.225   5.284   5.280
   24CHL1  H12A 2914   3.125   5.275   5.232
   24CHL1  H12B 2915   3.287   5.193   5.274
   24CHL1   C11 2916   3.184   5.287   5.431
   24CHL1  H11A 2917   3.105   5.364   5.441
   24CHL1  H11B 2918   3.135   5.191   5.459
   24CHL1    C9 2919   3.299   5.320   5.533
   24CHL1    H9 2920   3.369   5.237   5.510
   24CHL1   C10 2921   3.253   5.309   5.684
   24CHL1   C19 2922   3.140   5.408   5.708
   24CHL1  H19A 2923   3.098   5.401   5.810
   24CHL1  H19B 2924   3.157   5.513   5.674
   24CHL1  H19C 2925   3.054   5.373   5.647
   24CHL1    C1 2926   3.211   5.169   5.719
   24CHL1   H1A 2927   3.123   5.136   5.660
   24CHL1   H1B 2928   3.294   5.104   5.683
   24CHL1    C2 2929   3.173   5.153   5.875
   24CHL1   H2A 2930   3.140   5.048   5.893
   24CHL1   H2B 2931   3.091   5.222   5.903
   24CHL1   C20 2932   3.301   5.445   4.974
   24CHL1   H20 2933   3.254   5.545   4.970
   24CHL1   C21 2934   3.192   5.341   4.969
   24CHL1  H21A 2935   3.223   5.236   4.985
   24CHL1  H21B 2936   3.125   5.361   4.883
   24CHL1  H21C 2937   3.118   5.359   5.050
   24CHL1   C22 2938   3.393   5.426   4.851
   24CHL1  H22A 2939   3.484   5.370   4.881
   24CHL1  H22B 2940   3.344   5.357   4.780
   24CHL1   C23 2941   3.426   5.565   4.780
   24CHL1  H23A 2942   3.467   5.646   4.844
   24CHL1  H23B 2943   3.503   5.551   4.702
   24CHL1   C24 2944   3.301   5.610   4.697
   24CHL1  H24A 2945   3.270   5.538   4.618
   24CHL1  H24B 2946   3.208   5.631   4.755
   24CHL1   C25 2947   3.324   5.737   4.617
   24CHL1   H25 2948   3.395   5.709   4.537
   24CHL1   C26 2949   3.197   5.788   4.543
   24CHL1  H26A 2950   3.122   5.806   4.623
   24CHL1  H26B 2951   3.228   5.883   4.495
   24CHL1  H26C 2952   3.164   5.712   4.469
   24CHL1   C27 2953   3.385   5.849   4.697
   24CHL1  H27A 2954   3.316   5.882   4.777
   24CHL1  H27B 2955   3.481   5.817   4.744
   24CHL1  H27C 2956   3.408   5.947   4.649
   25CHL1    C3 2957   5.654   6.421   5.864
   25CHL1    H3 2958   5.657   6.531   5.879
   25CHL1    O3 2959   5.663   6.372   5.999
   25CHL1   H3' 2960   5.575   6.360   6.037
   25CHL1    C4 2961   5.517   6.390   5.813
   25CHL1   H4A 2962   5.475   6.291   5.838
   25CHL1   H4B 2963   5.452   6.459   5.872
   25CHL1    C5 2964   5.490   6.419   5.666
   25CHL1    C6 2965   5.374   6.485   5.628
   25CHL1    H6 2966   5.297   6.527   5.694
   25CHL1    C7 2967   5.346   6.531   5.486
   25CHL1   H7A 2968   5.237   6.530   5.467
   25CHL1   H7B 2969   5.373   6.639   5.483
   25CHL1    C8 2970   5.429   6.447   5.384
   25CHL1    H8 2971   5.399   6.341   5.396
   25CHL1   C14 2972   5.406   6.497   5.242
   25CHL1   H14 2973   5.424   6.606   5.237
   25CHL1   C15 2974   5.264   6.487   5.191
   25CHL1  H15A 2975   5.220   6.387   5.211
   25CHL1  H15B 2976   5.205   6.565   5.243
   25CHL1   C16 2977   5.281   6.502   5.044
   25CHL1  H16A 2978   5.230   6.418   4.993
   25CHL1  H16B 2979   5.232   6.595   5.007
   25CHL1   C17 2980   5.433   6.506   5.007
   25CHL1   H17 2981   5.466   6.611   5.021
   25CHL1   C13 2982   5.497   6.435   5.129
   25CHL1   C18 2983   5.481   6.279   5.113
   25CHL1  H18A 2984   5.555   6.237   5.042
   25CHL1  H18B 2985   5.484   6.230   5.213
   25CHL1  H18C 2986   5.379   6.247   5.082
   25CHL1   C12 2987   5.636   6.478   5.171
   25CHL1  H12A 2988   5.704   6.434   5.094
   25CHL1  H12B 2989   5.661   6.586   5.175
   25CHL1   C11 2990   5.669   6.417   5.306
   25CHL1  H11A 2991   5.666   6.307   5.300
   25CHL1  H11B 2992   5.774   6.444   5.331
   25CHL1    C9 2993   5.572   6.455   5.424
   25CHL1    H9 2994   5.604   6.559   5.444
   25CHL1   C10 2995   5.602   6.383   5.565
   25CHL1   C19 2996   5.608   6.233   5.539
   25CHL1  H19A 2997   5.508   6.205   5.500
   25CHL1  H19B 2998   5.690   6.210   5.467
   25CHL1  H19C 2999   5.629   6.176   5.632
   25CHL1    C1 3000   5.740   6.428   5.628
   25CHL1   H1A 3001   5.825   6.383   5.571
   25CHL1   H1B 3002   5.742   6.539   5.623
   25CHL1    C2 3003   5.762   6.372   5.777
   25CHL1   H2A 3004   5.867   6.399   5.801
   25CHL1   H2B 3005   5.755   6.261   5.772
   25CHL1   C20 3006   5.466   6.459   4.864
   25CHL1   H20 3007   5.430   6.354   4.863
   25CHL1   C21 3008   5.618   6.460   4.834
   25CHL1  H21A 3009   5.649   6.566   4.848
   25CHL1  H21B 3010   5.627   6.432   4.727
   25CHL1  H21C 3011   5.674   6.390   4.900
   25CHL1   C22 3012   5.383   6.525   4.751
   25CHL1  H22A 3013   5.413   6.483   4.652
   25CHL1  H22B 3014   5.276   6.504   4.767
   25CHL1   C23 3015   5.404   6.680   4.732
   25CHL1  H23A 3016   5.359   6.721   4.825
   25CHL1  H23B 3017   5.512   6.709   4.725
   25CHL1   C24 3018   5.329   6.735   4.606
   25CHL1  H24A 3019   5.359   6.840   4.586
   25CHL1  H24B 3020   5.376   6.685   4.519
   25CHL1   C25 3021   5.175   6.723   4.601
   25CHL1   H25 3022   5.149   6.615   4.607
   25CHL1   C26 3023   5.117   6.788   4.723
   25CHL1  H26A 3024   5.008   6.789   4.742
   25CHL1  H26B 3025   5.160   6.765   4.823
   25CHL1  H26C 3026   5.127   0.041   4.711
   25CHL1   C27 3027   5.114   6.766   4.468
   25CHL1  H27A 3028   5.154   6.696   4.392
   25CHL1  H27B 3029   5.003   6.763   4.464
   25CHL1  H27C 3030   5.148   0.015   4.457
   26CHL1    C3 3031   3.364   3.370   5.889
   26CHL1    H3 3032   3.470   3.394   5.911
   26CHL1    O3 3033   3.298   3.350   6.010
   26CHL1   H3' 3034   3.327   3.426   6.060
   26CHL1    C4 3035   3.294   3.498   5.830
   26CHL1   H4A 3036   3.184   3.488   5.837
   26CHL1   H4B 3037   3.330   3.573   5.903
   26CHL1    C5 3038   3.349   3.515   5.687
   26CHL1    C6 3039   3.418   3.627   5.659
   26CHL1    H6 3040   3.438   3.706   5.732
   26CHL1    C7 3041   3.481   3.656   5.527
   26CHL1   H7A 3042   3.455   3.760   5.498
   26CHL1   H7B 3043   3.592   3.661   5.526
   26CHL1    C8 3044   3.416   3.568   5.417
   26CHL1    H8 3045   3.309   3.592   5.396
   26CHL1   C14 3046   3.504   3.587   5.293
   26CHL1   H14 3047   3.598   3.541   5.328
   26CHL1   C15 3048   3.541   3.719   5.238
   26CHL1  H15A 3049   3.462   3.797   5.238
   26CHL1  H15B 3050   3.630   3.759   5.292
   26CHL1   C16 3051   3.580   3.690   5.091
   26CHL1  H16A 3052   3.510   3.741   5.022
   26CHL1  H16B 3053   3.685   3.712   5.060
   26CHL1   C17 3054   3.561   3.540   5.061
   26CHL1   H17 3055   3.659   3.497   5.090
   26CHL1   C13 3056   3.462   3.491   5.167
   26CHL1   C18 3057   3.317   3.516   5.129
   26CHL1  H18A 3058   3.306   3.622   5.099
   26CHL1  H18B 3059   3.298   3.446   5.044
   26CHL1  H18C 3060   3.235   3.498   5.202
   26CHL1   C12 3061   3.473   3.346   5.217
   26CHL1  H12A 3062   3.435   3.261   5.157
   26CHL1  H12B 3063   3.577   3.315   5.242
   26CHL1   C11 3064   3.393   3.323   5.348
   26CHL1  H11A 3065   3.287   3.323   5.315
   26CHL1  H11B 3066   3.419   3.222   5.386
   26CHL1    C9 3067   3.426   3.421   5.463
   26CHL1    H9 3068   3.529   3.395   5.496
   26CHL1   C10 3069   3.340   3.399   5.591
   26CHL1   C19 3070   3.186   3.364   5.559
   26CHL1  H19A 3071   3.129   3.375   5.654
   26CHL1  H19B 3072   3.140   3.445   5.498
   26CHL1  H19C 3073   3.171   3.268   5.504
   26CHL1    C1 3074   3.399   3.275   5.661
   26CHL1   H1A 3075   3.388   3.185   5.596
   26CHL1   H1B 3076   3.509   3.288   5.667
   26CHL1    C2 3077   3.341   3.250   5.800
   26CHL1   H2A 3078   3.374   3.154   5.845
   26CHL1   H2B 3079   3.231   3.249   5.788
   26CHL1   C20 3080   3.537   3.503   4.915
   26CHL1   H20 3081   3.429   3.517   4.893
   26CHL1   C21 3082   3.568   3.350   4.891
   26CHL1  H21A 3083   3.674   3.323   4.910
   26CHL1  H21B 3084   3.551   3.324   4.784
   26CHL1  H21C 3085   3.499   3.288   4.952
   26CHL1   C22 3086   3.610   3.590   4.816
   26CHL1  H22A 3087   3.571   3.693   4.833
   26CHL1  H22B 3088   3.718   3.601   4.840
   26CHL1   C23 3089   3.603   3.556   4.662
   26CHL1  H23A 3090   3.675   3.615   4.601
   26CHL1  H23B 3091   3.637   3.450   4.654
   26CHL1   C24 3092   3.456   3.563   4.611
   26CHL1  H24A 3093   3.391   3.511   4.684
   26CHL1  H24B 3094   3.424   3.669   4.616
   26CHL1   C25 3095   3.435   3.507   4.468
   26CHL1   H25 3096   3.325   3.501   4.450
   26CHL1   C26 3097   3.493   3.605   4.359
   26CHL1  H26A 3098   3.604   3.607   4.353
   26CHL1  H26B 3099   3.475   3.572   4.254
   26CHL1  H26C 3100   3.449   3.707   4.370
   26CHL1   C27 3101   3.490   3.365   4.444
   26CHL1  H27A 3102   3.438   3.300   4.517
   26CHL1  H27B 3103   3.465   3.328   4.342
   26CHL1  H27C 3104   3.600   3.362   4.451
   27CHL1    C3 3105   0.048   2.872   5.637
   27CHL1    H3 3106   6.802   2.835   5.620
   27CHL1    O3 3107   0.071   2.860   5.778
   27CHL1   H3' 3108   0.027   2.941   5.806
   27CHL1    C4 3109   0.151   2.776   5.567
   27CHL1   H4A 3110   0.251   2.805   5.606
   27CHL1   H4B 3111   0.135   2.670   5.599
   27CHL1    C5 3112   0.149   2.791   5.417
   27CHL1    C6 3113   0.137   2.684   5.335
   27CHL1    H6 3114   0.122   2.580   5.366
   27CHL1    C7 3115   0.149   2.704   5.185
   27CHL1   H7A 3116   0.219   2.626   5.150
   27CHL1   H7B 3117   0.059   2.684   5.123
   27CHL1    C8 3118   0.213   2.839   5.143
   27CHL1    H8 3119   0.319   2.835   5.178
   27CHL1   C14 3120   0.199   2.860   4.993
   27CHL1   H14 3121   0.092   2.875   4.967
   27CHL1   C15 3122   0.245   2.744   4.901
   27CHL1  H15A 3123   0.342   2.704   4.936
   27CHL1  H15B 3124   0.161   2.671   4.898
   27CHL1   C16 3125   0.265   2.809   4.769
   27CHL1  H16A 3126   0.371   2.797   4.740
   27CHL1  H16B 3127   0.209   2.749   4.695
   27CHL1   C17 3128   0.217   2.961   4.781
   27CHL1   H17 3129   0.109   2.970   4.757
   27CHL1   C13 3130   0.244   2.991   4.935
   27CHL1   C18 3131   0.394   3.023   4.961
   27CHL1  H18A 3132   0.448   2.944   4.906
   27CHL1  H18B 3133   0.425   3.123   4.922
   27CHL1  H18C 3134   0.440   3.019   5.062
   27CHL1   C12 3135   0.158   3.105   5.006
   27CHL1  H12A 3136   0.188   3.208   4.977
   27CHL1  H12B 3137   0.051   3.103   4.977
   27CHL1   C11 3138   0.179   3.088   5.157
   27CHL1  H11A 3139   0.280   3.121   5.189
   27CHL1  H11B 3140   0.120   3.171   5.202
   27CHL1    C9 3141   0.140   2.949   5.212
   27CHL1    H9 3142   0.032   2.933   5.188
   27CHL1   C10 3143   0.155   2.935   5.370
   27CHL1   C19 3144   0.303   2.977   5.401
   27CHL1  H19A 3145   0.333   2.965   5.507
   27CHL1  H19B 3146   0.377   2.916   5.345
   27CHL1  H19C 3147   0.309   3.086   5.380
   27CHL1    C1 3148   0.057   3.023   5.437
   27CHL1   H1A 3149   0.080   3.129   5.415
   27CHL1   H1B 3150   6.813   2.997   5.396
   27CHL1    C2 3151   0.057   3.023   5.592
   27CHL1   H2A 3152   6.825   3.081   5.623
   27CHL1   H2B 3153   0.150   3.070   5.631
   27CHL1   C20 3154   0.285   3.058   4.673
   27CHL1   H20 3155   0.393   3.057   4.697
   27CHL1   C21 3156   0.225   3.199   4.691
   27CHL1  H21A 3157   0.269   3.256   4.776
   27CHL1  H21B 3158   0.116   3.191   4.708
   27CHL1  H21C 3159   0.238   3.246   4.591
   27CHL1   C22 3160   0.260   3.005   4.528
   27CHL1  H22A 3161   0.313   3.082   4.467
   27CHL1  H22B 3162   0.319   2.911   4.520
   27CHL1   C23 3163   0.111   3.003   4.489
   27CHL1  H23A 3164   0.067   2.923   4.554
   27CHL1  H23B 3165   0.058   3.097   4.516
   27CHL1   C24 3166   0.094   2.975   4.337
   27CHL1  H24A 3167   0.130   3.065   4.282
   27CHL1  H24B 3168   0.151   2.892   4.290
   27CHL1   C25 3169   6.810   2.940   4.301
   27CHL1   H25 3170   6.773   2.855   4.362
   27CHL1   C26 3171   6.710   3.052   4.352
   27CHL1  H26A 3172   6.608   3.029   4.312
   27CHL1  H26B 3173   6.704   3.043   4.462
   27CHL1  H26C 3174   6.744   3.153   4.321
   27CHL1   C27 3175   6.775   2.914   4.154
   27CHL1  H27A 3176   6.819   2.815   4.128
   27CHL1  H27B 3177   6.809   3.005   4.099
   27CHL1  H27C 3178   6.665   2.905   4.142
   28CHL1    C3 3179   4.908   2.608   5.823
   28CHL1    H3 3180   4.828   2.531   5.825
   28CHL1    O3 3181   4.910   2.673   5.949
   28CHL1   H3' 3182   4.945   2.614   6.016
   28CHL1    C4 3183   5.036   2.530   5.800
   28CHL1   H4A 3184   5.122   2.600   5.802
   28CHL1   H4B 3185   5.054   2.453   5.878
   28CHL1    C5 3186   5.048   2.466   5.665
   28CHL1    C6 3187   5.091   2.342   5.644
   28CHL1    H6 3188   5.125   2.294   5.737
   28CHL1    C7 3189   5.110   2.255   5.516
   28CHL1   H7A 3190   5.213   2.213   5.504
   28CHL1   H7B 3191   5.032   2.176   5.513
   28CHL1    C8 3192   5.082   2.350   5.398
   28CHL1    H8 3193   5.179   2.403   5.381
   28CHL1   C14 3194   5.050   2.278   5.272
   28CHL1   H14 3195   4.951   2.231   5.285
   28CHL1   C15 3196   5.140   2.155   5.244
   28CHL1  H15A 3197   5.246   2.187   5.252
   28CHL1  H15B 3198   5.127   2.063   5.305
   28CHL1   C16 3199   5.115   2.132   5.092
   28CHL1  H16A 3200   5.214   2.136   5.043
   28CHL1  H16B 3201   5.078   2.028   5.081
   28CHL1   C17 3202   5.017   2.239   5.042
   28CHL1   H17 3203   4.912   2.204   5.054
   28CHL1   C13 3204   5.042   2.352   5.143
   28CHL1   C18 3205   5.172   2.427   5.116
   28CHL1  H18A 3206   5.266   2.371   5.099
   28CHL1  H18B 3207   5.157   2.494   5.028
   28CHL1  H18C 3208   5.199   2.503   5.193
   28CHL1   C12 3209   4.926   2.459   5.160
   28CHL1  H12A 3210   4.917   2.522   5.069
   28CHL1  H12B 3211   4.830   2.406   5.180
   28CHL1   C11 3212   4.950   2.549   5.282
   28CHL1  H11A 3213   5.047   2.599   5.262
   28CHL1  H11B 3214   4.858   2.609   5.299
   28CHL1    C9 3215   4.979   2.465   5.421
   28CHL1    H9 3216   4.883   2.414   5.448
   28CHL1   C10 3217   5.003   2.555   5.545
   28CHL1   C19 3218   5.119   2.655   5.521
   28CHL1  H19A 3219   5.118   2.719   5.611
   28CHL1  H19B 3220   5.216   2.601   5.515
   28CHL1  H19C 3221   5.099   2.712   5.428
   28CHL1    C1 3222   4.876   2.634   5.574
   28CHL1   H1A 3223   4.857   2.710   5.496
   28CHL1   H1B 3224   4.789   2.565   5.563
   28CHL1    C2 3225   4.865   2.709   5.709
   28CHL1   H2A 3226   4.757   2.731   5.729
   28CHL1   H2B 3227   4.924   2.803   5.705
   28CHL1   C20 3228   5.047   2.266   4.899
   28CHL1   H20 3229   5.157   2.282   4.890
   28CHL1   C21 3230   4.976   2.392   4.842
   28CHL1  H21A 3231   5.003   2.485   4.895
   28CHL1  H21B 3232   4.865   2.384   4.846
   28CHL1  H21C 3233   5.000   2.411   4.735
   28CHL1   C22 3234   5.007   2.156   4.803
   28CHL1  H22A 3235   5.066   2.067   4.832
   28CHL1  H22B 3236   4.900   2.130   4.812
   28CHL1   C23 3237   5.050   2.170   4.657
   28CHL1  H23A 3238   4.974   2.230   4.602
   28CHL1  H23B 3239   5.148   2.222   4.653
   28CHL1   C24 3240   5.061   2.040   4.575
   28CHL1  H24A 3241   5.147   1.986   4.619
   28CHL1  H24B 3242   4.972   1.976   4.587
   28CHL1   C25 3243   5.095   2.056   4.425
   28CHL1   H25 3244   5.031   2.134   4.378
   28CHL1   C26 3245   5.239   2.104   4.397
   28CHL1  H26A 3246   5.262   2.196   4.455
   28CHL1  H26B 3247   5.325   2.035   4.413
   28CHL1  H26C 3248   5.238   2.132   4.289
   28CHL1   C27 3249   5.060   1.920   4.357
   28CHL1  H27A 3250   5.113   1.838   4.410
   28CHL1  H27B 3251   4.952   1.899   4.372
   28CHL1  H27C 3252   5.075   1.917   4.247
   29CHL1    C3 3253   2.272   4.332   5.923
   29CHL1    H3 3254   2.312   4.234   5.887
   29CHL1    O3 3255   2.249   4.316   6.066
   29CHL1   H3' 3256   2.158   4.294   6.087
   29CHL1    C4 3257   2.372   4.447   5.902
   29CHL1   H4A 3258   2.335   4.541   5.948
   29CHL1   H4B 3259   2.458   4.409   5.961
   29CHL1    C5 3260   2.405   4.440   5.755
   29CHL1    C6 3261   2.539   4.424   5.726
   29CHL1    H6 3262   2.611   4.409   5.807
   29CHL1    C7 3263   2.579   4.449   5.581
   29CHL1   H7A 3264   2.669   4.512   5.570
   29CHL1   H7B 3265   2.619   4.358   5.530
   29CHL1    C8 3266   2.469   4.519   5.500
   29CHL1    H8 3267   2.454   4.625   5.531
   29CHL1   C14 3268   2.512   4.510   5.350
   29CHL1   H14 3269   2.520   4.400   5.333
   29CHL1   C15 3270   2.654   4.559   5.316
   29CHL1  H15A 3271   2.685   4.661   5.348
   29CHL1  H15B 3272   2.723   4.488   5.365
   29CHL1   C16 3273   2.653   4.543   5.159
   29CHL1  H16A 3274   2.683   4.638   5.109
   29CHL1  H16B 3275   2.725   4.464   5.128
   29CHL1   C17 3276   2.505   4.517   5.122
   29CHL1   H17 3277   2.495   4.407   5.113
   29CHL1   C13 3278   2.420   4.561   5.245
   29CHL1   C18 3279   2.409   4.721   5.266
   29CHL1  H18A 3280   2.375   4.753   5.367
   29CHL1  H18B 3281   2.508   4.772   5.254
   29CHL1  H18C 3282   2.349   4.757   5.180
   29CHL1   C12 3283   2.287   4.481   5.267
   29CHL1  H12A 3284   2.207   4.521   5.201
   29CHL1  H12B 3285   2.293   4.373   5.239
   29CHL1   C11 3286   2.235   4.485   5.412
   29CHL1  H11A 3287   2.207   4.591   5.429
   29CHL1  H11B 3288   2.145   4.421   5.424
   29CHL1    C9 3289   2.332   4.452   5.518
   29CHL1    H9 3290   2.346   4.342   5.506
   29CHL1   C10 3291   2.282   4.470   5.665
   29CHL1   C19 3292   2.236   4.616   5.688
   29CHL1  H19A 3293   2.330   4.673   5.703
   29CHL1  H19B 3294   2.175   4.657   5.605
   29CHL1  H19C 3295   2.168   4.619   5.776
   29CHL1    C1 3296   2.177   4.367   5.700
   29CHL1   H1A 3297   2.086   4.403   5.648
   29CHL1   H1B 3298   2.193   4.266   5.657
   29CHL1    C2 3299   2.141   4.358   5.854
   29CHL1   H2A 3300   2.068   4.278   5.878
   29CHL1   H2B 3301   2.108   4.456   5.893
   29CHL1   C20 3302   2.488   4.576   4.986
   29CHL1   H20 3303   2.520   4.682   4.989
   29CHL1   C21 3304   2.341   4.567   4.959
   29CHL1  H21A 3305   2.313   4.614   4.862
   29CHL1  H21B 3306   2.288   4.614   5.044
   29CHL1  H21C 3307   2.314   4.459   4.959
   29CHL1   C22 3308   2.572   4.509   4.877
   29CHL1  H22A 3309   2.674   4.549   4.893
   29CHL1  H22B 3310   2.563   4.398   4.883
   29CHL1   C23 3311   2.532   4.547   4.734
   29CHL1  H23A 3312   2.584   4.480   4.663
   29CHL1  H23B 3313   2.425   4.526   4.715
   29CHL1   C24 3314   2.552   4.695   4.699
   29CHL1  H24A 3315   2.506   4.764   4.773
   29CHL1  H24B 3316   2.662   4.709   4.698
   29CHL1   C25 3317   2.489   4.750   4.572
   29CHL1   H25 3318   2.378   4.736   4.575
   29CHL1   C26 3319   2.500   4.902   4.559
   29CHL1  H26A 3320   2.607   4.934   4.563
   29CHL1  H26B 3321   2.467   4.924   4.456
   29CHL1  H26C 3322   2.431   4.948   4.632
   29CHL1   C27 3323   2.531   4.662   4.463
   29CHL1  H27A 3324   2.494   4.695   4.364
   29CHL1  H27B 3325   2.640   4.679   4.453
   29CHL1  H27C 3326   2.517   4.553   4.478
   30CHL1    C3 3327   2.424   3.815   5.958
   30CHL1    H3 3328   2.338   3.751   5.928
   30CHL1    O3 3329   2.438   3.810   6.098
   30CHL1   H3' 3330   2.350   3.832   6.129
   30CHL1    C4 3331   2.564   3.785   5.894
   30CHL1   H4A 3332   2.637   3.848   5.949
   30CHL1   H4B 3333   2.578   3.681   5.933
   30CHL1    C5 3334   2.569   3.801   5.749
   30CHL1    C6 3335   2.609   3.702   5.671
   30CHL1    H6 3336   2.649   3.605   5.704
   30CHL1    C7 3337   2.613   3.713   5.516
   30CHL1   H7A 3338   2.706   3.680   5.467
   30CHL1   H7B 3339   2.524   3.659   5.477
   30CHL1    C8 3340   2.599   3.864   5.466
   30CHL1    H8 3341   2.699   3.909   5.485
   30CHL1   C14 3342   2.569   3.871   5.313
   30CHL1   H14 3343   2.460   3.851   5.303
   30CHL1   C15 3344   2.651   3.787   5.212
   30CHL1  H15A 3345   2.759   3.781   5.234
   30CHL1  H15B 3346   2.608   3.688   5.235
   30CHL1   C16 3347   2.635   3.850   5.081
   30CHL1  H16A 3348   2.735   3.886   5.048
   30CHL1  H16B 3349   2.601   3.773   5.009
   30CHL1   C17 3350   2.541   3.975   5.102
   30CHL1   H17 3351   2.438   3.932   5.101
   30CHL1   C13 3352   2.557   4.013   5.253
   30CHL1   C18 3353   2.688   4.087   5.270
   30CHL1  H18A 3354   2.670   4.194   5.243
   30CHL1  H18B 3355   2.719   4.101   5.376
   30CHL1  H18C 3356   2.773   4.039   5.218
   30CHL1   C12 3357   2.438   4.082   5.332
   30CHL1  H12A 3358   2.427   4.187   5.297
   30CHL1  H12B 3359   2.345   4.029   5.302
   30CHL1   C11 3360   2.461   4.081   5.486
   30CHL1  H11A 3361   2.558   4.133   5.500
   30CHL1  H11B 3362   2.374   4.135   5.528
   30CHL1    C9 3363   2.492   3.938   5.544
   30CHL1    H9 3364   2.403   3.876   5.523
   30CHL1   C10 3365   2.520   3.933   5.694
   30CHL1   C19 3366   2.620   4.038   5.737
   30CHL1  H19A 3367   2.647   4.024   5.844
   30CHL1  H19B 3368   2.714   4.020   5.680
   30CHL1  H19C 3369   2.586   4.143   5.723
   30CHL1    C1 3370   2.379   3.959   5.759
   30CHL1   H1A 3371   2.360   4.066   5.737
   30CHL1   H1B 3372   2.296   3.887   5.745
   30CHL1    C2 3373   2.382   3.963   5.916
   30CHL1   H2A 3374   2.284   3.991   5.960
   30CHL1   H2B 3375   2.454   4.041   5.949
   30CHL1   C20 3376   2.554   4.087   4.997
   30CHL1   H20 3377   2.643   4.151   5.013
   30CHL1   C21 3378   2.425   4.167   4.992
   30CHL1  H21A 3379   2.337   4.105   4.966
   30CHL1  H21B 3380   2.419   4.235   4.904
   30CHL1  H21C 3381   2.416   4.206   5.096
   30CHL1   C22 3382   2.587   4.022   4.854
   30CHL1  H22A 3383   2.685   3.970   4.861
   30CHL1  H22B 3384   2.505   3.946   4.848
   30CHL1   C23 3385   2.593   4.114   4.732
   30CHL1  H23A 3386   2.491   4.157   4.718
   30CHL1  H23B 3387   2.667   4.191   4.759
   30CHL1   C24 3388   2.618   4.034   4.609
   30CHL1  H24A 3389   2.680   3.946   4.635
   30CHL1  H24B 3390   2.527   3.985   4.568
   30CHL1   C25 3391   2.680   4.107   4.495
   30CHL1   H25 3392   2.758   4.180   4.528
   30CHL1   C26 3393   2.755   4.001   4.410
   30CHL1  H26A 3394   2.800   4.042   4.317
   30CHL1  H26B 3395   2.826   3.943   4.473
   30CHL1  H26C 3396   2.673   3.934   4.379
   30CHL1   C27 3397   2.583   4.187   4.416
   30CHL1  H27A 3398   2.549   4.279   4.467
   30CHL1  H27B 3399   2.629   4.209   4.317
   30CHL1  H27C 3400   2.499   4.120   4.388
   31CHL1    C3 3401   1.668   4.443   5.842
   31CHL1    H3 3402   1.601   4.355   5.853
   31CHL1    O3 3403   1.684   4.489   5.975
   31CHL1   H3' 3404   1.719   4.579   5.975
   31CHL1    C4 3405   1.800   4.398   5.788
   31CHL1   H4A 3406   1.849   4.497   5.805
   31CHL1   H4B 3407   1.835   4.308   5.843
   31CHL1    C5 3408   1.795   4.364   5.638
   31CHL1    C6 3409   1.849   4.245   5.600
   31CHL1    H6 3410   1.887   4.176   5.677
   31CHL1    C7 3411   1.860   4.202   5.457
   31CHL1   H7A 3412   1.958   4.153   5.437
   31CHL1   H7B 3413   1.783   4.124   5.437
   31CHL1    C8 3414   1.837   4.325   5.364
   31CHL1    H8 3415   1.922   4.395   5.368
   31CHL1   C14 3416   1.819   4.282   5.221
   31CHL1   H14 3417   1.733   4.212   5.218
   31CHL1   C15 3418   1.932   4.201   5.157
   31CHL1  H15A 3419   2.033   4.246   5.164
   31CHL1  H15B 3420   1.940   4.101   5.204
   31CHL1   C16 3421   1.895   4.190   5.009
   31CHL1  H16A 3422   1.986   4.208   4.948
   31CHL1  H16B 3423   1.862   4.087   4.985
   31CHL1   C17 3424   1.780   4.296   4.994
   31CHL1   H17 3425   1.684   4.240   4.996
   31CHL1   C13 3426   1.786   4.385   5.118
   31CHL1   C18 3427   1.902   4.487   5.106
   31CHL1  H18A 3428   1.865   4.563   5.033
   31CHL1  H18B 3429   1.931   4.544   5.197
   31CHL1  H18C 3430   1.996   4.442   5.067
   31CHL1   C12 3431   1.657   4.454   5.161
   31CHL1  H12A 3432   1.625   4.539   5.096
   31CHL1  H12B 3433   1.581   4.374   5.170
   31CHL1   C11 3434   1.663   4.512   5.295
   31CHL1  H11A 3435   1.729   4.601   5.289
   31CHL1  H11B 3436   1.566   4.555   5.328
   31CHL1    C9 3437   1.720   4.411   5.412
   31CHL1    H9 3438   1.634   4.343   5.431
   31CHL1   C10 3439   1.729   4.474   5.550
   31CHL1   C19 3440   1.817   4.603   5.553
   31CHL1  H19A 3441   1.770   4.688   5.499
   31CHL1  H19B 3442   1.838   4.643   5.654
   31CHL1  H19C 3443   1.912   4.596   5.496
   31CHL1    C1 3444   1.588   4.508   5.601
   31CHL1   H1A 3445   1.559   4.588   5.531
   31CHL1   H1B 3446   1.527   4.416   5.591
   31CHL1    C2 3447   1.592   4.550   5.753
   31CHL1   H2A 3448   1.486   4.551   5.784
   31CHL1   H2B 3449   1.636   4.651   5.767
   31CHL1   C20 3450   1.784   4.351   4.853
   31CHL1   H20 3451   1.874   4.415   4.844
   31CHL1   C21 3452   1.657   4.445   4.827
   31CHL1  H21A 3453   1.567   4.389   4.860
   31CHL1  H21B 3454   1.640   4.463   4.719
   31CHL1  H21C 3455   1.676   4.541   4.880
   31CHL1   C22 3456   1.791   4.249   4.737
   31CHL1  H22A 3457   1.839   4.162   4.787
   31CHL1  H22B 3458   1.685   4.221   4.714
   31CHL1   C23 3459   1.873   4.277   4.612
   31CHL1  H23A 3460   1.855   4.210   4.525
   31CHL1  H23B 3461   1.840   4.376   4.576
   31CHL1   C24 3462   2.028   4.271   4.634
   31CHL1  H24A 3463   2.046   4.334   4.723
   31CHL1  H24B 3464   2.058   4.168   4.662
   31CHL1   C25 3465   2.103   4.320   4.510
   31CHL1   H25 3466   2.065   4.419   4.476
   31CHL1   C26 3467   2.255   4.341   4.536
   31CHL1  H26A 3468   2.293   4.238   4.554
   31CHL1  H26B 3469   2.316   4.388   4.455
   31CHL1  H26C 3470   2.275   4.404   4.625
   31CHL1   C27 3471   2.095   4.212   4.406
   31CHL1  H27A 3472   2.167   4.220   4.322
   31CHL1  H27B 3473   2.109   4.110   4.449
   31CHL1  H27C 3474   1.996   4.225   4.357
   32CHL1    C3 3475   1.517   2.367   5.794
   32CHL1    H3 3476   1.559   2.266   5.772
   32CHL1    O3 3477   1.498   2.374   5.937
   32CHL1   H3' 3478   1.423   2.325   5.968
   32CHL1    C4 3479   1.634   2.461   5.757
   32CHL1   H4A 3480   1.597   2.561   5.788
   32CHL1   H4B 3481   1.725   2.430   5.813
   32CHL1    C5 3482   1.665   2.468   5.608
   32CHL1    C6 3483   1.792   2.423   5.565
   32CHL1    H6 3484   1.860   2.382   5.641
   32CHL1    C7 3485   1.835   2.422   5.417
   32CHL1   H7A 3486   1.934   2.470   5.406
   32CHL1   H7B 3487   1.843   2.316   5.385
   32CHL1    C8 3488   1.735   2.500   5.325
   32CHL1    H8 3489   1.748   2.609   5.342
   32CHL1   C14 3490   1.767   2.461   5.183
   32CHL1   H14 3491   1.762   2.350   5.183
   32CHL1   C15 3492   1.907   2.490   5.126
   32CHL1  H15A 3493   1.929   2.598   5.139
   32CHL1  H15B 3494   1.980   2.426   5.181
   32CHL1   C16 3495   1.886   2.457   4.977
   32CHL1  H16A 3496   1.937   2.536   4.918
   32CHL1  H16B 3497   1.940   2.361   4.960
   32CHL1   C17 3498   1.735   2.450   4.946
   32CHL1   H17 3499   1.716   2.341   4.939
   32CHL1   C13 3500   1.667   2.504   5.073
   32CHL1   C18 3501   1.665   2.659   5.066
   32CHL1  H18A 3502   1.620   2.704   5.157
   32CHL1  H18B 3503   1.764   2.698   5.037
   32CHL1  H18C 3504   1.598   2.690   4.983
   32CHL1   C12 3505   1.536   2.434   5.116
   32CHL1  H12A 3506   1.456   2.462   5.044
   32CHL1  H12B 3507   1.531   2.324   5.109
   32CHL1   C11 3508   1.482   2.474   5.255
   32CHL1  H11A 3509   1.463   2.584   5.258
   32CHL1  H11B 3510   1.398   2.406   5.280
   32CHL1    C9 3511   1.593   2.453   5.363
   32CHL1    H9 3512   1.598   2.342   5.363
   32CHL1   C10 3513   1.549   2.494   5.506
   32CHL1   C19 3514   1.520   2.655   5.512
   32CHL1  H19A 3515   1.607   2.710   5.471
   32CHL1  H19B 3516   1.431   2.691   5.457
   32CHL1  H19C 3517   1.521   2.691   5.617
   32CHL1    C1 3518   1.430   2.397   5.558
   32CHL1   H1A 3519   1.343   2.416   5.490
   32CHL1   H1B 3520   1.453   2.292   5.531
   32CHL1    C2 3521   1.390   2.395   5.706
   32CHL1   H2A 3522   1.304   2.329   5.731
   32CHL1   H2B 3523   1.347   2.494   5.734
   32CHL1   C20 3524   1.713   2.510   4.803
   32CHL1   H20 3525   1.744   2.617   4.807
   32CHL1   C21 3526   1.559   2.503   4.766
   32CHL1  H21A 3527   1.500   2.560   4.841
   32CHL1  H21B 3528   1.539   2.394   4.772
   32CHL1  H21C 3529   1.534   2.549   4.668
   32CHL1   C22 3530   1.792   2.431   4.699
   32CHL1  H22A 3531   1.903   2.433   4.696
   32CHL1  H22B 3532   1.765   2.327   4.730
   32CHL1   C23 3533   1.753   2.447   4.552
   32CHL1  H23A 3534   1.813   2.371   4.497
   32CHL1  H23B 3535   1.649   2.409   4.547
   32CHL1   C24 3536   1.768   2.587   4.492
   32CHL1  H24A 3537   1.692   2.655   4.536
   32CHL1  H24B 3538   1.861   2.644   4.514
   32CHL1   C25 3539   1.753   2.592   4.338
   32CHL1   H25 3540   1.823   2.522   4.287
   32CHL1   C26 3541   1.612   2.552   4.291
   32CHL1  H26A 3542   1.541   2.598   4.362
   32CHL1  H26B 3543   1.589   2.580   4.186
   32CHL1  H26C 3544   1.592   2.443   4.305
   32CHL1   C27 3545   1.781   2.740   4.288
   32CHL1  H27A 3546   1.889   2.763   4.306
   32CHL1  H27B 3547   1.759   2.761   4.181
   32CHL1  H27C 3548   1.719   2.805   4.353
   33CHL1    C3 3549   0.402   1.597   5.566
   33CHL1    H3 3550   0.507   1.559   5.570
   33CHL1    O3 3551   0.327   1.565   5.681
   33CHL1   H3' 3552   0.321   1.469   5.682
   33CHL1    C4 3553   0.396   1.750   5.530
   33CHL1   H4A 3554   0.291   1.782   5.522
   33CHL1   H4B 3555   0.445   1.803   5.614
   33CHL1    C5 3556   0.453   1.786   5.394
   33CHL1    C6 3557   0.543   1.893   5.386
   33CHL1    H6 3558   0.558   1.958   5.474
   33CHL1    C7 3559   0.607   1.931   5.257
   33CHL1   H7A 3560   0.597   2.041   5.253
   33CHL1   H7B 3561   0.716   1.906   5.260
   33CHL1    C8 3562   0.545   1.861   5.133
   33CHL1    H8 3563   0.455   1.922   5.108
   33CHL1   C14 3564   0.637   1.887   5.011
   33CHL1   H14 3565   0.738   1.841   5.018
   33CHL1   C15 3566   0.685   2.035   4.972
   33CHL1  H15A 3567   0.607   2.114   4.983
   33CHL1  H15B 3568   0.765   2.048   5.047
   33CHL1   C16 3569   0.715   2.018   4.821
   33CHL1  H16A 3570   0.648   2.072   4.750
   33CHL1  H16B 3571   0.817   2.057   4.804
   33CHL1   C17 3572   0.683   1.877   4.778
   33CHL1   H17 3573   0.775   1.820   4.804
   33CHL1   C13 3574   0.577   1.826   4.880
   33CHL1   C18 3575   0.437   1.885   4.851
   33CHL1  H18A 3576   0.446   1.994   4.834
   33CHL1  H18B 3577   0.402   1.849   4.752
   33CHL1  H18C 3578   0.358   1.854   4.921
   33CHL1   C12 3579   0.569   1.675   4.903
   33CHL1  H12A 3580   0.516   1.624   4.820
   33CHL1  H12B 3581   0.669   1.626   4.904
   33CHL1   C11 3582   0.483   1.633   5.032
   33CHL1  H11A 3583   0.374   1.636   5.014
   33CHL1  H11B 3584   0.495   1.523   5.046
   33CHL1    C9 3585   0.518   1.718   5.150
   33CHL1    H9 3586   0.611   1.671   5.189
   33CHL1   C10 3587   0.421   1.693   5.277
   33CHL1   C19 3588   0.280   1.731   5.238
   33CHL1  H19A 3589   0.206   1.723   5.320
   33CHL1  H19B 3590   0.282   1.833   5.195
   33CHL1  H19C 3591   0.239   1.657   5.166
   33CHL1    C1 3592   0.424   1.545   5.327
   33CHL1   H1A 3593   0.383   1.483   5.245
   33CHL1   H1B 3594   0.528   1.507   5.339
   33CHL1    C2 3595   0.341   1.512   5.458
   33CHL1   H2A 3596   0.350   1.403   5.473
   33CHL1   H2B 3597   0.235   1.544   5.456
   33CHL1   C20 3598   0.663   1.857   4.631
   33CHL1   H20 3599   0.559   1.891   4.611
   33CHL1   C21 3600   0.685   1.705   4.590
   33CHL1  H21A 3601   0.593   1.653   4.624
   33CHL1  H21B 3602   0.773   1.662   4.644
   33CHL1  H21C 3603   0.682   1.690   4.480
   33CHL1   C22 3604   0.765   1.945   4.558
   33CHL1  H22A 3605   0.749   2.052   4.580
   33CHL1  H22B 3606   0.866   1.904   4.579
   33CHL1   C23 3607   0.732   1.947   4.407
   33CHL1  H23A 3608   0.751   1.854   4.349
   33CHL1  H23B 3609   0.625   1.977   4.403
   33CHL1   C24 3610   0.800   2.063   4.337
   33CHL1  H24A 3611   0.765   2.159   4.381
   33CHL1  H24B 3612   0.905   2.068   4.373
   33CHL1   C25 3613   0.781   2.056   4.184
   33CHL1   H25 3614   0.851   1.979   4.145
   33CHL1   C26 3615   0.640   2.041   4.124
   33CHL1  H26A 3616   0.568   2.101   4.183
   33CHL1  H26B 3617   0.636   2.067   4.016
   33CHL1  H26C 3618   0.615   1.933   4.128
   33CHL1   C27 3619   0.831   2.191   4.138
   33CHL1  H27A 3620   0.942   2.196   4.134
   33CHL1  H27B 3621   0.811   2.211   4.031
   33CHL1  H27C 3622   0.781   2.270   4.197
   34CHL1    C3 3623   1.944   2.890   6.021
   34CHL1    H3 3624   1.998   2.798   6.052
   34CHL1    O3 3625   1.876   2.918   6.139
   34CHL1   H3' 3626   1.941   2.933   6.207
   34CHL1    C4 3627   2.036   3.011   5.980
   34CHL1   H4A 3628   1.976   3.105   5.983
   34CHL1   H4B 3629   2.107   3.034   6.063
   34CHL1    C5 3630   2.104   2.995   5.848
   34CHL1    C6 3631   2.236   3.011   5.843
   34CHL1    H6 3632   2.293   3.041   5.932
   34CHL1    C7 3633   2.312   2.988   5.717
   34CHL1   H7A 3634   2.390   3.067   5.726
   34CHL1   H7B 3635   2.355   2.885   5.721
   34CHL1    C8 3636   2.219   3.005   5.590
   34CHL1    H8 3637   2.192   3.112   5.578
   34CHL1   C14 3638   2.285   2.959   5.465
   34CHL1   H14 3639   2.321   2.854   5.472
   34CHL1   C15 3640   2.420   3.034   5.433
   34CHL1  H15A 3641   2.413   3.143   5.452
   34CHL1  H15B 3642   2.498   2.988   5.498
   34CHL1   C16 3643   2.432   3.015   5.280
   34CHL1  H16A 3644   2.434   3.115   5.232
   34CHL1  H16B 3645   2.530   2.966   5.262
   34CHL1   C17 3646   2.307   2.937   5.228
   34CHL1   H17 3647   2.330   2.828   5.232
   34CHL1   C13 3648   2.198   2.969   5.336
   34CHL1   C18 3649   2.162   3.116   5.309
   34CHL1  H18A 3650   2.108   3.125   5.213
   34CHL1  H18B 3651   2.089   3.144   5.388
   34CHL1  H18C 3652   2.251   3.183   5.305
   34CHL1   C12 3653   2.081   2.868   5.351
   34CHL1  H12A 3654   2.020   2.862   5.258
   34CHL1  H12B 3655   2.116   2.763   5.357
   34CHL1   C11 3656   2.001   2.901   5.478
   34CHL1  H11A 3657   1.959   3.001   5.454
   34CHL1  H11B 3658   1.920   2.828   5.504
   34CHL1    C9 3659   2.090   2.913   5.606
   34CHL1    H9 3660   2.135   2.812   5.616
   34CHL1   C10 3661   2.008   2.956   5.730
   34CHL1   C19 3662   1.922   3.077   5.689
   34CHL1  H19A 3663   1.899   3.146   5.772
   34CHL1  H19B 3664   1.971   3.145   5.616
   34CHL1  H19C 3665   1.827   3.039   5.645
   34CHL1    C1 3666   1.905   2.842   5.774
   34CHL1   H1A 3667   1.826   2.823   5.698
   34CHL1   H1B 3668   1.948   2.740   5.775
   34CHL1    C2 3669   1.837   2.861   5.910
   34CHL1   H2A 3670   1.773   2.772   5.925
   34CHL1   H2B 3671   1.764   2.944   5.908
   34CHL1   C20 3672   2.291   2.957   5.075
   34CHL1   H20 3673   2.278   3.065   5.053
   34CHL1   C21 3674   2.159   2.885   5.020
   34CHL1  H21A 3675   2.151   2.898   4.910
   34CHL1  H21B 3676   2.067   2.925   5.066
   34CHL1  H21C 3677   2.164   2.779   5.051
   34CHL1   C22 3678   2.413   2.912   4.990
   34CHL1  H22A 3679   2.507   2.935   5.045
   34CHL1  H22B 3680   2.413   2.801   4.986
   34CHL1   C23 3681   2.418   2.988   4.861
   34CHL1  H23A 3682   2.331   2.965   4.795
   34CHL1  H23B 3683   2.409   3.093   4.895
   34CHL1   C24 3684   2.544   2.951   4.777
   34CHL1  H24A 3685   2.629   2.936   4.848
   34CHL1  H24B 3686   2.523   2.853   4.729
   34CHL1   C25 3687   2.588   3.058   4.677
   34CHL1   H25 3688   2.503   3.067   4.606
   34CHL1   C26 3689   2.616   3.196   4.735
   34CHL1  H26A 3690   2.529   3.249   4.779
   34CHL1  H26B 3691   2.696   3.179   4.810
   34CHL1  H26C 3692   2.661   3.262   4.658
   34CHL1   C27 3693   2.715   3.008   4.606
   34CHL1  H27A 3694   2.785   2.995   4.692
   34CHL1  H27B 3695   2.712   2.928   4.529
   34CHL1  H27C 3696   2.756   3.094   4.548
   35CHL1    C3 3697   3.833   5.695   6.118
   35CHL1    H3 3698   3.872   5.592   6.129
   35CHL1    O3 3699   3.787   5.742   6.248
   35CHL1   H3' 3700   3.695   5.713   6.247
   35CHL1    C4 3701   3.938   5.790   6.066
   35CHL1   H4A 3702   3.890   5.890   6.063
   35CHL1   H4B 3703   4.012   5.802   6.148
   35CHL1    C5 3704   3.988   5.741   5.928
   35CHL1    C6 3705   4.117   5.718   5.907
   35CHL1    H6 3706   4.189   5.733   5.989
   35CHL1    C7 3707   4.174   5.678   5.773
   35CHL1   H7A 3708   4.277   5.719   5.766
   35CHL1   H7B 3709   4.195   5.569   5.765
   35CHL1    C8 3710   4.075   5.714   5.662
   35CHL1    H8 3711   4.072   5.824   5.654
   35CHL1   C14 3712   4.134   5.649   5.533
   35CHL1   H14 3713   4.112   5.543   5.556
   35CHL1   C15 3714   4.281   5.674   5.495
   35CHL1  H15A 3715   4.305   5.779   5.523
   35CHL1  H15B 3716   4.357   5.612   5.547
   35CHL1   C16 3717   4.294   5.646   5.347
   35CHL1  H16A 3718   4.327   5.741   5.298
   35CHL1  H16B 3719   4.355   5.557   5.321
   35CHL1   C17 3720   4.147   5.621   5.306
   35CHL1   H17 3721   4.117   5.514   5.314
   35CHL1   C13 3722   4.053   5.683   5.416
   35CHL1   C18 3723   4.049   5.838   5.393
   35CHL1  H18A 3724   3.982   5.869   5.309
   35CHL1  H18B 3725   4.005   5.896   5.477
   35CHL1  H18C 3726   4.151   5.875   5.372
   35CHL1   C12 3727   3.910   5.637   5.434
   35CHL1  H12A 3728   3.846   5.685   5.357
   35CHL1  H12B 3729   3.904   5.526   5.431
   35CHL1   C11 3730   3.835   5.682   5.564
   35CHL1  H11A 3731   3.827   5.789   5.538
   35CHL1  H11B 3732   3.740   5.626   5.578
   35CHL1    C9 3733   3.927   5.672   5.696
   35CHL1    H9 3734   3.936   5.563   5.716
   35CHL1   C10 3735   3.877   5.730   5.825
   35CHL1   C19 3736   3.815   5.870   5.787
   35CHL1  H19A 3737   3.894   5.921   5.727
   35CHL1  H19B 3738   3.715   5.862   5.740
   35CHL1  H19C 3739   3.782   5.934   5.872
   35CHL1    C1 3740   3.767   5.645   5.894
   35CHL1   H1A 3741   3.683   5.651   5.822
   35CHL1   H1B 3742   3.807   5.543   5.907
   35CHL1    C2 3743   3.712   5.692   6.023
   35CHL1   H2A 3744   3.644   5.610   6.055
   35CHL1   H2B 3745   3.671   5.794   6.009
   35CHL1   C20 3746   4.125   5.658   5.157
   35CHL1   H20 3747   4.148   5.766   5.143
   35CHL1   C21 3748   3.983   5.636   5.106
   35CHL1  H21A 3749   3.965   5.668   5.002
   35CHL1  H21B 3750   3.913   5.707   5.156
   35CHL1  H21C 3751   3.936   5.539   5.130
   35CHL1   C22 3752   4.225   5.591   5.068
   35CHL1  H22A 3753   4.328   5.619   5.100
   35CHL1  H22B 3754   4.213   5.481   5.077
   35CHL1   C23 3755   4.236   5.628   4.916
   35CHL1  H23A 3756   4.143   5.604   4.860
   35CHL1  H23B 3757   4.254   5.736   4.901
   35CHL1   C24 3758   4.362   5.560   4.855
   35CHL1  H24A 3759   4.449   5.612   4.901
   35CHL1  H24B 3760   4.370   5.454   4.886
   35CHL1   C25 3761   4.373   5.565   4.701
   35CHL1   H25 3762   4.367   5.672   4.673
   35CHL1   C26 3763   4.510   5.508   4.654
   35CHL1  H26A 3764   4.590   5.527   4.729
   35CHL1  H26B 3765   4.500   5.398   4.643
   35CHL1  H26C 3766   4.533   5.549   4.554
   35CHL1   C27 3767   4.271   5.480   4.623
   35CHL1  H27A 3768   4.292   5.503   4.516
   35CHL1  H27B 3769   4.280   5.370   4.634
   35CHL1  H27C 3770   4.168   5.518   4.640
   36CHL1    C3 3771   6.439   4.120   6.022
   36CHL1    H3 3772   6.489   4.021   6.035
   36CHL1    O3 3773   6.415   4.168   6.151
   36CHL1   H3' 3774   6.487   4.136   6.206
   36CHL1    C4 3775   6.529   4.218   5.949
   36CHL1   H4A 3776   6.477   4.315   5.961
   36CHL1   H4B 3777   6.620   4.224   6.012
   36CHL1    C5 3778   6.565   4.192   5.806
   36CHL1    C6 3779   6.693   4.177   5.765
   36CHL1    H6 3780   6.780   4.208   5.825
   36CHL1    C7 3781   6.741   4.143   5.628
   36CHL1   H7A 3782   6.831   4.205   5.605
   36CHL1   H7B 3783   6.762   4.033   5.631
   36CHL1    C8 3784   6.618   4.159   5.528
   36CHL1    H8 3785   6.596   4.268   5.519
   36CHL1   C14 3786   6.646   4.093   5.395
   36CHL1   H14 3787   6.652   3.985   5.420
   36CHL1   C15 3788   6.776   4.140   5.325
   36CHL1  H15A 3789   6.772   4.251   5.339
   36CHL1  H15B 3790   0.008   4.090   5.369
   36CHL1   C16 3791   6.757   4.113   5.176
   36CHL1  H16A 3792   6.768   4.214   5.131
   36CHL1  H16B 3793   6.836   4.046   5.138
   36CHL1   C17 3794   6.611   4.061   5.159
   36CHL1   H17 3795   6.620   3.951   5.169
   36CHL1   C13 3796   6.541   4.113   5.285
   36CHL1   C18 3797   6.507   4.264   5.265
   36CHL1  H18A 3798   6.485   4.316   5.361
   36CHL1  H18B 3799   6.598   4.317   5.230
   36CHL1  H18C 3800   6.431   4.282   5.186
   36CHL1   C12 3801   6.418   4.037   5.341
   36CHL1  H12A 3802   6.334   4.042   5.269
   36CHL1  H12B 3803   6.445   3.932   5.363
   36CHL1   C11 3804   6.367   4.097   5.474
   36CHL1  H11A 3805   6.335   4.202   5.455
   36CHL1  H11B 3806   6.286   4.040   5.525
   36CHL1    C9 3807   6.483   4.100   5.585
   36CHL1    H9 3808   6.512   3.994   5.601
   36CHL1   C10 3809   6.437   4.164   5.719
   36CHL1   C19 3810   6.373   4.299   5.703
   36CHL1  H19A 3811   6.431   4.371   5.641
   36CHL1  H19B 3812   6.278   4.297   5.645
   36CHL1  H19C 3813   6.350   4.342   5.803
   36CHL1    C1 3814   6.347   4.066   5.791
   36CHL1   H1A 3815   6.255   4.055   5.729
   36CHL1   H1B 3816   6.397   3.967   5.789
   36CHL1    C2 3817   6.309   4.097   5.939
   36CHL1   H2A 3818   6.258   4.010   5.985
   36CHL1   H2B 3819   6.242   4.186   5.944
   36CHL1   C20 3820   6.553   4.095   5.020
   36CHL1   H20 3821   6.569   4.204   5.005
   36CHL1   C21 3822   6.398   4.061   5.009
   36CHL1  H21A 3823   6.340   4.134   5.069
   36CHL1  H21B 3824   6.367   3.958   5.034
   36CHL1  H21C 3825   6.362   4.084   4.907
   36CHL1   C22 3826   6.633   4.032   4.900
   36CHL1  H22A 3827   6.733   4.081   4.893
   36CHL1  H22B 3828   6.648   3.924   4.919
   36CHL1   C23 3829   6.562   4.048   4.758
   36CHL1  H23A 3830   6.480   3.973   4.753
   36CHL1  H23B 3831   6.520   4.150   4.747
   36CHL1   C24 3832   6.655   4.010   4.640
   36CHL1  H24A 3833   6.758   4.049   4.656
   36CHL1  H24B 3834   6.664   3.899   4.645
   36CHL1   C25 3835   6.588   4.056   4.508
   36CHL1   H25 3836   6.551   4.161   4.514
   36CHL1   C26 3837   6.686   4.047   4.385
   36CHL1  H26A 3838   6.630   4.082   4.295
   36CHL1  H26B 3839   6.774   4.112   4.406
   36CHL1  H26C 3840   6.727   3.944   4.383
   36CHL1   C27 3841   6.460   3.968   4.468
   36CHL1  H27A 3842   6.416   4.000   4.371
   36CHL1  H27B 3843   6.490   3.862   4.449
   36CHL1  H27C 3844   6.392   3.962   4.555
   37CHL1    C3 3845   0.404   0.326   5.851
   37CHL1    H3 3846   0.477   0.246   5.876
   37CHL1    O3 3847   0.324   0.350   5.969
   37CHL1   H3' 3848   0.263   0.418   5.942
   37CHL1    C4 3849   0.495   0.448   5.815
   37CHL1   H4A 3850   0.426   0.535   5.817
   37CHL1   H4B 3851   0.567   0.447   5.899
   37CHL1    C5 3852   0.569   0.434   5.680
   37CHL1    C6 3853   0.704   0.461   5.682
   37CHL1    H6 3854   0.741   0.488   5.782
   37CHL1    C7 3855   0.789   0.454   5.557
   37CHL1   H7A 3856   0.848   0.548   5.556
   37CHL1   H7B 3857   0.860   0.370   5.573
   37CHL1    C8 3858   0.704   0.448   5.425
   37CHL1    H8 3859   0.672   0.549   5.392
   37CHL1   C14 3860   0.795   0.388   5.319
   37CHL1   H14 3861   0.813   0.288   5.364
   37CHL1   C15 3862   0.923   0.454   5.272
   37CHL1  H15A 3863   0.916   0.561   5.243
   37CHL1  H15B 3864   0.991   0.444   5.358
   37CHL1   C16 3865   0.968   0.383   5.144
   37CHL1  H16A 3866   1.005   0.451   5.065
   37CHL1  H16B 3867   1.052   0.312   5.161
   37CHL1   C17 3868   0.837   0.309   5.100
   37CHL1   H17 3869   0.849   0.209   5.145
   37CHL1   C13 3870   0.722   0.365   5.188
   37CHL1   C18 3871   0.678   0.504   5.128
   37CHL1  H18A 3872   0.625   0.565   5.205
   37CHL1  H18B 3873   0.767   0.567   5.106
   37CHL1  H18C 3874   0.600   0.489   5.051
   37CHL1   C12 3875   0.597   0.281   5.193
   37CHL1  H12A 3876   0.542   0.294   5.097
   37CHL1  H12B 3877   0.634   0.178   5.212
   37CHL1   C11 3878   0.513   0.322   5.311
   37CHL1  H11A 3879   0.494   0.425   5.275
   37CHL1  H11B 3880   0.424   0.256   5.313
   37CHL1    C9 3881   0.579   0.349   5.447
   37CHL1    H9 3882   0.611   0.249   5.484
   37CHL1   C10 3883   0.493   0.390   5.558
   37CHL1   C19 3884   0.399   0.504   5.505
   37CHL1  H19A 3885   0.330   0.459   5.430
   37CHL1  H19B 3886   0.334   0.543   5.587
   37CHL1  H19C 3887   0.456   0.590   5.464
   37CHL1    C1 3888   0.414   0.266   5.612
   37CHL1   H1A 3889   0.349   0.232   5.529
   37CHL1   H1B 3890   0.486   0.182   5.625
   37CHL1    C2 3891   0.320   0.285   5.734
   37CHL1   H2A 3892   0.285   0.182   5.757
   37CHL1   H2B 3893   0.234   0.350   5.709
   37CHL1   C20 3894   0.803   0.301   4.944
   37CHL1   H20 3895   0.695   0.276   4.939
   37CHL1   C21 3896   0.874   0.177   4.888
   37CHL1  H21A 3897   0.855   0.142   4.785
   37CHL1  H21B 3898   0.868   0.088   4.955
   37CHL1  H21C 3899   0.984   0.197   4.890
   37CHL1   C22 3900   0.835   0.431   4.860
   37CHL1  H22A 3901   0.772   0.515   4.897
   37CHL1  H22B 3902   0.941   0.460   4.875
   37CHL1   C23 3903   0.807   0.419   4.709
   37CHL1  H23A 3904   0.882   0.349   4.665
   37CHL1  H23B 3905   0.711   0.371   4.680
   37CHL1   C24 3906   0.812   0.543   4.626
   37CHL1  H24A 3907   0.754   0.625   4.673
   37CHL1  H24B 3908   0.915   0.582   4.613
   37CHL1   C25 3909   0.772   0.520   4.483
   37CHL1   H25 3910   0.695   0.441   4.474
   37CHL1   C26 3911   0.708   0.642   4.416
   37CHL1  H26A 3912   0.781   0.715   4.375
   37CHL1  H26B 3913   0.654   0.590   4.334
   37CHL1  H26C 3914   0.629   0.693   4.474
   37CHL1   C27 3915   0.889   0.484   4.388
   37CHL1  H27A 3916   0.857   0.431   4.296
   37CHL1  H27B 3917   0.950   0.572   4.358
   37CHL1  H27C 3918   0.964   0.422   4.443
   38CHL1    C3 3919   1.319   1.345   6.041
   38CHL1    H3 3920   1.430   1.346   6.041
   38CHL1    O3 3921   1.266   1.353   6.173
   38CHL1   H3' 3922   1.179   1.311   6.171
   38CHL1    C4 3923   1.246   1.444   5.958
   38CHL1   H4A 3924   1.137   1.428   5.969
   38CHL1   H4B 3925   1.265   1.544   6.002
   38CHL1    C5 3926   1.280   1.439   5.814
   38CHL1    C6 3927   1.311   1.542   5.744
   38CHL1    H6 3928   1.308   1.637   5.800
   38CHL1    C7 3929   1.335   1.549   5.596
   38CHL1   H7A 3930   1.283   1.638   5.552
   38CHL1   H7B 3931   1.445   1.551   5.583
   38CHL1    C8 3932   1.294   1.417   5.523
   38CHL1    H8 3933   1.186   1.420   5.498
   38CHL1   C14 3934   1.371   1.410   5.394
   38CHL1   H14 3935   1.474   1.385   5.430
   38CHL1   C15 3936   1.399   1.539   5.306
   38CHL1  H15A 3937   1.298   1.585   5.308
   38CHL1  H15B 3938   1.482   1.602   5.343
   38CHL1   C16 3939   1.438   1.479   5.165
   38CHL1  H16A 3940   1.360   1.520   5.099
   38CHL1  H16B 3941   1.530   1.523   5.120
   38CHL1   C17 3942   1.437   1.322   5.187
   38CHL1   H17 3943   1.542   1.303   5.218
   38CHL1   C13 3944   1.338   1.294   5.304
   38CHL1   C18 3945   1.197   1.312   5.258
   38CHL1  H18A 3946   1.187   1.410   5.205
   38CHL1  H18B 3947   1.167   1.232   5.187
   38CHL1  H18C 3948   1.129   1.306   5.345
   38CHL1   C12 3949   1.358   1.172   5.389
   38CHL1  H12A 3950   1.335   1.075   5.340
   38CHL1  H12B 3951   1.466   1.177   5.417
   38CHL1   C11 3952   1.288   1.165   5.524
   38CHL1  H11A 3953   1.180   1.154   5.497
   38CHL1  H11B 3954   1.315   1.074   5.581
   38CHL1    C9 3955   1.316   1.294   5.608
   38CHL1    H9 3956   1.425   1.300   5.631
   38CHL1   C10 3957   1.255   1.302   5.747
   38CHL1   C19 3958   1.101   1.282   5.733
   38CHL1  H19A 3959   1.055   1.374   5.692
   38CHL1  H19B 3960   1.078   1.205   5.657
   38CHL1  H19C 3961   1.060   1.263   5.835
   38CHL1    C1 3962   1.327   1.197   5.838
   38CHL1   H1A 3963   1.308   1.095   5.799
   38CHL1   H1B 3964   1.436   1.218   5.846
   38CHL1    C2 3965   1.281   1.201   5.990
   38CHL1   H2A 3966   1.346   1.130   6.047
   38CHL1   H2B 3967   1.175   1.170   5.995
   38CHL1   C20 3968   1.424   1.236   5.057
   38CHL1   H20 3969   1.314   1.224   5.044
   38CHL1   C21 3970   1.493   1.099   5.080
   38CHL1  H21A 3971   1.601   1.124   5.081
   38CHL1  H21B 3972   1.478   1.027   4.997
   38CHL1  H21C 3973   1.456   1.055   5.175
   38CHL1   C22 3974   1.491   1.294   4.929
   38CHL1  H22A 3975   1.455   1.399   4.920
   38CHL1  H22B 3976   1.601   1.287   4.940
   38CHL1   C23 3977   1.436   1.227   4.796
   38CHL1  H23A 3978   1.462   1.119   4.786
   38CHL1  H23B 3979   1.326   1.244   4.794
   38CHL1   C24 3980   1.500   1.306   4.677
   38CHL1  H24A 3981   1.463   1.410   4.689
   38CHL1  H24B 3982   1.609   1.318   4.698
   38CHL1   C25 3983   1.485   1.246   4.545
   38CHL1   H25 3984   1.540   1.150   4.539
   38CHL1   C26 3985   1.336   1.209   4.513
   38CHL1  H26A 3986   1.323   1.114   4.570
   38CHL1  H26B 3987   1.264   1.284   4.552
   38CHL1  H26C 3988   1.329   1.198   4.403
   38CHL1   C27 3989   1.542   1.339   4.438
   38CHL1  H27A 3990   1.468   1.417   4.411
   38CHL1  H27B 3991   1.642   1.382   4.459
   38CHL1  H27C 3992   1.572   1.282   4.347
   39CHL1    C3 3993   2.937   1.646   6.430
   39CHL1    H3 3994   3.047   1.637   6.440
   39CHL1    O3 3995   2.882   1.622   6.560
   39CHL1   H3' 3996   2.819   1.693   6.573
   39CHL1    C4 3997   2.877   1.779   6.378
   39CHL1   H4A 3998   2.766   1.778   6.385
   39CHL1   H4B 3999   2.910   1.856   6.451
   39CHL1    C5 4000   2.916   1.810   6.238
   39CHL1    C6 4001   2.974   1.928   6.206
   39CHL1    H6 4002   2.988   2.006   6.283
   39CHL1    C7 4003   3.011   1.957   6.068
   39CHL1   H7A 4004   2.968   2.057   6.044
   39CHL1   H7B 4005   3.118   1.986   6.066
   39CHL1    C8 4006   2.966   1.865   5.956
   39CHL1    H8 4007   2.861   1.892   5.934
   39CHL1   C14 4008   3.044   1.883   5.830
   39CHL1   H14 4009   3.149   1.850   5.847
   39CHL1   C15 4010   3.059   2.029   5.790
   39CHL1  H15A 4011   2.962   2.076   5.816
   39CHL1  H15B 4012   3.145   2.091   5.825
   39CHL1   C16 4013   3.073   2.022   5.635
   39CHL1  H16A 4014   2.991   2.073   5.580
   39CHL1  H16B 4015   3.161   2.089   5.618
   39CHL1   C17 4016   3.082   1.865   5.601
   39CHL1   H17 4017   3.184   1.822   5.615
   39CHL1   C13 4018   2.998   1.795   5.711
   39CHL1   C18 4019   2.852   1.825   5.669
   39CHL1  H18A 4020   2.829   1.764   5.579
   39CHL1  H18B 4021   2.784   1.787   5.748
   39CHL1  H18C 4022   2.835   1.933   5.655
   39CHL1   C12 4023   3.012   1.651   5.759
   39CHL1  H12A 4024   2.968   1.579   5.686
   39CHL1  H12B 4025   3.120   1.628   5.770
   39CHL1   C11 4026   2.930   1.622   5.886
   39CHL1  H11A 4027   2.822   1.608   5.866
   39CHL1  H11B 4028   2.961   1.522   5.924
   39CHL1    C9 4029   2.973   1.720   5.999
   39CHL1    H9 4030   3.077   1.689   6.024
   39CHL1   C10 4031   2.894   1.700   6.133
   39CHL1   C19 4032   2.745   1.690   6.099
   39CHL1  H19A 4033   2.725   1.601   6.035
   39CHL1  H19B 4034   2.696   1.681   6.198
   39CHL1  H19C 4035   2.701   1.776   6.045
   39CHL1    C1 4036   2.940   1.559   6.194
   39CHL1   H1A 4037   2.909   1.483   6.119
   39CHL1   H1B 4038   3.051   1.562   6.200
   39CHL1    C2 4039   2.897   1.523   6.337
   39CHL1   H2A 4040   2.943   1.429   6.376
   39CHL1   H2B 4041   2.787   1.512   6.346
   39CHL1   C20 4042   3.045   1.849   5.446
   39CHL1   H20 4043   2.943   1.888   5.429
   39CHL1   C21 4044   3.043   1.701   5.415
   39CHL1  H21A 4045   2.993   1.642   5.494
   39CHL1  H21B 4046   3.150   1.670   5.413
   39CHL1  H21C 4047   2.998   1.679   5.315
   39CHL1   C22 4048   3.133   1.923   5.357
   39CHL1  H22A 4049   3.107   2.031   5.363
   39CHL1  H22B 4050   3.239   1.912   5.388
   39CHL1   C23 4051   3.129   1.878   5.207
   39CHL1  H23A 4052   3.165   1.774   5.194
   39CHL1  H23B 4053   3.023   1.883   5.174
   39CHL1   C24 4054   3.215   1.969   5.123
   39CHL1  H24A 4055   3.172   2.072   5.129
   39CHL1  H24B 4056   3.320   1.967   5.157
   39CHL1   C25 4057   3.203   1.938   4.966
   39CHL1   H25 4058   3.098   1.910   4.944
   39CHL1   C26 4059   3.250   2.063   4.888
   39CHL1  H26A 4060   3.179   2.143   4.921
   39CHL1  H26B 4061   3.353   2.089   4.921
   39CHL1  H26C 4062   3.253   2.061   4.777
   39CHL1   C27 4063   3.296   1.817   4.927
   39CHL1  H27A 4064   3.395   1.844   4.970
   39CHL1  H27B 4065   3.265   1.717   4.963
   39CHL1  H27C 4066   3.298   1.805   4.817
   40CHL1    C3 4067   3.534   4.495   6.072
   40CHL1    H3 4068   3.473   4.407   6.041
   40CHL1    O3 4069   3.601   4.471   6.191
   40CHL1   H3' 4070   3.683   4.424   6.175
   40CHL1    C4 4071   3.633   4.533   5.965
   40CHL1   H4A 4072   3.685   4.618   6.015
   40CHL1   H4B 4073   3.710   4.457   5.937
   40CHL1    C5 4074   3.564   4.571   5.833
   40CHL1    C6 4075   3.595   4.504   5.721
   40CHL1    H6 4076   3.677   4.431   5.724
   40CHL1    C7 4077   3.533   4.533   5.584
   40CHL1   H7A 4078   3.616   4.532   5.510
   40CHL1   H7B 4079   3.461   4.451   5.567
   40CHL1    C8 4080   3.446   4.660   5.588
   40CHL1    H8 4081   3.519   4.744   5.581
   40CHL1   C14 4082   3.349   4.667   5.469
   40CHL1   H14 4083   3.280   4.581   5.481
   40CHL1   C15 4084   3.425   4.638   5.341
   40CHL1  H15A 4085   3.513   4.707   5.341
   40CHL1  H15B 4086   3.449   4.531   5.324
   40CHL1   C16 4087   3.330   4.694   5.233
   40CHL1  H16A 4088   3.376   4.776   5.174
   40CHL1  H16B 4089   3.298   4.613   5.164
   40CHL1   C17 4090   3.209   4.768   5.305
   40CHL1   H17 4091   3.129   4.691   5.317
   40CHL1   C13 4092   3.271   4.798   5.451
   40CHL1   C18 4093   3.366   4.922   5.429
   40CHL1  H18A 4094   3.406   4.939   5.327
   40CHL1  H18B 4095   3.290   5.003   5.435
   40CHL1  H18C 4096   3.438   4.932   5.514
   40CHL1   C12 4097   3.181   4.807   5.578
   40CHL1  H12A 4098   3.130   4.905   5.578
   40CHL1  H12B 4099   3.106   4.725   5.576
   40CHL1   C11 4100   3.266   4.793   5.703
   40CHL1  H11A 4101   3.323   4.888   5.698
   40CHL1  H11B 4102   3.195   4.814   5.786
   40CHL1    C9 4103   3.365   4.671   5.713
   40CHL1    H9 4104   3.310   4.574   5.717
   40CHL1   C10 4105   3.451   4.678   5.842
   40CHL1   C19 4106   3.519   4.816   5.856
   40CHL1  H19A 4107   3.594   4.826   5.937
   40CHL1  H19B 4108   3.573   4.848   5.765
   40CHL1  H19C 4109   3.444   4.895   5.879
   40CHL1    C1 4110   3.364   4.638   5.956
   40CHL1   H1A 4111   3.294   4.722   5.973
   40CHL1   H1B 4112   3.299   4.549   5.941
   40CHL1    C2 4113   3.435   4.607   6.084
   40CHL1   H2A 4114   3.359   4.586   6.162
   40CHL1   H2B 4115   3.488   4.702   6.107
   40CHL1   C20 4116   3.136   4.875   5.220
   40CHL1   H20 4117   3.217   4.950   5.207
   40CHL1   C21 4118   3.023   4.935   5.317
   40CHL1  H21A 4119   3.072   4.992   5.399
   40CHL1  H21B 4120   2.962   4.855   5.364
   40CHL1  H21C 4121   2.964   5.004   5.253
   40CHL1   C22 4122   3.087   4.822   5.086
   40CHL1  H22A 4123   3.167   4.758   5.044
   40CHL1  H22B 4124   2.997   4.759   5.103
   40CHL1   C23 4125   3.032   4.918   4.986
   40CHL1  H23A 4126   2.930   4.936   5.026
   40CHL1  H23B 4127   3.086   5.014   4.976
   40CHL1   C24 4128   3.011   4.856   4.848
   40CHL1  H24A 4129   3.109   4.827   4.805
   40CHL1  H24B 4130   2.942   4.770   4.859
   40CHL1   C25 4131   2.948   4.943   4.736
   40CHL1   H25 4132   3.013   5.030   4.714
   40CHL1   C26 4133   2.939   4.871   4.600
   40CHL1  H26A 4134   2.857   4.795   4.604
   40CHL1  H26B 4135   2.912   4.938   4.516
   40CHL1  H26C 4136   3.032   4.814   4.580
   40CHL1   C27 4137   2.809   4.998   4.789
   40CHL1  H27A 4138   2.822   5.070   4.872
   40CHL1  H27B 4139   2.766   5.058   4.707
   40CHL1  H27C 4140   2.743   4.912   4.814
   41CHL1    C3 4141   0.261   5.026   5.922
   41CHL1    H3 4142   0.364   5.061   5.942
   41CHL1    O3 4143   0.192   5.001   6.043
   41CHL1   H3' 4144   0.101   5.032   6.038
   41CHL1    C4 4145   0.182   5.129   5.841
   41CHL1   H4A 4146   0.074   5.107   5.834
   41CHL1   H4B 4147   0.194   5.226   5.893
   41CHL1    C5 4148   0.238   5.137   5.696
   41CHL1    C6 4149   0.286   5.255   5.658
   41CHL1    H6 4150   0.271   5.340   5.727
   41CHL1    C7 4151   0.339   5.283   5.517
   41CHL1   H7A 4152   0.294   5.380   5.485
   41CHL1   H7B 4153   0.449   5.303   5.526
   41CHL1    C8 4154   0.298   5.171   5.419
   41CHL1    H8 4155   0.190   5.189   5.404
   41CHL1   C14 4156   0.388   5.188   5.299
   41CHL1   H14 4157   0.486   5.174   5.350
   41CHL1   C15 4158   0.404   5.326   5.229
   41CHL1  H15A 4159   0.310   5.384   5.222
   41CHL1  H15B 4160   0.476   5.394   5.278
   41CHL1   C16 4161   0.452   5.285   5.089
   41CHL1  H16A 4162   0.388   5.288   4.999
   41CHL1  H16B 4163   0.539   5.347   5.059
   41CHL1   C17 4164   0.482   5.132   5.093
   41CHL1   H17 4165   0.581   5.124   5.143
   41CHL1   C13 4166   0.384   5.074   5.199
   41CHL1   C18 4167   0.233   5.066   5.146
   41CHL1  H18A 4168   0.210   5.165   5.101
   41CHL1  H18B 4169   0.208   4.986   5.073
   41CHL1  H18C 4170   0.162   5.054   5.231
   41CHL1   C12 4171   0.435   4.951   5.270
   41CHL1  H12A 4172   0.439   4.862   5.203
   41CHL1  H12B 4173   0.540   4.973   5.300
   41CHL1   C11 4174   0.345   4.918   5.384
   41CHL1  H11A 4175   0.245   4.882   5.349
   41CHL1  H11B 4176   0.382   4.827   5.436
   41CHL1    C9 4177   0.331   5.034   5.485
   41CHL1    H9 4178   0.439   5.047   5.510
   41CHL1   C10 4179   0.252   5.008   5.614
   41CHL1   C19 4180   0.110   4.955   5.579
   41CHL1  H19A 4181   0.056   4.944   5.675
   41CHL1  H19B 4182   0.064   5.029   5.510
   41CHL1  H19C 4183   0.121   4.855   5.530
   41CHL1    C1 4184   0.325   4.904   5.707
   41CHL1   H1A 4185   0.319   4.802   5.665
   41CHL1   H1B 4186   0.431   4.934   5.715
   41CHL1    C2 4187   0.265   4.894   5.845
   41CHL1   H2A 4188   0.306   4.811   5.906
   41CHL1   H2B 4189   0.162   4.858   5.827
   41CHL1   C20 4190   0.502   5.045   4.972
   41CHL1   H20 4191   0.501   4.939   5.007
   41CHL1   C21 4192   0.642   5.068   4.906
   41CHL1  H21A 4193   0.654   4.998   4.821
   41CHL1  H21B 4194   0.717   5.043   4.984
   41CHL1  H21C 4195   0.650   5.172   4.869
   41CHL1   C22 4196   0.392   5.066   4.866
   41CHL1  H22A 4197   0.292   5.087   4.911
   41CHL1  H22B 4198   0.412   5.156   4.804
   41CHL1   C23 4199   0.362   4.947   4.780
   41CHL1  H23A 4200   0.449   4.878   4.785
   41CHL1  H23B 4201   0.278   4.894   4.828
   41CHL1   C24 4202   0.322   4.994   4.642
   41CHL1  H24A 4203   0.230   5.057   4.643
   41CHL1  H24B 4204   0.405   5.056   4.602
   41CHL1   C25 4205   0.293   4.883   4.536
   41CHL1   H25 4206   0.376   4.809   4.533
   41CHL1   C26 4207   0.171   4.803   4.581
   41CHL1  H26A 4208   0.091   4.880   4.582
   41CHL1  H26B 4209   0.154   4.716   4.515
   41CHL1  H26C 4210   0.184   4.755   4.680
   41CHL1   C27 4211   0.290   4.949   4.401
   41CHL1  H27A 4212   0.283   4.872   4.321
   41CHL1  H27B 4213   0.214   5.026   4.375
   41CHL1  H27C 4214   0.383   5.002   4.373
   42CHL1    C3 4215   5.030   4.157   6.236
   42CHL1    H3 4216   4.919   4.150   6.233
   42CHL1    O3 4217   5.073   4.147   6.375
   42CHL1   H3' 4218   5.168   4.159   6.364
   42CHL1    C4 4219   5.092   4.046   6.151
   42CHL1   H4A 4220   5.202   4.051   6.160
   42CHL1   H4B 4221   5.060   3.947   6.191
   42CHL1    C5 4222   5.060   4.063   6.005
   42CHL1    C6 4223   5.013   3.955   5.934
   42CHL1    H6 4224   4.984   3.860   5.981
   42CHL1    C7 4225   4.974   3.966   5.785
   42CHL1   H7A 4226   5.000   3.871   5.734
   42CHL1   H7B 4227   4.863   3.970   5.781
   42CHL1    C8 4228   5.033   4.083   5.715
   42CHL1    H8 4229   5.142   4.067   5.697
   42CHL1   C14 4230   4.969   4.090   5.580
   42CHL1   H14 4231   4.862   4.113   5.597
   42CHL1   C15 4232   4.988   3.972   5.483
   42CHL1  H15A 4233   5.097   3.950   5.490
   42CHL1  H15B 4234   4.924   3.886   5.510
   42CHL1   C16 4235   4.939   4.029   5.349
   42CHL1  H16A 4236   5.015   4.014   5.269
   42CHL1  H16B 4237   4.846   3.970   5.330
   42CHL1   C17 4238   4.909   4.182   5.369
   42CHL1   H17 4239   4.806   4.191   5.410
   42CHL1   C13 4240   4.995   4.222   5.501
   42CHL1   C18 4241   5.147   4.230   5.460
   42CHL1  H18A 4242   5.211   4.176   5.533
   42CHL1  H18B 4243   5.161   4.181   5.362
   42CHL1  H18C 4244   5.181   4.335   5.452
   42CHL1   C12 4245   4.948   4.339   5.586
   42CHL1  H12A 4246   4.972   4.430   5.527
   42CHL1  H12B 4247   4.838   4.333   5.605
   42CHL1   C11 4248   5.025   4.340   5.717
   42CHL1  H11A 4249   5.133   4.336   5.689
   42CHL1  H11B 4250   4.993   4.426   5.780
   42CHL1    C9 4251   5.005   4.206   5.801
   42CHL1    H9 4252   4.895   4.203   5.820
   42CHL1   C10 4253   5.076   4.207   5.942
   42CHL1   C19 4254   5.228   4.242   5.931
   42CHL1  H19A 4255   5.279   4.177   5.857
   42CHL1  H19B 4256   5.234   4.344   5.886
   42CHL1  H19C 4257   5.273   4.239   6.032
   42CHL1    C1 4258   5.022   4.309   6.038
   42CHL1   H1A 4259   5.056   4.410   6.006
   42CHL1   H1B 4260   4.914   4.315   6.014
   42CHL1    C2 4261   5.067   4.290   6.182
   42CHL1   H2A 4262   5.006   4.351   6.251
   42CHL1   H2B 4263   5.172   4.321   6.201
   42CHL1   C20 4264   4.923   4.271   5.243
   42CHL1   H20 4265   5.031   4.285   5.221
   42CHL1   C21 4266   4.862   4.405   5.284
   42CHL1  H21A 4267   4.836   4.458   5.190
   42CHL1  H21B 4268   4.931   4.466   5.347
   42CHL1  H21C 4269   4.779   4.389   5.356
   42CHL1   C22 4270   4.871   4.215   5.112
   42CHL1  H22A 4271   4.878   4.292   5.033
   42CHL1  H22B 4272   4.930   4.124   5.086
   42CHL1   C23 4273   4.721   4.168   5.110
   42CHL1  H23A 4274   4.724   4.070   5.163
   42CHL1  H23B 4275   4.648   4.227   5.169
   42CHL1   C24 4276   4.673   4.133   4.963
   42CHL1  H24A 4277   4.666   4.235   4.920
   42CHL1  H24B 4278   4.757   4.084   4.908
   42CHL1   C25 4279   4.540   4.059   4.960
   42CHL1   H25 4280   4.549   3.968   5.023
   42CHL1   C26 4281   4.422   4.149   5.013
   42CHL1  H26A 4282   4.327   4.092   5.006
   42CHL1  H26B 4283   4.444   4.167   5.120
   42CHL1  H26C 4284   4.411   4.248   4.964
   42CHL1   C27 4285   4.503   4.014   4.816
   42CHL1  H27A 4286   4.512   4.094   4.739
   42CHL1  H27B 4287   4.584   3.941   4.798
   42CHL1  H27C 4288   4.409   3.956   4.805
   43CHL1    C3 4289   6.109   2.265   5.685
   43CHL1    H3 4290   6.009   2.300   5.654
   43CHL1    O3 4291   6.129   2.305   5.819
   43CHL1   H3' 4292   6.214   2.268   5.841
   43CHL1    C4 4293   6.114   2.115   5.675
   43CHL1   H4A 4294   6.215   2.084   5.709
   43CHL1   H4B 4295   6.046   2.077   5.753
   43CHL1    C5 4296   6.092   2.068   5.532
   43CHL1    C6 4297   5.986   1.989   5.499
   43CHL1    H6 4298   5.919   1.947   5.576
   43CHL1    C7 4299   5.973   1.936   5.356
   43CHL1   H7A 4300   5.948   1.828   5.349
   43CHL1   H7B 4301   5.883   1.982   5.310
   43CHL1    C8 4302   6.087   1.973   5.258
   43CHL1    H8 4303   6.169   1.900   5.267
   43CHL1   C14 4304   6.036   1.969   5.117
   43CHL1   H14 4305   5.960   2.050   5.105
   43CHL1   C15 4306   5.954   1.846   5.070
   43CHL1  H15A 4307   6.003   1.756   5.112
   43CHL1  H15B 4308   5.851   1.846   5.111
   43CHL1   C16 4309   5.946   1.858   4.920
   43CHL1  H16A 4310   5.966   1.753   4.887
   43CHL1  H16B 4311   5.848   1.900   4.890
   43CHL1   C17 4312   6.056   1.963   4.877
   43CHL1   H17 4313   6.006   2.062   4.870
   43CHL1   C13 4314   6.146   1.993   5.005
   43CHL1   C18 4315   6.246   1.873   5.012
   43CHL1  H18A 4316   6.187   1.781   4.996
   43CHL1  H18B 4317   6.325   1.882   4.935
   43CHL1  H18C 4318   6.299   1.856   5.108
   43CHL1   C12 4319   6.208   2.129   5.028
   43CHL1  H12A 4320   6.294   2.143   4.960
   43CHL1  H12B 4321   6.134   2.211   5.013
   43CHL1   C11 4322   6.254   2.146   5.172
   43CHL1  H11A 4323   6.343   2.079   5.180
   43CHL1  H11B 4324   6.297   2.245   5.198
   43CHL1    C9 4325   6.149   2.109   5.277
   43CHL1    H9 4326   6.062   2.178   5.271
   43CHL1   C10 4327   6.191   2.128   5.430
   43CHL1   C19 4328   6.322   2.053   5.447
   43CHL1  H19A 4329   6.398   2.093   5.376
   43CHL1  H19B 4330   6.358   2.056   5.552
   43CHL1  H19C 4331   6.308   1.948   5.413
   43CHL1    C1 4332   6.202   2.281   5.453
   43CHL1   H1A 4333   6.285   2.317   5.388
   43CHL1   H1B 4334   6.108   2.326   5.414
   43CHL1    C2 4335   6.224   2.325   5.602
   43CHL1   H2A 4336   6.243   2.432   5.622
   43CHL1   H2B 4337   6.322   2.278   5.627
   43CHL1   C20 4338   6.121   1.924   4.744
   43CHL1   H20 4339   6.179   1.831   4.760
   43CHL1   C21 4340   6.221   2.034   4.703
   43CHL1  H21A 4341   6.301   2.030   4.780
   43CHL1  H21B 4342   6.166   2.130   4.690
   43CHL1  H21C 4343   6.258   2.016   4.599
   43CHL1   C22 4344   6.020   1.899   4.629
   43CHL1  H22A 4345   5.956   1.814   4.660
   43CHL1  H22B 4346   5.950   1.985   4.618
   43CHL1   C23 4347   6.078   1.881   4.488
   43CHL1  H23A 4348   6.117   1.980   4.456
   43CHL1  H23B 4349   6.173   1.823   4.494
   43CHL1   C24 4350   5.977   1.830   4.377
   43CHL1  H24A 4351   5.913   1.741   4.396
   43CHL1  H24B 4352   5.908   1.917   4.369
   43CHL1   C25 4353   6.042   1.797   4.242
   43CHL1   H25 4354   6.123   1.723   4.257
   43CHL1   C26 4355   5.933   1.742   4.149
   43CHL1  H26A 4356   5.856   1.814   4.113
   43CHL1  H26B 4357   5.977   1.689   4.062
   43CHL1  H26C 4358   5.889   1.652   4.198
   43CHL1   C27 4359   6.114   1.918   4.173
   43CHL1  H27A 4360   6.214   1.940   4.217
   43CHL1  H27B 4361   6.134   1.879   4.071
   43CHL1  H27C 4362   6.047   2.006   4.161
   44CHL1    C3 4363   6.387   3.502   5.834
   44CHL1    H3 4364   6.314   3.422   5.810
   44CHL1    O3 4365   6.376   3.521   5.975
   44CHL1   H3' 4366   6.432   3.455   6.017
   44CHL1    C4 4367   6.525   3.466   5.803
   44CHL1   H4A 4368   6.601   3.542   5.830
   44CHL1   H4B 4369   6.559   3.376   5.858
   44CHL1    C5 4370   6.532   3.449   5.652
   44CHL1    C6 4371   6.579   3.335   5.597
   44CHL1    H6 4372   6.618   3.257   5.664
   44CHL1    C7 4373   6.603   3.317   5.450
   44CHL1   H7A 4374   6.683   3.240   5.439
   44CHL1   H7B 4375   6.519   3.256   5.411
   44CHL1    C8 4376   6.620   3.450   5.376
   44CHL1    H8 4377   6.710   3.506   5.411
   44CHL1   C14 4378   6.617   3.424   5.224
   44CHL1   H14 4379   6.520   3.375   5.199
   44CHL1   C15 4380   6.722   3.346   5.161
   44CHL1  H15A 4381   6.816   3.379   5.209
   44CHL1  H15B 4382   6.721   3.237   5.185
   44CHL1   C16 4383   6.723   3.368   5.008
   44CHL1  H16A 4384   6.824   3.400   4.974
   44CHL1  H16B 4385   6.696   3.270   4.964
   44CHL1   C17 4386   6.620   3.488   4.991
   44CHL1   H17 4387   6.521   3.439   4.975
   44CHL1   C13 4388   6.606   3.550   5.131
   44CHL1   C18 4389   6.733   3.640   5.152
   44CHL1  H18A 4390   6.736   3.678   5.257
   44CHL1  H18B 4391   6.830   3.586   5.147
   44CHL1  H18C 4392   6.731   3.736   5.096
   44CHL1   C12 4393   6.474   3.608   5.167
   44CHL1  H12A 4394   6.454   3.691   5.096
   44CHL1  H12B 4395   6.394   3.535   5.141
   44CHL1   C11 4396   6.462   3.647   5.313
   44CHL1  H11A 4397   6.529   3.734   5.329
   44CHL1  H11B 4398   6.360   3.680   5.342
   44CHL1    C9 4399   6.497   3.531   5.418
   44CHL1    H9 4400   6.416   3.458   5.402
   44CHL1   C10 4401   6.495   3.569   5.562
   44CHL1   C19 4402   6.594   3.685   5.580
   44CHL1  H19A 4403   6.562   3.777   5.526
   44CHL1  H19B 4404   6.619   3.694   5.688
   44CHL1  H19C 4405   6.691   3.657   5.534
   44CHL1    C1 4406   6.358   3.621   5.608
   44CHL1   H1A 4407   6.343   3.722   5.566
   44CHL1   H1B 4408   6.282   3.546   5.579
   44CHL1    C2 4409   6.340   3.632   5.763
   44CHL1   H2A 4410   6.236   3.665   5.782
   44CHL1   H2B 4411   6.395   3.719   5.804
   44CHL1   C20 4412   6.647   3.566   4.857
   44CHL1   H20 4413   6.723   3.645   4.878
   44CHL1   C21 4414   6.518   3.647   4.810
   44CHL1  H21A 4415   6.444   3.565   4.802
   44CHL1  H21B 4416   6.533   3.703   4.715
   44CHL1  H21C 4417   6.491   3.719   4.890
   44CHL1   C22 4418   6.703   3.471   4.745
   44CHL1  H22A 4419   6.801   3.427   4.773
   44CHL1  H22B 4420   6.636   3.387   4.716
   44CHL1   C23 4421   6.728   3.550   4.613
   44CHL1  H23A 4422   6.639   3.600   4.569
   44CHL1  H23B 4423   6.793   3.639   4.623
   44CHL1   C24 4424   6.776   3.455   4.502
   44CHL1  H24A 4425   0.016   3.414   4.540
   44CHL1  H24B 4426   6.705   3.374   4.477
   44CHL1   C25 4427   6.828   3.532   4.378
   44CHL1   H25 4428   0.033   3.619   4.409
   44CHL1   C26 4429   0.064   3.442   4.304
   44CHL1  H26A 4430   0.018   3.341   4.301
   44CHL1  H26B 4431   0.077   3.473   4.198
   44CHL1  H26C 4432   0.167   3.442   4.345
   44CHL1   C27 4433   6.707   3.594   4.304
   44CHL1  H27A 4434   6.675   3.688   4.354
   44CHL1  H27B 4435   6.745   3.612   4.201
   44CHL1  H27C 4436   6.634   3.512   4.320
   45CHL1    C3 4437   6.218   4.813   5.791
   45CHL1    H3 4438   6.302   4.884   5.778
   45CHL1    O3 4439   6.171   4.809   5.924
   45CHL1   H3' 4440   6.246   4.769   5.970
   45CHL1    C4 4441   6.107   4.856   5.692
   45CHL1   H4A 4442   6.014   4.803   5.721
   45CHL1   H4B 4443   6.075   4.958   5.723
   45CHL1    C5 4444   6.135   4.838   5.547
   45CHL1    C6 4445   6.111   4.936   5.454
   45CHL1    H6 4446   6.068   5.032   5.485
   45CHL1    C7 4447   6.101   4.918   5.306
   45CHL1   H7A 4448   5.999   4.952   5.277
   45CHL1   H7B 4449   6.167   4.980   5.242
   45CHL1    C8 4450   6.120   4.770   5.263
   45CHL1    H8 4451   6.020   4.723   5.266
   45CHL1   C14 4452   6.172   4.761   5.120
   45CHL1   H14 4453   6.281   4.782   5.109
   45CHL1   C15 4454   6.103   4.853   5.014
   45CHL1  H15A 4455   5.992   4.858   5.020
   45CHL1  H15B 4456   6.140   4.957   5.021
   45CHL1   C16 4457   6.143   4.789   4.875
   45CHL1  H16A 4458   6.046   4.768   4.825
   45CHL1  H16B 4459   6.200   4.856   4.807
   45CHL1   C17 4460   6.212   4.656   4.909
   45CHL1   H17 4461   6.320   4.678   4.922
   45CHL1   C13 4462   6.168   4.623   5.062
   45CHL1   C18 4463   6.019   4.567   5.063
   45CHL1  H18A 4464   5.942   4.636   5.022
   45CHL1  H18B 4465   6.020   4.485   4.987
   45CHL1  H18C 4466   5.975   4.537   5.160
   45CHL1   C12 4467   6.268   4.539   5.140
   45CHL1  H12A 4468   6.254   4.433   5.111
   45CHL1  H12B 4469   6.373   4.569   5.115
   45CHL1   C11 4470   6.245   4.544   5.294
   45CHL1  H11A 4471   6.153   4.484   5.313
   45CHL1  H11B 4472   6.318   4.495   5.361
   45CHL1    C9 4473   6.219   4.686   5.354
   45CHL1    H9 4474   6.319   4.735   5.347
   45CHL1   C10 4475   6.185   4.699   5.502
   45CHL1   C19 4476   6.075   4.598   5.525
   45CHL1  H19A 4477   5.996   4.607   5.448
   45CHL1  H19B 4478   6.113   4.494   5.524
   45CHL1  H19C 4479   6.027   4.609   5.625
   45CHL1    C1 4480   6.311   4.676   5.593
   45CHL1   H1A 4481   6.347   4.576   5.564
   45CHL1   H1B 4482   6.391   4.752   5.580
   45CHL1    C2 4483   6.277   4.680   5.748
   45CHL1   H2A 4484   6.365   4.652   5.809
   45CHL1   H2B 4485   6.202   4.600   5.763
   45CHL1   C20 4486   6.194   4.553   4.803
   45CHL1   H20 4487   6.085   4.539   4.789
   45CHL1   C21 4488   6.262   4.416   4.836
   45CHL1  H21A 4489   6.213   4.370   4.925
   45CHL1  H21B 4490   6.371   4.433   4.849
   45CHL1  H21C 4491   6.243   4.341   4.756
   45CHL1   C22 4492   6.259   4.604   4.667
   45CHL1  H22A 4493   6.200   4.693   4.638
   45CHL1  H22B 4494   6.358   4.653   4.683
   45CHL1   C23 4495   6.255   4.514   4.539
   45CHL1  H23A 4496   6.312   4.567   4.460
   45CHL1  H23B 4497   6.306   4.417   4.556
   45CHL1   C24 4498   6.116   4.483   4.489
   45CHL1  H24A 4499   6.060   4.416   4.558
   45CHL1  H24B 4500   6.066   4.582   4.491
   45CHL1   C25 4501   6.112   4.418   4.351
   45CHL1   H25 4502   6.164   4.485   4.279
   45CHL1   C26 4503   6.186   4.290   4.350
   45CHL1  H26A 4504   6.158   4.232   4.440
   45CHL1  H26B 4505   6.158   4.227   4.263
   45CHL1  H26C 4506   6.295   4.307   4.334
   45CHL1   C27 4507   5.967   4.396   4.294
   45CHL1  H27A 4508   5.896   4.480   4.307
   45CHL1  H27B 4509   5.984   4.368   4.188
   45CHL1  H27C 4510   5.919   4.303   4.330
   46CHL1    C3 4511   1.556   6.074   5.919
   46CHL1    H3 4512   1.525   5.977   5.963
   46CHL1    O3 4513   1.595   6.158   6.020
   46CHL1   H3' 4514   1.633   6.238   5.983
   46CHL1    C4 4515   1.675   6.055   5.821
   46CHL1   H4A 4516   1.710   6.160   5.809
   46CHL1   H4B 4517   1.746   5.997   5.883
   46CHL1    C5 4518   1.641   5.993   5.686
   46CHL1    C6 4519   1.721   5.893   5.628
   46CHL1    H6 4520   1.815   5.863   5.675
   46CHL1    C7 4521   1.699   5.833   5.489
   46CHL1   H7A 4522   1.792   5.849   5.431
   46CHL1   H7B 4523   1.677   5.726   5.505
   46CHL1    C8 4524   1.594   5.904   5.407
   46CHL1    H8 4525   1.629   6.003   5.370
   46CHL1   C14 4526   1.543   5.820   5.288
   46CHL1   H14 4527   1.494   5.728   5.326
   46CHL1   C15 4528   1.654   5.766   5.192
   46CHL1  H15A 4529   1.729   5.848   5.184
   46CHL1  H15B 4530   1.705   5.679   5.237
   46CHL1   C16 4531   1.584   5.736   5.061
   46CHL1  H16A 4532   1.632   5.794   4.980
   46CHL1  H16B 4533   1.581   5.626   5.043
   46CHL1   C17 4534   1.438   5.787   5.084
   46CHL1   H17 4535   1.374   5.703   5.118
   46CHL1   C13 4536   1.441   5.887   5.200
   46CHL1   C18 4537   1.493   6.027   5.142
   46CHL1  H18A 4538   1.597   6.023   5.102
   46CHL1  H18B 4539   1.430   6.070   5.061
   46CHL1  H18C 4540   1.489   6.100   5.226
   46CHL1   C12 4541   1.311   5.903   5.287
   46CHL1  H12A 4542   1.240   5.969   5.233
   46CHL1  H12B 4543   1.268   5.803   5.310
   46CHL1   C11 4544   1.344   5.988   5.416
   46CHL1  H11A 4545   1.353   6.096   5.390
   46CHL1  H11B 4546   1.260   5.978   5.488
   46CHL1    C9 4547   1.470   5.941   5.497
   46CHL1    H9 4548   1.437   5.843   5.536
   46CHL1   C10 4549   1.509   6.038   5.618
   46CHL1   C19 4550   1.547   6.179   5.559
   46CHL1  H19A 4551   1.454   6.228   5.522
   46CHL1  H19B 4552   1.590   6.247   5.636
   46CHL1  H19C 4553   1.615   6.157   5.475
   46CHL1    C1 4554   1.392   6.047   5.729
   46CHL1   H1A 4555   1.298   6.082   5.681
   46CHL1   H1B 4556   1.367   5.945   5.767
   46CHL1    C2 4557   1.431   6.134   5.847
   46CHL1   H2A 4558   1.349   6.139   5.922
   46CHL1   H2B 4559   1.455   6.236   5.810
   46CHL1   C20 4560   1.364   5.824   4.949
   46CHL1   H20 4561   1.308   5.916   4.972
   46CHL1   C21 4562   1.267   5.715   4.895
   46CHL1  H21A 4563   1.224   5.750   4.798
   46CHL1  H21B 4564   1.184   5.697   4.966
   46CHL1  H21C 4565   1.323   5.621   4.878
   46CHL1   C22 4566   1.458   5.881   4.835
   46CHL1  H22A 4567   1.534   5.942   4.889
   46CHL1  H22B 4568   1.510   5.793   4.790
   46CHL1   C23 4569   1.379   5.973   4.735
   46CHL1  H23A 4570   1.298   5.911   4.690
   46CHL1  H23B 4571   1.331   6.059   4.785
   46CHL1   C24 4572   1.454   6.021   4.608
   46CHL1  H24A 4573   1.554   6.055   4.643
   46CHL1  H24B 4574   1.478   5.937   4.541
   46CHL1   C25 4575   1.381   6.136   4.533
   46CHL1   H25 4576   1.348   6.200   4.617
   46CHL1   C26 4577   1.477   6.216   4.446
   46CHL1  H26A 4578   1.523   6.160   4.362
   46CHL1  H26B 4579   1.413   6.301   4.413
   46CHL1  H26C 4580   1.546   6.261   4.520
   46CHL1   C27 4581   1.261   6.083   4.451
   46CHL1  H27A 4582   1.202   6.165   4.405
   46CHL1  H27B 4583   1.296   6.012   4.373
   46CHL1  H27C 4584   1.190   6.026   4.513
   47CHL1    C3 4585   3.754   5.136   6.142
   47CHL1    H3 4586   3.674   5.066   6.111
   47CHL1    O3 4587   3.745   5.163   6.276
   47CHL1   H3' 4588   3.778   5.082   6.315
   47CHL1    C4 4589   3.882   5.065   6.108
   47CHL1   H4A 4590   3.973   5.120   6.140
   47CHL1   H4B 4591   3.884   4.973   6.170
   47CHL1    C5 4592   3.891   5.029   5.960
   47CHL1    C6 4593   3.901   4.905   5.912
   47CHL1    H6 4594   3.913   4.822   5.983
   47CHL1    C7 4595   3.893   4.865   5.771
   47CHL1   H7A 4596   3.966   4.784   5.749
   47CHL1   H7B 4597   3.797   4.814   5.746
   47CHL1    C8 4598   3.905   4.984   5.669
   47CHL1    H8 4599   4.014   5.003   5.657
   47CHL1   C14 4600   3.842   4.941   5.532
   47CHL1   H14 4601   3.735   4.923   5.556
   47CHL1   C15 4602   3.894   4.813   5.458
   47CHL1  H15A 4603   4.003   4.831   5.453
   47CHL1  H15B 4604   3.866   4.718   5.508
   47CHL1   C16 4605   3.839   4.837   5.311
   47CHL1  H16A 4606   3.927   4.834   5.243
   47CHL1  H16B 4607   3.762   4.763   5.280
   47CHL1   C17 4608   3.785   4.982   5.303
   47CHL1   H17 4609   3.676   4.963   5.319
   47CHL1   C13 4610   3.844   5.055   5.429
   47CHL1   C18 4611   3.991   5.100   5.396
   47CHL1  H18A 4612   3.987   5.193   5.336
   47CHL1  H18B 4613   4.047   5.117   5.490
   47CHL1  H18C 4614   4.045   5.029   5.330
   47CHL1   C12 4615   3.764   5.172   5.477
   47CHL1  H12A 4616   3.765   5.262   5.412
   47CHL1  H12B 4617   3.655   5.159   5.495
   47CHL1   C11 4618   3.826   5.223   5.609
   47CHL1  H11A 4619   3.931   5.255   5.596
   47CHL1  H11B 4620   3.766   5.312   5.638
   47CHL1    C9 4621   3.825   5.105   5.716
   47CHL1    H9 4622   3.719   5.073   5.725
   47CHL1   C10 4623   3.865   5.149   5.858
   47CHL1   C19 4624   3.989   5.233   5.870
   47CHL1  H19A 4625   3.999   5.284   5.968
   47CHL1  H19B 4626   4.079   5.177   5.836
   47CHL1  H19C 4627   3.988   5.312   5.792
   47CHL1    C1 4628   3.741   5.236   5.908
   47CHL1   H1A 4629   3.744   5.336   5.860
   47CHL1   H1B 4630   3.645   5.189   5.879
   47CHL1    C2 4631   3.739   5.262   6.060
   47CHL1   H2A 4632   3.642   5.315   6.073
   47CHL1   H2B 4633   3.818   5.332   6.093
   47CHL1   C20 4634   3.802   5.050   5.168
   47CHL1   H20 4635   3.910   5.066   5.147
   47CHL1   C21 4636   3.738   5.186   5.154
   47CHL1  H21A 4637   3.632   5.185   5.187
   47CHL1  H21B 4638   3.749   5.223   5.050
   47CHL1  H21C 4639   3.796   5.266   5.205
   47CHL1   C22 4640   3.744   4.942   5.059
   47CHL1  H22A 4641   3.771   4.992   4.963
   47CHL1  H22B 4642   3.813   4.856   5.068
   47CHL1   C23 4643   3.600   4.911   5.064
   47CHL1  H23A 4644   3.578   4.871   5.165
   47CHL1  H23B 4645   3.545   5.007   5.067
   47CHL1   C24 4646   3.555   4.830   4.940
   47CHL1  H24A 4647   3.643   4.764   4.932
   47CHL1  H24B 4648   3.458   4.782   4.965
   47CHL1   C25 4649   3.560   4.902   4.800
   47CHL1   H25 4650   3.656   4.957   4.791
   47CHL1   C26 4651   3.537   4.812   4.679
   47CHL1  H26A 4652   3.609   4.728   4.674
   47CHL1  H26B 4653   3.432   4.776   4.676
   47CHL1  H26C 4654   3.553   4.877   4.590
   47CHL1   C27 4655   3.447   5.007   4.798
   47CHL1  H27A 4656   3.347   4.958   4.792
   47CHL1  H27B 4657   3.461   5.064   4.893
   47CHL1  H27C 4658   3.459   5.076   4.711
   48CHL1    C3 4659   0.562   6.281   6.346
   48CHL1    H3 4660   0.589   6.175   6.323
   48CHL1    O3 4661   0.615   6.318   6.464
   48CHL1   H3' 4662   0.710   6.311   6.454
   48CHL1    C4 4663   0.600   6.369   6.230
   48CHL1   H4A 4664   0.572   6.473   6.260
   48CHL1   H4B 4665   0.710   6.378   6.228
   48CHL1    C5 4666   0.534   6.315   6.099
   48CHL1    C6 4667   0.607   6.278   5.991
   48CHL1    H6 4668   0.717   6.279   6.000
   48CHL1    C7 4669   0.553   6.247   5.852
   48CHL1   H7A 4670   0.609   6.289   5.766
   48CHL1   H7B 4671   0.550   6.137   5.843
   48CHL1    C8 4672   0.407   6.300   5.845
   48CHL1    H8 4673   0.413   6.411   5.844
   48CHL1   C14 4674   0.342   6.247   5.714
   48CHL1   H14 4675   0.337   6.137   5.723
   48CHL1   C15 4676   0.418   6.282   5.581
   48CHL1  H15A 4677   0.436   6.392   5.579
   48CHL1  H15B 4678   0.513   6.225   5.572
   48CHL1   C16 4679   0.309   6.246   5.474
   48CHL1  H16A 4680   0.306   6.323   5.394
   48CHL1  H16B 4681   0.331   6.152   5.421
   48CHL1   C17 4682   0.171   6.233   5.547
   48CHL1   H17 4683   0.146   6.125   5.556
   48CHL1   C13 4684   0.194   6.289   5.685
   48CHL1   C18 4685   0.184   6.442   5.681
   48CHL1  H18A 4686   0.248   6.490   5.605
   48CHL1  H18B 4687   0.079   6.476   5.668
   48CHL1  H18C 4688   0.214   6.487   5.778
   48CHL1   C12 4689   0.116   6.231   5.807
   48CHL1  H12A 4690   0.007   6.250   5.797
   48CHL1  H12B 4691   0.127   6.121   5.798
   48CHL1   C11 4692   0.164   6.283   5.942
   48CHL1  H11A 4693   0.124   6.385   5.959
   48CHL1  H11B 4694   0.128   6.215   6.021
   48CHL1    C9 4695   0.322   6.265   5.968
   48CHL1    H9 4696   0.331   6.154   5.971
   48CHL1   C10 4697   0.374   6.327   6.105
   48CHL1   C19 4698   0.330   6.476   6.128
   48CHL1  H19A 4699   0.355   6.525   6.031
   48CHL1  H19B 4700   0.219   6.486   6.132
   48CHL1  H19C 4701   0.388   6.519   6.212
   48CHL1    C1 4702   0.332   6.237   6.224
   48CHL1   H1A 4703   0.223   6.250   6.240
   48CHL1   H1B 4704   0.344   6.130   6.196
   48CHL1    C2 4705   0.408   6.270   6.356
   48CHL1   H2A 4706   0.381   6.198   6.436
   48CHL1   H2B 4707   0.367   6.371   6.377
   48CHL1   C20 4708   0.056   6.294   5.459
   48CHL1   H20 4709   0.078   6.400   5.436
   48CHL1   C21 4710   6.770   6.288   5.533
   48CHL1  H21A 4711   6.692   6.343   5.476
   48CHL1  H21B 4712   6.740   6.182   5.542
   48CHL1  H21C 4713   6.773   6.330   5.636
   48CHL1   C22 4714   0.038   6.217   5.324
   48CHL1  H22A 4715   0.136   6.199   5.275
   48CHL1  H22B 4716   0.013   6.114   5.358
   48CHL1   C23 4717   6.789   6.263   5.219
   48CHL1  H23A 4718   6.760   6.189   5.142
   48CHL1  H23B 4719   6.696   6.282   5.277
   48CHL1   C24 4720   6.834   6.390   5.137
   48CHL1  H24A 4721   0.029   6.460   5.205
   48CHL1  H24B 4722   0.063   6.349   5.078
   48CHL1   C25 4723   6.710   6.444   5.057
   48CHL1   H25 4724   6.748   6.505   4.972
   48CHL1   C26 4725   6.631   6.338   4.980
   48CHL1  H26A 4726   6.570   6.271   5.044
   48CHL1  H26B 4727   6.556   6.386   4.913
   48CHL1  H26C 4728   6.698   6.277   4.916
   48CHL1   C27 4729   6.629   6.532   5.151
   48CHL1  H27A 4730   6.591   6.623   5.100
   48CHL1  H27B 4731   6.549   6.470   5.196
   48CHL1  H27C 4732   6.690   6.567   5.237
   49CHL1    C3 4733   3.927   4.705   2.839
   49CHL1    H3 4734   3.882   4.801   2.871
   49CHL1    O3 4735   3.932   4.685   2.705
   49CHL1   H3' 4736   3.968   4.597   2.689
   49CHL1    C4 4737   4.065   4.694   2.894
   49CHL1   H4A 4738   4.113   4.598   2.863
   49CHL1   H4B 4739   4.131   4.772   2.850
   49CHL1    C5 4740   4.078   4.707   3.048
   49CHL1    C6 4741   4.152   4.798   3.113
   49CHL1    H6 4742   4.214   4.863   3.051
   49CHL1    C7 4743   4.165   4.816   3.262
   49CHL1   H7A 4744   4.269   4.825   3.300
   49CHL1   H7B 4745   4.122   4.917   3.283
   49CHL1    C8 4746   4.097   4.708   3.349
   49CHL1    H8 4747   4.166   4.620   3.346
   49CHL1   C14 4748   4.068   4.752   3.492
   49CHL1   H14 4749   3.996   4.836   3.483
   49CHL1   C15 4750   4.184   4.810   3.584
   49CHL1  H15A 4751   4.262   4.731   3.586
   49CHL1  H15B 4752   4.222   4.909   3.550
   49CHL1   C16 4753   4.113   4.812   3.720
   49CHL1  H16A 4754   4.169   4.787   3.812
   49CHL1  H16B 4755   4.084   4.918   3.736
   49CHL1   C17 4756   3.985   4.728   3.712
   49CHL1   H17 4757   3.905   4.804   3.700
   49CHL1   C13 4758   3.999   4.651   3.580
   49CHL1   C18 4759   4.076   4.523   3.603
   49CHL1  H18A 4760   4.171   4.531   3.661
   49CHL1  H18B 4761   4.011   4.453   3.659
   49CHL1  H18C 4762   4.112   4.475   3.509
   49CHL1   C12 4763   3.863   4.610   3.510
   49CHL1  H12A 4764   3.796   4.543   3.568
   49CHL1  H12B 4765   3.807   4.706   3.505
   49CHL1   C11 4766   3.890   4.558   3.366
   49CHL1  H11A 4767   3.941   4.461   3.378
   49CHL1  H11B 4768   3.791   4.538   3.320
   49CHL1    C9 4769   3.968   4.666   3.281
   49CHL1    H9 4770   3.894   4.749   3.285
   49CHL1   C10 4771   3.980   4.619   3.129
   49CHL1   C19 4772   4.035   4.475   3.119
   49CHL1  H19A 4773   3.964   4.400   3.159
   49CHL1  H19B 4774   4.067   4.445   3.017
   49CHL1  H19C 4775   4.130   4.475   3.178
   49CHL1    C1 4776   3.839   4.629   3.052
   49CHL1   H1A 4777   3.781   4.554   3.110
   49CHL1   H1B 4778   3.794   4.729   3.069
   49CHL1    C2 4779   3.838   4.602   2.906
   49CHL1   H2A 4780   3.734   4.594   2.868
   49CHL1   H2B 4781   3.884   4.505   2.877
   49CHL1   C20 4782   3.953   4.656   3.853
   49CHL1   H20 4783   4.044   4.603   3.888
   49CHL1   C21 4784   3.831   4.567   3.842
   49CHL1  H21A 4785   3.820   4.510   3.937
   49CHL1  H21B 4786   3.821   4.483   3.769
   49CHL1  H21C 4787   3.746   4.637   3.828
   49CHL1   C22 4788   3.925   4.768   3.955
   49CHL1  H22A 4789   3.988   4.859   3.955
   49CHL1  H22B 4790   3.823   4.804   3.928
   49CHL1   C23 4791   3.926   4.712   4.095
   49CHL1  H23A 4792   3.857   4.625   4.106
   49CHL1  H23B 4793   4.029   4.680   4.121
   49CHL1   C24 4794   3.873   4.815   4.196
   49CHL1  H24A 4795   3.934   4.907   4.193
   49CHL1  H24B 4796   3.769   4.849   4.177
   49CHL1   C25 4797   3.871   4.768   4.343
   49CHL1   H25 4798   3.821   4.668   4.341
   49CHL1   C26 4799   4.006   4.750   4.403
   49CHL1  H26A 4800   4.062   4.846   4.409
   49CHL1  H26B 4801   4.004   4.707   4.505
   49CHL1  H26C 4802   4.075   4.683   4.349
   49CHL1   C27 4803   3.795   4.859   4.435
   49CHL1  H27A 4804   3.804   4.826   4.541
   49CHL1  H27B 4805   3.842   4.959   4.428
   49CHL1  H27C 4806   3.689   4.851   4.401
   50CHL1    C3 4807   3.989   2.132   2.850
   50CHL1    H3 4808   4.016   2.024   2.852
   50CHL1    O3 4809   4.000   2.189   2.719
   50CHL1   H3' 4810   3.932   2.139   2.674
   50CHL1    C4 4811   3.849   2.144   2.907
   50CHL1   H4A 4812   3.813   2.248   2.894
   50CHL1   H4B 4813   3.776   2.090   2.842
   50CHL1    C5 4814   3.826   2.107   3.054
   50CHL1    C6 4815   3.726   2.018   3.084
   50CHL1    H6 4816   3.657   1.969   3.013
   50CHL1    C7 4817   3.703   1.954   3.225
   50CHL1   H7A 4818   3.596   1.947   3.254
   50CHL1   H7B 4819   3.748   1.853   3.224
   50CHL1    C8 4820   3.781   2.036   3.336
   50CHL1    H8 4821   3.719   2.128   3.340
   50CHL1   C14 4822   3.777   1.975   3.472
   50CHL1   H14 4823   3.832   1.879   3.471
   50CHL1   C15 4824   3.635   1.944   3.535
   50CHL1  H15A 4825   3.553   2.012   3.504
   50CHL1  H15B 4826   3.608   1.840   3.507
   50CHL1   C16 4827   3.652   1.960   3.685
   50CHL1  H16A 4828   3.590   2.049   3.708
   50CHL1  H16B 4829   3.606   1.874   3.738
   50CHL1   C17 4830   3.804   1.973   3.705
   50CHL1   H17 4831   3.836   1.867   3.693
   50CHL1   C13 4832   3.851   2.052   3.581
   50CHL1   C18 4833   3.803   2.200   3.591
   50CHL1  H18A 4834   3.868   2.257   3.661
   50CHL1  H18B 4835   3.810   2.241   3.488
   50CHL1  H18C 4836   3.695   2.203   3.618
   50CHL1   C12 4837   4.000   2.051   3.534
   50CHL1  H12A 4838   4.054   2.110   3.611
   50CHL1  H12B 4839   4.040   1.947   3.533
   50CHL1   C11 4840   4.021   2.112   3.397
   50CHL1  H11A 4841   4.014   2.222   3.409
   50CHL1  H11B 4842   4.127   2.103   3.362
   50CHL1    C9 4843   3.919   2.067   3.286
   50CHL1    H9 4844   3.960   1.968   3.258
   50CHL1   C10 4845   3.927   2.154   3.155
   50CHL1   C19 4846   3.887   2.303   3.191
   50CHL1  H19A 4847   3.782   2.303   3.227
   50CHL1  H19B 4848   3.956   2.352   3.264
   50CHL1  H19C 4849   3.893   2.366   3.100
   50CHL1    C1 4850   4.066   2.142   3.094
   50CHL1   H1A 4851   4.135   2.201   3.158
   50CHL1   H1B 4852   4.108   2.040   3.100
   50CHL1    C2 4853   4.083   2.196   2.950
   50CHL1   H2A 4854   4.188   2.187   2.918
   50CHL1   H2B 4855   4.073   2.306   2.966
   50CHL1   C20 4856   3.848   2.024   3.843
   50CHL1   H20 4857   3.857   2.135   3.845
   50CHL1   C21 4858   3.986   1.965   3.866
   50CHL1  H21A 4859   4.035   2.034   3.937
   50CHL1  H21B 4860   4.047   1.967   3.773
   50CHL1  H21C 4861   3.984   1.854   3.880
   50CHL1   C22 4862   3.752   1.995   3.954
   50CHL1  H22A 4863   3.664   2.063   3.958
   50CHL1  H22B 4864   3.729   1.887   3.964
   50CHL1   C23 4865   3.819   2.039   4.086
   50CHL1  H23A 4866   3.908   1.981   4.118
   50CHL1  H23B 4867   3.854   2.142   4.066
   50CHL1   C24 4868   3.728   2.039   4.207
   50CHL1  H24A 4869   3.640   2.101   4.180
   50CHL1  H24B 4870   3.700   1.933   4.223
   50CHL1   C25 4871   3.802   2.082   4.331
   50CHL1   H25 4872   3.907   2.046   4.335
   50CHL1   C26 4873   3.827   2.239   4.334
   50CHL1  H26A 4874   3.895   2.259   4.419
   50CHL1  H26B 4875   3.874   2.270   4.238
   50CHL1  H26C 4876   3.728   2.287   4.342
   50CHL1   C27 4877   3.736   2.028   4.460
   50CHL1  H27A 4878   3.643   2.087   4.473
   50CHL1  H27B 4879   3.719   1.918   4.461
   50CHL1  H27C 4880   3.800   2.032   4.551
   51CHL1    C3 4881   3.744   3.131   2.695
   51CHL1    H3 4882   3.719   3.024   2.711
   51CHL1    O3 4883   3.730   3.165   2.558
   51CHL1   H3' 4884   3.767   3.253   2.546
   51CHL1    C4 4885   3.647   3.219   2.777
   51CHL1   H4A 4886   3.659   3.324   2.740
   51CHL1   H4B 4887   3.542   3.209   2.740
   51CHL1    C5 4888   3.660   3.217   2.923
   51CHL1    C6 4889   3.561   3.177   2.995
   51CHL1    H6 4890   3.468   3.151   2.942
   51CHL1    C7 4891   3.560   3.182   3.148
   51CHL1   H7A 4892   3.476   3.246   3.183
   51CHL1   H7B 4893   3.541   3.077   3.180
   51CHL1    C8 4894   3.689   3.252   3.206
   51CHL1    H8 4895   3.676   3.362   3.204
   51CHL1   C14 4896   3.705   3.196   3.352
   51CHL1   H14 4897   3.714   3.086   3.338
   51CHL1   C15 4898   3.588   3.196   3.440
   51CHL1  H15A 4899   3.554   3.300   3.460
   51CHL1  H15B 4900   3.502   3.136   3.404
   51CHL1   C16 4901   3.649   3.143   3.576
   51CHL1  H16A 4902   3.603   3.208   3.654
   51CHL1  H16B 4903   3.624   3.037   3.599
   51CHL1   C17 4904   3.801   3.168   3.562
   51CHL1   H17 4905   3.850   3.068   3.556
   51CHL1   C13 4906   3.827   3.240   3.432
   51CHL1   C18 4907   3.815   3.397   3.437
   51CHL1  H18A 4908   3.743   3.423   3.518
   51CHL1  H18B 4909   3.915   3.432   3.472
   51CHL1  H18C 4910   3.782   3.440   3.340
   51CHL1   C12 4911   3.946   3.192   3.345
   51CHL1  H12A 4912   4.039   3.231   3.390
   51CHL1  H12B 4913   3.947   3.080   3.343
   51CHL1   C11 4914   3.938   3.237   3.201
   51CHL1  H11A 4915   3.944   3.348   3.201
   51CHL1  H11B 4916   4.023   3.209   3.134
   51CHL1    C9 4917   3.810   3.199   3.127
   51CHL1    H9 4918   3.801   3.089   3.139
   51CHL1   C10 4919   3.803   3.241   2.976
   51CHL1   C19 4920   3.856   3.389   2.966
   51CHL1  H19A 4921   3.817   3.451   3.048
   51CHL1  H19B 4922   3.967   3.383   2.960
   51CHL1  H19C 4923   3.823   3.426   2.866
   51CHL1    C1 4924   3.894   3.156   2.893
   51CHL1   H1A 4925   4.001   3.171   2.922
   51CHL1   H1B 4926   3.876   3.047   2.908
   51CHL1    C2 4927   3.884   3.165   2.742
   51CHL1   H2A 4928   3.951   3.090   2.696
   51CHL1   H2B 4929   3.919   3.268   2.718
   51CHL1   C20 4930   3.858   3.230   3.687
   51CHL1   H20 4931   3.810   3.328   3.709
   51CHL1   C21 4932   4.013   3.257   3.672
   51CHL1  H21A 4933   4.052   3.322   3.753
   51CHL1  H21B 4934   4.043   3.307   3.577
   51CHL1  H21C 4935   4.075   3.166   3.686
   51CHL1   C22 4936   3.835   3.135   3.807
   51CHL1  H22A 4937   3.725   3.131   3.822
   51CHL1  H22B 4938   3.861   3.029   3.789
   51CHL1   C23 4939   3.902   3.187   3.936
   51CHL1  H23A 4940   4.012   3.190   3.920
   51CHL1  H23B 4941   3.872   3.293   3.952
   51CHL1   C24 4942   3.861   3.114   4.066
   51CHL1  H24A 4943   3.778   3.161   4.123
   51CHL1  H24B 4944   3.821   3.014   4.039
   51CHL1   C25 4945   3.986   3.080   4.150
   51CHL1   H25 4946   4.068   3.053   4.080
   51CHL1   C26 4947   4.035   3.202   4.227
   51CHL1  H26A 4948   3.949   3.223   4.293
   51CHL1  H26B 4949   4.130   3.180   4.280
   51CHL1  H26C 4950   4.057   3.287   4.159
   51CHL1   C27 4951   3.955   2.972   4.255
   51CHL1  H27A 4952   3.878   2.999   4.330
   51CHL1  H27B 4953   3.943   2.872   4.207
   51CHL1  H27C 4954   4.051   2.942   4.302
   52CHL1    C3 4955   3.048   4.821   2.600
   52CHL1    H3 4956   2.941   4.793   2.596
   52CHL1    O3 4957   3.124   4.825   2.477
   52CHL1   H3' 4958   3.216   4.813   2.501
   52CHL1    C4 4959   3.052   4.954   2.681
   52CHL1   H4A 4960   3.159   4.974   2.701
   52CHL1   H4B 4961   3.015   5.036   2.616
   52CHL1    C5 4962   2.977   4.952   2.812
   52CHL1    C6 4963   2.870   5.029   2.832
   52CHL1    H6 4964   2.839   5.096   2.751
   52CHL1    C7 4965   2.801   5.011   2.965
   52CHL1   H7A 4966   2.754   5.109   2.986
   52CHL1   H7B 4967   2.710   4.947   2.958
   52CHL1    C8 4968   2.880   4.949   3.083
   52CHL1    H8 4969   2.967   5.014   3.108
   52CHL1   C14 4970   2.791   4.923   3.206
   52CHL1   H14 4971   2.699   4.874   3.169
   52CHL1   C15 4972   2.730   5.051   3.277
   52CHL1  H15A 4973   2.811   5.127   3.290
   52CHL1  H15B 4974   2.656   5.109   3.218
   52CHL1   C16 4975   2.670   4.997   3.409
   52CHL1  H16A 4976   2.706   5.064   3.490
   52CHL1  H16B 4977   2.561   4.993   3.389
   52CHL1   C17 4978   2.736   4.856   3.427
   52CHL1   H17 4979   2.673   4.774   3.385
   52CHL1   C13 4980   2.851   4.850   3.324
   52CHL1   C18 4981   2.971   4.928   3.388
   52CHL1  H18A 4982   2.937   5.019   3.441
   52CHL1  H18B 4983   3.020   4.859   3.460
   52CHL1  H18C 4984   3.037   4.950   3.302
   52CHL1   C12 4985   2.885   4.715   3.262
   52CHL1  H12A 4986   2.926   4.657   3.347
   52CHL1  H12B 4987   2.790   4.673   3.223
   52CHL1   C11 4988   2.983   4.725   3.143
   52CHL1  H11A 4989   3.078   4.767   3.182
   52CHL1  H11B 4990   3.011   4.625   3.106
   52CHL1    C9 4991   2.936   4.820   3.030
   52CHL1    H9 4992   2.846   4.766   2.994
   52CHL1   C10 4993   3.028   4.839   2.903
   52CHL1   C19 4994   3.168   4.870   2.959
   52CHL1  H19A 4995   3.197   4.777   3.013
   52CHL1  H19B 4996   3.238   4.892   2.875
   52CHL1  H19C 4997   3.171   4.957   3.028
   52CHL1    C1 4998   3.025   4.710   2.822
   52CHL1   H1A 4999   3.084   4.641   2.886
   52CHL1   H1B 5000   2.926   4.671   2.790
   52CHL1    C2 5001   3.106   4.719   2.686
   52CHL1   H2A 5002   3.091   4.619   2.640
   52CHL1   H2B 5003   3.212   4.739   2.712
   52CHL1   C20 5004   2.757   4.830   3.572
   52CHL1   H20 5005   2.825   4.902   3.623
   52CHL1   C21 5006   2.813   4.687   3.574
   52CHL1  H21A 5007   2.789   4.628   3.665
   52CHL1  H21B 5008   2.921   4.679   3.552
   52CHL1  H21C 5009   2.758   4.621   3.503
   52CHL1   C22 5010   2.619   4.838   3.652
   52CHL1  H22A 5011   2.559   4.929   3.632
   52CHL1  H22B 5012   2.549   4.759   3.618
   52CHL1   C23 5013   2.645   4.809   3.798
   52CHL1  H23A 5014   2.692   4.711   3.818
   52CHL1  H23B 5015   2.712   4.886   3.843
   52CHL1   C24 5016   2.515   4.822   3.877
   52CHL1  H24A 5017   2.471   4.921   3.851
   52CHL1  H24B 5018   2.451   4.744   3.829
   52CHL1   C25 5019   2.531   4.808   4.032
   52CHL1   H25 5020   2.584   4.714   4.059
   52CHL1   C26 5021   2.600   4.918   4.093
   52CHL1  H26A 5022   2.564   5.022   4.083
   52CHL1  H26B 5023   2.609   4.901   4.203
   52CHL1  H26C 5024   2.703   4.923   4.051
   52CHL1   C27 5025   2.386   4.792   4.084
   52CHL1  H27A 5026   2.319   4.709   4.053
   52CHL1  H27B 5027   2.395   4.795   4.195
   52CHL1  H27C 5028   2.337   4.888   4.058
   53CHL1    C3 5029   3.029   3.333   2.679
   53CHL1    H3 5030   2.927   3.377   2.685
   53CHL1    O3 5031   3.063   3.331   2.546
   53CHL1   H3' 5032   3.158   3.314   2.550
   53CHL1    C4 5033   3.126   3.431   2.746
   53CHL1   H4A 5034   3.230   3.405   2.717
   53CHL1   H4B 5035   3.107   3.531   2.702
   53CHL1    C5 5036   3.107   3.434   2.895
   53CHL1    C6 5037   3.091   3.555   2.962
   53CHL1    H6 5038   3.096   3.650   2.906
   53CHL1    C7 5039   3.069   3.562   3.109
   53CHL1   H7A 5040   3.140   3.636   3.150
   53CHL1   H7B 5041   2.961   3.573   3.134
   53CHL1    C8 5042   3.111   3.430   3.183
   53CHL1    H8 5043   3.222   3.426   3.183
   53CHL1   C14 5044   3.062   3.439   3.326
   53CHL1   H14 5045   2.952   3.439   3.307
   53CHL1   C15 5046   3.082   3.570   3.416
   53CHL1  H15A 5047   3.186   3.609   3.409
   53CHL1  H15B 5048   3.014   3.646   3.371
   53CHL1   C16 5049   3.038   3.533   3.552
   53CHL1  H16A 5050   3.111   3.553   3.633
   53CHL1  H16B 5051   2.936   3.575   3.566
   53CHL1   C17 5052   3.006   3.372   3.547
   53CHL1   H17 5053   2.898   3.372   3.523
   53CHL1   C13 5054   3.075   3.318   3.419
   53CHL1   C18 5055   3.223   3.299   3.451
   53CHL1  H18A 5056   3.270   3.379   3.512
   53CHL1  H18B 5057   3.232   3.203   3.506
   53CHL1  H18C 5058   3.278   3.291   3.354
   53CHL1   C12 5059   3.009   3.192   3.352
   53CHL1  H12A 5060   3.039   3.096   3.401
   53CHL1  H12B 5061   2.900   3.211   3.355
   53CHL1   C11 5062   3.062   3.182   3.199
   53CHL1  H11A 5063   3.168   3.157   3.220
   53CHL1  H11B 5064   3.018   3.091   3.151
   53CHL1    C9 5065   3.049   3.306   3.116
   53CHL1    H9 5066   2.941   3.329   3.109
   53CHL1   C10 5067   3.104   3.299   2.971
   53CHL1   C19 5068   3.243   3.248   2.982
   53CHL1  H19A 5069   3.248   3.144   3.020
   53CHL1  H19B 5070   3.290   3.241   2.881
   53CHL1  H19C 5071   3.306   3.313   3.046
   53CHL1    C1 5072   3.018   3.201   2.888
   53CHL1   H1A 5073   3.038   3.101   2.931
   53CHL1   H1B 5074   2.914   3.234   2.911
   53CHL1    C2 5075   3.043   3.191   2.736
   53CHL1   H2A 5076   2.979   3.119   2.681
   53CHL1   H2B 5077   3.149   3.159   2.731
   53CHL1   C20 5078   3.037   3.298   3.684
   53CHL1   H20 5079   3.146   3.297   3.706
   53CHL1   C21 5080   3.003   3.147   3.670
   53CHL1  H21A 5081   3.094   3.101   3.626
   53CHL1  H21B 5082   2.914   3.135   3.606
   53CHL1  H21C 5083   2.981   3.100   3.769
   53CHL1   C22 5084   2.956   3.367   3.806
   53CHL1  H22A 5085   2.968   3.477   3.811
   53CHL1  H22B 5086   2.853   3.346   3.770
   53CHL1   C23 5087   2.989   3.307   3.944
   53CHL1  H23A 5088   2.918   3.230   3.979
   53CHL1  H23B 5089   3.090   3.261   3.948
   53CHL1   C24 5090   2.978   3.405   4.056
   53CHL1  H24A 5091   3.020   3.503   4.025
   53CHL1  H24B 5092   2.871   3.432   4.065
   53CHL1   C25 5093   3.028   3.363   4.196
   53CHL1   H25 5094   3.138   3.345   4.190
   53CHL1   C26 5095   3.000   3.478   4.300
   53CHL1  H26A 5096   3.017   3.578   4.254
   53CHL1  H26B 5097   2.895   3.470   4.334
   53CHL1  H26C 5098   3.054   3.464   4.396
   53CHL1   C27 5099   2.954   3.233   4.249
   53CHL1  H27A 5100   3.004   3.204   4.343
   53CHL1  H27B 5101   2.845   3.251   4.267
   53CHL1  H27C 5102   2.971   3.152   4.175
   54CHL1    C3 5103   2.652   3.706   2.696
   54CHL1    H3 5104   2.604   3.807   2.694
   54CHL1    O3 5105   2.708   3.688   2.567
   54CHL1   H3' 5106   2.735   3.597   2.558
   54CHL1    C4 5107   2.769   3.699   2.795
   54CHL1   H4A 5108   2.832   3.609   2.777
   54CHL1   H4B 5109   2.812   3.797   2.767
   54CHL1    C5 5110   2.732   3.707   2.941
   54CHL1    C6 5111   2.787   3.802   3.026
   54CHL1    H6 5112   2.881   3.842   2.985
   54CHL1    C7 5113   2.746   3.812   3.171
   54CHL1   H7A 5114   2.829   3.824   3.244
   54CHL1   H7B 5115   2.679   3.898   3.193
   54CHL1    C8 5116   2.666   3.692   3.224
   54CHL1    H8 5117   2.734   3.603   3.229
   54CHL1   C14 5118   2.593   3.719   3.352
   54CHL1   H14 5119   2.508   3.788   3.334
   54CHL1   C15 5120   2.679   3.792   3.460
   54CHL1  H15A 5121   2.789   3.774   3.454
   54CHL1  H15B 5122   2.668   3.899   3.433
   54CHL1   C16 5123   2.615   3.754   3.588
   54CHL1  H16A 5124   2.688   3.700   3.651
   54CHL1  H16B 5125   2.594   3.836   3.661
   54CHL1   C17 5126   2.481   3.671   3.560
   54CHL1   H17 5127   2.411   3.749   3.521
   54CHL1   C13 5128   2.522   3.600   3.425
   54CHL1   C18 5129   2.625   3.484   3.447
   54CHL1  H18A 5130   2.721   3.520   3.491
   54CHL1  H18B 5131   2.587   3.408   3.519
   54CHL1  H18C 5132   2.636   3.437   3.347
   54CHL1   C12 5133   2.406   3.562   3.325
   54CHL1  H12A 5134   2.331   3.493   3.370
   54CHL1  H12B 5135   2.350   3.657   3.313
   54CHL1   C11 5136   2.465   3.534   3.183
   54CHL1  H11A 5137   2.521   3.439   3.189
   54CHL1  H11B 5138   2.384   3.506   3.113
   54CHL1    C9 5139   2.554   3.645   3.127
   54CHL1    H9 5140   2.491   3.734   3.108
   54CHL1   C10 5141   2.617   3.612   2.979
   54CHL1   C19 5142   2.681   3.463   2.975
   54CHL1  H19A 5143   2.765   3.458   3.048
   54CHL1  H19B 5144   2.596   3.393   2.986
   54CHL1  H19C 5145   2.723   3.443   2.875
   54CHL1    C1 5146   2.508   3.616   2.870
   54CHL1   H1A 5147   2.431   3.543   2.902
   54CHL1   H1B 5148   2.457   3.715   2.872
   54CHL1    C2 5149   2.554   3.597   2.726
   54CHL1   H2A 5150   2.465   3.616   2.662
   54CHL1   H2B 5151   2.604   3.498   2.715
   54CHL1   C20 5152   2.425   3.594   3.679
   54CHL1   H20 5153   2.374   3.503   3.642
   54CHL1   C21 5154   2.322   3.685   3.735
   54CHL1  H21A 5155   2.376   3.780   3.753
   54CHL1  H21B 5156   2.295   3.659   3.840
   54CHL1  H21C 5157   2.235   3.698   3.668
   54CHL1   C22 5158   2.521   3.545   3.787
   54CHL1  H22A 5159   2.616   3.509   3.742
   54CHL1  H22B 5160   2.545   3.629   3.855
   54CHL1   C23 5161   2.461   3.421   3.860
   54CHL1  H23A 5162   2.369   3.456   3.912
   54CHL1  H23B 5163   2.436   3.351   3.778
   54CHL1   C24 5164   2.553   3.369   3.962
   54CHL1  H24A 5165   2.654   3.354   3.919
   54CHL1  H24B 5166   2.555   3.440   4.047
   54CHL1   C25 5167   2.507   3.233   4.021
   54CHL1   H25 5168   2.469   3.166   3.941
   54CHL1   C26 5169   2.615   3.172   4.101
   54CHL1  H26A 5170   2.708   3.143   4.049
   54CHL1  H26B 5171   2.642   3.241   4.184
   54CHL1  H26C 5172   2.573   3.081   4.150
   54CHL1   C27 5173   2.382   3.251   4.111
   54CHL1  H27A 5174   2.295   3.260   4.043
   54CHL1  H27B 5175   2.364   3.157   4.168
   54CHL1  H27C 5176   2.391   3.333   4.185
   55CHL1    C3 5177   3.679   6.542   2.730
   55CHL1    H3 5178   3.610   6.614   2.778
   55CHL1    O3 5179   3.656   6.538   2.594
   55CHL1   H3' 5180   3.675   6.628   2.566
   55CHL1    C4 5181   3.821   6.593   2.755
   55CHL1   H4A 5182   3.878   6.516   2.697
   55CHL1   H4B 5183   3.837   6.694   2.712
   55CHL1    C5 5184   3.860   6.581   2.901
   55CHL1    C6 5185   3.897   6.697   2.958
   55CHL1    H6 5186   3.907   6.790   2.900
   55CHL1    C7 5187   3.944   6.697   3.104
   55CHL1   H7A 5188   4.033   6.763   3.104
   55CHL1   H7B 5189   3.867   6.754   3.161
   55CHL1    C8 5190   3.964   6.557   3.163
   55CHL1    H8 5191   4.065   6.526   3.129
   55CHL1   C14 5192   3.967   6.563   3.315
   55CHL1   H14 5193   3.866   6.595   3.347
   55CHL1   C15 5194   4.052   6.671   3.380
   55CHL1  H15A 5195   4.154   6.676   3.336
   55CHL1  H15B 5196   3.992   6.763   3.362
   55CHL1   C16 5197   4.055   6.634   3.530
   55CHL1  H16A 5198   4.156   6.634   3.575
   55CHL1  H16B 5199   3.993   6.704   3.591
   55CHL1   C17 5200   3.990   6.495   3.541
   55CHL1   H17 5201   3.889   6.520   3.579
   55CHL1   C13 5202   3.982   6.436   3.395
   55CHL1   C18 5203   4.120   6.385   3.355
   55CHL1  H18A 5204   4.201   6.455   3.382
   55CHL1  H18B 5205   4.127   6.289   3.411
   55CHL1  H18C 5206   4.117   6.362   3.246
   55CHL1   C12 5207   3.873   6.340   3.354
   55CHL1  H12A 5208   3.882   6.239   3.398
   55CHL1  H12B 5209   3.772   6.369   3.390
   55CHL1   C11 5210   3.860   6.324   3.201
   55CHL1  H11A 5211   3.947   6.263   3.168
   55CHL1  H11B 5212   3.772   6.262   3.173
   55CHL1    C9 5213   3.846   6.458   3.121
   55CHL1    H9 5214   3.753   6.504   3.160
   55CHL1   C10 5215   3.831   6.445   2.973
   55CHL1   C19 5216   3.935   6.351   2.919
   55CHL1  H19A 5217   3.949   6.356   2.809
   55CHL1  H19B 5218   4.038   6.371   2.956
   55CHL1  H19C 5219   3.921   6.242   2.939
   55CHL1    C1 5220   3.695   6.394   2.932
   55CHL1   H1A 5221   3.681   6.292   2.974
   55CHL1   H1B 5222   3.622   6.460   2.984
   55CHL1    C2 5223   3.667   6.396   2.781
   55CHL1   H2A 5224   3.574   6.344   2.751
   55CHL1   H2B 5225   3.742   6.333   2.729
   55CHL1   C20 5226   4.051   6.401   3.654
   55CHL1   H20 5227   4.160   6.400   3.637
   55CHL1   C21 5228   3.998   6.260   3.655
   55CHL1  H21A 5229   3.887   6.256   3.657
   55CHL1  H21B 5230   4.035   6.209   3.747
   55CHL1  H21C 5231   4.027   6.195   3.570
   55CHL1   C22 5232   4.031   6.472   3.790
   55CHL1  H22A 5233   4.055   6.579   3.774
   55CHL1  H22B 5234   3.921   6.468   3.808
   55CHL1   C23 5235   4.121   6.414   3.902
   55CHL1  H23A 5236   4.074   6.319   3.937
   55CHL1  H23B 5237   4.218   6.377   3.863
   55CHL1   C24 5238   4.144   6.504   4.019
   55CHL1  H24A 5239   4.057   6.571   4.039
   55CHL1  H24B 5240   4.149   6.436   4.107
   55CHL1   C25 5241   4.261   6.593   4.021
   55CHL1   H25 5242   4.264   6.669   3.940
   55CHL1   C26 5243   4.247   6.688   4.142
   55CHL1  H26A 5244   4.152   6.745   4.146
   55CHL1  H26B 5245   4.244   6.620   4.230
   55CHL1  H26C 5246   4.328   6.762   4.157
   55CHL1   C27 5247   4.396   6.527   4.025
   55CHL1  H27A 5248   4.401   6.452   4.107
   55CHL1  H27B 5249   4.424   6.478   3.929
   55CHL1  H27C 5250   4.472   6.604   4.050
   56CHL1    C3 5251   5.517   2.198   2.829
   56CHL1    H3 5252   5.464   2.105   2.860
   56CHL1    O3 5253   5.504   2.223   2.686
   56CHL1   H3' 5254   5.548   2.305   2.664
   56CHL1    C4 5255   5.454   2.321   2.906
   56CHL1   H4A 5256   5.527   2.403   2.889
   56CHL1   H4B 5257   5.353   2.357   2.879
   56CHL1    C5 5258   5.465   2.290   3.057
   56CHL1    C6 5259   5.358   2.295   3.141
   56CHL1    H6 5260   5.261   2.330   3.103
   56CHL1    C7 5261   5.359   2.261   3.289
   56CHL1   H7A 5262   5.299   2.331   3.352
   56CHL1   H7B 5263   5.315   2.160   3.302
   56CHL1    C8 5264   5.501   2.255   3.344
   56CHL1    H8 5265   5.538   2.360   3.352
   56CHL1   C14 5266   5.498   2.173   3.474
   56CHL1   H14 5267   5.477   2.071   3.435
   56CHL1   C15 5268   5.392   2.214   3.583
   56CHL1  H15A 5269   5.387   2.324   3.600
   56CHL1  H15B 5270   5.294   2.168   3.559
   56CHL1   C16 5271   5.454   2.151   3.711
   56CHL1  H16A 5272   5.456   2.238   3.781
   56CHL1  H16B 5273   5.395   2.065   3.747
   56CHL1   C17 5274   5.601   2.104   3.679
   56CHL1   H17 5275   5.596   1.996   3.651
   56CHL1   C13 5276   5.638   2.182   3.551
   56CHL1   C18 5277   5.677   2.330   3.589
   56CHL1  H18A 5278   5.686   2.392   3.497
   56CHL1  H18B 5279   5.613   2.380   3.665
   56CHL1  H18C 5280   5.772   2.335   3.648
   56CHL1   C12 5281   5.739   2.111   3.459
   56CHL1  H12A 5282   5.842   2.099   3.499
   56CHL1  H12B 5283   5.708   2.005   3.443
   56CHL1   C11 5284   5.737   2.185   3.326
   56CHL1  H11A 5285   5.778   2.287   3.343
   56CHL1  H11B 5286   5.804   2.125   3.261
   56CHL1    C9 5287   5.602   2.193   3.250
   56CHL1    H9 5288   5.567   2.088   3.245
   56CHL1   C10 5289   5.608   2.253   3.107
   56CHL1   C19 5290   5.709   2.374   3.112
   56CHL1  H19A 5291   5.721   2.424   3.013
   56CHL1  H19B 5292   5.680   2.444   3.193
   56CHL1  H19C 5293   5.803   2.321   3.139
   56CHL1    C1 5294   5.669   2.140   3.018
   56CHL1   H1A 5295   5.773   2.112   3.046
   56CHL1   H1B 5296   5.603   2.051   3.025
   56CHL1    C2 5297   5.662   2.174   2.866
   56CHL1   H2A 5298   5.700   2.085   2.810
   56CHL1   H2B 5299   5.730   2.259   2.845
   56CHL1   C20 5300   5.688   2.110   3.805
   56CHL1   H20 5301   5.695   2.215   3.840
   56CHL1   C21 5302   5.834   2.062   3.771
   56CHL1  H21A 5303   5.890   2.145   3.723
   56CHL1  H21B 5304   5.830   1.969   3.711
   56CHL1  H21C 5305   5.889   2.043   3.866
   56CHL1   C22 5306   5.639   2.034   3.924
   56CHL1  H22A 5307   5.689   2.061   4.020
   56CHL1  H22B 5308   5.532   2.063   3.938
   56CHL1   C23 5309   5.633   1.878   3.918
   56CHL1  H23A 5310   5.579   1.843   3.828
   56CHL1  H23B 5311   5.736   1.840   3.896
   56CHL1   C24 5312   5.570   1.814   4.044
   56CHL1  H24A 5313   5.589   1.705   4.033
   56CHL1  H24B 5314   5.622   1.857   4.133
   56CHL1   C25 5315   5.419   1.804   4.061
   56CHL1   H25 5316   5.394   1.912   4.066
   56CHL1   C26 5317   5.348   1.740   3.942
   56CHL1  H26A 5318   5.365   1.813   3.860
   56CHL1  H26B 5319   5.395   1.644   3.911
   56CHL1  H26C 5320   5.237   1.743   3.953
   56CHL1   C27 5321   5.386   1.736   4.196
   56CHL1  H27A 5322   5.278   1.747   4.217
   56CHL1  H27B 5323   5.400   1.629   4.174
   56CHL1  H27C 5324   5.452   1.753   4.284
   57CHL1    C3 5325   4.085   0.349   3.020
   57CHL1    H3 5326   4.181   0.384   3.064
   57CHL1    O3 5327   4.085   0.347   2.880
   57CHL1   H3' 5328   4.002   0.302   2.864
   57CHL1    C4 5329   4.062   0.204   3.067
   57CHL1   H4A 5330   3.962   0.161   3.043
   57CHL1   H4B 5331   4.132   0.144   3.005
   57CHL1    C5 5332   4.088   0.202   3.212
   57CHL1    C6 5333   4.194   0.134   3.268
   57CHL1    H6 5334   4.258   0.078   3.199
   57CHL1    C7 5335   4.223   0.141   3.415
   57CHL1   H7A 5336   4.278   0.052   3.453
   57CHL1   H7B 5337   4.292   0.227   3.429
   57CHL1    C8 5338   4.092   0.174   3.504
   57CHL1    H8 5339   4.018   0.091   3.503
   57CHL1   C14 5340   4.131   0.208   3.645
   57CHL1   H14 5341   4.181   0.307   3.647
   57CHL1   C15 5342   4.229   0.111   3.714
   57CHL1  H15A 5343   4.204   0.006   3.686
   57CHL1  H15B 5344   4.335   0.137   3.692
   57CHL1   C16 5345   4.206   0.131   3.866
   57CHL1  H16A 5346   4.177   0.031   3.904
   57CHL1  H16B 5347   4.299   0.168   3.913
   57CHL1   C17 5348   4.085   0.228   3.874
   57CHL1   H17 5349   4.127   0.331   3.874
   57CHL1   C13 5350   4.012   0.227   3.734
   57CHL1   C18 5351   3.916   0.103   3.734
   57CHL1  H18A 5352   3.975   0.010   3.749
   57CHL1  H18B 5353   3.848   0.121   3.820
   57CHL1  H18C 5354   3.862   0.094   3.637
   57CHL1   C12 5355   3.943   0.353   3.681
   57CHL1  H12A 5356   3.848   0.352   3.739
   57CHL1  H12B 5357   4.003   0.442   3.708
   57CHL1   C11 5358   3.910   0.348   3.532
   57CHL1  H11A 5359   3.820   0.283   3.524
   57CHL1  H11B 5360   3.872   0.447   3.499
   57CHL1    C9 5361   4.026   0.292   3.443
   57CHL1    H9 5362   4.097   0.376   3.427
   57CHL1   C10 5363   3.975   0.275   3.291
   57CHL1   C19 5364   3.835   0.210   3.278
   57CHL1  H19A 5365   3.809   0.223   3.171
   57CHL1  H19B 5366   3.845   0.103   3.306
   57CHL1  H19C 5367   3.751   0.258   3.332
   57CHL1    C1 5368   3.979   0.426   3.225
   57CHL1   H1A 5369   3.899   0.493   3.265
   57CHL1   H1B 5370   4.081   0.467   3.239
   57CHL1    C2 5371   3.969   0.432   3.069
   57CHL1   H2A 5372   3.978   0.540   3.044
   57CHL1   H2B 5373   3.867   0.404   3.034
   57CHL1   C20 5374   4.009   0.219   4.008
   57CHL1   H20 5375   3.939   0.133   4.002
   57CHL1   C21 5376   3.926   0.343   4.025
   57CHL1  H21A 5377   3.990   0.435   4.021
   57CHL1  H21B 5378   3.885   0.349   4.128
   57CHL1  H21C 5379   3.844   0.335   3.951
   57CHL1   C22 5380   4.085   0.188   4.139
   57CHL1  H22A 5381   4.012   0.173   4.222
   57CHL1  H22B 5382   4.136   0.092   4.119
   57CHL1   C23 5383   4.190   0.302   4.164
   57CHL1  H23A 5384   4.270   0.288   4.089
   57CHL1  H23B 5385   4.152   0.404   4.142
   57CHL1   C24 5386   4.252   0.309   4.305
   57CHL1  H24A 5387   4.348   0.362   4.288
   57CHL1  H24B 5388   4.189   0.371   4.371
   57CHL1   C25 5389   4.285   0.169   4.367
   57CHL1   H25 5390   4.218   0.088   4.332
   57CHL1   C26 5391   4.425   0.121   4.336
   57CHL1  H26A 5392   4.438   0.139   4.227
   57CHL1  H26B 5393   4.497   0.195   4.377
   57CHL1  H26C 5394   4.455   0.020   4.371
   57CHL1   C27 5395   4.271   0.166   4.523
   57CHL1  H27A 5396   4.284   0.062   4.560
   57CHL1  H27B 5397   4.340   0.240   4.569
   57CHL1  H27C 5398   4.173   0.206   4.554
   58CHL1    C3 5399   4.027   0.974   2.877
   58CHL1    H3 5400   4.107   0.898   2.865
   58CHL1    O3 5401   3.952   0.988   2.752
   58CHL1   H3' 5402   3.884   1.055   2.766
   58CHL1    C4 5403   3.918   0.927   2.973
   58CHL1   H4A 5404   3.830   0.992   2.964
   58CHL1   H4B 5405   3.889   0.824   2.941
   58CHL1    C5 5406   3.961   0.918   3.121
   58CHL1    C6 5407   3.942   0.806   3.190
   58CHL1    H6 5408   3.897   0.719   3.139
   58CHL1    C7 5409   3.960   0.797   3.336
   58CHL1   H7A 5410   3.871   0.741   3.372
   58CHL1   H7B 5411   4.051   0.740   3.363
   58CHL1    C8 5412   3.969   0.935   3.401
   58CHL1    H8 5413   3.870   0.985   3.397
   58CHL1   C14 5414   4.021   0.923   3.546
   58CHL1   H14 5415   4.117   0.867   3.540
   58CHL1   C15 5416   3.941   0.840   3.645
   58CHL1  H15A 5417   3.833   0.864   3.635
   58CHL1  H15B 5418   3.959   0.731   3.638
   58CHL1   C16 5419   4.001   0.887   3.784
   58CHL1  H16A 5420   3.913   0.900   3.849
   58CHL1  H16B 5421   4.075   0.811   3.819
   58CHL1   C17 5422   4.087   1.015   3.763
   58CHL1   H17 5423   4.192   0.979   3.755
   58CHL1   C13 5424   4.048   1.059   3.620
   58CHL1   C18 5425   3.914   1.142   3.633
   58CHL1  H18A 5426   3.943   1.239   3.681
   58CHL1  H18B 5427   3.862   1.155   3.536
   58CHL1  H18C 5428   3.838   1.094   3.697
   58CHL1   C12 5429   4.159   1.130   3.543
   58CHL1  H12A 5430   4.189   1.229   3.584
   58CHL1  H12B 5431   4.255   1.076   3.562
   58CHL1   C11 5432   4.127   1.152   3.394
   58CHL1  H11A 5433   4.049   1.232   3.394
   58CHL1  H11B 5434   4.211   1.190   3.332
   58CHL1    C9 5435   4.067   1.023   3.321
   58CHL1    H9 5436   4.162   0.968   3.305
   58CHL1   C10 5437   4.016   1.046   3.173
   58CHL1   C19 5438   3.901   1.155   3.178
   58CHL1  H19A 5439   3.811   1.118   3.231
   58CHL1  H19B 5440   3.930   1.245   3.237
   58CHL1  H19C 5441   3.878   1.187   3.074
   58CHL1    C1 5442   4.129   1.104   3.083
   58CHL1   H1A 5443   4.139   1.209   3.115
   58CHL1   H1B 5444   4.220   1.044   3.108
   58CHL1    C2 5445   4.103   1.103   2.925
   58CHL1   H2A 5446   4.194   1.115   2.862
   58CHL1   H2B 5447   4.022   1.179   2.910
   58CHL1   C20 5448   4.076   1.113   3.893
   58CHL1   H20 5449   3.969   1.143   3.904
   58CHL1   C21 5450   4.164   1.242   3.857
   58CHL1  H21A 5451   4.154   1.323   3.933
   58CHL1  H21B 5452   4.120   1.271   3.760
   58CHL1  H21C 5453   4.271   1.227   3.831
   58CHL1   C22 5454   4.123   1.051   4.023
   58CHL1  H22A 5455   4.057   0.965   4.046
   58CHL1  H22B 5456   4.226   1.011   4.008
   58CHL1   C23 5457   4.128   1.142   4.146
   58CHL1  H23A 5458   4.191   1.230   4.120
   58CHL1  H23B 5459   4.027   1.177   4.177
   58CHL1   C24 5460   4.199   1.069   4.259
   58CHL1  H24A 5461   4.163   0.964   4.263
   58CHL1  H24B 5462   4.308   1.066   4.239
   58CHL1   C25 5463   4.179   1.135   4.394
   58CHL1   H25 5464   4.074   1.141   4.430
   58CHL1   C26 5465   4.251   1.048   4.506
   58CHL1  H26A 5466   4.219   1.095   4.601
   58CHL1  H26B 5467   4.213   0.944   4.517
   58CHL1  H26C 5468   4.361   1.058   4.502
   58CHL1   C27 5469   4.229   1.284   4.398
   58CHL1  H27A 5470   4.200   1.339   4.306
   58CHL1  H27B 5471   4.186   1.322   4.493
   58CHL1  H27C 5472   4.340   1.295   4.402
   59CHL1    C3 5473   2.155   5.199   2.781
   59CHL1    H3 5474   2.050   5.232   2.793
   59CHL1    O3 5475   2.182   5.171   2.639
   59CHL1   H3' 5476   2.161   5.250   2.589
   59CHL1    C4 5477   2.255   5.305   2.822
   59CHL1   H4A 5478   2.363   5.285   2.802
   59CHL1   H4B 5479   2.228   5.395   2.762
   59CHL1    C5 5480   2.239   5.330   2.976
   59CHL1    C6 5481   2.219   5.456   3.024
   59CHL1    H6 5482   2.217   5.543   2.956
   59CHL1    C7 5483   2.217   5.486   3.165
   59CHL1   H7A 5484   2.282   5.574   3.187
   59CHL1   H7B 5485   2.110   5.512   3.183
   59CHL1    C8 5486   2.255   5.368   3.256
   59CHL1    H8 5487   2.364   5.347   3.244
   59CHL1   C14 5488   2.221   5.388   3.402
   59CHL1   H14 5489   2.111   5.397   3.403
   59CHL1   C15 5490   2.271   5.518   3.477
   59CHL1  H15A 5491   2.378   5.535   3.452
   59CHL1  H15B 5492   2.220   5.608   3.437
   59CHL1   C16 5493   2.254   5.484   3.626
   59CHL1  H16A 5494   2.353   5.504   3.671
   59CHL1  H16B 5495   2.173   5.545   3.672
   59CHL1   C17 5496   2.214   5.333   3.635
   59CHL1   H17 5497   2.103   5.324   3.636
   59CHL1   C13 5498   2.260   5.271   3.500
   59CHL1   C18 5499   2.419   5.253   3.505
   59CHL1  H18A 5500   2.446   5.236   3.399
   59CHL1  H18B 5501   2.482   5.338   3.541
   59CHL1  H18C 5502   2.458   5.162   3.556
   59CHL1   C12 5503   2.188   5.145   3.449
   59CHL1  H12A 5504   2.214   5.069   3.525
   59CHL1  H12B 5505   2.079   5.167   3.453
   59CHL1   C11 5506   2.224   5.110   3.302
   59CHL1  H11A 5507   2.328   5.073   3.294
   59CHL1  H11B 5508   2.156   5.028   3.272
   59CHL1    C9 5509   2.201   5.233   3.209
   59CHL1    H9 5510   2.091   5.240   3.194
   59CHL1   C10 5511   2.248   5.206   3.063
   59CHL1   C19 5512   2.398   5.157   3.049
   59CHL1  H19A 5513   2.413   5.069   3.114
   59CHL1  H19B 5514   2.436   5.129   2.948
   59CHL1  H19C 5515   2.473   5.229   3.088
   59CHL1    C1 5516   2.160   5.088   3.008
   59CHL1   H1A 5517   2.204   4.995   3.050
   59CHL1   H1B 5518   2.054   5.097   3.041
   59CHL1    C2 5519   2.178   5.065   2.854
   59CHL1   H2A 5520   2.104   4.987   2.826
   59CHL1   H2B 5521   2.282   5.033   2.835
   59CHL1   C20 5522   2.257   5.279   3.773
   59CHL1   H20 5523   2.366   5.283   3.791
   59CHL1   C21 5524   2.228   5.134   3.784
   59CHL1  H21A 5525   2.299   5.069   3.729
   59CHL1  H21B 5526   2.134   5.106   3.732
   59CHL1  H21C 5527   2.224   5.107   3.892
   59CHL1   C22 5528   2.191   5.353   3.898
   59CHL1  H22A 5529   2.249   5.330   3.990
   59CHL1  H22B 5530   2.209   5.461   3.882
   59CHL1   C23 5531   2.038   5.331   3.919
   59CHL1  H23A 5532   1.986   5.341   3.821
   59CHL1  H23B 5533   2.016   5.224   3.943
   59CHL1   C24 5534   1.972   5.429   4.024
   59CHL1  H24A 5535   2.033   5.437   4.116
   59CHL1  H24B 5536   1.980   5.532   3.984
   59CHL1   C25 5537   1.823   5.401   4.070
   59CHL1   H25 5538   1.824   5.297   4.110
   59CHL1   C26 5539   1.774   5.507   4.168
   59CHL1  H26A 5540   1.850   5.525   4.247
   59CHL1  H26B 5541   1.757   5.603   4.114
   59CHL1  H26C 5542   1.677   5.473   4.210
   59CHL1   C27 5543   1.733   5.390   3.946
   59CHL1  H27A 5544   1.757   5.296   3.891
   59CHL1  H27B 5545   1.630   5.388   3.989
   59CHL1  H27C 5546   1.755   5.478   3.881
   60CHL1    C3 5547   5.236   6.113   3.050
   60CHL1    H3 5548   5.156   6.049   3.093
   60CHL1    O3 5549   5.251   6.101   2.907
   60CHL1   H3' 5550   5.326   6.155   2.882
   60CHL1    C4 5551   5.220   6.261   3.096
   60CHL1   H4A 5552   5.308   6.323   3.068
   60CHL1   H4B 5553   5.123   6.296   3.056
   60CHL1    C5 5554   5.205   6.281   3.249
   60CHL1    C6 5555   5.107   6.362   3.297
   60CHL1    H6 5556   5.037   6.419   3.234
   60CHL1    C7 5557   5.099   6.406   3.440
   60CHL1   H7A 5558   5.107   6.515   3.460
   60CHL1   H7B 5559   5.001   6.370   3.476
   60CHL1    C8 5560   5.207   6.343   3.536
   60CHL1    H8 5561   5.285   6.422   3.528
   60CHL1   C14 5562   5.153   6.321   3.674
   60CHL1   H14 5563   5.075   6.242   3.668
   60CHL1   C15 5564   5.088   6.439   3.746
   60CHL1  H15A 5565   5.137   6.537   3.732
   60CHL1  H15B 5566   4.982   6.436   3.712
   60CHL1   C16 5567   5.092   6.404   3.897
   60CHL1  H16A 5568   5.137   6.483   3.961
   60CHL1  H16B 5569   4.988   6.398   3.935
   60CHL1   C17 5570   5.171   6.269   3.902
   60CHL1   H17 5571   5.084   6.202   3.882
   60CHL1   C13 5572   5.253   6.273   3.777
   60CHL1   C18 5573   5.363   6.367   3.800
   60CHL1  H18A 5574   5.419   6.391   3.708
   60CHL1  H18B 5575   5.336   6.463   3.849
   60CHL1  H18C 5576   5.438   6.315   3.864
   60CHL1   C12 5577   5.310   6.137   3.731
   60CHL1  H12A 5578   5.396   6.100   3.791
   60CHL1  H12B 5579   5.228   6.062   3.733
   60CHL1   C11 5580   5.366   6.148   3.585
   60CHL1  H11A 5581   5.449   6.221   3.584
   60CHL1  H11B 5582   5.400   6.048   3.549
   60CHL1    C9 5583   5.266   6.206   3.481
   60CHL1    H9 5584   5.176   6.140   3.477
   60CHL1   C10 5585   5.313   6.210   3.332
   60CHL1   C19 5586   5.439   6.294   3.320
   60CHL1  H19A 5587   5.467   6.297   3.213
   60CHL1  H19B 5588   5.425   6.399   3.354
   60CHL1  H19C 5589   5.524   6.248   3.376
   60CHL1    C1 5590   5.340   6.064   3.282
   60CHL1   H1A 5591   5.419   6.010   3.338
   60CHL1   H1B 5592   5.246   6.010   3.308
   60CHL1    C2 5593   5.363   6.057   3.125
   60CHL1   H2A 5594   5.381   5.949   3.107
   60CHL1   H2B 5595   5.449   6.118   3.091
   60CHL1   C20 5596   5.233   6.220   4.027
   60CHL1   H20 5597   5.321   6.160   3.996
   60CHL1   C21 5598   5.133   6.123   4.098
   60CHL1  H21A 5599   5.181   6.087   4.192
   60CHL1  H21B 5600   5.108   6.037   4.033
   60CHL1  H21C 5601   5.044   6.180   4.132
   60CHL1   C22 5602   5.280   6.316   4.124
   60CHL1  H22A 5603   5.320   6.410   4.081
   60CHL1  H22B 5604   5.205   6.362   4.192
   60CHL1   C23 5605   5.390   6.269   4.222
   60CHL1  H23A 5606   5.354   6.213   4.311
   60CHL1  H23B 5607   5.465   6.218   4.158
   60CHL1   C24 5608   5.473   6.382   4.281
   60CHL1  H24A 5609   5.517   6.448   4.204
   60CHL1  H24B 5610   5.433   6.450   4.360
   60CHL1   C25 5611   5.598   6.323   4.360
   60CHL1   H25 5612   5.663   6.256   4.300
   60CHL1   C26 5613   5.688   6.453   4.390
   60CHL1  H26A 5614   5.728   6.488   4.293
   60CHL1  H26B 5615   5.640   6.537   4.445
   60CHL1  H26C 5616   5.767   6.422   4.462
   60CHL1   C27 5617   5.571   6.242   4.488
   60CHL1  H27A 5618   5.675   6.212   4.513
   60CHL1  H27B 5619   5.515   6.290   4.571
   60CHL1  H27C 5620   5.529   6.140   4.471
   61CHL1    C3 5621   5.061   2.872   2.825
   61CHL1    H3 5622   5.143   2.948   2.823
   61CHL1    O3 5623   5.006   2.880   2.693
   61CHL1   H3' 5624   5.077   2.853   2.634
   61CHL1    C4 5625   5.100   2.730   2.861
   61CHL1   H4A 5626   5.001   2.681   2.852
   61CHL1   H4B 5627   5.150   2.679   2.777
   61CHL1    C5 5628   5.165   2.724   2.996
   61CHL1    C6 5629   5.286   2.669   3.010
   61CHL1    H6 5630   5.346   2.634   2.925
   61CHL1    C7 5631   5.354   2.656   3.146
   61CHL1   H7A 5632   5.401   2.555   3.142
   61CHL1   H7B 5633   5.448   2.715   3.146
   61CHL1    C8 5634   5.264   2.685   3.269
   61CHL1    H8 5635   5.197   2.596   3.280
   61CHL1   C14 5636   5.345   2.719   3.394
   61CHL1   H14 5637   5.407   2.811   3.381
   61CHL1   C15 5638   5.449   2.615   3.426
   61CHL1  H15A 5639   5.408   2.513   3.433
   61CHL1  H15B 5640   5.535   2.600   3.357
   61CHL1   C16 5641   5.484   2.664   3.572
   61CHL1  H16A 5642   5.468   2.571   3.631
   61CHL1  H16B 5643   5.588   2.703   3.574
   61CHL1   C17 5644   5.383   2.776   3.618
   61CHL1   H17 5645   5.431   2.872   3.588
   61CHL1   C13 5646   5.265   2.749   3.521
   61CHL1   C18 5647   5.192   2.625   3.570
   61CHL1  H18A 5648   5.257   2.545   3.613
   61CHL1  H18B 5649   5.117   2.651   3.648
   61CHL1  H18C 5650   5.127   2.579   3.492
   61CHL1   C12 5651   5.178   2.869   3.489
   61CHL1  H12A 5652   5.109   2.904   3.568
   61CHL1  H12B 5653   5.245   2.947   3.446
   61CHL1   C11 5654   5.085   2.844   3.368
   61CHL1  H11A 5655   5.020   2.757   3.393
   61CHL1  H11B 5656   5.015   2.929   3.356
   61CHL1    C9 5657   5.169   2.806   3.245
   61CHL1    H9 5658   5.225   2.899   3.222
   61CHL1   C10 5659   5.081   2.784   3.118
   61CHL1   C19 5660   4.956   2.686   3.143
   61CHL1  H19A 5661   4.894   2.695   3.051
   61CHL1  H19B 5662   4.992   2.582   3.154
   61CHL1  H19C 5663   4.912   2.715   3.241
   61CHL1    C1 5664   5.021   2.925   3.071
   61CHL1   H1A 5665   4.954   2.956   3.153
   61CHL1   H1B 5666   5.094   3.009   3.072
   61CHL1    C2 5667   4.955   2.920   2.926
   61CHL1   H2A 5668   4.924   3.022   2.893
   61CHL1   H2B 5669   4.872   2.848   2.915
   61CHL1   C20 5670   5.357   2.789   3.769
   61CHL1   H20 5671   5.323   2.695   3.817
   61CHL1   C21 5672   5.261   2.907   3.800
   61CHL1  H21A 5673   5.305   2.992   3.743
   61CHL1  H21B 5674   5.261   2.921   3.911
   61CHL1  H21C 5675   5.163   2.878   3.758
   61CHL1   C22 5676   5.494   2.814   3.842
   61CHL1  H22A 5677   5.467   2.801   3.949
   61CHL1  H22B 5678   5.561   2.727   3.823
   61CHL1   C23 5679   5.575   2.946   3.816
   61CHL1  H23A 5680   5.649   2.924   3.736
   61CHL1  H23B 5681   5.501   3.018   3.777
   61CHL1   C24 5682   5.661   3.009   3.928
   61CHL1  H24A 5683   5.730   3.089   3.893
   61CHL1  H24B 5684   5.595   3.054   4.005
   61CHL1   C25 5685   5.754   2.906   3.991
   61CHL1   H25 5686   5.752   2.815   3.928
   61CHL1   C26 5687   5.901   2.966   4.003
   61CHL1  H26A 5688   5.973   2.890   4.040
   61CHL1  H26B 5689   5.930   2.996   3.900
   61CHL1  H26C 5690   5.913   3.052   4.072
   61CHL1   C27 5691   5.700   2.851   4.129
   61CHL1  H27A 5692   5.691   2.939   4.197
   61CHL1  H27B 5693   5.598   2.807   4.136
   61CHL1  H27C 5694   5.775   2.784   4.175
   62CHL1    C3 5695   1.295   1.111   2.721
   62CHL1    H3 5696   1.248   1.211   2.726
   62CHL1    O3 5697   1.291   1.061   2.588
   62CHL1   H3' 5698   1.351   0.986   2.593
   62CHL1    C4 5699   1.446   1.108   2.770
   62CHL1   H4A 5700   1.491   1.007   2.756
   62CHL1   H4B 5701   1.498   1.183   2.706
   62CHL1    C5 5702   1.462   1.135   2.918
   62CHL1    C6 5703   1.531   1.238   2.967
   62CHL1    H6 5704   1.588   1.298   2.895
   62CHL1    C7 5705   1.555   1.262   3.117
   62CHL1   H7A 5706   1.661   1.291   3.134
   62CHL1   H7B 5707   1.486   1.337   3.160
   62CHL1    C8 5708   1.512   1.138   3.203
   62CHL1    H8 5709   1.590   1.061   3.182
   62CHL1   C14 5710   1.501   1.180   3.345
   62CHL1   H14 5711   1.431   1.266   3.354
   62CHL1   C15 5712   1.637   1.236   3.391
   62CHL1  H15A 5713   1.715   1.175   3.342
   62CHL1  H15B 5714   1.643   1.343   3.361
   62CHL1   C16 5715   1.631   1.207   3.536
   62CHL1  H16A 5716   1.715   1.145   3.573
   62CHL1  H16B 5717   1.643   1.302   3.593
   62CHL1   C17 5718   1.494   1.145   3.572
   62CHL1   H17 5719   1.425   1.232   3.582
   62CHL1   C13 5720   1.458   1.074   3.439
   62CHL1   C18 5721   1.553   0.946   3.445
   62CHL1  H18A 5722   1.563   0.915   3.339
   62CHL1  H18B 5723   1.657   0.973   3.472
   62CHL1  H18C 5724   1.512   0.866   3.510
   62CHL1   C12 5725   1.314   1.044   3.401
   62CHL1  H12A 5726   1.275   0.970   3.476
   62CHL1  H12B 5727   1.250   1.132   3.426
   62CHL1   C11 5728   1.304   0.988   3.257
   62CHL1  H11A 5729   1.359   0.892   3.266
   62CHL1  H11B 5730   1.196   0.981   3.232
   62CHL1    C9 5731   1.377   1.084   3.159
   62CHL1    H9 5732   1.311   1.173   3.172
   62CHL1   C10 5733   1.382   1.039   3.015
   62CHL1   C19 5734   1.435   0.896   3.005
   62CHL1  H19A 5735   1.402   0.841   3.096
   62CHL1  H19B 5736   1.390   0.849   2.915
   62CHL1  H19C 5737   1.546   0.888   3.003
   62CHL1    C1 5738   1.232   1.051   2.963
   62CHL1   H1A 5739   1.163   0.985   3.019
   62CHL1   H1B 5740   1.194   1.154   2.984
   62CHL1    C2 5741   1.209   1.020   2.811
   62CHL1   H2A 5742   1.105   1.036   2.778
   62CHL1   H2B 5743   1.229   0.913   2.788
   62CHL1   C20 5744   1.502   1.069   3.709
   62CHL1   H20 5745   1.576   0.985   3.709
   62CHL1   C21 5746   1.360   1.021   3.750
   62CHL1  H21A 5747   1.308   0.958   3.674
   62CHL1  H21B 5748   1.293   1.107   3.769
   62CHL1  H21C 5749   1.360   0.962   3.844
   62CHL1   C22 5750   1.552   1.165   3.823
   62CHL1  H22A 5751   1.561   1.113   3.921
   62CHL1  H22B 5752   1.656   1.191   3.795
   62CHL1   C23 5753   1.478   1.297   3.838
   62CHL1  H23A 5754   1.482   1.356   3.744
   62CHL1  H23B 5755   1.372   1.280   3.868
   62CHL1   C24 5756   1.549   1.384   3.947
   62CHL1  H24A 5757   1.536   1.336   4.047
   62CHL1  H24B 5758   1.657   1.375   3.921
   62CHL1   C25 5759   1.494   1.524   3.954
   62CHL1   H25 5760   1.492   1.559   3.849
   62CHL1   C26 5761   1.349   1.521   4.009
   62CHL1  H26A 5762   1.301   1.621   4.011
   62CHL1  H26B 5763   1.286   1.454   3.946
   62CHL1  H26C 5764   1.345   1.489   4.115
   62CHL1   C27 5765   1.581   1.602   4.052
   62CHL1  H27A 5766   1.580   1.565   4.157
   62CHL1  H27B 5767   1.684   1.593   4.012
   62CHL1  H27C 5768   1.546   1.708   4.050
   63CHL1    C3 5769   4.498   5.437   2.841
   63CHL1    H3 5770   4.540   5.335   2.850
   63CHL1    O3 5771   4.559   5.482   2.724
   63CHL1   H3' 5772   4.646   5.441   2.723
   63CHL1    C4 5773   4.340   5.429   2.823
   63CHL1   H4A 5774   4.309   5.535   2.826
   63CHL1   H4B 5775   4.317   5.374   2.729
   63CHL1    C5 5776   4.291   5.366   2.952
   63CHL1    C6 5777   4.223   5.250   2.947
   63CHL1    H6 5778   4.205   5.205   2.848
   63CHL1    C7 5779   4.161   5.186   3.068
   63CHL1   H7A 5780   4.053   5.165   3.048
   63CHL1   H7B 5781   4.212   5.093   3.102
   63CHL1    C8 5782   4.169   5.288   3.191
   63CHL1    H8 5783   4.098   5.370   3.168
   63CHL1   C14 5784   4.124   5.229   3.317
   63CHL1   H14 5785   4.187   5.140   3.338
   63CHL1   C15 5786   3.974   5.175   3.327
   63CHL1  H15A 5787   3.905   5.245   3.277
   63CHL1  H15B 5788   3.966   5.080   3.270
   63CHL1   C16 5789   3.946   5.167   3.478
   63CHL1  H16A 5790   3.852   5.223   3.498
   63CHL1  H16B 5791   3.933   5.062   3.512
   63CHL1   C17 5792   4.058   5.244   3.551
   63CHL1   H17 5793   4.127   5.164   3.586
   63CHL1   C13 5794   4.146   5.319   3.446
   63CHL1   C18 5795   4.069   5.456   3.435
   63CHL1  H18A 5796   4.098   5.488   3.333
   63CHL1  H18B 5797   3.958   5.447   3.433
   63CHL1  H18C 5798   4.099   5.524   3.517
   63CHL1   C12 5799   4.295   5.333   3.463
   63CHL1  H12A 5800   4.318   5.393   3.554
   63CHL1  H12B 5801   4.351   5.237   3.465
   63CHL1   C11 5802   4.348   5.414   3.341
   63CHL1  H11A 5803   4.304   5.514   3.361
   63CHL1  H11B 5804   4.458   5.433   3.343
   63CHL1    C9 5805   4.315   5.350   3.197
   63CHL1    H9 5806   4.370   5.254   3.189
   63CHL1   C10 5807   4.339   5.442   3.082
   63CHL1   C19 5808   4.256   5.574   3.100
   63CHL1  H19A 5809   4.287   5.642   3.018
   63CHL1  H19B 5810   4.146   5.560   3.104
   63CHL1  H19C 5811   4.291   5.628   3.190
   63CHL1    C1 5812   4.488   5.474   3.086
   63CHL1   H1A 5813   4.507   5.556   3.159
   63CHL1   H1B 5814   4.555   5.391   3.120
   63CHL1    C2 5815   4.545   5.521   2.954
   63CHL1   H2A 5816   4.655   5.531   2.960
   63CHL1   H2B 5817   4.503   5.621   2.931
   63CHL1   C20 5818   4.010   5.315   3.678
   63CHL1   H20 5819   3.937   5.397   3.664
   63CHL1   C21 5820   4.120   5.382   3.756
   63CHL1  H21A 5821   4.097   5.423   3.857
   63CHL1  H21B 5822   4.168   5.468   3.704
   63CHL1  H21C 5823   4.202   5.307   3.768
   63CHL1   C22 5824   3.941   5.213   3.774
   63CHL1  H22A 5825   3.872   5.144   3.721
   63CHL1  H22B 5826   4.018   5.138   3.801
   63CHL1   C23 5827   3.885   5.271   3.903
   63CHL1  H23A 5828   3.966   5.319   3.962
   63CHL1  H23B 5829   3.805   5.346   3.886
   63CHL1   C24 5830   3.822   5.167   3.992
   63CHL1  H24A 5831   3.723   5.135   3.953
   63CHL1  H24B 5832   3.887   5.077   4.002
   63CHL1   C25 5833   3.797   5.229   4.130
   63CHL1   H25 5834   3.751   5.329   4.124
   63CHL1   C26 5835   3.688   5.150   4.211
   63CHL1  H26A 5836   3.652   5.202   4.302
   63CHL1  H26B 5837   3.596   5.130   4.153
   63CHL1  H26C 5838   3.730   5.055   4.250
   63CHL1   C27 5839   3.930   5.235   4.213
   63CHL1  H27A 5840   3.948   5.136   4.259
   63CHL1  H27B 5841   4.025   5.267   4.164
   63CHL1  H27C 5842   3.906   5.297   4.302
   64CHL1    C3 5843   2.614   2.970   2.866
   64CHL1    H3 5844   2.503   2.973   2.861
   64CHL1    O3 5845   2.661   2.983   2.735
   64CHL1   H3' 5846   2.687   3.074   2.717
   64CHL1    C4 5847   2.672   3.073   2.957
   64CHL1   H4A 5848   2.783   3.070   2.948
   64CHL1   H4B 5849   2.649   3.171   2.909
   64CHL1    C5 5850   2.621   3.051   3.095
   64CHL1    C6 5851   2.561   3.147   3.173
   64CHL1    H6 5852   2.534   3.246   3.134
   64CHL1    C7 5853   2.521   3.121   3.312
   64CHL1   H7A 5854   2.557   3.201   3.380
   64CHL1   H7B 5855   2.411   3.126   3.328
   64CHL1    C8 5856   2.579   2.988   3.382
   64CHL1    H8 5857   2.682   3.015   3.414
   64CHL1   C14 5858   2.504   2.954   3.504
   64CHL1   H14 5859   2.403   2.931   3.465
   64CHL1   C15 5860   2.499   3.058   3.613
   64CHL1  H15A 5861   2.590   3.115   3.642
   64CHL1  H15B 5862   2.419   3.127   3.580
   64CHL1   C16 5863   2.443   2.974   3.736
   64CHL1  H16A 5864   2.513   2.997   3.819
   64CHL1  H16B 5865   2.337   2.988   3.765
   64CHL1   C17 5866   2.451   2.827   3.701
   64CHL1   H17 5867   2.354   2.789   3.662
   64CHL1   C13 5868   2.548   2.827   3.578
   64CHL1   C18 5869   2.689   2.840   3.636
   64CHL1  H18A 5870   2.689   2.922   3.711
   64CHL1  H18B 5871   2.715   2.749   3.694
   64CHL1  H18C 5872   2.756   2.854   3.549
   64CHL1   C12 5873   2.533   2.711   3.487
   64CHL1  H12A 5874   2.573   2.616   3.527
   64CHL1  H12B 5875   2.424   2.700   3.466
   64CHL1   C11 5876   2.613   2.740   3.354
   64CHL1  H11A 5877   2.721   2.746   3.382
   64CHL1  H11B 5878   2.594   2.652   3.289
   64CHL1    C9 5879   2.574   2.874   3.277
   64CHL1    H9 5880   2.469   2.856   3.248
   64CHL1   C10 5881   2.643   2.905   3.146
   64CHL1   C19 5882   2.794   2.896   3.177
   64CHL1  H19A 5883   2.851   2.911   3.083
   64CHL1  H19B 5884   2.838   2.973   3.244
   64CHL1  H19C 5885   2.821   2.798   3.224
   64CHL1    C1 5886   2.616   2.794   3.049
   64CHL1   H1A 5887   2.666   2.698   3.071
   64CHL1   H1B 5888   2.506   2.783   3.062
   64CHL1    C2 5889   2.659   2.832   2.906
   64CHL1   H2A 5890   2.624   2.752   2.837
   64CHL1   H2B 5891   2.769   2.821   2.913
   64CHL1   C20 5892   2.485   2.739   3.824
   64CHL1   H20 5893   2.580   2.779   3.866
   64CHL1   C21 5894   2.502   2.594   3.786
   64CHL1  H21A 5895   2.422   2.556   3.719
   64CHL1  H21B 5896   2.493   2.530   3.876
   64CHL1  H21C 5897   2.599   2.574   3.734
   64CHL1   C22 5898   2.380   2.742   3.938
   64CHL1  H22A 5899   2.378   2.852   3.956
   64CHL1  H22B 5900   2.277   2.718   3.904
   64CHL1   C23 5901   2.406   2.677   4.071
   64CHL1  H23A 5902   2.394   2.567   4.055
   64CHL1  H23B 5903   2.510   2.691   4.105
   64CHL1   C24 5904   2.313   2.704   4.194
   64CHL1  H24A 5905   2.210   2.667   4.174
   64CHL1  H24B 5906   2.350   2.647   4.282
   64CHL1   C25 5907   2.306   2.852   4.235
   64CHL1   H25 5908   2.301   2.923   4.149
   64CHL1   C26 5909   2.173   2.873   4.307
   64CHL1  H26A 5910   2.162   2.977   4.344
   64CHL1  H26B 5911   2.095   2.846   4.233
   64CHL1  H26C 5912   2.165   2.811   4.399
   64CHL1   C27 5913   2.426   2.893   4.318
   64CHL1  H27A 5914   2.449   2.819   4.397
   64CHL1  H27B 5915   2.514   2.915   4.254
   64CHL1  H27C 5916   2.400   2.989   4.368
   65CHL1    C3 5917   0.443   0.739   2.570
   65CHL1    H3 5918   0.374   0.824   2.551
   65CHL1    O3 5919   0.404   0.636   2.480
   65CHL1   H3' 5920   0.404   0.687   2.399
   65CHL1    C4 5921   0.594   0.786   2.565
   65CHL1   H4A 5922   0.651   0.691   2.560
   65CHL1   H4B 5923   0.605   0.848   2.474
   65CHL1    C5 5924   0.644   0.860   2.687
   65CHL1    C6 5925   0.735   0.965   2.671
   65CHL1    H6 5926   0.769   0.989   2.569
   65CHL1    C7 5927   0.787   1.040   2.782
   65CHL1   H7A 5928   0.896   1.047   2.766
   65CHL1   H7B 5929   0.737   1.139   2.785
   65CHL1    C8 5930   0.776   0.986   2.922
   65CHL1    H8 5931   0.851   0.907   2.944
   65CHL1   C14 5932   0.794   1.091   3.034
   65CHL1   H14 5933   0.714   1.168   3.025
   65CHL1   C15 5934   0.918   1.179   3.026
   65CHL1  H15A 5935   1.002   1.108   3.013
   65CHL1  H15B 5936   0.910   1.257   2.947
   65CHL1   C16 5937   0.929   1.236   3.164
   65CHL1  H16A 5938   1.032   1.216   3.201
   65CHL1  H16B 5939   0.914   1.346   3.161
   65CHL1   C17 5940   0.821   1.164   3.254
   65CHL1   H17 5941   0.737   1.236   3.247
   65CHL1   C13 5942   0.773   1.039   3.173
   65CHL1   C18 5943   0.875   0.925   3.200
   65CHL1  H18A 5944   0.867   0.842   3.126
   65CHL1  H18B 5945   0.976   0.966   3.217
   65CHL1  H18C 5946   0.849   0.866   3.290
   65CHL1   C12 5947   0.632   0.984   3.191
   65CHL1  H12A 5948   0.627   0.935   3.291
   65CHL1  H12B 5949   0.575   1.079   3.187
   65CHL1   C11 5950   0.599   0.876   3.083
   65CHL1  H11A 5951   0.653   0.784   3.113
   65CHL1  H11B 5952   0.491   0.848   3.084
   65CHL1    C9 5953   0.632   0.931   2.939
   65CHL1    H9 5954   0.560   1.015   2.927
   65CHL1   C10 5955   0.600   0.817   2.829
   65CHL1   C19 5956   0.679   0.690   2.865
   65CHL1  H19A 5957   0.692   0.629   2.773
   65CHL1  H19B 5958   0.779   0.701   2.911
   65CHL1  H19C 5959   0.615   0.634   2.937
   65CHL1    C1 5960   0.451   0.794   2.821
   65CHL1   H1A 5961   0.412   0.751   2.915
   65CHL1   H1B 5962   0.383   0.882   2.816
   65CHL1    C2 5963   0.413   0.695   2.716
   65CHL1   H2A 5964   0.305   0.668   2.724
   65CHL1   H2B 5965   0.471   0.603   2.738
   65CHL1   C20 5966   0.858   1.140   3.398
   65CHL1   H20 5967   0.902   1.040   3.418
   65CHL1   C21 5968   0.725   1.131   3.483
   65CHL1  H21A 5969   0.754   1.112   3.589
   65CHL1  H21B 5970   0.657   1.053   3.444
   65CHL1  H21C 5971   0.674   1.230   3.480
   65CHL1   C22 5972   0.948   1.252   3.451
   65CHL1  H22A 5973   1.033   1.245   3.381
   65CHL1  H22B 5974   0.912   1.357   3.443
   65CHL1   C23 5975   1.010   1.232   3.590
   65CHL1  H23A 5976   0.936   1.256   3.670
   65CHL1  H23B 5977   1.030   1.123   3.596
   65CHL1   C24 5978   1.131   1.324   3.624
   65CHL1  H24A 5979   1.187   1.300   3.717
   65CHL1  H24B 5980   1.205   1.306   3.542
   65CHL1   C25 5981   1.102   1.474   3.597
   65CHL1   H25 5982   1.080   1.474   3.488
   65CHL1   C26 5983   0.992   1.536   3.686
   65CHL1  H26A 5984   1.023   1.578   3.784
   65CHL1  H26B 5985   0.952   1.620   3.626
   65CHL1  H26C 5986   0.909   1.466   3.709
   65CHL1   C27 5987   1.233   1.563   3.604
   65CHL1  H27A 5988   1.296   1.525   3.520
   65CHL1  H27B 5989   1.204   1.668   3.581
   65CHL1  H27C 5990   1.288   1.545   3.699
   66CHL1    C3 5991   4.555   2.484   2.939
   66CHL1    H3 5992   4.522   2.588   2.960
   66CHL1    O3 5993   4.600   2.490   2.802
   66CHL1   H3' 5994   4.622   2.399   2.779
   66CHL1    C4 5995   4.665   2.435   3.028
   66CHL1   H4A 5996   4.701   2.339   2.985
   66CHL1   H4B 5997   4.741   2.515   3.013
   66CHL1    C5 5998   4.617   2.433   3.170
   66CHL1    C6 5999   4.692   2.487   3.267
   66CHL1    H6 6000   4.797   2.508   3.241
   66CHL1    C7 6001   4.649   2.501   3.410
   66CHL1   H7A 6002   4.726   2.454   3.474
   66CHL1   H7B 6003   4.648   2.606   3.446
   66CHL1    C8 6004   4.531   2.405   3.450
   66CHL1    H8 6005   4.576   2.304   3.458
   66CHL1   C14 6006   4.470   2.446   3.580
   66CHL1   H14 6007   4.423   2.544   3.557
   66CHL1   C15 6008   4.562   2.482   3.696
   66CHL1  H15A 6009   4.652   2.418   3.681
   66CHL1  H15B 6010   4.609   2.582   3.684
   66CHL1   C16 6011   4.471   2.468   3.816
   66CHL1  H16A 6012   4.520   2.407   3.895
   66CHL1  H16B 6013   4.452   2.568   3.860
   66CHL1   C17 6014   4.336   2.407   3.773
   66CHL1   H17 6015   4.273   2.497   3.758
   66CHL1   C13 6016   4.361   2.354   3.636
   66CHL1   C18 6017   4.414   2.215   3.661
   66CHL1  H18A 6018   4.339   2.151   3.712
   66CHL1  H18B 6019   4.449   2.172   3.565
   66CHL1  H18C 6020   4.506   2.218   3.724
   66CHL1   C12 6021   4.250   2.342   3.529
   66CHL1  H12A 6022   4.172   2.270   3.562
   66CHL1  H12B 6023   4.201   2.442   3.523
   66CHL1   C11 6024   4.298   2.315   3.386
   66CHL1  H11A 6025   4.320   2.206   3.375
   66CHL1  H11B 6026   4.220   2.357   3.319
   66CHL1    C9 6027   4.423   2.402   3.341
   66CHL1    H9 6028   4.383   2.506   3.338
   66CHL1   C10 6029   4.471   2.365   3.197
   66CHL1   C19 6030   4.484   2.206   3.182
   66CHL1  H19A 6031   4.552   2.173   3.263
   66CHL1  H19B 6032   4.386   2.155   3.179
   66CHL1  H19C 6033   4.536   2.178   3.088
   66CHL1    C1 6034   4.375   2.428   3.088
   66CHL1   H1A 6035   4.280   2.374   3.108
   66CHL1   H1B 6036   4.358   2.536   3.103
   66CHL1    C2 6037   4.430   2.407   2.945
   66CHL1   H2A 6038   4.358   2.453   2.875
   66CHL1   H2B 6039   4.447   2.300   2.918
   66CHL1   C20 6040   4.268   2.327   3.884
   66CHL1   H20 6041   4.310   2.224   3.887
   66CHL1   C21 6042   4.119   2.328   3.844
   66CHL1  H21A 6043   4.100   2.275   3.748
   66CHL1  H21B 6044   4.084   2.431   3.825
   66CHL1  H21C 6045   4.055   2.270   3.914
   66CHL1   C22 6046   4.287   2.385   4.026
   66CHL1  H22A 6047   4.394   2.377   4.055
   66CHL1  H22B 6048   4.257   2.491   4.018
   66CHL1   C23 6049   4.208   2.320   4.141
   66CHL1  H23A 6050   4.101   2.348   4.152
   66CHL1  H23B 6051   4.211   2.210   4.127
   66CHL1   C24 6052   4.265   2.367   4.279
   66CHL1  H24A 6053   4.231   2.305   4.365
   66CHL1  H24B 6054   4.371   2.337   4.284
   66CHL1   C25 6055   4.246   2.513   4.316
   66CHL1   H25 6056   4.295   2.571   4.235
   66CHL1   C26 6057   4.097   2.552   4.316
   66CHL1  H26A 6058   4.056   2.498   4.404
   66CHL1  H26B 6059   4.081   2.658   4.347
   66CHL1  H26C 6060   4.061   2.537   4.212
   66CHL1   C27 6061   4.308   2.533   4.455
   66CHL1  H27A 6062   4.418   2.544   4.452
   66CHL1  H27B 6063   4.278   2.441   4.511
   66CHL1  H27C 6064   4.265   2.622   4.504
   67CHL1    C3 6065   4.350   6.724   2.816
   67CHL1    H3 6066   4.367   6.831   2.839
   67CHL1    O3 6067   4.277   6.723   2.693
   67CHL1   H3' 6068   4.231   6.807   2.690
   67CHL1    C4 6069   4.482   6.643   2.808
   67CHL1   H4A 6070   4.473   6.539   2.771
   67CHL1   H4B 6071   4.542   6.700   2.733
   67CHL1    C5 6072   4.553   6.649   2.942
   67CHL1    C6 6073   4.684   6.682   2.951
   67CHL1    H6 6074   4.742   6.703   2.859
   67CHL1    C7 6075   4.757   6.708   3.079
   67CHL1   H7A 6076   4.862   6.672   3.084
   67CHL1   H7B 6077   4.766   6.819   3.081
   67CHL1    C8 6078   4.680   6.647   3.200
   67CHL1    H8 6079   4.702   6.539   3.209
   67CHL1   C14 6080   4.732   6.716   3.328
   67CHL1   H14 6081   4.706   6.822   3.305
   67CHL1   C15 6082   4.884   6.723   3.352
   67CHL1  H15A 6083   4.930   6.624   3.331
   67CHL1  H15B 6084   4.929   6.794   3.279
   67CHL1   C16 6085   4.897   6.756   3.503
   67CHL1  H16A 6086   4.953   6.683   3.564
   67CHL1  H16B 6087   4.946   6.855   3.508
   67CHL1   C17 6088   4.750   6.749   3.561
   67CHL1   H17 6089   4.700   6.846   3.541
   67CHL1   C13 6090   4.670   6.666   3.461
   67CHL1   C18 6091   4.701   6.519   3.490
   67CHL1  H18A 6092   4.643   6.486   3.579
   67CHL1  H18B 6093   4.665   6.450   3.411
   67CHL1  H18C 6094   4.810   6.504   3.500
   67CHL1   C12 6095   4.518   6.676   3.446
   67CHL1  H12A 6096   4.469   6.633   3.536
   67CHL1  H12B 6097   4.504   6.786   3.449
   67CHL1   C11 6098   4.456   6.611   3.325
   67CHL1  H11A 6099   4.463   6.501   3.331
   67CHL1  H11B 6100   4.347   6.635   3.324
   67CHL1    C9 6101   4.526   6.672   3.196
   67CHL1    H9 6102   4.510   6.782   3.197
   67CHL1   C10 6103   4.462   6.619   3.064
   67CHL1   C19 6104   4.467   6.466   3.061
   67CHL1  H19A 6105   4.570   6.426   3.067
   67CHL1  H19B 6106   4.410   6.421   3.146
   67CHL1  H19C 6107   4.413   6.430   2.971
   67CHL1    C1 6108   4.319   6.681   3.059
   67CHL1   H1A 6109   4.265   6.612   3.126
   67CHL1   H1B 6110   4.320   6.783   3.103
   67CHL1    C2 6111   4.253   6.675   2.925
   67CHL1   H2A 6112   4.159   6.734   2.933
   67CHL1   H2B 6113   4.219   6.574   2.892
   67CHL1   C20 6114   4.746   6.726   3.710
   67CHL1   H20 6115   4.786   6.626   3.738
   67CHL1   C21 6116   4.598   6.741   3.760
   67CHL1  H21A 6117   4.539   6.829   3.725
   67CHL1  H21B 6118   4.596   6.747   3.871
   67CHL1  H21C 6119   4.538   6.655   3.725
   67CHL1   C22 6120   4.845   6.820   3.793
   67CHL1  H22A 6121   4.950   6.794   3.770
   67CHL1  H22B 6122   4.830   0.067   3.756
   67CHL1   C23 6123   4.838   6.808   3.949
   67CHL1  H23A 6124   4.918   0.017   3.990
   67CHL1  H23B 6125   4.739   6.853   3.974
   67CHL1   C24 6126   4.856   6.664   3.996
   67CHL1  H24A 6127   4.776   6.601   3.952
   67CHL1  H24B 6128   4.947   6.631   3.941
   67CHL1   C25 6129   4.860   6.651   4.146
   67CHL1   H25 6130   4.935   6.729   4.172
   67CHL1   C26 6131   4.724   6.685   4.218
   67CHL1  H26A 6132   4.646   6.611   4.190
   67CHL1  H26B 6133   4.749   6.683   4.326
   67CHL1  H26C 6134   4.693   6.790   4.197
   67CHL1   C27 6135   4.895   6.509   4.193
   67CHL1  H27A 6136   4.987   6.475   4.139
   67CHL1  H27B 6137   4.921   6.491   4.300
   67CHL1  H27C 6138   4.811   6.439   4.174
   68CHL1    C3 6139   1.757   5.242   2.576
   68CHL1    H3 6140   1.865   5.215   2.586
   68CHL1    O3 6141   1.705   5.199   2.449
   68CHL1   H3' 6142   1.619   5.243   2.456
   68CHL1    C4 6143   1.693   5.181   2.694
   68CHL1   H4A 6144   1.584   5.174   2.674
   68CHL1   H4B 6145   1.720   5.073   2.690
   68CHL1    C5 6146   1.718   5.243   2.829
   68CHL1    C6 6147   1.753   5.177   2.938
   68CHL1    H6 6148   1.781   5.072   2.920
   68CHL1    C7 6149   1.779   5.236   3.076
   68CHL1   H7A 6150   1.738   5.162   3.149
   68CHL1   H7B 6151   1.888   5.242   3.096
   68CHL1    C8 6152   1.718   5.378   3.083
   68CHL1    H8 6153   1.607   5.370   3.084
   68CHL1   C14 6154   1.772   5.438   3.212
   68CHL1   H14 6155   1.882   5.439   3.198
   68CHL1   C15 6156   1.759   5.362   3.345
   68CHL1  H15A 6157   1.656   5.322   3.352
   68CHL1  H15B 6158   1.832   5.279   3.354
   68CHL1   C16 6159   1.795   5.468   3.446
   68CHL1  H16A 6160   1.717   5.451   3.524
   68CHL1  H16B 6161   1.895   5.450   3.490
   68CHL1   C17 6162   1.799   5.605   3.372
   68CHL1   H17 6163   1.906   5.624   3.349
   68CHL1   C13 6164   1.734   5.590   3.236
   68CHL1   C18 6165   1.584   5.611   3.242
   68CHL1  H18A 6166   1.556   5.718   3.250
   68CHL1  H18B 6167   1.531   5.571   3.153
   68CHL1  H18C 6168   1.533   5.548   3.317
   68CHL1   C12 6169   1.790   5.665   3.114
   68CHL1  H12A 6170   1.773   5.774   3.117
   68CHL1  H12B 6171   1.899   5.645   3.112
   68CHL1   C11 6172   1.732   5.613   2.978
   68CHL1  H11A 6173   1.624   5.641   2.969
   68CHL1  H11B 6174   1.791   5.665   2.899
   68CHL1    C9 6175   1.752   5.460   2.959
   68CHL1    H9 6176   1.862   5.454   2.949
   68CHL1   C10 6177   1.700   5.392   2.834
   68CHL1   C19 6178   1.547   5.429   2.822
   68CHL1  H19A 6179   1.536   5.539   2.816
   68CHL1  H19B 6180   1.500   5.392   2.729
   68CHL1  H19C 6181   1.487   5.404   2.912
   68CHL1    C1 6182   1.783   5.453   2.714
   68CHL1   H1A 6183   1.756   5.560   2.723
   68CHL1   H1B 6184   1.893   5.457   2.732
   68CHL1    C2 6185   1.752   5.398   2.572
   68CHL1   H2A 6186   1.830   5.435   2.503
   68CHL1   H2B 6187   1.648   5.424   2.541
   68CHL1   C20 6188   1.752   5.722   3.464
   68CHL1   H20 6189   1.642   5.723   3.475
   68CHL1   C21 6190   1.815   5.849   3.400
   68CHL1  H21A 6191   1.926   5.845   3.394
   68CHL1  H21B 6192   1.783   5.943   3.448
   68CHL1  H21C 6193   1.790   5.846   3.292
   68CHL1   C22 6194   1.803   5.701   3.613
   68CHL1  H22A 6195   1.745   5.613   3.649
   68CHL1  H22B 6196   1.912   5.690   3.594
   68CHL1   C23 6197   1.802   5.824   3.693
   68CHL1  H23A 6198   1.882   5.901   3.684
   68CHL1  H23B 6199   1.704   5.870   3.665
   68CHL1   C24 6200   1.799   5.789   3.837
   68CHL1  H24A 6201   1.722   5.710   3.852
   68CHL1  H24B 6202   1.895   5.746   3.871
   68CHL1   C25 6203   1.771   5.896   3.952
   68CHL1   H25 6204   1.759   5.846   4.050
   68CHL1   C26 6205   1.880   6.006   3.962
   68CHL1  H26A 6206   1.860   6.055   4.060
   68CHL1  H26B 6207   1.983   5.966   3.964
   68CHL1  H26C 6208   1.867   6.077   3.878
   68CHL1   C27 6209   1.635   5.961   3.922
   68CHL1  H27A 6210   1.632   5.997   3.817
   68CHL1  H27B 6211   1.549   5.892   3.936
   68CHL1  H27C 6212   1.627   6.047   3.992
   69CHL1    C3 6213   0.602   3.122   2.551
   69CHL1    H3 6214   0.508   3.063   2.540
   69CHL1    O3 6215   0.643   3.155   2.420
   69CHL1   H3' 6216   0.714   3.217   2.438
   69CHL1    C4 6217   0.585   3.244   2.638
   69CHL1   H4A 6218   0.677   3.306   2.625
   69CHL1   H4B 6219   0.514   3.310   2.583
   69CHL1    C5 6220   0.565   3.219   2.787
   69CHL1    C6 6221   0.465   3.279   2.851
   69CHL1    H6 6222   0.404   3.354   2.799
   69CHL1    C7 6223   0.439   3.264   3.004
   69CHL1   H7A 6224   0.424   3.368   3.041
   69CHL1   H7B 6225   0.342   3.211   3.018
   69CHL1    C8 6226   0.549   3.197   3.081
   69CHL1    H8 6227   0.634   3.268   3.091
   69CHL1   C14 6228   0.506   3.153   3.216
   69CHL1   H14 6229   0.421   3.083   3.199
   69CHL1   C15 6230   0.450   3.261   3.315
   69CHL1  H15A 6231   0.521   3.346   3.312
   69CHL1  H15B 6232   0.346   3.293   3.292
   69CHL1   C16 6233   0.465   3.198   3.450
   69CHL1  H16A 6234   0.518   3.272   3.515
   69CHL1  H16B 6235   0.369   3.184   3.504
   69CHL1   C17 6236   0.539   3.068   3.434
   69CHL1   H17 6237   0.469   2.989   3.400
   69CHL1   C13 6238   0.615   3.085   3.297
   69CHL1   C18 6239   0.734   3.178   3.328
   69CHL1  H18A 6240   0.803   3.188   3.241
   69CHL1  H18B 6241   0.705   3.278   3.366
   69CHL1  H18C 6242   0.792   3.138   3.414
   69CHL1   C12 6243   0.657   2.962   3.217
   69CHL1  H12A 6244   0.745   2.910   3.260
   69CHL1  H12B 6245   0.572   2.891   3.205
   69CHL1   C11 6246   0.706   2.995   3.076
   69CHL1  H11A 6247   0.804   3.041   3.100
   69CHL1  H11B 6248   0.732   2.901   3.023
   69CHL1    C9 6249   0.603   3.079   2.996
   69CHL1    H9 6250   0.516   3.012   2.983
   69CHL1   C10 6251   0.659   3.114   2.852
   69CHL1   C19 6252   0.803   3.169   2.865
   69CHL1  H19A 6253   0.836   3.204   2.765
   69CHL1  H19B 6254   0.805   3.249   2.942
   69CHL1  H19C 6255   0.881   3.091   2.882
   69CHL1    C1 6256   0.664   2.995   2.760
   69CHL1   H1A 6257   0.730   2.918   2.806
   69CHL1   H1B 6258   0.564   2.946   2.768
   69CHL1    C2 6259   0.698   3.023   2.616
   69CHL1   H2A 6260   0.695   2.925   2.563
   69CHL1   H2B 6261   0.801   3.065   2.612
   69CHL1   C20 6262   0.610   3.031   3.565
   69CHL1   H20 6263   0.703   3.089   3.583
   69CHL1   C21 6264   0.652   2.878   3.550
   69CHL1  H21A 6265   0.704   2.847   3.643
   69CHL1  H21B 6266   0.702   2.873   3.451
   69CHL1  H21C 6267   0.564   2.810   3.555
   69CHL1   C22 6268   0.519   3.049   3.688
   69CHL1  H22A 6269   0.515   3.155   3.719
   69CHL1  H22B 6270   0.415   3.013   3.673
   69CHL1   C23 6271   0.567   2.971   3.816
   69CHL1  H23A 6272   0.568   2.861   3.808
   69CHL1  H23B 6273   0.672   2.996   3.841
   69CHL1   C24 6274   0.479   3.004   3.940
   69CHL1  H24A 6275   0.494   3.113   3.960
   69CHL1  H24B 6276   0.371   2.993   3.917
   69CHL1   C25 6277   0.512   2.918   4.064
   69CHL1   H25 6278   0.623   2.919   4.064
   69CHL1   C26 6279   0.466   2.987   4.196
   69CHL1  H26A 6280   0.522   3.080   4.221
   69CHL1  H26B 6281   0.358   3.011   4.183
   69CHL1  H26C 6282   0.469   2.916   4.282
   69CHL1   C27 6283   0.468   2.770   4.055
   69CHL1  H27A 6284   0.484   2.729   3.953
   69CHL1  H27B 6285   0.529   2.708   4.124
   69CHL1  H27C 6286   0.359   2.771   4.081
   70CHL1    C3 6287   2.369   1.097   2.363
   70CHL1    H3 6288   2.427   1.002   2.359
   70CHL1    O3 6289   2.316   1.115   2.230
   70CHL1   H3' 6290   2.388   1.141   2.172
   70CHL1    C4 6291   2.257   1.101   2.461
   70CHL1   H4A 6292   2.188   1.187   2.453
   70CHL1   H4B 6293   2.189   1.015   2.445
   70CHL1    C5 6294   2.302   1.089   2.607
   70CHL1    C6 6295   2.256   0.986   2.684
   70CHL1    H6 6296   2.183   0.913   2.648
   70CHL1    C7 6297   2.291   0.972   2.825
   70CHL1   H7A 6298   2.205   0.965   2.896
   70CHL1   H7B 6299   2.358   0.883   2.832
   70CHL1    C8 6300   2.368   1.095   2.882
   70CHL1    H8 6301   2.290   1.171   2.906
   70CHL1   C14 6302   2.434   1.061   3.013
   70CHL1   H14 6303   2.510   0.983   2.994
   70CHL1   C15 6304   2.347   1.001   3.125
   70CHL1  H15A 6305   2.252   1.058   3.133
   70CHL1  H15B 6306   2.309   0.899   3.104
   70CHL1   C16 6307   2.432   1.012   3.248
   70CHL1  H16A 6308   2.368   1.062   3.324
   70CHL1  H16B 6309   2.471   0.915   3.287
   70CHL1   C17 6310   2.560   1.094   3.210
   70CHL1   H17 6311   2.643   1.023   3.188
   70CHL1   C13 6312   2.525   1.165   3.074
   70CHL1   C18 6313   2.438   1.293   3.104
   70CHL1  H18A 6314   2.360   1.277   3.182
   70CHL1  H18B 6315   2.496   1.384   3.131
   70CHL1  H18C 6316   2.383   1.322   3.012
   70CHL1   C12 6317   2.641   1.184   2.979
   70CHL1  H12A 6318   2.714   1.255   3.023
   70CHL1  H12B 6319   2.698   1.091   2.961
   70CHL1   C11 6320   2.589   1.233   2.842
   70CHL1  H11A 6321   2.548   1.335   2.861
   70CHL1  H11B 6322   2.671   1.250   2.769
   70CHL1    C9 6323   2.479   1.135   2.783
   70CHL1    H9 6324   2.531   1.040   2.757
   70CHL1   C10 6325   2.419   1.188   2.645
   70CHL1   C19 6326   2.354   1.326   2.671
   70CHL1  H19A 6327   2.294   1.347   2.580
   70CHL1  H19B 6328   2.282   1.338   2.755
   70CHL1  H19C 6329   2.436   1.401   2.676
   70CHL1    C1 6330   2.526   1.189   2.526
   70CHL1   H1A 6331   2.606   1.264   2.539
   70CHL1   H1B 6332   2.577   1.090   2.532
   70CHL1    C2 6333   2.468   1.205   2.383
   70CHL1   H2A 6334   2.546   1.196   2.304
   70CHL1   H2B 6335   2.423   1.306   2.373
   70CHL1   C20 6336   2.616   1.184   3.327
   70CHL1   H20 6337   2.557   1.278   3.332
   70CHL1   C21 6338   2.759   1.235   3.295
   70CHL1  H21A 6339   2.816   1.274   3.382
   70CHL1  H21B 6340   2.749   1.328   3.235
   70CHL1  H21C 6341   2.816   1.157   3.240
   70CHL1   C22 6342   2.605   1.116   3.468
   70CHL1  H22A 6343   2.634   1.194   3.541
   70CHL1  H22B 6344   2.496   1.101   3.487
   70CHL1   C23 6345   2.687   0.995   3.482
   70CHL1  H23A 6346   2.657   0.924   3.402
   70CHL1  H23B 6347   2.794   1.010   3.457
   70CHL1   C24 6348   2.687   0.935   3.625
   70CHL1  H24A 6349   2.744   0.839   3.627
   70CHL1  H24B 6350   2.753   0.987   3.697
   70CHL1   C25 6351   2.548   0.909   3.688
   70CHL1   H25 6352   2.489   1.002   3.700
   70CHL1   C26 6353   2.457   0.815   3.614
   70CHL1  H26A 6354   2.366   0.809   3.678
   70CHL1  H26B 6355   2.435   0.849   3.510
   70CHL1  H26C 6356   2.493   0.710   3.601
   70CHL1   C27 6357   2.584   0.855   3.825
   70CHL1  H27A 6358   2.626   0.752   3.817
   70CHL1  H27B 6359   2.649   0.919   3.888
   70CHL1  H27C 6360   2.485   0.853   3.875
   71CHL1    C3 6361   5.678   6.804   2.694
   71CHL1    H3 6362   5.653   0.056   2.690
   71CHL1    O3 6363   5.613   6.755   2.581
   71CHL1   H3' 6364   5.610   6.659   2.590
   71CHL1    C4 6365   5.833   6.792   2.680
   71CHL1   H4A 6366   5.862   6.688   2.653
   71CHL1   H4B 6367   5.855   6.845   2.585
   71CHL1    C5 6368   5.905   6.848   2.803
   71CHL1    C6 6369   5.987   0.094   2.795
   71CHL1    H6 6370   6.015   0.136   2.697
   71CHL1    C7 6371   6.052   0.159   2.914
   71CHL1   H7A 6372   6.155   0.189   2.886
   71CHL1   H7B 6373   5.986   0.246   2.935
   71CHL1    C8 6374   6.052   0.064   3.038
   71CHL1    H8 6375   6.115   6.830   3.026
   71CHL1   C14 6376   6.098   0.140   3.165
   71CHL1   H14 6377   6.032   0.228   3.174
   71CHL1   C15 6378   6.236   0.207   3.163
   71CHL1  H15A 6379   6.305   0.134   3.118
   71CHL1  H15B 6380   6.230   0.301   3.104
   71CHL1   C16 6381   6.267   0.231   3.311
   71CHL1  H16A 6382   6.374   0.202   3.319
   71CHL1  H16B 6383   6.265   0.333   3.355
   71CHL1   C17 6384   6.151   0.156   3.399
   71CHL1   H17 6385   6.069   0.231   3.408
   71CHL1   C13 6386   6.091   0.057   3.294
   71CHL1   C18 6387   6.193   6.792   3.292
   71CHL1  H18A 6388   6.187   6.748   3.191
   71CHL1  H18B 6389   6.295   6.835   3.302
   71CHL1  H18C 6390   6.173   6.714   3.369
   71CHL1   C12 6391   5.942   0.008   3.317
   71CHL1  H12A 6392   5.942   6.816   3.417
   71CHL1  H12B 6393   5.882   0.101   3.326
   71CHL1   C11 6394   5.890   6.793   3.196
   71CHL1  H11A 6395   5.952   6.700   3.191
   71CHL1  H11B 6396   5.780   6.779   3.199
   71CHL1    C9 6397   5.903   0.013   3.062
   71CHL1    H9 6398   5.842   0.105   3.055
   71CHL1   C10 6399   5.861   6.784   2.940
   71CHL1   C19 6400   5.916   6.637   2.950
   71CHL1  H19A 6401   5.874   6.586   3.040
   71CHL1  H19B 6402   5.886   6.572   2.865
   71CHL1  H19C 6403   6.027   6.639   2.949
   71CHL1    C1 6404   5.700   6.786   2.946
   71CHL1   H1A 6405   5.665   6.721   3.028
   71CHL1   H1B 6406   5.658   0.032   2.957
   71CHL1    C2 6407   5.629   6.738   2.820
   71CHL1   H2A 6408   5.518   6.748   2.828
   71CHL1   H2B 6409   5.652   6.630   2.806
   71CHL1   C20 6410   6.187   0.110   3.541
   71CHL1   H20 6411   6.117   0.029   3.573
   71CHL1   C21 6412   6.162   0.237   3.628
   71CHL1  H21A 6413   6.165   0.208   3.735
   71CHL1  H21B 6414   6.065   0.289   3.613
   71CHL1  H21C 6415   6.234   0.320   3.616
   71CHL1   C22 6416   6.332   0.058   3.549
   71CHL1  H22A 6417   6.352   6.834   3.475
   71CHL1  H22B 6418   6.399   0.141   3.518
   71CHL1   C23 6419   6.372   0.015   3.690
   71CHL1  H23A 6420   6.329   0.083   3.767
   71CHL1  H23B 6421   6.313   6.778   3.703
   71CHL1   C24 6422   6.521   6.845   3.707
   71CHL1  H24A 6423   6.545   6.779   3.620
   71CHL1  H24B 6424   6.588   0.076   3.693
   71CHL1   C25 6425   6.546   6.775   3.839
   71CHL1   H25 6426   6.494   6.837   3.916
   71CHL1   C26 6427   6.498   6.634   3.840
   71CHL1  H26A 6428   6.509   6.584   3.938
   71CHL1  H26B 6429   6.391   6.609   3.825
   71CHL1  H26C 6430   6.550   6.564   3.771
   71CHL1   C27 6431   6.694   6.777   3.888
   71CHL1  H27A 6432   6.701   6.719   3.982
   71CHL1  H27B 6433   6.771   6.740   3.816
   71CHL1  H27C 6434   6.714   0.028   3.906
   72CHL1    C3 6435   6.845   5.045   2.685
   72CHL1    H3 6436   6.835   5.155   2.695
   72CHL1    O3 6437   0.037   5.011   2.554
   72CHL1   H3' 6438   0.117   5.065   2.548
   72CHL1    C4 6439   0.094   4.992   2.785
   72CHL1   H4A 6440   0.095   4.886   2.754
   72CHL1   H4B 6441   0.200   5.023   2.769
   72CHL1    C5 6442   0.056   5.005   2.938
   72CHL1    C6 6443   0.131   5.062   3.027
   72CHL1    H6 6444   0.221   5.110   2.986
   72CHL1    C7 6445   0.098   5.083   3.170
   72CHL1   H7A 6446   0.181   5.048   3.236
   72CHL1   H7B 6447   0.094   5.191   3.195
   72CHL1    C8 6448   6.813   5.023   3.208
   72CHL1    H8 6449   6.836   4.917   3.230
   72CHL1   C14 6450   6.760   5.095   3.326
   72CHL1   H14 6451   6.739   5.200   3.296
   72CHL1   C15 6452   6.852   5.119   3.450
   72CHL1  H15A 6453   0.055   5.029   3.474
   72CHL1  H15B 6454   0.077   5.193   3.434
   72CHL1   C16 6455   6.760   5.126   3.566
   72CHL1  H16A 6456   6.773   5.034   3.626
   72CHL1  H16B 6457   6.781   5.211   3.634
   72CHL1   C17 6458   6.618   5.133   3.501
   72CHL1   H17 6459   6.603   5.239   3.470
   72CHL1   C13 6460   6.623   5.048   3.375
   72CHL1   C18 6461   6.626   4.898   3.399
   72CHL1  H18A 6462   6.697   4.869   3.480
   72CHL1  H18B 6463   6.531   4.854   3.435
   72CHL1  H18C 6464   6.653   4.842   3.307
   72CHL1   C12 6465   6.524   5.078   3.264
   72CHL1  H12A 6466   6.421   5.043   3.289
   72CHL1  H12B 6467   6.521   5.188   3.249
   72CHL1   C11 6468   6.565   5.009   3.138
   72CHL1  H11A 6469   6.541   4.901   3.131
   72CHL1  H11B 6470   6.496   5.057   3.065
   72CHL1    C9 6471   6.715   5.038   3.093
   72CHL1    H9 6472   6.724   5.146   3.068
   72CHL1   C10 6473   6.771   4.962   2.973
   72CHL1   C19 6474   6.763   4.805   2.998
   72CHL1  H19A 6475   6.660   4.764   3.011
   72CHL1  H19B 6476   6.800   4.760   2.904
   72CHL1  H19C 6477   6.829   4.764   3.078
   72CHL1    C1 6478   6.668   5.000   2.858
   72CHL1   H1A 6479   6.568   4.953   2.871
   72CHL1   H1B 6480   6.656   5.108   2.877
   72CHL1    C2 6481   6.710   4.975   2.713
   72CHL1   H2A 6482   6.624   5.012   2.654
   72CHL1   H2B 6483   6.728   4.865   2.707
   72CHL1   C20 6484   6.491   5.109   3.592
   72CHL1   H20 6485   6.409   5.059   3.535
   72CHL1   C21 6486   6.447   5.253   3.632
   72CHL1  H21A 6487   6.516   5.308   3.699
   72CHL1  H21B 6488   6.340   5.256   3.658
   72CHL1  H21C 6489   6.442   5.317   3.541
   72CHL1   C22 6490   6.520   5.030   3.716
   72CHL1  H22A 6491   6.579   4.943   3.677
   72CHL1  H22B 6492   6.585   5.089   3.783
   72CHL1   C23 6493   6.396   4.979   3.792
   72CHL1  H23A 6494   6.317   5.054   3.813
   72CHL1  H23B 6495   6.347   4.910   3.720
   72CHL1   C24 6496   6.417   4.897   3.919
   72CHL1  H24A 6497   6.483   4.810   3.904
   72CHL1  H24B 6498   6.480   4.962   3.984
   72CHL1   C25 6499   6.286   4.833   3.979
   72CHL1   H25 6500   6.248   4.764   3.901
   72CHL1   C26 6501   6.325   4.744   4.104
   72CHL1  H26A 6502   6.229   4.716   4.153
   72CHL1  H26B 6503   6.382   4.657   4.066
   72CHL1  H26C 6504   6.388   4.809   4.168
   72CHL1   C27 6505   6.183   4.941   4.012
   72CHL1  H27A 6506   6.222   5.034   4.059
   72CHL1  H27B 6507   6.131   4.964   3.917
   72CHL1  H27C 6508   6.102   4.905   4.079
   73CHL1    C3 6509   1.022   5.523   3.004
   73CHL1    H3 6510   0.948   5.600   3.032
   73CHL1    O3 6511   1.008   5.476   2.869
   73CHL1   H3' 6512   1.038   5.551   2.817
   73CHL1    C4 6513   1.164   5.565   3.033
   73CHL1   H4A 6514   1.229   5.481   3.003
   73CHL1   H4B 6515   1.176   5.643   2.955
   73CHL1    C5 6516   1.192   5.595   3.177
   73CHL1    C6 6517   1.254   5.712   3.218
   73CHL1    H6 6518   1.280   5.790   3.146
   73CHL1    C7 6519   1.293   5.735   3.359
   73CHL1   H7A 6520   1.398   5.771   3.355
   73CHL1   H7B 6521   1.228   5.809   3.410
   73CHL1    C8 6522   1.276   5.604   3.448
   73CHL1    H8 6523   1.362   5.538   3.430
   73CHL1   C14 6524   1.278   5.636   3.595
   73CHL1   H14 6525   1.198   5.710   3.616
   73CHL1   C15 6526   1.400   5.700   3.654
   73CHL1  H15A 6527   1.499   5.657   3.629
   73CHL1  H15B 6528   1.400   5.811   3.646
   73CHL1   C16 6529   1.391   5.688   3.803
   73CHL1  H16A 6530   1.485   5.644   3.842
   73CHL1  H16B 6531   1.379   5.785   3.855
   73CHL1   C17 6532   1.269   5.590   3.829
   73CHL1   H17 6533   1.177   5.653   3.831
   73CHL1   C13 6534   1.255   5.522   3.694
   73CHL1   C18 6535   1.369   5.416   3.676
   73CHL1  H18A 6536   1.384   5.392   3.568
   73CHL1  H18B 6537   1.469   5.432   3.722
   73CHL1  H18C 6538   1.325   5.319   3.707
   73CHL1   C12 6539   1.115   5.461   3.665
   73CHL1  H12A 6540   1.094   5.374   3.731
   73CHL1  H12B 6541   1.046   5.545   3.687
   73CHL1   C11 6542   1.100   5.421   3.515
   73CHL1  H11A 6543   1.166   5.333   3.499
   73CHL1  H11B 6544   0.992   5.398   3.500
   73CHL1    C9 6545   1.143   5.533   3.419
   73CHL1    H9 6546   1.064   5.609   3.433
   73CHL1   C10 6547   1.146   5.483   3.279
   73CHL1   C19 6548   1.246   5.367   3.247
   73CHL1  H19A 6549   1.352   5.394   3.262
   73CHL1  H19B 6550   1.229   5.280   3.315
   73CHL1  H19C 6551   1.234   5.337   3.141
   73CHL1    C1 6552   1.001   5.436   3.241
   73CHL1   H1A 6553   0.977   5.341   3.294
   73CHL1   H1B 6554   0.923   5.504   3.282
   73CHL1    C2 6555   0.974   5.413   3.093
   73CHL1   H2A 6556   0.865   5.403   3.076
   73CHL1   H2B 6557   1.009   5.316   3.050
   73CHL1   C20 6558   1.284   5.513   3.963
   73CHL1   H20 6559   1.375   5.451   3.946
   73CHL1   C21 6560   1.161   5.433   3.984
   73CHL1  H21A 6561   1.149   5.379   4.081
   73CHL1  H21B 6562   1.157   5.354   3.906
   73CHL1  H21C 6563   1.064   5.485   3.970
   73CHL1   C22 6564   1.309   5.604   4.085
   73CHL1  H22A 6565   1.393   5.675   4.064
   73CHL1  H22B 6566   1.214   5.644   4.125
   73CHL1   C23 6567   1.363   5.533   4.214
   73CHL1  H23A 6568   1.275   5.485   4.261
   73CHL1  H23B 6569   1.440   5.464   4.174
   73CHL1   C24 6570   1.418   5.626   4.328
   73CHL1  H24A 6571   1.492   5.695   4.283
   73CHL1  H24B 6572   1.339   5.690   4.376
   73CHL1   C25 6573   1.484   5.551   4.443
   73CHL1   H25 6574   1.576   5.502   4.403
   73CHL1   C26 6575   1.544   5.657   4.541
   73CHL1  H26A 6576   1.607   5.723   4.478
   73CHL1  H26B 6577   1.469   5.717   4.596
   73CHL1  H26C 6578   1.608   5.608   4.619
   73CHL1   C27 6579   1.390   5.457   4.513
   73CHL1  H27A 6580   1.447   5.427   4.603
   73CHL1  H27B 6581   1.304   5.514   4.553
   73CHL1  H27C 6582   1.358   5.369   4.452
   74CHL1    C3 6583   0.948   4.653   2.584
   74CHL1    H3 6584   0.844   4.693   2.588
   74CHL1    O3 6585   0.997   4.635   2.456
   74CHL1   H3' 6586   1.066   4.569   2.465
   74CHL1    C4 6587   1.028   4.752   2.665
   74CHL1   H4A 6588   1.135   4.726   2.650
   74CHL1   H4B 6589   0.995   4.844   2.613
   74CHL1    C5 6590   0.998   4.751   2.811
   74CHL1    C6 6591   0.936   4.858   2.861
   74CHL1    H6 6592   0.925   4.955   2.809
   74CHL1    C7 6593   0.896   4.877   3.004
   74CHL1   H7A 6594   0.948   4.969   3.040
   74CHL1   H7B 6595   0.788   4.904   2.998
   74CHL1    C8 6596   0.929   4.758   3.098
   74CHL1    H8 6597   1.034   4.772   3.133
   74CHL1   C14 6598   0.838   4.746   3.216
   74CHL1   H14 6599   0.734   4.736   3.180
   74CHL1   C15 6600   0.850   4.869   3.314
   74CHL1  H15A 6601   0.957   4.890   3.338
   74CHL1  H15B 6602   0.800   4.958   3.270
   74CHL1   C16 6603   0.766   4.824   3.429
   74CHL1  H16A 6604   0.809   4.875   3.518
   74CHL1  H16B 6605   0.663   4.860   3.408
   74CHL1   C17 6606   0.770   4.667   3.429
   74CHL1   H17 6607   0.675   4.619   3.396
   74CHL1   C13 6608   0.867   4.630   3.311
   74CHL1   C18 6609   1.016   4.634   3.366
   74CHL1  H18A 6610   1.077   4.618   3.274
   74CHL1  H18B 6611   1.042   4.730   3.413
   74CHL1  H18C 6612   1.033   4.545   3.431
   74CHL1   C12 6613   0.836   4.501   3.242
   74CHL1  H12A 6614   0.855   4.413   3.307
   74CHL1  H12B 6615   0.728   4.506   3.219
   74CHL1   C11 6616   0.915   4.492   3.108
   74CHL1  H11A 6617   1.020   4.487   3.142
   74CHL1  H11B 6618   0.880   4.400   3.057
   74CHL1    C9 6619   0.907   4.626   3.022
   74CHL1    H9 6620   0.802   4.636   2.989
   74CHL1   C10 6621   0.991   4.613   2.885
   74CHL1   C19 6622   1.133   4.570   2.930
   74CHL1  H19A 6623   1.197   4.556   2.840
   74CHL1  H19B 6624   1.184   4.654   2.982
   74CHL1  H19C 6625   1.149   4.482   2.997
   74CHL1    C1 6626   0.918   4.498   2.805
   74CHL1   H1A 6627   0.946   4.396   2.840
   74CHL1   H1B 6628   0.808   4.506   2.815
   74CHL1    C2 6629   0.945   4.510   2.653
   74CHL1   H2A 6630   0.866   4.454   2.598
   74CHL1   H2B 6631   1.035   4.447   2.634
   74CHL1   C20 6632   0.779   4.606   3.569
   74CHL1   H20 6633   0.874   4.641   3.616
   74CHL1   C21 6634   0.793   4.457   3.560
   74CHL1  H21A 6635   0.694   4.416   3.529
   74CHL1  H21B 6636   0.817   4.411   3.658
   74CHL1  H21C 6637   0.872   4.430   3.487
   74CHL1   C22 6638   0.667   4.639   3.668
   74CHL1  H22A 6639   0.655   4.749   3.674
   74CHL1  H22B 6640   0.565   4.607   3.641
   74CHL1   C23 6641   0.691   4.606   3.817
   74CHL1  H23A 6642   0.681   4.495   3.819
   74CHL1  H23B 6643   0.790   4.643   3.850
   74CHL1   C24 6644   0.582   4.675   3.909
   74CHL1  H24A 6645   0.583   4.783   3.884
   74CHL1  H24B 6646   0.484   4.632   3.878
   74CHL1   C25 6647   0.608   4.657   4.057
   74CHL1   H25 6648   0.713   4.691   4.070
   74CHL1   C26 6649   0.506   4.740   4.139
   74CHL1  H26A 6650   0.533   4.845   4.116
   74CHL1  H26B 6651   0.401   4.716   4.111
   74CHL1  H26C 6652   0.519   4.732   4.249
   74CHL1   C27 6653   0.586   4.509   4.093
   74CHL1  H27A 6654   0.484   4.479   4.060
   74CHL1  H27B 6655   0.656   4.447   4.034
   74CHL1  H27C 6656   0.608   4.491   4.200
   75CHL1    C3 6657   0.827   3.588   2.577
   75CHL1    H3 6658   0.744   3.520   2.551
   75CHL1    O3 6659   0.925   3.595   2.474
   75CHL1   H3' 6660   0.996   3.653   2.504
   75CHL1    C4 6661   0.774   3.731   2.611
   75CHL1   H4A 6662   0.857   3.800   2.639
   75CHL1   H4B 6663   0.727   3.779   2.523
   75CHL1    C5 6664   0.672   3.731   2.722
   75CHL1    C6 6665   0.544   3.762   2.698
   75CHL1    H6 6666   0.509   3.791   2.598
   75CHL1    C7 6667   0.448   3.781   2.812
   75CHL1   H7A 6668   0.401   3.882   2.813
   75CHL1   H7B 6669   0.366   3.706   2.810
   75CHL1    C8 6670   0.513   3.775   2.958
   75CHL1    H8 6671   0.569   3.869   2.974
   75CHL1   C14 6672   0.407   3.758   3.064
   75CHL1   H14 6673   0.358   3.660   3.047
   75CHL1   C15 6674   0.302   3.868   3.078
   75CHL1  H15A 6675   0.331   3.975   3.069
   75CHL1  H15B 6676   0.230   3.841   2.997
   75CHL1   C16 6677   0.248   3.853   3.221
   75CHL1  H16A 6678   0.231   3.946   3.280
   75CHL1  H16B 6679   0.140   3.830   3.216
   75CHL1   C17 6680   0.344   3.750   3.295
   75CHL1   H17 6681   0.284   3.657   3.285
   75CHL1   C13 6682   0.466   3.745   3.203
   75CHL1   C18 6683   0.556   3.869   3.238
   75CHL1  H18A 6684   0.645   3.873   3.171
   75CHL1  H18B 6685   0.497   3.963   3.228
   75CHL1  H18C 6686   0.586   3.865   3.345
   75CHL1   C12 6687   0.543   3.606   3.198
   75CHL1  H12A 6688   0.573   3.566   3.297
   75CHL1  H12B 6689   0.471   3.534   3.156
   75CHL1   C11 6690   0.659   3.606   3.096
   75CHL1  H11A 6691   0.744   3.670   3.129
   75CHL1  H11B 6692   0.698   3.504   3.075
   75CHL1    C9 6693   0.607   3.658   2.954
   75CHL1    H9 6694   0.544   3.576   2.914
   75CHL1   C10 6695   0.728   3.684   2.854
   75CHL1   C19 6696   0.828   3.785   2.916
   75CHL1  H19A 6697   0.881   3.752   3.009
   75CHL1  H19B 6698   0.916   3.810   2.853
   75CHL1  H19C 6699   0.778   3.882   2.934
   75CHL1    C1 6700   0.801   3.545   2.823
   75CHL1   H1A 6701   0.864   3.514   2.909
   75CHL1   H1B 6702   0.717   3.474   2.813
   75CHL1    C2 6703   0.895   3.536   2.702
   75CHL1   H2A 6704   0.935   3.432   2.693
   75CHL1   H2B 6705   0.981   3.604   2.716
   75CHL1   C20 6706   0.370   3.771   3.449
   75CHL1   H20 6707   0.394   3.877   3.473
   75CHL1   C21 6708   0.477   3.684   3.510
   75CHL1  H21A 6709   0.496   3.704   3.617
   75CHL1  H21B 6710   0.568   3.702   3.448
   75CHL1  H21C 6711   0.458   3.576   3.488
   75CHL1   C22 6712   0.232   3.751   3.510
   75CHL1  H22A 6713   0.162   3.832   3.481
   75CHL1  H22B 6714   0.191   3.654   3.472
   75CHL1   C23 6715   0.236   3.741   3.665
   75CHL1  H23A 6716   0.302   3.660   3.703
   75CHL1  H23B 6717   0.286   3.829   3.711
   75CHL1   C24 6718   0.101   3.718   3.730
   75CHL1  H24A 6719   0.034   3.801   3.699
   75CHL1  H24B 6720   0.050   3.623   3.704
   75CHL1   C25 6721   0.123   3.715   3.881
   75CHL1   H25 6722   0.205   3.785   3.909
   75CHL1   C26 6723   0.001   3.768   3.966
   75CHL1  H26A 6724   6.771   3.705   3.935
   75CHL1  H26B 6725   0.019   3.764   4.075
   75CHL1  H26C 6726   6.838   3.873   3.934
   75CHL1   C27 6727   0.156   3.573   3.942
   75CHL1  H27A 6728   0.240   3.516   3.898
   75CHL1  H27B 6729   0.177   3.575   4.051
   75CHL1  H27C 6730   0.070   3.506   3.922
   76CHL1    C3 6731   6.541   5.515   2.398
   76CHL1    H3 6732   6.450   5.569   2.364
   76CHL1    O3 6733   6.622   5.493   2.278
   76CHL1   H3' 6734   6.699   5.447   2.313
   76CHL1    C4 6735   6.621   5.591   2.495
   76CHL1   H4A 6736   6.718   5.537   2.507
   76CHL1   H4B 6737   6.661   5.685   2.453
   76CHL1    C5 6738   6.550   5.607   2.627
   76CHL1    C6 6739   6.529   5.727   2.688
   76CHL1    H6 6740   6.571   5.812   2.632
   76CHL1    C7 6741   6.459   5.753   2.824
   76CHL1   H7A 6742   6.537   5.801   2.887
   76CHL1   H7B 6743   6.362   5.807   2.821
   76CHL1    C8 6744   6.438   5.611   2.896
   76CHL1    H8 6745   6.536   5.602   2.947
   76CHL1   C14 6746   6.336   5.621   3.014
   76CHL1   H14 6747   6.237   5.640   2.967
   76CHL1   C15 6748   6.341   5.745   3.102
   76CHL1  H15A 6749   6.442   5.766   3.143
   76CHL1  H15B 6750   6.313   5.840   3.052
   76CHL1   C16 6751   6.243   5.707   3.216
   76CHL1  H16A 6752   6.289   5.737   3.313
   76CHL1  H16B 6753   6.144   5.757   3.213
   76CHL1   C17 6754   6.221   5.553   3.214
   76CHL1   H17 6755   6.122   5.543   3.166
   76CHL1   C13 6756   6.324   5.501   3.110
   76CHL1   C18 6757   6.464   5.472   3.181
   76CHL1  H18A 6758   6.448   5.381   3.243
   76CHL1  H18B 6759   6.546   5.450   3.109
   76CHL1  H18C 6760   6.485   5.561   3.244
   76CHL1   C12 6761   6.285   5.390   3.013
   76CHL1  H12A 6762   6.263   5.301   3.074
   76CHL1  H12B 6763   6.188   5.426   2.971
   76CHL1   C11 6764   6.382   5.364   2.893
   76CHL1  H11A 6765   6.476   5.325   2.937
   76CHL1  H11B 6766   6.338   5.285   2.829
   76CHL1    C9 6767   6.404   5.491   2.809
   76CHL1    H9 6768   6.310   5.523   2.760
   76CHL1   C10 6769   6.499   5.475   2.694
   76CHL1   C19 6770   6.619   5.391   2.738
   76CHL1  H19A 6771   6.580   5.287   2.745
   76CHL1  H19B 6772   6.708   5.394   2.672
   76CHL1  H19C 6773   6.648   5.424   2.840
   76CHL1    C1 6774   6.421   5.403   2.582
   76CHL1   H1A 6775   6.409   5.307   2.635
   76CHL1   H1B 6776   6.320   5.448   2.568
   76CHL1    C2 6777   6.501   5.380   2.450
   76CHL1   H2A 6778   6.433   5.326   2.381
   76CHL1   H2B 6779   6.593   5.322   2.473
   76CHL1   C20 6780   6.226   5.486   3.350
   76CHL1   H20 6781   6.332   5.501   3.381
   76CHL1   C21 6782   6.191   5.335   3.344
   76CHL1  H21A 6783   6.110   5.316   3.270
   76CHL1  H21B 6784   6.164   5.290   3.442
   76CHL1  H21C 6785   6.274   5.265   3.319
   76CHL1   C22 6786   6.137   5.560   3.462
   76CHL1  H22A 6787   6.146   5.492   3.550
   76CHL1  H22B 6788   6.172   5.663   3.486
   76CHL1   C23 6789   5.982   5.552   3.440
   76CHL1  H23A 6790   5.951   5.616   3.354
   76CHL1  H23B 6791   5.968   5.446   3.410
   76CHL1   C24 6792   5.896   5.591   3.564
   76CHL1  H24A 6793   5.921   5.519   3.644
   76CHL1  H24B 6794   5.903   5.696   3.597
   76CHL1   C25 6795   5.741   5.577   3.536
   76CHL1   H25 6796   5.719   5.468   3.538
   76CHL1   C26 6797   5.647   5.644   3.640
   76CHL1  H26A 6798   5.689   5.737   3.684
   76CHL1  H26B 6799   5.548   5.675   3.601
   76CHL1  H26C 6800   5.617   5.572   3.719
   76CHL1   C27 6801   5.692   5.615   3.397
   76CHL1  H27A 6802   5.583   5.601   3.388
   76CHL1  H27B 6803   5.725   5.720   3.381
   76CHL1  H27C 6804   5.741   5.547   3.325
   77SOPE     N 6805   3.169   3.990   6.523
   77SOPE   HN1 6806   3.200   3.908   6.579
   77SOPE   HN2 6807   3.146   3.952   6.429
   77SOPE   HN3 6808   3.247   4.059   6.516
   77SOPE   C12 6809   3.041   4.026   6.588
   77SOPE  H12A 6810   3.001   4.101   6.516
   77SOPE  H12B 6811   3.065   4.065   6.689
   77SOPE   C11 6812   2.936   3.911   6.589
   77SOPE  H11A 6813   2.927   3.875   6.485
   77SOPE  H11B 6814   2.838   3.947   6.629
   77SOPE     P 6815   3.023   3.673   6.607
   77SOPE   O13 6816   3.034   3.577   6.722
   77SOPE   O14 6817   3.138   3.702   6.521
   77SOPE   O12 6818   2.980   3.806   6.672
   77SOPE   O11 6819   2.902   3.628   6.518
   77SOPE    C1 6820   2.911   3.519   6.427
   77SOPE    HA 6821   2.824   3.452   6.445
   77SOPE    HB 6822   3.006   3.463   6.437
   77SOPE    C2 6823   2.900   3.568   6.281
   77SOPE    HS 6824   2.825   3.650   6.272
   77SOPE   O21 6825   2.858   3.445   6.213
   77SOPE   C21 6826   2.776   3.461   6.115
   77SOPE   O22 6827   2.746   3.566   6.062
   77SOPE   C22 6828   2.706   3.322   6.079
   77SOPE   H2R 6829   2.645   3.294   6.167
   77SOPE   H2S 6830   2.784   3.245   6.062
   77SOPE    C3 6831   3.042   3.605   6.225
   77SOPE    HX 6832   3.095   3.516   6.265
   77SOPE    HY 6833   3.086   3.691   6.280
   77SOPE   O31 6834   3.055   3.617   6.080
   77SOPE   C31 6835   3.001   3.726   6.028
   77SOPE   O32 6836   2.939   3.805   6.095
   77SOPE   C32 6837   3.027   3.735   5.885
   77SOPE   H2X 6838   2.984   3.656   5.819
   77SOPE   H2Y 6839   3.138   3.733   5.876
   77SOPE   C23 6840   2.616   3.325   5.949
   77SOPE   H3R 6841   2.559   3.419   5.928
   77SOPE   H3S 6842   2.545   3.240   5.948
   77SOPE   C24 6843   2.710   3.307   5.829
   77SOPE   H4R 6844   2.786   3.389   5.825
   77SOPE   H4S 6845   2.762   3.209   5.831
   77SOPE   C25 6846   2.641   3.312   5.690
   77SOPE   H5R 6847   2.557   3.239   5.698
   77SOPE   H5S 6848   2.600   3.412   5.666
   77SOPE   C26 6849   2.731   3.268   5.571
   77SOPE   H6R 6850   2.788   3.173   5.586
   77SOPE   H6S 6851   2.657   3.256   5.489
   77SOPE   C27 6852   2.827   3.370   5.516
   77SOPE   H7R 6853   2.787   3.463   5.470
   77SOPE   H7S 6854   2.894   3.402   5.599
   77SOPE   C28 6855   2.904   3.311   5.397
   77SOPE   H8R 6856   2.987   3.380   5.373
   77SOPE   H8S 6857   2.960   3.224   5.438
   77SOPE   C29 6858   2.822   3.278   5.278
   77SOPE   H91 6859   2.749   3.198   5.297
   77SOPE  C210 6860   2.821   3.328   5.151
   77SOPE  H101 6861   2.743   3.294   5.081
   77SOPE  C211 6862   2.899   3.444   5.102
   77SOPE  H11R 6863   3.001   3.424   5.141
   77SOPE  H11S 6864   2.878   3.531   5.168
   77SOPE  C212 6865   2.900   3.473   4.955
   77SOPE  H12R 6866   2.914   3.386   4.887
   77SOPE  H12S 6867   2.990   3.531   4.925
   77SOPE  C213 6868   2.771   3.541   4.912
   77SOPE  H13R 6869   2.777   3.643   4.956
   77SOPE  H13S 6870   2.674   3.502   4.949
   77SOPE  C214 6871   2.776   3.561   4.766
   77SOPE  H14R 6872   2.770   3.464   4.714
   77SOPE  H14S 6873   2.871   3.602   4.724
   77SOPE  C215 6874   2.645   3.639   4.713
   77SOPE  H15R 6875   2.645   3.739   4.761
   77SOPE  H15S 6876   2.551   3.595   4.752
   77SOPE  C216 6877   2.629   3.644   4.559
   77SOPE  H16R 6878   2.711   3.706   4.516
   77SOPE  H16S 6879   2.524   3.677   4.547
   77SOPE  C217 6880   2.639   3.510   4.485
   77SOPE  H17R 6881   2.565   3.458   4.550
   77SOPE  H17S 6882   2.744   3.475   4.497
   77SOPE  C218 6883   2.599   3.519   4.338
   77SOPE  H18R 6884   2.490   3.541   4.329
   77SOPE  H18S 6885   2.627   3.425   4.287
   77SOPE  H18T 6886   2.647   3.604   4.286
   77SOPE   C33 6887   2.987   3.874   5.835
   77SOPE   H3X 6888   3.029   3.954   5.901
   77SOPE   H3Y 6889   2.878   3.875   5.817
   77SOPE   C34 6890   3.054   3.922   5.703
   77SOPE   H4X 6891   3.164   3.933   5.708
   77SOPE   H4Y 6892   3.010   4.017   5.667
   77SOPE   C35 6893   3.037   3.825   5.579
   77SOPE   H5X 6894   2.928   3.808   5.568
   77SOPE   H5Y 6895   3.078   3.722   5.594
   77SOPE   C36 6896   3.097   3.883   5.452
   77SOPE   H6X 6897   3.207   3.892   5.463
   77SOPE   H6Y 6898   3.052   3.983   5.438
   77SOPE   C37 6899   3.065   3.795   5.335
   77SOPE   H7X 6900   2.954   3.793   5.328
   77SOPE   H7Y 6901   3.099   3.694   5.368
   77SOPE   C38 6902   3.125   3.848   5.203
   77SOPE   H8X 6903   3.232   3.818   5.211
   77SOPE   H8Y 6904   3.117   3.958   5.192
   77SOPE   C39 6905   3.070   3.776   5.078
   77SOPE   H9X 6906   2.962   3.801   5.069
   77SOPE   H9Y 6907   3.068   3.665   5.078
   77SOPE  C310 6908   3.157   3.818   4.956
   77SOPE  H10X 6909   3.252   3.761   4.962
   77SOPE  H10Y 6910   3.176   3.923   4.989
   77SOPE  C311 6911   3.081   3.807   4.830
   77SOPE  H11X 6912   2.982   3.855   4.847
   77SOPE  H11Y 6913   3.071   3.701   4.799
   77SOPE  C312 6914   3.147   3.876   4.710
   77SOPE  H12X 6915   3.251   3.837   4.710
   77SOPE  H12Y 6916   3.141   3.987   4.716
   77SOPE  C313 6917   3.082   3.847   4.573
   77SOPE  H13X 6918   2.976   3.876   4.585
   77SOPE  H13Y 6919   3.078   3.739   4.547
   77SOPE  C314 6920   3.159   3.915   4.456
   77SOPE  H14X 6921   3.255   3.860   4.448
   77SOPE  H14Y 6922   3.179   4.023   4.475
   77SOPE  C315 6923   3.092   3.899   4.316
   77SOPE  H15X 6924   2.986   3.931   4.314
   77SOPE  H15Y 6925   3.088   3.791   4.288
   77SOPE  C316 6926   3.157   3.985   4.208
   77SOPE  H16X 6927   3.178   4.088   4.244
   77SOPE  H16Y 6928   3.078   4.009   4.134
   77SOPE  C317 6929   3.267   3.910   4.131
   77SOPE  H17X 6930   3.227   3.809   4.107
   77SOPE  H17Y 6931   3.355   3.902   4.199
   77SOPE  C318 6932   3.292   3.984   3.999
   77SOPE  H18X 6933   3.207   3.965   3.931
   77SOPE  H18Y 6934   3.380   3.942   3.946
   77SOPE  H18Z 6935   3.297   4.095   4.009
   78SOPE     N 6936   2.349   4.057   6.651
   78SOPE   HN1 6937   2.435   4.049   6.593
   78SOPE   HN2 6938   2.266   4.018   6.602
   78SOPE   HN3 6939   2.334   4.157   6.677
   78SOPE   C12 6940   2.351   3.983   6.781
   78SOPE  H12A 6941   2.288   4.031   6.858
   78SOPE  H12B 6942   2.454   3.994   6.821
   78SOPE   C11 6943   2.313   3.827   6.771
   78SOPE  H11A 6944   2.347   3.783   6.868
   78SOPE  H11B 6945   2.364   3.783   6.683
   78SOPE     P 6946   2.091   3.818   6.628
   78SOPE   O13 6947   2.123   3.943   6.556
   78SOPE   O14 6948   1.951   3.791   6.652
   78SOPE   O12 6949   2.170   3.807   6.766
   78SOPE   O11 6950   2.146   3.702   6.550
   78SOPE    C1 6951   2.148   3.565   6.597
   78SOPE    HA 6952   2.075   3.547   6.678
   78SOPE    HB 6953   2.253   3.535   6.616
   78SOPE    C2 6954   2.086   3.471   6.494
   78SOPE    HS 6955   2.077   3.375   6.548
   78SOPE   O21 6956   2.175   3.469   6.383
   78SOPE   C21 6957   2.178   3.369   6.303
   78SOPE   O22 6958   2.134   3.257   6.328
   78SOPE   C22 6959   2.228   3.412   6.165
   78SOPE   H2R 6960   2.333   3.381   6.148
   78SOPE   H2S 6961   2.226   3.523   6.164
   78SOPE    C3 6962   1.943   3.524   6.447
   78SOPE    HX 6963   1.957   3.628   6.410
   78SOPE    HY 6964   1.875   3.538   6.533
   78SOPE   O31 6965   1.890   3.466   6.329
   78SOPE   C31 6966   1.808   3.361   6.350
   78SOPE   O32 6967   1.760   3.331   6.455
   78SOPE   C32 6968   1.788   3.280   6.225
   78SOPE   H2X 6969   1.755   3.184   6.270
   78SOPE   H2Y 6970   1.888   3.259   6.180
   78SOPE   C23 6971   2.145   3.351   6.043
   78SOPE   H3R 6972   2.035   3.352   6.060
   78SOPE   H3S 6973   2.176   3.248   6.016
   78SOPE   C24 6974   2.180   3.446   5.929
   78SOPE   H4R 6975   2.174   3.552   5.964
   78SOPE   H4S 6976   2.281   3.416   5.893
   78SOPE   C25 6977   2.080   3.437   5.810
   78SOPE   H5R 6978   2.052   3.332   5.786
   78SOPE   H5S 6979   1.985   3.485   5.842
   78SOPE   C26 6980   2.125   3.510   5.678
   78SOPE   H6R 6981   2.035   3.539   5.620
   78SOPE   H6S 6982   2.190   3.599   5.692
   78SOPE   C27 6983   2.212   3.419   5.585
   78SOPE   H7R 6984   2.301   3.379   5.640
   78SOPE   H7S 6985   2.142   3.338   5.559
   78SOPE   C28 6986   2.273   3.489   5.454
   78SOPE   H8R 6987   2.196   3.478   5.375
   78SOPE   H8S 6988   2.277   3.600   5.467
   78SOPE   C29 6989   2.412   3.433   5.406
   78SOPE   H91 6990   2.467   3.382   5.487
   78SOPE  C210 6991   2.459   3.422   5.282
   78SOPE  H101 6992   2.557   3.375   5.265
   78SOPE  C211 6993   2.405   3.471   5.156
   78SOPE  H11R 6994   2.463   3.552   5.107
   78SOPE  H11S 6995   2.300   3.507   5.161
   78SOPE  C212 6996   2.408   3.353   5.053
   78SOPE  H12R 6997   2.362   3.263   5.099
   78SOPE  H12S 6998   2.512   3.327   5.024
   78SOPE  C213 6999   2.333   3.398   4.929
   78SOPE  H13R 7000   2.350   3.336   4.838
   78SOPE  H13S 7001   2.362   3.502   4.900
   78SOPE  C214 7002   2.174   3.397   4.937
   78SOPE  H14R 7003   2.143   3.474   5.011
   78SOPE  H14S 7004   2.140   3.299   4.977
   78SOPE  C215 7005   2.095   3.431   4.805
   78SOPE  H15R 7006   2.155   3.504   4.747
   78SOPE  H15S 7007   1.997   3.477   4.830
   78SOPE  C216 7008   2.075   3.312   4.712
   78SOPE  H16R 7009   2.008   3.235   4.754
   78SOPE  H16S 7010   2.168   3.251   4.706
   78SOPE  C217 7011   2.032   3.358   4.571
   78SOPE  H17R 7012   1.945   3.426   4.579
   78SOPE  H17S 7013   1.993   3.263   4.529
   78SOPE  C218 7014   2.143   3.414   4.485
   78SOPE  H18R 7015   2.174   3.509   4.536
   78SOPE  H18S 7016   2.099   3.437   4.386
   78SOPE  H18T 7017   2.236   3.354   4.481
   78SOPE   C33 7018   1.684   3.351   6.130
   78SOPE   H3X 7019   1.721   3.452   6.105
   78SOPE   H3Y 7020   1.586   3.359   6.182
   78SOPE   C34 7021   1.677   3.286   5.993
   78SOPE   H4X 7022   1.631   3.188   6.018
   78SOPE   H4Y 7023   1.774   3.266   5.943
   78SOPE   C35 7024   1.583   3.376   5.900
   78SOPE   H5X 7025   1.490   3.400   5.957
   78SOPE   H5Y 7026   1.557   3.317   5.810
   78SOPE   C36 7027   1.654   3.500   5.849
   78SOPE   H6X 7028   1.756   3.474   5.814
   78SOPE   H6Y 7029   1.658   3.569   5.935
   78SOPE   C37 7030   1.592   3.565   5.721
   78SOPE   H7X 7031   1.648   3.660   5.705
   78SOPE   H7Y 7032   1.486   3.588   5.745
   78SOPE   C38 7033   1.593   3.484   5.594
   78SOPE   H8X 7034   1.503   3.501   5.531
   78SOPE   H8Y 7035   1.609   3.375   5.603
   78SOPE   C39 7036   1.714   3.528   5.503
   78SOPE   H9X 7037   1.803   3.507   5.566
   78SOPE   H9Y 7038   1.718   3.637   5.481
   78SOPE  C310 7039   1.738   3.441   5.379
   78SOPE  H10X 7040   1.657   3.471   5.309
   78SOPE  H10Y 7041   1.731   3.332   5.401
   78SOPE  C311 7042   1.877   3.461   5.326
   78SOPE  H11X 7043   1.944   3.456   5.414
   78SOPE  H11Y 7044   1.900   3.551   5.266
   78SOPE  C312 7045   1.911   3.336   5.233
   78SOPE  H12X 7046   1.898   3.243   5.293
   78SOPE  H12Y 7047   2.018   3.350   5.204
   78SOPE  C313 7048   1.817   3.316   5.105
   78SOPE  H13X 7049   1.846   3.397   5.034
   78SOPE  H13Y 7050   1.712   3.343   5.128
   78SOPE  C314 7051   1.843   3.175   5.050
   78SOPE  H14X 7052   1.805   3.105   5.128
   78SOPE  H14Y 7053   1.953   3.163   5.052
   78SOPE  C315 7054   1.780   3.146   4.906
   78SOPE  H15X 7055   1.814   3.224   4.835
   78SOPE  H15Y 7056   1.671   3.166   4.910
   78SOPE  C316 7057   1.810   3.001   4.862
   78SOPE  H16X 7058   1.800   2.929   4.946
   78SOPE  H16Y 7059   1.917   3.000   4.836
   78SOPE  C317 7060   1.734   2.963   4.733
   78SOPE  H17X 7061   1.644   2.904   4.758
   78SOPE  H17Y 7062   1.806   2.889   4.692
   78SOPE  C318 7063   1.708   3.074   4.636
   78SOPE  H18X 7064   1.663   3.033   4.543
   78SOPE  H18Y 7065   1.800   3.134   4.618
   78SOPE  H18Z 7066   1.639   3.148   4.683
   79SOPE     N 7067   4.631   1.184   6.525
   79SOPE   HN1 7068   4.671   1.250   6.595
   79SOPE   HN2 7069   4.559   1.136   6.581
   79SOPE   HN3 7070   4.709   1.117   6.509
   79SOPE   C12 7071   4.561   1.249   6.403
   79SOPE  H12A 7072   4.584   1.175   6.324
   79SOPE  H12B 7073   4.625   1.337   6.380
   79SOPE   C11 7074   4.416   1.286   6.428
   79SOPE  H11A 7075   4.370   1.185   6.437
   79SOPE  H11B 7076   4.386   1.331   6.332
   79SOPE     P 7077   4.256   1.392   6.614
   79SOPE   O13 7078   4.276   1.485   6.726
   79SOPE   O14 7079   4.216   1.256   6.650
   79SOPE   O12 7080   4.404   1.370   6.547
   79SOPE   O11 7081   4.164   1.451   6.502
   79SOPE    C1 7082   4.034   1.492   6.517
   79SOPE    HA 7083   4.025   1.558   6.428
   79SOPE    HB 7084   4.021   1.545   6.614
   79SOPE    C2 7085   3.922   1.382   6.505
   79SOPE    HS 7086   3.927   1.330   6.603
   79SOPE   O21 7087   3.954   1.288   6.404
   79SOPE   C21 7088   3.914   1.163   6.424
   79SOPE   O22 7089   3.856   1.127   6.525
   79SOPE   C22 7090   3.969   1.073   6.311
   79SOPE   H2R 7091   3.934   1.112   6.213
   79SOPE   H2S 7092   3.928   0.971   6.329
   79SOPE    C3 7093   3.776   1.441   6.488
   79SOPE    HX 7094   3.758   1.515   6.568
   79SOPE    HY 7095   3.692   1.370   6.496
   79SOPE   O31 7096   3.763   1.509   6.364
   79SOPE   C31 7097   3.728   1.433   6.260
   79SOPE   O32 7098   3.676   1.323   6.266
   79SOPE   C32 7099   3.752   1.514   6.141
   79SOPE   H2X 7100   3.861   1.530   6.132
   79SOPE   H2Y 7101   3.702   1.613   6.157
   79SOPE   C23 7102   4.122   1.073   6.312
   79SOPE   H3R 7103   4.148   1.014   6.402
   79SOPE   H3S 7104   4.149   1.181   6.311
   79SOPE   C24 7105   4.179   1.013   6.187
   79SOPE   H4R 7106   4.287   1.012   6.214
   79SOPE   H4S 7107   4.134   0.912   6.173
   79SOPE   C25 7108   4.159   1.096   6.056
   79SOPE   H5R 7109   4.139   1.027   5.970
   79SOPE   H5S 7110   4.066   1.156   6.059
   79SOPE   C26 7111   4.276   1.193   6.033
   79SOPE   H6R 7112   4.261   1.271   6.110
   79SOPE   H6S 7113   4.368   1.132   6.036
   79SOPE   C27 7114   4.266   1.272   5.903
   79SOPE   H7R 7115   4.262   1.207   5.813
   79SOPE   H7S 7116   4.170   1.327   5.902
   79SOPE   C28 7117   4.378   1.381   5.888
   79SOPE   H8R 7118   4.353   1.447   5.973
   79SOPE   H8S 7119   4.480   1.340   5.903
   79SOPE   C29 7120   4.366   1.461   5.761
   79SOPE   H91 7121   4.301   1.549   5.774
   79SOPE  C210 7122   4.429   1.453   5.646
   79SOPE  H101 7123   4.396   1.524   5.569
   79SOPE  C211 7124   4.545   1.364   5.620
   79SOPE  H11R 7125   4.510   1.282   5.554
   79SOPE  H11S 7126   4.575   1.306   5.709
   79SOPE  C212 7127   4.666   1.436   5.562
   79SOPE  H12R 7128   4.748   1.361   5.575
   79SOPE  H12S 7129   4.685   1.526   5.624
   79SOPE  C213 7130   4.645   1.483   5.416
   79SOPE  H13R 7131   4.708   1.574   5.405
   79SOPE  H13S 7132   4.539   1.510   5.397
   79SOPE  C214 7133   4.706   1.386   5.315
   79SOPE  H14R 7134   4.662   1.285   5.323
   79SOPE  H14S 7135   4.815   1.380   5.335
   79SOPE  C215 7136   4.701   1.427   5.174
   79SOPE  H15R 7137   4.753   1.360   5.103
   79SOPE  H15S 7138   4.748   1.526   5.157
   79SOPE  C216 7139   4.550   1.429   5.117
   79SOPE  H16R 7140   4.550   1.460   5.011
   79SOPE  H16S 7141   4.494   1.509   5.170
   79SOPE  C217 7142   4.481   1.289   5.130
   79SOPE  H17R 7143   4.378   1.295   5.090
   79SOPE  H17S 7144   4.474   1.275   5.240
   79SOPE  C218 7145   4.548   1.171   5.060
   79SOPE  H18R 7146   4.645   1.145   5.107
   79SOPE  H18S 7147   4.548   1.196   4.951
   79SOPE  H18T 7148   4.484   1.082   5.075
   79SOPE   C33 7149   3.702   1.441   6.011
   79SOPE   H3X 7150   3.709   1.515   5.929
   79SOPE   H3Y 7151   3.595   1.411   6.016
   79SOPE   C34 7152   3.790   1.325   5.973
   79SOPE   H4X 7153   3.763   1.240   6.039
   79SOPE   H4Y 7154   3.895   1.345   6.002
   79SOPE   C35 7155   3.790   1.285   5.823
   79SOPE   H5X 7156   3.814   1.366   5.751
   79SOPE   H5Y 7157   3.686   1.250   5.804
   79SOPE   C36 7158   3.897   1.173   5.806
   79SOPE   H6X 7159   3.894   1.097   5.887
   79SOPE   H6Y 7160   3.993   1.228   5.814
   79SOPE   C37 7161   3.877   1.104   5.673
   79SOPE   H7X 7162   3.831   1.166   5.592
   79SOPE   H7Y 7163   3.813   1.014   5.680
   79SOPE   C38 7164   4.011   1.064   5.611
   79SOPE   H8X 7165   4.084   1.023   5.684
   79SOPE   H8Y 7166   4.053   1.162   5.581
   79SOPE   C39 7167   3.995   0.978   5.482
   79SOPE   H9X 7168   3.919   1.017   5.411
   79SOPE   H9Y 7169   3.955   0.876   5.501
   79SOPE  C310 7170   4.126   0.972   5.402
   79SOPE  H10X 7171   4.163   1.067   5.357
   79SOPE  H10Y 7172   4.096   0.913   5.312
   79SOPE  C311 7173   4.247   0.893   5.470
   79SOPE  H11X 7174   4.207   0.790   5.475
   79SOPE  H11Y 7175   4.260   0.941   5.569
   79SOPE  C312 7176   4.361   0.898   5.368
   79SOPE  H12X 7177   4.312   0.887   5.268
   79SOPE  H12Y 7178   4.421   0.808   5.390
   79SOPE  C313 7179   4.459   1.020   5.383
   79SOPE  H13X 7180   4.403   1.113   5.404
   79SOPE  H13Y 7181   4.496   1.036   5.280
   79SOPE  C314 7182   4.578   1.004   5.481
   79SOPE  H14X 7183   4.631   1.101   5.470
   79SOPE  H14Y 7184   4.648   0.923   5.453
   79SOPE  C315 7185   4.530   0.974   5.626
   79SOPE  H15X 7186   4.488   0.873   5.608
   79SOPE  H15Y 7187   4.445   1.038   5.659
   79SOPE  C316 7188   4.639   0.980   5.733
   79SOPE  H16X 7189   4.673   1.084   5.750
   79SOPE  H16Y 7190   4.726   0.913   5.718
   79SOPE  C317 7191   4.577   0.949   5.873
   79SOPE  H17X 7192   4.526   0.850   5.880
   79SOPE  H17Y 7193   4.493   1.019   5.889
   79SOPE  C318 7194   4.672   0.958   5.988
   79SOPE  H18X 7195   4.753   0.882   5.980
   79SOPE  H18Y 7196   4.623   0.947   6.087
   79SOPE  H18Z 7197   4.722   1.057   5.994
   80SOPE     N 7198   1.313   3.455   6.723
   80SOPE   HN1 7199   1.243   3.393   6.677
   80SOPE   HN2 7200   1.372   3.499   6.649
   80SOPE   HN3 7201   1.385   3.389   6.757
   80SOPE   C12 7202   1.254   3.549   6.827
   80SOPE  H12A 7203   1.340   3.608   6.865
   80SOPE  H12B 7204   1.210   3.488   6.909
   80SOPE   C11 7205   1.141   3.616   6.753
   80SOPE  H11A 7206   1.088   3.678   6.827
   80SOPE  H11B 7207   1.066   3.543   6.715
   80SOPE     P 7208   1.097   3.762   6.539
   80SOPE   O13 7209   1.166   3.874   6.473
   80SOPE   O14 7210   0.963   3.784   6.595
   80SOPE   O12 7211   1.191   3.698   6.649
   80SOPE   O11 7212   1.088   3.645   6.434
   80SOPE    C1 7213   1.209   3.581   6.387
   80SOPE    HA 7214   1.176   3.480   6.356
   80SOPE    HB 7215   1.285   3.571   6.468
   80SOPE    C2 7216   1.279   3.651   6.266
   80SOPE    HS 7217   1.285   3.756   6.303
   80SOPE   O21 7218   1.198   3.639   6.153
   80SOPE   C21 7219   1.204   3.730   6.058
   80SOPE   O22 7220   1.280   3.827   6.058
   80SOPE   C22 7221   1.115   3.699   5.936
   80SOPE   H2R 7222   1.185   3.650   5.866
   80SOPE   H2S 7223   1.081   3.799   5.900
   80SOPE    C3 7224   1.421   3.588   6.251
   80SOPE    HX 7225   1.412   3.489   6.201
   80SOPE    HY 7226   1.473   3.572   6.348
   80SOPE   O31 7227   1.504   3.662   6.158
   80SOPE   C31 7228   1.547   3.760   6.208
   80SOPE   O32 7229   1.547   3.792   6.329
   80SOPE   C32 7230   1.615   3.837   6.101
   80SOPE   H2X 7231   1.551   3.925   6.080
   80SOPE   H2Y 7232   1.621   3.777   6.008
   80SOPE   C23 7233   1.004   3.594   5.949
   80SOPE   H3R 7234   0.922   3.646   6.002
   80SOPE   H3S 7235   1.040   3.505   6.005
   80SOPE   C24 7236   0.949   3.549   5.812
   80SOPE   H4R 7237   0.846   3.511   5.826
   80SOPE   H4S 7238   0.946   3.644   5.754
   80SOPE   C25 7239   1.034   3.447   5.733
   80SOPE   H5R 7240   1.133   3.444   5.783
   80SOPE   H5S 7241   0.995   3.343   5.732
   80SOPE   C26 7242   1.030   3.488   5.582
   80SOPE   H6R 7243   0.931   3.454   5.544
   80SOPE   H6S 7244   1.041   3.597   5.564
   80SOPE   C27 7245   1.138   3.405   5.509
   80SOPE   H7R 7246   1.231   3.444   5.556
   80SOPE   H7S 7247   1.141   3.294   5.515
   80SOPE   C28 7248   1.168   3.426   5.361
   80SOPE   H8R 7249   1.185   3.535   5.352
   80SOPE   H8S 7250   1.267   3.390   5.328
   80SOPE   C29 7251   1.068   3.375   5.258
   80SOPE   H91 7252   1.067   3.265   5.244
   80SOPE  C210 7253   0.974   3.452   5.194
   80SOPE  H101 7254   0.913   3.415   5.110
   80SOPE  C211 7255   0.950   3.597   5.216
   80SOPE  H11R 7256   0.970   3.635   5.319
   80SOPE  H11S 7257   0.843   3.624   5.202
   80SOPE  C212 7258   1.034   3.690   5.126
   80SOPE  H12R 7259   1.141   3.664   5.139
   80SOPE  H12S 7260   1.032   3.787   5.179
   80SOPE  C213 7261   1.003   3.698   4.971
   80SOPE  H13R 7262   0.901   3.736   4.948
   80SOPE  H13S 7263   1.000   3.593   4.935
   80SOPE  C214 7264   1.108   3.772   4.889
   80SOPE  H14R 7265   1.205   3.719   4.901
   80SOPE  H14S 7266   1.144   3.863   4.942
   80SOPE  C215 7267   1.076   3.802   4.742
   80SOPE  H15R 7268   1.005   3.887   4.727
   80SOPE  H15S 7269   1.038   3.712   4.690
   80SOPE  C216 7270   1.206   3.843   4.664
   80SOPE  H16R 7271   1.294   3.786   4.701
   80SOPE  H16S 7272   1.225   3.951   4.679
   80SOPE  C217 7273   1.192   3.810   4.514
   80SOPE  H17R 7274   1.121   3.879   4.463
   80SOPE  H17S 7275   1.158   3.705   4.504
   80SOPE  C218 7276   1.326   3.821   4.441
   80SOPE  H18R 7277   1.309   3.798   4.334
   80SOPE  H18S 7278   1.392   3.741   4.481
   80SOPE  H18T 7279   1.369   3.924   4.444
   80SOPE   C33 7280   1.757   3.884   6.133
   80SOPE   H3X 7281   1.819   3.816   6.195
   80SOPE   H3Y 7282   1.759   3.977   6.194
   80SOPE   C34 7283   1.845   3.894   6.002
   80SOPE   H4X 7284   1.949   3.921   6.029
   80SOPE   H4Y 7285   1.804   3.976   5.940
   80SOPE   C35 7286   1.856   3.774   5.905
   80SOPE   H5X 7287   1.766   3.736   5.853
   80SOPE   H5Y 7288   1.891   3.679   5.951
   80SOPE   C36 7289   1.965   3.803   5.794
   80SOPE   H6X 7290   2.033   3.715   5.794
   80SOPE   H6Y 7291   2.026   3.891   5.825
   80SOPE   C37 7292   1.908   3.837   5.659
   80SOPE   H7X 7293   1.854   3.934   5.663
   80SOPE   H7Y 7294   1.831   3.771   5.615
   80SOPE   C38 7295   2.020   3.874   5.549
   80SOPE   H8X 7296   2.118   3.841   5.592
   80SOPE   H8Y 7297   2.017   3.985   5.543
   80SOPE   C39 7298   1.998   3.819   5.411
   80SOPE   H9X 7299   1.899   3.856   5.378
   80SOPE   H9Y 7300   2.000   3.708   5.414
   80SOPE  C310 7301   2.099   3.876   5.308
   80SOPE  H10X 7302   2.200   3.836   5.329
   80SOPE  H10Y 7303   2.108   3.987   5.315
   80SOPE  C311 7304   2.062   3.841   5.164
   80SOPE  H11X 7305   1.969   3.892   5.132
   80SOPE  H11Y 7306   2.036   3.733   5.165
   80SOPE  C312 7307   2.160   3.886   5.052
   80SOPE  H12X 7308   2.245   3.817   5.072
   80SOPE  H12Y 7309   2.198   3.990   5.057
   80SOPE  C313 7310   2.115   3.857   4.905
   80SOPE  H13X 7311   2.016   3.906   4.891
   80SOPE  H13Y 7312   2.084   3.750   4.903
   80SOPE  C314 7313   2.224   3.896   4.809
   80SOPE  H14X 7314   2.327   3.858   4.827
   80SOPE  H14Y 7315   2.241   4.006   4.805
   80SOPE  C315 7316   2.179   3.846   4.670
   80SOPE  H15X 7317   2.095   3.907   4.631
   80SOPE  H15Y 7318   2.158   3.737   4.676
   80SOPE  C316 7319   2.278   3.867   4.561
   80SOPE  H16X 7320   2.375   3.815   4.580
   80SOPE  H16Y 7321   2.301   3.976   4.566
   80SOPE  C317 7322   2.234   3.821   4.423
   80SOPE  H17X 7323   2.141   3.876   4.400
   80SOPE  H17Y 7324   2.206   3.714   4.419
   80SOPE  C318 7325   2.339   3.846   4.318
   80SOPE  H18X 7326   2.288   3.848   4.219
   80SOPE  H18Y 7327   2.420   3.770   4.314
   80SOPE  H18Z 7328   2.375   3.951   4.319
   81SOPE     N 7329   4.722   1.864   6.670
   81SOPE   HN1 7330   4.692   1.848   6.768
   81SOPE   HN2 7331   4.803   1.808   6.638
   81SOPE   HN3 7332   4.736   1.967   6.662
   81SOPE   C12 7333   4.607   1.821   6.579
   81SOPE  H12A 7334   4.625   1.860   6.477
   81SOPE  H12B 7335   4.517   1.874   6.618
   81SOPE   C11 7336   4.580   1.668   6.599
   81SOPE  H11A 7337   4.497   1.638   6.532
   81SOPE  H11B 7338   4.560   1.657   6.707
   81SOPE     P 7339   4.780   1.494   6.662
   81SOPE   O13 7340   4.713   1.364   6.694
   81SOPE   O14 7341   4.823   1.572   6.775
   81SOPE   O12 7342   4.703   1.588   6.561
   81SOPE   O11 7343   4.903   1.452   6.579
   81SOPE    C1 7344   4.960   1.544   6.480
   81SOPE    HA 7345   5.069   1.540   6.496
   81SOPE    HB 7346   4.939   1.653   6.484
   81SOPE    C2 7347   4.924   1.499   6.337
   81SOPE    HS 7348   4.984   1.552   6.260
   81SOPE   O21 7349   4.789   1.526   6.313
   81SOPE   C21 7350   4.763   1.651   6.271
   81SOPE   O22 7351   4.845   1.740   6.276
   81SOPE   C22 7352   4.618   1.669   6.225
   81SOPE   H2R 7353   4.567   1.692   6.321
   81SOPE   H2S 7354   4.578   1.569   6.199
   81SOPE    C3 7355   4.953   1.349   6.301
   81SOPE    HX 7356   4.882   1.286   6.358
   81SOPE    HY 7357   5.055   1.327   6.339
   81SOPE   O31 7358   4.948   1.331   6.157
   81SOPE   C31 7359   4.828   1.343   6.108
   81SOPE   O32 7360   4.719   1.315   6.159
   81SOPE   C32 7361   4.851   1.399   5.963
   81SOPE   H2X 7362   4.757   1.448   5.931
   81SOPE   H2Y 7363   4.875   1.311   5.899
   81SOPE   C23 7364   4.577   1.788   6.137
   81SOPE   H3R 7365   4.618   1.889   6.158
   81SOPE   H3S 7366   4.467   1.798   6.148
   81SOPE   C24 7367   4.600   1.752   5.985
   81SOPE   H4R 7368   4.705   1.775   5.955
   81SOPE   H4S 7369   4.595   1.645   5.959
   81SOPE   C25 7370   4.503   1.815   5.892
   81SOPE   H5R 7371   4.511   1.770   5.791
   81SOPE   H5S 7372   4.401   1.783   5.921
   81SOPE   C26 7373   4.499   1.971   5.879
   81SOPE   H6R 7374   4.468   1.992   5.984
   81SOPE   H6S 7375   4.600   2.009   5.853
   81SOPE   C27 7376   4.397   2.020   5.777
   81SOPE   H7R 7377   4.432   2.003   5.673
   81SOPE   H7S 7378   4.317   1.943   5.775
   81SOPE   C28 7379   4.342   2.164   5.809
   81SOPE   H8R 7380   4.253   2.170   5.743
   81SOPE   H8S 7381   4.301   2.175   5.912
   81SOPE   C29 7382   4.436   2.278   5.800
   81SOPE   H91 7383   4.485   2.306   5.894
   81SOPE  C210 7384   4.485   2.346   5.699
   81SOPE  H101 7385   4.554   2.431   5.712
   81SOPE  C211 7386   4.441   2.325   5.554
   81SOPE  H11R 7387   4.375   2.404   5.512
   81SOPE  H11S 7388   4.372   2.239   5.540
   81SOPE  C212 7389   4.566   2.321   5.465
   81SOPE  H12R 7390   4.639   2.247   5.503
   81SOPE  H12S 7391   4.599   2.427   5.466
   81SOPE  C213 7392   4.541   2.284   5.314
   81SOPE  H13R 7393   4.506   2.180   5.306
   81SOPE  H13S 7394   4.645   2.289   5.275
   81SOPE  C214 7395   4.450   2.385   5.234
   81SOPE  H14R 7396   4.504   2.481   5.236
   81SOPE  H14S 7397   4.356   2.393   5.294
   81SOPE  C215 7398   4.409   2.350   5.090
   81SOPE  H15R 7399   4.328   2.416   5.052
   81SOPE  H15S 7400   4.377   2.243   5.091
   81SOPE  C216 7401   4.532   2.376   4.999
   81SOPE  H16R 7402   4.610   2.300   5.024
   81SOPE  H16S 7403   4.566   2.480   5.017
   81SOPE  C217 7404   4.498   2.366   4.843
   81SOPE  H17R 7405   4.427   2.452   4.843
   81SOPE  H17S 7406   4.445   2.271   4.822
   81SOPE  C218 7407   4.617   2.371   4.747
   81SOPE  H18R 7408   4.692   2.290   4.762
   81SOPE  H18S 7409   4.679   2.462   4.754
   81SOPE  H18T 7410   4.581   2.351   4.644
   81SOPE   C33 7411   4.966   1.501   5.949
   81SOPE   H3X 7412   5.062   1.445   5.955
   81SOPE   H3Y 7413   4.958   1.582   6.024
   81SOPE   C34 7414   4.971   1.583   5.818
   81SOPE   H4X 7415   5.029   1.676   5.834
   81SOPE   H4Y 7416   4.870   1.604   5.776
   81SOPE   C35 7417   5.044   1.512   5.704
   81SOPE   H5X 7418   5.006   1.408   5.714
   81SOPE   H5Y 7419   5.153   1.516   5.725
   81SOPE   C36 7420   5.030   1.581   5.569
   81SOPE   H6X 7421   5.002   1.687   5.582
   81SOPE   H6Y 7422   4.945   1.529   5.520
   81SOPE   C37 7423   5.150   1.551   5.482
   81SOPE   H7X 7424   5.178   1.444   5.475
   81SOPE   H7Y 7425   5.232   1.601   5.539
   81SOPE   C38 7426   5.135   1.609   5.340
   81SOPE   H8X 7427   5.124   1.718   5.360
   81SOPE   H8Y 7428   5.041   1.569   5.296
   81SOPE   C39 7429   5.257   1.577   5.259
   81SOPE   H9X 7430   5.285   1.470   5.242
   81SOPE   H9Y 7431   5.335   1.632   5.316
   81SOPE  C310 7432   5.256   1.627   5.114
   81SOPE  H10X 7433   5.354   1.621   5.062
   81SOPE  H10Y 7434   5.226   1.734   5.119
   81SOPE  C311 7435   5.161   1.536   5.039
   81SOPE  H11X 7436   5.075   1.505   5.101
   81SOPE  H11Y 7437   5.222   1.444   5.025
   81SOPE  C312 7438   5.129   1.589   4.894
   81SOPE  H12X 7439   5.224   1.582   4.836
   81SOPE  H12Y 7440   5.097   1.695   4.904
   81SOPE  C313 7441   5.025   1.525   4.805
   81SOPE  H13X 7442   4.935   1.502   4.866
   81SOPE  H13Y 7443   5.061   1.421   4.792
   81SOPE  C314 7444   4.994   1.607   4.683
   81SOPE  H14X 7445   5.087   1.619   4.625
   81SOPE  H14Y 7446   4.986   1.710   4.723
   81SOPE  C315 7447   4.873   1.568   4.604
   81SOPE  H15X 7448   4.780   1.565   4.665
   81SOPE  H15Y 7449   4.879   1.463   4.570
   81SOPE  C316 7450   4.843   1.668   4.484
   81SOPE  H16X 7451   4.928   1.681   4.414
   81SOPE  H16Y 7452   4.819   1.770   4.522
   81SOPE  C317 7453   4.726   1.608   4.402
   81SOPE  H17X 7454   4.638   1.617   4.470
   81SOPE  H17Y 7455   4.752   1.505   4.369
   81SOPE  C318 7456   4.711   1.698   4.280
   81SOPE  H18X 7457   4.798   1.683   4.213
   81SOPE  H18Y 7458   4.710   1.805   4.311
   81SOPE  H18Z 7459   4.617   1.671   4.228
   82SOPE     N 7460   1.480   1.306   6.385
   82SOPE   HN1 7461   1.570   1.355   6.399
   82SOPE   HN2 7462   1.498   1.237   6.310
   82SOPE   HN3 7463   1.397   1.359   6.350
   82SOPE   C12 7464   1.466   1.237   6.512
   82SOPE  H12A 7465   1.378   1.169   6.515
   82SOPE  H12B 7466   1.455   1.318   6.587
   82SOPE   C11 7467   1.589   1.152   6.551
   82SOPE  H11A 7468   1.664   1.227   6.584
   82SOPE  H11B 7469   1.631   1.091   6.468
   82SOPE     P 7470   1.636   0.981   6.748
   82SOPE   O13 7471   1.551   0.889   6.830
   82SOPE   O14 7472   1.743   1.059   6.818
   82SOPE   O12 7473   1.541   1.080   6.665
   82SOPE   O11 7474   1.699   0.898   6.627
   82SOPE    C1 7475   1.673   0.757   6.613
   82SOPE    HA 7476   1.619   0.712   6.700
   82SOPE    HB 7477   1.773   0.710   6.610
   82SOPE    C2 7478   1.602   0.727   6.475
   82SOPE    HS 7479   1.573   0.620   6.483
   82SOPE   O21 7480   1.690   0.763   6.363
   82SOPE   C21 7481   1.767   0.669   6.329
   82SOPE   O22 7482   1.795   0.576   6.402
   82SOPE   C22 7483   1.816   0.679   6.183
   82SOPE   H2R 7484   1.733   0.638   6.122
   82SOPE   H2S 7485   1.913   0.627   6.170
   82SOPE    C3 7486   1.466   0.810   6.460
   82SOPE    HX 7487   1.509   0.908   6.432
   82SOPE    HY 7488   1.422   0.804   6.562
   82SOPE   O31 7489   1.371   0.760   6.368
   82SOPE   C31 7490   1.412   0.780   6.245
   82SOPE   O32 7491   1.505   0.849   6.211
   82SOPE   C32 7492   1.328   0.695   6.146
   82SOPE   H2X 7493   1.225   0.683   6.185
   82SOPE   H2Y 7494   1.375   0.594   6.138
   82SOPE   C23 7495   1.847   0.827   6.139
   82SOPE   H3R 7496   1.947   0.860   6.172
   82SOPE   H3S 7497   1.761   0.887   6.176
   82SOPE   C24 7498   1.851   0.817   5.982
   82SOPE   H4R 7499   1.926   0.741   5.953
   82SOPE   H4S 7500   1.756   0.767   5.954
   82SOPE   C25 7501   1.862   0.956   5.910
   82SOPE   H5R 7502   1.769   1.016   5.918
   82SOPE   H5S 7503   1.944   1.009   5.963
   82SOPE   C26 7504   1.921   0.950   5.767
   82SOPE   H6R 7505   1.972   1.048   5.761
   82SOPE   H6S 7506   1.999   0.872   5.755
   82SOPE   C27 7507   1.817   0.925   5.658
   82SOPE   H7R 7508   1.785   0.819   5.649
   82SOPE   H7S 7509   1.730   0.988   5.688
   82SOPE   C28 7510   1.875   0.957   5.523
   82SOPE   H8R 7511   1.924   1.056   5.510
   82SOPE   H8S 7512   1.953   0.884   5.492
   82SOPE   C29 7513   1.761   0.951   5.424
   82SOPE   H91 7514   1.662   0.975   5.467
   82SOPE  C210 7515   1.762   0.908   5.297
   82SOPE  H101 7516   1.668   0.916   5.240
   82SOPE  C211 7517   1.883   0.873   5.224
   82SOPE  H11R 7518   1.892   0.765   5.200
   82SOPE  H11S 7519   1.972   0.881   5.290
   82SOPE  C212 7520   1.927   0.942   5.096
   82SOPE  H12R 7521   1.852   0.932   5.015
   82SOPE  H12S 7522   2.021   0.891   5.067
   82SOPE  C213 7523   1.959   1.093   5.117
   82SOPE  H13R 7524   2.024   1.107   5.206
   82SOPE  H13S 7525   1.859   1.137   5.135
   82SOPE  C214 7526   2.034   1.158   5.002
   82SOPE  H14R 7527   2.140   1.124   5.000
   82SOPE  H14S 7528   2.035   1.268   5.016
   82SOPE  C215 7529   1.982   1.121   4.864
   82SOPE  H15R 7530   1.872   1.125   4.879
   82SOPE  H15S 7531   2.005   1.013   4.850
   82SOPE  C216 7532   2.025   1.205   4.748
   82SOPE  H16R 7533   2.136   1.217   4.745
   82SOPE  H16S 7534   1.988   1.307   4.769
   82SOPE  C217 7535   1.972   1.154   4.605
   82SOPE  H17R 7536   2.006   1.048   4.599
   82SOPE  H17S 7537   2.027   1.221   4.536
   82SOPE  C218 7538   1.821   1.157   4.578
   82SOPE  H18R 7539   1.781   1.233   4.649
   82SOPE  H18S 7540   1.768   1.066   4.612
   82SOPE  H18T 7541   1.794   1.189   4.475
   82SOPE   C33 7542   1.319   0.769   6.006
   82SOPE   H3X 7543   1.327   0.878   6.024
   82SOPE   H3Y 7544   1.221   0.753   5.957
   82SOPE   C34 7545   1.436   0.730   5.920
   82SOPE   H4X 7546   1.420   0.621   5.908
   82SOPE   H4Y 7547   1.539   0.743   5.960
   82SOPE   C35 7548   1.422   0.787   5.774
   82SOPE   H5X 7549   1.452   0.889   5.744
   82SOPE   H5Y 7550   1.316   0.779   5.744
   82SOPE   C36 7551   1.485   0.690   5.671
   82SOPE   H6X 7552   1.445   0.589   5.695
   82SOPE   H6Y 7553   1.594   0.689   5.691
   82SOPE   C37 7554   1.440   0.733   5.531
   82SOPE   H7X 7555   1.478   0.834   5.503
   82SOPE   H7Y 7556   1.329   0.740   5.530
   82SOPE   C38 7557   1.495   0.632   5.425
   82SOPE   H8X 7558   1.454   0.535   5.459
   82SOPE   H8Y 7559   1.605   0.633   5.435
   82SOPE   C39 7560   1.456   0.672   5.281
   82SOPE   H9X 7561   1.478   0.781   5.269
   82SOPE   H9Y 7562   1.351   0.650   5.252
   82SOPE  C310 7563   1.553   0.606   5.181
   82SOPE  H10X 7564   1.527   0.499   5.170
   82SOPE  H10Y 7565   1.659   0.603   5.214
   82SOPE  C311 7566   1.551   0.690   5.048
   82SOPE  H11X 7567   1.562   0.798   5.072
   82SOPE  H11Y 7568   1.455   0.673   4.994
   82SOPE  C312 7569   1.668   0.665   4.948
   82SOPE  H12X 7570   1.655   0.567   4.899
   82SOPE  H12Y 7571   1.766   0.659   5.000
   82SOPE  C313 7572   1.673   0.781   4.842
   82SOPE  H13X 7573   1.697   0.872   4.902
   82SOPE  H13Y 7574   1.570   0.801   4.804
   82SOPE  C314 7575   1.765   0.751   4.722
   82SOPE  H14X 7576   1.858   0.703   4.760
   82SOPE  H14Y 7577   1.794   0.846   4.673
   82SOPE  C315 7578   1.701   0.656   4.613
   82SOPE  H15X 7579   1.600   0.684   4.578
   82SOPE  H15Y 7580   1.690   0.559   4.666
   82SOPE  C316 7581   1.798   0.652   4.500
   82SOPE  H16X 7582   1.897   0.627   4.544
   82SOPE  H16Y 7583   1.806   0.754   4.455
   82SOPE  C317 7584   1.748   0.554   4.397
   82SOPE  H17X 7585   1.646   0.580   4.360
   82SOPE  H17Y 7586   1.731   0.453   4.440
   82SOPE  C318 7587   1.842   0.543   4.271
   82SOPE  H18X 7588   1.857   0.644   4.229
   82SOPE  H18Y 7589   1.798   0.475   4.195
   82SOPE  H18Z 7590   1.943   0.508   4.301
   83SOPE     N 7591   1.868   2.477   1.841
   83SOPE   HN1 7592   1.899   2.542   1.765
   83SOPE   HN2 7593   1.898   2.521   1.930
   83SOPE   HN3 7594   1.913   2.386   1.819
   83SOPE   C12 7595   1.714   2.466   1.835
   83SOPE  H12A 7596   1.693   2.373   1.893
   83SOPE  H12B 7597   1.689   2.443   1.730
   83SOPE   C11 7598   1.658   2.598   1.884
   83SOPE  H11A 7599   1.720   2.623   1.973
   83SOPE  H11B 7600   1.555   2.587   1.924
   83SOPE     P 7601   1.543   2.718   1.691
   83SOPE   O13 7602   1.525   2.607   1.598
   83SOPE   O14 7603   1.563   2.845   1.619
   83SOPE   O12 7604   1.662   2.695   1.789
   83SOPE   O11 7605   1.422   2.730   1.797
   83SOPE    C1 7606   1.387   2.847   1.869
   83SOPE    HA 7607   1.276   2.844   1.876
   83SOPE    HB 7608   1.416   2.941   1.819
   83SOPE    C2 7609   1.452   2.857   2.009
   83SOPE    HS 7610   1.563   2.861   1.999
   83SOPE   O21 7611   1.415   2.740   2.085
   83SOPE   C21 7612   1.511   2.684   2.170
   83SOPE   O22 7613   1.610   2.743   2.218
   83SOPE   C22 7614   1.459   2.546   2.221
   83SOPE   H2R 7615   1.456   2.484   2.129
   83SOPE   H2S 7616   1.355   2.553   2.257
   83SOPE    C3 7617   1.406   2.985   2.090
   83SOPE    HX 7618   1.295   2.989   2.082
   83SOPE    HY 7619   1.446   3.079   2.049
   83SOPE   O31 7620   1.442   2.981   2.229
   83SOPE   C31 7621   1.455   3.094   2.291
   83SOPE   O32 7622   1.420   3.202   2.243
   83SOPE   C32 7623   1.494   3.076   2.438
   83SOPE   H2X 7624   1.594   3.121   2.457
   83SOPE   H2Y 7625   1.509   2.967   2.447
   83SOPE   C23 7626   1.549   2.480   2.328
   83SOPE   H3R 7627   1.642   2.538   2.346
   83SOPE   H3S 7628   1.582   2.383   2.287
   83SOPE   C24 7629   1.468   2.438   2.451
   83SOPE   H4R 7630   1.379   2.380   2.421
   83SOPE   H4S 7631   1.531   2.370   2.513
   83SOPE   C25 7632   1.440   2.548   2.553
   83SOPE   H5R 7633   1.538   2.588   2.587
   83SOPE   H5S 7634   1.375   2.623   2.505
   83SOPE   C26 7635   1.384   2.487   2.686
   83SOPE   H6R 7636   1.275   2.481   2.669
   83SOPE   H6S 7637   1.408   2.379   2.700
   83SOPE   C27 7638   1.423   2.566   2.811
   83SOPE   H7R 7639   1.533   2.577   2.807
   83SOPE   H7S 7640   1.382   2.668   2.792
   83SOPE   C28 7641   1.366   2.508   2.943
   83SOPE   H8R 7642   1.375   2.590   3.016
   83SOPE   H8S 7643   1.261   2.484   2.915
   83SOPE   C29 7644   1.430   2.385   3.003
   83SOPE   H91 7645   1.359   2.306   3.031
   83SOPE  C210 7646   1.563   2.366   3.028
   83SOPE  H101 7647   1.593   2.270   3.072
   83SOPE  C211 7648   1.678   2.465   3.008
   83SOPE  H11R 7649   1.631   2.565   2.999
   83SOPE  H11S 7650   1.727   2.435   2.913
   83SOPE  C212 7651   1.779   2.474   3.126
   83SOPE  H12R 7652   1.729   2.453   3.223
   83SOPE  H12S 7653   1.821   2.577   3.128
   83SOPE  C213 7654   1.890   2.370   3.126
   83SOPE  H13R 7655   1.959   2.388   3.041
   83SOPE  H13S 7656   1.840   2.272   3.114
   83SOPE  C214 7657   1.979   2.378   3.254
   83SOPE  H14R 7658   1.918   2.343   3.340
   83SOPE  H14S 7659   2.009   2.485   3.251
   83SOPE  C215 7660   2.096   2.282   3.241
   83SOPE  H15R 7661   2.175   2.305   3.166
   83SOPE  H15S 7662   2.048   2.186   3.212
   83SOPE  C216 7663   2.165   2.260   3.373
   83SOPE  H16R 7664   2.252   2.194   3.353
   83SOPE  H16S 7665   2.106   2.203   3.448
   83SOPE  C217 7666   2.227   2.393   3.447
   83SOPE  H17R 7667   2.155   2.477   3.441
   83SOPE  H17S 7668   2.304   2.438   3.380
   83SOPE  C218 7669   2.283   2.361   3.581
   83SOPE  H18R 7670   2.388   2.326   3.581
   83SOPE  H18S 7671   2.223   2.288   3.640
   83SOPE  H18T 7672   2.289   2.453   3.643
   83SOPE   C33 7673   1.379   3.121   2.528
   83SOPE   H3X 7674   1.282   3.084   2.489
   83SOPE   H3Y 7675   1.368   3.232   2.524
   83SOPE   C34 7676   1.396   3.076   2.666
   83SOPE   H4X 7677   1.495   3.117   2.698
   83SOPE   H4Y 7678   1.367   2.970   2.685
   83SOPE   C35 7679   1.290   3.138   2.759
   83SOPE   H5X 7680   1.189   3.105   2.727
   83SOPE   H5Y 7681   1.300   3.248   2.744
   83SOPE   C36 7682   1.322   3.116   2.905
   83SOPE   H6X 7683   1.423   3.154   2.929
   83SOPE   H6Y 7684   1.315   3.007   2.925
   83SOPE   C37 7685   1.221   3.188   3.006
   83SOPE   H7X 7686   1.122   3.168   2.960
   83SOPE   H7Y 7687   1.247   3.296   3.009
   83SOPE   C38 7688   1.235   3.128   3.142
   83SOPE   H8X 7689   1.337   3.162   3.171
   83SOPE   H8Y 7690   1.228   3.017   3.136
   83SOPE   C39 7691   1.127   3.167   3.250
   83SOPE   H9X 7692   1.024   3.154   3.210
   83SOPE   H9Y 7693   1.153   3.273   3.271
   83SOPE  C310 7694   1.126   3.088   3.388
   83SOPE  H10X 7695   1.232   3.067   3.413
   83SOPE  H10Y 7696   1.068   2.994   3.373
   83SOPE  C311 7697   1.074   3.186   3.498
   83SOPE  H11X 7698   0.971   3.214   3.466
   83SOPE  H11Y 7699   1.136   3.278   3.504
   83SOPE  C312 7700   1.060   3.118   3.635
   83SOPE  H12X 7701   1.142   3.046   3.658
   83SOPE  H12Y 7702   0.975   3.047   3.631
   83SOPE  C313 7703   1.030   3.215   3.755
   83SOPE  H13X 7704   0.932   3.260   3.728
   83SOPE  H13Y 7705   1.109   3.294   3.751
   83SOPE  C314 7706   1.026   3.152   3.891
   83SOPE  H14X 7707   1.121   3.104   3.922
   83SOPE  H14Y 7708   0.961   3.064   3.872
   83SOPE  C315 7709   0.972   3.233   4.006
   83SOPE  H15X 7710   1.010   3.336   3.989
   83SOPE  H15Y 7711   1.030   3.193   4.092
   83SOPE  C316 7712   0.822   3.234   4.046
   83SOPE  H16X 7713   0.802   3.125   4.059
   83SOPE  H16Y 7714   0.750   3.269   3.970
   83SOPE  C317 7715   0.805   3.320   4.171
   83SOPE  H17X 7716   0.814   3.427   4.141
   83SOPE  H17Y 7717   0.895   3.311   4.236
   83SOPE  C318 7718   0.673   3.313   4.241
   83SOPE  H18X 7719   0.663   3.383   4.326
   83SOPE  H18Y 7720   0.668   3.212   4.289
   83SOPE  H18Z 7721   0.584   3.310   4.174
   84SOPE     N 7722   0.719   1.227   2.190
   84SOPE   HN1 7723   0.690   1.159   2.116
   84SOPE   HN2 7724   0.793   1.293   2.158
   84SOPE   HN3 7725   0.764   1.162   2.258
   84SOPE   C12 7726   0.591   1.285   2.245
   84SOPE  H12A 7727   0.548   1.350   2.166
   84SOPE  H12B 7728   0.618   1.349   2.332
   84SOPE   C11 7729   0.488   1.188   2.281
   84SOPE  H11A 7730   0.388   1.237   2.283
   84SOPE  H11B 7731   0.514   1.151   2.382
   84SOPE     P 7732   0.412   0.947   2.203
   84SOPE   O13 7733   0.500   0.833   2.250
   84SOPE   O14 7734   0.336   0.936   2.073
   84SOPE   O12 7735   0.490   1.077   2.187
   84SOPE   O11 7736   0.313   0.979   2.318
   84SOPE    C1 7737   0.170   0.953   2.310
   84SOPE    HA 7738   0.143   0.856   2.263
   84SOPE    HB 7739   0.125   1.026   2.239
   84SOPE    C2 7740   0.104   0.969   2.449
   84SOPE    HS 7741   6.854   1.000   2.451
   84SOPE   O21 7742   0.179   1.054   2.536
   84SOPE   C21 7743   0.192   1.173   2.486
   84SOPE   O22 7744   0.129   1.223   2.397
   84SOPE   C22 7745   0.296   1.242   2.587
   84SOPE   H2R 7746   0.349   1.324   2.533
   84SOPE   H2S 7747   0.370   1.166   2.620
   84SOPE    C3 7748   0.087   0.822   2.509
   84SOPE    HX 7749   0.171   0.753   2.488
   84SOPE    HY 7750   6.853   0.784   2.457
   84SOPE   O31 7751   0.068   0.817   2.651
   84SOPE   C31 7752   6.796   0.838   2.693
   84SOPE   O32 7753   6.699   0.848   2.621
   84SOPE   C32 7754   6.792   0.847   2.849
   84SOPE   H2X 7755   6.764   0.949   2.883
   84SOPE   H2Y 7756   0.035   0.811   2.881
   84SOPE   C23 7757   0.240   1.303   2.714
   84SOPE   H3R 7758   0.153   1.370   2.698
   84SOPE   H3S 7759   0.330   1.360   2.746
   84SOPE   C24 7760   0.201   1.204   2.828
   84SOPE   H4R 7761   0.105   1.156   2.797
   84SOPE   H4S 7762   0.283   1.129   2.833
   84SOPE   C25 7763   0.185   1.259   2.973
   84SOPE   H5R 7764   0.274   1.317   3.005
   84SOPE   H5S 7765   0.095   1.325   2.981
   84SOPE   C26 7766   0.160   1.134   3.063
   84SOPE   H6R 7767   0.101   1.179   3.145
   84SOPE   H6S 7768   0.091   1.063   3.012
   84SOPE   C27 7769   0.285   1.064   3.118
   84SOPE   H7R 7770   0.306   0.992   3.035
   84SOPE   H7S 7771   0.359   1.146   3.121
   84SOPE   C28 7772   0.277   0.984   3.253
   84SOPE   H8R 7773   0.205   0.900   3.241
   84SOPE   H8S 7774   0.375   0.936   3.271
   84SOPE   C29 7775   0.228   1.077   3.358
   84SOPE   H91 7776   0.299   1.157   3.384
   84SOPE  C210 7777   0.107   1.063   3.421
   84SOPE  H101 7778   0.074   1.130   3.501
   84SOPE  C211 7779   6.852   0.962   3.400
   84SOPE  H11R 7780   0.031   0.868   3.353
   84SOPE  H11S 7781   6.772   1.014   3.344
   84SOPE  C212 7782   6.800   0.926   3.535
   84SOPE  H12R 7783   6.702   0.872   3.532
   84SOPE  H12S 7784   6.786   1.022   3.588
   84SOPE  C213 7785   0.035   0.827   3.616
   84SOPE  H13R 7786   0.140   0.862   3.629
   84SOPE  H13S 7787   0.036   0.731   3.561
   84SOPE  C214 7788   6.823   0.796   3.746
   84SOPE  H14R 7789   6.822   0.691   3.782
   84SOPE  H14S 7790   6.714   0.815   3.738
   84SOPE  C215 7791   0.033   0.880   3.855
   84SOPE  H15R 7792   0.041   0.985   3.819
   84SOPE  H15S 7793   0.135   0.842   3.875
   84SOPE  C216 7794   6.809   0.892   3.989
   84SOPE  H16R 7795   6.802   0.790   4.032
   84SOPE  H16S 7796   6.705   0.925   3.965
   84SOPE  C217 7797   0.027   0.992   4.078
   84SOPE  H17R 7798   6.817   1.024   4.162
   84SOPE  H17S 7799   0.046   1.082   4.015
   84SOPE  C218 7800   0.157   0.938   4.134
   84SOPE  H18R 7801   0.235   0.921   4.056
   84SOPE  H18S 7802   0.145   0.835   4.175
   84SOPE  H18T 7803   0.203   1.000   4.214
   84SOPE   C33 7804   6.697   0.738   2.912
   84SOPE   H3X 7805   6.733   0.642   2.871
   84SOPE   H3Y 7806   6.592   0.753   2.880
   84SOPE   C34 7807   6.702   0.750   3.067
   84SOPE   H4X 7808   6.664   0.853   3.085
   84SOPE   H4Y 7809   6.804   0.737   3.109
   84SOPE   C35 7810   6.628   0.644   3.137
   84SOPE   H5X 7811   6.669   0.545   3.109
   84SOPE   H5Y 7812   6.529   0.647   3.086
   84SOPE   C36 7813   6.628   0.662   3.291
   84SOPE   H6X 7814   6.573   0.758   3.307
   84SOPE   H6Y 7815   6.734   0.669   3.325
   84SOPE   C37 7816   6.556   0.541   3.357
   84SOPE   H7X 7817   6.610   0.450   3.324
   84SOPE   H7Y 7818   6.453   0.545   3.316
   84SOPE   C38 7819   6.574   0.554   3.511
   84SOPE   H8X 7820   6.493   0.621   3.547
   84SOPE   H8Y 7821   6.673   0.598   3.534
   84SOPE   C39 7822   6.575   0.426   3.594
   84SOPE   H9X 7823   6.653   0.362   3.547
   84SOPE   H9Y 7824   6.476   0.379   3.576
   84SOPE  C310 7825   6.602   0.435   3.745
   84SOPE  H10X 7826   6.711   0.445   3.761
   84SOPE  H10Y 7827   6.574   0.340   3.795
   84SOPE  C311 7828   6.519   0.553   3.807
   84SOPE  H11X 7829   6.411   0.540   3.781
   84SOPE  H11Y 7830   6.554   0.648   3.761
   84SOPE  C312 7831   6.527   0.556   3.957
   84SOPE  H12X 7832   6.631   0.560   3.996
   84SOPE  H12Y 7833   6.490   0.459   3.995
   84SOPE  C313 7834   6.441   0.668   4.017
   84SOPE  H13X 7835   6.330   0.662   4.012
   84SOPE  H13Y 7836   6.466   0.760   3.961
   84SOPE  C314 7837   6.475   0.687   4.169
   84SOPE  H14X 7838   6.581   0.655   4.173
   84SOPE  H14Y 7839   6.417   0.614   4.230
   84SOPE  C315 7840   6.455   0.831   4.220
   84SOPE  H15X 7841   6.353   0.855   4.181
   84SOPE  H15Y 7842   6.528   0.900   4.172
   84SOPE  C316 7843   6.471   0.855   4.371
   84SOPE  H16X 7844   6.379   0.831   4.429
   84SOPE  H16Y 7845   6.487   0.963   4.388
   84SOPE  C317 7846   6.580   0.784   4.445
   84SOPE  H17X 7847   6.680   0.816   4.409
   84SOPE  H17Y 7848   6.581   0.674   4.427
   84SOPE  C318 7849   6.575   0.809   4.597
   84SOPE  H18X 7850   6.494   0.751   4.647
   84SOPE  H18Y 7851   6.554   0.915   4.621
   84SOPE  H18Z 7852   6.666   0.783   4.655
   85SOPE     N 7853   5.138   4.140   1.983
   85SOPE   HN1 7854   5.048   4.088   1.996
   85SOPE   HN2 7855   5.213   4.067   1.977
   85SOPE   HN3 7856   5.172   4.193   2.066
   85SOPE   C12 7857   5.122   4.214   1.858
   85SOPE  H12A 7858   5.012   4.226   1.867
   85SOPE  H12B 7859   5.153   4.148   1.774
   85SOPE   C11 7860   5.192   4.347   1.871
   85SOPE  H11A 7861   5.199   4.385   1.767
   85SOPE  H11B 7862   5.300   4.341   1.897
   85SOPE     P 7863   5.040   4.547   1.913
   85SOPE   O13 7864   5.048   4.569   1.772
   85SOPE   O14 7865   5.046   4.663   2.006
   85SOPE   O12 7866   5.129   4.434   1.965
   85SOPE   O11 7867   4.909   4.467   1.930
   85SOPE    C1 7868   4.794   4.517   2.003
   85SOPE    HA 7869   4.708   4.466   1.954
   85SOPE    HB 7870   4.776   4.626   1.997
   85SOPE    C2 7871   4.786   4.474   2.153
   85SOPE    HS 7872   4.696   4.523   2.197
   85SOPE   O21 7873   4.895   4.515   2.230
   85SOPE   C21 7874   4.913   4.642   2.256
   85SOPE   O22 7875   4.841   4.733   2.219
   85SOPE   C22 7876   5.040   4.666   2.336
   85SOPE   H2R 7877   5.097   4.731   2.267
   85SOPE   H2S 7878   5.108   4.585   2.369
   85SOPE    C3 7879   4.765   4.318   2.169
   85SOPE    HX 7880   4.852   4.256   2.137
   85SOPE    HY 7881   4.691   4.287   2.092
   85SOPE   O31 7882   4.713   4.277   2.294
   85SOPE   C31 7883   4.799   4.258   2.392
   85SOPE   O32 7884   4.923   4.259   2.380
   85SOPE   C32 7885   4.727   4.225   2.520
   85SOPE   H2X 7886   4.691   4.120   2.515
   85SOPE   H2Y 7887   4.635   4.286   2.529
   85SOPE   C23 7888   5.019   4.753   2.459
   85SOPE   H3R 7889   4.952   4.841   2.452
   85SOPE   H3S 7890   5.123   4.786   2.483
   85SOPE   C24 7891   4.978   4.657   2.571
   85SOPE   H4R 7892   4.879   4.611   2.549
   85SOPE   H4S 7893   5.050   4.573   2.576
   85SOPE   C25 7894   4.963   4.713   2.712
   85SOPE   H5R 7895   5.046   4.786   2.726
   85SOPE   H5S 7896   4.873   4.778   2.713
   85SOPE   C26 7897   4.960   4.619   2.833
   85SOPE   H6R 7898   4.873   4.550   2.843
   85SOPE   H6S 7899   5.055   4.563   2.824
   85SOPE   C27 7900   4.948   4.709   2.959
   85SOPE   H7R 7901   5.040   4.770   2.969
   85SOPE   H7S 7902   4.865   4.782   2.950
   85SOPE   C28 7903   4.912   4.630   3.087
   85SOPE   H8R 7904   4.812   4.584   3.076
   85SOPE   H8S 7905   4.986   4.550   3.109
   85SOPE   C29 7906   4.903   4.728   3.195
   85SOPE   H91 7907   4.864   4.828   3.172
   85SOPE  C210 7908   4.944   4.708   3.321
   85SOPE  H101 7909   4.929   4.779   3.403
   85SOPE  C211 7910   5.006   4.581   3.376
   85SOPE  H11R 7911   5.117   4.582   3.384
   85SOPE  H11S 7912   4.994   4.501   3.300
   85SOPE  C212 7913   4.942   4.536   3.511
   85SOPE  H12R 7914   4.979   4.433   3.527
   85SOPE  H12S 7915   4.832   4.535   3.502
   85SOPE  C213 7916   4.986   4.610   3.640
   85SOPE  H13R 7917   4.974   4.717   3.614
   85SOPE  H13S 7918   5.088   4.589   3.679
   85SOPE  C214 7919   4.890   4.594   3.758
   85SOPE  H14R 7920   4.866   4.486   3.770
   85SOPE  H14S 7921   4.794   4.647   3.739
   85SOPE  C215 7922   4.946   4.649   3.894
   85SOPE  H15R 7923   4.858   4.653   3.962
   85SOPE  H15S 7924   4.987   4.752   3.885
   85SOPE  C216 7925   5.040   4.543   3.953
   85SOPE  H16R 7926   5.143   4.565   3.918
   85SOPE  H16S 7927   5.003   4.446   3.915
   85SOPE  C217 7928   5.055   4.531   4.104
   85SOPE  H17R 7929   4.952   4.516   4.142
   85SOPE  H17S 7930   5.102   4.623   4.146
   85SOPE  C218 7931   5.150   4.418   4.148
   85SOPE  H18R 7932   5.252   4.458   4.127
   85SOPE  H18S 7933   5.145   4.317   4.102
   85SOPE  H18T 7934   5.143   4.401   4.258
   85SOPE   C33 7935   4.816   4.240   2.651
   85SOPE   H3X 7936   4.863   4.340   2.650
   85SOPE   H3Y 7937   4.894   4.161   2.644
   85SOPE   C34 7938   4.736   4.243   2.788
   85SOPE   H4X 7939   4.678   4.149   2.800
   85SOPE   H4Y 7940   4.668   4.331   2.787
   85SOPE   C35 7941   4.829   4.253   2.908
   85SOPE   H5X 7942   4.875   4.352   2.925
   85SOPE   H5Y 7943   4.910   4.177   2.900
   85SOPE   C36 7944   4.761   4.213   3.040
   85SOPE   H6X 7945   4.738   4.105   3.028
   85SOPE   H6Y 7946   4.660   4.258   3.047
   85SOPE   C37 7947   4.854   4.224   3.161
   85SOPE   H7X 7948   4.854   4.332   3.185
   85SOPE   H7Y 7949   4.950   4.174   3.137
   85SOPE   C38 7950   4.795   4.142   3.280
   85SOPE   H8X 7951   4.796   4.034   3.257
   85SOPE   H8Y 7952   4.688   4.170   3.296
   85SOPE   C39 7953   4.856   4.167   3.415
   85SOPE   H9X 7954   4.837   4.275   3.436
   85SOPE   H9Y 7955   4.966   4.161   3.414
   85SOPE  C310 7956   4.804   4.081   3.535
   85SOPE  H10X 7957   4.847   3.978   3.532
   85SOPE  H10Y 7958   4.694   4.083   3.517
   85SOPE  C311 7959   4.851   4.138   3.667
   85SOPE  H11X 7960   4.840   4.248   3.672
   85SOPE  H11Y 7961   4.953   4.115   3.703
   85SOPE  C312 7962   4.756   4.089   3.783
   85SOPE  H12X 7963   4.764   3.978   3.784
   85SOPE  H12Y 7964   4.648   4.105   3.767
   85SOPE  C313 7965   4.798   4.139   3.923
   85SOPE  H13X 7966   4.818   4.248   3.937
   85SOPE  H13Y 7967   4.899   4.099   3.948
   85SOPE  C314 7968   4.699   4.094   4.025
   85SOPE  H14X 7969   4.653   4.000   3.989
   85SOPE  H14Y 7970   4.619   4.172   4.028
   85SOPE  C315 7971   4.759   4.085   4.165
   85SOPE  H15X 7972   4.822   4.174   4.186
   85SOPE  H15Y 7973   4.823   3.994   4.160
   85SOPE  C316 7974   4.643   4.070   4.267
   85SOPE  H16X 7975   4.605   3.967   4.250
   85SOPE  H16Y 7976   4.558   4.140   4.251
   85SOPE  C317 7977   4.682   4.087   4.416
   85SOPE  H17X 7978   4.591   4.097   4.479
   85SOPE  H17Y 7979   4.749   4.176   4.425
   85SOPE  C318 7980   4.760   3.963   4.459
   85SOPE  H18X 7981   4.840   3.941   4.384
   85SOPE  H18Y 7982   4.697   3.872   4.465
   85SOPE  H18Z 7983   4.818   3.981   4.552
   86SOPE     N 7984   4.676   1.698   2.354
   86SOPE   HN1 7985   4.603   1.632   2.388
   86SOPE   HN2 7986   4.630   1.782   2.314
   86SOPE   HN3 7987   4.731   1.649   2.281
   86SOPE   C12 7988   4.754   1.742   2.476
   86SOPE  H12A 7989   4.683   1.750   2.561
   86SOPE  H12B 7990   4.809   1.837   2.455
   86SOPE   C11 7991   4.851   1.632   2.505
   86SOPE  H11A 7992   4.801   1.534   2.521
   86SOPE  H11B 7993   4.911   1.655   2.596
   86SOPE     P 7994   5.081   1.694   2.379
   86SOPE   O13 7995   5.038   1.837   2.366
   86SOPE   O14 7996   5.159   1.645   2.263
   86SOPE   O12 7997   4.939   1.619   2.387
   86SOPE   O11 7998   5.151   1.655   2.520
   86SOPE    C1 7999   5.174   1.513   2.538
   86SOPE    HA 8000   5.280   1.484   2.519
   86SOPE    HB 8001   5.100   1.452   2.482
   86SOPE    C2 8002   5.148   1.487   2.679
   86SOPE    HS 8003   5.044   1.517   2.706
   86SOPE   O21 8004   5.248   1.547   2.771
   86SOPE   C21 8005   5.199   1.603   2.878
   86SOPE   O22 8006   5.084   1.599   2.920
   86SOPE   C22 8007   5.311   1.680   2.945
   86SOPE   H2R 8008   5.307   1.788   2.918
   86SOPE   H2S 8009   5.413   1.636   2.937
   86SOPE    C3 8010   5.152   1.334   2.704
   86SOPE    HX 8011   5.256   1.300   2.682
   86SOPE    HY 8012   5.077   1.289   2.635
   86SOPE   O31 8013   5.130   1.298   2.839
   86SOPE   C31 8014   5.016   1.231   2.859
   86SOPE   O32 8015   4.945   1.177   2.776
   86SOPE   C32 8016   4.989   1.211   3.006
   86SOPE   H2X 8017   4.992   1.103   3.032
   86SOPE   H2Y 8018   4.882   1.239   3.016
   86SOPE   C23 8019   5.294   1.677   3.099
   86SOPE   H3R 8020   5.328   1.576   3.131
   86SOPE   H3S 8021   5.187   1.685   3.129
   86SOPE   C24 8022   5.369   1.789   3.175
   86SOPE   H4R 8023   5.473   1.781   3.136
   86SOPE   H4S 8024   5.335   1.892   3.150
   86SOPE   C25 8025   5.386   1.771   3.325
   86SOPE   H5R 8026   5.397   1.663   3.348
   86SOPE   H5S 8027   5.474   1.826   3.364
   86SOPE   C26 8028   5.257   1.822   3.404
   86SOPE   H6R 8029   5.239   1.930   3.389
   86SOPE   H6S 8030   5.172   1.770   3.355
   86SOPE   C27 8031   5.283   1.811   3.554
   86SOPE   H7R 8032   5.289   1.708   3.594
   86SOPE   H7S 8033   5.371   1.869   3.589
   86SOPE   C28 8034   5.154   1.858   3.626
   86SOPE   H8R 8035   5.188   1.855   3.732
   86SOPE   H8S 8036   5.151   1.967   3.604
   86SOPE   C29 8037   5.019   1.787   3.615
   86SOPE   H91 8038   4.980   1.760   3.516
   86SOPE  C210 8039   4.948   1.752   3.721
   86SOPE  H101 8040   4.847   1.710   3.711
   86SOPE  C211 8041   4.962   1.795   3.866
   86SOPE  H11R 8042   5.038   1.876   3.878
   86SOPE  H11S 8043   5.005   1.704   3.911
   86SOPE  C212 8044   4.831   1.843   3.931
   86SOPE  H12R 8045   4.855   1.844   4.039
   86SOPE  H12S 8046   4.741   1.779   3.919
   86SOPE  C213 8047   4.781   1.981   3.892
   86SOPE  H13R 8048   4.795   1.981   3.782
   86SOPE  H13S 8049   4.847   2.057   3.940
   86SOPE  C214 8050   4.635   2.018   3.899
   86SOPE  H14R 8051   4.567   1.938   3.862
   86SOPE  H14S 8052   4.624   2.108   3.835
   86SOPE  C215 8053   4.589   2.045   4.048
   86SOPE  H15R 8054   4.598   1.952   4.108
   86SOPE  H15S 8055   4.480   2.069   4.042
   86SOPE  C216 8056   4.681   2.148   4.109
   86SOPE  H16R 8057   4.679   2.238   4.044
   86SOPE  H16S 8058   4.786   2.114   4.120
   86SOPE  C217 8059   4.630   2.190   4.247
   86SOPE  H17R 8060   4.612   2.089   4.290
   86SOPE  H17S 8061   4.531   2.238   4.230
   86SOPE  C218 8062   4.724   2.276   4.341
   86SOPE  H18R 8063   4.660   2.307   4.426
   86SOPE  H18S 8064   4.762   2.359   4.278
   86SOPE  H18T 8065   4.813   2.226   4.386
   86SOPE   C33 8066   5.066   1.300   3.110
   86SOPE   H3X 8067   5.046   1.409   3.104
   86SOPE   H3Y 8068   5.176   1.290   3.094
   86SOPE   C34 8069   5.031   1.266   3.254
   86SOPE   H4X 8070   5.035   1.156   3.268
   86SOPE   H4Y 8071   4.924   1.293   3.268
   86SOPE   C35 8072   5.131   1.330   3.345
   86SOPE   H5X 8073   5.150   1.437   3.320
   86SOPE   H5Y 8074   5.230   1.283   3.330
   86SOPE   C36 8075   5.092   1.318   3.495
   86SOPE   H6X 8076   4.982   1.329   3.513
   86SOPE   H6Y 8077   5.143   1.400   3.550
   86SOPE   C37 8078   5.117   1.178   3.551
   86SOPE   H7X 8079   5.227   1.169   3.567
   86SOPE   H7Y 8080   5.084   1.096   3.484
   86SOPE   C38 8081   5.044   1.160   3.683
   86SOPE   H8X 8082   5.056   1.053   3.710
   86SOPE   H8Y 8083   4.934   1.159   3.671
   86SOPE   C39 8084   5.070   1.263   3.791
   86SOPE   H9X 8085   5.024   1.355   3.749
   86SOPE   H9Y 8086   5.176   1.289   3.816
   86SOPE  C310 8087   4.994   1.244   3.923
   86SOPE  H10X 8088   5.042   1.151   3.962
   86SOPE  H10Y 8089   4.893   1.214   3.887
   86SOPE  C311 8090   5.008   1.369   4.006
   86SOPE  H11X 8091   4.966   1.457   3.953
   86SOPE  H11Y 8092   5.119   1.379   4.010
   86SOPE  C312 8093   4.953   1.370   4.147
   86SOPE  H12X 8094   4.844   1.354   4.134
   86SOPE  H12Y 8095   4.960   1.475   4.184
   86SOPE  C313 8096   5.015   1.270   4.243
   86SOPE  H13X 8097   5.030   1.166   4.208
   86SOPE  H13Y 8098   4.937   1.278   4.322
   86SOPE  C314 8099   5.148   1.320   4.309
   86SOPE  H14X 8100   5.124   1.426   4.332
   86SOPE  H14Y 8101   5.231   1.328   4.235
   86SOPE  C315 8102   5.186   1.261   4.450
   86SOPE  H15X 8103   5.240   1.167   4.426
   86SOPE  H15Y 8104   5.094   1.247   4.510
   86SOPE  C316 8105   5.279   1.351   4.522
   86SOPE  H16X 8106   5.237   1.452   4.539
   86SOPE  H16Y 8107   5.366   1.369   4.454
   86SOPE  C317 8108   5.327   1.307   4.664
   86SOPE  H17X 8109   5.364   1.203   4.650
   86SOPE  H17Y 8110   5.240   1.307   4.732
   86SOPE  C318 8111   5.442   1.390   4.716
   86SOPE  H18X 8112   5.471   1.343   4.813
   86SOPE  H18Y 8113   5.419   1.496   4.742
   86SOPE  H18Z 8114   5.531   1.390   4.650
   87SOPE     N 8115   0.019   1.344   2.180
   87SOPE   HN1 8116   0.119   1.332   2.152
   87SOPE   HN2 8117   0.012   1.425   2.245
   87SOPE   HN3 8118   0.007   1.269   2.252
   87SOPE   C12 8119   6.775   1.335   2.071
   87SOPE  H12A 8120   6.781   1.236   2.021
   87SOPE  H12B 8121   6.798   1.405   1.987
   87SOPE   C11 8122   6.625   1.360   2.119
   87SOPE  H11A 8123   6.550   1.380   2.039
   87SOPE  H11B 8124   6.631   1.459   2.170
   87SOPE     P 8125   6.464   1.170   2.199
   87SOPE   O13 8126   6.449   1.127   2.062
   87SOPE   O14 8127   6.345   1.234   2.261
   87SOPE   O12 8128   6.594   1.255   2.213
   87SOPE   O11 8129   6.499   1.039   2.273
   87SOPE    C1 8130   6.486   1.029   2.415
   87SOPE    HA 8131   6.436   1.117   2.461
   87SOPE    HB 8132   6.586   1.008   2.458
   87SOPE    C2 8133   6.403   0.903   2.448
   87SOPE    HS 8134   6.450   0.810   2.410
   87SOPE   O21 8135   6.280   0.926   2.376
   87SOPE   C21 8136   6.227   0.811   2.326
   87SOPE   O22 8137   6.259   0.701   2.369
   87SOPE   C22 8138   6.129   0.839   2.213
   87SOPE   H2R 8139   6.192   0.838   2.121
   87SOPE   H2S 8140   6.107   0.948   2.219
   87SOPE    C3 8141   6.374   0.896   2.603
   87SOPE    HX 8142   6.327   0.993   2.629
   87SOPE    HY 8143   6.475   0.892   2.650
   87SOPE   O31 8144   6.285   0.794   2.634
   87SOPE   C31 8145   6.345   0.682   2.641
   87SOPE   O32 8146   6.464   0.664   2.655
   87SOPE   C32 8147   6.240   0.578   2.645
   87SOPE   H2X 8148   6.276   0.498   2.577
   87SOPE   H2Y 8149   6.143   0.613   2.604
   87SOPE   C23 8150   6.010   0.749   2.197
   87SOPE   H3R 8151   6.033   0.640   2.189
   87SOPE   H3S 8152   5.961   0.771   2.100
   87SOPE   C24 8153   5.911   0.756   2.314
   87SOPE   H4R 8154   5.830   0.682   2.293
   87SOPE   H4S 8155   5.972   0.736   2.405
   87SOPE   C25 8156   5.852   0.892   2.342
   87SOPE   H5R 8157   5.923   0.977   2.329
   87SOPE   H5S 8158   5.763   0.920   2.281
   87SOPE   C26 8159   5.812   0.912   2.491
   87SOPE   H6R 8160   5.728   0.984   2.495
   87SOPE   H6S 8161   5.766   0.816   2.525
   87SOPE   C27 8162   5.921   0.949   2.596
   87SOPE   H7R 8163   6.008   0.892   2.557
   87SOPE   H7S 8164   5.943   1.058   2.597
   87SOPE   C28 8165   5.880   0.899   2.734
   87SOPE   H8R 8166   5.800   0.968   2.769
   87SOPE   H8S 8167   5.844   0.794   2.738
   87SOPE   C29 8168   5.998   0.922   2.829
   87SOPE   H91 8169   6.093   0.879   2.796
   87SOPE  C210 8170   6.007   1.000   2.936
   87SOPE  H101 8171   6.098   1.000   2.998
   87SOPE  C211 8172   5.901   1.090   3.001
   87SOPE  H11R 8173   5.813   1.092   2.933
   87SOPE  H11S 8174   5.938   1.195   3.004
   87SOPE  C212 8175   5.843   1.053   3.140
   87SOPE  H12R 8176   5.786   0.959   3.153
   87SOPE  H12S 8177   5.776   1.135   3.174
   87SOPE  C213 8178   5.948   1.061   3.247
   87SOPE  H13R 8179   6.013   1.145   3.216
   87SOPE  H13S 8180   6.013   0.971   3.246
   87SOPE  C214 8181   5.890   1.100   3.387
   87SOPE  H14R 8182   5.813   1.181   3.384
   87SOPE  H14S 8183   5.971   1.152   3.442
   87SOPE  C215 8184   5.843   0.975   3.462
   87SOPE  H15R 8185   5.929   0.905   3.465
   87SOPE  H15S 8186   5.760   0.926   3.407
   87SOPE  C216 8187   5.799   1.002   3.610
   87SOPE  H16R 8188   5.694   1.036   3.607
   87SOPE  H16S 8189   5.860   1.083   3.655
   87SOPE  C217 8190   5.807   0.878   3.700
   87SOPE  H17R 8191   5.771   0.899   3.803
   87SOPE  H17S 8192   5.911   0.837   3.698
   87SOPE  C218 8193   5.712   0.764   3.648
   87SOPE  H18R 8194   5.741   0.668   3.697
   87SOPE  H18S 8195   5.723   0.742   3.540
   87SOPE  H18T 8196   5.606   0.790   3.668
   87SOPE   C33 8197   6.228   0.522   2.787
   87SOPE   H3X 8198   6.322   0.494   2.838
   87SOPE   H3Y 8199   6.169   0.430   2.770
   87SOPE   C34 8200   6.141   0.619   2.866
   87SOPE   H4X 8201   6.044   0.622   2.812
   87SOPE   H4Y 8202   6.186   0.719   2.880
   87SOPE   C35 8203   6.107   0.567   3.004
   87SOPE   H5X 8204   6.206   0.559   3.055
   87SOPE   H5Y 8205   6.053   0.471   2.992
   87SOPE   C36 8206   6.008   0.655   3.083
   87SOPE   H6X 8207   5.914   0.674   3.027
   87SOPE   H6Y 8208   6.053   0.756   3.087
   87SOPE   C37 8209   5.977   0.602   3.223
   87SOPE   H7X 8210   5.938   0.498   3.213
   87SOPE   H7Y 8211   5.894   0.664   3.263
   87SOPE   C38 8212   6.103   0.605   3.315
   87SOPE   H8X 8213   6.157   0.701   3.297
   87SOPE   H8Y 8214   6.177   0.523   3.301
   87SOPE   C39 8215   6.068   0.615   3.465
   87SOPE   H9X 8216   6.001   0.538   3.508
   87SOPE   H9Y 8217   6.011   0.710   3.463
   87SOPE  C310 8218   6.195   0.643   3.555
   87SOPE  H10X 8219   6.253   0.721   3.502
   87SOPE  H10Y 8220   6.255   0.550   3.568
   87SOPE  C311 8221   6.172   0.691   3.694
   87SOPE  H11X 8222   6.127   0.793   3.687
   87SOPE  H11Y 8223   6.264   0.684   3.757
   87SOPE  C312 8224   6.067   0.602   3.777
   87SOPE  H12X 8225   6.092   0.493   3.779
   87SOPE  H12Y 8226   5.965   0.599   3.733
   87SOPE  C313 8227   6.024   0.666   3.914
   87SOPE  H13X 8228   5.976   0.766   3.901
   87SOPE  H13Y 8229   6.114   0.690   3.975
   87SOPE  C314 8230   5.918   0.577   3.997
   87SOPE  H14X 8231   5.964   0.480   4.023
   87SOPE  H14Y 8232   5.843   0.546   3.920
   87SOPE  C315 8233   5.839   0.653   4.113
   87SOPE  H15X 8234   5.784   0.732   4.058
   87SOPE  H15Y 8235   5.918   0.702   4.175
   87SOPE  C316 8236   5.758   0.562   4.213
   87SOPE  H16X 8237   5.670   0.521   4.160
   87SOPE  H16Y 8238   5.722   0.625   4.297
   87SOPE  C317 8239   5.840   0.446   4.272
   87SOPE  H17X 8240   5.866   0.368   4.198
   87SOPE  H17Y 8241   5.779   0.384   4.341
   87SOPE  C318 8242   5.966   0.490   4.346
   87SOPE  H18X 8243   6.000   0.410   4.415
   87SOPE  H18Y 8244   5.951   0.582   4.407
   87SOPE  H18Z 8245   6.048   0.522   4.277
   88SOPE     N 8246   1.556   6.265   2.235
   88SOPE   HN1 8247   1.616   6.275   2.150
   88SOPE   HN2 8248   1.602   6.314   2.314
   88SOPE   HN3 8249   1.554   6.162   2.247
   88SOPE   C12 8250   1.426   6.332   2.194
   88SOPE  H12A 8251   1.362   6.329   2.284
   88SOPE  H12B 8252   1.381   6.260   2.122
   88SOPE   C11 8253   1.444   6.477   2.132
   88SOPE  H11A 8254   1.344   6.493   2.087
   88SOPE  H11B 8255   1.514   6.459   2.047
   88SOPE     P 8256   1.383   6.664   2.289
   88SOPE   O13 8257   1.296   6.730   2.190
   88SOPE   O14 8258   1.456   6.751   2.383
   88SOPE   O12 8259   1.492   6.575   2.224
   88SOPE   O11 8260   1.295   6.563   2.379
   88SOPE    C1 8261   1.369   6.497   2.482
   88SOPE    HA 8262   1.413   6.579   2.544
   88SOPE    HB 8263   1.438   6.424   2.434
   88SOPE    C2 8264   1.271   6.410   2.569
   88SOPE    HS 8265   1.213   6.347   2.498
   88SOPE   O21 8266   1.180   6.501   2.635
   88SOPE   C21 8267   1.082   6.451   2.703
   88SOPE   O22 8268   1.021   6.346   2.675
   88SOPE   C22 8269   1.039   6.546   2.812
   88SOPE   H2R 8270   0.990   6.637   2.771
   88SOPE   H2S 8271   1.134   6.566   2.866
   88SOPE    C3 8272   1.336   6.320   2.680
   88SOPE    HX 8273   1.435   6.289   2.640
   88SOPE    HY 8274   1.266   6.235   2.684
   88SOPE   O31 8275   1.343   6.390   2.809
   88SOPE   C31 8276   1.458   6.454   2.834
   88SOPE   O32 8277   1.557   6.454   2.764
   88SOPE   C32 8278   1.468   6.495   2.983
   88SOPE   H2X 8279   1.472   6.604   3.003
   88SOPE   H2Y 8280   1.559   6.443   3.020
   88SOPE   C23 8281   0.942   6.496   2.929
   88SOPE   H3R 8282   0.992   6.402   2.960
   88SOPE   H3S 8283   0.840   6.477   2.891
   88SOPE   C24 8284   0.953   6.590   3.054
   88SOPE   H4R 8285   1.060   6.607   3.081
   88SOPE   H4S 8286   0.919   6.694   3.036
   88SOPE   C25 8287   0.881   6.540   3.177
   88SOPE   H5R 8288   0.906   6.432   3.185
   88SOPE   H5S 8289   0.926   6.593   3.264
   88SOPE   C26 8290   0.736   6.556   3.192
   88SOPE   H6R 8291   0.707   6.663   3.179
   88SOPE   H6S 8292   0.696   6.498   3.106
   88SOPE   C27 8293   0.676   6.501   3.321
   88SOPE   H7R 8294   0.569   6.499   3.292
   88SOPE   H7S 8295   0.702   6.394   3.331
   88SOPE   C28 8296   0.718   6.577   3.441
   88SOPE   H8R 8297   0.829   6.578   3.454
   88SOPE   H8S 8298   0.685   6.683   3.433
   88SOPE   C29 8299   0.650   6.516   3.560
   88SOPE   H91 8300   0.719   6.442   3.602
   88SOPE  C210 8301   0.527   6.544   3.608
   88SOPE  H101 8302   0.497   6.492   3.700
   88SOPE  C211 8303   0.430   6.654   3.562
   88SOPE  H11R 8304   0.470   6.715   3.478
   88SOPE  H11S 8305   0.415   6.733   3.639
   88SOPE  C212 8306   0.294   6.589   3.524
   88SOPE  H12R 8307   0.306   6.523   3.436
   88SOPE  H12S 8308   0.221   6.666   3.489
   88SOPE  C213 8309   0.225   6.512   3.634
   88SOPE  H13R 8310   0.206   6.571   3.726
   88SOPE  H13S 8311   0.291   6.429   3.665
   88SOPE  C214 8312   0.090   6.454   3.595
   88SOPE  H14R 8313   0.105   6.388   3.507
   88SOPE  H14S 8314   0.022   6.537   3.568
   88SOPE  C215 8315   0.037   6.366   3.713
   88SOPE  H15R 8316   0.097   6.398   3.800
   88SOPE  H15S 8317   0.066   6.263   3.682
   88SOPE  C216 8318   6.743   6.375   3.739
   88SOPE  H16R 8319   6.733   6.485   3.736
   88SOPE  H16S 8320   6.719   6.335   3.839
   88SOPE  C217 8321   6.665   6.293   3.638
   88SOPE  H17R 8322   6.721   6.200   3.615
   88SOPE  H17S 8323   6.664   6.340   3.537
   88SOPE  C218 8324   6.522   6.266   3.682
   88SOPE  H18R 8325   6.513   6.198   3.769
   88SOPE  H18S 8326   6.468   6.227   3.593
   88SOPE  H18T 8327   6.476   6.359   3.721
   88SOPE   C33 8328   1.346   6.447   3.069
   88SOPE   H3X 8329   1.336   6.337   3.059
   88SOPE   H3Y 8330   1.249   6.492   3.040
   88SOPE   C34 8331   1.372   6.488   3.216
   88SOPE   H4X 8332   1.395   6.596   3.225
   88SOPE   H4Y 8333   1.450   6.423   3.262
   88SOPE   C35 8334   1.246   6.479   3.301
   88SOPE   H5X 8335   1.202   6.379   3.283
   88SOPE   H5Y 8336   1.170   6.557   3.275
   88SOPE   C36 8337   1.256   6.488   3.455
   88SOPE   H6X 8338   1.292   6.590   3.483
   88SOPE   H6Y 8339   1.318   6.405   3.495
   88SOPE   C37 8340   1.123   6.459   3.526
   88SOPE   H7X 8341   1.103   6.350   3.529
   88SOPE   H7Y 8342   1.036   6.500   3.471
   88SOPE   C38 8343   1.117   6.531   3.673
   88SOPE   H8X 8344   1.140   6.638   3.656
   88SOPE   H8Y 8345   1.201   6.482   3.727
   88SOPE   C39 8346   0.979   6.507   3.740
   88SOPE   H9X 8347   0.956   6.403   3.708
   88SOPE   H9Y 8348   0.901   6.573   3.696
   88SOPE  C310 8349   0.993   6.523   3.890
   88SOPE  H10X 8350   1.021   6.623   3.929
   88SOPE  H10Y 8351   1.069   6.446   3.914
   88SOPE  C311 8352   0.864   6.500   3.963
   88SOPE  H11X 8353   0.858   6.391   3.980
   88SOPE  H11Y 8354   0.775   6.539   3.908
   88SOPE  C312 8355   0.845   6.565   4.099
   88SOPE  H12X 8356   0.829   6.675   4.101
   88SOPE  H12Y 8357   0.939   6.542   4.152
   88SOPE  C313 8358   0.734   6.510   4.184
   88SOPE  H13X 8359   0.781   6.427   4.241
   88SOPE  H13Y 8360   0.648   6.477   4.123
   88SOPE  C314 8361   0.664   6.607   4.283
   88SOPE  H14X 8362   0.614   6.690   4.227
   88SOPE  H14Y 8363   0.738   6.638   4.359
   88SOPE  C315 8364   0.553   6.525   4.340
   88SOPE  H15X 8365   0.594   6.426   4.368
   88SOPE  H15Y 8366   0.472   6.507   4.266
   88SOPE  C316 8367   0.494   6.578   4.473
   88SOPE  H16X 8368   0.494   6.688   4.457
   88SOPE  H16Y 8369   0.561   6.559   4.559
   88SOPE  C317 8370   0.357   6.520   4.498
   88SOPE  H17X 8371   0.369   6.409   4.497
   88SOPE  H17Y 8372   0.284   6.547   4.418
   88SOPE  C318 8373   0.291   6.566   4.630
   88SOPE  H18X 8374   0.209   6.501   4.667
   88SOPE  H18Y 8375   0.259   6.672   4.626
   88SOPE  H18Z 8376   0.369   6.558   4.709
   89SAPC     N 8377   4.833   3.983   6.985
   89SAPC   C12 8378   4.765   3.986   6.853
   89SAPC  H12A 8379   4.774   4.082   6.802
   89SAPC  H12B 8380   4.661   3.955   6.851
   89SAPC   C13 8381   4.825   3.841   7.041
   89SAPC  H13A 8382   4.723   3.810   7.058
   89SAPC  H13B 8383   4.864   3.778   6.964
   89SAPC  H13C 8384   4.876   3.813   7.132
   89SAPC   C14 8385   4.978   4.000   6.970
   89SAPC  H14A 8386   5.030   3.992   7.064
   89SAPC  H14B 8387   5.018   3.929   6.899
   89SAPC  H14C 8388   4.999   4.099   6.931
   89SAPC   C15 8389   4.769   4.081   7.077
   89SAPC  H15A 8390   4.661   4.070   7.074
   89SAPC  H15B 8391   4.805   4.077   7.179
   89SAPC  H15C 8392   4.791   4.178   7.036
   89SAPC   C11 8393   4.810   3.876   6.745
   89SAPC  H11A 8394   4.920   3.870   6.747
   89SAPC  H11B 8395   4.775   3.908   6.645
   89SAPC     P 8396   4.617   3.699   6.720
   89SAPC   O13 8397   4.559   3.604   6.814
   89SAPC   O14 8398   4.527   3.812   6.677
   89SAPC   O12 8399   4.755   3.748   6.777
   89SAPC   O11 8400   4.670   3.606   6.593
   89SAPC    C1 8401   4.768   3.654   6.505
   89SAPC    HA 8402   4.848   3.701   6.566
   89SAPC    HB 8403   4.819   3.565   6.463
   89SAPC    C2 8404   4.716   3.726   6.381
   89SAPC    HS 8405   4.631   3.791   6.410
   89SAPC   O21 8406   4.675   3.618   6.289
   89SAPC   C21 8407   4.562   3.641   6.222
   89SAPC   O22 8408   4.485   3.737   6.230
   89SAPC   C22 8409   4.549   3.524   6.124
   89SAPC   H2R 8410   4.654   3.514   6.089
   89SAPC   H2S 8411   4.508   3.438   6.181
   89SAPC    C3 8412   4.827   3.821   6.317
   89SAPC    HX 8413   4.925   3.769   6.305
   89SAPC    HY 8414   4.852   3.906   6.384
   89SAPC   O31 8415   4.790   3.880   6.190
   89SAPC   C31 8416   4.713   3.989   6.184
   89SAPC   O32 8417   4.658   4.041   6.281
   89SAPC   C32 8418   4.706   4.051   6.046
   89SAPC   H2X 8419   4.728   3.969   5.974
   89SAPC   H2Y 8420   4.776   4.137   6.041
   89SAPC   C23 8421   4.460   3.552   5.997
   89SAPC   H3R 8422   4.349   3.553   6.005
   89SAPC   H3S 8423   4.483   3.473   5.923
   89SAPC   C24 8424   4.515   3.688   5.927
   89SAPC   H4R 8425   4.485   3.766   6.000
   89SAPC   H4S 8426   4.454   3.709   5.837
   89SAPC   C25 8427   4.658   3.692   5.895
   89SAPC   H5R 8428   4.717   3.715   5.985
   89SAPC   C26 8429   4.710   3.709   5.775
   89SAPC   H6R 8430   4.819   3.700   5.766
   89SAPC   C27 8431   4.635   3.723   5.645
   89SAPC   H7R 8432   4.708   3.784   5.586
   89SAPC   H7S 8433   4.553   3.796   5.664
   89SAPC   C28 8434   4.582   3.601   5.575
   89SAPC   H8R 8435   4.525   3.538   5.644
   89SAPC   C29 8436   4.589   3.553   5.451
   89SAPC   H9R 8437   4.542   3.456   5.430
   89SAPC  C210 8438   4.666   3.607   5.332
   89SAPC  H10R 8439   4.733   3.525   5.297
   89SAPC  H10S 8440   4.735   3.686   5.368
   89SAPC  C211 8441   4.578   3.656   5.220
   89SAPC  H11R 8442   4.473   3.675   5.248
   89SAPC  C212 8443   4.627   3.691   5.099
   89SAPC  H12R 8444   4.549   3.724   5.028
   89SAPC  C213 8445   4.768   3.677   5.046
   89SAPC  H13R 8446   4.792   3.570   5.028
   89SAPC  H13S 8447   4.829   3.707   5.134
   89SAPC  C214 8448   4.816   3.757   4.930
   89SAPC  H14R 8449   4.861   3.850   4.967
   89SAPC  C215 8450   4.774   3.741   4.804
   89SAPC  H15R 8451   4.820   3.804   4.726
   89SAPC  C216 8452   4.700   3.623   4.757
   89SAPC  H16R 8453   4.724   3.525   4.803
   89SAPC  H16S 8454   4.740   3.619   4.653
   89SAPC  C217 8455   4.551   3.655   4.733
   89SAPC  H17R 8456   4.550   3.753   4.681
   89SAPC  H17S 8457   4.500   3.668   4.831
   89SAPC  C218 8458   4.470   3.556   4.642
   89SAPC  H18R 8459   4.524   3.562   4.545
   89SAPC  H18S 8460   4.365   3.588   4.625
   89SAPC  C219 8461   4.464   3.416   4.703
   89SAPC  H19R 8462   4.451   3.422   4.813
   89SAPC  H19S 8463   4.565   3.377   4.677
   89SAPC  C220 8464   4.357   3.325   4.634
   89SAPC  H20R 8465   4.341   3.237   4.699
   89SAPC  H20S 8466   4.387   3.300   4.530
   89SAPC  H20T 8467   4.258   3.374   4.632
   89SAPC   C33 8468   4.563   4.100   6.006
   89SAPC   H3X 8469   4.506   4.151   6.086
   89SAPC   H3Y 8470   4.506   4.010   5.972
   89SAPC   C34 8471   4.574   4.212   5.898
   89SAPC   H4X 8472   4.642   4.293   5.932
   89SAPC   H4Y 8473   4.472   4.257   5.888
   89SAPC   C35 8474   4.621   4.171   5.754
   89SAPC   H5X 8475   4.711   4.106   5.764
   89SAPC   H5Y 8476   4.652   4.265   5.704
   89SAPC   C36 8477   4.515   4.104   5.669
   89SAPC   H6X 8478   4.424   4.167   5.670
   89SAPC   H6Y 8479   4.493   4.003   5.711
   89SAPC   C37 8480   4.549   4.081   5.521
   89SAPC   H7X 8481   4.639   4.020   5.498
   89SAPC   H7Y 8482   4.566   4.185   5.484
   89SAPC   C38 8483   4.426   4.026   5.437
   89SAPC   H8X 8484   4.455   4.023   5.330
   89SAPC   H8Y 8485   4.346   4.099   5.457
   89SAPC   C39 8486   4.370   3.883   5.462
   89SAPC   H9X 8487   4.335   3.888   5.568
   89SAPC   H9Y 8488   4.452   3.808   5.463
   89SAPC  C310 8489   4.261   3.827   5.376
   89SAPC  H10X 8490   4.288   3.819   5.269
   89SAPC  H10Y 8491   4.189   3.912   5.377
   89SAPC  C311 8492   4.191   3.703   5.434
   89SAPC  H11X 8493   4.243   3.606   5.417
   89SAPC  H11Y 8494   4.094   3.685   5.382
   89SAPC  C312 8495   4.153   3.703   5.582
   89SAPC  H12X 8496   4.086   3.788   5.604
   89SAPC  H12Y 8497   4.248   3.707   5.641
   89SAPC  C313 8498   4.072   3.579   5.623
   89SAPC  H13X 8499   4.065   3.569   5.734
   89SAPC  H13Y 8500   4.126   3.484   5.605
   89SAPC  C314 8501   3.932   3.573   5.573
   89SAPC  H14X 8502   3.928   3.549   5.465
   89SAPC  H14Y 8503   3.883   3.673   5.583
   89SAPC  C315 8504   3.823   3.485   5.638
   89SAPC  H15X 8505   3.720   3.494   5.598
   89SAPC  H15Y 8506   3.808   3.515   5.744
   89SAPC  C316 8507   3.871   3.340   5.648
   89SAPC  H16X 8508   3.790   3.280   5.695
   89SAPC  H16Y 8509   3.963   3.324   5.708
   89SAPC  C317 8510   3.892   3.268   5.512
   89SAPC  H17X 8511   3.958   3.181   5.531
   89SAPC  H17Y 8512   3.951   3.337   5.447
   89SAPC  C318 8513   3.764   3.214   5.444
   89SAPC  H18X 8514   3.785   3.170   5.345
   89SAPC  H18Y 8515   3.694   3.296   5.417
   89SAPC  H18Z 8516   3.718   3.127   5.496
   90SAPC     N 8517   3.472   6.120   6.864
   90SAPC   C12 8518   3.353   6.085   6.781
   90SAPC  H12A 8519   3.268   6.142   6.815
   90SAPC  H12B 8520   3.333   5.979   6.791
   90SAPC   C13 8521   3.587   6.037   6.810
   90SAPC  H13A 8522   3.550   5.937   6.792
   90SAPC  H13B 8523   3.616   6.071   6.712
   90SAPC  H13C 8524   3.678   6.045   6.868
   90SAPC   C14 8525   3.505   6.268   6.872
   90SAPC  H14A 8526   3.429   6.324   6.924
   90SAPC  H14B 8527   3.598   6.286   6.924
   90SAPC  H14C 8528   3.507   6.301   6.769
   90SAPC   C15 8529   3.448   6.070   7.007
   90SAPC  H15A 8530   3.353   6.101   7.049
   90SAPC  H15B 8531   3.457   5.963   7.003
   90SAPC  H15C 8532   3.524   6.106   7.075
   90SAPC   C11 8533   3.367   6.122   6.638
   90SAPC  H11A 8534   3.285   6.072   6.582
   90SAPC  H11B 8535   3.465   6.086   6.600
   90SAPC     P 8536   3.230   6.341   6.623
   90SAPC   O13 8537   3.156   6.295   6.739
   90SAPC   O14 8538   3.254   6.488   6.612
   90SAPC   O12 8539   3.367   6.268   6.622
   90SAPC   O11 8540   3.156   6.290   6.493
   90SAPC    C1 8541   3.196   6.310   6.358
   90SAPC    HA 8542   3.304   6.285   6.346
   90SAPC    HB 8543   3.136   6.233   6.306
   90SAPC    C2 8544   3.162   6.451   6.299
   90SAPC    HS 8545   3.176   6.523   6.383
   90SAPC   O21 8546   3.026   6.438   6.255
   90SAPC   C21 8547   2.970   6.528   6.163
   90SAPC   O22 8548   3.022   6.632   6.129
   90SAPC   C22 8549   2.823   6.489   6.142
   90SAPC   H2R 8550   2.823   6.378   6.152
   90SAPC   H2S 8551   2.757   6.531   6.221
   90SAPC    C3 8552   3.253   6.483   6.174
   90SAPC    HX 8553   3.361   6.462   6.188
   90SAPC    HY 8554   3.238   6.591   6.155
   90SAPC   O31 8555   3.201   6.395   6.066
   90SAPC   C31 8556   3.256   6.434   5.951
   90SAPC   O32 8557   3.334   6.523   5.937
   90SAPC   C32 8558   3.206   6.344   5.833
   90SAPC   H2X 8559   3.096   6.361   5.828
   90SAPC   H2Y 8560   3.229   6.236   5.841
   90SAPC   C23 8561   2.758   6.551   6.012
   90SAPC   H3R 8562   2.753   6.661   6.026
   90SAPC   H3S 8563   2.653   6.517   5.999
   90SAPC   C24 8564   2.821   6.525   5.870
   90SAPC   H4R 8565   2.920   6.577   5.868
   90SAPC   H4S 8566   2.762   6.590   5.802
   90SAPC   C25 8567   2.823   6.377   5.859
   90SAPC   H5R 8568   2.883   6.331   5.939
   90SAPC   C26 8569   2.757   6.299   5.773
   90SAPC   H6R 8570   2.775   6.191   5.758
   90SAPC   C27 8571   2.669   6.353   5.662
   90SAPC   H7R 8572   2.650   6.462   5.673
   90SAPC   H7S 8573   2.568   6.309   5.668
   90SAPC   C28 8574   2.709   6.311   5.517
   90SAPC   H8R 8575   2.806   6.262   5.503
   90SAPC   C29 8576   2.640   6.324   5.404
   90SAPC   H9R 8577   2.689   6.298   5.309
   90SAPC  C210 8578   2.501   6.387   5.394
   90SAPC  H10R 8579   2.452   6.406   5.492
   90SAPC  H10S 8580   2.433   6.318   5.339
   90SAPC  C211 8581   2.515   6.519   5.319
   90SAPC  H11R 8582   2.527   6.601   5.391
   90SAPC  C212 8583   2.501   6.547   5.187
   90SAPC  H12R 8584   2.506   6.651   5.151
   90SAPC  C213 8585   2.477   6.442   5.078
   90SAPC  H13R 8586   2.418   6.486   4.995
   90SAPC  H13S 8587   2.410   6.369   5.128
   90SAPC  C214 8588   2.609   6.379   5.030
   90SAPC  H14R 8589   2.683   6.356   5.107
   90SAPC  C215 8590   2.636   6.354   4.895
   90SAPC  H15R 8591   2.721   6.292   4.861
   90SAPC  C216 8592   2.539   6.391   4.783
   90SAPC  H16R 8593   2.554   6.496   4.751
   90SAPC  H16S 8594   2.436   6.354   4.802
   90SAPC  C217 8595   2.596   6.320   4.650
   90SAPC  H17R 8596   2.627   6.217   4.677
   90SAPC  H17S 8597   2.678   6.382   4.608
   90SAPC  C218 8598   2.473   6.313   4.558
   90SAPC  H18R 8599   2.391   6.273   4.621
   90SAPC  H18S 8600   2.495   6.250   4.470
   90SAPC  C219 8601   2.416   6.446   4.521
   90SAPC  H19R 8602   2.488   6.518   4.476
   90SAPC  H19S 8603   2.395   6.492   4.619
   90SAPC  C220 8604   2.295   6.426   4.428
   90SAPC  H20R 8605   2.340   6.416   4.328
   90SAPC  H20S 8606   2.236   6.520   4.434
   90SAPC  H20T 8607   2.234   6.339   4.460
   90SAPC   C33 8608   3.269   6.386   5.700
   90SAPC   H3X 8609   3.379   6.367   5.704
   90SAPC   H3Y 8610   3.260   6.495   5.680
   90SAPC   C34 8611   3.208   6.308   5.576
   90SAPC   H4X 8612   3.098   6.325   5.575
   90SAPC   H4Y 8613   3.220   6.199   5.593
   90SAPC   C35 8614   3.262   6.355   5.448
   90SAPC   H5X 8615   3.370   6.334   5.440
   90SAPC   H5Y 8616   3.247   6.465   5.443
   90SAPC   C36 8617   3.208   6.281   5.327
   90SAPC   H6X 8618   3.098   6.295   5.315
   90SAPC   H6Y 8619   3.223   6.172   5.343
   90SAPC   C37 8620   3.273   6.310   5.196
   90SAPC   H7X 8621   3.383   6.298   5.211
   90SAPC   H7Y 8622   3.257   6.414   5.160
   90SAPC   C38 8623   3.250   6.213   5.080
   90SAPC   H8X 8624   3.145   6.223   5.044
   90SAPC   H8Y 8625   3.287   6.108   5.090
   90SAPC   C39 8626   3.329   6.265   4.961
   90SAPC   H9X 8627   3.436   6.272   4.991
   90SAPC   H9Y 8628   3.300   6.372   4.949
   90SAPC  C310 8629   3.295   6.173   4.841
   90SAPC  H10X 8630   3.186   6.163   4.827
   90SAPC  H10Y 8631   3.310   6.065   4.862
   90SAPC  C311 8632   3.353   6.229   4.709
   90SAPC  H11X 8633   3.332   6.338   4.699
   90SAPC  H11Y 8634   3.299   6.181   4.625
   90SAPC  C312 8635   3.507   6.214   4.693
   90SAPC  H12X 8636   3.524   6.105   4.702
   90SAPC  H12Y 8637   3.568   6.259   4.775
   90SAPC  C313 8638   3.573   6.273   4.562
   90SAPC  H13X 8639   3.604   6.378   4.580
   90SAPC  H13Y 8640   3.493   6.280   4.485
   90SAPC  C314 8641   3.682   6.182   4.511
   90SAPC  H14X 8642   3.657   6.074   4.521
   90SAPC  H14Y 8643   3.776   6.210   4.563
   90SAPC  C315 8644   3.690   6.205   4.355
   90SAPC  H15X 8645   3.687   6.315   4.338
   90SAPC  H15Y 8646   3.593   6.169   4.315
   90SAPC  C316 8647   3.820   6.163   4.290
   90SAPC  H16X 8648   3.814   6.052   4.293
   90SAPC  H16Y 8649   3.915   6.187   4.343
   90SAPC  C317 8650   3.829   6.186   4.138
   90SAPC  H17X 8651   3.833   6.295   4.118
   90SAPC  H17Y 8652   3.733   6.149   4.096
   90SAPC  C318 8653   3.945   6.115   4.063
   90SAPC  H18X 8654   3.934   6.139   3.955
   90SAPC  H18Y 8655   3.949   6.009   4.094
   90SAPC  H18Z 8656   4.039   6.164   4.097
   91SAPC     N 8657   0.061   6.084   7.266
   91SAPC   C12 8658   0.201   6.139   7.255
   91SAPC  H12A 8659   0.241   6.143   7.356
   91SAPC  H12B 8660   0.189   6.241   7.222
   91SAPC   C13 8661   6.841   6.089   7.137
   91SAPC  H13A 8662   6.760   6.017   7.137
   91SAPC  H13B 8663   6.821   6.191   7.107
   91SAPC  H13C 8664   0.040   6.047   7.055
   91SAPC   C14 8665   0.068   5.940   7.307
   91SAPC  H14A 8666   6.823   5.910   7.326
   91SAPC  H14B 8667   0.111   5.880   7.227
   91SAPC  H14C 8668   0.132   5.928   7.393
   91SAPC   C15 8669   6.838   6.161   7.372
   91SAPC  H15A 8670   0.009   6.145   7.475
   91SAPC  H15B 8671   6.831   6.266   7.346
   91SAPC  H15C 8672   6.737   6.124   7.374
   91SAPC   C11 8673   0.306   6.062   7.173
   91SAPC  H11A 8674   0.330   5.958   7.202
   91SAPC  H11B 8675   0.404   6.111   7.192
   91SAPC     P 8676   0.257   5.952   6.927
   91SAPC   O13 8677   0.358   5.978   6.825
   91SAPC   O14 8678   0.261   5.823   6.999
   91SAPC   O12 8679   0.284   6.068   7.035
   91SAPC   O11 8680   0.120   5.976   6.856
   91SAPC    C1 8681   0.086   6.102   6.793
   91SAPC    HA 8682   6.836   6.120   6.820
   91SAPC    HB 8683   0.145   6.185   6.836
   91SAPC    C2 8684   0.098   6.104   6.640
   91SAPC    HS 8685   0.205   6.106   6.608
   91SAPC   O21 8686   0.020   6.210   6.594
   91SAPC   C21 8687   0.071   6.328   6.589
   91SAPC   O22 8688   0.190   6.354   6.594
   91SAPC   C22 8689   6.824   6.436   6.539
   91SAPC   H2R 8690   6.811   6.408   6.432
   91SAPC   H2S 8691   6.736   6.424   6.606
   91SAPC    C3 8692   0.043   5.969   6.578
   91SAPC    HX 8693   6.799   5.946   6.620
   91SAPC    HY 8694   0.111   5.888   6.612
   91SAPC   O31 8695   0.070   5.966   6.435
   91SAPC   C31 8696   6.823   6.002   6.359
   91SAPC   O32 8697   6.708   6.030   6.400
   91SAPC   C32 8698   0.006   6.000   6.209
   91SAPC   H2X 8699   0.062   5.907   6.185
   91SAPC   H2Y 8700   0.071   6.087   6.186
   91SAPC   C23 8701   0.016   6.587   6.540
   91SAPC   H3R 8702   0.127   6.587   6.526
   91SAPC   H3S 8703   6.855   6.630   6.641
   91SAPC   C24 8704   6.807   6.678   6.434
   91SAPC   H4R 8705   0.003   6.775   6.446
   91SAPC   H4S 8706   6.705   6.706   6.466
   91SAPC   C25 8707   6.819   6.647   6.284
   91SAPC   H5R 8708   0.065   6.680   6.260
   91SAPC   C26 8709   6.741   6.583   6.189
   91SAPC   H6R 8710   6.773   6.584   6.084
   91SAPC   C27 8711   6.610   6.514   6.216
   91SAPC   H7R 8712   6.526   6.582   6.191
   91SAPC   H7S 8713   6.590   6.484   6.321
   91SAPC   C28 8714   6.594   6.383   6.133
   91SAPC   H8R 8715   6.657   6.299   6.166
   91SAPC   C29 8716   6.511   6.348   6.035
   91SAPC   H9R 8717   6.505   6.245   5.995
   91SAPC  C210 8718   6.422   6.443   5.969
   91SAPC  H10R 8719   6.474   6.488   5.882
   91SAPC  H10S 8720   6.392   6.534   6.026
   91SAPC  C211 8721   6.295   6.369   5.924
   91SAPC  H11R 8722   6.239   6.336   6.013
   91SAPC  C212 8723   6.250   6.353   5.797
   91SAPC  H12R 8724   6.148   6.314   5.783
   91SAPC  C213 8725   6.313   6.402   5.669
   91SAPC  H13R 8726   6.423   6.412   5.681
   91SAPC  H13S 8727   6.282   6.499   5.625
   91SAPC  C214 8728   6.301   6.296   5.565
   91SAPC  H14R 8729   6.362   6.207   5.587
   91SAPC  C215 8730   6.232   6.294   5.445
   91SAPC  H15R 8731   6.238   6.201   5.388
   91SAPC  C216 8732   6.142   6.401   5.392
   91SAPC  H16R 8733   6.138   6.475   5.474
   91SAPC  H16S 8734   6.041   6.377   5.352
   91SAPC  C217 8735   6.223   6.481   5.275
   91SAPC  H17R 8736   6.332   6.486   5.294
   91SAPC  H17S 8737   6.186   6.586   5.275
   91SAPC  C218 8738   6.198   6.432   5.137
   91SAPC  H18R 8739   6.095   6.391   5.133
   91SAPC  H18S 8740   6.263   6.343   5.123
   91SAPC  C219 8741   6.211   6.536   5.025
   91SAPC  H19R 8742   6.316   6.573   5.024
   91SAPC  H19S 8743   6.155   6.630   5.039
   91SAPC  C220 8744   6.171   6.467   4.891
   91SAPC  H20R 8745   6.201   6.360   4.887
   91SAPC  H20S 8746   6.217   6.519   4.804
   91SAPC  H20T 8747   6.061   6.469   4.881
   91SAPC   C33 8748   6.741   5.996   6.115
   91SAPC   H3X 8749   6.680   6.087   6.133
   91SAPC   H3Y 8750   6.672   5.912   6.139
   91SAPC   C34 8751   6.768   6.000   5.963
   91SAPC   H4X 8752   0.007   5.956   5.928
   91SAPC   H4Y 8753   6.771   6.105   5.929
   91SAPC   C35 8754   6.662   5.932   5.881
   91SAPC   H5X 8755   6.563   5.958   5.926
   91SAPC   H5Y 8756   6.673   5.823   5.896
   91SAPC   C36 8757   6.649   5.963   5.735
   91SAPC   H6X 8758   6.731   5.916   5.677
   91SAPC   H6Y 8759   6.647   6.074   5.738
   91SAPC   C37 8760   6.520   5.926   5.671
   91SAPC   H7X 8761   6.442   5.977   5.732
   91SAPC   H7Y 8762   6.492   5.819   5.676
   91SAPC   C38 8763   6.499   5.963   5.518
   91SAPC   H8X 8764   6.513   6.073   5.506
   91SAPC   H8Y 8765   6.402   5.927   5.477
   91SAPC   C39 8766   6.599   5.901   5.423
   91SAPC   H9X 8767   6.618   5.795   5.451
   91SAPC   H9Y 8768   6.698   5.953   5.429
   91SAPC  C310 8769   6.551   5.916   5.278
   91SAPC  H10X 8770   6.548   6.019   5.237
   91SAPC  H10Y 8771   6.445   5.883   5.284
   91SAPC  C311 8772   6.637   5.829   5.178
   91SAPC  H11X 8773   6.588   5.729   5.168
   91SAPC  H11Y 8774   6.737   5.816   5.225
   91SAPC  C312 8775   6.641   5.909   5.049
   91SAPC  H12X 8776   6.681   6.010   5.072
   91SAPC  H12Y 8777   6.540   5.914   5.004
   91SAPC  C313 8778   6.733   5.839   4.953
   91SAPC  H13X 8779   6.731   5.728   4.949
   91SAPC  H13Y 8780   6.838   5.850   4.989
   91SAPC  C314 8781   6.715   5.892   4.813
   91SAPC  H14X 8782   6.720   6.003   4.803
   91SAPC  H14Y 8783   6.612   5.858   4.788
   91SAPC  C315 8784   6.805   5.831   4.699
   91SAPC  H15X 8785   6.808   5.720   4.707
   91SAPC  H15Y 8786   0.051   5.860   4.729
   91SAPC  C316 8787   6.775   5.868   4.552
   91SAPC  H16X 8788   6.840   5.805   4.489
   91SAPC  H16Y 8789   6.810   5.970   4.526
   91SAPC  C317 8790   6.626   5.840   4.509
   91SAPC  H17X 8791   6.556   5.896   4.574
   91SAPC  H17Y 8792   6.605   5.733   4.529
   91SAPC  C318 8793   6.605   5.886   4.362
   91SAPC  H18X 8794   6.667   5.826   4.292
   91SAPC  H18Y 8795   6.640   5.990   4.348
   91SAPC  H18Z 8796   6.496   5.884   4.344
   92SAPC     N 8797   5.884   5.829   6.457
   92SAPC   C12 8798   5.932   5.694   6.397
   92SAPC  H12A 8799   5.953   5.706   6.291
   92SAPC  H12B 8800   5.840   5.639   6.387
   92SAPC   C13 8801   6.001   5.932   6.483
   92SAPC  H13A 8802   6.036   5.958   6.385
   92SAPC  H13B 8803   5.962   6.026   6.521
   92SAPC  H13C 8804   6.083   5.895   6.542
   92SAPC   C14 8805   5.771   5.886   6.371
   92SAPC  H14A 8806   5.747   5.986   6.402
   92SAPC  H14B 8807   5.813   5.903   6.273
   92SAPC  H14C 8808   5.689   5.815   6.373
   92SAPC   C15 8809   5.823   5.785   6.583
   92SAPC  H15A 8810   5.897   5.735   6.643
   92SAPC  H15B 8811   5.791   5.868   6.644
   92SAPC  H15C 8812   5.742   5.714   6.571
   92SAPC   C11 8813   6.040   5.608   6.468
   92SAPC  H11A 8814   6.038   5.509   6.418
   92SAPC  H11B 8815   6.011   5.589   6.573
   92SAPC     P 8816   6.251   5.698   6.336
   92SAPC   O13 8817   6.166   5.769   6.234
   92SAPC   O14 8818   6.378   5.766   6.373
   92SAPC   O12 8819   6.167   5.664   6.471
   92SAPC   O11 8820   6.280   5.552   6.285
   92SAPC    C1 8821   6.408   5.513   6.250
   92SAPC    HA 8822   6.483   5.515   6.331
   92SAPC    HB 8823   6.401   5.404   6.228
   92SAPC    C2 8824   6.457   5.586   6.127
   92SAPC    HS 8825   6.437   5.696   6.129
   92SAPC   O21 8826   6.380   5.529   6.018
   92SAPC   C21 8827   6.344   5.606   5.912
   92SAPC   O22 8828   6.376   5.724   5.898
   92SAPC   C22 8829   6.272   5.538   5.799
   92SAPC   H2R 8830   6.180   5.595   5.777
   92SAPC   H2S 8831   6.333   5.540   5.705
   92SAPC    C3 8832   6.612   5.581   6.109
   92SAPC    HX 8833   6.650   5.480   6.136
   92SAPC    HY 8834   6.664   5.656   6.173
   92SAPC   O31 8835   6.645   5.610   5.976
   92SAPC   C31 8836   6.687   5.511   5.900
   92SAPC   O32 8837   6.718   5.397   5.933
   92SAPC   C32 8838   6.706   5.553   5.751
   92SAPC   H2X 8839   6.786   5.630   5.759
   92SAPC   H2Y 8840   6.609   5.601   5.728
   92SAPC   C23 8841   6.249   5.388   5.834
   92SAPC   H3R 8842   6.158   5.383   5.897
   92SAPC   H3S 8843   6.325   5.347   5.904
   92SAPC   C24 8844   6.220   5.302   5.712
   92SAPC   H4R 8845   6.135   5.348   5.657
   92SAPC   H4S 8846   6.204   5.196   5.742
   92SAPC   C25 8847   6.343   5.312   5.623
   92SAPC   H5R 8848   6.434   5.288   5.680
   92SAPC   C26 8849   6.339   5.335   5.491
   92SAPC   H6R 8850   6.428   5.332   5.426
   92SAPC   C27 8851   6.223   5.369   5.403
   92SAPC   H7R 8852   6.182   5.471   5.422
   92SAPC   H7S 8853   6.137   5.302   5.422
   92SAPC   C28 8854   6.269   5.352   5.258
   92SAPC   H8R 8855   6.277   5.253   5.210
   92SAPC   C29 8856   6.291   5.452   5.172
   92SAPC   H9R 8857   6.332   5.422   5.074
   92SAPC  C210 8858   6.279   5.608   5.202
   92SAPC  H10R 8859   6.361   5.672   5.163
   92SAPC  H10S 8860   6.288   5.633   5.310
   92SAPC  C211 8861   6.147   5.661   5.152
   92SAPC  H11R 8862   6.057   5.631   5.208
   92SAPC  C212 8863   6.133   5.756   5.061
   92SAPC  H12R 8864   6.035   5.774   5.014
   92SAPC  C213 8865   6.249   5.833   4.999
   92SAPC  H13R 8866   6.343   5.777   5.015
   92SAPC  H13S 8867   6.270   5.933   5.041
   92SAPC  C214 8868   6.225   5.837   4.845
   92SAPC  H14R 8869   6.183   5.744   4.805
   92SAPC  C215 8870   6.268   5.939   4.755
   92SAPC  H15R 8871   6.264   5.924   4.646
   92SAPC  C216 8872   6.322   6.068   4.806
   92SAPC  H16R 8873   6.421   6.056   4.856
   92SAPC  H16S 8874   6.251   6.112   4.879
   92SAPC  C217 8875   6.314   6.172   4.692
   92SAPC  H17R 8876   6.329   6.269   4.743
   92SAPC  H17S 8877   6.209   6.171   4.656
   92SAPC  C218 8878   6.421   6.152   4.588
   92SAPC  H18R 8879   6.393   6.081   4.506
   92SAPC  H18S 8880   6.512   6.109   4.636
   92SAPC  C219 8881   6.466   6.288   4.535
   92SAPC  H19R 8882   6.535   6.347   4.599
   92SAPC  H19S 8883   6.374   6.350   4.523
   92SAPC  C220 8884   6.510   6.293   4.386
   92SAPC  H20R 8885   6.605   6.237   4.373
   92SAPC  H20S 8886   6.533   6.396   4.351
   92SAPC  H20T 8887   6.441   6.246   4.313
   92SAPC   C33 8888   6.716   5.440   5.644
   92SAPC   H3X 8889   6.624   5.377   5.651
   92SAPC   H3Y 8890   6.804   5.379   5.672
   92SAPC   C34 8891   6.727   5.508   5.507
   92SAPC   H4X 8892   6.776   5.608   5.507
   92SAPC   H4Y 8893   6.620   5.516   5.477
   92SAPC   C35 8894   6.785   5.417   5.401
   92SAPC   H5X 8895   6.758   5.310   5.413
   92SAPC   H5Y 8896   0.039   5.421   5.405
   92SAPC   C36 8897   6.764   5.461   5.258
   92SAPC   H6X 8898   6.795   5.567   5.250
   92SAPC   H6Y 8899   6.653   5.459   5.250
   92SAPC   C37 8900   6.814   5.363   5.149
   92SAPC   H7X 8901   6.751   5.272   5.143
   92SAPC   H7Y 8902   0.055   5.317   5.176
   92SAPC   C38 8903   6.819   5.440   5.007
   92SAPC   H8X 8904   0.032   5.526   4.997
   92SAPC   H8Y 8905   6.720   5.483   4.983
   92SAPC   C39 8906   0.014   5.339   4.895
   92SAPC   H9X 8907   6.797   5.255   4.898
   92SAPC   H9Y 8908   0.113   5.307   4.933
   92SAPC  C310 8909   0.016   5.399   4.756
   92SAPC  H10X 8910   0.090   5.350   4.688
   92SAPC  H10Y 8911   0.034   5.507   4.773
   92SAPC  C311 8912   6.741   5.384   4.683
   92SAPC  H11X 8913   6.664   5.446   4.734
   92SAPC  H11Y 8914   6.717   5.276   4.682
   92SAPC  C312 8915   6.761   5.436   4.538
   92SAPC  H12X 8916   6.846   5.377   4.499
   92SAPC  H12Y 8917   6.781   5.545   4.528
   92SAPC  C313 8918   6.642   5.400   4.448
   92SAPC  H13X 8919   6.551   5.438   4.500
   92SAPC  H13Y 8920   6.630   5.290   4.442
   92SAPC  C314 8921   6.641   5.471   4.314
   92SAPC  H14X 8922   6.727   5.425   4.262
   92SAPC  H14Y 8923   6.676   5.576   4.324
   92SAPC  C315 8924   6.514   5.458   4.240
   92SAPC  H15X 8925   6.447   5.546   4.250
   92SAPC  H15Y 8926   6.457   5.373   4.284
   92SAPC  C316 8927   6.541   5.421   4.096
   92SAPC  H16X 8928   6.595   5.324   4.101
   92SAPC  H16Y 8929   6.605   5.499   4.050
   92SAPC  C317 8930   6.408   5.407   4.025
   92SAPC  H17X 8931   6.434   5.397   3.918
   92SAPC  H17Y 8932   6.358   5.506   4.033
   92SAPC  C318 8933   6.319   5.286   4.058
   92SAPC  H18X 8934   6.218   5.318   4.024
   92SAPC  H18Y 8935   6.325   5.257   4.165
   92SAPC  H18Z 8936   6.354   5.196   4.004
   93SAPC     N 8937   0.897   0.280   6.993
   93SAPC   C12 8938   1.017   0.210   6.923
   93SAPC  H12A 8939   1.070   0.164   7.004
   93SAPC  H12B 8940   1.070   0.283   6.863
   93SAPC   C13 8941   0.816   0.185   7.071
   93SAPC  H13A 8942   0.874   0.131   7.145
   93SAPC  H13B 8943   0.747   0.237   7.136
   93SAPC  H13C 8944   0.761   0.115   7.011
   93SAPC   C14 8945   0.953   0.385   7.081
   93SAPC  H14A 8946   1.011   0.355   7.168
   93SAPC  H14B 8947   1.026   0.447   7.031
   93SAPC  H14C 8948   0.880   0.452   7.125
   93SAPC   C15 8949   0.807   0.357   6.897
   93SAPC  H15A 8950   0.717   0.383   6.950
   93SAPC  H15B 8951   0.865   0.446   6.876
   93SAPC  H15C 8952   0.774   0.303   6.810
   93SAPC   C11 8953   0.989   0.092   6.829
   93SAPC  H11A 8954   0.954   0.005   6.888
   93SAPC  H11B 8955   1.083   0.049   6.788
   93SAPC     P 8956   0.757   0.073   6.689
   93SAPC   O13 8957   0.709   6.843   6.796
   93SAPC   O14 8958   0.666   0.185   6.661
   93SAPC   O12 8959   0.901   0.132   6.723
   93SAPC   O11 8960   0.783   6.837   6.557
   93SAPC    C1 8961   0.922   6.828   6.512
   93SAPC    HA 8962   0.975   0.067   6.529
   93SAPC    HB 8963   0.976   6.747   6.565
   93SAPC    C2 8964   0.928   6.797   6.358
   93SAPC    HS 8965   1.037   6.788   6.337
   93SAPC   O21 8966   0.865   0.042   6.280
   93SAPC   C21 8967   0.937   0.155   6.264
   93SAPC   O22 8968   1.054   0.166   6.303
   93SAPC   C22 8969   0.866   0.245   6.174
   93SAPC   H2R 8970   0.834   0.205   6.076
   93SAPC   H2S 8971   0.775   0.279   6.228
   93SAPC    C3 8972   0.850   6.663   6.324
   93SAPC    HX 8973   0.755   6.668   6.382
   93SAPC    HY 8974   0.910   6.584   6.375
   93SAPC   O31 8975   0.830   6.628   6.195
   93SAPC   C31 8976   0.926   6.597   6.114
   93SAPC   O32 8977   1.040   6.576   6.150
   93SAPC   C32 8978   0.885   6.599   5.971
   93SAPC   H2X 8979   0.850   6.704   5.955
   93SAPC   H2Y 8980   0.794   6.537   5.955
   93SAPC   C23 8981   0.948   0.378   6.150
   93SAPC   H3R 8982   1.021   0.396   6.232
   93SAPC   H3S 8983   0.879   0.465   6.157
   93SAPC   C24 8984   1.010   0.377   6.009
   93SAPC   H4R 8985   1.044   0.479   5.983
   93SAPC   H4S 8986   0.928   0.362   5.936
   93SAPC   C25 8987   1.131   0.292   5.971
   93SAPC   H5R 8988   1.218   0.310   6.037
   93SAPC   C26 8989   1.145   0.203   5.878
   93SAPC   H6R 8990   1.245   0.157   5.875
   93SAPC   C27 8991   1.036   0.163   5.781
   93SAPC   H7R 8992   1.002   0.251   5.723
   93SAPC   H7S 8993   0.946   0.129   5.837
   93SAPC   C28 8994   1.079   0.060   5.684
   93SAPC   H8R 8995   1.052   6.814   5.712
   93SAPC   C29 8996   1.133   0.081   5.562
   93SAPC   H9R 8997   1.139   6.845   5.502
   93SAPC  C210 8998   1.162   0.216   5.495
   93SAPC  H10R 8999   1.131   0.294   5.568
   93SAPC  H10S 9000   1.096   0.246   5.411
   93SAPC  C211 9001   1.301   0.220   5.445
   93SAPC  H11R 9002   1.374   0.274   5.506
   93SAPC  C212 9003   1.340   0.179   5.324
   93SAPC  H12R 9004   1.444   0.194   5.291
   93SAPC  C213 9005   1.254   0.108   5.219
   93SAPC  H13R 9006   1.242   0.184   5.139
   93SAPC  H13S 9007   1.156   0.077   5.261
   93SAPC  C214 9008   1.326   6.839   5.171
   93SAPC  H14R 9009   1.406   6.812   5.241
   93SAPC  C215 9010   1.299   6.758   5.066
   93SAPC  H15R 9011   1.376   6.685   5.036
   93SAPC  C216 9012   1.200   6.763   4.962
   93SAPC  H16R 9013   1.125   6.840   4.988
   93SAPC  H16S 9014   1.135   6.675   4.979
   93SAPC  C217 9015   1.245   6.775   4.815
   93SAPC  H17R 9016   1.316   0.003   4.812
   93SAPC  H17S 9017   1.155   6.808   4.759
   93SAPC  C218 9018   1.314   6.651   4.755
   93SAPC  H18R 9019   1.249   6.562   4.769
   93SAPC  H18S 9020   1.408   6.627   4.810
   93SAPC  C219 9021   1.349   6.687   4.608
   93SAPC  H19R 9022   1.263   6.736   4.558
   93SAPC  H19S 9023   1.370   6.593   4.553
   93SAPC  C220 9024   1.482   6.771   4.600
   93SAPC  H20R 9025   1.480   6.805   4.494
   93SAPC  H20S 9026   1.559   6.695   4.625
   93SAPC  H20T 9027   1.479   0.002   4.668
   93SAPC   C33 9028   0.999   6.568   5.880
   93SAPC   H3X 9029   1.054   6.475   5.905
   93SAPC   H3Y 9030   1.073   6.651   5.886
   93SAPC   C34 9031   0.954   6.554   5.741
   93SAPC   H4X 9032   0.908   6.651   5.712
   93SAPC   H4Y 9033   0.879   6.474   5.729
   93SAPC   C35 9034   1.071   6.531   5.641
   93SAPC   H5X 9035   1.095   6.423   5.653
   93SAPC   H5Y 9036   1.161   6.588   5.672
   93SAPC   C36 9037   1.037   6.542   5.493
   93SAPC   H6X 9038   1.035   6.651   5.471
   93SAPC   H6Y 9039   0.938   6.499   5.467
   93SAPC   C37 9040   1.147   6.484   5.408
   93SAPC   H7X 9041   1.150   6.376   5.433
   93SAPC   H7Y 9042   1.246   6.526   5.438
   93SAPC   C38 9043   1.119   6.509   5.256
   93SAPC   H8X 9044   1.132   6.618   5.239
   93SAPC   H8Y 9045   1.015   6.478   5.237
   93SAPC   C39 9046   1.215   6.427   5.162
   93SAPC   H9X 9047   1.316   6.437   5.208
   93SAPC   H9Y 9048   1.222   6.483   5.066
   93SAPC  C310 9049   1.169   6.284   5.151
   93SAPC  H10X 9050   1.154   6.232   5.248
   93SAPC  H10Y 9051   1.250   6.228   5.100
   93SAPC  C311 9052   1.055   6.262   5.049
   93SAPC  H11X 9053   1.092   6.307   4.954
   93SAPC  H11Y 9054   0.967   6.316   5.088
   93SAPC  C312 9055   1.030   6.114   5.024
   93SAPC  H12X 9056   0.981   6.079   5.117
   93SAPC  H12Y 9057   1.127   6.062   5.009
   93SAPC  C313 9058   0.924   6.084   4.914
   93SAPC  H13X 9059   0.850   6.168   4.915
   93SAPC  H13Y 9060   0.867   5.995   4.949
   93SAPC  C314 9061   0.974   6.054   4.777
   93SAPC  H14X 9062   1.012   5.950   4.773
   93SAPC  H14Y 9063   1.047   6.134   4.750
   93SAPC  C315 9064   0.867   6.067   4.665
   93SAPC  H15X 9065   0.922   6.063   4.568
   93SAPC  H15Y 9066   0.817   6.166   4.666
   93SAPC  C316 9067   0.759   5.955   4.687
   93SAPC  H16X 9068   0.728   5.957   4.794
   93SAPC  H16Y 9069   0.797   5.851   4.673
   93SAPC  C317 9070   0.630   5.973   4.604
   93SAPC  H17X 9071   0.577   6.065   4.638
   93SAPC  H17Y 9072   0.565   5.883   4.618
   93SAPC  C318 9073   0.657   5.987   4.447
   93SAPC  H18X 9074   0.707   6.081   4.415
   93SAPC  H18Y 9075   0.569   5.974   4.379
   93SAPC  H18Z 9076   0.723   5.908   4.406
   94SAPC     N 9077   0.550   5.556   6.569
   94SAPC   C12 9078   0.435   5.655   6.550
   94SAPC  H12A 9079   0.474   5.742   6.499
   94SAPC  H12B 9080   0.406   5.697   6.645
   94SAPC   C13 9081   0.509   5.443   6.660
   94SAPC  H13A 9082   0.430   5.386   6.613
   94SAPC  H13B 9083   0.589   5.377   6.692
   94SAPC  H13C 9084   0.466   5.478   6.752
   94SAPC   C14 9085   0.577   5.495   6.436
   94SAPC  H14A 9086   0.592   5.577   6.367
   94SAPC  H14B 9087   0.665   5.432   6.438
   94SAPC  H14C 9088   0.489   5.448   6.395
   94SAPC   C15 9089   0.677   5.625   6.621
   94SAPC  H15A 9090   0.709   5.703   6.553
   94SAPC  H15B 9091   0.659   5.679   6.712
   94SAPC  H15C 9092   0.754   5.550   6.630
   94SAPC   C11 9093   0.300   5.617   6.479
   94SAPC  H11A 9094   0.327   5.606   6.372
   94SAPC  H11B 9095   0.224   5.698   6.487
   94SAPC     P 9096   0.144   5.473   6.630
   94SAPC   O13 9097   0.167   5.347   6.702
   94SAPC   O14 9098   0.127   5.591   6.722
   94SAPC   O12 9099   0.252   5.496   6.528
   94SAPC   O11 9100   0.015   5.459   6.548
   94SAPC    C1 9101   6.835   5.352   6.473
   94SAPC    HA 9102   6.816   5.259   6.530
   94SAPC    HB 9103   6.732   5.363   6.434
   94SAPC    C2 9104   0.074   5.327   6.354
   94SAPC    HS 9105   0.174   5.297   6.393
   94SAPC   O21 9106   0.077   5.445   6.268
   94SAPC   C21 9107   0.174   5.447   6.182
   94SAPC   O22 9108   0.271   5.370   6.179
   94SAPC   C22 9109   0.174   5.577   6.092
   94SAPC   H2R 9110   0.073   5.583   6.045
   94SAPC   H2S 9111   0.203   5.655   6.165
   94SAPC    C3 9112   0.022   5.205   6.266
   94SAPC    HX 9113   0.021   5.109   6.322
   94SAPC    HY 9114   0.107   5.190   6.196
   94SAPC   O31 9115   6.746   5.224   6.209
   94SAPC   C31 9116   6.709   5.123   6.138
   94SAPC   O32 9117   6.780   5.030   6.111
   94SAPC   C32 9118   6.567   5.141   6.091
   94SAPC   H2X 9119   6.547   5.249   6.074
   94SAPC   H2Y 9120   6.504   5.113   6.178
   94SAPC   C23 9121   0.266   5.588   5.971
   94SAPC   H3R 9122   0.252   5.500   5.904
   94SAPC   H3S 9123   0.360   5.566   6.026
   94SAPC   C24 9124   0.270   5.734   5.910
   94SAPC   H4R 9125   0.294   5.801   5.995
   94SAPC   H4S 9126   0.171   5.772   5.876
   94SAPC   C25 9127   0.384   5.739   5.810
   94SAPC   H5R 9128   0.480   5.711   5.856
   94SAPC   C26 9129   0.379   5.775   5.684
   94SAPC   H6R 9130   0.476   5.790   5.635
   94SAPC   C27 9131   0.254   5.819   5.612
   94SAPC   H7R 9132   0.277   5.911   5.553
   94SAPC   H7S 9133   0.168   5.835   5.680
   94SAPC   C28 9134   0.228   5.717   5.510
   94SAPC   H8R 9135   0.235   5.614   5.547
   94SAPC   C29 9136   0.218   5.746   5.375
   94SAPC   H9R 9137   0.204   5.667   5.301
   94SAPC  C210 9138   0.231   5.889   5.308
   94SAPC  H10R 9139   0.339   5.908   5.324
   94SAPC  H10S 9140   0.183   5.968   5.370
   94SAPC  C211 9141   0.189   5.905   5.163
   94SAPC  H11R 9142   0.104   5.973   5.152
   94SAPC  C212 9143   0.243   5.837   5.060
   94SAPC  H12R 9144   0.211   5.856   4.956
   94SAPC  C213 9145   0.350   5.732   5.052
   94SAPC  H13R 9146   0.394   5.693   5.146
   94SAPC  H13S 9147   0.442   5.775   5.007
   94SAPC  C214 9148   0.307   5.618   4.974
   94SAPC  H14R 9149   0.247   5.551   5.038
   94SAPC  C215 9150   0.334   5.583   4.848
   94SAPC  H15R 9151   0.277   5.498   4.806
   94SAPC  C216 9152   0.420   5.655   4.744
   94SAPC  H16R 9153   0.508   5.590   4.721
   94SAPC  H16S 9154   0.456   5.751   4.787
   94SAPC  C217 9155   0.348   5.679   4.607
   94SAPC  H17R 9156   0.418   5.719   4.531
   94SAPC  H17S 9157   0.274   5.761   4.623
   94SAPC  C218 9158   0.278   5.556   4.544
   94SAPC  H18R 9159   0.208   5.583   4.462
   94SAPC  H18S 9160   0.219   5.508   4.625
   94SAPC  C219 9161   0.384   5.455   4.501
   94SAPC  H19R 9162   0.455   5.424   4.579
   94SAPC  H19S 9163   0.450   5.497   4.422
   94SAPC  C220 9164   0.315   5.332   4.447
   94SAPC  H20R 9165   0.280   5.355   4.344
   94SAPC  H20S 9166   0.232   5.307   4.516
   94SAPC  H20T 9167   0.381   5.243   4.440
   94SAPC   C33 9168   6.523   5.057   5.974
   94SAPC   H3X 9169   6.420   5.093   5.952
   94SAPC   H3Y 9170   6.503   4.951   6.001
   94SAPC   C34 9171   6.616   5.061   5.853
   94SAPC   H4X 9172   6.716   5.014   5.862
   94SAPC   H4Y 9173   6.630   5.171   5.845
   94SAPC   C35 9174   6.550   5.001   5.732
   94SAPC   H5X 9175   6.451   5.048   5.712
   94SAPC   H5Y 9176   6.540   4.891   5.737
   94SAPC   C36 9177   6.628   5.034   5.605
   94SAPC   H6X 9178   6.721   4.974   5.616
   94SAPC   H6Y 9179   6.646   5.143   5.603
   94SAPC   C37 9180   6.540   5.000   5.478
   94SAPC   H7X 9181   6.441   5.051   5.475
   94SAPC   H7Y 9182   6.526   4.890   5.485
   94SAPC   C38 9183   6.606   5.016   5.344
   94SAPC   H8X 9184   6.709   4.976   5.346
   94SAPC   H8Y 9185   6.627   5.123   5.323
   94SAPC   C39 9186   6.515   4.959   5.234
   94SAPC   H9X 9187   6.409   4.990   5.242
   94SAPC   H9Y 9188   6.512   4.848   5.236
   94SAPC  C310 9189   6.565   5.005   5.095
   94SAPC  H10X 9190   6.647   4.937   5.066
   94SAPC  H10Y 9191   6.601   5.108   5.117
   94SAPC  C311 9192   6.451   4.996   4.993
   94SAPC  H11X 9193   6.353   5.034   5.028
   94SAPC  H11Y 9194   6.439   4.892   4.954
   94SAPC  C312 9195   6.486   5.093   4.877
   94SAPC  H12X 9196   6.594   5.082   4.854
   94SAPC  H12Y 9197   6.475   5.200   4.906
   94SAPC  C313 9198   6.412   5.056   4.753
   94SAPC  H13X 9199   6.303   5.068   4.774
   94SAPC  H13Y 9200   6.436   4.952   4.722
   94SAPC  C314 9201   6.437   5.149   4.632
   94SAPC  H14X 9202   6.545   5.155   4.607
   94SAPC  H14Y 9203   6.391   5.247   4.653
   94SAPC  C315 9204   6.372   5.089   4.504
   94SAPC  H15X 9205   6.432   5.002   4.469
   94SAPC  H15Y 9206   6.377   5.166   4.424
   94SAPC  C316 9207   6.229   5.042   4.522
   94SAPC  H16X 9208   6.174   5.124   4.573
   94SAPC  H16Y 9209   6.219   4.953   4.588
   94SAPC  C317 9210   6.152   5.016   4.385
   94SAPC  H17X 9211   6.204   4.944   4.318
   94SAPC  H17Y 9212   6.151   5.112   4.329
   94SAPC  C318 9213   6.012   4.984   4.411
   94SAPC  H18X 9214   5.969   5.068   4.470
   94SAPC  H18Y 9215   6.015   4.896   4.478
   94SAPC  H18Z 9216   5.938   4.950   4.336
   95SAPC     N 9217   3.855   6.029   1.778
   95SAPC   C12 9218   3.799   6.096   1.906
   95SAPC  H12A 9219   3.872   6.171   1.935
   95SAPC  H12B 9220   3.806   6.029   1.990
   95SAPC   C13 9221   3.797   5.890   1.770
   95SAPC  H13A 9222   3.691   5.891   1.753
   95SAPC  H13B 9223   3.836   5.829   1.689
   95SAPC  H13C 9224   3.824   5.847   1.866
   95SAPC   C14 9225   3.827   6.109   1.650
   95SAPC  H14A 9226   3.872   6.064   1.564
   95SAPC  H14B 9227   3.719   6.114   1.640
   95SAPC  H14C 9228   3.871   6.205   1.675
   95SAPC   C15 9229   4.003   6.020   1.799
   95SAPC  H15A 9230   4.062   5.990   1.713
   95SAPC  H15B 9231   4.039   6.116   1.830
   95SAPC  H15C 9232   4.010   5.940   1.872
   95SAPC   C11 9233   3.656   6.156   1.909
   95SAPC  H11A 9234   3.640   6.219   1.819
   95SAPC  H11B 9235   3.649   6.237   1.984
   95SAPC     P 9236   3.477   6.005   2.036
   95SAPC   O13 9237   3.342   6.064   2.039
   95SAPC   O14 9238   3.489   5.858   2.033
   95SAPC   O12 9239   3.557   6.052   1.913
   95SAPC   O11 9240   3.559   6.081   2.148
   95SAPC    C1 9241   3.655   6.016   2.229
   95SAPC    HA 9242   3.714   5.936   2.179
   95SAPC    HB 9243   3.729   6.093   2.260
   95SAPC    C2 9244   3.605   5.959   2.370
   95SAPC    HS 9245   3.528   5.882   2.346
   95SAPC   O21 9246   3.553   6.075   2.452
   95SAPC   C21 9247   3.424   6.093   2.434
   95SAPC   O22 9248   3.347   6.019   2.377
   95SAPC   C22 9249   3.385   6.222   2.506
   95SAPC   H2R 9250   3.466   6.263   2.570
   95SAPC   H2S 9251   3.372   6.298   2.426
   95SAPC    C3 9252   3.718   5.876   2.448
   95SAPC    HX 9253   3.815   5.930   2.441
   95SAPC    HY 9254   3.734   5.779   2.395
   95SAPC   O31 9255   3.678   5.839   2.580
   95SAPC   C31 9256   3.708   5.935   2.667
   95SAPC   O32 9257   3.761   6.041   2.647
   95SAPC   C32 9258   3.652   5.888   2.795
   95SAPC   H2X 9259   3.711   5.800   2.826
   95SAPC   H2Y 9260   3.543   5.873   2.778
   95SAPC   C23 9261   3.253   6.221   2.594
   95SAPC   H3R 9262   3.172   6.187   2.526
   95SAPC   H3S 9263   3.232   6.329   2.612
   95SAPC   C24 9264   3.275   6.135   2.721
   95SAPC   H4R 9265   3.369   6.167   2.769
   95SAPC   H4S 9266   3.283   6.036   2.672
   95SAPC   C25 9267   3.160   6.142   2.812
   95SAPC   H5R 9268   3.070   6.093   2.770
   95SAPC   C26 9269   3.160   6.200   2.929
   95SAPC   H6R 9270   3.075   6.190   2.998
   95SAPC   C27 9271   3.277   6.251   3.005
   95SAPC   H7R 9272   3.360   6.291   2.942
   95SAPC   H7S 9273   3.320   6.175   3.074
   95SAPC   C28 9274   3.239   6.371   3.092
   95SAPC   H8R 9275   3.265   6.464   3.040
   95SAPC   C29 9276   3.184   6.374   3.220
   95SAPC   H9R 9277   3.161   6.474   3.259
   95SAPC  C210 9278   3.143   6.258   3.310
   95SAPC  H10R 9279   3.230   6.234   3.375
   95SAPC  H10S 9280   3.133   6.172   3.239
   95SAPC  C211 9281   3.020   6.284   3.395
   95SAPC  H11R 9282   3.041   6.320   3.496
   95SAPC  C212 9283   2.889   6.273   3.359
   95SAPC  H12R 9284   2.809   6.292   3.431
   95SAPC  C213 9285   2.852   6.233   3.218
   95SAPC  H13R 9286   2.928   6.244   3.138
   95SAPC  H13S 9287   2.778   6.306   3.180
   95SAPC  C214 9288   2.796   6.094   3.220
   95SAPC  H14R 9289   2.788   6.041   3.316
   95SAPC  C215 9290   2.754   6.026   3.112
   95SAPC  H15R 9291   2.715   5.924   3.123
   95SAPC  C216 9292   2.761   6.072   2.968
   95SAPC  H16R 9293   2.811   5.996   2.905
   95SAPC  H16S 9294   2.818   6.167   2.960
   95SAPC  C217 9295   2.618   6.092   2.916
   95SAPC  H17R 9296   2.552   6.003   2.919
   95SAPC  H17S 9297   2.628   6.130   2.812
   95SAPC  C218 9298   2.542   6.211   2.988
   95SAPC  H18R 9299   2.605   6.301   3.002
   95SAPC  H18S 9300   2.508   6.182   3.090
   95SAPC  C219 9301   2.409   6.258   2.920
   95SAPC  H19R 9302   2.375   6.336   2.992
   95SAPC  H19S 9303   2.333   6.179   2.903
   95SAPC  C220 9304   2.432   6.319   2.782
   95SAPC  H20R 9305   2.442   6.245   2.699
   95SAPC  H20S 9306   2.529   6.373   2.792
   95SAPC  H20T 9307   2.353   6.392   2.755
   95SAPC   C33 9308   3.668   5.989   2.912
   95SAPC   H3X 9309   3.617   6.084   2.889
   95SAPC   H3Y 9310   3.776   6.005   2.933
   95SAPC   C34 9311   3.605   5.942   3.037
   95SAPC   H4X 9312   3.646   5.846   3.074
   95SAPC   H4Y 9313   3.496   5.921   3.024
   95SAPC   C35 9314   3.613   6.049   3.149
   95SAPC   H5X 9315   3.595   6.146   3.098
   95SAPC   H5Y 9316   3.715   6.051   3.194
   95SAPC   C36 9317   3.520   6.021   3.265
   95SAPC   H6X 9318   3.544   5.920   3.306
   95SAPC   H6Y 9319   3.418   6.009   3.222
   95SAPC   C37 9320   3.553   6.117   3.374
   95SAPC   H7X 9321   3.523   6.216   3.333
   95SAPC   H7Y 9322   3.663   6.123   3.389
   95SAPC   C38 9323   3.473   6.084   3.501
   95SAPC   H8X 9324   3.481   5.976   3.524
   95SAPC   H8Y 9325   3.366   6.095   3.474
   95SAPC   C39 9326   3.532   6.155   3.624
   95SAPC   H9X 9327   3.524   6.265   3.607
   95SAPC   H9Y 9328   3.638   6.136   3.648
   95SAPC  C310 9329   3.445   6.129   3.747
   95SAPC  H10X 9330   3.431   6.020   3.759
   95SAPC  H10Y 9331   3.347   6.181   3.734
   95SAPC  C311 9332   3.507   6.203   3.864
   95SAPC  H11X 9333   3.616   6.181   3.873
   95SAPC  H11Y 9334   3.460   6.153   3.951
   95SAPC  C312 9335   3.502   6.358   3.865
   95SAPC  H12X 9336   3.395   6.389   3.860
   95SAPC  H12Y 9337   3.559   6.396   3.778
   95SAPC  C313 9338   3.565   6.416   3.986
   95SAPC  H13X 9339   3.668   6.375   3.997
   95SAPC  H13Y 9340   3.514   6.386   4.080
   95SAPC  C314 9341   3.567   6.565   3.968
   95SAPC  H14X 9342   3.477   6.607   4.018
   95SAPC  H14Y 9343   3.571   6.591   3.860
   95SAPC  C315 9344   3.695   6.622   4.038
   95SAPC  H15X 9345   3.707   6.726   4.002
   95SAPC  H15Y 9346   3.780   6.562   3.999
   95SAPC  C316 9347   3.688   6.627   4.188
   95SAPC  H16X 9348   3.696   6.520   4.215
   95SAPC  H16Y 9349   3.596   6.679   4.223
   95SAPC  C317 9350   3.811   6.685   4.250
   95SAPC  H17X 9351   3.830   6.780   4.196
   95SAPC  H17Y 9352   3.895   6.613   4.237
   95SAPC  C318 9353   3.790   6.718   4.399
   95SAPC  H18X 9354   3.884   6.756   4.444
   95SAPC  H18Y 9355   3.735   6.637   4.451
   95SAPC  H18Z 9356   3.716   6.800   4.397
   96SAPC     N 9357   3.486   2.111   1.962
   96SAPC   C12 9358   3.536   2.207   2.072
   96SAPC  H12A 9359   3.455   2.275   2.093
   96SAPC  H12B 9360   3.611   2.278   2.038
   96SAPC   C13 9361   3.586   2.004   1.927
   96SAPC  H13A 9362   3.610   1.939   2.010
   96SAPC  H13B 9363   3.538   1.938   1.855
   96SAPC  H13C 9364   3.672   2.052   1.882
   96SAPC   C14 9365   3.359   2.038   2.002
   96SAPC  H14A 9366   3.272   2.101   2.018
   96SAPC  H14B 9367   3.309   1.987   1.921
   96SAPC  H14C 9368   3.368   1.964   2.079
   96SAPC   C15 9369   3.444   2.195   1.841
   96SAPC  H15A 9370   3.392   2.277   1.888
   96SAPC  H15B 9371   3.529   2.230   1.784
   96SAPC  H15C 9372   3.378   2.143   1.774
   96SAPC   C11 9373   3.579   2.146   2.206
   96SAPC  H11A 9374   3.614   2.232   2.267
   96SAPC  H11B 9375   3.671   2.087   2.184
   96SAPC     P 9376   3.348   2.141   2.325
   96SAPC   O13 9377   3.341   2.277   2.266
   96SAPC   O14 9378   3.237   2.050   2.307
   96SAPC   O12 9379   3.478   2.071   2.272
   96SAPC   O11 9380   3.375   2.145   2.479
   96SAPC    C1 9381   3.441   2.034   2.541
   96SAPC    HA 9382   3.429   1.932   2.498
   96SAPC    HB 9383   3.548   2.058   2.525
   96SAPC    C2 9384   3.427   2.024   2.691
   96SAPC    HS 9385   3.318   2.037   2.703
   96SAPC   O21 9386   3.493   2.127   2.764
   96SAPC   C21 9387   3.406   2.215   2.820
   96SAPC   O22 9388   3.288   2.228   2.789
   96SAPC   C22 9389   3.480   2.284   2.939
   96SAPC   H2R 9390   3.516   2.196   2.997
   96SAPC   H2S 9391   3.555   2.353   2.895
   96SAPC    C3 9392   3.461   1.890   2.755
   96SAPC    HX 9393   3.571   1.878   2.759
   96SAPC    HY 9394   3.428   1.807   2.689
   96SAPC   O31 9395   3.402   1.880   2.882
   96SAPC   C31 9396   3.283   1.817   2.901
   96SAPC   O32 9397   3.225   1.756   2.811
   96SAPC   C32 9398   3.242   1.846   3.043
   96SAPC   H2X 9399   3.185   1.758   3.081
   96SAPC   H2Y 9400   3.179   1.936   3.028
   96SAPC   C23 9401   3.373   2.368   3.009
   96SAPC   H3R 9402   3.289   2.307   3.048
   96SAPC   H3S 9403   3.337   2.448   2.940
   96SAPC   C24 9404   3.439   2.433   3.136
   96SAPC   H4R 9405   3.363   2.494   3.190
   96SAPC   H4S 9406   3.512   2.511   3.104
   96SAPC   C25 9407   3.497   2.329   3.229
   96SAPC   H5R 9408   3.592   2.285   3.195
   96SAPC   C26 9409   3.439   2.281   3.335
   96SAPC   H6R 9410   3.489   2.197   3.385
   96SAPC   C27 9411   3.306   2.321   3.385
   96SAPC   H7R 9412   3.258   2.228   3.422
   96SAPC   H7S 9413   3.248   2.362   3.300
   96SAPC   C28 9414   3.336   2.419   3.497
   96SAPC   H8R 9415   3.342   2.526   3.472
   96SAPC   C29 9416   3.315   2.401   3.626
   96SAPC   H9R 9417   3.339   2.479   3.701
   96SAPC  C210 9418   3.303   2.264   3.684
   96SAPC  H10R 9419   3.359   2.264   3.780
   96SAPC  H10S 9420   3.358   2.191   3.621
   96SAPC  C211 9421   3.166   2.207   3.702
   96SAPC  H11R 9422   3.095   2.233   3.622
   96SAPC  C212 9423   3.121   2.140   3.804
   96SAPC  H12R 9424   3.019   2.099   3.796
   96SAPC  C213 9425   3.188   2.113   3.934
   96SAPC  H13R 9426   3.283   2.169   3.948
   96SAPC  H13S 9427   3.220   2.007   3.947
   96SAPC  C214 9428   3.086   2.128   4.042
   96SAPC  H14R 9429   2.989   2.167   4.009
   96SAPC  C215 9430   3.113   2.111   4.169
   96SAPC  H15R 9431   3.037   2.129   4.246
   96SAPC  C216 9432   3.253   2.092   4.226
   96SAPC  H16R 9433   3.279   2.183   4.283
   96SAPC  H16S 9434   3.326   2.071   4.144
   96SAPC  C217 9435   3.256   1.969   4.318
   96SAPC  H17R 9436   3.232   1.885   4.249
   96SAPC  H17S 9437   3.183   1.996   4.398
   96SAPC  C218 9438   3.382   1.944   4.403
   96SAPC  H18R 9439   3.417   2.047   4.429
   96SAPC  H18S 9440   3.466   1.897   4.347
   96SAPC  C219 9441   3.368   1.859   4.530
   96SAPC  H19R 9442   3.277   1.797   4.514
   96SAPC  H19S 9443   3.333   1.929   4.610
   96SAPC  C220 9444   3.495   1.773   4.556
   96SAPC  H20R 9445   3.589   1.828   4.531
   96SAPC  H20S 9446   3.488   1.684   4.491
   96SAPC  H20T 9447   3.499   1.728   4.657
   96SAPC   C33 9448   3.357   1.868   3.145
   96SAPC   H3X 9449   3.431   1.942   3.108
   96SAPC   H3Y 9450   3.416   1.777   3.171
   96SAPC   C34 9451   3.307   1.940   3.271
   96SAPC   H4X 9452   3.276   2.036   3.224
   96SAPC   H4Y 9453   3.392   1.952   3.343
   96SAPC   C35 9454   3.200   1.856   3.343
   96SAPC   H5X 9455   3.238   1.758   3.378
   96SAPC   H5Y 9456   3.117   1.831   3.273
   96SAPC   C36 9457   3.136   1.931   3.465
   96SAPC   H6X 9458   3.058   1.999   3.424
   96SAPC   H6Y 9459   3.209   1.995   3.519
   96SAPC   C37 9460   3.047   1.843   3.556
   96SAPC   H7X 9461   2.957   1.815   3.497
   96SAPC   H7Y 9462   3.006   1.915   3.631
   96SAPC   C38 9463   3.109   1.728   3.637
   96SAPC   H8X 9464   3.209   1.760   3.673
   96SAPC   H8Y 9465   3.095   1.635   3.578
   96SAPC   C39 9466   3.033   1.685   3.760
   96SAPC   H9X 9467   3.092   1.601   3.803
   96SAPC   H9Y 9468   2.928   1.655   3.738
   96SAPC  C310 9469   3.021   1.794   3.866
   96SAPC  H10X 9470   2.956   1.883   3.854
   96SAPC  H10Y 9471   3.121   1.842   3.867
   96SAPC  C311 9472   2.996   1.738   4.010
   96SAPC  H11X 9473   3.005   1.832   4.069
   96SAPC  H11Y 9474   3.078   1.668   4.038
   96SAPC  C312 9475   2.854   1.683   4.034
   96SAPC  H12X 9476   2.831   1.600   3.962
   96SAPC  H12Y 9477   2.782   1.763   4.007
   96SAPC  C313 9478   2.817   1.633   4.176
   96SAPC  H13X 9479   2.906   1.591   4.228
   96SAPC  H13Y 9480   2.757   1.539   4.173
   96SAPC  C314 9481   2.744   1.740   4.255
   96SAPC  H14X 9482   2.719   1.700   4.356
   96SAPC  H14Y 9483   2.653   1.764   4.196
   96SAPC  C315 9484   2.810   1.878   4.281
   96SAPC  H15X 9485   2.861   1.921   4.192
   96SAPC  H15Y 9486   2.890   1.874   4.358
   96SAPC  C316 9487   2.714   1.991   4.332
   96SAPC  H16X 9488   2.662   1.944   4.417
   96SAPC  H16Y 9489   2.635   2.019   4.260
   96SAPC  C317 9490   2.777   2.117   4.380
   96SAPC  H17X 9491   2.698   2.194   4.385
   96SAPC  H17Y 9492   2.843   2.151   4.297
   96SAPC  C318 9493   2.870   2.112   4.504
   96SAPC  H18X 9494   2.896   2.214   4.541
   96SAPC  H18Y 9495   2.964   2.054   4.494
   96SAPC  H18Z 9496   2.808   2.071   4.587
   97SAPC     N 9497   2.462   1.135   1.558
   97SAPC   C12 9498   2.595   1.127   1.636
   97SAPC  H12A 9499   2.603   1.227   1.677
   97SAPC  H12B 9500   2.670   1.107   1.562
   97SAPC   C13 9501   2.474   1.230   1.448
   97SAPC  H13A 9502   2.511   1.319   1.497
   97SAPC  H13B 9503   2.542   1.189   1.375
   97SAPC  H13C 9504   2.384   1.259   1.397
   97SAPC   C14 9505   2.431   1.002   1.504
   97SAPC  H14A 9506   2.509   0.963   1.441
   97SAPC  H14B 9507   2.415   0.937   1.589
   97SAPC  H14C 9508   2.342   0.993   1.444
   97SAPC   C15 9509   2.358   1.178   1.654
   97SAPC  H15A 9510   2.364   1.282   1.684
   97SAPC  H15B 9511   2.260   1.143   1.626
   97SAPC  H15C 9512   2.369   1.126   1.748
   97SAPC   C11 9513   2.612   1.023   1.744
   97SAPC  H11A 9514   2.720   1.018   1.770
   97SAPC  H11B 9515   2.596   0.923   1.698
   97SAPC     P 9516   2.600   1.095   1.999
   97SAPC   O13 9517   2.733   1.157   1.970
   97SAPC   O14 9518   2.504   1.182   2.067
   97SAPC   O12 9519   2.533   1.052   1.862
   97SAPC   O11 9520   2.617   0.960   2.073
   97SAPC    C1 9521   2.718   0.969   2.180
   97SAPC    HA 9522   2.821   0.970   2.138
   97SAPC    HB 9523   2.712   1.061   2.242
   97SAPC    C2 9524   2.729   0.840   2.266
   97SAPC    HS 9525   2.745   0.753   2.199
   97SAPC   O21 9526   2.608   0.832   2.332
   97SAPC   C21 9527   2.594   0.723   2.410
   97SAPC   O22 9528   2.668   0.622   2.403
   97SAPC   C22 9529   2.510   0.758   2.541
   97SAPC   H2R 9530   2.512   0.868   2.560
   97SAPC   H2S 9531   2.407   0.730   2.510
   97SAPC    C3 9532   2.861   0.851   2.362
   97SAPC    HX 9533   2.954   0.833   2.303
   97SAPC    HY 9534   2.867   0.769   2.436
   97SAPC   O31 9535   2.859   0.976   2.439
   97SAPC   C31 9536   2.970   0.995   2.508
   97SAPC   O32 9537   3.072   0.927   2.504
   97SAPC   C32 9538   2.955   1.112   2.602
   97SAPC   H2X 9539   2.884   1.186   2.560
   97SAPC   H2Y 9540   3.054   1.163   2.613
   97SAPC   C23 9541   2.554   0.674   2.668
   97SAPC   H3R 9542   2.570   0.569   2.635
   97SAPC   H3S 9543   2.472   0.679   2.742
   97SAPC   C24 9544   2.672   0.745   2.724
   97SAPC   H4R 9545   2.638   0.834   2.780
   97SAPC   H4S 9546   2.732   0.775   2.635
   97SAPC   C25 9547   2.748   0.656   2.821
   97SAPC   H5R 9548   2.807   0.584   2.762
   97SAPC   C26 9549   2.741   0.649   2.955
   97SAPC   H6R 9550   2.810   0.580   3.006
   97SAPC   C27 9551   2.655   0.727   3.044
   97SAPC   H7R 9552   2.599   0.795   2.976
   97SAPC   H7S 9553   2.711   0.793   3.114
   97SAPC   C28 9554   2.554   0.649   3.127
   97SAPC   H8R 9555   2.455   0.651   3.079
   97SAPC   C29 9556   2.574   0.603   3.251
   97SAPC   H9R 9557   2.496   0.542   3.300
   97SAPC  C210 9558   2.699   0.630   3.323
   97SAPC  H10R 9559   2.732   0.736   3.331
   97SAPC  H10S 9560   2.786   0.588   3.269
   97SAPC  C211 9561   2.700   0.566   3.455
   97SAPC  H11R 9562   2.694   0.633   3.541
   97SAPC  C212 9563   2.709   0.435   3.491
   97SAPC  H12R 9564   2.711   0.410   3.598
   97SAPC  C213 9565   2.720   0.317   3.396
   97SAPC  H13R 9566   2.820   0.277   3.424
   97SAPC  H13S 9567   2.734   0.351   3.291
   97SAPC  C214 9568   2.615   0.209   3.392
   97SAPC  H14R 9569   2.552   0.216   3.302
   97SAPC  C215 9570   2.591   0.114   3.475
   97SAPC  H15R 9571   2.499   0.056   3.460
   97SAPC  C216 9572   2.656   0.084   3.601
   97SAPC  H16R 9573   2.742   0.152   3.619
   97SAPC  H16S 9574   2.710   6.844   3.606
   97SAPC  C217 9575   2.562   0.084   3.728
   97SAPC  H17R 9576   2.624   0.073   3.820
   97SAPC  H17S 9577   2.489   0.001   3.718
   97SAPC  C218 9578   2.479   0.214   3.743
   97SAPC  H18R 9579   2.430   0.248   3.650
   97SAPC  H18S 9580   2.556   0.289   3.771
   97SAPC  C219 9581   2.370   0.200   3.849
   97SAPC  H19R 9582   2.422   0.145   3.931
   97SAPC  H19S 9583   2.286   0.146   3.801
   97SAPC  C220 9584   2.318   0.332   3.908
   97SAPC  H20R 9585   2.290   0.401   3.825
   97SAPC  H20S 9586   2.394   0.371   3.979
   97SAPC  H20T 9587   2.226   0.312   3.967
   97SAPC   C33 9588   2.906   1.080   2.745
   97SAPC   H3X 9589   2.819   1.012   2.735
   97SAPC   H3Y 9590   2.880   1.168   2.808
   97SAPC   C34 9591   3.010   0.994   2.824
   97SAPC   H4X 9592   3.101   1.051   2.851
   97SAPC   H4Y 9593   3.042   0.909   2.759
   97SAPC   C35 9594   2.960   0.951   2.956
   97SAPC   H5X 9595   2.876   0.881   2.931
   97SAPC   H5Y 9596   2.914   1.039   3.006
   97SAPC   C36 9597   3.075   0.891   3.045
   97SAPC   H6X 9598   3.147   0.970   3.075
   97SAPC   H6Y 9599   3.134   0.813   2.994
   97SAPC   C37 9600   3.020   0.835   3.174
   97SAPC   H7X 9601   2.964   0.741   3.151
   97SAPC   H7Y 9602   2.942   0.905   3.212
   97SAPC   C38 9603   3.128   0.807   3.281
   97SAPC   H8X 9604   3.174   0.908   3.293
   97SAPC   H8Y 9605   3.203   0.740   3.235
   97SAPC   C39 9606   3.066   0.754   3.409
   97SAPC   H9X 9607   3.056   0.644   3.392
   97SAPC   H9Y 9608   2.961   0.784   3.432
   97SAPC  C310 9609   3.136   0.801   3.539
   97SAPC  H10X 9610   3.132   0.912   3.542
   97SAPC  H10Y 9611   3.243   0.777   3.524
   97SAPC  C311 9612   3.083   0.740   3.673
   97SAPC  H11X 9613   3.083   0.630   3.665
   97SAPC  H11Y 9614   2.977   0.764   3.696
   97SAPC  C312 9615   3.161   0.792   3.797
   97SAPC  H12X 9616   3.149   0.903   3.797
   97SAPC  H12Y 9617   3.264   0.754   3.779
   97SAPC  C313 9618   3.123   0.734   3.936
   97SAPC  H13X 9619   3.092   0.627   3.930
   97SAPC  H13Y 9620   3.033   0.792   3.964
   97SAPC  C314 9621   3.232   0.743   4.043
   97SAPC  H14X 9622   3.255   0.850   4.063
   97SAPC  H14Y 9623   3.324   0.687   4.018
   97SAPC  C315 9624   3.180   0.691   4.179
   97SAPC  H15X 9625   3.075   0.722   4.199
   97SAPC  H15Y 9626   3.242   0.739   4.258
   97SAPC  C316 9627   3.191   0.539   4.184
   97SAPC  H16X 9628   3.298   0.509   4.186
   97SAPC  H16Y 9629   3.132   0.499   4.099
   97SAPC  C317 9630   3.134   0.478   4.317
   97SAPC  H17X 9631   3.158   0.370   4.328
   97SAPC  H17Y 9632   3.026   0.487   4.291
   97SAPC  C318 9633   3.179   0.560   4.441
   97SAPC  H18X 9634   3.141   0.665   4.435
   97SAPC  H18Y 9635   3.290   0.563   4.449
   97SAPC  H18Z 9636   3.145   0.517   4.537
   98SAPC     N 9637   5.146   1.896   1.916
   98SAPC   C12 9638   5.220   1.818   2.025
   98SAPC  H12A 9639   5.180   1.718   2.022
   98SAPC  H12B 9640   5.188   1.861   2.119
   98SAPC   C13 9641   4.998   1.902   1.963
   98SAPC  H13A 9642   4.992   1.907   2.071
   98SAPC  H13B 9643   4.948   1.987   1.918
   98SAPC  H13C 9644   4.950   1.810   1.934
   98SAPC   C14 9645   5.194   2.038   1.920
   98SAPC  H14A 9646   5.301   2.036   1.910
   98SAPC  H14B 9647   5.141   2.090   1.841
   98SAPC  H14C 9648   5.170   2.097   2.007
   98SAPC   C15 9649   5.151   1.851   1.775
   98SAPC  H15A 9650   5.096   1.914   1.707
   98SAPC  H15B 9651   5.251   1.864   1.736
   98SAPC  H15C 9652   5.118   1.749   1.767
   98SAPC   C11 9653   5.375   1.803   2.032
   98SAPC  H11A 9654   5.414   1.760   1.937
   98SAPC  H11B 9655   5.403   1.729   2.111
   98SAPC     P 9656   5.450   1.984   2.198
   98SAPC   O13 9657   5.541   2.105   2.198
   98SAPC   O14 9658   5.310   2.009   2.242
   98SAPC   O12 9659   5.442   1.924   2.049
   98SAPC   O11 9660   5.515   1.872   2.292
   98SAPC    C1 9661   5.473   1.859   2.425
   98SAPC    HA 9662   5.535   1.934   2.478
   98SAPC    HB 9663   5.369   1.892   2.440
   98SAPC    C2 9664   5.503   1.716   2.472
   98SAPC    HS 9665   5.414   1.682   2.530
   98SAPC   O21 9666   5.617   1.705   2.562
   98SAPC   C21 9667   5.619   1.774   2.671
   98SAPC   O22 9668   5.525   1.840   2.716
   98SAPC   C22 9669   5.744   1.747   2.742
   98SAPC   H2R 9670   5.790   1.646   2.734
   98SAPC   H2S 9671   5.816   1.819   2.699
   98SAPC    C3 9672   5.503   1.613   2.355
   98SAPC    HX 9673   5.583   1.650   2.288
   98SAPC    HY 9674   5.403   1.620   2.306
   98SAPC   O31 9675   5.520   1.481   2.396
   98SAPC   C31 9676   5.643   1.438   2.386
   98SAPC   O32 9677   5.735   1.492   2.329
   98SAPC   C32 9678   5.654   1.301   2.462
   98SAPC   H2X 9679   5.738   1.244   2.418
   98SAPC   H2Y 9680   5.571   1.227   2.457
   98SAPC   C23 9681   5.723   1.792   2.893
   98SAPC   H3R 9682   5.624   1.751   2.924
   98SAPC   H3S 9683   5.701   1.901   2.899
   98SAPC   C24 9684   5.834   1.762   2.998
   98SAPC   H4R 9685   5.923   1.821   2.968
   98SAPC   H4S 9686   5.855   1.654   2.980
   98SAPC   C25 9687   5.780   1.797   3.137
   98SAPC   H5R 9688   5.674   1.824   3.148
   98SAPC   C26 9689   5.869   1.808   3.242
   98SAPC   H6R 9690   5.825   1.838   3.338
   98SAPC   C27 9691   6.018   1.775   3.229
   98SAPC   H7R 9692   6.088   1.857   3.201
   98SAPC   H7S 9693   6.028   1.712   3.138
   98SAPC   C28 9694   6.066   1.702   3.354
   98SAPC   H8R 9695   5.989   1.680   3.429
   98SAPC   C29 9696   6.183   1.643   3.386
   98SAPC   H9R 9697   6.195   1.599   3.487
   98SAPC  C210 9698   6.306   1.637   3.292
   98SAPC  H10R 9699   6.393   1.598   3.348
   98SAPC  H10S 9700   6.326   1.740   3.256
   98SAPC  C211 9701   6.276   1.541   3.176
   98SAPC  H11R 9702   6.241   1.442   3.211
   98SAPC  C212 9703   6.285   1.564   3.042
   98SAPC  H12R 9704   6.284   1.480   2.971
   98SAPC  C213 9705   6.342   1.688   2.976
   98SAPC  H13R 9706   6.445   1.706   3.015
   98SAPC  H13S 9707   6.281   1.775   3.008
   98SAPC  C214 9708   6.352   1.682   2.820
   98SAPC  H14R 9709   6.448   1.667   2.769
   98SAPC  C215 9710   6.248   1.677   2.738
   98SAPC  H15R 9711   6.264   1.646   2.634
   98SAPC  C216 9712   6.102   1.669   2.776
   98SAPC  H16R 9713   6.036   1.752   2.743
   98SAPC  H16S 9714   6.090   1.673   2.886
   98SAPC  C217 9715   6.039   1.542   2.725
   98SAPC  H17R 9716   6.002   1.559   2.622
   98SAPC  H17S 9717   5.944   1.525   2.780
   98SAPC  C218 9718   6.115   1.404   2.743
   98SAPC  H18R 9719   6.085   1.375   2.846
   98SAPC  H18S 9720   6.224   1.424   2.745
   98SAPC  C219 9721   6.089   1.296   2.640
   98SAPC  H19R 9722   5.987   1.311   2.597
   98SAPC  H19S 9723   6.085   1.199   2.693
   98SAPC  C220 9724   6.206   1.292   2.535
   98SAPC  H20R 9725   6.307   1.271   2.576
   98SAPC  H20S 9726   6.210   1.382   2.470
   98SAPC  H20T 9727   6.184   1.211   2.463
   98SAPC   C33 9728   5.689   1.322   2.609
   98SAPC   H3X 9729   5.770   1.397   2.619
   98SAPC   H3Y 9730   5.718   1.222   2.648
   98SAPC   C34 9731   5.560   1.355   2.682
   98SAPC   H4X 9732   5.484   1.279   2.653
   98SAPC   H4Y 9733   5.518   1.456   2.664
   98SAPC   C35 9734   5.590   1.338   2.834
   98SAPC   H5X 9735   5.628   1.438   2.864
   98SAPC   H5Y 9736   5.667   1.260   2.853
   98SAPC   C36 9737   5.467   1.308   2.917
   98SAPC   H6X 9738   5.426   1.214   2.873
   98SAPC   H6Y 9739   5.385   1.382   2.904
   98SAPC   C37 9740   5.500   1.281   3.066
   98SAPC   H7X 9741   5.568   1.194   3.079
   98SAPC   H7Y 9742   5.401   1.259   3.112
   98SAPC   C38 9743   5.577   1.403   3.140
   98SAPC   H8X 9744   5.543   1.505   3.113
   98SAPC   H8Y 9745   5.682   1.404   3.103
   98SAPC   C39 9746   5.577   1.409   3.296
   98SAPC   H9X 9747   5.614   1.308   3.325
   98SAPC   H9Y 9748   5.470   1.418   3.324
   98SAPC  C310 9749   5.651   1.526   3.351
   98SAPC  H10X 9750   5.622   1.618   3.296
   98SAPC  H10Y 9751   5.760   1.513   3.338
   98SAPC  C311 9752   5.610   1.544   3.500
   98SAPC  H11X 9753   5.502   1.564   3.518
   98SAPC  H11Y 9754   5.664   1.631   3.544
   98SAPC  C312 9755   5.629   1.421   3.592
   98SAPC  H12X 9756   5.585   1.331   3.544
   98SAPC  H12Y 9757   5.582   1.426   3.693
   98SAPC  C313 9758   5.781   1.395   3.616
   98SAPC  H13X 9759   5.826   1.394   3.514
   98SAPC  H13Y 9760   5.781   1.291   3.655
   98SAPC  C314 9761   5.844   1.486   3.712
   98SAPC  H14X 9762   5.795   1.461   3.808
   98SAPC  H14Y 9763   5.819   1.592   3.689
   98SAPC  C315 9764   5.995   1.488   3.716
   98SAPC  H15X 9765   6.034   1.534   3.623
   98SAPC  H15Y 9766   6.015   1.379   3.719
   98SAPC  C316 9767   6.060   1.566   3.826
   98SAPC  H16X 9768   6.017   1.538   3.924
   98SAPC  H16Y 9769   6.058   1.675   3.805
   98SAPC  C317 9770   6.215   1.533   3.829
   98SAPC  H17X 9771   6.277   1.569   3.744
   98SAPC  H17Y 9772   6.240   1.425   3.833
   98SAPC  C318 9773   6.276   1.596   3.952
   98SAPC  H18X 9774   6.242   1.541   4.042
   98SAPC  H18Y 9775   6.252   1.704   3.960
   98SAPC  H18Z 9776   6.384   1.576   3.940
   99SAPC     N 9777   3.032   5.911   2.214
   99SAPC   C12 9778   3.065   5.833   2.342
   99SAPC  H12A 9779   3.025   5.876   2.433
   99SAPC  H12B 9780   3.172   5.819   2.353
   99SAPC   C13 9781   3.077   6.054   2.252
   99SAPC  H13A 9782   3.064   6.115   2.164
   99SAPC  H13B 9783   3.019   6.088   2.335
   99SAPC  H13C 9784   3.182   6.046   2.278
   99SAPC   C14 9785   3.119   5.861   2.101
   99SAPC  H14A 9786   3.091   5.919   2.015
   99SAPC  H14B 9787   3.224   5.876   2.123
   99SAPC  H14C 9788   3.101   5.758   2.073
   99SAPC   C15 9789   2.891   5.908   2.180
   99SAPC  H15A 9790   2.867   5.987   2.110
   99SAPC  H15B 9791   2.858   5.809   2.149
   99SAPC  H15C 9792   2.830   5.935   2.265
   99SAPC   C11 9793   3.013   5.685   2.340
   99SAPC  H11A 9794   2.906   5.679   2.312
   99SAPC  H11B 9795   3.015   5.651   2.446
   99SAPC     P 9796   3.236   5.543   2.287
   99SAPC   O13 9797   3.222   5.404   2.332
   99SAPC   O14 9798   3.307   5.562   2.156
   99SAPC   O12 9799   3.085   5.601   2.261
   99SAPC   O11 9800   3.299   5.622   2.409
   99SAPC    C1 9801   3.420   5.583   2.479
   99SAPC    HA 9802   3.452   5.483   2.442
   99SAPC    HB 9803   3.503   5.652   2.450
   99SAPC    C2 9804   3.398   5.593   2.636
   99SAPC    HS 9805   3.503   5.599   2.670
   99SAPC   O21 9806   3.329   5.477   2.671
   99SAPC   C21 9807   3.380   5.406   2.764
   99SAPC   O22 9808   3.480   5.431   2.825
   99SAPC   C22 9809   3.310   5.271   2.792
   99SAPC   H2R 9810   3.302   5.218   2.695
   99SAPC   H2S 9811   3.381   5.210   2.853
   99SAPC    C3 9812   3.314   5.724   2.674
   99SAPC    HX 9813   3.219   5.698   2.623
   99SAPC    HY 9814   3.369   5.813   2.637
   99SAPC   O31 9815   3.315   5.735   2.821
   99SAPC   C31 9816   3.205   5.773   2.879
   99SAPC   O32 9817   3.106   5.814   2.824
   99SAPC   C32 9818   3.211   5.753   3.031
   99SAPC   H2X 9819   3.286   5.822   3.074
   99SAPC   H2Y 9820   3.255   5.653   3.053
   99SAPC   C23 9821   3.169   5.268   2.859
   99SAPC   H3R 9822   3.130   5.164   2.860
   99SAPC   H3S 9823   3.096   5.327   2.801
   99SAPC   C24 9824   3.156   5.314   3.009
   99SAPC   H4R 9825   3.061   5.266   3.041
   99SAPC   H4S 9826   3.149   5.425   3.009
   99SAPC   C25 9827   3.266   5.274   3.106
   99SAPC   H5R 9828   3.365   5.250   3.065
   99SAPC   C26 9829   3.253   5.257   3.239
   99SAPC   H6R 9830   3.339   5.232   3.302
   99SAPC   C27 9831   3.122   5.285   3.310
   99SAPC   H7R 9832   3.063   5.195   3.336
   99SAPC   H7S 9833   3.048   5.339   3.248
   99SAPC   C28 9834   3.141   5.374   3.431
   99SAPC   H8R 9835   3.230   5.437   3.419
   99SAPC   C29 9836   3.064   5.382   3.542
   99SAPC   H9R 9837   3.092   5.448   3.625
   99SAPC  C210 9838   2.933   5.316   3.567
   99SAPC  H10R 9839   2.903   5.244   3.488
   99SAPC  H10S 9840   2.852   5.391   3.583
   99SAPC  C211 9841   2.944   5.245   3.704
   99SAPC  H11R 9842   3.035   5.187   3.724
   99SAPC  C212 9843   2.863   5.255   3.812
   99SAPC  H12R 9844   2.897   5.209   3.906
   99SAPC  C213 9845   2.723   5.306   3.807
   99SAPC  H13R 9846   2.681   5.278   3.708
   99SAPC  H13S 9847   2.743   5.415   3.807
   99SAPC  C214 9848   2.625   5.271   3.914
   99SAPC  H14R 9849   2.579   5.174   3.892
   99SAPC  C215 9850   2.585   5.354   4.014
   99SAPC  H15R 9851   2.508   5.325   4.086
   99SAPC  C216 9852   2.641   5.497   4.030
   99SAPC  H16R 9853   2.747   5.501   4.000
   99SAPC  H16S 9854   2.656   5.512   4.139
   99SAPC  C217 9855   2.563   5.611   3.963
   99SAPC  H17R 9856   2.557   5.610   3.852
   99SAPC  H17S 9857   2.624   5.703   3.976
   99SAPC  C218 9858   2.418   5.626   4.016
   99SAPC  H18R 9859   2.361   5.538   3.978
   99SAPC  H18S 9860   2.369   5.716   3.972
   99SAPC  C219 9861   2.411   5.608   4.173
   99SAPC  H19R 9862   2.485   5.679   4.215
   99SAPC  H19S 9863   2.455   5.511   4.205
   99SAPC  C220 9864   2.276   5.628   4.237
   99SAPC  H20R 9865   2.201   5.587   4.167
   99SAPC  H20S 9866   2.252   5.736   4.237
   99SAPC  H20T 9867   2.265   5.577   4.335
   99SAPC   C33 9868   3.075   5.776   3.095
   99SAPC   H3X 9869   3.011   5.702   3.042
   99SAPC   H3Y 9870   3.024   5.874   3.086
   99SAPC   C34 9871   3.071   5.734   3.240
   99SAPC   H4X 9872   3.145   5.651   3.246
   99SAPC   H4Y 9873   2.970   5.698   3.271
   99SAPC   C35 9874   3.108   5.837   3.348
   99SAPC   H5X 9875   3.032   5.915   3.370
   99SAPC   H5Y 9876   3.207   5.885   3.328
   99SAPC   C36 9877   3.127   5.762   3.484
   99SAPC   H6X 9878   3.184   5.668   3.469
   99SAPC   H6Y 9879   3.028   5.745   3.532
   99SAPC   C37 9880   3.207   5.847   3.587
   99SAPC   H7X 9881   3.147   5.940   3.588
   99SAPC   H7Y 9882   3.307   5.863   3.542
   99SAPC   C38 9883   3.241   5.790   3.726
   99SAPC   H8X 9884   3.322   5.852   3.769
   99SAPC   H8Y 9885   3.292   5.693   3.708
   99SAPC   C39 9886   3.110   5.758   3.807
   99SAPC   H9X 9887   3.038   5.699   3.746
   99SAPC   H9Y 9888   3.060   5.854   3.830
   99SAPC  C310 9889   3.130   5.679   3.939
   99SAPC  H10X 9890   3.211   5.728   3.997
   99SAPC  H10Y 9891   3.155   5.574   3.916
   99SAPC  C311 9892   3.002   5.693   4.021
   99SAPC  H11X 9893   2.915   5.660   3.959
   99SAPC  H11Y 9894   2.996   5.800   4.048
   99SAPC  C312 9895   2.994   5.603   4.144
   99SAPC  H12X 9896   2.886   5.601   4.171
   99SAPC  H12Y 9897   3.060   5.648   4.222
   99SAPC  C313 9898   3.052   5.455   4.147
   99SAPC  H13X 9899   3.158   5.467   4.115
   99SAPC  H13Y 9900   2.988   5.401   4.074
   99SAPC  C314 9901   3.053   5.387   4.289
   99SAPC  H14X 9902   2.953   5.373   4.336
   99SAPC  H14Y 9903   3.120   5.453   4.348
   99SAPC  C315 9904   3.120   5.246   4.289
   99SAPC  H15X 9905   3.226   5.273   4.273
   99SAPC  H15Y 9906   3.080   5.193   4.200
   99SAPC  C316 9907   3.115   5.179   4.420
   99SAPC  H16X 9908   3.012   5.144   4.444
   99SAPC  H16Y 9909   3.147   5.227   4.516
   99SAPC  C317 9910   3.185   5.052   4.398
   99SAPC  H17X 9911   3.166   5.018   4.293
   99SAPC  H17Y 9912   3.146   4.972   4.465
   99SAPC  C318 9913   3.341   5.054   4.409
   99SAPC  H18X 9914   3.382   4.952   4.421
   99SAPC  H18Y 9915   3.356   5.107   4.506
   99SAPC  H18Z 9916   3.387   5.103   4.320
  100SAPC     N 9917   1.694   4.242   1.911
  100SAPC   C12 9918   1.601   4.363   1.936
  100SAPC  H12A 9919   1.539   4.338   2.021
  100SAPC  H12B 9920   1.538   4.383   1.851
  100SAPC   C13 9921   1.766   4.267   1.780
  100SAPC  H13A 9922   1.711   4.320   1.703
  100SAPC  H13B 9923   1.850   4.329   1.807
  100SAPC  H13C 9924   1.799   4.177   1.730
  100SAPC   C14 9925   1.781   4.211   2.021
  100SAPC  H14A 9926   1.848   4.130   1.997
  100SAPC  H14B 9927   1.845   4.295   2.043
  100SAPC  H14C 9928   1.713   4.195   2.104
  100SAPC   C15 9929   1.622   4.117   1.883
  100SAPC  H15A 9930   1.568   4.077   1.967
  100SAPC  H15B 9931   1.547   4.129   1.806
  100SAPC  H15C 9932   1.691   4.040   1.852
  100SAPC   C11 9933   1.681   4.488   1.964
  100SAPC  H11A 9934   1.735   4.516   1.871
  100SAPC  H11B 9935   1.761   4.470   2.039
  100SAPC     P 9936   1.603   4.664   2.147
  100SAPC   O13 9937   1.738   4.703   2.196
  100SAPC   O14 9938   1.493   4.763   2.159
  100SAPC   O12 9939   1.601   4.604   1.997
  100SAPC   O11 9940   1.569   4.533   2.230
  100SAPC    C1 9941   1.436   4.484   2.241
  100SAPC    HA 9942   1.359   4.562   2.258
  100SAPC    HB 9943   1.403   4.442   2.144
  100SAPC    C2 9944   1.427   4.382   2.362
  100SAPC    HS 9945   1.325   4.344   2.381
  100SAPC   O21 9946   1.468   4.459   2.478
  100SAPC   C21 9947   1.366   4.518   2.552
  100SAPC   O22 9948   1.249   4.509   2.520
  100SAPC   C22 9949   1.430   4.595   2.673
  100SAPC   H2R 9950   1.514   4.661   2.644
  100SAPC   H2S 9951   1.353   4.668   2.707
  100SAPC    C3 9952   1.528   4.273   2.349
  100SAPC    HX 9953   1.624   4.322   2.325
  100SAPC    HY 9954   1.491   4.216   2.261
  100SAPC   O31 9955   1.532   4.195   2.476
  100SAPC   C31 9956   1.638   4.139   2.509
  100SAPC   O32 9957   1.738   4.120   2.443
  100SAPC   C32 9958   1.627   4.095   2.659
  100SAPC   H2X 9959   1.547   4.019   2.670
  100SAPC   H2Y 9960   1.596   4.187   2.714
  100SAPC   C23 9961   1.473   4.512   2.791
  100SAPC   H3R 9962   1.557   4.450   2.751
  100SAPC   H3S 9963   1.386   4.453   2.828
  100SAPC   C24 9964   1.515   4.597   2.911
  100SAPC   H4R 9965   1.422   4.640   2.953
  100SAPC   H4S 9966   1.576   4.686   2.885
  100SAPC   C25 9967   1.593   4.510   3.008
  100SAPC   H5R 9968   1.701   4.501   2.988
  100SAPC   C26 9969   1.537   4.440   3.105
  100SAPC   H6R 9970   1.597   4.372   3.167
  100SAPC   C27 9971   1.391   4.434   3.145
  100SAPC   H7R 9972   1.326   4.376   3.076
  100SAPC   H7S 9973   1.355   4.539   3.141
  100SAPC   C28 9974   1.358   4.390   3.286
  100SAPC   H8R 9975   1.303   4.295   3.293
  100SAPC   C29 9976   1.373   4.463   3.402
  100SAPC   H9R 9977   1.355   4.409   3.496
  100SAPC  C210 9978   1.452   4.599   3.413
  100SAPC  H10R 9979   1.380   4.674   3.452
  100SAPC  H10S 9980   1.481   4.641   3.315
  100SAPC  C211 9981   1.571   4.592   3.499
  100SAPC  H11R 9982   1.663   4.589   3.439
  100SAPC  C212 9983   1.578   4.591   3.636
  100SAPC  H12R 9984   1.673   4.573   3.688
  100SAPC  C213 9985   1.457   4.592   3.721
  100SAPC  H13R 9986   1.384   4.665   3.681
  100SAPC  H13S 9987   1.482   4.626   3.824
  100SAPC  C214 9988   1.400   4.449   3.734
  100SAPC  H14R 9989   1.483   4.376   3.736
  100SAPC  C215 9990   1.269   4.421   3.749
  100SAPC  H15R 9991   1.241   4.315   3.739
  100SAPC  C216 9992   1.152   4.511   3.742
  100SAPC  H16R 9993   1.076   4.488   3.665
  100SAPC  H16S 9994   1.194   4.599   3.690
  100SAPC  C217 9995   1.098   4.548   3.879
  100SAPC  H17R 9996   1.046   4.463   3.929
  100SAPC  H17S 9997   1.021   4.621   3.846
  100SAPC  C218 9998   1.191   4.640   3.961
  100SAPC  H18R 9999   1.222   4.732   3.907
  100SAPC  H18S10000   1.273   4.570   3.987
  100SAPC  C21910001   1.108   4.691   4.077
  100SAPC  H19R10002   1.027   4.743   4.022
  100SAPC  H19S10003   1.171   4.767   4.128
  100SAPC  C22010004   1.051   4.597   4.176
  100SAPC  H20R10005   1.134   4.528   4.203
  100SAPC  H20S10006   0.974   4.528   4.136
  100SAPC  H20T10007   1.000   4.642   4.264
  100SAPC   C3310008   1.753   4.030   2.723
  100SAPC   H3X10009   1.832   4.098   2.762
  100SAPC   H3Y10010   1.806   3.982   2.638
  100SAPC   C3410011   1.709   3.929   2.827
  100SAPC   H4X10012   1.794   3.863   2.855
  100SAPC   H4Y10013   1.624   3.865   2.794
  100SAPC   C3510014   1.680   4.012   2.960
  100SAPC   H5X10015   1.611   4.096   2.936
  100SAPC   H5Y10016   1.775   4.052   3.001
  100SAPC   C3610017   1.607   3.923   3.071
  100SAPC   H6X10018   1.670   3.835   3.097
  100SAPC   H6Y10019   1.516   3.890   3.017
  100SAPC   C3710020   1.578   4.000   3.201
  100SAPC   H7X10021   1.520   4.092   3.178
  100SAPC   H7Y10022   1.678   4.031   3.238
  100SAPC   C3810023   1.504   3.911   3.299
  100SAPC   H8X10024   1.567   3.822   3.320
  100SAPC   H8Y10025   1.404   3.878   3.263
  100SAPC   C3910026   1.480   3.981   3.431
  100SAPC   H9X10027   1.440   4.080   3.402
  100SAPC   H9Y10028   1.566   3.994   3.500
  100SAPC  C31010029   1.376   3.909   3.513
  100SAPC  H10X10030   1.385   3.799   3.503
  100SAPC  H10Y10031   1.284   3.932   3.455
  100SAPC  C31110032   1.358   3.972   3.655
  100SAPC  H11X10033   1.354   4.081   3.635
  100SAPC  H11Y10034   1.458   3.958   3.702
  100SAPC  C31210035   1.245   3.912   3.747
  100SAPC  H12X10036   1.147   3.893   3.698
  100SAPC  H12Y10037   1.224   3.973   3.837
  100SAPC  C31310038   1.273   3.772   3.794
  100SAPC  H13X10039   1.271   3.699   3.710
  100SAPC  H13Y10040   1.184   3.738   3.852
  100SAPC  C31410041   1.405   3.757   3.874
  100SAPC  H14X10042   1.408   3.843   3.944
  100SAPC  H14Y10043   1.486   3.761   3.798
  100SAPC  C31510044   1.413   3.630   3.955
  100SAPC  H15X10045   1.464   3.548   3.901
  100SAPC  H15Y10046   1.312   3.593   3.982
  100SAPC  C31610047   1.476   3.639   4.103
  100SAPC  H16X10048   1.411   3.704   4.166
  100SAPC  H16Y10049   1.574   3.691   4.102
  100SAPC  C31710050   1.503   3.507   4.169
  100SAPC  H17X10051   1.415   3.438   4.167
  100SAPC  H17Y10052   1.520   3.530   4.276
  100SAPC  C31810053   1.629   3.434   4.123
  100SAPC  H18X10054   1.717   3.503   4.128
  100SAPC  H18Y10055   1.627   3.389   4.021
  100SAPC  H18Z10056   1.651   3.349   4.190
  101OSM      N10057   3.158   2.742   6.998
  101OSM    C1510058   3.130   2.875   7.073
  101OSM   H15A10059   3.226   2.919   7.093
  101OSM   H15B10060   3.075   2.865   7.165
  101OSM   H15C10061   3.087   2.950   7.008
  101OSM    C1410062   3.221   2.648   7.091
  101OSM   H14A10063   3.157   2.616   7.172
  101OSM   H14B10064   3.315   2.690   7.124
  101OSM   H14C10065   3.237   2.552   7.044
  101OSM    C1310066   3.030   2.682   6.967
  101OSM   H13A10067   3.044   2.577   6.947
  101OSM   H13B10068   2.985   2.719   6.876
  101OSM   H13C10069   2.961   2.690   7.050
  101OSM    C1210070   3.241   2.774   6.866
  101OSM   H12A10071   3.278   2.677   6.836
  101OSM   H12B10072   3.322   2.838   6.897
  101OSM    C1110073   3.163   2.834   6.747
  101OSM   H11A10074   3.074   2.772   6.722
  101OSM   H11B10075   3.223   2.817   6.655
  101OSM      P10076   3.222   3.086   6.739
  101OSM    O1310077   3.181   3.215   6.799
  101OSM    O1410078   3.362   3.050   6.758
  101OSM    O1110079   3.193   3.097   6.585
  101OSM    O1210080   3.123   2.969   6.779
  101OSM    C1S10081   3.276   3.174   6.495
  101OSM    H1S10082   3.384   3.156   6.517
  101OSM    H1T10083   3.259   3.282   6.513
  101OSM     NF10084   3.346   3.183   6.261
  101OSM    HNF10085   3.313   3.248   6.193
  101OSM    C2S10086   3.242   3.132   6.348
  101OSM    H2S10087   3.250   3.021   6.343
  101OSM    C3S10088   3.099   3.173   6.306
  101OSM    H3S10089   3.091   3.284   6.301
  101OSM     O310090   3.006   3.127   6.401
  101OSM    HO310091   3.063   3.101   6.474
  101OSM    C4S10092   3.063   3.144   6.157
  101OSM    H4S10093   3.086   3.217   6.077
  101OSM    C5S10094   2.994   3.032   6.126
  101OSM    H5S10095   2.955   2.969   6.208
  101OSM    C6S10096   2.938   3.001   5.986
  101OSM    H6S10097   2.836   3.045   5.983
  101OSM    H6T10098   2.926   2.890   5.990
  101OSM    C7S10099   3.020   3.044   5.851
  101OSM    H7S10100   3.128   3.025   5.866
  101OSM    H7T10101   3.009   3.155   5.845
  101OSM    C8S10102   2.962   2.980   5.723
  101OSM    H8S10103   2.853   2.992   5.705
  101OSM    H8T10104   2.975   2.870   5.737
  101OSM    C9S10105   3.048   3.021   5.599
  101OSM    H9S10106   3.150   2.987   5.627
  101OSM    H9T10107   3.048   3.132   5.595
  101OSM   C10S10108   2.998   2.951   5.472
  101OSM   H10S10109   2.895   2.989   5.456
  101OSM   H10T10110   2.990   2.841   5.484
  101OSM   C11S10111   3.099   2.975   5.353
  101OSM   H11S10112   3.192   2.914   5.363
  101OSM   H11T10113   3.132   3.082   5.351
  101OSM   C12S10114   3.027   2.937   5.224
  101OSM   H12S10115   2.930   2.990   5.228
  101OSM   H12T10116   3.004   2.828   5.218
  101OSM   C13S10117   3.105   2.966   5.090
  101OSM   H13S10118   3.042   2.929   5.006
  101OSM   H13T10119   3.201   2.909   5.092
  101OSM   C14S10120   3.130   3.114   5.062
  101OSM   H14S10121   3.185   3.159   5.147
  101OSM   H14T10122   3.029   3.159   5.072
  101OSM   C15S10123   3.186   3.154   4.928
  101OSM   H15S10124   3.285   3.104   4.920
  101OSM   H15T10125   3.205   3.262   4.910
  101OSM   C16S10126   3.097   3.109   4.807
  101OSM   H16S10127   2.991   3.118   4.841
  101OSM   H16T10128   3.136   3.008   4.782
  101OSM   C17S10129   3.125   3.200   4.683
  101OSM   H17S10130   3.057   3.155   4.607
  101OSM   H17T10131   3.230   3.183   4.653
  101OSM   C18S10132   3.090   3.352   4.689
  101OSM   H18S10133   3.103   3.406   4.593
  101OSM   H18T10134   3.150   3.398   4.770
  101OSM   H18U10135   2.982   3.367   4.711
  101OSM    C1F10136   3.469   3.149   6.269
  101OSM     OF10137   3.501   3.060   6.345
  101OSM    C2F10138   3.569   3.219   6.184
  101OSM    H2F10139   3.638   3.291   6.235
  101OSM    H2G10140   3.514   3.290   6.118
  101OSM    C3F10141   3.655   3.128   6.099
  101OSM    H3F10142   3.586   3.070   6.034
  101OSM    H3G10143   3.700   3.056   6.171
  101OSM    C4F10144   3.764   3.187   6.007
  101OSM    H4F10145   3.723   3.271   5.947
  101OSM    H4G10146   3.799   3.106   5.940
  101OSM    C5F10147   3.880   3.242   6.090
  101OSM    H5F10148   3.917   3.160   6.156
  101OSM    H5G10149   3.839   3.321   6.156
  101OSM    C6F10150   4.003   3.293   6.010
  101OSM    H6F10151   4.070   3.329   6.091
  101OSM    H6G10152   3.975   3.383   5.951
  101OSM    C7F10153   4.060   3.176   5.932
  101OSM    H7F10154   3.998   3.165   5.841
  101OSM    H7G10155   4.067   3.087   5.999
  101OSM    C8F10156   4.212   3.197   5.899
  101OSM    H8F10157   4.244   3.103   5.849
  101OSM    H8G10158   4.257   3.201   6.001
  101OSM    C9F10159   4.254   3.307   5.811
  101OSM    H9F10160   4.245   3.407   5.856
  101OSM   C10F10161   4.312   3.286   5.690
  101OSM   H10F10162   4.344   3.375   5.635
  101OSM   C11F10163   4.340   3.160   5.617
  101OSM   H11F10164   4.242   3.117   5.588
  101OSM   H11G10165   4.395   3.089   5.682
  101OSM   C12F10166   4.423   3.163   5.496
  101OSM   H12F10167   4.463   3.061   5.476
  101OSM   H12G10168   4.515   3.220   5.520
  101OSM   C13F10169   4.379   3.221   5.372
  101OSM   H13F10170   4.342   3.323   5.395
  101OSM   H13G10171   4.304   3.162   5.316
  101OSM   C14F10172   4.494   3.226   5.269
  101OSM   H14F10173   4.541   3.125   5.266
  101OSM   H14G10174   4.584   3.287   5.291
  101OSM   C15F10175   4.447   3.255   5.124
  101OSM   H15F10176   4.385   3.347   5.124
  101OSM   H15G10177   4.388   3.176   5.073
  101OSM   C16F10178   4.567   3.292   5.033
  101OSM   H16F10179   4.650   3.316   5.102
  101OSM   H16G10180   4.547   3.385   4.975
  101OSM   C17F10181   4.623   3.179   4.945
  101OSM   H17F10182   4.531   3.161   4.885
  101OSM   H17G10183   4.646   3.098   5.017
  101OSM   C18F10184   4.743   3.225   4.864
  101OSM   H18F10185   4.733   3.333   4.844
  101OSM   H18G10186   4.743   3.159   4.774
  101OSM   H18H10187   4.842   3.216   4.914
  102OSM      N10188   4.004   2.595   6.868
  102OSM    C1510189   3.956   2.642   6.996
  102OSM   H15A10190   3.928   2.746   7.000
  102OSM   H15B10191   4.034   2.631   7.071
  102OSM   H15C10192   3.869   2.589   7.033
  102OSM    C1410193   4.133   2.671   6.827
  102OSM   H14A10194   4.196   2.659   6.915
  102OSM   H14B10195   4.114   2.776   6.838
  102OSM   H14C10196   4.188   2.641   6.739
  102OSM    C1310197   4.028   2.449   6.891
  102OSM   H13A10198   4.116   2.426   6.950
  102OSM   H13B10199   4.053   2.411   6.793
  102OSM   H13C10200   3.939   2.397   6.923
  102OSM    C1210201   3.900   2.612   6.753
  102OSM   H12A10202   3.860   2.712   6.751
  102OSM   H12B10203   3.821   2.542   6.777
  102OSM    C1110204   3.943   2.565   6.611
  102OSM   H11A10205   4.019   2.635   6.571
  102OSM   H11B10206   3.853   2.574   6.547
  102OSM      P10207   3.869   2.318   6.619
  102OSM    O1310208   3.938   2.190   6.592
  102OSM    O1410209   3.794   2.343   6.746
  102OSM    O1110210   3.773   2.341   6.496
  102OSM    O1210211   3.977   2.425   6.605
  102OSM    C1S10212   3.832   2.345   6.364
  102OSM    H1S10213   3.857   2.239   6.339
  102OSM    H1T10214   3.921   2.409   6.346
  102OSM     NF10215   3.759   2.394   6.131
  102OSM    HNF10216   3.768   2.483   6.086
  102OSM    C2S10217   3.722   2.396   6.274
  102OSM    H2S10218   3.648   2.314   6.286
  102OSM    C3S10219   3.651   2.529   6.318
  102OSM    H3S10220   3.733   2.602   6.333
  102OSM     O310221   3.589   2.515   6.444
  102OSM    HO310222   3.625   2.429   6.466
  102OSM    C4S10223   3.546   2.588   6.228
  102OSM    H4S10224   3.479   2.522   6.170
  102OSM    C5S10225   3.540   2.724   6.211
  102OSM    H5S10226   3.620   2.785   6.255
  102OSM    C6S10227   3.453   2.793   6.106
  102OSM    H6S10228   3.445   2.903   6.121
  102OSM    H6T10229   3.347   2.762   6.106
  102OSM    C7S10230   3.523   2.768   5.967
  102OSM    H7S10231   3.539   2.662   5.940
  102OSM    H7T10232   3.622   2.819   5.961
  102OSM    C8S10233   3.430   2.826   5.858
  102OSM    H8S10234   3.426   2.937   5.862
  102OSM    H8T10235   3.322   2.802   5.861
  102OSM    C9S10236   3.478   2.782   5.722
  102OSM    H9S10237   3.485   2.672   5.720
  102OSM    H9T10238   3.574   2.834   5.700
  102OSM   C10S10239   3.385   2.815   5.600
  102OSM   H10S10240   3.358   2.921   5.620
  102OSM   H10T10241   3.289   2.761   5.617
  102OSM   C11S10242   3.438   2.783   5.459
  102OSM   H11S10243   3.350   2.763   5.394
  102OSM   H11T10244   3.502   2.693   5.466
  102OSM   C12S10245   3.527   2.900   5.396
  102OSM   H12S10246   3.611   2.899   5.469
  102OSM   H12T10247   3.475   2.999   5.399
  102OSM   C13S10248   3.564   2.861   5.254
  102OSM   H13S10249   3.469   2.862   5.197
  102OSM   H13T10250   3.598   2.755   5.251
  102OSM   C14S10251   3.673   2.938   5.182
  102OSM   H14S10252   3.767   2.913   5.235
  102OSM   H14T10253   3.656   3.045   5.207
  102OSM   C15S10254   3.683   2.921   5.024
  102OSM   H15S10255   3.739   2.826   5.007
  102OSM   H15T10256   3.748   3.002   4.983
  102OSM   C16S10257   3.550   2.924   4.954
  102OSM   H16S10258   3.497   3.020   4.970
  102OSM   H16T10259   3.481   2.847   4.994
  102OSM   C17S10260   3.562   2.926   4.796
  102OSM   H17S10261   3.640   2.993   4.756
  102OSM   H17T10262   3.463   2.965   4.764
  102OSM   C18S10263   3.580   2.788   4.735
  102OSM   H18S10264   3.494   2.722   4.763
  102OSM   H18T10265   3.676   2.740   4.762
  102OSM   H18U10266   3.580   2.780   4.624
  102OSM    C1F10267   3.808   2.287   6.067
  102OSM     OF10268   3.801   2.175   6.120
  102OSM    C2F10269   3.868   2.315   5.925
  102OSM    H2F10270   3.963   2.369   5.947
  102OSM    H2G10271   3.799   2.389   5.878
  102OSM    C3F10272   3.886   2.196   5.834
  102OSM    H3F10273   3.796   2.135   5.812
  102OSM    H3G10274   3.961   2.129   5.881
  102OSM    C4F10275   3.951   2.234   5.697
  102OSM    H4F10276   4.051   2.279   5.716
  102OSM    H4G10277   3.890   2.307   5.640
  102OSM    C5F10278   3.970   2.106   5.616
  102OSM    H5F10279   3.868   2.063   5.606
  102OSM    H5G10280   4.036   2.036   5.670
  102OSM    C6F10281   4.037   2.140   5.477
  102OSM    H6F10282   4.140   2.177   5.498
  102OSM    H6G10283   3.986   2.232   5.441
  102OSM    C7F10284   4.033   2.025   5.381
  102OSM    H7F10285   4.040   2.062   5.276
  102OSM    H7G10286   3.934   1.975   5.394
  102OSM    C8F10287   4.145   1.920   5.407
  102OSM    H8F10288   4.110   1.822   5.368
  102OSM    H8G10289   4.151   1.908   5.518
  102OSM    C9F10290   4.286   1.964   5.366
  102OSM    H9F10291   4.341   2.013   5.448
  102OSM   C10F10292   4.347   1.938   5.248
  102OSM   H10F10293   4.451   1.969   5.232
  102OSM   C11F10294   4.297   1.858   5.133
  102OSM   H11F10295   4.195   1.815   5.148
  102OSM   H11G10296   4.368   1.774   5.118
  102OSM   C12F10297   4.299   1.937   4.997
  102OSM   H12F10298   4.294   1.869   4.910
  102OSM   H12G10299   4.397   1.990   4.996
  102OSM   C13F10300   4.190   2.040   4.973
  102OSM   H13F10301   4.199   2.134   5.031
  102OSM   H13G10302   4.097   1.994   5.012
  102OSM   C14F10303   4.155   2.069   4.825
  102OSM   H14F10304   4.110   1.982   4.771
  102OSM   H14G10305   4.247   2.109   4.777
  102OSM   C15F10306   4.041   2.172   4.825
  102OSM   H15F10307   4.057   2.259   4.892
  102OSM   H15G10308   3.958   2.112   4.868
  102OSM   C16F10309   4.026   2.241   4.689
  102OSM   H16F10310   3.985   2.168   4.616
  102OSM   H16G10311   4.128   2.274   4.661
  102OSM   C17F10312   3.928   2.360   4.690
  102OSM   H17F10313   3.922   2.413   4.593
  102OSM   H17G10314   3.955   2.430   4.771
  102OSM   C18F10315   3.780   2.315   4.713
  102OSM   H18F10316   3.707   2.397   4.723
  102OSM   H18G10317   3.783   2.248   4.802
  102OSM   H18H10318   3.753   2.254   4.624
  103OSM      N10319   3.715   4.729   6.808
  103OSM    C1510320   3.790   4.824   6.890
  103OSM   H15A10321   3.739   4.856   6.979
  103OSM   H15B10322   3.822   4.907   6.828
  103OSM   H15C10323   3.888   4.784   6.914
  103OSM    C1410324   3.678   4.603   6.884
  103OSM   H14A10325   3.594   4.556   6.835
  103OSM   H14B10326   3.648   4.626   6.985
  103OSM   H14C10327   3.758   4.532   6.897
  103OSM    C1310328   3.576   4.791   6.782
  103OSM   H13A10329   3.525   4.812   6.875
  103OSM   H13B10330   3.516   4.727   6.718
  103OSM   H13C10331   3.597   4.879   6.723
  103OSM    C1210332   3.785   4.688   6.683
  103OSM   H12A10333   3.718   4.626   6.625
  103OSM   H12B10334   3.875   4.630   6.697
  103OSM    C1110335   3.829   4.803   6.594
  103OSM   H11A10336   3.742   4.866   6.567
  103OSM   H11B10337   3.859   4.758   6.497
  103OSM      P10338   3.994   4.998   6.574
  103OSM    O1310339   3.886   5.102   6.550
  103OSM    O1410340   4.112   5.048   6.646
  103OSM    O1110341   4.041   4.948   6.431
  103OSM    O1210342   3.930   4.875   6.654
  103OSM    C1S10343   4.126   4.841   6.405
  103OSM    H1S10344   4.075   4.743   6.392
  103OSM    H1T10345   4.211   4.828   6.475
  103OSM     NF10346   4.262   4.753   6.216
  103OSM    HNF10347   4.359   4.745   6.236
  103OSM    C2S10348   4.202   4.868   6.268
  103OSM    H2S10349   4.114   4.892   6.204
  103OSM    C3S10350   4.283   5.006   6.268
  103OSM    H3S10351   4.348   4.988   6.356
  103OSM     O310352   4.194   5.119   6.300
  103OSM    HO310353   4.128   5.073   6.352
  103OSM    C4S10354   4.358   5.030   6.138
  103OSM    H4S10355   4.468   5.034   6.137
  103OSM    C5S10356   4.285   5.053   6.022
  103OSM    H5S10357   4.175   5.059   6.019
  103OSM    C6S10358   4.355   5.075   5.893
  103OSM    H6S10359   4.461   5.104   5.880
  103OSM    H6T10360   4.293   5.162   5.863
  103OSM    C7S10361   4.335   4.948   5.813
  103OSM    H7S10362   4.235   4.899   5.810
  103OSM    H7T10363   4.417   4.887   5.855
  103OSM    C8S10364   4.345   4.988   5.661
  103OSM    H8S10365   4.437   5.050   5.652
  103OSM    H8T10366   4.258   5.054   5.642
  103OSM    C9S10367   4.337   4.866   5.563
  103OSM    H9S10368   4.235   4.825   5.579
  103OSM    H9T10369   4.420   4.794   5.573
  103OSM   C10S10370   4.337   4.910   5.411
  103OSM   H10S10371   4.433   4.956   5.380
  103OSM   H10T10372   4.257   4.984   5.392
  103OSM   C11S10373   4.314   4.790   5.319
  103OSM   H11S10374   4.222   4.734   5.346
  103OSM   H11T10375   4.400   4.720   5.327
  103OSM   C12S10376   4.308   4.831   5.168
  103OSM   H12S10377   4.381   4.909   5.136
  103OSM   H12T10378   4.211   4.878   5.142
  103OSM   C13S10379   4.321   4.705   5.082
  103OSM   H13S10380   4.295   4.726   4.976
  103OSM   H13T10381   4.256   4.618   5.107
  103OSM   C14S10382   4.466   4.650   5.083
  103OSM   H14S10383   4.487   4.586   5.171
  103OSM   H14T10384   4.528   4.743   5.089
  103OSM   C15S10385   4.493   4.585   4.950
  103OSM   H15S10386   4.492   4.665   4.872
  103OSM   H15T10387   4.417   4.517   4.907
  103OSM   C16S10388   4.632   4.534   4.916
  103OSM   H16S10389   4.634   4.444   4.981
  103OSM   H16T10390   4.712   4.599   4.958
  103OSM   C17S10391   4.647   4.500   4.767
  103OSM   H17S10392   4.626   4.585   4.699
  103OSM   H17T10393   4.570   4.423   4.748
  103OSM   C18S10394   4.792   4.450   4.724
  103OSM   H18S10395   4.798   4.354   4.779
  103OSM   H18T10396   4.874   4.517   4.757
  103OSM   H18U10397   4.786   4.430   4.615
  103OSM    C1F10398   4.199   4.645   6.162
  103OSM     OF10399   4.082   4.651   6.142
  103OSM    C2F10400   4.282   4.524   6.137
  103OSM    H2F10401   4.264   4.455   6.222
  103OSM    H2G10402   4.389   4.550   6.128
  103OSM    C3F10403   4.244   4.442   6.009
  103OSM    H3F10404   4.152   4.383   6.023
  103OSM    H3G10405   4.323   4.365   5.999
  103OSM    C4F10406   4.253   4.526   5.880
  103OSM    H4F10407   4.357   4.567   5.882
  103OSM    H4G10408   4.185   4.613   5.890
  103OSM    C5F10409   4.228   4.441   5.753
  103OSM    H5F10410   4.126   4.397   5.759
  103OSM    H5G10411   4.302   4.358   5.750
  103OSM    C6F10412   4.226   4.505   5.613
  103OSM    H6F10413   4.324   4.555   5.599
  103OSM    H6G10414   4.140   4.571   5.590
  103OSM    C7F10415   4.223   4.397   5.509
  103OSM    H7F10416   4.128   4.339   5.514
  103OSM    H7G10417   4.311   4.330   5.519
  103OSM    C8F10418   4.221   4.456   5.370
  103OSM    H8F10419   4.305   4.529   5.372
  103OSM    H8G10420   4.128   4.516   5.367
  103OSM    C9F10421   4.227   4.345   5.271
  103OSM    H9F10422   4.322   4.292   5.253
  103OSM   C10F10423   4.125   4.311   5.198
  103OSM   H10F10424   4.147   4.227   5.130
  103OSM   C11F10425   3.978   4.358   5.192
  103OSM   H11F10426   3.936   4.367   5.295
  103OSM   H11G10427   3.912   4.284   5.141
  103OSM   C12F10428   3.958   4.496   5.117
  103OSM   H12F10429   4.018   4.581   5.157
  103OSM   H12G10430   3.853   4.520   5.145
  103OSM   C13F10431   3.974   4.485   4.962
  103OSM   H13F10432   4.083   4.499   4.947
  103OSM   H13G10433   3.913   4.559   4.906
  103OSM   C14F10434   3.940   4.347   4.905
  103OSM   H14F10435   3.847   4.305   4.948
  103OSM   H14G10436   4.019   4.285   4.953
  103OSM   C15F10437   3.954   4.321   4.751
  103OSM   H15F10438   4.058   4.336   4.716
  103OSM   H15G10439   3.886   4.377   4.684
  103OSM   C16F10440   3.948   4.167   4.729
  103OSM   H16F10441   3.845   4.134   4.752
  103OSM   H16G10442   4.029   4.123   4.790
  103OSM   C17F10443   3.971   4.134   4.581
  103OSM   H17F10444   4.059   4.188   4.541
  103OSM   H17G10445   3.899   4.173   4.507
  103OSM   C18F10446   3.983   3.988   4.561
  103OSM   H18F10447   3.927   3.916   4.624
  103OSM   H18G10448   4.088   3.965   4.591
  103OSM   H18H10449   3.971   3.957   4.455
  104OSM      N10450   4.629   3.164   6.800
  104OSM    C1510451   4.733   3.086   6.883
  104OSM   H15A10452   4.688   3.039   6.969
  104OSM   H15B10453   4.807   3.152   6.926
  104OSM   H15C10454   4.785   3.024   6.813
  104OSM    C1410455   4.531   3.058   6.752
  104OSM   H14A10456   4.493   3.008   6.840
  104OSM   H14B10457   4.578   2.977   6.698
  104OSM   H14C10458   4.444   3.097   6.702
  104OSM    C1310459   4.562   3.251   6.898
  104OSM   H13A10460   4.493   3.306   6.836
  104OSM   H13B10461   4.617   3.330   6.947
  104OSM   H13C10462   4.514   3.202   6.981
  104OSM    C1210463   4.702   3.224   6.685
  104OSM   H12A10464   4.794   3.258   6.730
  104OSM   H12B10465   4.654   3.317   6.657
  104OSM    C1110466   4.724   3.132   6.565
  104OSM   H11A10467   4.789   3.192   6.499
  104OSM   H11B10468   4.634   3.129   6.501
  104OSM      P10469   4.931   2.986   6.577
  104OSM    O1310470   4.996   3.090   6.665
  104OSM    O1410471   4.960   2.846   6.603
  104OSM    O1110472   4.957   3.023   6.421
  104OSM    O1210473   4.782   3.006   6.597
  104OSM    C1S10474   4.881   2.988   6.308
  104OSM    H1S10475   4.795   3.059   6.304
  104OSM    H1T10476   4.844   2.883   6.314
  104OSM     NF10477   4.862   2.981   6.060
  104OSM    HNF10478   4.845   2.892   6.019
  104OSM    C2S10479   4.954   2.996   6.168
  104OSM    H2S10480   4.989   3.101   6.163
  104OSM    C3S10481   5.076   2.900   6.157
  104OSM    H3S10482   5.025   2.801   6.159
  104OSM     O310483   5.160   2.899   6.277
  104OSM    HO310484   5.111   2.940   6.349
  104OSM    C4S10485   5.151   2.927   6.031
  104OSM    H4S10486   5.097   2.891   5.942
  104OSM    C5S10487   5.263   3.005   6.013
  104OSM    H5S10488   5.318   3.038   6.102
  104OSM    C6S10489   5.313   3.033   5.877
  104OSM    H6S10490   5.414   2.989   5.858
  104OSM    H6T10491   5.325   3.143   5.867
  104OSM    C7S10492   5.239   2.994   5.746
  104OSM    H7S10493   5.139   3.042   5.744
  104OSM    H7T10494   5.218   2.885   5.740
  104OSM    C8S10495   5.310   3.047   5.618
  104OSM    H8S10496   5.419   3.028   5.627
  104OSM    H8T10497   5.296   3.157   5.605
  104OSM    C9S10498   5.255   2.986   5.489
  104OSM    H9S10499   5.245   3.066   5.413
  104OSM    H9T10500   5.157   2.939   5.514
  104OSM   C10S10501   5.343   2.871   5.433
  104OSM   H10S10502   5.291   2.807   5.358
  104OSM   H10T10503   5.368   2.805   5.519
  104OSM   C11S10504   5.474   2.919   5.372
  104OSM   H11S10505   5.528   2.973   5.453
  104OSM   H11T10506   5.425   2.992   5.304
  104OSM   C12S10507   5.565   2.808   5.305
  104OSM   H12S10508   5.499   2.722   5.283
  104OSM   H12T10509   5.639   2.765   5.375
  104OSM   C13S10510   5.623   2.859   5.169
  104OSM   H13S10511   5.705   2.932   5.187
  104OSM   H13T10512   5.550   2.917   5.110
  104OSM   C14S10513   5.688   2.733   5.094
  104OSM   H14S10514   5.611   2.653   5.099
  104OSM   H14T10515   5.775   2.703   5.156
  104OSM   C15S10516   5.741   2.748   4.953
  104OSM   H15S10517   5.656   2.771   4.885
  104OSM   H15T10518   5.782   2.650   4.918
  104OSM   C16S10519   5.844   2.856   4.945
  104OSM   H16S10520   5.908   2.856   5.036
  104OSM   H16T10521   5.789   2.952   4.943
  104OSM   C17S10522   5.940   2.835   4.823
  104OSM   H17S10523   5.873   2.821   4.736
  104OSM   H17T10524   5.998   2.740   4.833
  104OSM   C18S10525   6.041   2.942   4.803
  104OSM   H18S10526   6.128   2.947   4.872
  104OSM   H18T10527   5.992   3.039   4.821
  104OSM   H18U10528   6.072   2.943   4.697
  104OSM    C1F10529   4.772   3.076   6.033
  104OSM     OF10530   4.771   3.176   6.096
  104OSM    C2F10531   4.669   3.053   5.927
  104OSM    H2F10532   4.570   3.035   5.974
  104OSM    H2G10533   4.688   2.955   5.877
  104OSM    C3F10534   4.671   3.168   5.822
  104OSM    H3F10535   4.611   3.249   5.869
  104OSM    H3G10536   4.614   3.137   5.731
  104OSM    C4F10537   4.810   3.214   5.778
  104OSM    H4F10538   4.874   3.131   5.743
  104OSM    H4G10539   4.863   3.256   5.866
  104OSM    C5F10540   4.807   3.303   5.656
  104OSM    H5F10541   4.765   3.400   5.688
  104OSM    H5G10542   4.748   3.259   5.573
  104OSM    C6F10543   4.954   3.336   5.612
  104OSM    H6F10544   4.999   3.235   5.597
  104OSM    H6G10545   5.000   3.384   5.701
  104OSM    C7F10546   4.961   3.433   5.494
  104OSM    H7F10547   4.894   3.521   5.511
  104OSM    H7G10548   4.928   3.381   5.402
  104OSM    C8F10549   5.105   3.489   5.474
  104OSM    H8F10550   5.170   3.400   5.458
  104OSM    H8G10551   5.129   3.541   5.569
  104OSM    C9F10552   5.098   3.582   5.360
  104OSM    H9F10553   5.024   3.663   5.364
  104OSM   C10F10554   5.165   3.575   5.237
  104OSM   H10F10555   5.146   3.649   5.158
  104OSM   C11F10556   5.270   3.470   5.210
  104OSM   H11F10557   5.291   3.403   5.295
  104OSM   H11G10558   5.357   3.532   5.178
  104OSM   C12F10559   5.225   3.384   5.092
  104OSM   H12F10560   5.132   3.332   5.124
  104OSM   H12G10561   5.311   3.318   5.067
  104OSM   C13F10562   5.182   3.469   4.971
  104OSM   H13F10563   5.269   3.529   4.937
  104OSM   H13G10564   5.099   3.540   4.995
  104OSM   C14F10565   5.142   3.376   4.849
  104OSM   H14F10566   5.062   3.302   4.873
  104OSM   H14G10567   5.225   3.308   4.822
  104OSM   C15F10568   5.099   3.456   4.727
  104OSM   H15F10569   5.002   3.504   4.754
  104OSM   H15G10570   5.072   3.393   4.640
  104OSM   C16F10571   5.187   3.567   4.684
  104OSM   H16F10572   5.288   3.523   4.697
  104OSM   H16G10573   5.180   3.657   4.748
  104OSM   C17F10574   5.140   3.614   4.544
  104OSM   H17F10575   5.180   3.716   4.528
  104OSM   H17G10576   5.029   3.624   4.551
  104OSM   C18F10577   5.174   3.523   4.423
  104OSM   H18F10578   5.284   3.521   4.406
  104OSM   H18G10579   5.126   3.555   4.328
  104OSM   H18H10580   5.139   3.419   4.440
  105OSM      N10581   5.372   4.256   7.133
  105OSM    C1510582   5.343   4.402   7.128
  105OSM   H15A10583   5.242   4.415   7.093
  105OSM   H15B10584   5.414   4.445   7.059
  105OSM   H15C10585   5.356   4.453   7.223
  105OSM    C1410586   5.508   4.222   7.186
  105OSM   H14A10587   5.533   4.117   7.179
  105OSM   H14B10588   5.521   4.249   7.290
  105OSM   H14C10589   5.586   4.273   7.132
  105OSM    C1310590   5.268   4.192   7.217
  105OSM   H13A10591   5.283   4.228   7.318
  105OSM   H13B10592   5.283   4.087   7.234
  105OSM   H13C10593   5.169   4.212   7.177
  105OSM    C1210594   5.361   4.188   6.993
  105OSM   H12A10595   5.259   4.203   6.959
  105OSM   H12B10596   5.374   4.082   7.005
  105OSM    C1110597   5.455   4.251   6.887
  105OSM   H11A10598   5.453   4.186   6.797
  105OSM   H11B10599   5.560   4.242   6.923
  105OSM      P10600   5.280   4.433   6.790
  105OSM    O1310601   5.175   4.335   6.821
  105OSM    O1410602   5.256   4.575   6.824
  105OSM    O1110603   5.306   4.429   6.632
  105OSM    O1210604   5.421   4.393   6.861
  105OSM    C1S10605   5.403   4.344   6.566
  105OSM    H1S10606   5.369   4.241   6.593
  105OSM    H1T10607   5.503   4.363   6.609
  105OSM     NF10608   5.493   4.256   6.348
  105OSM    HNF10609   5.588   4.278   6.330
  105OSM    C2S10610   5.407   4.362   6.408
  105OSM    H2S10611   5.304   4.349   6.370
  105OSM    C3S10612   5.458   4.505   6.377
  105OSM    H3S10613   5.562   4.503   6.416
  105OSM     O310614   5.385   4.608   6.446
  105OSM    HO310615   5.334   4.570   6.517
  105OSM    C4S10616   5.467   4.543   6.231
  105OSM    H4S10617   5.373   4.540   6.174
  105OSM    C5S10618   5.574   4.581   6.159
  105OSM    H5S10619   5.667   4.587   6.217
  105OSM    C6S10620   5.571   4.631   6.015
  105OSM    H6S10621   5.669   4.675   5.985
  105OSM    H6T10622   5.482   4.696   5.999
  105OSM    C7S10623   5.537   4.518   5.924
  105OSM    H7S10624   5.433   4.479   5.928
  105OSM    H7T10625   5.602   4.431   5.946
  105OSM    C8S10626   5.558   4.547   5.776
  105OSM    H8S10627   5.664   4.559   5.747
  105OSM    H8T10628   5.510   4.643   5.750
  105OSM    C9S10629   5.516   4.429   5.682
  105OSM    H9S10630   5.411   4.397   5.700
  105OSM    H9T10631   5.576   4.346   5.725
  105OSM   C10S10632   5.541   4.470   5.535
  105OSM   H10S10633   5.646   4.505   5.526
  105OSM   H10T10634   5.488   4.564   5.509
  105OSM   C11S10635   5.515   4.365   5.432
  105OSM   H11S10636   5.405   4.364   5.422
  105OSM   H11T10637   5.552   4.267   5.470
  105OSM   C12S10638   5.576   4.382   5.291
  105OSM   H12S10639   5.685   4.398   5.301
  105OSM   H12T10640   5.542   4.472   5.235
  105OSM   C13S10641   5.564   4.259   5.203
  105OSM   H13S10642   5.609   4.166   5.243
  105OSM   H13T10643   5.618   4.287   5.110
  105OSM   C14S10644   5.420   4.233   5.159
  105OSM   H14S10645   5.375   4.316   5.100
  105OSM   H14T10646   5.356   4.217   5.249
  105OSM   C15S10647   5.400   4.110   5.081
  105OSM   H15S10648   5.390   4.019   5.144
  105OSM   H15T10649   5.493   4.081   5.029
  105OSM   C16S10650   5.277   4.124   4.987
  105OSM   H16S10651   5.283   4.220   4.932
  105OSM   H16T10652   5.181   4.123   5.042
  105OSM   C17S10653   5.290   4.000   4.897
  105OSM   H17S10654   5.297   3.901   4.947
  105OSM   H17T10655   5.383   4.031   4.845
  105OSM   C18S10656   5.182   3.981   4.789
  105OSM   H18S10657   5.135   4.078   4.760
  105OSM   H18T10658   5.091   3.938   4.837
  105OSM   H18U10659   5.216   3.920   4.703
  105OSM    C1F10660   5.450   4.128   6.339
  105OSM     OF10661   5.334   4.104   6.359
  105OSM    C2F10662   5.550   4.023   6.317
  105OSM    H2F10663   5.566   3.967   6.411
  105OSM    H2G10664   5.651   4.059   6.289
  105OSM    C3F10665   5.505   3.921   6.210
  105OSM    H3F10666   5.413   3.865   6.238
  105OSM    H3G10667   5.582   3.841   6.216
  105OSM    C4F10668   5.498   3.979   6.066
  105OSM    H4F10669   5.584   4.039   6.030
  105OSM    H4G10670   5.415   4.052   6.060
  105OSM    C5F10671   5.469   3.867   5.968
  105OSM    H5F10672   5.359   3.849   5.959
  105OSM    H5G10673   5.520   3.779   6.012
  105OSM    C6F10674   5.535   3.888   5.822
  105OSM    H6F10675   5.516   3.795   5.765
  105OSM    H6G10676   5.644   3.895   5.841
  105OSM    C7F10677   5.462   4.000   5.756
  105OSM    H7F10678   5.483   4.095   5.810
  105OSM    H7G10679   5.354   3.976   5.766
  105OSM    C8F10680   5.506   4.014   5.610
  105OSM    H8F10681   5.614   3.991   5.606
  105OSM    H8G10682   5.488   4.117   5.573
  105OSM    C9F10683   5.414   3.926   5.530
  105OSM    H9F10684   5.306   3.949   5.529
  105OSM   C10F10685   5.456   3.833   5.447
  105OSM   H10F10686   5.382   3.761   5.408
  105OSM   C11F10687   5.596   3.804   5.389
  105OSM   H11F10688   5.607   3.695   5.403
  105OSM   H11G10689   5.672   3.856   5.450
  105OSM   C12F10690   5.618   3.850   5.236
  105OSM   H12F10691   5.728   3.852   5.215
  105OSM   H12G10692   5.577   3.951   5.216
  105OSM   C13F10693   5.560   3.755   5.133
  105OSM   H13F10694   5.450   3.768   5.127
  105OSM   H13G10695   5.578   3.649   5.164
  105OSM   C14F10696   5.616   3.780   4.995
  105OSM   H14F10697   5.723   3.750   4.999
  105OSM   H14G10698   5.621   3.889   4.973
  105OSM   C15F10699   5.545   3.719   4.866
  105OSM   H15F10700   5.436   3.730   4.886
  105OSM   H15G10701   5.563   3.611   4.850
  105OSM   C16F10702   5.602   3.785   4.740
  105OSM   H16F10703   5.706   3.747   4.730
  105OSM   H16G10704   5.611   3.895   4.735
  105OSM   C17F10705   5.529   3.739   4.614
  105OSM   H17F10706   5.428   3.785   4.620
  105OSM   H17G10707   5.525   3.629   4.624
  105OSM   C18F10708   5.600   3.779   4.483
  105OSM   H18F10709   5.555   3.724   4.398
  105OSM   H18G10710   5.703   3.737   4.490
  105OSM   H18H10711   5.621   3.888   4.475
  106OSM      N10712   3.795   2.056   7.069
  106OSM    C1510713   3.845   1.919   7.106
  106OSM   H15A10714   3.766   1.851   7.076
  106OSM   H15B10715   3.846   1.895   7.212
  106OSM   H15C10716   3.941   1.902   7.061
  106OSM    C1410717   3.665   2.089   7.129
  106OSM   H14A10718   3.632   2.189   7.107
  106OSM   H14B10719   3.677   2.079   7.236
  106OSM   H14C10720   3.592   2.022   7.086
  106OSM    C1310721   3.896   2.158   7.126
  106OSM   H13A10722   3.900   2.136   7.231
  106OSM   H13B10723   3.870   2.262   7.110
  106OSM   H13C10724   3.994   2.143   7.084
  106OSM    C1210725   3.789   2.071   6.919
  106OSM   H12A10726   3.883   2.053   6.868
  106OSM   H12B10727   3.756   2.172   6.901
  106OSM    C1110728   3.697   1.971   6.850
  106OSM   H11A10729   3.695   2.011   6.746
  106OSM   H11B10730   3.597   1.977   6.897
  106OSM      P10731   3.833   1.760   6.775
  106OSM    O1310732   3.961   1.829   6.793
  106OSM    O1410733   3.830   1.614   6.797
  106OSM    O1110734   3.772   1.780   6.629
  106OSM    O1210735   3.719   1.830   6.870
  106OSM    C1S10736   3.851   1.862   6.537
  106OSM    H1S10737   3.951   1.815   6.528
  106OSM    H1T10738   3.856   1.968   6.570
  106OSM     NF10739   3.863   1.929   6.301
  106OSM    HNF10740   3.831   2.014   6.260
  106OSM    C2S10741   3.782   1.860   6.402
  106OSM    H2S10742   3.769   1.751   6.382
  106OSM    C3S10743   3.645   1.926   6.416
  106OSM    H3S10744   3.664   2.035   6.422
  106OSM     O310745   3.568   1.883   6.522
  106OSM    HO310746   3.635   1.840   6.575
  106OSM    C4S10747   3.570   1.914   6.288
  106OSM    H4S10748   3.596   1.984   6.208
  106OSM    C5S10749   3.481   1.816   6.260
  106OSM    H5S10750   3.452   1.741   6.334
  106OSM    C6S10751   3.431   1.799   6.127
  106OSM    H6S10752   3.349   1.872   6.108
  106OSM    H6T10753   3.386   1.698   6.118
  106OSM    C7S10754   3.537   1.830   6.017
  106OSM    H7S10755   3.606   1.742   6.024
  106OSM    H7T10756   3.593   1.926   6.026
  106OSM    C8S10757   3.482   1.818   5.872
  106OSM    H8S10758   3.395   1.883   5.846
  106OSM    H8T10759   3.455   1.711   5.860
  106OSM    C9S10760   3.595   1.829   5.764
  106OSM    H9S10761   3.655   1.736   5.761
  106OSM    H9T10762   3.668   1.912   5.779
  106OSM   C10S10763   3.528   1.850   5.619
  106OSM   H10S10764   3.481   1.950   5.633
  106OSM   H10T10765   3.444   1.778   5.618
  106OSM   C11S10766   3.620   1.816   5.501
  106OSM   H11S10767   3.668   1.717   5.508
  106OSM   H11T10768   3.706   1.885   5.487
  106OSM   C12S10769   3.545   1.815   5.364
  106OSM   H12S10770   3.559   1.914   5.316
  106OSM   H12T10771   3.438   1.799   5.388
  106OSM   C13S10772   3.606   1.717   5.259
  106OSM   H13S10773   3.535   1.635   5.234
  106OSM   H13T10774   3.690   1.663   5.306
  106OSM   C14S10775   3.643   1.790   5.134
  106OSM   H14S10776   3.701   1.877   5.170
  106OSM   H14T10777   3.550   1.829   5.089
  106OSM   C15S10778   3.726   1.697   5.046
  106OSM   H15S10779   3.659   1.610   5.027
  106OSM   H15T10780   3.813   1.655   5.101
  106OSM   C16S10781   3.771   1.767   4.918
  106OSM   H16S10782   3.832   1.856   4.945
  106OSM   H16T10783   3.682   1.807   4.865
  106OSM   C17S10784   3.842   1.674   4.820
  106OSM   H17S10785   3.760   1.604   4.789
  106OSM   H17T10786   3.925   1.617   4.865
  106OSM   C18S10787   3.899   1.748   4.693
  106OSM   H18S10788   3.953   1.687   4.618
  106OSM   H18T10789   3.980   1.818   4.725
  106OSM   H18U10790   3.817   1.806   4.645
  106OSM    C1F10791   3.986   1.879   6.256
  106OSM     OF10792   4.046   1.781   6.300
  106OSM    C2F10793   4.055   1.966   6.154
  106OSM    H2F10794   4.113   2.045   6.206
  106OSM    H2G10795   3.980   2.027   6.099
  106OSM    C3F10796   4.156   1.898   6.061
  106OSM    H3F10797   4.240   1.858   6.122
  106OSM    H3G10798   4.202   1.982   6.005
  106OSM    C4F10799   4.103   1.782   5.966
  106OSM    H4F10800   4.090   1.688   6.025
  106OSM    H4G10801   4.177   1.745   5.892
  106OSM    C5F10802   3.962   1.803   5.898
  106OSM    H5F10803   3.955   1.901   5.846
  106OSM    H5G10804   3.892   1.820   5.983
  106OSM    C6F10805   3.937   1.684   5.812
  106OSM    H6F10806   3.828   1.668   5.827
  106OSM    H6G10807   3.996   1.601   5.855
  106OSM    C7F10808   3.961   1.710   5.666
  106OSM    H7F10809   4.068   1.735   5.651
  106OSM    H7G10810   3.909   1.802   5.631
  106OSM    C8F10811   3.918   1.606   5.570
  106OSM    H8F10812   3.908   1.637   5.464
  106OSM    H8G10813   3.822   1.559   5.600
  106OSM    C9F10814   4.022   1.496   5.581
  106OSM    H9F10815   4.026   1.446   5.679
  106OSM   C10F10816   4.087   1.439   5.479
  106OSM   H10F10817   4.150   1.353   5.506
  106OSM   C11F10818   4.091   1.473   5.334
  106OSM   H11F10819   4.197   1.491   5.309
  106OSM   H11G10820   4.034   1.568   5.329
  106OSM   C12F10821   4.035   1.369   5.237
  106OSM   H12F10822   3.925   1.357   5.254
  106OSM   H12G10823   4.075   1.266   5.241
  106OSM   C13F10824   4.027   1.426   5.095
  106OSM   H13F10825   4.130   1.448   5.058
  106OSM   H13G10826   3.984   1.528   5.104
  106OSM   C14F10827   3.935   1.347   4.995
  106OSM   H14F10828   3.895   1.425   4.927
  106OSM   H14G10829   3.843   1.303   5.039
  106OSM   C15F10830   4.006   1.245   4.910
  106OSM   H15F10831   4.021   1.151   4.968
  106OSM   H15G10832   4.099   1.281   4.862
  106OSM   C16F10833   3.931   1.199   4.788
  106OSM   H16F10834   4.003   1.175   4.707
  106OSM   H16G10835   3.855   1.270   4.747
  106OSM   C17F10836   3.853   1.066   4.817
  106OSM   H17F10837   3.777   1.089   4.895
  106OSM   H17G10838   3.929   0.997   4.860
  106OSM   C18F10839   3.783   1.000   4.699
  106OSM   H18F10840   3.706   1.063   4.650
  106OSM   H18G10841   3.731   0.909   4.737
  106OSM   H18H10842   3.863   0.973   4.626
  107OSM      N10843   2.955   6.662   6.809
  107OSM    C1510844   3.031   6.797   6.828
  107OSM   H15A10845   3.137   6.787   6.810
  107OSM   H15B10846   3.011   6.824   6.931
  107OSM   H15C10847   2.992   0.012   6.757
  107OSM    C1410848   3.012   6.565   6.906
  107OSM   H14A10849   3.117   6.545   6.889
  107OSM   H14B10850   2.964   6.469   6.896
  107OSM   H14C10851   3.003   6.599   7.008
  107OSM    C1310852   2.812   6.675   6.832
  107OSM   H13A10853   2.769   6.576   6.825
  107OSM   H13B10854   2.770   6.733   6.752
  107OSM   H13C10855   2.802   6.720   6.930
  107OSM    C1210856   2.978   6.604   6.667
  107OSM   H12A10857   2.902   6.529   6.648
  107OSM   H12B10858   3.078   6.565   6.670
  107OSM    C1110859   2.970   6.692   6.539
  107OSM   H11A10860   2.979   6.620   6.454
  107OSM   H11B10861   3.059   6.758   6.541
  107OSM      P10862   2.829   0.059   6.526
  107OSM    O1310863   2.716   0.100   6.445
  107OSM    O1410864   2.830   0.101   6.664
  107OSM    O1110865   2.966   0.111   6.463
  107OSM    O1210866   2.850   6.762   6.525
  107OSM    C1S10867   2.987   0.082   6.320
  107OSM    H1S10868   2.893   0.097   6.262
  107OSM    H1T10869   3.011   6.831   6.307
  107OSM     NF10870   3.127   0.109   6.122
  107OSM    HNF10871   3.208   0.051   6.112
  107OSM    C2S10872   3.107   0.157   6.259
  107OSM    H2S10873   3.083   0.266   6.252
  107OSM    C3S10874   3.230   0.136   6.344
  107OSM    H3S10875   3.258   0.029   6.350
  107OSM     O310876   3.212   0.185   6.478
  107OSM    HO310877   3.116   0.189   6.484
  107OSM    C4S10878   3.341   0.214   6.287
  107OSM    H4S10879   3.330   0.323   6.299
  107OSM    C5S10880   3.461   0.173   6.233
  107OSM    H5S10881   3.471   0.064   6.219
  107OSM    C6S10882   3.563   0.276   6.178
  107OSM    H6S10883   3.657   0.273   6.237
  107OSM    H6T10884   3.525   0.378   6.154
  107OSM    C7S10885   3.617   0.230   6.035
  107OSM    H7S10886   3.673   0.312   5.984
  107OSM    H7T10887   3.528   0.214   5.970
  107OSM    C8S10888   3.717   0.112   6.041
  107OSM    H8S10889   3.701   0.037   6.121
  107OSM    H8T10890   3.814   0.166   6.052
  107OSM    C9S10891   3.721   0.038   5.905
  107OSM    H9S10892   3.624   6.847   5.878
  107OSM    H9T10893   3.796   6.815   5.924
  107OSM   C10S10894   3.761   0.127   5.784
  107OSM   H10S10895   3.861   0.173   5.798
  107OSM   H10T10896   3.680   0.200   5.765
  107OSM   C11S10897   3.798   0.048   5.657
  107OSM   H11S10898   3.716   6.840   5.619
  107OSM   H11T10899   3.892   6.848   5.671
  107OSM   C12S10900   3.817   0.143   5.531
  107OSM   H12S10901   3.895   0.219   5.554
  107OSM   H12T10902   3.720   0.196   5.525
  107OSM   C13S10903   3.849   0.070   5.400
  107OSM   H13S10904   3.754   0.023   5.364
  107OSM   H13T10905   3.925   6.851   5.429
  107OSM   C14S10906   3.915   0.153   5.289
  107OSM   H14S10907   3.978   0.233   5.333
  107OSM   H14T10908   3.848   0.215   5.225
  107OSM   C15S10909   3.995   0.066   5.188
  107OSM   H15S10910   3.936   6.829   5.177
  107OSM   H15T10911   4.085   0.025   5.240
  107OSM   C16S10912   4.034   0.142   5.059
  107OSM   H16S10913   4.111   0.086   5.001
  107OSM   H16T10914   4.075   0.237   5.098
  107OSM   C17S10915   3.909   0.175   4.971
  107OSM   H17S10916   3.931   0.235   4.881
  107OSM   H17T10917   3.834   0.238   5.023
  107OSM   C18S10918   3.843   0.058   4.898
  107OSM   H18S10919   3.898   0.041   4.802
  107OSM   H18T10920   3.736   0.077   4.875
  107OSM   H18U10921   3.856   6.821   4.956
  107OSM    C1F10922   3.030   0.119   6.028
  107OSM     OF10923   2.942   0.203   6.039
  107OSM    C2F10924   3.038   0.032   5.899
  107OSM    H2F10925   3.012   6.784   5.926
  107OSM    H2G10926   3.142   0.039   5.862
  107OSM    C3F10927   2.933   0.073   5.796
  107OSM    H3F10928   2.951   0.174   5.753
  107OSM    H3G10929   2.829   0.058   5.832
  107OSM    C4F10930   2.947   6.846   5.672
  107OSM    H4F10931   2.875   6.761   5.681
  107OSM    H4G10932   3.048   6.800   5.668
  107OSM    C5F10933   2.920   0.067   5.539
  107OSM    H5F10934   2.980   0.159   5.555
  107OSM    H5G10935   2.812   0.078   5.517
  107OSM    C6F10936   2.988   6.847   5.418
  107OSM    H6F10937   3.095   6.840   5.450
  107OSM    H6G10938   2.977   0.065   5.336
  107OSM    C7F10939   2.929   6.714   5.372
  107OSM    H7F10940   2.833   6.727   5.317
  107OSM    H7G10941   2.904   6.656   5.464
  107OSM    C8F10942   3.028   6.625   5.295
  107OSM    H8F10943   2.981   6.527   5.272
  107OSM    H8G10944   3.111   6.590   5.360
  107OSM    C9F10945   3.083   6.686   5.172
  107OSM    H9F10946   3.149   6.773   5.189
  107OSM   C10F10947   3.063   6.651   5.048
  107OSM   H10F10948   3.117   6.708   4.971
  107OSM   C11F10949   2.970   6.547   4.994
  107OSM   H11F10950   2.904   6.513   5.076
  107OSM   H11G10951   3.025   6.463   4.946
  107OSM   C12F10952   2.894   6.615   4.880
  107OSM   H12F10953   2.863   6.719   4.904
  107OSM   H12G10954   2.806   6.556   4.849
  107OSM   C13F10955   2.963   6.636   4.741
  107OSM   H13F10956   3.055   6.697   4.753
  107OSM   H13G10957   2.892   6.689   4.674
  107OSM   C14F10958   3.000   6.507   4.662
  107OSM   H14F10959   2.913   6.438   4.675
  107OSM   H14G10960   3.091   6.462   4.707
  107OSM   C15F10961   3.029   6.513   4.517
  107OSM   H15F10962   3.127   6.561   4.496
  107OSM   H15G10963   2.961   6.583   4.463
  107OSM   C16F10964   3.022   6.373   4.455
  107OSM   H16F10965   2.935   6.306   4.465
  107OSM   H16G10966   3.100   6.303   4.494
  107OSM   C17F10967   3.028   6.396   4.304
  107OSM   H17F10968   3.052   6.297   4.259
  107OSM   H17G10969   3.107   6.471   4.281
  107OSM   C18F10970   2.893   6.437   4.236
  107OSM   H18F10971   2.821   6.353   4.238
  107OSM   H18G10972   2.922   6.461   4.131
  107OSM   H18H10973   2.836   6.519   4.284
  108OSM      N10974   6.344   6.286   6.689
  108OSM    C1510975   6.487   6.246   6.700
  108OSM   H15A10976   6.502   6.152   6.751
  108OSM   H15B10977   6.540   6.313   6.766
  108OSM   H15C10978   6.539   6.249   6.606
  108OSM    C1410979   6.272   6.240   6.812
  108OSM   H14A10980   6.168   6.266   6.807
  108OSM   H14B10981   6.314   6.270   6.907
  108OSM   H14C10982   6.279   6.132   6.803
  108OSM    C1310983   6.330   6.438   6.677
  108OSM   H13A10984   6.338   6.480   6.776
  108OSM   H13B10985   6.232   6.469   6.646
  108OSM   H13C10986   6.402   6.478   6.607
  108OSM    C1210987   6.284   6.228   6.566
  108OSM   H12A10988   6.310   6.123   6.567
  108OSM   H12B10989   6.328   6.264   6.474
  108OSM    C1110990   6.131   6.247   6.538
  108OSM   H11A10991   6.075   6.177   6.603
  108OSM   H11B10992   6.126   6.214   6.432
  108OSM      P10993   5.964   6.437   6.631
  108OSM    O1310994   5.937   6.348   6.749
  108OSM    O1410995   5.996   6.580   6.656
  108OSM    O1110996   5.840   6.422   6.537
  108OSM    O1210997   6.085   6.382   6.544
  108OSM    C1S10998   5.828   6.479   6.405
  108OSM    H1S10999   5.879   6.578   6.407
  108OSM    H1T11000   5.721   6.493   6.379
  108OSM     NF11001   5.899   6.439   6.171
  108OSM    HNF11002   5.832   6.399   6.110
  108OSM    C2S11003   5.895   6.381   6.303
  108OSM    H2S11004   6.000   6.360   6.331
  108OSM    C3S11005   5.822   6.239   6.301
  108OSM    H3S11006   5.714   6.246   6.279
  108OSM     O311007   5.816   6.188   6.426
  108OSM    HO311008   5.826   6.264   6.484
  108OSM    C4S11009   5.899   6.142   6.207
  108OSM    H4S11010   5.999   6.118   6.247
  108OSM    C5S11011   5.855   6.083   6.091
  108OSM    H5S11012   5.754   6.108   6.055
  108OSM    C6S11013   5.936   5.990   6.003
  108OSM    H6S11014   5.875   5.898   5.992
  108OSM    H6T11015   6.027   5.955   6.057
  108OSM    C7S11016   5.968   6.067   5.884
  108OSM    H7S11017   6.022   6.158   5.918
  108OSM    H7T11018   5.872   6.100   5.840
  108OSM    C8S11019   6.046   5.969   5.782
  108OSM    H8S11020   6.127   5.913   5.833
  108OSM    H8T11021   6.091   6.034   5.705
  108OSM    C9S11022   5.949   5.882   5.709
  108OSM    H9S11023   5.875   5.942   5.652
  108OSM    H9T11024   5.889   5.819   5.778
  108OSM   C10S11025   6.007   5.789   5.594
  108OSM   H10S11026   5.931   5.746   5.525
  108OSM   H10T11027   6.055   5.704   5.646
  108OSM   C11S11028   6.113   5.840   5.493
  108OSM   H11S11029   6.122   5.763   5.414
  108OSM   H11T11030   6.212   5.862   5.539
  108OSM   C12S11031   6.057   5.969   5.431
  108OSM   H12S11032   6.135   6.002   5.360
  108OSM   H12T11033   6.035   6.045   5.509
  108OSM   C13S11034   5.934   5.944   5.347
  108OSM   H13S11035   5.852   5.909   5.413
  108OSM   H13T11036   5.956   5.866   5.271
  108OSM   C14S11037   5.890   6.072   5.273
  108OSM   H14S11038   5.893   6.167   5.330
  108OSM   H14T11039   5.785   6.069   5.236
  108OSM   C15S11040   5.974   6.089   5.151
  108OSM   H15S11041   5.974   5.988   5.104
  108OSM   H15T11042   6.075   6.130   5.165
  108OSM   C16S11043   5.898   6.179   5.054
  108OSM   H16S11044   5.896   6.281   5.099
  108OSM   H16T11045   5.789   6.164   5.070
  108OSM   C17S11046   5.957   6.161   4.915
  108OSM   H17S11047   5.940   6.052   4.901
  108OSM   H17T11048   6.065   6.185   4.924
  108OSM   C18S11049   5.901   6.250   4.801
  108OSM   H18S11050   5.810   6.203   4.757
  108OSM   H18T11051   5.967   6.257   4.712
  108OSM   H18U11052   5.875   6.352   4.838
  108OSM    C1F11053   5.967   6.546   6.144
  108OSM     OF11054   6.058   6.576   6.218
  108OSM    C2F11055   5.922   6.631   6.029
  108OSM    H2F11056   5.826   6.678   6.060
  108OSM    H2G11057   5.906   6.571   5.937
  108OSM    C3F11058   6.021   6.747   5.992
  108OSM    H3F11059   6.036   6.808   6.083
  108OSM    H3G11060   5.969   6.807   5.914
  108OSM    C4F11061   6.151   6.710   5.921
  108OSM    H4F11062   6.121   6.650   5.832
  108OSM    H4G11063   6.228   6.654   5.978
  108OSM    C5F11064   6.220   6.841   5.863
  108OSM    H5F11065   6.276   0.037   5.944
  108OSM    H5G11066   6.140   0.052   5.827
  108OSM    C6F11067   6.321   6.818   5.750
  108OSM    H6F11068   6.387   6.740   5.792
  108OSM    H6G11069   6.372   0.060   5.744
  108OSM    C7F11070   6.262   6.778   5.618
  108OSM    H7F11071   6.187   6.855   5.591
  108OSM    H7G11072   6.220   6.675   5.629
  108OSM    C8F11073   6.374   6.760   5.512
  108OSM    H8F11074   6.317   6.728   5.421
  108OSM    H8G11075   6.444   6.678   5.538
  108OSM    C9F11076   6.449   0.033   5.473
  108OSM    H9F11077   6.511   0.075   5.553
  108OSM   C10F11078   6.451   0.102   5.354
  108OSM   H10F11079   6.506   0.197   5.342
  108OSM   C11F11080   6.377   0.055   5.228
  108OSM   H11F11081   6.304   0.136   5.211
  108OSM   H11G11082   6.322   6.815   5.225
  108OSM   C12F11083   6.478   0.049   5.113
  108OSM   H12F11084   6.559   6.832   5.132
  108OSM   H12G11085   6.512   0.155   5.104
  108OSM   C13F11086   6.399   0.015   4.984
  108OSM   H13F11087   6.336   0.100   4.949
  108OSM   H13G11088   6.319   6.798   5.007
  108OSM   C14F11089   6.486   6.840   4.862
  108OSM   H14F11090   6.563   6.762   4.881
  108OSM   H14G11091   6.542   0.076   4.838
  108OSM   C15F11092   6.397   6.804   4.746
  108OSM   H15F11093   6.324   0.029   4.728
  108OSM   H15G11094   6.338   6.715   4.775
  108OSM   C16F11095   6.474   6.768   4.620
  108OSM   H16F11096   6.518   6.666   4.617
  108OSM   H16G11097   6.564   6.832   4.617
  108OSM   C17F11098   6.384   6.778   4.500
  108OSM   H17F11099   6.323   0.014   4.496
  108OSM   H17G11100   6.308   6.697   4.497
  108OSM   C18F11101   6.455   6.770   4.369
  108OSM   H18F11102   6.520   6.680   4.362
  108OSM   H18G11103   6.522   0.002   4.367
  108OSM   H18H11104   6.390   6.779   4.279
  109OSM      N11105   2.692   3.269   6.665
  109OSM    C1511106   2.707   3.410   6.697
  109OSM   H15A11107   2.740   3.471   6.614
  109OSM   H15B11108   2.766   3.415   6.787
  109OSM   H15C11109   2.612   3.459   6.710
  109OSM    C1411110   2.831   3.207   6.638
  109OSM   H14A11111   2.874   3.258   6.553
  109OSM   H14B11112   2.827   3.102   6.615
  109OSM   H14C11113   2.899   3.217   6.721
  109OSM    C1311114   2.623   3.208   6.787
  109OSM   H13A11115   2.567   3.120   6.763
  109OSM   H13B11116   2.547   3.275   6.825
  109OSM   H13C11117   2.690   3.200   6.872
  109OSM    C1211118   2.600   3.248   6.545
  109OSM   H12A11119   2.594   3.143   6.520
  109OSM   H12B11120   2.639   3.294   6.455
  109OSM    C1111121   2.449   3.288   6.565
  109OSM   H11A11122   2.386   3.278   6.474
  109OSM   H11B11123   2.449   3.398   6.584
  109OSM      P11124   2.353   3.057   6.653
  109OSM    O1311125   2.422   2.980   6.761
  109OSM    O1411126   2.208   3.041   6.647
  109OSM    O1111127   2.408   3.014   6.508
  109OSM    O1211128   2.385   3.213   6.666
  109OSM    C1S11129   2.442   2.877   6.489
  109OSM    H1S11130   2.382   2.801   6.545
  109OSM    H1T11131   2.549   2.855   6.510
  109OSM     NF11132   2.437   2.693   6.321
  109OSM    HNF11133   2.521   2.649   6.291
  109OSM    C2S11134   2.428   2.838   6.334
  109OSM    H2S11135   2.330   2.877   6.298
  109OSM    C3S11136   2.535   2.915   6.252
  109OSM    H3S11137   2.630   2.898   6.305
  109OSM     O311138   2.508   3.056   6.254
  109OSM    HO311139   2.437   3.066   6.318
  109OSM    C4S11140   2.524   2.878   6.104
  109OSM    H4S11141   2.429   2.912   6.061
  109OSM    C5S11142   2.592   2.782   6.036
  109OSM    H5S11143   2.655   2.710   6.090
  109OSM    C6S11144   2.554   2.725   5.905
  109OSM    H6S11145   2.445   2.716   5.888
  109OSM    H6T11146   2.595   2.621   5.903
  109OSM    C7S11147   2.637   2.790   5.791
  109OSM    H7S11148   2.741   2.774   5.825
  109OSM    H7T11149   2.629   2.900   5.788
  109OSM    C8S11150   2.604   2.718   5.657
  109OSM    H8S11151   2.526   2.779   5.605
  109OSM    H8T11152   2.549   2.624   5.677
  109OSM    C9S11153   2.713   2.722   5.553
  109OSM    H9S11154   2.780   2.635   5.573
  109OSM    H9T11155   2.775   2.813   5.567
  109OSM   C10S11156   2.663   2.709   5.410
  109OSM   H10S11157   2.591   2.792   5.396
  109OSM   H10T11158   2.613   2.611   5.396
  109OSM   C11S11159   2.769   2.718   5.297
  109OSM   H11S11160   2.852   2.648   5.321
  109OSM   H11T11161   2.802   2.824   5.296
  109OSM   C12S11162   2.704   2.694   5.152
  109OSM   H12S11163   2.635   2.780   5.139
  109OSM   H12T11164   2.644   2.601   5.162
  109OSM   C13S11165   2.802   2.668   5.035
  109OSM   H13S11166   2.880   2.597   5.070
  109OSM   H13T11167   2.855   2.765   5.022
  109OSM   C14S11168   2.723   2.614   4.916
  109OSM   H14S11169   2.664   2.696   4.871
  109OSM   H14T11170   2.643   2.548   4.958
  109OSM   C15S11171   2.796   2.541   4.805
  109OSM   H15S11172   2.824   2.442   4.848
  109OSM   H15T11173   2.886   2.600   4.779
  109OSM   C16S11174   2.705   2.515   4.679
  109OSM   H16S11175   2.604   2.559   4.692
  109OSM   H16T11176   2.697   2.405   4.677
  109OSM   C17S11177   2.759   2.575   4.552
  109OSM   H17S11178   2.849   2.515   4.526
  109OSM   H17T11179   2.794   2.677   4.576
  109OSM   C18S11180   2.652   2.575   4.437
  109OSM   H18S11181   2.666   2.661   4.368
  109OSM   H18T11182   2.547   2.591   4.469
  109OSM   H18U11183   2.671   2.481   4.381
  109OSM    C1F11184   2.334   2.616   6.357
  109OSM     OF11185   2.236   2.667   6.409
  109OSM    C2F11186   2.343   2.467   6.335
  109OSM    H2F11187   2.304   2.417   6.426
  109OSM    H2G11188   2.449   2.442   6.315
  109OSM    C3F11189   2.257   2.430   6.216
  109OSM    H3F11190   2.151   2.418   6.248
  109OSM    H3G11191   2.294   2.334   6.173
  109OSM    C4F11192   2.275   2.520   6.092
  109OSM    H4F11193   2.377   2.562   6.084
  109OSM    H4G11194   2.197   2.599   6.095
  109OSM    C5F11195   2.241   2.446   5.964
  109OSM    H5F11196   2.145   2.392   5.973
  109OSM    H5G11197   2.315   2.365   5.947
  109OSM    C6F11198   2.232   2.531   5.835
  109OSM    H6F11199   2.335   2.536   5.795
  109OSM    H6G11200   2.208   2.635   5.865
  109OSM    C7F11201   2.134   2.472   5.732
  109OSM    H7F11202   2.127   2.539   5.643
  109OSM    H7G11203   2.032   2.453   5.770
  109OSM    C8F11204   2.185   2.336   5.678
  109OSM    H8F11205   2.189   2.265   5.764
  109OSM    H8G11206   2.295   2.350   5.664
  109OSM    C9F11207   2.141   2.278   5.550
  109OSM    H9F11208   2.085   2.184   5.561
  109OSM   C10F11209   2.160   2.328   5.423
  109OSM   H10F11210   2.113   2.272   5.340
  109OSM   C11F11211   2.241   2.447   5.382
  109OSM   H11F11212   2.291   2.500   5.467
  109OSM   H11G11213   2.168   2.523   5.347
  109OSM   C12F11214   2.343   2.429   5.261
  109OSM   H12F11215   2.399   2.333   5.268
  109OSM   H12G11216   2.417   2.511   5.261
  109OSM   C13F11217   2.273   2.426   5.122
  109OSM   H13F11218   2.209   2.516   5.117
  109OSM   H13G11219   2.212   2.343   5.081
  109OSM   C14F11220   2.389   2.443   5.022
  109OSM   H14F11221   2.465   2.365   5.047
  109OSM   H14G11222   2.434   2.543   5.034
  109OSM   C15F11223   2.347   2.456   4.872
  109OSM   H15F11224   2.286   2.364   4.858
  109OSM   H15G11225   2.437   2.465   4.807
  109OSM   C16F11226   2.248   2.572   4.839
  109OSM   H16F11227   2.285   2.660   4.898
  109OSM   H16G11228   2.152   2.562   4.894
  109OSM   C17F11229   2.224   2.602   4.691
  109OSM   H17F11230   2.178   2.511   4.646
  109OSM   H17G11231   2.318   2.618   4.633
  109OSM   C18F11232   2.131   2.720   4.673
  109OSM   H18F11233   2.180   2.812   4.713
  109OSM   H18G11234   2.038   2.706   4.731
  109OSM   H18H11235   2.111   2.726   4.564
  110OSM      N11236   5.691   1.132   6.530
  110OSM    C1511237   5.643   1.267   6.582
  110OSM   H15A11238   5.649   1.270   6.690
  110OSM   H15B11239   5.541   1.285   6.551
  110OSM   H15C11240   5.700   1.349   6.540
  110OSM    C1411241   5.840   1.131   6.524
  110OSM   H14A11242   5.880   1.213   6.466
  110OSM   H14B11243   5.872   1.038   6.479
  110OSM   H14C11244   5.882   1.124   6.623
  110OSM    C1311245   5.650   1.028   6.628
  110OSM   H13A11246   5.670   0.926   6.599
  110OSM   H13B11247   5.545   1.038   6.651
  110OSM   H13C11248   5.699   1.038   6.724
  110OSM    C1211249   5.631   1.106   6.397
  110OSM   H12A11250   5.704   1.057   6.333
  110OSM   H12B11251   5.622   1.199   6.342
  110OSM    C1111252   5.487   1.037   6.392
  110OSM   H11A11253   5.493   0.935   6.435
  110OSM   H11B11254   5.469   1.033   6.283
  110OSM      P11255   5.281   1.075   6.557
  110OSM    O1311256   5.340   1.062   6.691
  110OSM    O1411257   5.163   1.164   6.542
  110OSM    O1111258   5.237   0.936   6.498
  110OSM    O1211259   5.389   1.117   6.453
  110OSM    C1S11260   5.181   0.931   6.362
  110OSM    H1S11261   5.223   1.006   6.291
  110OSM    H1T11262   5.073   0.950   6.372
  110OSM     NF11263   5.159   0.790   6.161
  110OSM    HNF11264   5.080   0.733   6.138
  110OSM    C2S11265   5.201   0.787   6.298
  110OSM    H2S11266   5.311   0.770   6.297
  110OSM    C3S11267   5.144   0.674   6.390
  110OSM    H3S11268   5.033   0.670   6.403
  110OSM     O311269   5.194   0.683   6.519
  110OSM    HO311270   5.216   0.777   6.516
  110OSM    C4S11271   5.203   0.551   6.324
  110OSM    H4S11272   5.305   0.557   6.284
  110OSM    C5S11273   5.128   0.447   6.291
  110OSM    H5S11274   5.022   0.439   6.320
  110OSM    C6S11275   5.178   0.330   6.210
  110OSM    H6S11276   5.144   0.229   6.240
  110OSM    H6T11277   5.287   0.312   6.221
  110OSM    C7S11278   5.129   0.353   6.064
  110OSM    H7S11279   5.169   0.267   6.006
  110OSM    H7T11280   5.186   0.434   6.014
  110OSM    C8S11281   4.980   0.375   6.043
  110OSM    H8S11282   4.940   0.462   6.100
  110OSM    H8T11283   4.915   0.297   6.089
  110OSM    C9S11284   4.928   0.410   5.905
  110OSM    H9S11285   4.817   0.416   5.908
  110OSM    H9T11286   4.949   0.319   5.846
  110OSM   C10S11287   4.987   0.537   5.850
  110OSM   H10S11288   5.098   0.536   5.839
  110OSM   H10T11289   4.963   0.620   5.920
  110OSM   C11S11290   4.941   0.558   5.708
  110OSM   H11S11291   4.957   0.465   5.649
  110OSM   H11T11292   5.011   0.629   5.658
  110OSM   C12S11293   4.792   0.606   5.705
  110OSM   H12S11294   4.779   0.694   5.772
  110OSM   H12T11295   4.724   0.530   5.748
  110OSM   C13S11296   4.752   0.644   5.561
  110OSM   H13S11297   4.817   0.725   5.523
  110OSM   H13T11298   4.646   0.677   5.571
  110OSM   C14S11299   4.763   0.530   5.458
  110OSM   H14S11300   4.711   0.439   5.494
  110OSM   H14T11301   4.870   0.511   5.433
  110OSM   C15S11302   4.697   0.581   5.323
  110OSM   H15S11303   4.586   0.586   5.329
  110OSM   H15T11304   4.709   0.496   5.252
  110OSM   C16S11305   4.763   0.709   5.263
  110OSM   H16S11306   4.868   0.698   5.297
  110OSM   H16T11307   4.718   0.798   5.310
  110OSM   C17S11308   4.771   0.720   5.106
  110OSM   H17S11309   4.780   0.619   5.061
  110OSM   H17T11310   4.857   0.785   5.080
  110OSM   C18S11311   4.651   0.800   5.048
  110OSM   H18S11312   4.619   0.893   5.098
  110OSM   H18T11313   4.564   0.731   5.053
  110OSM   H18U11314   4.676   0.823   4.942
  110OSM    C1F11315   5.212   0.866   6.066
  110OSM     OF11316   5.325   0.921   6.077
  110OSM    C2F11317   5.125   0.875   5.945
  110OSM    H2F11318   5.018   0.857   5.967
  110OSM    H2G11319   5.168   0.797   5.878
  110OSM    C3F11320   5.126   1.017   5.886
  110OSM    H3F11321   5.232   1.037   5.858
  110OSM    H3G11322   5.097   1.091   5.963
  110OSM    C4F11323   5.048   1.034   5.751
  110OSM    H4F11324   5.066   1.141   5.727
  110OSM    H4G11325   4.942   1.013   5.779
  110OSM    C5F11326   5.076   0.933   5.639
  110OSM    H5F11327   5.060   0.829   5.676
  110OSM    H5G11328   5.185   0.937   5.617
  110OSM    C6F11329   4.998   0.961   5.508
  110OSM    H6F11330   4.890   0.972   5.531
  110OSM    H6G11331   5.022   0.876   5.441
  110OSM    C7F11332   5.053   1.085   5.431
  110OSM    H7F11333   5.146   1.049   5.382
  110OSM    H7G11334   5.072   1.169   5.500
  110OSM    C8F11335   4.961   1.130   5.317
  110OSM    H8F11336   4.873   1.172   5.372
  110OSM    H8G11337   4.911   1.039   5.277
  110OSM    C9F11338   5.026   1.215   5.212
  110OSM    H9F11339   5.045   1.319   5.239
  110OSM   C10F11340   5.067   1.174   5.090
  110OSM   H10F11341   5.120   1.240   5.020
  110OSM   C11F11342   5.044   1.038   5.037
  110OSM   H11F11343   4.995   1.052   4.938
  110OSM   H11G11344   4.983   0.975   5.106
  110OSM   C12F11345   5.177   0.966   5.024
  110OSM   H12F11346   5.245   0.974   5.111
  110OSM   H12G11347   5.236   1.004   4.938
  110OSM   C13F11348   5.160   0.813   5.005
  110OSM   H13F11349   5.139   0.780   4.901
  110OSM   H13G11350   5.063   0.776   5.046
  110OSM   C14F11351   5.289   0.735   5.051
  110OSM   H14F11352   5.372   0.798   5.013
  110OSM   H14G11353   5.283   0.635   5.004
  110OSM   C15F11354   5.285   0.712   5.197
  110OSM   H15F11355   5.279   0.802   5.262
  110OSM   H15G11356   5.382   0.662   5.217
  110OSM   C16F11357   5.168   0.630   5.246
  110OSM   H16F11358   5.148   0.540   5.185
  110OSM   H16G11359   5.082   0.699   5.255
  110OSM   C17F11360   5.187   0.573   5.390
  110OSM   H17F11361   5.086   0.556   5.434
  110OSM   H17G11362   5.243   0.651   5.445
  110OSM   C18F11363   5.265   0.439   5.397
  110OSM   H18F11364   5.215   0.371   5.325
  110OSM   H18G11365   5.279   0.399   5.500
  110OSM   H18H11366   5.366   0.464   5.358
  111OSM      N11367   0.388   3.749   6.519
  111OSM    C1511368   0.414   3.615   6.455
  111OSM   H15A11369   0.521   3.604   6.455
  111OSM   H15B11370   0.380   3.612   6.353
  111OSM   H15C11371   0.383   3.531   6.515
  111OSM    C1411372   0.432   3.733   6.663
  111OSM   H14A11373   0.532   3.693   6.664
  111OSM   H14B11374   0.375   3.656   6.714
  111OSM   H14C11375   0.427   3.825   6.718
  111OSM    C1311376   0.474   3.852   6.452
  111OSM   H13A11377   0.451   3.947   6.498
  111OSM   H13B11378   0.449   3.867   6.348
  111OSM   H13C11379   0.579   3.843   6.475
  111OSM    C1211380   0.239   3.788   6.516
  111OSM   H12A11381   0.227   3.874   6.581
  111OSM   H12B11382   0.179   3.717   6.570
  111OSM    C1111383   0.195   3.828   6.373
  111OSM   H11A11384   0.085   3.817   6.385
  111OSM   H11B11385   0.232   3.754   6.299
  111OSM      P11386   0.139   4.074   6.413
  111OSM    O1311387   6.853   4.040   6.430
  111OSM    O1411388   0.215   4.095   6.536
  111OSM    O1111389   0.150   4.208   6.323
  111OSM    O1211390   0.219   3.964   6.331
  111OSM    C1S11391   0.277   4.271   6.285
  111OSM    H1S11392   0.366   4.236   6.342
  111OSM    H1T11393   0.271   4.380   6.303
  111OSM     NF11394   0.435   4.322   6.101
  111OSM    HNF11395   0.433   4.422   6.099
  111OSM    C2S11396   0.305   4.263   6.131
  111OSM    H2S11397   0.302   4.157   6.099
  111OSM    C3S11398   0.195   4.337   6.044
  111OSM    H3S11399   0.195   4.440   6.085
  111OSM     O311400   0.071   4.278   6.082
  111OSM    HO311401   0.096   4.233   6.163
  111OSM    C4S11402   0.222   4.334   5.896
  111OSM    H4S11403   0.236   4.234   5.853
  111OSM    C5S11404   0.224   4.440   5.807
  111OSM    H5S11405   0.198   4.543   5.835
  111OSM    C6S11406   0.250   4.413   5.660
  111OSM    H6S11407   0.341   4.468   5.627
  111OSM    H6T11408   0.168   4.445   5.592
  111OSM    C7S11409   0.290   4.265   5.622
  111OSM    H7S11410   0.204   4.197   5.641
  111OSM    H7T11411   0.368   4.240   5.697
  111OSM    C8S11412   0.340   4.252   5.476
  111OSM    H8S11413   0.343   4.144   5.454
  111OSM    H8T11414   0.439   4.300   5.461
  111OSM    C9S11415   0.254   4.312   5.370
  111OSM    H9S11416   0.278   4.420   5.364
  111OSM    H9T11417   0.145   4.311   5.389
  111OSM   C10S11418   0.296   4.259   5.227
  111OSM   H10S11419   0.274   4.152   5.205
  111OSM   H10T11420   0.406   4.258   5.214
  111OSM   C11S11421   0.237   4.352   5.125
  111OSM   H11S11422   0.276   4.456   5.126
  111OSM   H11T11423   0.127   4.343   5.135
  111OSM   C12S11424   0.266   4.302   4.982
  111OSM   H12S11425   0.240   4.195   4.970
  111OSM   H12T11426   0.374   4.300   4.957
  111OSM   C13S11427   0.219   4.387   4.867
  111OSM   H13S11428   0.261   4.489   4.884
  111OSM   H13T11429   0.111   4.409   4.883
  111OSM   C14S11430   0.264   4.348   4.729
  111OSM   H14S11431   0.288   4.240   4.739
  111OSM   H14T11432   0.356   4.402   4.695
  111OSM   C15S11433   0.152   4.355   4.629
  111OSM   H15S11434   0.114   4.459   4.616
  111OSM   H15T11435   0.061   4.300   4.661
  111OSM   C16S11436   0.212   4.310   4.489
  111OSM   H16S11437   0.127   4.294   4.418
  111OSM   H16T11438   0.276   4.220   4.500
  111OSM   C17S11439   0.308   4.419   4.416
  111OSM   H17S11440   0.415   4.393   4.427
  111OSM   H17T11441   0.292   4.507   4.481
  111OSM   C18S11442   0.269   4.454   4.275
  111OSM   H18S11443   0.161   4.477   4.271
  111OSM   H18T11444   0.293   4.375   4.201
  111OSM   H18U11445   0.323   4.544   4.240
  111OSM    C1F11446   0.550   4.259   6.113
  111OSM     OF11447   0.555   4.141   6.138
  111OSM    C2F11448   0.670   4.346   6.107
  111OSM    H2F11449   0.754   4.301   6.164
  111OSM    H2G11450   0.641   4.441   6.158
  111OSM    C3F11451   0.719   4.384   5.968
  111OSM    H3F11452   0.800   4.459   5.979
  111OSM    H3G11453   0.639   4.441   5.915
  111OSM    C4F11454   0.770   4.275   5.876
  111OSM    H4F11455   0.687   4.213   5.836
  111OSM    H4G11456   0.832   4.199   5.930
  111OSM    C5F11457   0.846   4.330   5.755
  111OSM    H5F11458   0.882   4.241   5.699
  111OSM    H5G11459   0.931   4.384   5.802
  111OSM    C6F11460   0.763   4.421   5.658
  111OSM    H6F11461   0.750   4.516   5.713
  111OSM    H6G11462   0.661   4.380   5.644
  111OSM    C7F11463   0.844   4.469   5.532
  111OSM    H7F11464   0.832   4.402   5.445
  111OSM    H7G11465   0.953   4.474   5.551
  111OSM    C8F11466   0.784   4.608   5.483
  111OSM    H8F11467   0.841   4.642   5.394
  111OSM    H8G11468   0.819   4.675   5.565
  111OSM    C9F11469   0.638   4.614   5.464
  111OSM    H9F11470   0.582   4.655   5.550
  111OSM   C10F11471   0.564   4.588   5.351
  111OSM   H10F11472   0.455   4.587   5.363
  111OSM   C11F11473   0.607   4.535   5.216
  111OSM   H11F11474   0.560   4.438   5.191
  111OSM   H11G11475   0.718   4.542   5.213
  111OSM   C12F11476   0.572   4.619   5.095
  111OSM   H12F11477   0.634   4.710   5.099
  111OSM   H12G11478   0.463   4.641   5.101
  111OSM   C13F11479   0.595   4.556   4.963
  111OSM   H13F11480   0.551   4.605   4.874
  111OSM   H13G11481   0.554   4.454   4.950
  111OSM   C14F11482   0.748   4.541   4.920
  111OSM   H14F11483   0.748   4.472   4.833
  111OSM   H14G11484   0.800   4.491   5.005
  111OSM   C15F11485   0.821   4.673   4.894
  111OSM   H15F11486   0.926   4.643   4.871
  111OSM   H15G11487   0.814   4.729   4.990
  111OSM   C16F11488   0.769   4.757   4.773
  111OSM   H16F11489   0.828   4.851   4.785
  111OSM   H16G11490   0.663   4.776   4.801
  111OSM   C17F11491   0.773   4.692   4.639
  111OSM   H17F11492   0.712   4.599   4.636
  111OSM   H17G11493   0.877   4.664   4.612
  111OSM   C18F11494   0.707   4.774   4.528
  111OSM   H18F11495   0.770   4.864   4.511
  111OSM   H18G11496   0.608   4.808   4.566
  111OSM   H18H11497   0.698   4.729   4.427
  112OSM      N11498   3.077   2.072   7.391
  112OSM    C1511499   3.230   2.082   7.400
  112OSM   H15A11500   3.286   2.034   7.321
  112OSM   H15B11501   3.248   2.048   7.501
  112OSM   H15C11502   3.264   2.184   7.411
  112OSM    C1411503   3.031   1.926   7.391
  112OSM   H14A11504   2.926   1.919   7.368
  112OSM   H14B11505   3.049   1.870   7.482
  112OSM   H14C11506   3.087   1.872   7.316
  112OSM    C1311507   3.027   2.134   7.513
  112OSM   H13A11508   2.919   2.129   7.508
  112OSM   H13B11509   3.053   2.239   7.526
  112OSM   H13C11510   3.059   2.079   7.601
  112OSM    C1211511   3.027   2.137   7.264
  112OSM   H12A11512   3.064   2.238   7.273
  112OSM   H12B11513   2.919   2.131   7.263
  112OSM    C1111514   3.089   2.081   7.134
  112OSM   H11A11515   3.030   2.109   7.044
  112OSM   H11B11516   3.072   1.971   7.134
  112OSM      P11517   3.250   2.259   7.030
  112OSM    O1311518   3.143   2.352   7.065
  112OSM    O1411519   3.392   2.301   7.052
  112OSM    O1111520   3.227   2.208   6.880
  112OSM    O1211521   3.226   2.122   7.104
  112OSM    C1S11522   3.319   2.110   6.835
  112OSM    H1S11523   3.296   2.018   6.891
  112OSM    H1T11524   3.426   2.138   6.851
  112OSM     NF11525   3.326   1.945   6.659
  112OSM    HNF11526   3.404   1.915   6.604
  112OSM    C2S11527   3.296   2.085   6.682
  112OSM    H2S11528   3.192   2.099   6.646
  112OSM    C3S11529   3.382   2.187   6.608
  112OSM    H3S11530   3.487   2.156   6.622
  112OSM     O311531   3.378   2.314   6.676
  112OSM    HO311532   3.344   2.295   6.764
  112OSM    C4S11533   3.349   2.193   6.458
  112OSM    H4S11534   3.405   2.121   6.397
  112OSM    C5S11535   3.271   2.285   6.393
  112OSM    H5S11536   3.244   2.371   6.456
  112OSM    C6S11537   3.265   2.298   6.237
  112OSM    H6S11538   3.310   2.397   6.214
  112OSM    H6T11539   3.159   2.295   6.205
  112OSM    C7S11540   3.344   2.188   6.162
  112OSM    H7S11541   3.302   2.095   6.207
  112OSM    H7T11542   3.452   2.199   6.185
  112OSM    C8S11543   3.323   2.205   6.017
  112OSM    H8S11544   3.242   2.276   5.988
  112OSM    H8T11545   3.309   2.109   5.964
  112OSM    C9S11546   3.454   2.262   5.955
  112OSM    H9S11547   3.544   2.199   5.971
  112OSM    H9T11548   3.459   2.362   6.003
  112OSM   C10S11549   3.445   2.292   5.804
  112OSM   H10S11550   3.362   2.365   5.791
  112OSM   H10T11551   3.428   2.197   5.750
  112OSM   C11S11552   3.571   2.360   5.743
  112OSM   H11S11553   3.661   2.295   5.750
  112OSM   H11T11554   3.596   2.453   5.797
  112OSM   C12S11555   3.553   2.390   5.591
  112OSM   H12S11556   3.650   2.427   5.553
  112OSM   H12T11557   3.478   2.465   5.557
  112OSM   C13S11558   3.515   2.264   5.509
  112OSM   H13S11559   3.406   2.243   5.522
  112OSM   H13T11560   3.567   2.172   5.545
  112OSM   C14S11561   3.517   2.272   5.359
  112OSM   H14S11562   3.483   2.368   5.314
  112OSM   H14T11563   3.450   2.191   5.325
  112OSM   C15S11564   3.661   2.254   5.309
  112OSM   H15S11565   3.698   2.162   5.359
  112OSM   H15T11566   3.727   2.334   5.349
  112OSM   C16S11567   3.673   2.236   5.153
  112OSM   H16S11568   3.614   2.144   5.133
  112OSM   H16T11569   3.781   2.221   5.129
  112OSM   C17S11570   3.607   2.347   5.065
  112OSM   H17S11571   3.496   2.345   5.071
  112OSM   H17T11572   3.639   2.329   4.961
  112OSM   C18S11573   3.658   2.488   5.115
  112OSM   H18S11574   3.608   2.569   5.056
  112OSM   H18T11575   3.769   2.486   5.113
  112OSM   H18U11576   3.632   2.516   5.219
  112OSM    C1F11577   3.247   1.848   6.704
  112OSM     OF11578   3.134   1.865   6.741
  112OSM    C2F11579   3.312   1.718   6.706
  112OSM    H2F11580   3.308   1.676   6.809
  112OSM    H2G11581   3.417   1.732   6.673
  112OSM    C3F11582   3.238   1.617   6.615
  112OSM    H3F11583   3.256   1.645   6.509
  112OSM    H3G11584   3.130   1.623   6.639
  112OSM    C4F11585   3.278   1.467   6.625
  112OSM    H4F11586   3.237   1.416   6.715
  112OSM    H4G11587   3.387   1.465   6.648
  112OSM    C5F11588   3.238   1.379   6.500
  112OSM    H5F11589   3.128   1.392   6.489
  112OSM    H5G11590   3.260   1.272   6.521
  112OSM    C6F11591   3.312   1.416   6.374
  112OSM    H6F11592   3.419   1.386   6.375
  112OSM    H6G11593   3.298   1.525   6.354
  112OSM    C7F11594   3.260   1.339   6.253
  112OSM    H7F11595   3.151   1.323   6.260
  112OSM    H7G11596   3.292   1.232   6.255
  112OSM    C8F11597   3.289   1.405   6.123
  112OSM    H8F11598   3.398   1.420   6.106
  112OSM    H8G11599   3.241   1.505   6.122
  112OSM    C9F11600   3.221   1.326   6.017
  112OSM    H9F11601   3.141   1.262   6.059
  112OSM   C10F11602   3.267   1.304   5.890
  112OSM   H10F11603   3.207   1.238   5.826
  112OSM   C11F11604   3.381   1.377   5.822
  112OSM   H11F11605   3.475   1.319   5.832
  112OSM   H11G11606   3.419   1.460   5.885
  112OSM   C12F11607   3.355   1.420   5.685
  112OSM   H12F11608   3.274   1.496   5.680
  112OSM   H12G11609   3.323   1.332   5.626
  112OSM   C13F11610   3.488   1.478   5.623
  112OSM   H13F11611   3.557   1.519   5.700
  112OSM   H13G11612   3.465   1.557   5.548
  112OSM   C14F11613   3.556   1.359   5.545
  112OSM   H14F11614   3.552   1.269   5.609
  112OSM   H14G11615   3.664   1.378   5.525
  112OSM   C15F11616   3.488   1.318   5.413
  112OSM   H15F11617   3.471   1.411   5.354
  112OSM   H15G11618   3.386   1.275   5.424
  112OSM   C16F11619   3.577   1.215   5.330
  112OSM   H16F11620   3.686   1.237   5.338
  112OSM   H16G11621   3.542   1.222   5.225
  112OSM   C17F11622   3.538   1.080   5.388
  112OSM   H17F11623   3.431   1.053   5.378
  112OSM   H17G11624   3.573   1.075   5.493
  112OSM   C18F11625   3.619   0.975   5.309
  112OSM   H18F11626   3.726   0.983   5.337
  112OSM   H18G11627   3.601   0.996   5.202
  112OSM   H18H11628   3.582   0.873   5.332
  113OSM      N11629   0.046   1.667   6.651
  113OSM    C1511630   6.781   1.598   6.618
  113OSM   H15A11631   6.795   1.546   6.525
  113OSM   H15B11632   6.696   1.662   6.598
  113OSM   H15C11633   6.752   1.529   6.695
  113OSM    C1411634   0.012   1.750   6.778
  113OSM   H14A11635   6.805   1.832   6.750
  113OSM   H14B11636   0.099   1.790   6.827
  113OSM   H14C11637   6.820   1.683   6.848
  113OSM    C1311638   0.144   1.566   6.696
  113OSM   H13A11639   0.106   1.488   6.759
  113OSM   H13B11640   0.225   1.614   6.749
  113OSM   H13C11641   0.182   1.512   6.611
  113OSM    C1211642   0.090   1.760   6.538
  113OSM   H12A11643   0.189   1.797   6.561
  113OSM   H12B11644   0.026   1.847   6.546
  113OSM    C1111645   0.092   1.701   6.396
  113OSM   H11A11646   0.127   1.766   6.312
  113OSM   H11B11647   6.842   1.687   6.368
  113OSM      P11648   0.302   1.539   6.380
  113OSM    O1311649   0.375   1.608   6.486
  113OSM    O1411650   0.310   1.393   6.373
  113OSM    O1111651   0.347   1.596   6.246
  113OSM    O1211652   0.151   1.573   6.390
  113OSM    C1S11653   0.273   1.571   6.120
  113OSM    H1S11654   0.173   1.525   6.137
  113OSM    H1T11655   0.335   1.505   6.055
  113OSM     NF11656   0.163   1.668   5.923
  113OSM    HNF11657   0.206   1.679   5.833
  113OSM    C2S11658   0.242   1.705   6.037
  113OSM    H2S11659   0.185   1.774   6.103
  113OSM    C3S11660   0.371   1.785   6.001
  113OSM    H3S11661   0.425   1.708   5.942
  113OSM     O311662   0.475   1.808   6.100
  113OSM    HO311663   0.459   1.745   6.171
  113OSM    C4S11664   0.347   1.900   5.910
  113OSM    H4S11665   0.348   1.875   5.803
  113OSM    C5S11666   0.344   2.030   5.942
  113OSM    H5S11667   0.384   2.063   6.038
  113OSM    C6S11668   0.322   2.148   5.845
  113OSM    H6S11669   0.403   2.224   5.851
  113OSM    H6T11670   0.227   2.203   5.866
  113OSM    C7S11671   0.289   2.104   5.705
  113OSM    H7S11672   0.205   2.031   5.702
  113OSM    H7T11673   0.379   2.055   5.663
  113OSM    C8S11674   0.260   2.222   5.615
  113OSM    H8S11675   0.349   2.289   5.610
  113OSM    H8T11676   0.182   2.288   5.659
  113OSM    C9S11677   0.230   2.183   5.474
  113OSM    H9S11678   0.126   2.145   5.474
  113OSM    H9T11679   0.303   2.108   5.439
  113OSM   C10S11680   0.236   2.308   5.394
  113OSM   H10S11681   0.338   2.352   5.402
  113OSM   H10T11682   0.162   2.373   5.446
  113OSM   C11S11683   0.209   2.300   5.244
  113OSM   H11S11684   0.218   2.400   5.196
  113OSM   H11T11685   0.115   2.254   5.209
  113OSM   C12S11686   0.314   2.208   5.172
  113OSM   H12S11687   0.279   2.107   5.201
  113OSM   H12T11688   0.416   2.225   5.214
  113OSM   C13S11689   0.298   2.205   5.019
  113OSM   H13S11690   0.192   2.178   4.998
  113OSM   H13T11691   0.365   2.127   4.978
  113OSM   C14S11692   0.344   2.344   4.961
  113OSM   H14S11693   0.455   2.346   4.951
  113OSM   H14T11694   0.318   2.432   5.024
  113OSM   C15S11695   0.259   2.390   4.838
  113OSM   H15S11696   0.285   2.498   4.827
  113OSM   H15T11697   0.150   2.397   4.858
  113OSM   C16S11698   0.269   2.320   4.706
  113OSM   H16S11699   0.237   2.388   4.624
  113OSM   H16T11700   0.207   2.229   4.719
  113OSM   C17S11701   0.413   2.271   4.668
  113OSM   H17S11702   0.454   2.215   4.755
  113OSM   H17T11703   0.465   2.369   4.664
  113OSM   C18S11704   0.421   2.190   4.548
  113OSM   H18S11705   0.520   2.202   4.499
  113OSM   H18T11706   0.340   2.221   4.479
  113OSM   H18U11707   0.409   2.082   4.573
  113OSM    C1F11708   0.040   1.612   5.922
  113OSM     OF11709   6.832   1.594   6.025
  113OSM    C2F11710   6.841   1.576   5.795
  113OSM    H2F11711   0.051   1.607   5.711
  113OSM    H2G11712   6.750   1.637   5.780
  113OSM    C3F11713   6.820   1.427   5.771
  113OSM    H3F11714   6.746   1.385   5.842
  113OSM    H3G11715   0.056   1.370   5.794
  113OSM    C4F11716   6.761   1.401   5.624
  113OSM    H4F11717   6.663   1.447   5.599
  113OSM    H4G11718   6.745   1.291   5.626
  113OSM    C5F11719   0.011   1.426   5.518
  113OSM    H5F11720   0.111   1.409   5.564
  113OSM    H5G11721   0.001   1.530   5.481
  113OSM    C6F11722   6.849   1.332   5.399
  113OSM    H6F11723   6.741   1.339   5.374
  113OSM    H6G11724   0.010   1.225   5.425
  113OSM    C7F11725   0.068   1.375   5.273
  113OSM    H7F11726   0.174   1.346   5.291
  113OSM    H7G11727   0.066   1.486   5.268
  113OSM    C8F11728   0.008   1.302   5.155
  113OSM    H8F11729   6.775   1.362   5.128
  113OSM    H8G11730   6.822   1.210   5.201
  113OSM    C9F11731   0.101   1.280   5.039
  113OSM    H9F11732   0.153   1.183   5.033
  113OSM   C10F11733   0.136   1.369   4.941
  113OSM   H10F11734   0.224   1.349   4.878
  113OSM   C11F11735   0.073   1.512   4.930
  113OSM   H11F11736   0.124   1.594   4.984
  113OSM   H11G11737   6.826   1.515   4.969
  113OSM   C12F11738   0.056   1.546   4.778
  113OSM   H12F11739   6.830   1.619   4.773
  113OSM   H12G11740   0.024   1.459   4.716
  113OSM   C13F11741   0.179   1.605   4.708
  113OSM   H13F11742   0.267   1.541   4.728
  113OSM   H13G11743   0.190   1.708   4.750
  113OSM   C14F11744   0.160   1.630   4.559
  113OSM   H14F11745   0.070   1.690   4.534
  113OSM   H14G11746   0.154   1.529   4.512
  113OSM   C15F11747   0.279   1.697   4.502
  113OSM   H15F11748   0.370   1.670   4.561
  113OSM   H15G11749   0.269   1.805   4.529
  113OSM   C16F11750   0.317   1.675   4.350
  113OSM   H16F11751   0.225   1.653   4.292
  113OSM   H16G11752   0.374   1.580   4.342
  113OSM   C17F11753   0.406   1.790   4.301
  113OSM   H17F11754   0.443   1.754   4.203
  113OSM   H17G11755   0.485   1.805   4.377
  113OSM   C18F11756   0.326   1.922   4.287
  113OSM   H18F11757   0.280   1.951   4.383
  113OSM   H18G11758   0.240   1.913   4.217
  113OSM   H18H11759   0.374   2.015   4.248
  114OSM      N11760   6.266   0.828   6.946
  114OSM    C1511761   6.336   0.918   7.040
  114OSM   H15A11762   6.306   0.897   7.141
  114OSM   H15B11763   6.320   1.022   7.018
  114OSM   H15C11764   6.441   0.894   7.039
  114OSM    C1411765   6.259   0.687   7.006
  114OSM   H14A11766   6.354   0.638   6.993
  114OSM   H14B11767   6.196   0.627   6.942
  114OSM   H14C11768   6.230   0.683   7.110
  114OSM    C1311769   6.131   0.880   6.923
  114OSM   H13A11770   6.066   0.845   7.002
  114OSM   H13B11771   6.089   0.835   6.833
  114OSM   H13C11772   6.115   0.986   6.926
  114OSM    C1211773   6.344   0.819   6.809
  114OSM   H12A11774   6.446   0.793   6.833
  114OSM   H12B11775   6.347   0.921   6.773
  114OSM    C1111776   6.297   0.729   6.698
  114OSM   H11A11777   6.317   0.622   6.720
  114OSM   H11B11778   6.377   0.746   6.624
  114OSM      P11779   6.130   0.864   6.542
  114OSM    O1311780   5.988   0.838   6.499
  114OSM    O1411781   6.155   0.999   6.598
  114OSM    O1111782   6.231   0.833   6.423
  114OSM    O1211783   6.164   0.754   6.645
  114OSM    C1S11784   6.243   0.702   6.368
  114OSM    H1S11785   6.196   0.630   6.438
  114OSM    H1T11786   6.354   0.691   6.374
  114OSM     NF11787   6.189   0.552   6.206
  114OSM    HNF11788   6.282   0.520   6.190
  114OSM    C2S11789   6.190   0.694   6.225
  114OSM    H2S11790   6.086   0.733   6.225
  114OSM    C3S11791   6.288   0.769   6.129
  114OSM    H3S11792   6.374   0.698   6.128
  114OSM     O311793   6.330   0.895   6.179
  114OSM    HO311794   6.305   0.900   6.271
  114OSM    C4S11795   6.230   0.786   5.984
  114OSM    H4S11796   6.143   0.853   5.980
  114OSM    C5S11797   6.286   0.729   5.880
  114OSM    H5S11798   6.381   0.675   5.889
  114OSM    C6S11799   6.250   0.750   5.734
  114OSM    H6S11800   6.270   0.857   5.714
  114OSM    H6T11801   6.141   0.729   5.731
  114OSM    C7S11802   6.332   0.662   5.634
  114OSM    H7S11803   6.319   0.556   5.664
  114OSM    H7T11804   6.439   0.692   5.645
  114OSM    C8S11805   6.287   0.690   5.494
  114OSM    H8S11806   6.300   0.796   5.463
  114OSM    H8T11807   6.176   0.682   5.493
  114OSM    C9S11808   6.336   0.592   5.390
  114OSM    H9S11809   6.320   0.494   5.439
  114OSM    H9T11810   6.446   0.609   5.383
  114OSM   C10S11811   6.261   0.599   5.262
  114OSM   H10S11812   6.280   0.686   5.195
  114OSM   H10T11813   6.152   0.600   5.284
  114OSM   C11S11814   6.272   0.468   5.193
  114OSM   H11S11815   6.199   0.458   5.109
  114OSM   H11T11816   6.248   0.391   5.269
  114OSM   C12S11817   6.409   0.450   5.136
  114OSM   H12S11818   6.409   0.354   5.079
  114OSM   H12T11819   6.481   0.433   5.218
  114OSM   C13S11820   6.455   0.561   5.054
  114OSM   H13S11821   6.559   0.551   5.018
  114OSM   H13T11822   6.468   0.652   5.116
  114OSM   C14S11823   6.379   0.577   4.922
  114OSM   H14S11824   6.405   0.665   4.860
  114OSM   H14T11825   6.270   0.582   4.945
  114OSM   C15S11826   6.407   0.451   4.833
  114OSM   H15S11827   6.372   0.357   4.881
  114OSM   H15T11828   6.518   0.443   4.832
  114OSM   C16S11829   6.362   0.464   4.697
  114OSM   H16S11830   6.414   0.553   4.656
  114OSM   H16T11831   6.256   0.498   4.692
  114OSM   C17S11832   6.392   0.343   4.611
  114OSM   H17S11833   6.339   0.258   4.660
  114OSM   H17T11834   6.502   0.337   4.621
  114OSM   C18S11835   6.339   0.369   4.472
  114OSM   H18S11836   6.381   0.466   4.437
  114OSM   H18T11837   6.230   0.349   4.464
  114OSM   H18U11838   6.381   0.289   4.406
  114OSM    C1F11839   6.101   0.464   6.242
  114OSM     OF11840   6.005   0.486   6.310
  114OSM    C2F11841   6.123   0.329   6.199
  114OSM    H2F11842   6.138   0.260   6.285
  114OSM    H2G11843   6.211   0.313   6.134
  114OSM    C3F11844   6.016   0.251   6.118
  114OSM    H3F11845   5.924   0.246   6.180
  114OSM    H3G11846   6.043   0.143   6.119
  114OSM    C4F11847   5.972   0.301   5.982
  114OSM    H4F11848   5.913   0.395   5.989
  114OSM    H4G11849   5.916   0.218   5.935
  114OSM    C5F11850   6.088   0.342   5.888
  114OSM    H5F11851   6.174   0.275   5.912
  114OSM    H5G11852   6.132   0.444   5.903
  114OSM    C6F11853   6.061   0.319   5.745
  114OSM    H6F11854   6.012   0.220   5.732
  114OSM    H6G11855   6.156   0.321   5.686
  114OSM    C7F11856   5.956   0.421   5.699
  114OSM    H7F11857   5.984   0.522   5.736
  114OSM    H7G11858   5.856   0.408   5.747
  114OSM    C8F11859   5.953   0.431   5.546
  114OSM    H8F11860   5.933   0.338   5.489
  114OSM    H8G11861   6.057   0.461   5.518
  114OSM    C9F11862   5.860   0.537   5.502
  114OSM    H9F11863   5.898   0.640   5.509
  114OSM   C10F11864   5.733   0.526   5.471
  114OSM   H10F11865   5.680   0.619   5.446
  114OSM   C11F11866   5.660   0.397   5.468
  114OSM   H11F11867   5.552   0.418   5.485
  114OSM   H11G11868   5.692   0.323   5.545
  114OSM   C12F11869   5.662   0.328   5.328
  114OSM   H12F11870   5.767   0.300   5.306
  114OSM   H12G11871   5.615   0.399   5.256
  114OSM   C13F11872   5.567   0.203   5.333
  114OSM   H13F11873   5.462   0.229   5.361
  114OSM   H13G11874   5.603   0.138   5.416
  114OSM   C14F11875   5.554   0.137   5.197
  114OSM   H14F11876   5.478   0.057   5.214
  114OSM   H14G11877   5.644   0.085   5.158
  114OSM   C15F11878   5.492   0.222   5.086
  114OSM   H15F11879   5.568   0.297   5.055
  114OSM   H15G11880   5.405   0.279   5.122
  114OSM   C16F11881   5.456   0.134   4.972
  114OSM   H16F11882   5.373   0.065   4.997
  114OSM   H16G11883   5.546   0.077   4.939
  114OSM   C17F11884   5.402   0.213   4.848
  114OSM   H17F11885   5.377   0.319   4.868
  114OSM   H17G11886   5.308   0.168   4.809
  114OSM   C18F11887   5.503   0.205   4.735
  114OSM   H18F11888   5.537   0.103   4.707
  114OSM   H18G11889   5.594   0.263   4.763
  114OSM   H18H11890   5.472   0.255   4.641
  115OSM      N11891   5.926   2.760   6.541
  115OSM    C1511892   5.992   2.635   6.495
  115OSM   H15A11893   5.937   2.568   6.430
  115OSM   H15B11894   6.006   2.564   6.575
  115OSM   H15C11895   6.091   2.645   6.454
  115OSM    C1411896   5.796   2.745   6.613
  115OSM   H14A11897   5.731   2.695   6.543
  115OSM   H14B11898   5.760   2.845   6.633
  115OSM   H14C11899   5.802   2.691   6.706
  115OSM    C1311900   6.006   2.819   6.655
  115OSM   H13A11901   5.973   2.919   6.679
  115OSM   H13B11902   6.107   2.835   6.621
  115OSM   H13C11903   6.006   2.752   6.740
  115OSM    C1211904   5.919   2.859   6.429
  115OSM   H12A11905   5.872   2.808   6.346
  115OSM   H12B11906   6.019   2.882   6.395
  115OSM    C1111907   5.850   2.996   6.447
  115OSM   H11A11908   5.740   2.980   6.452
  115OSM   H11B11909   5.861   3.051   6.351
  115OSM      P11910   6.008   3.174   6.547
  115OSM    O1311911   5.985   3.305   6.614
  115OSM    O1411912   6.135   3.097   6.594
  115OSM    O1111913   6.017   3.201   6.399
  115OSM    O1211914   5.897   3.070   6.559
  115OSM    C1S11915   6.139   3.197   6.326
  115OSM    H1S11916   6.178   3.096   6.303
  115OSM    H1T11917   6.223   3.258   6.366
  115OSM     NF11918   6.207   3.218   6.087
  115OSM    HNF11919   6.289   3.269   6.065
  115OSM    C2S11920   6.114   3.264   6.189
  115OSM    H2S11921   6.017   3.221   6.157
  115OSM    C3S11922   6.107   3.414   6.198
  115OSM    H3S11923   6.210   3.456   6.205
  115OSM     O311924   6.053   3.459   6.324
  115OSM    HO311925   6.026   3.373   6.357
  115OSM    C4S11926   6.045   3.467   6.072
  115OSM    H4S11927   6.127   3.491   6.003
  115OSM    C5S11928   5.917   3.489   6.045
  115OSM    H5S11929   5.845   3.470   6.126
  115OSM    C6S11930   5.864   3.544   5.918
  115OSM    H6S11931   5.808   3.638   5.938
  115OSM    H6T11932   5.797   3.469   5.871
  115OSM    C7S11933   5.968   3.590   5.816
  115OSM    H7S11934   6.042   3.509   5.799
  115OSM    H7T11935   6.019   3.681   5.855
  115OSM    C8S11936   5.898   3.613   5.682
  115OSM    H8S11937   5.819   3.687   5.707
  115OSM    H8T11938   5.855   3.518   5.643
  115OSM    C9S11939   5.992   3.660   5.571
  115OSM    H9S11940   6.074   3.587   5.550
  115OSM    H9T11941   6.048   3.749   5.607
  115OSM   C10S11942   5.925   3.706   5.440
  115OSM   H10S11943   5.894   3.811   5.460
  115OSM   H10T11944   5.843   3.638   5.408
  115OSM   C11S11945   6.032   3.701   5.320
  115OSM   H11S11946   6.083   3.603   5.306
  115OSM   H11T11947   6.110   3.775   5.347
  115OSM   C12S11948   5.976   3.731   5.180
  115OSM   H12S11949   5.946   3.837   5.169
  115OSM   H12T11950   5.883   3.669   5.176
  115OSM   C13S11951   6.075   3.706   5.073
  115OSM   H13S11952   6.113   3.601   5.072
  115OSM   H13T11953   6.164   3.762   5.110
  115OSM   C14S11954   6.029   3.761   4.938
  115OSM   H14S11955   6.002   3.868   4.950
  115OSM   H14T11956   5.938   3.713   4.895
  115OSM   C15S11957   6.131   3.752   4.825
  115OSM   H15S11958   6.175   3.652   4.809
  115OSM   H15T11959   6.217   3.817   4.853
  115OSM   C16S11960   6.065   3.797   4.693
  115OSM   H16S11961   5.968   3.743   4.695
  115OSM   H16T11962   6.122   3.763   4.603
  115OSM   C17S11963   6.049   3.954   4.668
  115OSM   H17S11964   6.146   4.005   4.651
  115OSM   H17T11965   6.003   3.993   4.762
  115OSM   C18S11966   5.961   3.984   4.549
  115OSM   H18S11967   5.877   3.912   4.551
  115OSM   H18T11968   6.021   3.969   4.457
  115OSM   H18U11969   5.916   4.086   4.538
  115OSM    C1F11970   6.212   3.086   6.050
  115OSM     OF11971   6.131   3.005   6.094
  115OSM    C2F11972   6.330   3.033   5.961
  115OSM    H2F11973   6.391   2.969   6.027
  115OSM    H2G11974   6.384   3.124   5.926
  115OSM    C3F11975   6.289   2.961   5.835
  115OSM    H3F11976   6.219   3.025   5.777
  115OSM    H3G11977   6.251   2.857   5.849
  115OSM    C4F11978   6.408   2.954   5.740
  115OSM    H4F11979   6.498   2.914   5.792
  115OSM    H4G11980   6.430   3.054   5.696
  115OSM    C5F11981   6.372   2.874   5.618
  115OSM    H5F11982   6.280   2.923   5.577
  115OSM    H5G11983   6.350   2.771   5.653
  115OSM    C6F11984   6.481   2.872   5.514
  115OSM    H6F11985   6.562   2.807   5.553
  115OSM    H6G11986   6.522   2.975   5.508
  115OSM    C7F11987   6.437   2.817   5.380
  115OSM    H7F11988   6.355   2.874   5.332
  115OSM    H7G11989   6.397   2.715   5.400
  115OSM    C8F11990   6.553   2.795   5.275
  115OSM    H8F11991   6.515   2.736   5.188
  115OSM    H8G11992   6.644   2.744   5.312
  115OSM    C9F11993   6.600   2.928   5.226
  115OSM    H9F11994   6.606   3.001   5.308
  115OSM   C10F11995   6.637   2.971   5.101
  115OSM   H10F11996   6.668   3.074   5.081
  115OSM   C11F11997   6.639   2.880   4.976
  115OSM   H11F11998   6.552   2.811   4.970
  115OSM   H11G11999   6.726   2.811   4.979
  115OSM   C12F12000   6.670   2.951   4.847
  115OSM   H12F12001   6.687   2.885   4.759
  115OSM   H12G12002   6.765   3.007   4.862
  115OSM   C13F12003   6.561   3.045   4.804
  115OSM   H13F12004   6.607   3.128   4.748
  115OSM   H13G12005   6.519   3.098   4.892
  115OSM   C14F12006   6.448   2.987   4.711
  115OSM   H14F12007   6.394   2.901   4.757
  115OSM   H14G12008   6.504   2.940   4.627
  115OSM   C15F12009   6.341   3.085   4.656
  115OSM   H15F12010   6.279   3.111   4.744
  115OSM   H15G12011   6.272   3.032   4.587
  115OSM   C16F12012   6.397   3.201   4.583
  115OSM   H16F12013   6.465   3.171   4.501
  115OSM   H16G12014   6.467   3.252   4.652
  115OSM   C17F12015   6.290   3.316   4.550
  115OSM   H17F12016   6.237   3.316   4.648
  115OSM   H17G12017   6.213   3.281   4.477
  115OSM   C18F12018   6.348   3.449   4.513
  115OSM   H18F12019   6.409   3.456   4.420
  115OSM   H18G12020   6.420   3.480   4.593
  115OSM   H18H12021   6.271   3.528   4.507
  116OSM      N12022   0.954   2.137   6.643
  116OSM    C1512023   1.007   2.159   6.507
  116OSM   H15A12024   0.943   2.222   6.447
  116OSM   H15B12025   1.021   2.067   6.451
  116OSM   H15C12026   1.106   2.204   6.504
  116OSM    C1412027   0.923   2.269   6.706
  116OSM   H14A12028   1.010   2.332   6.701
  116OSM   H14B12029   0.880   2.257   6.804
  116OSM   H14C12030   0.846   2.315   6.646
  116OSM    C1312031   0.829   2.059   6.645
  116OSM   H13A12032   0.791   2.065   6.746
  116OSM   H13B12033   0.850   1.960   6.607
  116OSM   H13C12034   0.754   2.090   6.574
  116OSM    C1212035   1.058   2.055   6.723
  116OSM   H12A12036   1.005   2.013   6.807
  116OSM   H12B12037   1.135   2.120   6.761
  116OSM    C1112038   1.130   1.945   6.646
  116OSM   H11A12039   1.180   1.884   6.723
  116OSM   H11B12040   1.207   1.978   6.573
  116OSM      P12041   0.999   1.727   6.602
  116OSM    O1312042   1.104   1.627   6.609
  116OSM    O1412043   0.913   1.734   6.721
  116OSM    O1112044   0.909   1.686   6.480
  116OSM    O1212045   1.045   1.870   6.563
  116OSM    C1S12046   0.809   1.777   6.421
  116OSM    H1S12047   0.829   1.883   6.447
  116OSM    H1T12048   0.708   1.742   6.452
  116OSM     NF12049   0.744   1.874   6.207
  116OSM    HNF12050   0.660   1.844   6.162
  116OSM    C2S12051   0.835   1.774   6.262
  116OSM    H2S12052   0.941   1.802   6.244
  116OSM    C3S12053   0.820   1.627   6.210
  116OSM    H3S12054   0.715   1.594   6.223
  116OSM     O312055   0.899   1.529   6.279
  116OSM    HO312056   0.920   1.567   6.365
  116OSM    C4S12057   0.843   1.615   6.060
  116OSM    H4S12058   0.944   1.617   6.016
  116OSM    C5S12059   0.749   1.611   5.962
  116OSM    H5S12060   0.640   1.604   5.979
  116OSM    C6S12061   0.775   1.597   5.816
  116OSM    H6S12062   0.879   1.617   5.784
  116OSM    H6T12063   0.722   1.676   5.759
  116OSM    C7S12064   0.729   1.458   5.751
  116OSM    H7S12065   0.623   1.444   5.781
  116OSM    H7T12066   0.783   1.375   5.801
  116OSM    C8S12067   0.768   1.449   5.606
  116OSM    H8S12068   0.879   1.452   5.608
  116OSM    H8T12069   0.731   1.529   5.538
  116OSM    C9S12070   0.738   1.307   5.549
  116OSM    H9S12071   0.632   1.276   5.559
  116OSM    H9T12072   0.789   1.248   5.628
  116OSM   C10S12073   0.799   1.262   5.415
  116OSM   H10S12074   0.748   1.164   5.399
  116OSM   H10T12075   0.907   1.243   5.429
  116OSM   C11S12076   0.762   1.353   5.295
  116OSM   H11S12077   0.785   1.461   5.312
  116OSM   H11T12078   0.651   1.345   5.293
  116OSM   C12S12079   0.814   1.299   5.157
  116OSM   H12S12080   0.791   1.191   5.144
  116OSM   H12T12081   0.924   1.313   5.158
  116OSM   C13S12082   0.751   1.362   5.031
  116OSM   H13S12083   0.776   1.470   5.034
  116OSM   H13T12084   0.640   1.357   5.028
  116OSM   C14S12085   0.811   1.285   4.909
  116OSM   H14S12086   0.806   1.176   4.930
  116OSM   H14T12087   0.921   1.304   4.905
  116OSM   C15S12088   0.736   1.321   4.774
  116OSM   H15S12089   0.779   1.253   4.697
  116OSM   H15T12090   0.745   1.424   4.735
  116OSM   C16S12091   0.587   1.310   4.769
  116OSM   H16S12092   0.539   1.397   4.819
  116OSM   H16T12093   0.549   1.222   4.825
  116OSM   C17S12094   0.530   1.295   4.630
  116OSM   H17S12095   0.600   1.223   4.583
  116OSM   H17T12096   0.553   1.381   4.565
  116OSM   C18S12097   0.393   1.235   4.605
  116OSM   H18S12098   0.386   1.185   4.506
  116OSM   H18T12099   0.318   1.316   4.610
  116OSM   H18U12100   0.355   1.173   4.689
  116OSM    C1F12101   0.774   2.001   6.217
  116OSM     OF12102   0.880   2.032   6.272
  116OSM    C2F12103   0.680   2.093   6.166
  116OSM    H2F12104   0.612   2.125   6.248
  116OSM    H2G12105   0.623   2.037   6.089
  116OSM    C3F12106   0.722   2.225   6.100
  116OSM    H3F12107   0.763   2.293   6.177
  116OSM    H3G12108   0.619   2.262   6.080
  116OSM    C4F12109   0.808   2.225   5.974
  116OSM    H4F12110   0.890   2.151   5.986
  116OSM    H4G12111   0.849   2.327   5.959
  116OSM    C5F12112   0.727   2.179   5.845
  116OSM    H5F12113   0.642   2.250   5.839
  116OSM    H5G12114   0.684   2.078   5.862
  116OSM    C6F12115   0.806   2.187   5.717
  116OSM    H6F12116   0.730   2.185   5.636
  116OSM    H6G12117   0.873   2.098   5.717
  116OSM    C7F12118   0.886   2.315   5.716
  116OSM    H7F12119   0.968   2.306   5.791
  116OSM    H7G12120   0.825   2.401   5.748
  116OSM    C8F12121   0.954   2.355   5.581
  116OSM    H8F12122   0.986   2.461   5.589
  116OSM    H8G12123   0.878   2.346   5.500
  116OSM    C9F12124   1.065   2.268   5.548
  116OSM    H9F12125   1.125   2.251   5.639
  116OSM   C10F12126   1.102   2.216   5.433
  116OSM   H10F12127   1.183   2.142   5.442
  116OSM   C11F12128   1.043   2.233   5.291
  116OSM   H11F12129   0.984   2.326   5.285
  116OSM   H11G12130   0.975   2.148   5.269
  116OSM   C12F12131   1.150   2.253   5.187
  116OSM   H12F12132   1.236   2.184   5.198
  116OSM   H12G12133   1.188   2.358   5.195
  116OSM   C13F12134   1.094   2.233   5.045
  116OSM   H13F12135   0.996   2.285   5.051
  116OSM   H13G12136   1.061   2.127   5.034
  116OSM   C14F12137   1.181   2.262   4.925
  116OSM   H14F12138   1.259   2.188   4.899
  116OSM   H14G12139   1.226   2.363   4.937
  116OSM   C15F12140   1.107   2.251   4.791
  116OSM   H15F12141   1.006   2.295   4.791
  116OSM   H15G12142   1.091   2.148   4.753
  116OSM   C16F12143   1.193   2.322   4.688
  116OSM   H16F12144   1.293   2.274   4.690
  116OSM   H16G12145   1.217   2.422   4.732
  116OSM   C17F12146   1.140   2.341   4.547
  116OSM   H17F12147   1.033   2.370   4.563
  116OSM   H17G12148   1.152   2.238   4.506
  116OSM   C18F12149   1.215   2.440   4.468
  116OSM   H18F12150   1.195   2.436   4.359
  116OSM   H18G12151   1.323   2.418   4.479
  116OSM   H18H12152   1.190   2.545   4.496
  117OSM      N12153   6.745   4.363   6.586
  117OSM    C1512154   6.703   4.496   6.642
  117OSM   H15A12155   6.675   4.475   6.744
  117OSM   H15B12156   6.617   4.536   6.590
  117OSM   H15C12157   6.773   4.577   6.655
  117OSM    C1412158   6.622   4.274   6.588
  117OSM   H14A12159   6.526   4.320   6.565
  117OSM   H14B12160   6.605   4.245   6.690
  117OSM   H14C12161   6.641   4.183   6.533
  117OSM    C1312162   6.792   4.374   6.442
  117OSM   H13A12163   0.029   4.428   6.438
  117OSM   H13B12164   6.726   4.438   6.385
  117OSM   H13C12165   6.819   4.279   6.397
  117OSM    C1212166   6.854   4.300   6.669
  117OSM   H12A12167   0.023   4.205   6.625
  117OSM   H12B12168   6.814   4.278   6.767
  117OSM    C1112169   0.133   4.373   6.682
  117OSM   H11A12170   0.180   4.385   6.582
  117OSM   H11B12171   0.197   4.312   6.749
  117OSM      P12172   0.191   4.630   6.676
  117OSM    O1312173   0.111   4.743   6.724
  117OSM    O1412174   0.337   4.627   6.698
  117OSM    O1112175   0.157   4.605   6.523
  117OSM    O1212176   0.130   4.500   6.749
  117OSM    C1S12177   0.229   4.686   6.432
  117OSM    H1S12178   0.336   4.654   6.429
  117OSM    H1T12179   0.240   4.791   6.469
  117OSM     NF12180   0.278   4.738   6.186
  117OSM    HNF12181   0.260   4.823   6.136
  117OSM    C2S12182   0.179   4.678   6.282
  117OSM    H2S12183   0.181   4.568   6.264
  117OSM    C3S12184   0.035   4.729   6.269
  117OSM    H3S12185   0.047   4.838   6.291
  117OSM     O312186   6.805   4.682   6.373
  117OSM    HO312187   0.006   4.629   6.428
  117OSM    C4S12188   6.831   4.719   6.138
  117OSM    H4S12189   6.854   4.810   6.080
  117OSM    C5S12190   6.749   4.620   6.092
  117OSM    H5S12191   6.736   4.534   6.159
  117OSM    C6S12192   6.664   4.628   5.964
  117OSM    H6S12193   6.633   4.734   5.949
  117OSM    H6T12194   6.567   4.574   5.967
  117OSM    C7S12195   6.750   4.590   5.835
  117OSM    H7S12196   6.803   4.492   5.829
  117OSM    H7T12197   6.836   4.660   5.830
  117OSM    C8S12198   6.674   4.597   5.701
  117OSM    H8S12199   6.622   4.695   5.695
  117OSM    H8T12200   6.595   4.524   5.727
  117OSM    C9S12201   6.760   4.580   5.575
  117OSM    H9S12202   6.806   4.480   5.563
  117OSM    H9T12203   6.844   4.654   5.572
  117OSM   C10S12204   6.678   4.602   5.450
  117OSM   H10S12205   6.631   4.702   5.459
  117OSM   H10T12206   6.598   4.526   5.438
  117OSM   C11S12207   6.762   4.590   5.319
  117OSM   H11S12208   6.787   4.482   5.314
  117OSM   H11T12209   6.850   4.656   5.331
  117OSM   C12S12210   6.681   4.605   5.191
  117OSM   H12S12211   6.660   4.713   5.177
  117OSM   H12T12212   6.586   4.550   5.207
  117OSM   C13S12213   6.738   4.551   5.058
  117OSM   H13S12214   6.738   4.442   5.037
  117OSM   H13T12215   6.847   4.571   5.059
  117OSM   C14S12216   6.668   4.609   4.928
  117OSM   H14S12217   6.649   4.719   4.931
  117OSM   H14T12218   6.563   4.577   4.943
  117OSM   C15S12219   6.731   4.541   4.802
  117OSM   H15S12220   6.729   4.430   4.811
  117OSM   H15T12221   6.838   4.567   4.789
  117OSM   C16S12222   6.635   4.554   4.680
  117OSM   H16S12223   6.601   4.660   4.677
  117OSM   H16T12224   6.542   4.495   4.695
  117OSM   C17S12225   6.711   4.541   4.544
  117OSM   H17S12226   6.769   4.447   4.533
  117OSM   H17T12227   6.796   4.612   4.548
  117OSM   C18S12228   6.624   4.566   4.414
  117OSM   H18S12229   6.567   4.659   4.437
  117OSM   H18T12230   6.554   4.481   4.397
  117OSM   H18U12231   6.694   4.574   4.328
  117OSM    C1F12232   0.399   4.692   6.165
  117OSM     OF12233   0.432   4.580   6.206
  117OSM    C2F12234   0.499   4.787   6.101
  117OSM    H2F12235   0.548   4.836   6.188
  117OSM    H2G12236   0.443   4.860   6.039
  117OSM    C3F12237   0.606   4.725   6.019
  117OSM    H3F12238   0.550   4.677   5.936
  117OSM    H3G12239   0.673   4.653   6.070
  117OSM    C4F12240   0.696   4.826   5.951
  117OSM    H4F12241   0.766   4.861   6.029
  117OSM    H4G12242   0.638   4.916   5.921
  117OSM    C5F12243   0.788   4.772   5.844
  117OSM    H5F12244   0.721   4.727   5.767
  117OSM    H5G12245   0.865   4.700   5.879
  117OSM    C6F12246   0.854   4.891   5.765
  117OSM    H6F12247   0.771   4.964   5.756
  117OSM    H6G12248   0.886   4.864   5.662
  117OSM    C7F12249   0.968   4.965   5.839
  117OSM    H7F12250   1.039   4.889   5.879
  117OSM    H7G12251   0.909   5.004   5.925
  117OSM    C8F12252   1.042   5.087   5.782
  117OSM    H8F12253   1.093   5.149   5.860
  117OSM    H8G12254   0.962   5.150   5.737
  117OSM    C9F12255   1.134   5.036   5.676
  117OSM    H9F12256   1.217   4.974   5.714
  117OSM   C10F12257   1.128   5.068   5.544
  117OSM   H10F12258   1.197   5.019   5.473
  117OSM   C11F12259   1.036   5.160   5.476
  117OSM   H11F12260   1.086   5.235   5.410
  117OSM   H11G12261   0.984   5.226   5.549
  117OSM   C12F12262   0.937   5.069   5.399
  117OSM   H12F12263   0.863   5.025   5.469
  117OSM   H12G12264   0.991   4.982   5.354
  117OSM   C13F12265   0.874   5.144   5.285
  117OSM   H13F12266   0.900   5.251   5.300
  117OSM   H13G12267   0.763   5.145   5.293
  117OSM   C14F12268   0.926   5.090   5.159
  117OSM   H14F12269   0.869   5.135   5.076
  117OSM   H14G12270   0.909   4.980   5.156
  117OSM   C15F12271   1.072   5.120   5.117
  117OSM   H15F12272   1.143   5.071   5.188
  117OSM   H15G12273   1.084   5.230   5.117
  117OSM   C16F12274   1.110   5.065   4.976
  117OSM   H16F12275   1.072   4.961   4.972
  117OSM   H16G12276   1.219   5.067   4.956
  117OSM   C17F12277   1.045   5.140   4.854
  117OSM   H17F12278   1.029   5.245   4.886
  117OSM   H17G12279   0.946   5.092   4.836
  117OSM   C18F12280   1.126   5.117   4.732
  117OSM   H18F12281   1.131   5.009   4.706
  117OSM   H18G12282   1.228   5.152   4.759
  117OSM   H18H12283   1.093   5.178   4.646
  118OSM      N12284   6.520   3.320   6.561
  118OSM    C1512285   6.400   3.261   6.636
  118OSM   H15A12286   6.337   3.201   6.573
  118OSM   H15B12287   6.336   3.337   6.678
  118OSM   H15C12288   6.430   3.191   6.713
  118OSM    C1412289   6.471   3.415   6.453
  118OSM   H14A12290   6.563   3.461   6.421
  118OSM   H14B12291   6.404   3.496   6.476
  118OSM   H14C12292   6.431   3.359   6.370
  118OSM    C1312293   6.604   3.410   6.653
  118OSM   H13A12294   6.629   3.358   6.745
  118OSM   H13B12295   6.544   3.491   6.691
  118OSM   H13C12296   6.696   3.448   6.612
  118OSM    C1212297   6.613   3.215   6.507
  118OSM   H12A12298   6.651   3.154   6.588
  118OSM   H12B12299   6.699   3.268   6.469
  118OSM    C1112300   6.548   3.115   6.411
  118OSM   H11A12301   6.466   3.059   6.461
  118OSM   H11B12302   6.614   3.036   6.371
  118OSM      P12303   6.575   3.231   6.175
  118OSM    O1312304   6.643   3.118   6.107
  118OSM    O1412305   6.495   3.328   6.097
  118OSM    O1112306   6.691   3.314   6.243
  118OSM    O1212307   6.493   3.177   6.289
  118OSM    C1S12308   6.810   3.352   6.171
  118OSM    H1S12309   6.833   3.274   6.096
  118OSM    H1T12310   0.037   3.382   6.238
  118OSM     NF12311   0.056   3.492   5.998
  118OSM    HNF12312   0.116   3.571   6.011
  118OSM    C2S12313   6.795   3.482   6.086
  118OSM    H2S12314   6.706   3.472   6.021
  118OSM    C3S12315   6.763   3.606   6.184
  118OSM    H3S12316   6.852   3.628   6.246
  118OSM     O312317   6.641   3.586   6.258
  118OSM    HO312318   6.622   3.492   6.256
  118OSM    C4S12319   6.737   3.726   6.092
  118OSM    H4S12320   6.648   3.715   6.029
  118OSM    C5S12321   6.829   3.824   6.075
  118OSM    H5S12322   0.062   3.814   6.137
  118OSM    C6S12323   6.826   3.934   5.977
  118OSM    H6S12324   6.819   4.032   6.029
  118OSM    H6T12325   6.731   3.933   5.920
  118OSM    C7S12326   0.093   3.935   5.883
  118OSM    H7S12327   0.185   3.927   5.945
  118OSM    H7T12328   0.115   4.033   5.836
  118OSM    C8S12329   0.086   3.837   5.772
  118OSM    H8S12330   6.841   3.831   5.727
  118OSM    H8T12331   0.097   3.733   5.809
  118OSM    C9S12332   0.173   3.873   5.655
  118OSM    H9S12333   0.268   3.827   5.687
  118OSM    H9T12334   0.197   3.981   5.650
  118OSM   C10S12335   0.126   3.821   5.521
  118OSM   H10S12336   0.021   3.856   5.514
  118OSM   H10T12337   0.118   3.711   5.532
  118OSM   C11S12338   0.215   3.864   5.407
  118OSM   H11S12339   0.320   3.828   5.416
  118OSM   H11T12340   0.215   3.975   5.396
  118OSM   C12S12341   0.168   3.796   5.273
  118OSM   H12S12342   0.059   3.813   5.258
  118OSM   H12T12343   0.184   3.687   5.286
  118OSM   C13S12344   0.235   3.846   5.145
  118OSM   H13S12345   0.342   3.816   5.151
  118OSM   H13T12346   0.223   3.956   5.136
  118OSM   C14S12347   0.175   3.797   5.013
  118OSM   H14S12348   0.065   3.814   5.014
  118OSM   H14T12349   0.197   3.689   4.999
  118OSM   C15S12350   0.236   3.868   4.890
  118OSM   H15S12351   0.345   3.845   4.886
  118OSM   H15T12352   0.230   3.979   4.901
  118OSM   C16S12353   0.166   3.828   4.760
  118OSM   H16S12354   0.058   3.854   4.770
  118OSM   H16T12355   0.169   3.720   4.737
  118OSM   C17S12356   0.219   3.910   4.639
  118OSM   H17S12357   0.327   3.884   4.634
  118OSM   H17T12358   0.203   4.020   4.644
  118OSM   C18S12359   0.138   3.857   4.520
  118OSM   H18S12360   0.186   3.902   4.430
  118OSM   H18T12361   0.030   3.880   4.526
  118OSM   H18U12362   0.155   3.747   4.528
  118OSM    C1F12363   0.076   3.410   5.894
  118OSM     OF12364   6.852   3.324   5.860
  118OSM    C2F12365   0.200   3.422   5.818
  118OSM    H2F12366   0.267   3.339   5.851
  118OSM    H2G12367   0.249   3.517   5.845
  118OSM    C3F12368   0.176   3.434   5.666
  118OSM    H3F12369   0.095   3.508   5.646
  118OSM    H3G12370   0.132   3.343   5.620
  118OSM    C4F12371   0.300   3.463   5.589
  118OSM    H4F12372   0.372   3.382   5.615
  118OSM    H4G12373   0.347   3.563   5.600
  118OSM    C5F12374   0.280   3.446   5.434
  118OSM    H5F12375   0.195   3.515   5.417
  118OSM    H5G12376   0.257   3.340   5.407
  118OSM    C6F12377   0.401   3.480   5.358
  118OSM    H6F12378   0.479   3.405   5.381
  118OSM    H6G12379   0.438   3.584   5.375
  118OSM    C7F12380   0.372   3.453   5.207
  118OSM    H7F12381   0.322   3.541   5.162
  118OSM    H7G12382   0.295   3.372   5.208
  118OSM    C8F12383   0.486   3.404   5.116
  118OSM    H8F12384   0.429   3.365   5.029
  118OSM    H8G12385   0.555   3.328   5.158
  118OSM    C9F12386   0.576   3.518   5.071
  118OSM    H9F12387   0.635   3.549   5.158
  118OSM   C10F12388   0.591   3.580   4.953
  118OSM   H10F12389   0.667   3.658   4.933
  118OSM   C11F12390   0.497   3.548   4.831
  118OSM   H11F12391   0.412   3.620   4.831
  118OSM   H11G12392   0.459   3.444   4.837
  118OSM   C12F12393   0.567   3.567   4.696
  118OSM   H12F12394   0.499   3.547   4.611
  118OSM   H12G12395   0.644   3.487   4.700
  118OSM   C13F12396   0.625   3.709   4.681
  118OSM   H13F12397   0.722   3.724   4.732
  118OSM   H13G12398   0.553   3.780   4.728
  118OSM   C14F12399   0.661   3.742   4.534
  118OSM   H14F12400   0.705   3.844   4.541
  118OSM   H14G12401   0.574   3.739   4.465
  118OSM   C15F12402   0.770   3.650   4.479
  118OSM   H15F12403   0.746   3.542   4.488
  118OSM   H15G12404   0.857   3.644   4.548
  118OSM   C16F12405   0.803   3.693   4.339
  118OSM   H16F12406   0.801   3.804   4.331
  118OSM   H16G12407   0.722   3.662   4.271
  118OSM   C17F12408   0.939   3.652   4.287
  118OSM   H17F12409   0.964   3.544   4.294
  118OSM   H17G12410   1.013   3.700   4.355
  118OSM   C18F12411   0.948   3.699   4.144
  118OSM   H18F12412   0.847   3.676   4.104
  118OSM   H18G12413   1.027   3.639   4.094
  118OSM   H18H12414   0.975   3.806   4.133
  119OSM      N12415   2.536   0.500   6.615
  119OSM    C1512416   2.681   0.449   6.616
  119OSM   H15A12417   2.713   0.438   6.718
  119OSM   H15B12418   2.740   0.517   6.557
  119OSM   H15C12419   2.689   0.353   6.565
  119OSM    C1412420   2.493   0.503   6.471
  119OSM   H14A12421   2.395   0.541   6.446
  119OSM   H14B12422   2.485   0.403   6.429
  119OSM   H14C12423   2.567   0.557   6.415
  119OSM    C1312424   2.445   0.402   6.686
  119OSM   H13A12425   2.480   0.386   6.787
  119OSM   H13B12426   2.435   0.309   6.632
  119OSM   H13C12427   2.347   0.445   6.703
  119OSM    C1212428   2.529   0.635   6.679
  119OSM   H12A12429   2.427   0.670   6.679
  119OSM   H12B12430   2.573   0.705   6.609
  119OSM    C1112431   2.588   0.652   6.820
  119OSM   H11A12432   2.531   0.592   6.894
  119OSM   H11B12433   2.554   0.751   6.855
  119OSM      P12434   2.820   0.743   6.764
  119OSM    O1312435   2.854   0.842   6.864
  119OSM    O1412436   2.929   0.673   6.698
  119OSM    O1112437   2.743   0.817   6.646
  119OSM    O1212438   2.726   0.634   6.833
  119OSM    C1S12439   2.794   0.825   6.511
  119OSM    H1S12440   2.803   0.724   6.466
  119OSM    H1T12441   2.894   0.874   6.511
  119OSM     NF12442   2.764   0.887   6.269
  119OSM    HNF12443   2.823   0.955   6.226
  119OSM    C2S12444   2.718   0.918   6.402
  119OSM    H2S12445   2.612   0.883   6.410
  119OSM    C3S12446   2.723   1.064   6.453
  119OSM    H3S12447   2.830   1.095   6.454
  119OSM     O312448   2.675   1.088   6.584
  119OSM    HO312449   2.668   1.014   6.645
  119OSM    C4S12450   2.650   1.158   6.356
  119OSM    H4S12451   2.548   1.119   6.339
  119OSM    C5S12452   2.705   1.243   6.267
  119OSM    H5S12453   2.811   1.273   6.265
  119OSM    C6S12454   2.627   1.305   6.155
  119OSM    H6S12455   2.646   1.415   6.153
  119OSM    H6T12456   2.517   1.287   6.159
  119OSM    C7S12457   2.660   1.239   6.014
  119OSM    H7S12458   2.574   1.252   5.945
  119OSM    H7T12459   2.667   1.130   6.030
  119OSM    C8S12460   2.779   1.294   5.945
  119OSM    H8S12461   2.873   1.268   5.999
  119OSM    H8T12462   2.770   1.403   5.931
  119OSM    C9S12463   2.791   1.242   5.799
  119OSM    H9S12464   2.692   1.240   5.748
  119OSM    H9T12465   2.827   1.138   5.807
  119OSM   C10S12466   2.888   1.328   5.725
  119OSM   H10S12467   2.982   1.344   5.783
  119OSM   H10T12468   2.844   1.427   5.704
  119OSM   C11S12469   2.941   1.256   5.594
  119OSM   H11S12470   2.855   1.207   5.543
  119OSM   H11T12471   3.006   1.170   5.618
  119OSM   C12S12472   3.018   1.345   5.495
  119OSM   H12S12473   3.088   1.400   5.562
  119OSM   H12T12474   2.947   1.427   5.473
  119OSM   C13S12475   3.078   1.275   5.368
  119OSM   H13S12476   2.994   1.208   5.338
  119OSM   H13T12477   3.163   1.215   5.406
  119OSM   C14S12478   3.119   1.368   5.252
  119OSM   H14S12479   3.202   1.427   5.299
  119OSM   H14T12480   3.038   1.443   5.236
  119OSM   C15S12481   3.176   1.285   5.136
  119OSM   H15S12482   3.096   1.226   5.086
  119OSM   H15T12483   3.255   1.213   5.167
  119OSM   C16S12484   3.234   1.377   5.035
  119OSM   H16S12485   3.327   1.410   5.086
  119OSM   H16T12486   3.176   1.471   5.023
  119OSM   C17S12487   3.258   1.318   4.896
  119OSM   H17S12488   3.162   1.292   4.848
  119OSM   H17T12489   3.312   1.221   4.894
  119OSM   C18S12490   3.327   1.422   4.803
  119OSM   H18S12491   3.430   1.431   4.844
  119OSM   H18T12492   3.281   1.523   4.795
  119OSM   H18U12493   3.343   1.385   4.700
  119OSM    C1F12494   2.739   0.773   6.205
  119OSM     OF12495   2.694   0.681   6.270
  119OSM    C2F12496   2.776   0.763   6.060
  119OSM    H2F12497   2.779   0.659   6.021
  119OSM    H2G12498   2.875   0.813   6.049
  119OSM    C3F12499   2.667   0.837   5.983
  119OSM    H3F12500   2.652   0.944   6.010
  119OSM    H3G12501   2.567   0.792   6.000
  119OSM    C4F12502   2.697   0.832   5.831
  119OSM    H4F12503   2.695   0.725   5.802
  119OSM    H4G12504   2.795   0.877   5.807
  119OSM    C5F12505   2.582   0.910   5.749
  119OSM    H5F12506   2.585   1.019   5.774
  119OSM    H5G12507   2.486   0.869   5.786
  119OSM    C6F12508   2.581   0.889   5.595
  119OSM    H6F12509   2.498   0.948   5.552
  119OSM    H6G12510   2.559   0.780   5.586
  119OSM    C7F12511   2.715   0.924   5.525
  119OSM    H7F12512   2.785   0.841   5.550
  119OSM    H7G12513   2.751   1.021   5.566
  119OSM    C8F12514   2.706   0.944   5.378
  119OSM    H8F12515   2.645   0.863   5.332
  119OSM    H8G12516   2.807   0.946   5.332
  119OSM    C9F12517   2.637   1.073   5.344
  119OSM    H9F12518   2.562   1.111   5.414
  119OSM   C10F12519   2.653   1.148   5.231
  119OSM   H10F12520   2.598   1.243   5.218
  119OSM   C11F12521   2.750   1.123   5.114
  119OSM   H11F12522   2.777   1.015   5.115
  119OSM   H11G12523   2.844   1.182   5.116
  119OSM   C12F12524   2.681   1.159   4.978
  119OSM   H12F12525   2.676   1.269   4.970
  119OSM   H12G12526   2.580   1.112   4.984
  119OSM   C13F12527   2.754   1.101   4.857
  119OSM   H13F12528   2.755   0.990   4.861
  119OSM   H13G12529   2.853   1.148   4.846
  119OSM   C14F12530   2.674   1.162   4.738
  119OSM   H14F12531   2.568   1.168   4.772
  119OSM   H14G12532   2.681   1.093   4.652
  119OSM   C15F12533   2.709   1.304   4.689
  119OSM   H15F12534   2.697   1.376   4.773
  119OSM   H15G12535   2.629   1.333   4.618
  119OSM   C16F12536   2.839   1.307   4.603
  119OSM   H16F12537   2.905   1.220   4.622
  119OSM   H16G12538   2.895   1.397   4.636
  119OSM   C17F12539   2.803   1.316   4.458
  119OSM   H17F12540   2.744   1.407   4.434
  119OSM   H17G12541   2.738   1.229   4.434
  119OSM   C18F12542   2.929   1.315   4.369
  119OSM   H18F12543   3.003   1.397   4.384
  119OSM   H18G12544   2.907   1.314   4.260
  119OSM   H18H12545   2.988   1.226   4.400
  120OSM      N12546   5.321   5.883   6.886
  120OSM    C1512547   5.203   5.842   6.974
  120OSM   H15A12548   5.122   5.904   6.940
  120OSM   H15B12549   5.223   5.861   7.079
  120OSM   H15C12550   5.192   5.735   6.970
  120OSM    C1412551   5.258   5.907   6.752
  120OSM   H14A12552   5.197   5.822   6.727
  120OSM   H14B12553   5.333   5.924   6.676
  120OSM   H14C12554   5.205   6.001   6.751
  120OSM    C1312555   5.382   6.021   6.932
  120OSM   H13A12556   5.309   6.096   6.956
  120OSM   H13B12557   5.447   6.057   6.853
  120OSM   H13C12558   5.447   6.005   7.017
  120OSM    C1212559   5.420   5.776   6.874
  120OSM   H12A12560   5.371   5.686   6.840
  120OSM   H12B12561   5.453   5.747   6.973
  120OSM    C1112562   5.535   5.789   6.770
  120OSM   H11A12563   5.594   5.696   6.781
  120OSM   H11B12564   5.597   5.879   6.794
  120OSM      P12565   5.451   5.676   6.544
  120OSM    O1312566   5.565   5.629   6.469
  120OSM    O1412567   5.393   5.575   6.639
  120OSM    O1112568   5.336   5.713   6.445
  120OSM    O1212569   5.489   5.808   6.633
  120OSM    C1S12570   5.344   5.830   6.353
  120OSM    H1S12571   5.448   5.851   6.321
  120OSM    H1T12572   5.303   5.912   6.416
  120OSM     NF12573   5.302   5.892   6.122
  120OSM    HNF12574   5.236   5.962   6.095
  120OSM    C2S12575   5.271   5.789   6.220
  120OSM    H2S12576   5.306   5.687   6.192
  120OSM    C3S12577   5.111   5.779   6.251
  120OSM    H3S12578   5.077   5.883   6.271
  120OSM     O312579   5.081   5.714   6.379
  120OSM    HO312580   5.167   5.703   6.421
  120OSM    C4S12581   5.018   5.720   6.143
  120OSM    H4S12582   4.954   5.796   6.095
  120OSM    C5S12583   5.016   5.597   6.101
  120OSM    H5S12584   5.086   5.522   6.139
  120OSM    C6S12585   4.927   5.538   5.991
  120OSM    H6S12586   4.866   5.624   5.958
  120OSM    H6T12587   4.865   5.451   6.022
  120OSM    C7S12588   4.996   5.499   5.857
  120OSM    H7S12589   4.924   5.453   5.787
  120OSM    H7T12590   5.074   5.422   5.874
  120OSM    C8S12591   5.051   5.621   5.771
  120OSM    H8S12592   5.131   5.653   5.841
  120OSM    H8T12593   4.976   5.700   5.749
  120OSM    C9S12594   5.111   5.572   5.637
  120OSM    H9S12595   5.151   5.470   5.654
  120OSM    H9T12596   5.192   5.640   5.606
  120OSM   C10S12597   5.013   5.580   5.518
  120OSM   H10S12598   4.963   5.679   5.521
  120OSM   H10T12599   4.931   5.506   5.509
  120OSM   C11S12600   5.082   5.571   5.385
  120OSM   H11S12601   5.116   5.466   5.369
  120OSM   H11T12602   5.175   5.629   5.366
  120OSM   C12S12603   4.992   5.607   5.258
  120OSM   H12S12604   4.950   5.709   5.268
  120OSM   H12T12605   4.909   5.533   5.261
  120OSM   C13S12606   5.064   5.574   5.125
  120OSM   H13S12607   5.078   5.464   5.134
  120OSM   H13T12608   5.158   5.632   5.125
  120OSM   C14S12609   4.969   5.606   5.010
  120OSM   H14S12610   4.954   5.715   4.998
  120OSM   H14T12611   4.872   5.553   5.024
  120OSM   C15S12612   5.023   5.539   4.884
  120OSM   H15S12613   5.021   5.429   4.902
  120OSM   H15T12614   5.129   5.568   4.868
  120OSM   C16S12615   4.940   5.579   4.748
  120OSM   H16S12616   4.946   5.690   4.742
  120OSM   H16T12617   4.834   5.558   4.771
  120OSM   C17S12618   4.987   5.506   4.621
  120OSM   H17S12619   4.980   5.398   4.643
  120OSM   H17T12620   5.094   5.530   4.606
  120OSM   C18S12621   4.907   5.539   4.495
  120OSM   H18S12622   4.918   5.646   4.470
  120OSM   H18T12623   4.800   5.511   4.509
  120OSM   H18U12624   4.948   5.487   4.406
  120OSM    C1F12625   5.429   5.902   6.078
  120OSM     OF12626   5.507   5.808   6.087
  120OSM    C2F12627   5.459   6.036   6.013
  120OSM    H2F12628   5.497   6.106   6.091
  120OSM    H2G12629   5.357   6.067   5.982
  120OSM    C3F12630   5.548   6.018   5.894
  120OSM    H3F12631   5.628   5.956   5.941
  120OSM    H3G12632   5.585   6.121   5.874
  120OSM    C4F12633   5.479   5.971   5.767
  120OSM    H4F12634   5.440   6.053   5.703
  120OSM    H4G12635   5.388   5.913   5.795
  120OSM    C5F12636   5.573   5.870   5.694
  120OSM    H5F12637   5.620   5.802   5.769
  120OSM    H5G12638   5.658   5.927   5.651
  120OSM    C6F12639   5.504   5.797   5.576
  120OSM    H6F12640   5.447   5.874   5.520
  120OSM    H6G12641   5.438   5.713   5.605
  120OSM    C7F12642   5.607   5.731   5.487
  120OSM    H7F12643   5.677   5.673   5.550
  120OSM    H7G12644   5.663   5.813   5.436
  120OSM    C8F12645   5.539   5.635   5.389
  120OSM    H8F12646   5.490   5.549   5.440
  120OSM    H8G12647   5.626   5.589   5.337
  120OSM    C9F12648   5.453   5.700   5.283
  120OSM    H9F12649   5.386   5.772   5.333
  120OSM   C10F12650   5.473   5.705   5.150
  120OSM   H10F12651   5.413   5.771   5.085
  120OSM   C11F12652   5.584   5.633   5.073
  120OSM   H11F12653   5.555   5.604   4.970
  120OSM   H11G12654   5.597   5.532   5.119
  120OSM   C12F12655   5.723   5.692   5.071
  120OSM   H12F12656   5.799   5.622   5.030
  120OSM   H12G12657   5.766   5.702   5.173
  120OSM   C13F12658   5.723   5.822   4.985
  120OSM   H13F12659   5.824   5.866   4.997
  120OSM   H13G12660   5.661   5.896   5.040
  120OSM   C14F12661   5.687   5.799   4.840
  120OSM   H14F12662   5.655   5.899   4.805
  120OSM   H14G12663   5.600   5.732   4.820
  120OSM   C15F12664   5.807   5.745   4.759
  120OSM   H15F12665   5.859   5.659   4.806
  120OSM   H15G12666   5.891   5.817   4.756
  120OSM   C16F12667   5.782   5.727   4.609
  120OSM   H16F12668   5.687   5.671   4.601
  120OSM   H16G12669   5.862   5.661   4.568
  120OSM   C17F12670   5.765   5.861   4.536
  120OSM   H17F12671   5.854   5.923   4.558
  120OSM   H17G12672   5.678   5.915   4.580
  120OSM   C18F12673   5.738   5.856   4.384
  120OSM   H18F12674   5.650   5.791   4.365
  120OSM   H18G12675   5.829   5.817   4.333
  120OSM   H18H12676   5.716   5.955   4.337
  121OSM      N12677   5.997   1.593   6.726
  121OSM    C1512678   5.861   1.624   6.793
  121OSM   H15A12679   5.837   1.569   6.882
  121OSM   H15B12680   5.781   1.635   6.721
  121OSM   H15C12681   5.886   1.722   6.829
  121OSM    C1412682   6.037   1.717   6.652
  121OSM   H14A12683   5.954   1.752   6.594
  121OSM   H14B12684   6.121   1.703   6.585
  121OSM   H14C12685   6.059   1.786   6.732
  121OSM    C1312686   6.102   1.577   6.833
  121OSM   H13A12687   6.079   1.486   6.887
  121OSM   H13B12688   6.105   1.654   6.908
  121OSM   H13C12689   6.198   1.571   6.783
  121OSM    C1212690   5.980   1.477   6.630
  121OSM   H12A12691   5.918   1.511   6.549
  121OSM   H12B12692   5.923   1.405   6.687
  121OSM    C1112693   6.110   1.411   6.565
  121OSM   H11A12694   6.076   1.341   6.486
  121OSM   H11B12695   6.171   1.364   6.645
  121OSM      P12696   6.341   1.508   6.499
  121OSM    O1312697   6.401   1.629   6.564
  121OSM    O1412698   6.393   1.382   6.552
  121OSM    O1112699   6.382   1.533   6.350
  121OSM    O1212700   6.183   1.513   6.501
  121OSM    C1S12701   6.279   1.526   6.252
  121OSM    H1S12702   6.210   1.612   6.257
  121OSM    H1T12703   6.207   1.444   6.272
  121OSM     NF12704   6.218   1.524   6.022
  121OSM    HNF12705   6.172   1.446   5.981
  121OSM    C2S12706   6.331   1.504   6.107
  121OSM    H2S12707   6.405   1.584   6.084
  121OSM    C3S12708   6.409   1.371   6.086
  121OSM    H3S12709   6.351   1.285   6.127
  121OSM     O312710   6.533   1.373   6.158
  121OSM    HO312711   6.515   1.435   6.229
  121OSM    C4S12712   6.444   1.346   5.944
  121OSM    H4S12713   6.508   1.422   5.896
  121OSM    C5S12714   6.419   1.230   5.887
  121OSM    H5S12715   6.375   1.152   5.950
  121OSM    C6S12716   6.446   1.193   5.743
  121OSM    H6S12717   6.483   1.089   5.736
  121OSM    H6T12718   6.520   1.262   5.698
  121OSM    C7S12719   6.308   1.207   5.672
  121OSM    H7S12720   6.277   1.313   5.674
  121OSM    H7T12721   6.236   1.143   5.727
  121OSM    C8S12722   6.336   1.160   5.524
  121OSM    H8S12723   6.381   1.060   5.505
  121OSM    H8T12724   6.406   1.232   5.475
  121OSM    C9S12725   6.212   1.174   5.434
  121OSM    H9S12726   6.199   1.280   5.403
  121OSM    H9T12727   6.126   1.150   5.502
  121OSM   C10S12728   6.197   1.087   5.304
  121OSM   H10S12729   6.096   1.106   5.261
  121OSM   H10T12730   6.197   0.977   5.320
  121OSM   C11S12731   6.294   1.123   5.191
  121OSM   H11S12732   6.390   1.105   5.245
  121OSM   H11T12733   6.289   1.234   5.178
  121OSM   C12S12734   6.299   1.047   5.061
  121OSM   H12S12735   6.337   0.948   5.095
  121OSM   H12T12736   6.383   1.103   5.015
  121OSM   C13S12737   6.181   1.050   4.963
  121OSM   H13S12738   6.153   1.150   4.924
  121OSM   H13T12739   6.098   1.000   5.019
  121OSM   C14S12740   6.212   0.964   4.841
  121OSM   H14S12741   6.224   0.858   4.872
  121OSM   H14T12742   6.306   1.007   4.800
  121OSM   C15S12743   6.110   0.974   4.732
  121OSM   H15S12744   6.089   1.084   4.732
  121OSM   H15T12745   6.020   0.916   4.762
  121OSM   C16S12746   6.157   0.924   4.599
  121OSM   H16S12747   6.186   0.817   4.603
  121OSM   H16T12748   6.241   0.993   4.577
  121OSM   C17S12749   6.035   0.927   4.496
  121OSM   H17S12750   6.009   1.035   4.494
  121OSM   H17T12751   5.957   0.853   4.524
  121OSM   C18S12752   6.078   0.888   4.352
  121OSM   H18S12753   6.170   0.942   4.321
  121OSM   H18T12754   5.992   0.909   4.285
  121OSM   H18U12755   6.103   0.780   4.344
  121OSM    C1F12756   6.162   1.647   5.998
  121OSM     OF12757   6.212   1.753   6.046
  121OSM    C2F12758   6.042   1.665   5.901
  121OSM    H2F12759   5.972   1.731   5.958
  121OSM    H2G12760   5.982   1.571   5.897
  121OSM    C3F12761   6.093   1.726   5.771
  121OSM    H3F12762   6.165   1.808   5.791
  121OSM    H3G12763   6.013   1.771   5.708
  121OSM    C4F12764   6.173   1.629   5.685
  121OSM    H4F12765   6.101   1.551   5.652
  121OSM    H4G12766   6.258   1.583   5.740
  121OSM    C5F12767   6.243   1.682   5.563
  121OSM    H5F12768   6.325   1.747   5.602
  121OSM    H5G12769   6.171   1.748   5.511
  121OSM    C6F12770   6.310   1.563   5.490
  121OSM    H6F12771   6.237   1.495   5.441
  121OSM    H6G12772   6.360   1.508   5.573
  121OSM    C7F12773   6.409   1.608   5.379
  121OSM    H7F12774   6.471   1.687   5.427
  121OSM    H7G12775   6.356   1.664   5.299
  121OSM    C8F12776   6.496   1.485   5.337
  121OSM    H8F12777   6.439   1.415   5.272
  121OSM    H8G12778   6.530   1.446   5.435
  121OSM    C9F12779   6.617   1.542   5.264
  121OSM    H9F12780   6.706   1.561   5.326
  121OSM   C10F12781   6.627   1.570   5.133
  121OSM   H10F12782   6.722   1.617   5.105
  121OSM   C11F12783   6.515   1.557   5.033
  121OSM   H11F12784   6.488   1.662   5.009
  121OSM   H11G12785   6.436   1.499   5.085
  121OSM   C12F12786   6.542   1.473   4.900
  121OSM   H12F12787   6.579   1.370   4.917
  121OSM   H12G12788   6.622   1.519   4.837
  121OSM   C13F12789   6.412   1.457   4.830
  121OSM   H13F12790   6.364   1.556   4.810
  121OSM   H13G12791   6.342   1.404   4.898
  121OSM   C14F12792   6.435   1.386   4.696
  121OSM   H14F12793   6.494   1.293   4.711
  121OSM   H14G12794   6.490   1.447   4.621
  121OSM   C15F12795   6.295   1.345   4.635
  121OSM   H15F12796   6.230   1.435   4.646
  121OSM   H15G12797   6.253   1.258   4.691
  121OSM   C16F12798   6.279   1.326   4.482
  121OSM   H16F12799   6.290   1.415   4.417
  121OSM   H16G12800   6.179   1.291   4.448
  121OSM   C17F12801   6.374   1.216   4.428
  121OSM   H17F12802   6.343   1.116   4.467
  121OSM   H17G12803   6.475   1.236   4.469
  121OSM   C18F12804   6.375   1.212   4.275
  121OSM   H18F12805   6.420   1.307   4.241
  121OSM   H18G12806   6.281   1.172   4.231
  121OSM   H18H12807   6.445   1.129   4.248
  122OSM      N12808   5.937   5.139   6.688
  122OSM    C1512809   5.964   5.250   6.596
  122OSM   H15A12810   5.892   5.327   6.613
  122OSM   H15B12811   5.952   5.221   6.492
  122OSM   H15C12812   6.060   5.298   6.609
  122OSM    C1412813   5.930   5.198   6.829
  122OSM   H14A12814   5.841   5.257   6.842
  122OSM   H14B12815   6.017   5.260   6.845
  122OSM   H14C12816   5.919   5.126   6.909
  122OSM    C1312817   5.806   5.071   6.664
  122OSM   H13A12818   5.733   5.144   6.697
  122OSM   H13B12819   5.784   4.996   6.738
  122OSM   H13C12820   5.787   5.053   6.559
  122OSM    C1212821   6.058   5.048   6.666
  122OSM   H12A12822   6.145   5.108   6.686
  122OSM   H12B12823   6.064   5.008   6.566
  122OSM    C1112824   6.062   4.925   6.757
  122OSM   H11A12825   6.053   4.966   6.860
  122OSM   H11B12826   6.151   4.860   6.754
  122OSM      P12827   5.961   4.725   6.609
  122OSM    O1312828   6.054   4.611   6.636
  122OSM    O1412829   5.818   4.700   6.564
  122OSM    O1112830   6.037   4.815   6.499
  122OSM    O1212831   5.952   4.833   6.726
  122OSM    C1S12832   6.066   4.761   6.372
  122OSM    H1S12833   6.093   4.654   6.386
  122OSM    H1T12834   6.154   4.818   6.336
  122OSM     NF12835   5.979   4.698   6.141
  122OSM    HNF12836   6.023   4.749   6.068
  122OSM    C2S12837   5.953   4.771   6.267
  122OSM    H2S12838   5.869   4.713   6.311
  122OSM    C3S12839   5.905   4.914   6.253
  122OSM    H3S12840   5.990   4.975   6.217
  122OSM     O312841   5.861   4.980   6.370
  122OSM    HO312842   5.899   4.926   6.440
  122OSM    C4S12843   5.791   4.923   6.158
  122OSM    H4S12844   5.731   4.831   6.148
  122OSM    C5S12845   5.786   5.012   6.065
  122OSM    H5S12846   5.864   5.086   6.043
  122OSM    C6S12847   5.688   4.996   5.950
  122OSM    H6S12848   5.656   5.097   5.918
  122OSM    H6T12849   5.598   4.937   5.976
  122OSM    C7S12850   5.749   4.927   5.823
  122OSM    H7S12851   5.768   4.820   5.848
  122OSM    H7T12852   5.843   4.986   5.815
  122OSM    C8S12853   5.660   4.923   5.697
  122OSM    H8S12854   5.651   5.030   5.670
  122OSM    H8T12855   5.553   4.896   5.709
  122OSM    C9S12856   5.731   4.843   5.581
  122OSM    H9S12857   5.728   4.738   5.617
  122OSM    H9T12858   5.836   4.879   5.579
  122OSM   C10S12859   5.648   4.841   5.453
  122OSM   H10S12860   5.623   4.941   5.410
  122OSM   H10T12861   5.550   4.796   5.480
  122OSM   C11S12862   5.717   4.759   5.344
  122OSM   H11S12863   5.729   4.656   5.382
  122OSM   H11T12864   5.813   4.811   5.327
  122OSM   C12S12865   5.630   4.750   5.216
  122OSM   H12S12866   5.523   4.736   5.241
  122OSM   H12T12867   5.663   4.669   5.147
  122OSM   C13S12868   5.639   4.880   5.128
  122OSM   H13S12869   5.745   4.910   5.111
  122OSM   H13T12870   5.582   4.966   5.169
  122OSM   C14S12871   5.575   4.873   4.986
  122OSM   H14S12872   5.596   4.972   4.940
  122OSM   H14T12873   5.466   4.866   5.005
  122OSM   C15S12874   5.639   4.762   4.894
  122OSM   H15S12875   5.622   4.654   4.912
  122OSM   H15T12876   5.747   4.785   4.908
  122OSM   C16S12877   5.592   4.802   4.748
  122OSM   H16S12878   5.632   4.898   4.710
  122OSM   H16T12879   5.481   4.811   4.755
  122OSM   C17S12880   5.627   4.692   4.648
  122OSM   H17S12881   5.595   4.730   4.548
  122OSM   H17T12882   5.565   4.603   4.674
  122OSM   C18S12883   5.776   4.655   4.650
  122OSM   H18S12884   5.842   4.729   4.599
  122OSM   H18T12885   5.794   4.555   4.607
  122OSM   H18U12886   5.809   4.642   4.756
  122OSM    C1F12887   5.985   4.565   6.130
  122OSM     OF12888   5.961   4.488   6.226
  122OSM    C2F12889   6.012   4.509   5.995
  122OSM    H2F12890   6.121   4.516   5.975
  122OSM    H2G12891   5.959   4.577   5.925
  122OSM    C3F12892   5.965   4.362   5.970
  122OSM    H3F12893   5.869   4.350   6.025
  122OSM    H3G12894   6.039   4.295   6.019
  122OSM    C4F12895   5.960   4.316   5.830
  122OSM    H4F12896   6.056   4.315   5.775
  122OSM    H4G12897   5.894   4.382   5.770
  122OSM    C5F12898   5.902   4.178   5.820
  122OSM    H5F12899   5.798   4.177   5.859
  122OSM    H5G12900   5.966   4.114   5.885
  122OSM    C6F12901   5.918   4.125   5.680
  122OSM    H6F12902   5.859   4.032   5.666
  122OSM    H6G12903   6.022   4.089   5.667
  122OSM    C7F12904   5.882   4.224   5.573
  122OSM    H7F12905   5.954   4.308   5.579
  122OSM    H7G12906   5.786   4.272   5.602
  122OSM    C8F12907   5.885   4.177   5.424
  122OSM    H8F12908   5.859   4.254   5.348
  122OSM    H8G12909   5.793   4.115   5.421
  122OSM    C9F12910   6.007   4.098   5.373
  122OSM    H9F12911   6.051   4.018   5.433
  122OSM   C10F12912   6.060   4.106   5.249
  122OSM   H10F12913   6.132   4.031   5.212
  122OSM   C11F12914   6.018   4.198   5.140
  122OSM   H11F12915   6.098   4.241   5.077
  122OSM   H11G12916   5.978   4.291   5.186
  122OSM   C12F12917   5.920   4.135   5.045
  122OSM   H12F12918   5.842   4.079   5.100
  122OSM   H12G12919   5.979   4.060   4.988
  122OSM   C13F12920   5.855   4.228   4.946
  122OSM   H13F12921   5.935   4.283   4.892
  122OSM   H13G12922   5.785   4.290   5.006
  122OSM   C14F12923   5.766   4.147   4.850
  122OSM   H14F12924   5.675   4.106   4.899
  122OSM   H14G12925   5.816   4.058   4.806
  122OSM   C15F12926   5.718   4.238   4.732
  122OSM   H15F12927   5.813   4.258   4.678
  122OSM   H15G12928   5.659   4.317   4.784
  122OSM   C16F12929   5.629   4.166   4.631
  122OSM   H16F12930   5.542   4.126   4.686
  122OSM   H16G12931   5.683   4.079   4.588
  122OSM   C17F12932   5.586   4.251   4.508
  122OSM   H17F12933   5.561   4.180   4.426
  122OSM   H17G12934   5.671   4.315   4.476
  122OSM   C18F12935   5.457   4.329   4.535
  122OSM   H18F12936   5.370   4.260   4.528
  122OSM   H18G12937   5.443   4.421   4.474
  122OSM   H18H12938   5.449   4.373   4.637
  123OSM      N12939   2.832   2.870   2.028
  123OSM    C1512940   2.811   3.007   1.956
  123OSM   H15A12941   2.899   3.042   1.904
  123OSM   H15B12942   2.786   3.078   2.034
  123OSM   H15C12943   2.734   2.990   1.882
  123OSM    C1412944   2.849   2.766   1.925
  123OSM   H14A12945   2.753   2.738   1.883
  123OSM   H14B12946   2.887   2.673   1.963
  123OSM   H14C12947   2.894   2.807   1.836
  123OSM    C1312948   2.957   2.873   2.108
  123OSM   H13A12949   2.966   2.775   2.152
  123OSM   H13B12950   2.949   2.936   2.195
  123OSM   H13C12951   3.047   2.907   2.059
  123OSM    C1212952   2.712   2.840   2.116
  123OSM   H12A12953   2.733   2.743   2.160
  123OSM   H12B12954   2.626   2.823   2.053
  123OSM    C1112955   2.683   2.932   2.233
  123OSM   H11A12956   2.766   2.941   2.306
  123OSM   H11B12957   2.604   2.887   2.297
  123OSM      P12958   2.505   3.100   2.136
  123OSM    O1312959   2.539   3.172   2.009
  123OSM    O1412960   2.422   2.981   2.120
  123OSM    O1112961   2.433   3.197   2.226
  123OSM    O1212962   2.647   3.062   2.195
  123OSM    C1S12963   2.293   3.186   2.269
  123OSM    H1S12964   2.240   3.105   2.215
  123OSM    H1T12965   2.228   3.275   2.257
  123OSM     NF12966   2.154   3.125   2.466
  123OSM    HNF12967   2.115   3.176   2.542
  123OSM    C2S12968   2.289   3.156   2.424
  123OSM    H2S12969   2.350   3.064   2.431
  123OSM    C3S12970   2.356   3.262   2.515
  123OSM    H3S12971   2.293   3.354   2.508
  123OSM     O312972   2.487   3.315   2.472
  123OSM    HO312973   2.498   3.296   2.379
  123OSM    C4S12974   2.371   3.230   2.663
  123OSM    H4S12975   2.402   3.127   2.685
  123OSM    C5S12976   2.317   3.305   2.760
  123OSM    H5S12977   2.260   3.395   2.734
  123OSM    C6S12978   2.308   3.275   2.903
  123OSM    H6S12979   2.378   3.339   2.961
  123OSM    H6T12980   2.349   3.177   2.934
  123OSM    C7S12981   2.164   3.289   2.963
  123OSM    H7S12982   2.100   3.220   2.904
  123OSM    H7T12983   2.128   3.394   2.953
  123OSM    C8S12984   2.158   3.249   3.113
  123OSM    H8S12985   2.250   3.291   3.159
  123OSM    H8T12986   2.168   3.140   3.132
  123OSM    C9S12987   2.029   3.295   3.183
  123OSM    H9S12988   1.943   3.248   3.131
  123OSM    H9T12989   2.005   3.403   3.171
  123OSM   C10S12990   2.008   3.266   3.333
  123OSM   H10S12991   2.070   3.181   3.369
  123OSM   H10T12992   1.900   3.252   3.353
  123OSM   C11S12993   2.057   3.383   3.420
  123OSM   H11S12994   2.039   3.480   3.370
  123OSM   H11T12995   2.167   3.384   3.435
  123OSM   C12S12996   1.988   3.389   3.555
  123OSM   H12S12997   1.877   3.392   3.548
  123OSM   H12T12998   2.002   3.487   3.604
  123OSM   C13S12999   2.027   3.279   3.651
  123OSM   H13S13000   2.137   3.268   3.657
  123OSM   H13T13001   1.990   3.179   3.618
  123OSM   C14S13002   1.973   3.310   3.791
  123OSM   H14S13003   1.868   3.345   3.786
  123OSM   H14T13004   2.030   3.399   3.828
  123OSM   C15S13005   1.992   3.192   3.885
  123OSM   H15S13006   2.092   3.146   3.892
  123OSM   H15T13007   1.934   3.112   3.835
  123OSM   C16S13008   1.925   3.228   4.019
  123OSM   H16S13009   1.840   3.299   4.008
  123OSM   H16T13010   2.001   3.280   4.082
  123OSM   C17S13011   1.886   3.102   4.098
  123OSM   H17S13012   1.986   3.061   4.123
  123OSM   H17T13013   1.833   3.034   4.028
  123OSM   C18S13014   1.801   3.131   4.215
  123OSM   H18S13015   1.800   3.040   4.280
  123OSM   H18T13016   1.701   3.156   4.176
  123OSM   H18U13017   1.847   3.207   4.283
  123OSM    C1F13018   2.088   3.017   2.423
  123OSM     OF13019   2.144   2.923   2.366
  123OSM    C2F13020   1.944   3.014   2.460
  123OSM    H2F13021   1.882   2.965   2.382
  123OSM    H2G13022   1.914   3.120   2.472
  123OSM    C3F13023   1.924   2.932   2.591
  123OSM    H3F13024   1.979   2.982   2.674
  123OSM    H3G13025   1.959   2.832   2.557
  123OSM    C4F13026   1.784   2.920   2.637
  123OSM    H4F13027   1.724   2.878   2.553
  123OSM    H4G13028   1.739   3.011   2.683
  123OSM    C5F13029   1.772   2.807   2.738
  123OSM    H5F13030   1.823   2.716   2.699
  123OSM    H5G13031   1.666   2.776   2.745
  123OSM    C6F13032   1.830   2.838   2.877
  123OSM    H6F13033   1.914   2.910   2.871
  123OSM    H6G13034   1.876   2.744   2.915
  123OSM    C7F13035   1.723   2.893   2.972
  123OSM    H7F13036   1.635   2.828   2.990
  123OSM    H7G13037   1.677   2.988   2.935
  123OSM    C8F13038   1.776   2.939   3.114
  123OSM    H8F13039   1.844   3.020   3.083
  123OSM    H8G13040   1.834   2.851   3.150
  123OSM    C9F13041   1.684   2.996   3.215
  123OSM    H9F13042   1.672   3.105   3.209
  123OSM   C10F13043   1.605   2.922   3.299
  123OSM   H10F13044   1.541   2.972   3.373
  123OSM   C11F13045   1.587   2.771   3.301
  123OSM   H11F13046   1.681   2.726   3.263
  123OSM   H11G13047   1.501   2.743   3.237
  123OSM   C12F13048   1.559   2.702   3.440
  123OSM   H12F13049   1.472   2.753   3.487
  123OSM   H12G13050   1.639   2.716   3.516
  123OSM   C13F13051   1.532   2.556   3.435
  123OSM   H13F13052   1.616   2.512   3.377
  123OSM   H13G13053   1.445   2.536   3.370
  123OSM   C14F13054   1.525   2.488   3.572
  123OSM   H14F13055   1.432   2.527   3.618
  123OSM   H14G13056   1.610   2.525   3.633
  123OSM   C15F13057   1.522   2.337   3.547
  123OSM   H15F13058   1.459   2.307   3.460
  123OSM   H15G13059   1.490   2.282   3.637
  123OSM   C16F13060   1.666   2.289   3.510
  123OSM   H16F13061   1.733   2.320   3.594
  123OSM   H16G13062   1.711   2.340   3.423
  123OSM   C17F13063   1.676   2.136   3.513
  123OSM   H17F13064   1.649   2.102   3.411
  123OSM   H17G13065   1.614   2.094   3.594
  123OSM   C18F13066   1.819   2.077   3.538
  123OSM   H18F13067   1.863   2.107   3.636
  123OSM   H18G13068   1.891   2.114   3.463
  123OSM   H18H13069   1.824   1.966   3.536
  124OSM      N13070   3.011   3.488   1.670
  124OSM    C1513071   2.979   3.611   1.610
  124OSM   H15A13072   3.040   3.637   1.525
  124OSM   H15B13073   2.990   3.693   1.679
  124OSM   H15C13074   2.877   3.613   1.575
  124OSM    C1413075   2.955   3.382   1.575
  124OSM   H14A13076   2.852   3.403   1.550
  124OSM   H14B13077   2.958   3.288   1.630
  124OSM   H14C13078   3.015   3.374   1.485
  124OSM    C1313079   3.157   3.475   1.690
  124OSM   H13A13080   3.212   3.486   1.598
  124OSM   H13B13081   3.175   3.379   1.737
  124OSM   H13C13082   3.187   3.548   1.764
  124OSM    C1213083   2.916   3.487   1.795
  124OSM   H12A13084   2.905   3.384   1.828
  124OSM   H12B13085   2.816   3.509   1.761
  124OSM    C1113086   2.954   3.584   1.911
  124OSM   H11A13087   3.056   3.561   1.951
  124OSM   H11B13088   2.891   3.558   1.999
  124OSM      P13089   2.816   3.798   1.893
  124OSM    O1313090   2.845   3.940   1.896
  124OSM    O1413091   2.736   3.753   1.784
  124OSM    O1113092   2.756   3.752   2.034
  124OSM    O1213093   2.951   3.723   1.885
  124OSM    C1S13094   2.832   3.749   2.158
  124OSM    H1S13095   2.939   3.775   2.138
  124OSM    H1T13096   2.833   3.649   2.207
  124OSM     NF13097   2.880   3.846   2.377
  124OSM    HNF13098   2.835   3.807   2.457
  124OSM    C2S13099   2.791   3.854   2.261
  124OSM    H2S13100   2.808   3.955   2.218
  124OSM    C3S13101   2.636   3.845   2.282
  124OSM    H3S13102   2.611   3.743   2.318
  124OSM     O313103   2.571   3.868   2.157
  124OSM    HO313104   2.646   3.859   2.097
  124OSM    C4S13105   2.593   3.941   2.391
  124OSM    H4S13106   2.588   3.884   2.485
  124OSM    C5S13107   2.546   4.066   2.377
  124OSM    H5S13108   2.543   4.110   2.276
  124OSM    C6S13109   2.494   4.143   2.493
  124OSM    H6S13110   2.383   4.156   2.488
  124OSM    H6T13111   2.537   4.245   2.505
  124OSM    C7S13112   2.510   4.079   2.629
  124OSM    H7S13113   2.619   4.066   2.647
  124OSM    H7T13114   2.466   3.977   2.624
  124OSM    C8S13115   2.435   4.157   2.744
  124OSM    H8S13116   2.326   4.153   2.722
  124OSM    H8T13117   2.476   4.260   2.730
  124OSM    C9S13118   2.471   4.111   2.881
  124OSM    H9S13119   2.578   4.122   2.908
  124OSM    H9T13120   2.445   4.004   2.899
  124OSM   C10S13121   2.389   4.185   3.000
  124OSM   H10S13122   2.281   4.178   2.975
  124OSM   H10T13123   2.411   4.294   3.006
  124OSM   C11S13124   2.406   4.102   3.134
  124OSM   H11S13125   2.507   4.093   3.179
  124OSM   H11T13126   2.380   3.995   3.116
  124OSM   C12S13127   2.324   4.172   3.253
  124OSM   H12S13128   2.222   4.179   3.210
  124OSM   H12T13129   2.365   4.273   3.274
  124OSM   C13S13130   2.328   4.087   3.379
  124OSM   H13S13131   2.428   4.063   3.421
  124OSM   H13T13132   2.287   3.984   3.367
  124OSM   C14S13133   2.252   4.148   3.500
  124OSM   H14S13134   2.145   4.144   3.468
  124OSM   H14T13135   2.268   4.258   3.505
  124OSM   C15S13136   2.269   4.070   3.641
  124OSM   H15S13137   2.377   4.071   3.665
  124OSM   H15T13138   2.233   3.966   3.635
  124OSM   C16S13139   2.192   4.134   3.758
  124OSM   H16S13140   2.089   4.140   3.719
  124OSM   H16T13141   2.227   4.240   3.767
  124OSM   C17S13142   2.188   4.049   3.878
  124OSM   H17S13143   2.290   4.047   3.923
  124OSM   H17T13144   2.155   3.950   3.840
  124OSM   C18S13145   2.083   4.095   3.984
  124OSM   H18S13146   1.982   4.092   3.937
  124OSM   H18T13147   2.107   4.199   4.015
  124OSM   H18U13148   2.094   4.034   4.077
  124OSM    C1F13149   3.008   3.867   2.379
  124OSM     OF13150   3.066   3.912   2.286
  124OSM    C2F13151   3.086   3.835   2.503
  124OSM    H2F13152   3.194   3.837   2.474
  124OSM    H2G13153   3.061   3.729   2.527
  124OSM    C3F13154   3.036   3.938   2.605
  124OSM    H3F13155   2.944   3.904   2.658
  124OSM    H3G13156   3.032   4.037   2.554
  124OSM    C4F13157   3.117   3.929   2.738
  124OSM    H4F13158   3.223   3.944   2.708
  124OSM    H4G13159   3.109   3.829   2.785
  124OSM    C5F13160   3.080   4.049   2.840
  124OSM    H5F13161   2.974   4.030   2.864
  124OSM    H5G13162   3.080   4.139   2.775
  124OSM    C6F13163   3.162   4.069   2.961
  124OSM    H6F13164   3.147   4.167   3.011
  124OSM    H6G13165   3.272   4.060   2.945
  124OSM    C7F13166   3.129   3.967   3.071
  124OSM    H7F13167   3.146   3.862   3.039
  124OSM    H7G13168   3.024   3.974   3.108
  124OSM    C8F13169   3.232   3.991   3.190
  124OSM    H8F13170   3.338   3.989   3.156
  124OSM    H8G13171   3.232   3.895   3.245
  124OSM    C9F13172   3.202   4.100   3.293
  124OSM    H9F13173   3.160   4.197   3.262
  124OSM   C10F13174   3.226   4.091   3.422
  124OSM   H10F13175   3.207   4.181   3.483
  124OSM   C11F13176   3.281   3.976   3.494
  124OSM   H11F13177   3.352   3.996   3.577
  124OSM   H11G13178   3.344   3.912   3.429
  124OSM   C12F13179   3.168   3.897   3.558
  124OSM   H12F13180   3.229   3.826   3.618
  124OSM   H12G13181   3.102   3.845   3.485
  124OSM   C13F13182   3.086   3.981   3.660
  124OSM   H13F13183   3.020   4.054   3.609
  124OSM   H13G13184   3.151   4.035   3.732
  124OSM   C14F13185   2.973   3.897   3.744
  124OSM   H14F13186   3.016   3.810   3.798
  124OSM   H14G13187   2.907   3.861   3.662
  124OSM   C15F13188   2.887   3.995   3.837
  124OSM   H15F13189   2.869   4.092   3.786
  124OSM   H15G13190   2.949   4.021   3.926
  124OSM   C16F13191   2.766   3.935   3.904
  124OSM   H16F13192   2.681   3.945   3.833
  124OSM   H16G13193   2.737   3.985   3.999
  124OSM   C17F13194   2.780   3.783   3.943
  124OSM   H17F13195   2.808   3.714   3.861
  124OSM   H17G13196   2.679   3.758   3.982
  124OSM   C18F13197   2.880   3.766   4.054
  124OSM   H18F13198   2.870   3.837   4.138
  124OSM   H18G13199   2.986   3.765   4.020
  124OSM   H18H13200   2.851   3.670   4.103
  125OSM      N13201   4.322   0.641   2.131
  125OSM    C1513202   4.428   0.716   2.049
  125OSM   H15A13203   4.529   0.702   2.084
  125OSM   H15B13204   4.419   0.823   2.063
  125OSM   H15C13205   4.420   0.702   1.943
  125OSM    C1413206   4.190   0.644   2.055
  125OSM   H14A13207   4.164   0.744   2.024
  125OSM   H14B13208   4.111   0.608   2.119
  125OSM   H14C13209   4.195   0.582   1.967
  125OSM    C1313210   4.360   0.491   2.131
  125OSM   H13A13211   4.375   0.443   2.035
  125OSM   H13B13212   4.278   0.438   2.176
  125OSM   H13C13213   4.443   0.475   2.199
  125OSM    C1213214   4.315   0.689   2.271
  125OSM   H12A13215   4.298   0.795   2.273
  125OSM   H12B13216   4.414   0.669   2.310
  125OSM    C1113217   4.226   0.618   2.378
  125OSM   H11A13218   4.123   0.630   2.336
  125OSM   H11B13219   4.205   0.682   2.466
  125OSM      P13220   4.157   0.377   2.405
  125OSM    O1313221   4.136   0.325   2.266
  125OSM    O1413222   4.200   0.278   2.507
  125OSM    O1113223   4.027   0.445   2.458
  125OSM    O1213224   4.274   0.484   2.406
  125OSM    C1S13225   3.919   0.365   2.506
  125OSM    H1S13226   3.940   0.263   2.544
  125OSM    H1T13227   3.840   0.357   2.428
  125OSM     NF13228   3.747   0.334   2.686
  125OSM    HNF13229   3.661   0.344   2.636
  125OSM    C2S13230   3.859   0.422   2.644
  125OSM    H2S13231   3.934   0.423   2.725
  125OSM    C3S13232   3.813   0.565   2.620
  125OSM    H3S13233   3.741   0.563   2.535
  125OSM     O313234   3.915   0.661   2.591
  125OSM    HO313235   3.993   0.616   2.556
  125OSM    C4S13236   3.740   0.615   2.742
  125OSM    H4S13237   3.814   0.647   2.817
  125OSM    C5S13238   3.604   0.602   2.766
  125OSM    H5S13239   3.526   0.564   2.699
  125OSM    C6S13240   3.539   0.651   2.895
  125OSM    H6S13241   3.429   0.638   2.887
  125OSM    H6T13242   3.574   0.753   2.918
  125OSM    C7S13243   3.586   0.572   3.026
  125OSM    H7S13244   3.696   0.583   3.028
  125OSM    H7T13245   3.575   0.463   3.008
  125OSM    C8S13246   3.511   0.624   3.145
  125OSM    H8S13247   3.403   0.597   3.135
  125OSM    H8T13248   3.521   0.734   3.154
  125OSM    C9S13249   3.578   0.568   3.269
  125OSM    H9S13250   3.683   0.603   3.261
  125OSM    H9T13251   3.608   0.461   3.265
  125OSM   C10S13252   3.503   0.618   3.396
  125OSM   H10S13253   3.421   0.546   3.416
  125OSM   H10T13254   3.459   0.720   3.398
  125OSM   C11S13255   3.597   0.604   3.522
  125OSM   H11S13256   3.674   0.685   3.519
  125OSM   H11T13257   3.648   0.506   3.512
  125OSM   C12S13258   3.528   0.616   3.658
  125OSM   H12S13259   3.444   0.544   3.669
  125OSM   H12T13260   3.479   0.715   3.657
  125OSM   C13S13261   3.637   0.610   3.768
  125OSM   H13S13262   3.706   0.694   3.745
  125OSM   H13T13263   3.692   0.515   3.756
  125OSM   C14S13264   3.579   0.615   3.909
  125OSM   H14S13265   3.557   0.508   3.930
  125OSM   H14T13266   3.485   0.675   3.919
  125OSM   C15S13267   3.682   0.675   4.006
  125OSM   H15S13268   3.715   0.777   3.978
  125OSM   H15T13269   3.764   0.600   4.005
  125OSM   C16S13270   3.629   0.697   4.150
  125OSM   H16S13271   3.609   0.596   4.191
  125OSM   H16T13272   3.540   0.764   4.150
  125OSM   C17S13273   3.736   0.759   4.239
  125OSM   H17S13274   3.799   0.830   4.181
  125OSM   H17T13275   3.804   0.678   4.274
  125OSM   C18S13276   3.677   0.846   4.347
  125OSM   H18S13277   3.624   0.934   4.303
  125OSM   H18T13278   3.760   0.893   4.404
  125OSM   H18U13279   3.605   0.783   4.402
  125OSM    C1F13280   3.764   0.219   2.744
  125OSM     OF13281   3.872   0.201   2.797
  125OSM    C2F13282   3.657   0.116   2.750
  125OSM    H2F13283   3.693   0.013   2.727
  125OSM    H2G13284   3.576   0.139   2.678
  125OSM    C3F13285   3.599   0.096   2.898
  125OSM    H3F13286   3.577   0.190   2.953
  125OSM    H3G13287   3.666   0.028   2.955
  125OSM    C4F13288   3.462   0.026   2.888
  125OSM    H4F13289   3.460   6.798   2.815
  125OSM    H4G13290   3.380   0.090   2.850
  125OSM    C5F13291   3.421   6.831   3.028
  125OSM    H5F13292   3.310   6.833   3.037
  125OSM    H5G13293   3.440   0.042   3.114
  125OSM    C6F13294   3.472   6.696   3.063
  125OSM    H6F13295   3.575   6.683   3.024
  125OSM    H6G13296   3.405   6.620   3.017
  125OSM    C7F13297   3.486   6.674   3.211
  125OSM    H7F13298   3.551   6.757   3.247
  125OSM    H7G13299   3.530   6.575   3.232
  125OSM    C8F13300   3.369   6.682   3.306
  125OSM    H8F13301   3.301   6.621   3.242
  125OSM    H8G13302   3.347   6.791   3.316
  125OSM    C9F13303   3.387   6.613   3.437
  125OSM    H9F13304   3.302   6.548   3.462
  125OSM   C10F13305   3.480   6.614   3.528
  125OSM   H10F13306   3.475   6.563   3.625
  125OSM   C11F13307   3.619   6.665   3.514
  125OSM   H11F13308   3.653   6.621   3.418
  125OSM   H11G13309   3.676   6.620   3.599
  125OSM   C12F13310   3.633   6.820   3.520
  125OSM   H12F13311   3.562   0.000   3.442
  125OSM   H12G13312   3.736   6.845   3.488
  125OSM   C13F13313   3.592   0.016   3.656
  125OSM   H13F13314   3.652   6.825   3.737
  125OSM   H13G13315   3.492   6.830   3.676
  125OSM   C14F13316   3.583   0.165   3.664
  125OSM   H14F13317   3.542   0.205   3.569
  125OSM   H14G13318   3.679   0.219   3.677
  125OSM   C15F13319   3.490   0.210   3.778
  125OSM   H15F13320   3.385   0.189   3.751
  125OSM   H15G13321   3.500   0.320   3.792
  125OSM   C16F13322   3.524   0.147   3.917
  125OSM   H16F13323   3.634   0.153   3.925
  125OSM   H16G13324   3.509   0.037   3.913
  125OSM   C17F13325   3.439   0.204   4.034
  125OSM   H17F13326   3.333   0.173   4.028
  125OSM   H17G13327   3.445   0.313   4.018
  125OSM   C18F13328   3.492   0.173   4.174
  125OSM   H18F13329   3.459   0.071   4.201
  125OSM   H18G13330   3.448   0.246   4.246
  125OSM   H18H13331   3.601   0.191   4.190
  126OSM      N13332   2.701   2.081   1.976
  126OSM    C1513333   2.673   2.219   1.951
  126OSM   H15A13334   2.719   2.289   2.019
  126OSM   H15B13335   2.567   2.242   1.956
  126OSM   H15C13336   2.704   2.251   1.852
  126OSM    C1413337   2.847   2.065   1.991
  126OSM   H14A13338   2.872   1.967   2.029
  126OSM   H14B13339   2.883   2.136   2.063
  126OSM   H14C13340   2.907   2.063   1.901
  126OSM    C1313341   2.639   2.062   2.113
  126OSM   H13A13342   2.683   2.120   2.193
  126OSM   H13B13343   2.653   1.958   2.142
  126OSM   H13C13344   2.533   2.084   2.119
  126OSM    C1213345   2.647   1.976   1.879
  126OSM   H12A13346   2.651   2.005   1.775
  126OSM   H12B13347   2.542   1.976   1.905
  126OSM    C1113348   2.700   1.836   1.883
  126OSM   H11A13349   2.801   1.833   1.837
  126OSM   H11B13350   2.648   1.770   1.811
  126OSM      P13351   2.686   1.636   2.050
  126OSM    O1313352   2.552   1.593   2.006
  126OSM    O1413353   2.805   1.562   1.995
  126OSM    O1113354   2.696   1.631   2.207
  126OSM    O1213355   2.702   1.790   2.022
  126OSM    C1S13356   2.802   1.707   2.264
  126OSM    H1S13357   2.785   1.816   2.247
  126OSM    H1T13358   2.902   1.674   2.227
  126OSM     NF13359   2.889   1.790   2.486
  126OSM    HNF13360   2.983   1.765   2.506
  126OSM    C2S13361   2.812   1.685   2.422
  126OSM    H2S13362   2.713   1.706   2.467
  126OSM    C3S13363   2.848   1.536   2.459
  126OSM    H3S13364   2.953   1.508   2.439
  126OSM     O313365   2.764   1.452   2.379
  126OSM    HO313366   2.736   1.515   2.312
  126OSM    C4S13367   2.817   1.516   2.606
  126OSM    H4S13368   2.712   1.486   2.620
  126OSM    C5S13369   2.905   1.513   2.708
  126OSM    H5S13370   3.011   1.538   2.690
  126OSM    C6S13371   2.868   1.492   2.859
  126OSM    H6S13372   2.933   1.416   2.907
  126OSM    H6T13373   2.770   1.444   2.878
  126OSM    C7S13374   2.870   1.607   2.958
  126OSM    H7S13375   2.794   1.681   2.925
  126OSM    H7T13376   2.965   1.663   2.970
  126OSM    C8S13377   2.829   1.565   3.102
  126OSM    H8S13378   2.911   1.495   3.131
  126OSM    H8T13379   2.731   1.516   3.090
  126OSM    C9S13380   2.807   1.689   3.193
  126OSM    H9S13381   2.743   1.763   3.139
  126OSM    H9T13382   2.905   1.738   3.208
  126OSM   C10S13383   2.764   1.660   3.336
  126OSM   H10S13384   2.805   1.745   3.395
  126OSM   H10T13385   2.815   1.569   3.374
  126OSM   C11S13386   2.612   1.651   3.351
  126OSM   H11S13387   2.570   1.618   3.254
  126OSM   H11T13388   2.579   1.757   3.353
  126OSM   C12S13389   2.574   1.573   3.473
  126OSM   H12S13390   2.615   1.471   3.455
  126OSM   H12T13391   2.463   1.563   3.480
  126OSM   C13S13392   2.637   1.634   3.602
  126OSM   H13S13393   2.592   1.735   3.612
  126OSM   H13T13394   2.746   1.644   3.584
  126OSM   C14S13395   2.603   1.551   3.728
  126OSM   H14S13396   2.625   1.613   3.818
  126OSM   H14T13397   2.673   1.465   3.724
  126OSM   C15S13398   2.456   1.506   3.737
  126OSM   H15S13399   2.436   1.411   3.682
  126OSM   H15T13400   2.401   1.593   3.694
  126OSM   C16S13401   2.417   1.482   3.885
  126OSM   H16S13402   2.307   1.488   3.894
  126OSM   H16T13403   2.460   1.569   3.940
  126OSM   C17S13404   2.474   1.350   3.933
  126OSM   H17S13405   2.575   1.334   3.890
  126OSM   H17T13406   2.407   1.272   3.890
  126OSM   C18S13407   2.478   1.339   4.091
  126OSM   H18S13408   2.384   1.376   4.136
  126OSM   H18T13409   2.562   1.405   4.123
  126OSM   H18U13410   2.500   1.234   4.123
  126OSM    C1F13411   2.854   1.921   2.487
  126OSM     OF13412   2.754   1.963   2.439
  126OSM    C2F13413   2.947   2.016   2.552
  126OSM    H2F13414   2.906   2.119   2.549
  126OSM    H2G13415   3.048   2.023   2.505
  126OSM    C3F13416   2.963   1.982   2.697
  126OSM    H3F13417   3.032   2.057   2.742
  126OSM    H3G13418   3.011   1.883   2.714
  126OSM    C4F13419   2.839   1.995   2.780
  126OSM    H4F13420   2.774   1.909   2.754
  126OSM    H4G13421   2.790   2.090   2.750
  126OSM    C5F13422   2.861   1.998   2.932
  126OSM    H5F13423   2.916   1.903   2.953
  126OSM    H5G13424   2.761   1.995   2.982
  126OSM    C6F13425   2.935   2.119   2.984
  126OSM    H6F13426   2.892   2.217   2.956
  126OSM    H6G13427   3.041   2.128   2.951
  126OSM    C7F13428   2.952   2.118   3.139
  126OSM    H7F13429   2.999   2.023   3.173
  126OSM    H7G13430   2.852   2.118   3.188
  126OSM    C8F13431   3.028   2.235   3.200
  126OSM    H8F13432   3.131   2.227   3.159
  126OSM    H8G13433   3.026   2.226   3.311
  126OSM    C9F13434   2.981   2.370   3.161
  126OSM    H9F13435   3.017   2.405   3.063
  126OSM   C10F13436   2.904   2.457   3.231
  126OSM   H10F13437   2.887   2.553   3.180
  126OSM   C11F13438   2.849   2.437   3.373
  126OSM   H11F13439   2.875   2.334   3.406
  126OSM   H11G13440   2.738   2.436   3.371
  126OSM   C12F13441   2.907   2.539   3.472
  126OSM   H12F13442   2.870   2.642   3.455
  126OSM   H12G13443   3.016   2.539   3.452
  126OSM   C13F13444   2.885   2.499   3.618
  126OSM   H13F13445   2.927   2.398   3.641
  126OSM   H13G13446   2.777   2.481   3.639
  126OSM   C14F13447   2.953   2.596   3.710
  126OSM   H14F13448   2.919   2.696   3.678
  126OSM   H14G13449   3.062   2.584   3.692
  126OSM   C15F13450   2.917   2.592   3.860
  126OSM   H15F13451   2.951   2.497   3.906
  126OSM   H15G13452   2.806   2.587   3.867
  126OSM   C16F13453   2.967   2.709   3.935
  126OSM   H16F13454   2.937   2.795   3.871
  126OSM   H16G13455   3.078   2.703   3.946
  126OSM   C17F13456   2.911   2.712   4.073
  126OSM   H17F13457   2.951   2.615   4.110
  126OSM   H17G13458   2.801   2.709   4.057
  126OSM   C18F13459   2.957   2.828   4.160
  126OSM   H18F13460   2.948   2.925   4.105
  126OSM   H18G13461   3.060   2.816   4.199
  126OSM   H18H13462   2.885   2.835   4.245
  127OSM      N13463   2.419   3.529   1.947
  127OSM    C1513464   2.499   3.516   1.818
  127OSM   H15A13465   2.432   3.496   1.735
  127OSM   H15B13466   2.563   3.429   1.818
  127OSM   H15C13467   2.565   3.600   1.808
  127OSM    C1413468   2.520   3.586   2.052
  127OSM   H14A13469   2.607   3.524   2.066
  127OSM   H14B13470   2.464   3.601   2.143
  127OSM   H14C13471   2.548   3.688   2.032
  127OSM    C1313472   2.313   3.628   1.921
  127OSM   H13A13473   2.264   3.672   2.006
  127OSM   H13B13474   2.233   3.582   1.866
  127OSM   H13C13475   2.362   3.709   1.868
  127OSM    C1213476   2.350   3.403   2.003
  127OSM   H12A13477   2.292   3.421   2.092
  127OSM   H12B13478   2.424   3.329   2.030
  127OSM    C1113479   2.236   3.325   1.921
  127OSM   H11A13480   2.220   3.227   1.970
  127OSM   H11B13481   2.269   3.302   1.818
  127OSM      P13482   2.005   3.406   2.034
  127OSM    O1313483   1.896   3.502   2.005
  127OSM    O1413484   1.968   3.266   2.044
  127OSM    O1113485   2.075   3.447   2.174
  127OSM    O1213486   2.117   3.413   1.921
  127OSM    C1S13487   1.993   3.456   2.292
  127OSM    H1S13488   1.967   3.351   2.314
  127OSM    H1T13489   1.902   3.516   2.271
  127OSM     NF13490   1.975   3.533   2.521
  127OSM    HNF13491   1.916   3.610   2.544
  127OSM    C2S13492   2.063   3.532   2.404
  127OSM    H2S13493   2.161   3.481   2.418
  127OSM    C3S13494   2.103   3.673   2.340
  127OSM    H3S13495   2.016   3.712   2.285
  127OSM     O313496   2.210   3.681   2.242
  127OSM    HO313497   2.205   3.595   2.199
  127OSM    C4S13498   2.132   3.769   2.452
  127OSM    H4S13499   2.235   3.756   2.488
  127OSM    C5S13500   2.048   3.871   2.489
  127OSM    H5S13501   1.949   3.888   2.444
  127OSM    C6S13502   2.084   3.962   2.596
  127OSM    H6S13503   2.023   4.054   2.584
  127OSM    H6T13504   2.191   3.987   2.580
  127OSM    C7S13505   2.068   3.906   2.739
  127OSM    H7S13506   1.987   3.830   2.745
  127OSM    H7T13507   2.045   3.993   2.804
  127OSM    C8S13508   2.193   3.834   2.799
  127OSM    H8S13509   2.278   3.896   2.765
  127OSM    H8T13510   2.219   3.736   2.753
  127OSM    C9S13511   2.186   3.837   2.956
  127OSM    H9S13512   2.181   3.943   2.989
  127OSM    H9T13513   2.281   3.803   3.004
  127OSM   C10S13514   2.072   3.752   3.012
  127OSM   H10S13515   2.085   3.647   2.977
  127OSM   H10T13516   1.970   3.790   2.995
  127OSM   C11S13517   2.082   3.732   3.172
  127OSM   H11S13518   2.191   3.727   3.191
  127OSM   H11T13519   2.051   3.628   3.193
  127OSM   C12S13520   2.022   3.838   3.258
  127OSM   H12S13521   1.913   3.823   3.248
  127OSM   H12T13522   2.055   3.938   3.223
  127OSM   C13S13523   2.039   3.833   3.415
  127OSM   H13S13524   2.137   3.872   3.449
  127OSM   H13T13525   2.030   3.731   3.456
  127OSM   C14S13526   1.936   3.921   3.481
  127OSM   H14S13527   1.869   3.984   3.419
  127OSM   H14T13528   1.989   3.996   3.543
  127OSM   C15S13529   1.844   3.830   3.571
  127OSM   H15S13530   1.816   3.748   3.501
  127OSM   H15T13531   1.755   3.888   3.602
  127OSM   C16S13532   1.920   3.783   3.693
  127OSM   H16S13533   1.962   3.867   3.752
  127OSM   H16T13534   2.010   3.719   3.675
  127OSM   C17S13535   1.832   3.704   3.788
  127OSM   H17S13536   1.804   3.604   3.747
  127OSM   H17T13537   1.740   3.762   3.812
  127OSM   C18S13538   1.913   3.676   3.916
  127OSM   H18S13539   1.993   3.601   3.897
  127OSM   H18T13540   1.851   3.628   3.995
  127OSM   H18U13541   1.943   3.775   3.955
  127OSM    C1F13542   1.955   3.427   2.591
  127OSM     OF13543   2.032   3.331   2.593
  127OSM    C2F13544   1.836   3.441   2.688
  127OSM    H2F13545   1.746   3.477   2.633
  127OSM    H2G13546   1.863   3.521   2.761
  127OSM    C3F13547   1.792   3.314   2.758
  127OSM    H3F13548   1.878   3.277   2.818
  127OSM    H3G13549   1.755   3.231   2.693
  127OSM    C4F13550   1.676   3.322   2.856
  127OSM    H4F13551   1.653   3.218   2.887
  127OSM    H4G13552   1.589   3.368   2.804
  127OSM    C5F13553   1.703   3.407   2.983
  127OSM    H5F13554   1.692   3.510   2.943
  127OSM    H5G13555   1.804   3.386   3.025
  127OSM    C6F13556   1.602   3.395   3.102
  127OSM    H6F13557   1.571   3.291   3.127
  127OSM    H6G13558   1.504   3.427   3.060
  127OSM    C7F13559   1.645   3.475   3.231
  127OSM    H7F13560   1.665   3.579   3.197
  127OSM    H7G13561   1.734   3.424   3.274
  127OSM    C8F13562   1.533   3.484   3.332
  127OSM    H8F13563   1.491   3.383   3.349
  127OSM    H8G13564   1.450   3.530   3.274
  127OSM    C9F13565   1.567   3.558   3.464
  127OSM    H9F13566   1.624   3.652   3.456
  127OSM   C10F13567   1.530   3.518   3.590
  127OSM   H10F13568   1.574   3.581   3.669
  127OSM   C11F13569   1.461   3.388   3.627
  127OSM   H11F13570   1.412   3.350   3.535
  127OSM   H11G13571   1.392   3.413   3.711
  127OSM   C12F13572   1.560   3.288   3.681
  127OSM   H12F13573   1.625   3.331   3.759
  127OSM   H12G13574   1.621   3.249   3.597
  127OSM   C13F13575   1.482   3.164   3.733
  127OSM   H13F13576   1.426   3.112   3.653
  127OSM   H13G13577   1.404   3.186   3.809
  127OSM   C14F13578   1.583   3.068   3.810
  127OSM   H14F13579   1.647   3.130   3.877
  127OSM   H14G13580   1.654   3.025   3.736
  127OSM   C15F13581   1.516   2.958   3.889
  127OSM   H15F13582   1.426   3.007   3.932
  127OSM   H15G13583   1.563   2.922   3.983
  127OSM   C16F13584   1.460   2.840   3.806
  127OSM   H16F13585   1.547   2.793   3.755
  127OSM   H16G13586   1.395   2.880   3.726
  127OSM   C17F13587   1.387   2.732   3.883
  127OSM   H17F13588   1.330   2.672   3.809
  127OSM   H17G13589   1.315   2.783   3.950
  127OSM   C18F13590   1.480   2.629   3.947
  127OSM   H18F13591   1.568   2.673   3.997
  127OSM   H18G13592   1.517   2.563   3.865
  127OSM   H18H13593   1.425   2.555   4.009
  128OSM      N13594   1.217   0.743   1.786
  128OSM    C1513595   1.307   0.634   1.746
  128OSM   H15A13596   1.329   0.644   1.640
  128OSM   H15B13597   1.273   0.532   1.760
  128OSM   H15C13598   1.398   0.647   1.802
  128OSM    C1413599   1.259   0.874   1.730
  128OSM   H14A13600   1.366   0.886   1.742
  128OSM   H14B13601   1.219   0.963   1.776
  128OSM   H14C13602   1.243   0.863   1.624
  128OSM    C1313603   1.077   0.710   1.740
  128OSM   H13A13604   1.061   0.712   1.633
  128OSM   H13B13605   0.998   0.767   1.787
  128OSM   H13C13606   1.053   0.611   1.776
  128OSM    C1213607   1.214   0.749   1.936
  128OSM   H12A13608   1.204   0.652   1.983
  128OSM   H12B13609   1.130   0.813   1.962
  128OSM    C1113610   1.340   0.805   2.001
  128OSM   H11A13611   1.332   0.807   2.112
  128OSM   H11B13612   1.349   0.914   1.981
  128OSM      P13613   1.589   0.813   1.910
  128OSM    O1313614   1.719   0.738   1.925
  128OSM    O1413615   1.564   0.873   1.778
  128OSM    O1113616   1.595   0.934   2.014
  128OSM    O1213617   1.462   0.731   1.964
  128OSM    C1S13618   1.618   0.909   2.160
  128OSM    H1S13619   1.706   0.841   2.168
  128OSM    H1T13620   1.531   0.861   2.211
  128OSM     NF13621   1.695   1.001   2.374
  128OSM    HNF13622   1.633   0.971   2.446
  128OSM    C2S13623   1.630   1.036   2.251
  128OSM    H2S13624   1.696   1.109   2.199
  128OSM    C3S13625   1.491   1.103   2.259
  128OSM    H3S13626   1.422   1.027   2.302
  128OSM     O313627   1.429   1.133   2.129
  128OSM    HO313628   1.477   1.077   2.068
  128OSM    C4S13629   1.505   1.225   2.353
  128OSM    H4S13630   1.505   1.210   2.462
  128OSM    C5S13631   1.553   1.343   2.308
  128OSM    H5S13632   1.568   1.370   2.202
  128OSM    C6S13633   1.599   1.448   2.399
  128OSM    H6S13634   1.520   1.464   2.477
  128OSM    H6T13635   1.619   1.541   2.343
  128OSM    C7S13636   1.736   1.413   2.472
  128OSM    H7S13637   1.811   1.364   2.407
  128OSM    H7T13638   1.709   1.337   2.549
  128OSM    C8S13639   1.816   1.532   2.535
  128OSM    H8S13640   1.755   1.603   2.595
  128OSM    H8T13641   1.864   1.598   2.460
  128OSM    C9S13642   1.918   1.486   2.627
  128OSM    H9S13643   1.978   1.570   2.668
  128OSM    H9T13644   1.991   1.425   2.569
  128OSM   C10S13645   1.874   1.394   2.741
  128OSM   H10S13646   1.842   1.295   2.701
  128OSM   H10T13647   1.783   1.430   2.792
  128OSM   C11S13648   1.984   1.383   2.842
  128OSM   H11S13649   2.037   1.480   2.856
  128OSM   H11T13650   2.070   1.318   2.816
  128OSM   C12S13651   1.923   1.356   2.975
  128OSM   H12S13652   1.877   1.255   2.985
  128OSM   H12T13653   1.839   1.422   3.005
  128OSM   C13S13654   2.032   1.364   3.080
  128OSM   H13S13655   2.088   1.459   3.070
  128OSM   H13T13656   2.108   1.286   3.059
  128OSM   C14S13657   1.989   1.347   3.222
  128OSM   H14S13658   1.903   1.279   3.232
  128OSM   H14T13659   1.979   1.444   3.276
  128OSM   C15S13660   2.108   1.295   3.310
  128OSM   H15S13661   2.197   1.358   3.289
  128OSM   H15T13662   2.143   1.197   3.271
  128OSM   C16S13663   2.091   1.284   3.464
  128OSM   H16S13664   2.011   1.209   3.482
  128OSM   H16T13665   2.047   1.381   3.492
  128OSM   C17S13666   2.220   1.244   3.530
  128OSM   H17S13667   2.287   1.332   3.517
  128OSM   H17T13668   2.273   1.160   3.480
  128OSM   C18S13669   2.207   1.205   3.673
  128OSM   H18S13670   2.311   1.171   3.695
  128OSM   H18T13671   2.134   1.122   3.685
  128OSM   H18U13672   2.180   1.294   3.734
  128OSM    C1F13673   1.827   1.004   2.382
  128OSM     OF13674   1.886   1.022   2.274
  128OSM    C2F13675   1.897   0.978   2.514
  128OSM    H2F13676   1.970   1.058   2.540
  128OSM    H2G13677   1.950   0.880   2.517
  128OSM    C3F13678   1.798   0.978   2.634
  128OSM    H3F13679   1.716   0.904   2.619
  128OSM    H3G13680   1.757   1.081   2.637
  128OSM    C4F13681   1.862   0.932   2.763
  128OSM    H4F13682   1.938   1.003   2.801
  128OSM    H4G13683   1.913   0.834   2.746
  128OSM    C5F13684   1.758   0.904   2.875
  128OSM    H5F13685   1.678   0.829   2.857
  128OSM    H5G13686   1.700   0.999   2.882
  128OSM    C6F13687   1.822   0.869   3.005
  128OSM    H6F13688   1.740   0.859   3.079
  128OSM    H6G13689   1.878   0.953   3.052
  128OSM    C7F13690   1.895   0.728   2.997
  128OSM    H7F13691   1.993   0.747   2.948
  128OSM    H7G13692   1.828   0.655   2.949
  128OSM    C8F13693   1.931   0.670   3.132
  128OSM    H8F13694   1.967   0.567   3.110
  128OSM    H8G13695   1.842   0.647   3.195
  128OSM    C9F13696   2.034   0.752   3.204
  128OSM    H9F13697   2.113   0.773   3.132
  128OSM   C10F13698   2.025   0.803   3.326
  128OSM   H10F13699   2.109   0.859   3.370
  128OSM   C11F13700   1.908   0.775   3.425
  128OSM   H11F13701   1.892   0.667   3.445
  128OSM   H11G13702   1.807   0.805   3.388
  128OSM   C12F13703   1.930   0.829   3.564
  128OSM   H12F13704   1.933   0.940   3.570
  128OSM   H12G13705   2.029   0.795   3.600
  128OSM   C13F13706   1.821   0.781   3.666
  128OSM   H13F13707   1.827   0.670   3.669
  128OSM   H13G13708   1.722   0.819   3.633
  128OSM   C14F13709   1.839   0.831   3.814
  128OSM   H14F13710   1.819   0.940   3.817
  128OSM   H14G13711   1.947   0.823   3.839
  128OSM   C15F13712   1.749   0.768   3.919
  128OSM   H15F13713   1.792   0.667   3.940
  128OSM   H15G13714   1.650   0.747   3.873
  128OSM   C16F13715   1.742   0.851   4.051
  128OSM   H16F13716   1.741   0.958   4.020
  128OSM   H16G13717   1.826   0.835   4.120
  128OSM   C17F13718   1.613   0.823   4.128
  128OSM   H17F13719   1.600   0.714   4.147
  128OSM   H17G13720   1.527   0.864   4.071
  128OSM   C18F13721   1.614   0.902   4.254
  128OSM   H18F13722   1.611   1.013   4.245
  128OSM   H18G13723   1.704   0.884   4.316
  128OSM   H18H13724   1.527   0.888   4.321
  129OSM      N13725   3.412   0.753   1.799
  129OSM    C1513726   3.517   0.793   1.705
  129OSM   H15A13727   3.499   0.890   1.662
  129OSM   H15B13728   3.514   0.720   1.626
  129OSM   H15C13729   3.616   0.783   1.747
  129OSM    C1413730   3.382   0.869   1.890
  129OSM   H14A13731   3.319   0.852   1.976
  129OSM   H14B13732   3.342   0.947   1.826
  129OSM   H14C13733   3.472   0.909   1.933
  129OSM    C1313734   3.285   0.720   1.722
  129OSM   H13A13735   3.309   0.659   1.637
  129OSM   H13B13736   3.234   0.809   1.688
  129OSM   H13C13737   3.220   0.662   1.786
  129OSM    C1213738   3.473   0.629   1.870
  129OSM   H12A13739   3.559   0.658   1.929
  129OSM   H12B13740   3.501   0.560   1.792
  129OSM    C1113741   3.373   0.563   1.964
  129OSM   H11A13742   3.296   0.512   1.902
  129OSM   H11B13743   3.328   0.625   2.044
  129OSM      P13744   3.547   0.476   2.144
  129OSM    O1313745   3.555   0.352   2.223
  129OSM    O1413746   3.674   0.532   2.091
  129OSM    O1113747   3.473   0.590   2.223
  129OSM    O1213748   3.444   0.461   2.026
  129OSM    C1S13749   3.352   0.593   2.301
  129OSM    H1S13750   3.310   0.495   2.331
  129OSM    H1T13751   3.270   0.641   2.242
  129OSM     NF13752   3.265   0.647   2.521
  129OSM    HNF13753   3.209   0.723   2.553
  129OSM    C2S13754   3.375   0.677   2.425
  129OSM    H2S13755   3.463   0.633   2.476
  129OSM    C3S13756   3.407   0.827   2.401
  129OSM    H3S13757   3.316   0.870   2.353
  129OSM     O313758   3.507   0.854   2.301
  129OSM    HO313759   3.518   0.770   2.255
  129OSM    C4S13760   3.432   0.917   2.521
  129OSM    H4S13761   3.498   0.866   2.593
  129OSM    C5S13762   3.377   1.033   2.547
  129OSM    H5S13763   3.306   1.074   2.473
  129OSM    C6S13764   3.386   1.108   2.680
  129OSM    H6S13765   3.283   1.142   2.706
  129OSM    H6T13766   3.457   1.193   2.674
  129OSM    C7S13767   3.427   1.024   2.799
  129OSM    H7S13768   3.523   0.969   2.790
  129OSM    H7T13769   3.354   0.940   2.796
  129OSM    C8S13770   3.422   1.092   2.933
  129OSM    H8S13771   3.317   1.117   2.958
  129OSM    H8T13772   3.484   1.184   2.930
  129OSM    C9S13773   3.481   1.006   3.041
  129OSM    H9S13774   3.579   0.980   2.996
  129OSM    H9T13775   3.412   0.921   3.058
  129OSM   C10S13776   3.496   1.087   3.171
  129OSM   H10S13777   3.396   1.136   3.178
  129OSM   H10T13778   3.582   1.157   3.179
  129OSM   C11S13779   3.518   0.986   3.291
  129OSM   H11S13780   3.610   0.926   3.275
  129OSM   H11T13781   3.432   0.915   3.297
  129OSM   C12S13782   3.526   1.069   3.416
  129OSM   H12S13783   3.448   1.148   3.421
  129OSM   H12T13784   3.627   1.114   3.422
  129OSM   C13S13785   3.506   0.979   3.547
  129OSM   H13S13786   3.581   0.897   3.542
  129OSM   H13T13787   3.406   0.931   3.548
  129OSM   C14S13788   3.533   1.064   3.672
  129OSM   H14S13789   3.466   1.152   3.676
  129OSM   H14T13790   3.628   1.118   3.655
  129OSM   C15S13791   3.524   0.985   3.802
  129OSM   H15S13792   3.618   0.935   3.836
  129OSM   H15T13793   3.444   0.909   3.787
  129OSM   C16S13794   3.482   1.067   3.929
  129OSM   H16S13795   3.460   1.003   4.017
  129OSM   H16T13796   3.383   1.114   3.911
  129OSM   C17S13797   3.577   1.186   3.959
  129OSM   H17S13798   3.514   1.263   4.009
  129OSM   H17T13799   3.613   1.230   3.864
  129OSM   C18S13800   3.700   1.150   4.033
  129OSM   H18S13801   3.752   1.248   4.045
  129OSM   H18T13802   3.768   1.073   3.990
  129OSM   H18U13803   3.670   1.116   4.135
  129OSM    C1F13804   3.235   0.530   2.572
  129OSM     OF13805   3.305   0.427   2.563
  129OSM    C2F13806   3.099   0.520   2.633
  129OSM    H2F13807   3.018   0.518   2.558
  129OSM    H2G13808   3.088   0.608   2.700
  129OSM    C3F13809   3.081   0.392   2.717
  129OSM    H3F13810   3.142   0.311   2.672
  129OSM    H3G13811   2.974   0.361   2.716
  129OSM    C4F13812   3.134   0.392   2.860
  129OSM    H4F13813   3.240   0.425   2.859
  129OSM    H4G13814   3.134   0.283   2.882
  129OSM    C5F13815   3.050   0.469   2.960
  129OSM    H5F13816   2.944   0.445   2.938
  129OSM    H5G13817   3.071   0.575   2.932
  129OSM    C6F13818   3.082   0.453   3.117
  129OSM    H6F13819   3.005   0.522   3.161
  129OSM    H6G13820   3.182   0.486   3.152
  129OSM    C7F13821   3.057   0.308   3.173
  129OSM    H7F13822   2.973   0.255   3.124
  129OSM    H7G13823   3.019   0.324   3.276
  129OSM    C8F13824   3.182   0.212   3.168
  129OSM    H8F13825   3.198   0.186   3.061
  129OSM    H8G13826   3.157   0.121   3.227
  129OSM    C9F13827   3.306   0.274   3.236
  129OSM    H9F13828   3.378   0.311   3.161
  129OSM   C10F13829   3.340   0.273   3.365
  129OSM   H10F13830   3.437   0.319   3.385
  129OSM   C11F13831   3.251   0.221   3.474
  129OSM   H11F13832   3.312   0.150   3.534
  129OSM   H11G13833   3.162   0.172   3.431
  129OSM   C12F13834   3.208   0.321   3.581
  129OSM   H12F13835   3.155   0.405   3.532
  129OSM   H12G13836   3.297   0.360   3.635
  129OSM   C13F13837   3.111   0.272   3.696
  129OSM   H13F13838   3.163   0.224   3.782
  129OSM   H13G13839   3.037   0.200   3.655
  129OSM   C14F13840   3.030   0.372   3.766
  129OSM   H14F13841   2.957   0.420   3.696
  129OSM   H14G13842   3.086   0.455   3.814
  129OSM   C15F13843   2.941   0.312   3.882
  129OSM   H15F13844   3.008   0.304   3.970
  129OSM   H15G13845   2.892   0.220   3.844
  129OSM   C16F13846   2.832   0.414   3.905
  129OSM   H16F13847   2.743   0.403   3.840
  129OSM   H16G13848   2.873   0.517   3.903
  129OSM   C17F13849   2.767   0.405   4.045
  129OSM   H17F13850   2.852   0.438   4.108
  129OSM   H17G13851   2.740   0.298   4.059
  129OSM   C18F13852   2.649   0.503   4.066
  129OSM   H18F13853   2.607   0.487   4.168
  129OSM   H18G13854   2.573   0.479   3.989
  129OSM   H18H13855   2.686   0.607   4.050
  130OSM      N13856   3.437   5.206   1.940
  130OSM    C1513857   3.462   5.282   2.059
  130OSM   H15A13858   3.396   5.362   2.087
  130OSM   H15B13859   3.557   5.330   2.043
  130OSM   H15C13860   3.481   5.228   2.151
  130OSM    C1413861   3.293   5.156   1.940
  130OSM   H14A13862   3.255   5.127   1.843
  130OSM   H14B13863   3.242   5.246   1.970
  130OSM   H14C13864   3.274   5.076   2.011
  130OSM    C1313865   3.449   5.301   1.826
  130OSM   H13A13866   3.553   5.327   1.838
  130OSM   H13B13867   3.378   5.381   1.831
  130OSM   H13C13868   3.431   5.255   1.730
  130OSM    C1213869   3.533   5.100   1.926
  130OSM   H12A13870   3.633   5.139   1.920
  130OSM   H12B13871   3.521   5.057   1.828
  130OSM    C1113872   3.541   4.991   2.027
  130OSM   H11A13873   3.573   5.053   2.113
  130OSM   H11B13874   3.620   4.919   1.996
  130OSM      P13875   3.383   4.785   2.005
  130OSM    O1313876   3.234   4.777   2.023
  130OSM    O1413877   3.448   4.768   1.875
  130OSM    O1113878   3.449   4.683   2.107
  130OSM    O1213879   3.419   4.927   2.061
  130OSM    C1S13880   3.511   4.708   2.240
  130OSM    H1S13881   3.499   4.816   2.264
  130OSM    H1T13882   3.618   4.678   2.235
  130OSM     NF13883   3.506   4.660   2.481
  130OSM    HNF13884   3.575   4.602   2.524
  130OSM    C2S13885   3.448   4.622   2.354
  130OSM    H2S13886   3.339   4.638   2.348
  130OSM    C3S13887   3.454   4.473   2.318
  130OSM    H3S13888   3.564   4.459   2.308
  130OSM     O313889   3.389   4.437   2.197
  130OSM    HO313890   3.388   4.519   2.148
  130OSM    C4S13891   3.401   4.387   2.434
  130OSM    H4S13892   3.484   4.369   2.504
  130OSM    C5S13893   3.288   4.318   2.451
  130OSM    H5S13894   3.215   4.347   2.374
  130OSM    C6S13895   3.254   4.230   2.565
  130OSM    H6S13896   3.248   4.126   2.527
  130OSM    H6T13897   3.155   4.253   2.611
  130OSM    C7S13898   3.352   4.221   2.686
  130OSM    H7S13899   3.454   4.197   2.648
  130OSM    H7T13900   3.323   4.127   2.739
  130OSM    C8S13901   3.354   4.345   2.776
  130OSM    H8S13902   3.252   4.376   2.807
  130OSM    H8T13903   3.388   4.428   2.711
  130OSM    C9S13904   3.461   4.343   2.896
  130OSM    H9S13905   3.565   4.353   2.858
  130OSM    H9T13906   3.454   4.240   2.938
  130OSM   C10S13907   3.431   4.458   2.997
  130OSM   H10S13908   3.378   4.545   2.953
  130OSM   H10T13909   3.527   4.492   3.042
  130OSM   C11S13910   3.340   4.411   3.113
  130OSM   H11S13911   3.389   4.320   3.154
  130OSM   H11T13912   3.243   4.382   3.068
  130OSM   C12S13913   3.308   4.526   3.209
  130OSM   H12S13914   3.254   4.606   3.156
  130OSM   H12T13915   3.402   4.570   3.247
  130OSM   C13S13916   3.220   4.488   3.333
  130OSM   H13S13917   3.273   4.401   3.378
  130OSM   H13T13918   3.126   4.448   3.289
  130OSM   C14S13919   3.206   4.608   3.434
  130OSM   H14S13920   3.139   4.681   3.384
  130OSM   H14T13921   3.305   4.657   3.435
  130OSM   C15S13922   3.165   4.575   3.576
  130OSM   H15S13923   3.077   4.508   3.575
  130OSM   H15T13924   3.134   4.664   3.635
  130OSM   C16S13925   3.278   4.506   3.643
  130OSM   H16S13926   3.356   4.582   3.664
  130OSM   H16T13927   3.337   4.439   3.576
  130OSM   C17S13928   3.240   4.445   3.777
  130OSM   H17S13929   3.236   4.531   3.847
  130OSM   H17T13930   3.322   4.382   3.816
  130OSM   C18S13931   3.109   4.376   3.784
  130OSM   H18S13932   3.099   4.338   3.888
  130OSM   H18T13933   3.117   4.290   3.713
  130OSM   H18U13934   3.017   4.436   3.767
  130OSM    C1F13935   3.494   4.780   2.539
  130OSM     OF13936   3.409   4.859   2.500
  130OSM    C2F13937   3.585   4.810   2.662
  130OSM    H2F13938   3.692   4.801   2.634
  130OSM    H2G13939   3.561   4.726   2.732
  130OSM    C3F13940   3.556   4.953   2.705
  130OSM    H3F13941   3.448   4.964   2.730
  130OSM    H3G13942   3.578   5.024   2.623
  130OSM    C4F13943   3.636   4.991   2.839
  130OSM    H4F13944   3.651   5.101   2.845
  130OSM    H4G13945   3.729   4.931   2.837
  130OSM    C5F13946   3.554   4.955   2.964
  130OSM    H5F13947   3.500   4.859   2.952
  130OSM    H5G13948   3.467   5.024   2.957
  130OSM    C6F13949   3.622   4.968   3.096
  130OSM    H6F13950   3.613   5.073   3.131
  130OSM    H6G13951   3.731   4.956   3.074
  130OSM    C7F13952   3.566   4.882   3.205
  130OSM    H7F13953   3.577   4.773   3.181
  130OSM    H7G13954   3.457   4.905   3.206
  130OSM    C8F13955   3.627   4.900   3.343
  130OSM    H8F13956   3.738   4.898   3.330
  130OSM    H8G13957   3.588   4.814   3.403
  130OSM    C9F13958   3.595   5.034   3.410
  130OSM    H9F13959   3.569   5.104   3.329
  130OSM   C10F13960   3.583   5.066   3.543
  130OSM   H10F13961   3.563   5.171   3.566
  130OSM   C11F13962   3.595   4.966   3.658
  130OSM   H11F13963   3.687   4.970   3.721
  130OSM   H11G13964   3.599   4.862   3.619
  130OSM   C12F13965   3.468   4.963   3.754
  130OSM   H12F13966   3.383   4.944   3.684
  130OSM   H12G13967   3.455   5.065   3.795
  130OSM   C13F13968   3.487   4.847   3.863
  130OSM   H13F13969   3.588   4.863   3.906
  130OSM   H13G13970   3.489   4.752   3.806
  130OSM   C14F13971   3.384   4.839   3.982
  130OSM   H14F13972   3.290   4.839   3.923
  130OSM   H14G13973   3.382   4.930   4.045
  130OSM   C15F13974   3.384   4.711   4.075
  130OSM   H15F13975   3.352   4.619   4.022
  130OSM   H15G13976   3.295   4.726   4.141
  130OSM   C16F13977   3.517   4.698   4.154
  130OSM   H16F13978   3.536   4.782   4.224
  130OSM   H16G13979   3.595   4.701   4.075
  130OSM   C17F13980   3.528   4.575   4.248
  130OSM   H17F13981   3.455   4.597   4.329
  130OSM   H17G13982   3.634   4.567   4.277
  130OSM   C18F13983   3.489   4.446   4.189
  130OSM   H18F13984   3.489   4.359   4.258
  130OSM   H18G13985   3.563   4.416   4.111
  130OSM   H18H13986   3.384   4.446   4.151
  131OSM      N13987   0.532   0.667   1.879
  131OSM    C1513988   0.556   0.775   1.770
  131OSM   H15A13989   0.474   0.778   1.700
  131OSM   H15B13990   0.639   0.743   1.709
  131OSM   H15C13991   0.566   0.873   1.815
  131OSM    C1413992   0.391   0.662   1.929
  131OSM   H14A13993   0.328   0.608   1.861
  131OSM   H14B13994   0.347   0.760   1.937
  131OSM   H14C13995   0.368   0.615   2.024
  131OSM    C1313996   0.553   0.536   1.808
  131OSM   H13A13997   0.530   0.448   1.867
  131OSM   H13B13998   0.652   0.527   1.765
  131OSM   H13C13999   0.496   0.540   1.717
  131OSM    C1214000   0.617   0.685   1.997
  131OSM   H12A14001   0.599   0.608   2.072
  131OSM   H12B14002   0.587   0.783   2.032
  131OSM    C1114003   0.770   0.685   1.960
  131OSM   H11A14004   0.789   0.595   1.897
  131OSM   H11B14005   0.824   0.689   2.057
  131OSM      P14006   0.851   0.939   1.957
  131OSM    O1314007   0.931   1.002   1.852
  131OSM    O1414008   0.742   1.023   2.014
  131OSM    O1114009   0.949   0.884   2.071
  131OSM    O1214010   0.794   0.809   1.891
  131OSM    C1S14011   1.015   0.976   2.154
  131OSM    H1S14012   0.967   1.075   2.164
  131OSM    H1T14013   1.118   0.992   2.116
  131OSM     NF14014   1.049   1.027   2.401
  131OSM    HNF14015   1.139   1.022   2.444
  131OSM    C2S14016   1.019   0.925   2.305
  131OSM    H2S14017   0.915   0.890   2.326
  131OSM    C3S14018   1.106   0.788   2.319
  131OSM    H3S14019   1.214   0.807   2.340
  131OSM     O314020   1.096   0.701   2.205
  131OSM    HO314021   1.040   0.755   2.149
  131OSM    C4S14022   1.073   0.715   2.450
  131OSM    H4S14023   1.148   0.742   2.526
  131OSM    C5S14024   0.976   0.619   2.468
  131OSM    H5S14025   0.920   0.587   2.379
  131OSM    C6S14026   0.935   0.537   2.584
  131OSM    H6S14027   0.944   0.430   2.553
  131OSM    H6T14028   0.830   0.553   2.618
  131OSM    C7S14029   1.016   0.573   2.714
  131OSM    H7S14030   0.975   0.665   2.762
  131OSM    H7T14031   1.124   0.582   2.689
  131OSM    C8S14032   1.015   0.469   2.826
  131OSM    H8S14033   1.042   0.364   2.804
  131OSM    H8T14034   0.911   0.446   2.856
  131OSM    C9S14035   1.095   0.513   2.956
  131OSM    H9S14036   1.199   0.535   2.925
  131OSM    H9T14037   1.100   0.421   3.018
  131OSM   C10S14038   1.036   0.626   3.036
  131OSM   H10S14039   0.926   0.611   3.050
  131OSM   H10T14040   1.055   0.715   2.972
  131OSM   C11S14041   1.103   0.653   3.170
  131OSM   H11S14042   1.107   0.761   3.197
  131OSM   H11T14043   1.209   0.622   3.156
  131OSM   C12S14044   1.041   0.575   3.284
  131OSM   H12S14045   1.069   0.468   3.286
  131OSM   H12T14046   0.933   0.565   3.260
  131OSM   C13S14047   1.051   0.647   3.419
  131OSM   H13S14048   1.009   0.750   3.430
  131OSM   H13T14049   1.161   0.652   3.437
  131OSM   C14S14050   0.984   0.561   3.532
  131OSM   H14S14051   1.028   0.459   3.524
  131OSM   H14T14052   0.880   0.537   3.500
  131OSM   C15S14053   0.991   0.616   3.670
  131OSM   H15S14054   0.932   0.709   3.689
  131OSM   H15T14055   1.098   0.638   3.690
  131OSM   C16S14056   0.949   0.517   3.787
  131OSM   H16S14057   1.018   0.430   3.795
  131OSM   H16T14058   0.853   0.473   3.754
  131OSM   C17S14059   0.932   0.598   3.922
  131OSM   H17S14060   0.844   0.662   3.901
  131OSM   H17T14061   1.017   0.664   3.950
  131OSM   C18S14062   0.901   0.503   4.035
  131OSM   H18S14063   0.819   0.433   4.008
  131OSM   H18T14064   0.868   0.560   4.124
  131OSM   H18U14065   0.982   0.439   4.076
  131OSM    C1F14066   0.967   1.127   2.423
  131OSM     OF14067   0.850   1.122   2.394
  131OSM    C2F14068   1.018   1.254   2.488
  131OSM    H2F14069   1.121   1.283   2.458
  131OSM    H2G14070   1.025   1.225   2.595
  131OSM    C3F14071   0.914   1.367   2.467
  131OSM    H3F14072   0.891   1.388   2.361
  131OSM    H3G14073   0.974   1.458   2.491
  131OSM    C4F14074   0.799   1.370   2.564
  131OSM    H4F14075   0.841   1.331   2.659
  131OSM    H4G14076   0.709   1.313   2.534
  131OSM    C5F14077   0.733   1.502   2.590
  131OSM    H5F14078   0.698   1.539   2.491
  131OSM    H5G14079   0.811   1.573   2.624
  131OSM    C6F14080   0.624   1.504   2.701
  131OSM    H6F14081   0.543   1.430   2.684
  131OSM    H6G14082   0.577   1.605   2.693
  131OSM    C7F14083   0.684   1.473   2.843
  131OSM    H7F14084   0.765   1.539   2.881
  131OSM    H7G14085   0.734   1.374   2.836
  131OSM    C8F14086   0.579   1.463   2.956
  131OSM    H8F14087   0.614   1.380   3.021
  131OSM    H8G14088   0.487   1.429   2.904
  131OSM    C9F14089   0.562   1.587   3.030
  131OSM    H9F14090   0.496   1.659   2.979
  131OSM   C10F14091   0.605   1.625   3.154
  131OSM   H10F14092   0.587   1.727   3.190
  131OSM   C11F14093   0.678   1.533   3.252
  131OSM   H11F14094   0.758   1.585   3.308
  131OSM   H11G14095   0.731   1.447   3.205
  131OSM   C12F14096   0.579   1.479   3.353
  131OSM   H12F14097   0.633   1.396   3.403
  131OSM   H12G14098   0.497   1.429   3.297
  131OSM   C13F14099   0.526   1.574   3.460
  131OSM   H13F14100   0.446   1.640   3.421
  131OSM   H13G14101   0.610   1.635   3.501
  131OSM   C14F14102   0.475   1.502   3.585
  131OSM   H14F14103   0.552   1.430   3.619
  131OSM   H14G14104   0.394   1.436   3.546
  131OSM   C15F14105   0.414   1.591   3.700
  131OSM   H15F14106   0.324   1.646   3.666
  131OSM   H15G14107   0.485   1.667   3.742
  131OSM   C16F14108   0.381   1.501   3.819
  131OSM   H16F14109   0.337   1.562   3.901
  131OSM   H16G14110   0.484   1.467   3.844
  131OSM   C17F14111   0.289   1.382   3.784
  131OSM   H17F14112   0.341   1.299   3.732
  131OSM   H17G14113   0.218   1.441   3.721
  131OSM   C18F14114   0.214   1.307   3.891
  131OSM   H18F14115   0.279   1.253   3.963
  131OSM   H18G14116   0.152   1.225   3.849
  131OSM   H18H14117   0.151   1.378   3.948
  132OSM      N14118   6.586   0.279   1.988
  132OSM    C1514119   6.514   0.188   1.907
  132OSM   H15A14120   6.496   0.224   1.806
  132OSM   H15B14121   6.412   0.176   1.941
  132OSM   H15C14122   6.563   0.092   1.908
  132OSM    C1414123   6.573   0.241   2.132
  132OSM   H14A14124   6.599   0.317   2.204
  132OSM   H14B14125   6.621   0.145   2.145
  132OSM   H14C14126   6.467   0.229   2.153
  132OSM    C1314127   6.730   0.262   1.964
  132OSM   H13A14128   6.779   0.343   2.016
  132OSM   H13B14129   6.760   0.281   1.862
  132OSM   H13C14130   6.771   0.168   1.996
  132OSM    C1214131   6.539   0.424   1.962
  132OSM   H12A14132   6.565   0.455   1.862
  132OSM   H12B14133   6.598   0.480   2.033
  132OSM    C1114134   6.388   0.454   1.983
  132OSM   H11A14135   6.368   0.562   1.995
  132OSM   H11B14136   6.358   0.420   2.085
  132OSM      P14137   6.157   0.401   1.880
  132OSM    O1314138   6.106   0.532   1.835
  132OSM    O1414139   6.112   0.284   1.810
  132OSM    O1114140   6.120   0.381   2.029
  132OSM    O1214141   6.314   0.405   1.876
  132OSM    C1S14142   6.136   0.259   2.092
  132OSM    H1S14143   6.244   0.244   2.114
  132OSM    H1T14144   6.107   0.172   2.031
  132OSM     NF14145   6.099   0.122   2.288
  132OSM    HNF14146   6.034   0.047   2.295
  132OSM    C2S14147   6.068   0.258   2.229
  132OSM    H2S14148   6.112   0.338   2.293
  132OSM    C3S14149   5.912   0.289   2.225
  132OSM    H3S14150   5.872   0.207   2.162
  132OSM     O314151   5.889   0.416   2.168
  132OSM    HO314152   5.971   0.434   2.123
  132OSM    C4S14153   5.858   0.287   2.365
  132OSM    H4S14154   5.791   0.201   2.381
  132OSM    C5S14155   5.856   0.379   2.466
  132OSM    H5S14156   5.900   0.479   2.451
  132OSM    C6S14157   5.793   0.359   2.597
  132OSM    H6S14158   5.865   0.349   2.681
  132OSM    H6T14159   5.754   0.255   2.609
  132OSM    C7S14160   5.682   0.463   2.618
  132OSM    H7S14161   5.627   0.485   2.524
  132OSM    H7T14162   5.735   0.561   2.625
  132OSM    C8S14163   5.595   0.433   2.735
  132OSM    H8S14164   5.545   0.336   2.712
  132OSM    H8T14165   5.510   0.504   2.741
  132OSM    C9S14166   5.677   0.424   2.869
  132OSM    H9S14167   5.724   0.522   2.893
  132OSM    H9T14168   5.767   0.360   2.872
  132OSM   C10S14169   5.592   0.389   2.999
  132OSM   H10S14170   5.559   0.283   2.995
  132OSM   H10T14171   5.496   0.445   2.996
  132OSM   C11S14172   5.673   0.406   3.131
  132OSM   H11S14173   5.677   0.515   3.149
  132OSM   H11T14174   5.776   0.366   3.120
  132OSM   C12S14175   5.601   0.339   3.251
  132OSM   H12S14176   5.590   0.229   3.238
  132OSM   H12T14177   5.496   0.376   3.249
  132OSM   C13S14178   5.673   0.361   3.389
  132OSM   H13S14179   5.677   0.470   3.411
  132OSM   H13T14180   5.777   0.325   3.381
  132OSM   C14S14181   5.616   0.284   3.509
  132OSM   H14S14182   5.607   0.175   3.489
  132OSM   H14T14183   5.522   0.338   3.533
  132OSM   C15S14184   5.708   0.296   3.635
  132OSM   H15S14185   5.721   0.401   3.668
  132OSM   H15T14186   5.807   0.250   3.615
  132OSM   C16S14187   5.646   0.226   3.757
  132OSM   H16S14188   5.632   0.117   3.739
  132OSM   H16T14189   5.546   0.263   3.789
  132OSM   C17S14190   5.747   0.229   3.877
  132OSM   H17S14191   5.771   0.335   3.895
  132OSM   H17T14192   5.837   0.176   3.838
  132OSM   C18S14193   5.691   0.168   4.008
  132OSM   H18S14194   5.588   0.205   4.025
  132OSM   H18T14195   5.758   0.194   4.093
  132OSM   H18U14196   5.687   0.057   4.007
  132OSM    C1F14197   6.219   0.099   2.338
  132OSM     OF14198   6.310   0.183   2.330
  132OSM    C2F14199   6.246   6.826   2.405
  132OSM    H2F14200   6.351   6.800   2.377
  132OSM    H2G14201   6.181   6.740   2.378
  132OSM    C3F14202   6.245   6.835   2.559
  132OSM    H3F14203   6.142   0.001   2.594
  132OSM    H3G14204   6.298   0.071   2.588
  132OSM    C4F14205   6.325   6.718   2.622
  132OSM    H4F14206   6.422   6.723   2.569
  132OSM    H4G14207   6.275   6.624   2.590
  132OSM    C5F14208   6.341   6.731   2.773
  132OSM    H5F14209   6.243   6.707   2.819
  132OSM    H5G14210   6.373   6.831   2.810
  132OSM    C6F14211   6.433   6.624   2.831
  132OSM    H6F14212   6.537   6.657   2.811
  132OSM    H6G14213   6.413   6.529   2.778
  132OSM    C7F14214   6.402   6.614   2.986
  132OSM    H7F14215   6.294   6.594   2.995
  132OSM    H7G14216   6.426   6.710   3.036
  132OSM    C8F14217   6.470   6.486   3.047
  132OSM    H8F14218   6.578   6.515   3.047
  132OSM    H8G14219   6.453   6.393   2.989
  132OSM    C9F14220   6.425   6.464   3.191
  132OSM    H9F14221   6.319   6.443   3.210
  132OSM   C10F14222   6.501   6.462   3.298
  132OSM   H10F14223   6.466   6.444   3.401
  132OSM   C11F14224   6.651   6.480   3.302
  132OSM   H11F14225   6.697   6.457   3.203
  132OSM   H11G14226   6.700   6.405   3.367
  132OSM   C12F14227   6.692   6.623   3.340
  132OSM   H12F14228   6.672   6.646   3.447
  132OSM   H12G14229   6.620   6.687   3.283
  132OSM   C13F14230   6.843   6.655   3.317
  132OSM   H13F14231   0.037   6.568   3.364
  132OSM   H13G14232   0.030   6.745   3.364
  132OSM   C14F14233   0.037   6.654   3.174
  132OSM   H14F14234   6.838   6.730   3.117
  132OSM   H14G14235   0.008   6.555   3.132
  132OSM   C15F14236   0.191   6.666   3.170
  132OSM   H15F14237   0.222   6.587   3.241
  132OSM   H15G14238   0.225   6.756   3.226
  132OSM   C16F14239   0.257   6.663   3.031
  132OSM   H16F14240   0.222   6.743   2.962
  132OSM   H16G14241   0.225   6.573   2.975
  132OSM   C17F14242   0.404   6.666   3.053
  132OSM   H17F14243   0.422   6.594   3.136
  132OSM   H17G14244   0.445   6.764   3.083
  132OSM   C18F14245   0.490   6.621   2.931
  132OSM   H18F14246   0.466   6.518   2.899
  132OSM   H18G14247   0.600   6.636   2.945
  132OSM   H18H14248   0.467   6.685   2.843
  133OSM      N14249   4.067   3.097   1.920
  133OSM    C1514250   3.986   3.134   1.796
  133OSM   H15A14251   3.893   3.175   1.834
  133OSM   H15B14252   3.962   3.046   1.736
  133OSM   H15C14253   4.047   3.203   1.740
  133OSM    C1414254   3.983   3.014   2.011
  133OSM   H14A14255   3.885   3.057   2.025
  133OSM   H14B14256   4.028   3.000   2.109
  133OSM   H14C14257   3.958   2.912   1.983
  133OSM    C1314258   4.184   3.022   1.881
  133OSM   H13A14259   4.156   2.924   1.846
  133OSM   H13B14260   4.255   3.022   1.962
  133OSM   H13C14261   4.242   3.076   1.807
  133OSM    C1214262   4.103   3.226   1.993
  133OSM   H12A14263   4.010   3.273   2.021
  133OSM   H12B14264   4.146   3.291   1.918
  133OSM    C1114265   4.193   3.211   2.124
  133OSM   H11A14266   4.114   3.183   2.197
  133OSM   H11B14267   4.237   3.312   2.142
  133OSM      P14268   4.438   3.141   2.141
  133OSM    O1314269   4.498   3.012   2.107
  133OSM    O1414270   4.475   3.265   2.064
  133OSM    O1114271   4.455   3.174   2.290
  133OSM    O1214272   4.290   3.110   2.119
  133OSM    C1S14273   4.435   3.076   2.390
  133OSM    H1S14274   4.510   2.995   2.378
  133OSM    H1T14275   4.335   3.031   2.370
  133OSM     NF14276   4.459   3.045   2.644
  133OSM    HNF14277   4.384   3.023   2.705
  133OSM    C2S14278   4.445   3.141   2.534
  133OSM    H2S14279   4.542   3.194   2.521
  133OSM    C3S14280   4.327   3.243   2.563
  133OSM    H3S14281   4.239   3.181   2.592
  133OSM     O314282   4.291   3.328   2.455
  133OSM    HO314283   4.345   3.291   2.385
  133OSM    C4S14284   4.338   3.327   2.689
  133OSM    H4S14285   4.392   3.421   2.666
  133OSM    C5S14286   4.297   3.305   2.813
  133OSM    H5S14287   4.235   3.216   2.826
  133OSM    C6S14288   4.325   3.368   2.947
  133OSM    H6S14289   4.225   3.387   2.993
  133OSM    H6T14290   4.371   3.467   2.934
  133OSM    C7S14291   4.403   3.272   3.039
  133OSM    H7S14292   4.502   3.249   2.994
  133OSM    H7T14293   4.353   3.173   3.047
  133OSM    C8S14294   4.422   3.337   3.175
  133OSM    H8S14295   4.465   3.439   3.167
  133OSM    H8T14296   4.492   3.275   3.234
  133OSM    C9S14297   4.297   3.341   3.264
  133OSM    H9S14298   4.253   3.239   3.269
  133OSM    H9T14299   4.216   3.401   3.217
  133OSM   C10S14300   4.302   3.391   3.404
  133OSM   H10S14301   4.194   3.408   3.427
  133OSM   H10T14302   4.353   3.490   3.398
  133OSM   C11S14303   4.374   3.297   3.495
  133OSM   H11S14304   4.481   3.287   3.470
  133OSM   H11T14305   4.325   3.199   3.477
  133OSM   C12S14306   4.368   3.347   3.637
  133OSM   H12S14307   4.261   3.357   3.667
  133OSM   H12T14308   4.408   3.451   3.644
  133OSM   C13S14309   4.453   3.251   3.722
  133OSM   H13S14310   4.561   3.260   3.698
  133OSM   H13T14311   4.417   3.146   3.711
  133OSM   C14S14312   4.439   3.295   3.865
  133OSM   H14S14313   4.334   3.291   3.899
  133OSM   H14T14314   4.472   3.401   3.869
  133OSM   C15S14315   4.542   3.229   3.957
  133OSM   H15S14316   4.642   3.265   3.927
  133OSM   H15T14317   4.542   3.119   3.941
  133OSM   C16S14318   4.538   3.268   4.100
  133OSM   H16S14319   4.452   3.214   4.146
  133OSM   H16T14320   4.516   3.376   4.113
  133OSM   C17S14321   4.666   3.227   4.176
  133OSM   H17S14322   4.748   3.300   4.158
  133OSM   H17T14323   4.702   3.125   4.151
  133OSM   C18S14324   4.640   3.233   4.330
  133OSM   H18S14325   4.568   3.150   4.348
  133OSM   H18T14326   4.594   3.330   4.361
  133OSM   H18U14327   4.739   3.204   4.371
  133OSM    C1F14328   4.577   2.981   2.662
  133OSM     OF14329   4.672   3.004   2.590
  133OSM    C2F14330   4.595   2.893   2.778
  133OSM    H2F14331   4.692   2.840   2.769
  133OSM    H2G14332   4.512   2.820   2.787
  133OSM    C3F14333   4.600   2.973   2.911
  133OSM    H3F14334   4.518   3.047   2.912
  133OSM    H3G14335   4.691   3.037   2.921
  133OSM    C4F14336   4.596   2.892   3.043
  133OSM    H4F14337   4.674   2.814   3.034
  133OSM    H4G14338   4.489   2.861   3.047
  133OSM    C5F14339   4.647   2.972   3.161
  133OSM    H5F14340   4.558   3.031   3.193
  133OSM    H5G14341   4.739   3.030   3.139
  133OSM    C6F14342   4.661   2.874   3.286
  133OSM    H6F14343   4.747   2.815   3.249
  133OSM    H6G14344   4.568   2.812   3.293
  133OSM    C7F14345   4.689   2.942   3.421
  133OSM    H7F14346   4.625   3.031   3.437
  133OSM    H7G14347   4.794   2.979   3.417
  133OSM    C8F14348   4.671   2.851   3.537
  133OSM    H8F14349   4.750   2.773   3.541
  133OSM    H8G14350   4.578   2.792   3.527
  133OSM    C9F14351   4.653   2.920   3.667
  133OSM    H9F14352   4.555   2.970   3.676
  133OSM   C10F14353   4.729   2.907   3.776
  133OSM   H10F14354   4.703   2.967   3.864
  133OSM   C11F14355   4.864   2.829   3.785
  133OSM   H11F14356   4.937   2.906   3.816
  133OSM   H11G14357   4.892   2.791   3.685
  133OSM   C12F14358   4.864   2.707   3.888
  133OSM   H12F14359   4.951   2.641   3.866
  133OSM   H12G14360   4.777   2.638   3.876
  133OSM   C13F14361   4.862   2.760   4.027
  133OSM   H13F14362   4.779   2.831   4.043
  133OSM   H13G14363   4.958   2.815   4.038
  133OSM   C14F14364   4.868   2.657   4.141
  133OSM   H14F14365   4.948   2.582   4.125
  133OSM   H14G14366   4.771   2.605   4.146
  133OSM   C15F14367   4.908   2.717   4.275
  133OSM   H15F14368   4.859   2.815   4.293
  133OSM   H15G14369   5.018   2.729   4.272
  133OSM   C16F14370   4.867   2.620   4.391
  133OSM   H16F14371   4.906   2.516   4.380
  133OSM   H16G14372   4.757   2.605   4.396
  133OSM   C17F14373   4.914   2.676   4.521
  133OSM   H17F14374   4.841   2.637   4.595
  133OSM   H17G14375   4.891   2.784   4.528
  133OSM   C18F14376   5.062   2.662   4.565
  133OSM   H18F14377   5.131   2.721   4.502
  133OSM   H18G14378   5.084   2.554   4.566
  133OSM   H18H14379   5.073   2.686   4.673
  134OSM      N14380   5.172   5.544   1.997
  134OSM    C1514381   5.134   5.499   1.864
  134OSM   H15A14382   5.061   5.570   1.831
  134OSM   H15B14383   5.082   5.404   1.867
  134OSM   H15C14384   5.212   5.495   1.789
  134OSM    C1414385   5.057   5.526   2.091
  134OSM   H14A14386   5.000   5.617   2.098
  134OSM   H14B14387   5.083   5.526   2.196
  134OSM   H14C14388   4.997   5.444   2.053
  134OSM    C1314389   5.297   5.464   2.034
  134OSM   H13A14390   5.282   5.360   2.010
  134OSM   H13B14391   5.324   5.464   2.139
  134OSM   H13C14392   5.381   5.511   1.986
  134OSM    C1214393   5.216   5.689   1.989
  134OSM   H12A14394   5.129   5.743   1.955
  134OSM   H12B14395   5.286   5.692   1.907
  134OSM    C1114396   5.254   5.758   2.122
  134OSM   H11A14397   5.319   5.844   2.095
  134OSM   H11B14398   5.319   5.691   2.182
  134OSM      P14399   5.063   5.932   2.156
  134OSM    O1314400   5.119   5.972   2.027
  134OSM    O1414401   4.918   5.913   2.161
  134OSM    O1114402   5.116   6.032   2.268
  134OSM    O1214403   5.141   5.802   2.198
  134OSM    C1S14404   5.091   6.009   2.406
  134OSM    H1S14405   4.993   5.958   2.418
  134OSM    H1T14406   5.071   6.101   2.465
  134OSM     NF14407   5.169   5.938   2.632
  134OSM    HNF14408   5.196   6.014   2.690
  134OSM    C2S14409   5.207   5.943   2.488
  134OSM    H2S14410   5.219   5.835   2.467
  134OSM    C3S14411   5.333   6.014   2.454
  134OSM    H3S14412   5.330   6.117   2.496
  134OSM     O314413   5.380   6.023   2.322
  134OSM    HO314414   5.302   6.014   2.268
  134OSM    C4S14415   5.441   5.943   2.526
  134OSM    H4S14416   5.484   5.858   2.471
  134OSM    C5S14417   5.492   5.974   2.643
  134OSM    H5S14418   5.448   6.061   2.694
  134OSM    C6S14419   5.603   5.904   2.717
  134OSM    H6S14420   5.697   5.900   2.658
  134OSM    H6T14421   5.584   5.796   2.738
  134OSM    C7S14422   5.618   5.956   2.857
  134OSM    H7S14423   5.527   5.974   2.919
  134OSM    H7T14424   5.667   6.056   2.862
  134OSM    C8S14425   5.719   5.876   2.937
  134OSM    H8S14426   5.818   5.863   2.888
  134OSM    H8T14427   5.671   5.777   2.950
  134OSM    C9S14428   5.752   5.922   3.078
  134OSM    H9S14429   5.664   5.916   3.146
  134OSM    H9T14430   5.781   6.029   3.084
  134OSM   C10S14431   5.856   5.851   3.163
  134OSM   H10S14432   5.949   5.825   3.109
  134OSM   H10T14433   5.830   5.747   3.191
  134OSM   C11S14434   5.895   5.927   3.289
  134OSM   H11S14435   5.974   6.002   3.266
  134OSM   H11T14436   5.934   5.849   3.359
  134OSM   C12S14437   5.778   5.995   3.366
  134OSM   H12S14438   5.682   5.942   3.347
  134OSM   H12T14439   5.764   6.097   3.325
  134OSM   C13S14440   5.807   5.988   3.521
  134OSM   H13S14441   5.916   6.003   3.538
  134OSM   H13T14442   5.783   5.885   3.555
  134OSM   C14S14443   5.733   6.097   3.605
  134OSM   H14S14444   5.624   6.079   3.591
  134OSM   H14T14445   5.763   6.192   3.556
  134OSM   C15S14446   5.769   6.093   3.750
  134OSM   H15S14447   5.879   6.080   3.753
  134OSM   H15T14448   5.728   6.000   3.795
  134OSM   C16S14449   5.731   6.218   3.832
  134OSM   H16S14450   5.653   6.267   3.770
  134OSM   H16T14451   5.822   6.282   3.838
  134OSM   C17S14452   5.674   6.179   3.972
  134OSM   H17S14453   5.587   6.111   3.960
  134OSM   H17T14454   5.646   6.268   4.033
  134OSM   C18S14455   5.778   6.094   4.047
  134OSM   H18S14456   5.880   6.138   4.050
  134OSM   H18T14457   5.793   5.991   4.008
  134OSM   H18U14458   5.751   6.095   4.155
  134OSM    C1F14459   5.077   5.859   2.679
  134OSM     OF14460   5.024   5.774   2.610
  134OSM    C2F14461   5.032   5.890   2.818
  134OSM    H2F14462   4.967   5.979   2.811
  134OSM    H2G14463   5.115   5.919   2.886
  134OSM    C3F14464   4.956   5.774   2.894
  134OSM    H3F14465   5.019   5.682   2.896
  134OSM    H3G14466   4.861   5.747   2.845
  134OSM    C4F14467   4.935   5.815   3.041
  134OSM    H4F14468   4.861   5.898   3.039
  134OSM    H4G14469   5.023   5.861   3.092
  134OSM    C5F14470   4.890   5.707   3.129
  134OSM    H5F14471   4.967   5.631   3.152
  134OSM    H5G14472   4.813   5.657   3.067
  134OSM    C6F14473   4.832   5.765   3.253
  134OSM    H6F14474   4.733   5.814   3.241
  134OSM    H6G14475   4.899   5.844   3.293
  134OSM    C7F14476   4.801   5.663   3.364
  134OSM    H7F14477   4.890   5.642   3.427
  134OSM    H7G14478   4.779   5.567   3.311
  134OSM    C8F14479   4.678   5.694   3.448
  134OSM    H8F14480   4.592   5.709   3.380
  134OSM    H8G14481   4.699   5.798   3.480
  134OSM    C9F14482   4.646   5.607   3.562
  134OSM    H9F14483   4.719   5.526   3.579
  134OSM   C10F14484   4.540   5.613   3.643
  134OSM   H10F14485   4.516   5.530   3.711
  134OSM   C11F14486   4.430   5.715   3.643
  134OSM   H11F14487   4.338   5.678   3.592
  134OSM   H11G14488   4.459   5.800   3.578
  134OSM   C12F14489   4.399   5.765   3.781
  134OSM   H12F14490   4.333   5.854   3.767
  134OSM   H12G14491   4.488   5.803   3.834
  134OSM   C13F14492   4.328   5.673   3.881
  134OSM   H13F14493   4.395   5.594   3.920
  134OSM   H13G14494   4.242   5.617   3.838
  134OSM   C14F14495   4.268   5.755   4.001
  134OSM   H14F14496   4.178   5.810   3.966
  134OSM   H14G14497   4.342   5.833   4.029
  134OSM   C15F14498   4.220   5.663   4.117
  134OSM   H15F14499   4.311   5.638   4.175
  134OSM   H15G14500   4.170   5.579   4.065
  134OSM   C16F14501   4.107   5.727   4.202
  134OSM   H16F14502   4.023   5.759   4.137
  134OSM   H16G14503   4.143   5.828   4.232
  134OSM   C17F14504   4.056   5.641   4.312
  134OSM   H17F14505   4.125   5.640   4.399
  134OSM   H17G14506   4.066   5.539   4.270
  134OSM   C18F14507   3.913   5.672   4.343
  134OSM   H18F14508   3.890   5.620   4.438
  134OSM   H18G14509   3.842   5.646   4.262
  134OSM   H18H14510   3.912   5.779   4.370
  135OSM      N14511   0.141   1.729   1.566
  135OSM    C1514512   0.040   1.838   1.572
  135OSM   H15A14513   6.820   1.826   1.648
  135OSM   H15B14514   6.844   1.845   1.478
  135OSM   H15C14515   0.083   1.936   1.586
  135OSM    C1414516   0.072   1.604   1.524
  135OSM   H14A14517   0.059   1.617   1.417
  135OSM   H14B14518   6.833   1.580   1.567
  135OSM   H14C14519   0.126   1.512   1.542
  135OSM    C1314520   0.247   1.776   1.478
  135OSM   H13A14521   0.285   1.873   1.508
  135OSM   H13B14522   0.208   1.800   1.380
  135OSM   H13C14523   0.332   1.710   1.472
  135OSM    C1214524   0.210   1.706   1.706
  135OSM   H12A14525   0.248   1.801   1.740
  135OSM   H12B14526   0.286   1.630   1.695
  135OSM    C1114527   0.134   1.647   1.830
  135OSM   H11A14528   0.211   1.623   1.907
  135OSM   H11B14529   0.090   1.548   1.803
  135OSM      P14530   0.053   1.865   1.953
  135OSM    O1314531   0.188   1.921   1.925
  135OSM    O1414532   6.797   1.960   1.938
  135OSM    O1114533   0.065   1.811   2.107
  135OSM    O1214534   0.024   1.730   1.872
  135OSM    C1S14535   6.814   1.730   2.159
  135OSM    H1S14536   6.851   1.626   2.150
  135OSM    H1T14537   6.716   1.745   2.110
  135OSM     NF14538   6.698   1.689   2.359
  135OSM    HNF14539   6.602   1.712   2.363
  135OSM    C2S14540   6.784   1.782   2.302
  135OSM    H2S14541   0.018   1.784   2.366
  135OSM    C3S14542   6.730   1.929   2.304
  135OSM    H3S14543   6.636   1.935   2.245
  135OSM     O314544   6.820   2.029   2.258
  135OSM    HO314545   0.015   1.975   2.198
  135OSM    C4S14546   6.698   1.963   2.447
  135OSM    H4S14547   6.782   1.999   2.508
  135OSM    C5S14548   6.572   1.978   2.494
  135OSM    H5S14549   6.492   1.958   2.420
  135OSM    C6S14550   6.527   2.016   2.635
  135OSM    H6S14551   6.444   1.949   2.663
  135OSM    H6T14552   6.483   2.117   2.629
  135OSM    C7S14553   6.636   2.023   2.741
  135OSM    H7S14554   6.713   2.101   2.721
  135OSM    H7T14555   6.697   1.931   2.729
  135OSM    C8S14556   6.569   2.027   2.873
  135OSM    H8S14557   6.501   1.939   2.875
  135OSM    H8T14558   6.522   2.127   2.883
  135OSM    C9S14559   6.662   2.009   2.993
  135OSM    H9S14560   6.739   2.088   2.982
  135OSM    H9T14561   6.711   1.909   2.987
  135OSM   C10S14562   6.596   2.020   3.134
  135OSM   H10S14563   6.508   1.952   3.132
  135OSM   H10T14564   6.565   2.123   3.158
  135OSM   C11S14565   6.682   1.965   3.244
  135OSM   H11S14566   6.775   2.026   3.242
  135OSM   H11T14567   6.709   1.861   3.216
  135OSM   C12S14568   6.608   1.962   3.381
  135OSM   H12S14569   6.521   1.899   3.357
  135OSM   H12T14570   6.584   2.065   3.415
  135OSM   C13S14571   6.688   1.885   3.484
  135OSM   H13S14572   6.794   1.910   3.464
  135OSM   H13T14573   6.679   1.777   3.459
  135OSM   C14S14574   6.670   1.914   3.633
  135OSM   H14S14575   6.579   1.856   3.659
  135OSM   H14T14576   6.680   2.019   3.668
  135OSM   C15S14577   6.776   1.841   3.709
  135OSM   H15S14578   0.012   1.902   3.712
  135OSM   H15T14579   6.802   1.744   3.663
  135OSM   C16S14580   6.728   1.799   3.850
  135OSM   H16S14581   6.628   1.754   3.836
  135OSM   H16T14582   6.713   1.882   3.922
  135OSM   C17S14583   6.815   1.692   3.924
  135OSM   H17S14584   6.849   1.610   3.858
  135OSM   H17T14585   6.755   1.640   4.001
  135OSM   C18S14586   0.080   1.751   3.999
  135OSM   H18S14587   0.053   1.839   4.061
  135OSM   H18T14588   0.159   1.795   3.934
  135OSM   H18U14589   0.146   1.681   4.054
  135OSM    C1F14590   6.712   1.559   2.397
  135OSM     OF14591   6.813   1.491   2.380
  135OSM    C2F14592   6.587   1.501   2.461
  135OSM    H2F14593   6.512   1.482   2.382
  135OSM    H2G14594   6.547   1.557   2.548
  135OSM    C3F14595   6.600   1.360   2.516
  135OSM    H3F14596   6.634   1.293   2.435
  135OSM    H3G14597   6.498   1.327   2.545
  135OSM    C4F14598   6.690   1.334   2.633
  135OSM    H4F14599   6.676   1.416   2.706
  135OSM    H4G14600   6.795   1.338   2.595
  135OSM    C5F14601   6.663   1.195   2.703
  135OSM    H5F14602   6.753   1.182   2.768
  135OSM    H5G14603   6.663   1.114   2.627
  135OSM    C6F14604   6.537   1.188   2.785
  135OSM    H6F14605   6.444   1.172   2.725
  135OSM    H6G14606   6.524   1.292   2.820
  135OSM    C7F14607   6.525   1.088   2.899
  135OSM    H7F14608   6.607   1.106   2.971
  135OSM    H7G14609   6.532   0.987   2.851
  135OSM    C8F14610   6.385   1.090   2.967
  135OSM    H8F14611   6.318   1.076   2.880
  135OSM    H8G14612   6.353   1.188   3.008
  135OSM    C9F14613   6.365   0.973   3.058
  135OSM    H9F14614   6.360   0.876   3.007
  135OSM   C10F14615   6.344   0.961   3.186
  135OSM   H10F14616   6.306   0.864   3.220
  135OSM   C11F14617   6.343   1.065   3.285
  135OSM   H11F14618   6.236   1.075   3.312
  135OSM   H11G14619   6.376   1.164   3.247
  135OSM   C12F14620   6.448   1.039   3.399
  135OSM   H12F14621   6.552   1.054   3.364
  135OSM   H12G14622   6.444   0.933   3.433
  135OSM   C13F14623   6.420   1.120   3.524
  135OSM   H13F14624   6.409   1.227   3.495
  135OSM   H13G14625   6.512   1.124   3.586
  135OSM   C14F14626   6.297   1.069   3.603
  135OSM   H14F14627   6.323   0.972   3.650
  135OSM   H14G14628   6.207   1.058   3.538
  135OSM   C15F14629   6.275   1.160   3.726
  135OSM   H15F14630   6.235   1.254   3.682
  135OSM   H15G14631   6.374   1.189   3.768
  135OSM   C16F14632   6.183   1.102   3.830
  135OSM   H16F14633   6.231   1.010   3.871
  135OSM   H16G14634   6.091   1.072   3.774
  135OSM   C17F14635   6.138   1.181   3.953
  135OSM   H17F14636   6.087   1.270   3.910
  135OSM   H17G14637   6.227   1.233   3.994
  135OSM   C18F14638   6.053   1.107   4.053
  135OSM   H18F14639   5.954   1.073   4.016
  135OSM   H18G14640   6.050   1.169   4.144
  135OSM   H18H14641   6.098   1.010   4.083
  136OSM      N14642   2.069   5.088   1.695
  136OSM    C1514643   2.181   5.178   1.727
  136OSM   H15A14644   2.203   5.188   1.832
  136OSM   H15B14645   2.170   5.280   1.694
  136OSM   H15C14646   2.272   5.140   1.682
  136OSM    C1414647   1.949   5.151   1.759
  136OSM   H14A14648   1.962   5.146   1.866
  136OSM   H14B14649   1.857   5.098   1.737
  136OSM   H14C14650   1.943   5.254   1.730
  136OSM    C1314651   2.055   5.088   1.549
  136OSM   H13A14652   2.023   5.179   1.502
  136OSM   H13B14653   1.985   5.012   1.517
  136OSM   H13C14654   2.149   5.070   1.498
  136OSM    C1214655   2.109   4.958   1.752
  136OSM   H12A14656   2.203   4.918   1.716
  136OSM   H12B14657   2.044   4.888   1.701
  136OSM    C1114658   2.100   4.933   1.900
  136OSM   H11A14659   2.120   4.826   1.919
  136OSM   H11B14660   1.997   4.952   1.937
  136OSM      P14661   2.344   4.994   1.988
  136OSM    O1314662   2.390   4.897   1.884
  136OSM    O1414663   2.416   5.122   1.994
  136OSM    O1114664   2.346   4.938   2.129
  136OSM    O1214665   2.190   5.023   1.966
  136OSM    C1S14666   2.260   4.997   2.226
  136OSM    H1S14667   2.155   4.979   2.193
  136OSM    H1T14668   2.276   5.106   2.235
  136OSM     NF14669   2.177   4.942   2.452
  136OSM    HNF14670   2.188   5.005   2.528
  136OSM    C2S14671   2.294   4.936   2.366
  136OSM    H2S14672   2.308   4.828   2.344
  136OSM    C3S14673   2.414   5.016   2.423
  136OSM    H3S14674   2.365   5.109   2.458
  136OSM     O314675   2.523   5.050   2.334
  136OSM    HO314676   2.485   5.024   2.250
  136OSM    C4S14677   2.466   4.944   2.544
  136OSM    H4S14678   2.414   4.970   2.637
  136OSM    C5S14679   2.557   4.842   2.546
  136OSM    H5S14680   2.605   4.811   2.452
  136OSM    C6S14681   2.590   4.756   2.669
  136OSM    H6S14682   2.700   4.763   2.688
  136OSM    H6T14683   2.569   4.647   2.665
  136OSM    C7S14684   2.506   4.800   2.788
  136OSM    H7S14685   2.396   4.801   2.772
  136OSM    H7T14686   2.522   4.904   2.822
  136OSM    C8S14687   2.530   4.708   2.911
  136OSM    H8S14688   2.638   4.701   2.937
  136OSM    H8T14689   2.486   4.607   2.898
  136OSM    C9S14690   2.464   4.766   3.037
  136OSM    H9S14691   2.358   4.786   3.008
  136OSM    H9T14692   2.518   4.856   3.071
  136OSM   C10S14693   2.457   4.657   3.142
  136OSM   H10S14694   2.565   4.651   3.166
  136OSM   H10T14695   2.421   4.558   3.106
  136OSM   C11S14696   2.389   4.703   3.277
  136OSM   H11S14697   2.298   4.743   3.228
  136OSM   H11T14698   2.446   4.788   3.321
  136OSM   C12S14699   2.364   4.604   3.385
  136OSM   H12S14700   2.456   4.579   3.441
  136OSM   H12T14701   2.326   4.507   3.345
  136OSM   C13S14702   2.259   4.653   3.479
  136OSM   H13S14703   2.166   4.664   3.420
  136OSM   H13T14704   2.280   4.756   3.514
  136OSM   C14S14705   2.240   4.557   3.591
  136OSM   H14S14706   2.334   4.552   3.649
  136OSM   H14T14707   2.201   4.458   3.558
  136OSM   C15S14708   2.130   4.621   3.675
  136OSM   H15S14709   2.031   4.604   3.626
  136OSM   H15T14710   2.141   4.730   3.686
  136OSM   C16S14711   2.121   4.564   3.815
  136OSM   H16S14712   2.208   4.597   3.876
  136OSM   H16T14713   2.105   4.454   3.816
  136OSM   C17S14714   2.000   4.623   3.887
  136OSM   H17S14715   1.922   4.607   3.810
  136OSM   H17T14716   2.012   4.733   3.887
  136OSM   C18S14717   1.989   4.563   4.022
  136OSM   H18S14718   1.882   4.561   4.054
  136OSM   H18T14719   2.046   4.632   4.088
  136OSM   H18U14720   2.044   4.467   4.031
  136OSM    C1F14721   2.067   4.866   2.446
  136OSM     OF14722   2.055   4.775   2.366
  136OSM    C2F14723   1.954   4.888   2.533
  136OSM    H2F14724   1.862   4.879   2.472
  136OSM    H2G14725   1.949   4.996   2.561
  136OSM    C3F14726   1.954   4.781   2.654
  136OSM    H3F14727   2.052   4.767   2.705
  136OSM    H3G14728   1.929   4.686   2.603
  136OSM    C4F14729   1.857   4.813   2.769
  136OSM    H4F14730   1.759   4.780   2.729
  136OSM    H4G14731   1.855   4.921   2.795
  136OSM    C5F14732   1.895   4.746   2.901
  136OSM    H5F14733   2.004   4.757   2.920
  136OSM    H5G14734   1.875   4.637   2.894
  136OSM    C6F14735   1.839   4.822   3.024
  136OSM    H6F14736   1.728   4.828   3.020
  136OSM    H6G14737   1.894   4.919   3.024
  136OSM    C7F14738   1.878   4.763   3.165
  136OSM    H7F14739   1.986   4.734   3.162
  136OSM    H7G14740   1.812   4.674   3.177
  136OSM    C8F14741   1.841   4.868   3.274
  136OSM    H8F14742   1.738   4.907   3.260
  136OSM    H8G14743   1.896   4.961   3.250
  136OSM    C9F14744   1.880   4.800   3.405
  136OSM    H9F14745   1.923   4.699   3.399
  136OSM   C10F14746   1.870   4.860   3.526
  136OSM   H10F14747   1.903   4.808   3.616
  136OSM   C11F14748   1.826   4.994   3.565
  136OSM   H11F14749   1.788   5.050   3.477
  136OSM   H11G14750   1.903   5.050   3.622
  136OSM   C12F14751   1.699   4.979   3.663
  136OSM   H12F14752   1.742   4.942   3.758
  136OSM   H12G14753   1.629   4.909   3.612
  136OSM   C13F14754   1.617   5.110   3.684
  136OSM   H13F14755   1.570   5.137   3.587
  136OSM   H13G14756   1.697   5.183   3.707
  136OSM   C14F14757   1.519   5.104   3.797
  136OSM   H14F14758   1.443   5.027   3.772
  136OSM   H14G14759   1.475   5.206   3.799
  136OSM   C15F14760   1.582   5.073   3.939
  136OSM   H15F14761   1.603   5.172   3.986
  136OSM   H15G14762   1.678   5.017   3.929
  136OSM   C16F14763   1.470   5.016   4.027
  136OSM   H16F14764   1.515   4.995   4.126
  136OSM   H16G14765   1.431   4.923   3.981
  136OSM   C17F14766   1.359   5.118   4.044
  136OSM   H17F14767   1.297   5.125   3.952
  136OSM   H17G14768   1.407   5.217   4.059
  136OSM   C18F14769   1.259   5.097   4.164
  136OSM   H18F14770   1.171   5.162   4.143
  136OSM   H18G14771   1.303   5.117   4.264
  136OSM   H18H14772   1.223   4.993   4.154
  137OSM      N14773   0.819   2.696   1.482
  137OSM    C1514774   0.902   2.607   1.394
  137OSM   H15A14775   1.000   2.647   1.371
  137OSM   H15B14776   0.853   2.592   1.299
  137OSM   H15C14777   0.918   2.517   1.451
  137OSM    C1414778   0.796   2.823   1.404
  137OSM   H14A14779   0.727   2.890   1.452
  137OSM   H14B14780   0.762   2.783   1.309
  137OSM   H14C14781   0.885   2.884   1.393
  137OSM    C1314782   0.688   2.633   1.509
  137OSM   H13A14783   0.643   2.693   1.586
  137OSM   H13B14784   0.700   2.538   1.560
  137OSM   H13C14785   0.618   2.623   1.428
  137OSM    C1214786   0.886   2.737   1.613
  137OSM   H12A14787   0.953   2.816   1.582
  137OSM   H12B14788   0.950   2.660   1.655
  137OSM    C1114789   0.800   2.791   1.733
  137OSM   H11A14790   0.880   2.813   1.806
  137OSM   H11B14791   0.734   2.719   1.786
  137OSM      P14792   0.767   3.044   1.693
  137OSM    O1314793   0.900   3.056   1.635
  137OSM    O1414794   0.658   3.130   1.639
  137OSM    O1114795   0.780   3.069   1.850
  137OSM    O1214796   0.717   2.896   1.688
  137OSM    C1S14797   0.683   3.032   1.948
  137OSM    H1S14798   0.614   2.952   1.914
  137OSM    H1T14799   0.614   3.119   1.955
  137OSM     NF14800   0.649   2.962   2.184
  137OSM    HNF14801   0.643   3.026   2.260
  137OSM    C2S14802   0.744   2.997   2.083
  137OSM    H2S14803   0.801   2.905   2.054
  137OSM    C3S14804   0.853   3.101   2.126
  137OSM    H3S14805   0.796   3.180   2.178
  137OSM     O314806   0.936   3.158   2.019
  137OSM    HO314807   0.884   3.115   1.950
  137OSM    C4S14808   0.933   3.025   2.238
  137OSM    H4S14809   0.879   3.024   2.334
  137OSM    C5S14810   1.040   2.952   2.221
  137OSM    H5S14811   1.091   2.953   2.123
  137OSM    C6S14812   1.104   2.866   2.331
  137OSM    H6S14813   1.212   2.883   2.349
  137OSM    H6T14814   1.108   2.760   2.297
  137OSM    C7S14815   1.026   2.867   2.472
  137OSM    H7S14816   0.922   2.830   2.460
  137OSM    H7T14817   1.014   2.971   2.509
  137OSM    C8S14818   1.084   2.770   2.579
  137OSM    H8S14819   1.194   2.779   2.591
  137OSM    H8T14820   1.072   2.668   2.536
  137OSM    C9S14821   1.006   2.788   2.704
  137OSM    H9S14822   0.903   2.749   2.700
  137OSM    H9T14823   0.996   2.899   2.710
  137OSM   C10S14824   1.093   2.746   2.823
  137OSM   H10S14825   1.193   2.790   2.804
  137OSM   H10T14826   1.104   2.636   2.834
  137OSM   C11S14827   1.032   2.792   2.961
  137OSM   H11S14828   0.929   2.751   2.959
  137OSM   H11T14829   1.034   2.903   2.961
  137OSM   C12S14830   1.110   2.748   3.078
  137OSM   H12S14831   1.204   2.805   3.092
  137OSM   H12T14832   1.153   2.647   3.059
  137OSM   C13S14833   1.032   2.755   3.210
  137OSM   H13S14834   0.940   2.700   3.181
  137OSM   H13T14835   1.003   2.860   3.231
  137OSM   C14S14836   1.106   2.700   3.331
  137OSM   H14S14837   1.201   2.758   3.335
  137OSM   H14T14838   1.123   2.592   3.308
  137OSM   C15S14839   1.033   2.720   3.467
  137OSM   H15S14840   0.946   2.652   3.475
  137OSM   H15T14841   0.986   2.820   3.474
  137OSM   C16S14842   1.116   2.715   3.591
  137OSM   H16S14843   1.204   2.783   3.594
  137OSM   H16T14844   1.157   2.612   3.590
  137OSM   C17S14845   1.042   2.740   3.726
  137OSM   H17S14846   1.011   2.847   3.735
  137OSM   H17T14847   1.128   2.736   3.796
  137OSM   C18S14848   0.937   2.647   3.760
  137OSM   H18S14849   0.848   2.672   3.698
  137OSM   H18T14850   0.898   2.651   3.864
  137OSM   H18U14851   0.964   2.541   3.742
  137OSM    C1F14852   0.564   2.860   2.185
  137OSM     OF14853   0.573   2.773   2.095
  137OSM    C2F14854   0.459   2.864   2.286
  137OSM    H2F14855   0.364   2.871   2.228
  137OSM    H2G14856   0.468   2.950   2.356
  137OSM    C3F14857   0.463   2.722   2.362
  137OSM    H3F14858   0.571   2.711   2.386
  137OSM    H3G14859   0.432   2.636   2.299
  137OSM    C4F14860   0.385   2.715   2.492
  137OSM    H4F14861   0.281   2.748   2.474
  137OSM    H4G14862   0.433   2.782   2.567
  137OSM    C5F14863   0.375   2.569   2.539
  137OSM    H5F14864   0.471   2.513   2.541
  137OSM    H5G14865   0.301   2.513   2.479
  137OSM    C6F14866   0.312   2.556   2.680
  137OSM    H6F14867   0.302   2.448   2.703
  137OSM    H6G14868   0.206   2.589   2.686
  137OSM    C7F14869   0.389   2.623   2.791
  137OSM    H7F14870   0.333   2.594   2.882
  137OSM    H7G14871   0.399   2.734   2.790
  137OSM    C8F14872   0.537   2.571   2.810
  137OSM    H8F14873   0.597   2.588   2.718
  137OSM    H8G14874   0.536   2.462   2.830
  137OSM    C9F14875   0.597   2.649   2.925
  137OSM    H9F14876   0.614   2.755   2.904
  137OSM   C10F14877   0.644   2.609   3.045
  137OSM   H10F14878   0.684   2.698   3.096
  137OSM   C11F14879   0.630   2.473   3.104
  137OSM   H11F14880   0.727   2.421   3.118
  137OSM   H11G14881   0.568   2.404   3.043
  137OSM   C12F14882   0.549   2.449   3.234
  137OSM   H12F14883   0.535   2.340   3.252
  137OSM   H12G14884   0.450   2.499   3.228
  137OSM   C13F14885   0.625   2.503   3.363
  137OSM   H13F14886   0.633   2.613   3.358
  137OSM   H13G14887   0.724   2.453   3.355
  137OSM   C14F14888   0.557   2.452   3.493
  137OSM   H14F14889   0.544   2.342   3.487
  137OSM   H14G14890   0.454   2.494   3.496
  137OSM   C15F14891   0.621   2.497   3.625
  137OSM   H15F14892   0.638   2.606   3.630
  137OSM   H15G14893   0.722   2.455   3.642
  137OSM   C16F14894   0.531   2.448   3.741
  137OSM   H16F14895   0.514   2.341   3.714
  137OSM   H16G14896   0.434   2.501   3.725
  137OSM   C17F14897   0.600   2.445   3.873
  137OSM   H17F14898   0.654   2.541   3.892
  137OSM   H17G14899   0.672   2.362   3.867
  137OSM   C18F14900   0.514   2.404   3.989
  137OSM   H18F14901   0.414   2.452   3.987
  137OSM   H18G14902   0.564   2.420   4.086
  137OSM   H18H14903   0.496   2.296   3.971
  138OSM      N14904   5.640   6.333   2.258
  138OSM    C1514905   5.732   6.295   2.143
  138OSM   H15A14906   5.720   6.190   2.119
  138OSM   H15B14907   5.836   6.309   2.169
  138OSM   H15C14908   5.711   6.358   2.058
  138OSM    C1414909   5.679   6.252   2.377
  138OSM   H14A14910   5.775   6.277   2.420
  138OSM   H14B14911   5.685   6.146   2.357
  138OSM   H14C14912   5.604   6.254   2.455
  138OSM    C1314913   5.675   6.476   2.294
  138OSM   H13A14914   5.771   6.506   2.332
  138OSM   H13B14915   5.593   6.505   2.358
  138OSM   H13C14916   5.664   6.545   2.212
  138OSM    C1214917   5.501   6.338   2.209
  138OSM   H12A14918   5.479   6.240   2.171
  138OSM   H12B14919   5.490   6.407   2.126
  138OSM    C1114920   5.393   6.372   2.310
  138OSM   H11A14921   5.405   6.301   2.394
  138OSM   H11B14922   5.286   6.353   2.284
  138OSM      P14923   5.350   6.623   2.269
  138OSM    O1314924   5.458   6.712   2.226
  138OSM    O1414925   5.271   6.562   2.162
  138OSM    O1114926   5.262   6.695   2.372
  138OSM    O1214927   5.407   6.506   2.362
  138OSM    C1S14928   5.223   6.652   2.500
  138OSM    H1S14929   5.246   6.545   2.518
  138OSM    H1T14930   5.112   6.649   2.504
  138OSM     NF14931   5.207   6.709   2.735
  138OSM    HNF14932   5.133   6.766   2.770
  138OSM    C2S14933   5.269   6.757   2.614
  138OSM    H2S14934   5.379   6.745   2.627
  138OSM    C3S14935   5.225   0.043   2.584
  138OSM    H3S14936   5.115   0.045   2.571
  138OSM     O314937   5.265   0.083   2.455
  138OSM    HO314938   5.296   0.005   2.409
  138OSM    C4S14939   5.267   0.148   2.686
  138OSM    H4S14940   5.372   0.177   2.670
  138OSM    C5S14941   5.192   0.206   2.783
  138OSM    H5S14942   5.083   0.191   2.795
  138OSM    C6S14943   5.252   0.323   2.861
  138OSM    H6S14944   5.190   0.409   2.829
  138OSM    H6T14945   5.360   0.339   2.841
  138OSM    C7S14946   5.229   0.292   3.013
  138OSM    H7S14947   5.297   0.347   3.081
  138OSM    H7T14948   5.242   0.182   3.022
  138OSM    C8S14949   5.083   0.324   3.061
  138OSM    H8S14950   5.019   0.285   2.979
  138OSM    H8T14951   5.066   0.434   3.066
  138OSM    C9S14952   5.053   0.260   3.201
  138OSM    H9S14953   5.058   0.150   3.186
  138OSM    H9T14954   4.946   0.280   3.225
  138OSM   C10S14955   5.146   0.313   3.307
  138OSM   H10S14956   5.170   0.421   3.306
  138OSM   H10T14957   5.245   0.272   3.278
  138OSM   C11S14958   5.127   0.273   3.454
  138OSM   H11S14959   5.021   0.249   3.477
  138OSM   H11T14960   5.156   0.362   3.515
  138OSM   C12S14961   5.219   0.160   3.501
  138OSM   H12S14962   5.316   0.177   3.449
  138OSM   H12T14963   5.181   0.059   3.474
  138OSM   C13S14964   5.238   0.158   3.650
  138OSM   H13S14965   5.135   0.173   3.689
  138OSM   H13T14966   5.290   0.252   3.677
  138OSM   C14S14967   5.300   0.028   3.698
  138OSM   H14S14968   5.396   0.001   3.650
  138OSM   H14T14969   5.234   6.802   3.661
  138OSM   C15S14970   5.321   0.002   3.843
  138OSM   H15S14971   5.375   0.090   3.883
  138OSM   H15T14972   5.387   6.769   3.849
  138OSM   C16S14973   5.196   0.001   3.926
  138OSM   H16S14974   5.132   6.770   3.899
  138OSM   H16T14975   5.150   0.101   3.916
  138OSM   C17S14976   5.232   6.820   4.074
  138OSM   H17S14977   5.132   6.804   4.120
  138OSM   H17T14978   5.268   0.058   4.119
  138OSM   C18S14979   5.323   6.702   4.112
  138OSM   H18S14980   5.300   6.610   4.053
  138OSM   H18T14981   5.324   6.671   4.219
  138OSM   H18U14982   5.430   6.729   4.093
  138OSM    C1F14983   5.237   6.594   2.804
  138OSM     OF14984   5.335   6.524   2.772
  138OSM    C2F14985   5.144   6.565   2.912
  138OSM    H2F14986   5.116   6.458   2.926
  138OSM    H2G14987   5.049   6.616   2.889
  138OSM    C3F14988   5.203   6.608   3.048
  138OSM    H3F14989   5.299   6.556   3.068
  138OSM    H3G14990   5.129   6.571   3.122
  138OSM    C4F14991   5.229   6.760   3.063
  138OSM    H4F14992   5.131   6.809   3.049
  138OSM    H4G14993   5.309   6.809   3.003
  138OSM    C5F14994   5.275   6.808   3.200
  138OSM    H5F14995   5.206   6.785   3.284
  138OSM    H5G14996   5.275   0.062   3.196
  138OSM    C6F14997   5.414   6.759   3.237
  138OSM    H6F14998   5.499   6.821   3.201
  138OSM    H6G14999   5.429   6.665   3.180
  138OSM    C7F15000   5.433   6.715   3.384
  138OSM    H7F15001   5.349   6.643   3.390
  138OSM    H7G15002   5.428   6.798   3.458
  138OSM    C8F15003   5.571   6.642   3.417
  138OSM    H8F15004   5.648   6.722   3.423
  138OSM    H8G15005   5.607   6.582   3.330
  138OSM    C9F15006   5.570   6.554   3.546
  138OSM    H9F15007   5.492   6.477   3.546
  138OSM   C10F15008   5.650   6.558   3.650
  138OSM   H10F15009   5.611   6.492   3.729
  138OSM   C11F15010   5.773   6.642   3.667
  138OSM   H11F15011   5.759   6.750   3.647
  138OSM   H11G15012   5.855   6.593   3.609
  138OSM   C12F15013   5.811   6.618   3.817
  138OSM   H12F15014   5.844   6.515   3.841
  138OSM   H12G15015   5.720   6.635   3.878
  138OSM   C13F15016   5.920   6.717   3.862
  138OSM   H13F15017   5.895   6.817   3.820
  138OSM   H13G15018   6.013   6.685   3.811
  138OSM   C14F15019   5.946   6.746   4.014
  138OSM   H14F15020   5.971   6.655   4.073
  138OSM   H14G15021   5.862   6.796   4.068
  138OSM   C15F15022   6.061   6.852   4.026
  138OSM   H15F15023   6.044   0.086   3.963
  138OSM   H15G15024   6.157   6.823   3.978
  138OSM   C16F15025   6.090   0.047   4.168
  138OSM   H16F15026   6.108   6.811   4.225
  138OSM   H16G15027   5.996   0.086   4.215
  138OSM   C17F15028   6.208   0.143   4.170
  138OSM   H17F15029   6.298   0.091   4.130
  138OSM   H17G15030   6.215   0.168   4.278
  138OSM   C18F15031   6.187   0.276   4.092
  138OSM   H18F15032   6.095   0.329   4.126
  138OSM   H18G15033   6.189   0.261   3.982
  138OSM   H18H15034   6.274   0.342   4.114
  139OSM      N15035   0.721   1.481   1.534
  139OSM    C1515036   0.765   1.374   1.437
  139OSM   H15A15037   0.729   1.279   1.474
  139OSM   H15B15038   0.873   1.374   1.434
  139OSM   H15C15039   0.722   1.410   1.345
  139OSM    C1415040   0.804   1.600   1.505
  139OSM   H14A15041   0.785   1.682   1.574
  139OSM   H14B15042   0.795   1.656   1.413
  139OSM   H14C15043   0.910   1.579   1.506
  139OSM    C1315044   0.576   1.503   1.515
  139OSM   H13A15045   0.530   1.407   1.496
  139OSM   H13B15046   0.553   1.576   1.440
  139OSM   H13C15047   0.531   1.526   1.611
  139OSM    C1215048   0.740   1.434   1.677
  139OSM   H12A15049   0.825   1.368   1.682
  139OSM   H12B15050   0.667   1.358   1.701
  139OSM    C1115051   0.755   1.528   1.798
  139OSM   H11A15052   0.656   1.577   1.810
  139OSM   H11B15053   0.828   1.608   1.773
  139OSM      P15054   0.923   1.470   1.987
  139OSM    O1315055   0.909   1.391   2.114
  139OSM    O1415056   1.034   1.431   1.898
  139OSM    O1115057   0.947   1.621   2.024
  139OSM    O1215058   0.787   1.461   1.914
  139OSM    C1S15059   0.837   1.694   2.076
  139OSM    H1S15060   0.741   1.648   2.044
  139OSM    H1T15061   0.840   1.800   2.042
  139OSM     NF15062   0.715   1.758   2.290
  139OSM    HNF15063   0.727   1.843   2.342
  139OSM    C2S15064   0.835   1.711   2.231
  139OSM    H2S15065   0.848   1.608   2.270
  139OSM    C3S15066   0.963   1.795   2.266
  139OSM    H3S15067   0.955   1.896   2.219
  139OSM     O315068   1.072   1.728   2.210
  139OSM    HO315069   1.029   1.687   2.134
  139OSM    C4S15070   0.984   1.803   2.411
  139OSM    H4S15071   1.040   1.727   2.467
  139OSM    C5S15072   0.932   1.907   2.482
  139OSM    H5S15073   0.900   1.999   2.430
  139OSM    C6S15074   0.962   1.923   2.629
  139OSM    H6S15075   0.873   1.957   2.687
  139OSM    H6T15076   1.041   1.999   2.643
  139OSM    C7S15077   1.005   1.796   2.708
  139OSM    H7S15078   1.088   1.748   2.652
  139OSM    H7T15079   0.920   1.724   2.701
  139OSM    C8S15080   1.037   1.829   2.858
  139OSM    H8S15081   1.118   1.906   2.864
  139OSM    H8T15082   1.079   1.741   2.910
  139OSM    C9S15083   0.913   1.876   2.938
  139OSM    H9S15084   0.816   1.824   2.922
  139OSM    H9T15085   0.889   1.978   2.901
  139OSM   C10S15086   0.926   1.893   3.087
  139OSM   H10S15087   1.019   1.943   3.120
  139OSM   H10T15088   0.931   1.796   3.141
  139OSM   C11S15089   0.800   1.968   3.129
  139OSM   H11S15090   0.711   1.922   3.082
  139OSM   H11T15091   0.805   2.074   3.096
  139OSM   C12S15092   0.780   1.979   3.285
  139OSM   H12S15093   0.858   2.037   3.338
  139OSM   H12T15094   0.795   1.880   3.331
  139OSM   C13S15095   0.634   2.014   3.321
  139OSM   H13S15096   0.556   1.969   3.255
  139OSM   H13T15097   0.635   2.125   3.315
  139OSM   C14S15098   0.607   1.985   3.465
  139OSM   H14S15099   0.614   1.876   3.483
  139OSM   H14T15100   0.502   2.018   3.483
  139OSM   C15S15101   0.699   2.060   3.569
  139OSM   H15S15102   0.680   2.169   3.558
  139OSM   H15T15103   0.806   2.038   3.552
  139OSM   C16S15104   0.663   2.036   3.712
  139OSM   H16S15105   0.553   2.047   3.726
  139OSM   H16T15106   0.703   2.102   3.792
  139OSM   C17S15107   0.704   1.888   3.763
  139OSM   H17S15108   0.732   1.839   3.667
  139OSM   H17T15109   0.626   1.830   3.818
  139OSM   C18S15110   0.836   1.889   3.840
  139OSM   H18S15111   0.912   1.954   3.792
  139OSM   H18T15112   0.870   1.784   3.852
  139OSM   H18U15113   0.829   1.931   3.943
  139OSM    C1F15114   0.595   1.699   2.291
  139OSM     OF15115   0.574   1.598   2.218
  139OSM    C2F15116   0.494   1.763   2.380
  139OSM    H2F15117   0.452   1.856   2.336
  139OSM    H2G15118   0.534   1.765   2.483
  139OSM    C3F15119   0.379   1.655   2.380
  139OSM    H3F15120   0.418   1.559   2.418
  139OSM    H3G15121   0.335   1.649   2.278
  139OSM    C4F15122   0.260   1.695   2.478
  139OSM    H4F15123   0.175   1.626   2.458
  139OSM    H4G15124   0.222   1.796   2.453
  139OSM    C5F15125   0.290   1.674   2.620
  139OSM    H5F15126   0.370   1.737   2.664
  139OSM    H5G15127   0.335   1.575   2.639
  139OSM    C6F15128   0.165   1.693   2.704
  139OSM    H6F15129   0.094   1.621   2.658
  139OSM    H6G15130   0.119   1.794   2.693
  139OSM    C7F15131   0.179   1.664   2.849
  139OSM    H7F15132   0.275   1.713   2.878
  139OSM    H7G15133   0.187   1.553   2.855
  139OSM    C8F15134   0.066   1.697   2.955
  139OSM    H8F15135   0.053   1.808   2.953
  139OSM    H8G15136   0.105   1.655   3.050
  139OSM    C9F15137   6.793   1.638   2.906
  139OSM    H9F15138   6.751   1.683   2.814
  139OSM   C10F15139   6.720   1.540   2.971
  139OSM   H10F15140   6.623   1.503   2.933
  139OSM   C11F15141   6.760   1.458   3.091
  139OSM   H11F15142   0.010   1.481   3.113
  139OSM   H11G15143   6.752   1.351   3.063
  139OSM   C12F15144   6.684   1.500   3.213
  139OSM   H12F15145   6.582   1.464   3.189
  139OSM   H12G15146   6.671   1.610   3.220
  139OSM   C13F15147   6.738   1.443   3.340
  139OSM   H13F15148   6.827   1.499   3.374
  139OSM   H13G15149   6.753   1.335   3.317
  139OSM   C14F15150   6.641   1.455   3.460
  139OSM   H14F15151   6.552   1.394   3.432
  139OSM   H14G15152   6.611   1.561   3.470
  139OSM   C15F15153   6.701   1.391   3.582
  139OSM   H15F15154   6.792   1.452   3.604
  139OSM   H15G15155   6.721   1.283   3.566
  139OSM   C16F15156   6.609   1.393   3.708
  139OSM   H16F15157   6.512   1.353   3.670
  139OSM   H16G15158   6.586   1.496   3.742
  139OSM   C17F15159   6.664   1.309   3.822
  139OSM   H17F15160   6.757   1.361   3.851
  139OSM   H17G15161   6.686   1.205   3.789
  139OSM   C18F15162   6.583   1.309   3.946
  139OSM   H18F15163   6.532   1.407   3.954
  139OSM   H18G15164   6.649   1.281   4.031
  139OSM   H18H15165   6.504   1.231   3.946
  140OSM      N15166   4.991   0.121   2.156
  140OSM    C1515167   4.919   0.170   2.030
  140OSM   H15A15168   4.972   0.154   1.937
  140OSM   H15B15169   4.897   0.275   2.041
  140OSM   H15C15170   4.827   0.115   2.020
  140OSM    C1415171   4.884   0.117   2.268
  140OSM   H14A15172   4.836   0.021   2.256
  140OSM   H14B15173   4.805   0.189   2.252
  140OSM   H14C15174   4.913   0.138   2.370
  140OSM    C1315175   5.043   6.839   2.128
  140OSM   H13A15176   4.969   6.780   2.076
  140OSM   H13B15177   5.086   6.790   2.214
  140OSM   H13C15178   5.121   6.850   2.054
  140OSM    C1215179   5.103   0.221   2.198
  140OSM   H12A15180   5.182   0.212   2.124
  140OSM   H12B15181   5.151   0.197   2.292
  140OSM    C1115182   5.065   0.371   2.198
  140OSM   H11A15183   5.052   0.417   2.097
  140OSM   H11B15184   5.154   0.416   2.247
  140OSM      P15185   4.835   0.491   2.226
  140OSM    O1315186   4.891   0.601   2.147
  140OSM    O1415187   4.749   0.395   2.160
  140OSM    O1115188   4.770   0.556   2.353
  140OSM    O1215189   4.955   0.408   2.283
  140OSM    C1S15190   4.690   0.459   2.428
  140OSM    H1S15191   4.741   0.360   2.439
  140OSM    H1T15192   4.596   0.431   2.377
  140OSM     NF15193   4.619   0.419   2.666
  140OSM    HNF15194   4.536   0.442   2.715
  140OSM    C2S15195   4.668   0.514   2.570
  140OSM    H2S15196   4.765   0.545   2.614
  140OSM    C3S15197   4.579   0.636   2.558
  140OSM    H3S15198   4.475   0.600   2.539
  140OSM     O315199   4.611   0.726   2.448
  140OSM    HO315200   4.684   0.678   2.407
  140OSM    C4S15201   4.567   0.712   2.691
  140OSM    H4S15202   4.654   0.764   2.732
  140OSM    C5S15203   4.446   0.738   2.749
  140OSM    H5S15204   4.364   0.683   2.700
  140OSM    C6S15205   4.410   0.815   2.868
  140OSM    H6S15206   4.345   0.897   2.832
  140OSM    H6T15207   4.507   0.848   2.913
  140OSM    C7S15208   4.346   0.713   2.968
  140OSM    H7S15209   4.371   0.606   2.957
  140OSM    H7T15210   4.237   0.717   2.946
  140OSM    C8S15211   4.366   0.755   3.117
  140OSM    H8S15212   4.328   0.859   3.126
  140OSM    H8T15213   4.477   0.752   3.128
  140OSM    C9S15214   4.288   0.671   3.224
  140OSM    H9S15215   4.292   0.565   3.189
  140OSM    H9T15216   4.182   0.705   3.222
  140OSM   C10S15217   4.346   0.686   3.362
  140OSM   H10S15218   4.345   0.795   3.386
  140OSM   H10T15219   4.453   0.664   3.340
  140OSM   C11S15220   4.296   0.598   3.472
  140OSM   H11S15221   4.324   0.492   3.453
  140OSM   H11T15222   4.185   0.595   3.473
  140OSM   C12S15223   4.363   0.641   3.609
  140OSM   H12S15224   4.351   0.751   3.618
  140OSM   H12T15225   4.469   0.608   3.603
  140OSM   C13S15226   4.292   0.592   3.732
  140OSM   H13S15227   4.319   0.485   3.748
  140OSM   H13T15228   4.183   0.589   3.713
  140OSM   C14S15229   4.332   0.676   3.851
  140OSM   H14S15230   4.331   0.785   3.827
  140OSM   H14T15231   4.441   0.656   3.860
  140OSM   C15S15232   4.265   0.631   3.982
  140OSM   H15S15233   4.286   0.522   3.989
  140OSM   H15T15234   4.155   0.638   3.967
  140OSM   C16S15235   4.296   0.710   4.111
  140OSM   H16S15236   4.228   0.665   4.187
  140OSM   H16T15237   4.285   0.817   4.085
  140OSM   C17S15238   4.441   0.695   4.161
  140OSM   H17S15239   4.519   0.706   4.083
  140OSM   H17T15240   4.434   0.588   4.191
  140OSM   C18S15241   4.461   0.787   4.281
  140OSM   H18S15242   4.551   0.755   4.338
  140OSM   H18T15243   4.368   0.799   4.339
  140OSM   H18U15244   4.487   0.890   4.247
  140OSM    C1F15245   4.679   0.297   2.692
  140OSM     OF15246   4.785   0.260   2.646
  140OSM    C2F15247   4.618   0.214   2.808
  140OSM    H2F15248   4.632   0.105   2.790
  140OSM    H2G15249   4.511   0.242   2.819
  140OSM    C3F15250   4.695   0.234   2.945
  140OSM    H3F15251   4.801   0.209   2.923
  140OSM    H3G15252   4.646   0.168   3.020
  140OSM    C4F15253   4.704   0.371   3.014
  140OSM    H4F15254   4.749   0.437   2.936
  140OSM    H4G15255   4.779   0.362   3.096
  140OSM    C5F15256   4.574   0.419   3.084
  140OSM    H5F15257   4.497   0.428   3.004
  140OSM    H5G15258   4.584   0.526   3.113
  140OSM    C6F15259   4.524   0.333   3.201
  140OSM    H6F15260   4.502   0.229   3.168
  140OSM    H6G15261   4.427   0.364   3.243
  140OSM    C7F15262   4.624   0.312   3.315
  140OSM    H7F15263   4.717   0.268   3.274
  140OSM    H7G15264   4.575   0.239   3.382
  140OSM    C8F15265   4.655   0.436   3.398
  140OSM    H8F15266   4.564   0.474   3.450
  140OSM    H8G15267   4.693   0.515   3.331
  140OSM    C9F15268   4.771   0.408   3.492
  140OSM    H9F15269   4.863   0.424   3.435
  140OSM   C10F15270   4.782   0.374   3.620
  140OSM   H10F15271   4.882   0.335   3.643
  140OSM   C11F15272   4.666   0.344   3.711
  140OSM   H11F15273   4.631   0.239   3.700
  140OSM   H11G15274   4.586   0.408   3.668
  140OSM   C12F15275   4.706   0.377   3.854
  140OSM   H12F15276   4.728   0.485   3.861
  140OSM   H12G15277   4.798   0.322   3.882
  140OSM   C13F15278   4.589   0.364   3.950
  140OSM   H13F15279   4.542   0.264   3.953
  140OSM   H13G15280   4.519   0.435   3.902
  140OSM   C14F15281   4.613   0.405   4.095
  140OSM   H14F15282   4.516   0.416   4.147
  140OSM   H14G15283   4.670   0.500   4.095
  140OSM   C15F15284   4.697   0.293   4.167
  140OSM   H15F15285   4.773   0.255   4.096
  140OSM   H15G15286   4.626   0.213   4.196
  140OSM   C16F15287   4.780   0.344   4.290
  140OSM   H16F15288   4.706   0.369   4.370
  140OSM   H16G15289   4.835   0.437   4.265
  140OSM   C17F15290   4.867   0.230   4.338
  140OSM   H17F15291   4.832   0.131   4.300
  140OSM   H17G15292   4.868   0.230   4.449
  140OSM   C18F15293   5.015   0.241   4.286
  140OSM   H18F15294   5.063   0.334   4.322
  140OSM   H18G15295   5.014   0.236   4.175
  140OSM   H18H15296   5.080   0.155   4.315
  141OSM      N15297   0.640   4.457   1.698
  141OSM    C1515298   0.781   4.397   1.689
  141OSM   H15A15299   0.817   4.392   1.791
  141OSM   H15B15300   0.849   4.455   1.628
  141OSM   H15C15301   0.788   4.295   1.655
  141OSM    C1415302   0.570   4.447   1.566
  141OSM   H14A15303   0.617   4.504   1.488
  141OSM   H14B15304   0.465   4.469   1.583
  141OSM   H14C15305   0.569   4.343   1.537
  141OSM    C1315306   0.564   4.366   1.788
  141OSM   H13A15307   0.622   4.345   1.877
  141OSM   H13B15308   0.547   4.268   1.746
  141OSM   H13C15309   0.464   4.399   1.812
  141OSM    C1215310   0.640   4.599   1.741
  141OSM   H12A15311   0.543   4.645   1.733
  141OSM   H12B15312   0.708   4.658   1.682
  141OSM    C1115313   0.678   4.628   1.890
  141OSM   H11A15314   0.593   4.585   1.948
  141OSM   H11B15315   0.684   4.739   1.891
  141OSM      P15316   0.897   4.594   2.033
  141OSM    O1315317   0.984   4.475   2.064
  141OSM    O1415318   0.969   4.722   1.998
  141OSM    O1115319   0.794   4.617   2.163
  141OSM    O1215320   0.799   4.564   1.920
  141OSM    C1S15321   0.713   4.499   2.189
  141OSM    H1S15322   0.773   4.406   2.187
  141OSM    H1T15323   0.618   4.487   2.134
  141OSM     NF15324   0.632   4.369   2.395
  141OSM    HNF15325   0.536   4.343   2.398
  141OSM    C2S15326   0.665   4.500   2.339
  141OSM    H2S15327   0.750   4.539   2.399
  141OSM    C3S15328   0.547   4.610   2.350
  141OSM    H3S15329   0.457   4.564   2.304
  141OSM     O315330   0.563   4.729   2.275
  141OSM    HO315331   0.649   4.713   2.235
  141OSM    C4S15332   0.513   4.641   2.489
  141OSM    H4S15333   0.458   4.556   2.531
  141OSM    C5S15334   0.535   4.755   2.559
  141OSM    H5S15335   0.581   4.840   2.506
  141OSM    C6S15336   0.471   4.783   2.694
  141OSM    H6S15337   0.360   4.777   2.687
  141OSM    H6T15338   0.485   4.885   2.735
  141OSM    C7S15339   0.532   4.685   2.801
  141OSM    H7S15340   0.642   4.683   2.783
  141OSM    H7T15341   0.509   4.580   2.772
  141OSM    C8S15342   0.499   4.730   2.949
  141OSM    H8S15343   0.549   4.824   2.980
  141OSM    H8T15344   0.544   4.653   3.015
  141OSM    C9S15345   0.348   4.733   2.987
  141OSM    H9S15346   0.313   4.628   2.978
  141OSM    H9T15347   0.294   4.785   2.904
  141OSM   C10S15348   0.314   4.781   3.133
  141OSM   H10S15349   0.205   4.798   3.145
  141OSM   H10T15350   0.359   4.883   3.142
  141OSM   C11S15351   0.360   4.690   3.248
  141OSM   H11S15352   0.468   4.712   3.261
  141OSM   H11T15353   0.355   4.587   3.209
  141OSM   C12S15354   0.274   4.706   3.371
  141OSM   H12S15355   0.258   4.814   3.394
  141OSM   H12T15356   0.317   4.653   3.459
  141OSM   C13S15357   0.148   4.614   3.362
  141OSM   H13S15358   0.179   4.508   3.360
  141OSM   H13T15359   0.098   4.624   3.264
  141OSM   C14S15360   0.054   4.638   3.478
  141OSM   H14S15361   6.851   4.728   3.453
  141OSM   H14T15362   0.115   4.666   3.566
  141OSM   C15S15363   6.811   4.524   3.519
  141OSM   H15S15364   0.021   4.444   3.558
  141OSM   H15T15365   6.758   4.495   3.426
  141OSM   C16S15366   6.719   4.568   3.637
  141OSM   H16S15367   6.657   4.649   3.594
  141OSM   H16T15368   6.783   4.608   3.718
  141OSM   C17S15369   6.644   4.448   3.679
  141OSM   H17S15370   6.704   4.385   3.747
  141OSM   H17T15371   6.624   4.374   3.599
  141OSM   C18S15372   6.510   4.476   3.743
  141OSM   H18S15373   6.435   4.394   3.732
  141OSM   H18T15374   6.473   4.559   3.680
  141OSM   H18U15375   6.510   4.504   3.850
  141OSM    C1F15376   0.722   4.266   2.416
  141OSM     OF15377   0.846   4.288   2.404
  141OSM    C2F15378   0.664   4.132   2.439
  141OSM    H2F15379   0.712   4.057   2.372
  141OSM    H2G15380   0.558   4.121   2.407
  141OSM    C3F15381   0.708   4.090   2.582
  141OSM    H3F15382   0.817   4.108   2.587
  141OSM    H3G15383   0.694   3.981   2.599
  141OSM    C4F15384   0.643   4.181   2.692
  141OSM    H4F15385   0.538   4.144   2.702
  141OSM    H4G15386   0.637   4.288   2.665
  141OSM    C5F15387   0.721   4.179   2.823
  141OSM    H5F15388   0.827   4.208   2.807
  141OSM    H5G15389   0.723   4.079   2.870
  141OSM    C6F15390   0.658   4.270   2.940
  141OSM    H6F15391   0.663   4.378   2.918
  141OSM    H6G15392   0.726   4.249   3.026
  141OSM    C7F15393   0.515   4.238   2.974
  141OSM    H7F15394   0.500   4.129   2.991
  141OSM    H7G15395   0.450   4.254   2.885
  141OSM    C8F15396   0.476   4.315   3.097
  141OSM    H8F15397   0.365   4.307   3.107
  141OSM    H8G15398   0.495   4.423   3.076
  141OSM    C9F15399   0.551   4.259   3.220
  141OSM    H9F15400   0.656   4.229   3.207
  141OSM   C10F15401   0.502   4.235   3.345
  141OSM   H10F15402   0.579   4.198   3.414
  141OSM   C11F15403   0.361   4.262   3.385
  141OSM   H11F15404   0.303   4.168   3.376
  141OSM   H11G15405   0.311   4.329   3.312
  141OSM   C12F15406   0.333   4.336   3.517
  141OSM   H12F15407   0.226   4.328   3.545
  141OSM   H12G15408   0.343   4.446   3.509
  141OSM   C13F15409   0.411   4.293   3.643
  141OSM   H13F15410   0.497   4.361   3.658
  141OSM   H13G15411   0.451   4.190   3.632
  141OSM   C14F15412   0.323   4.296   3.773
  141OSM   H14F15413   0.250   4.380   3.777
  141OSM   H14G15414   0.397   4.323   3.851
  141OSM   C15F15415   0.257   4.158   3.801
  141OSM   H15F15416   0.328   4.072   3.787
  141OSM   H15G15417   0.167   4.147   3.738
  141OSM   C16F15418   0.200   4.134   3.946
  141OSM   H16F15419   0.271   4.187   4.014
  141OSM   H16G15420   0.205   4.028   3.977
  141OSM   C17F15421   0.059   4.207   3.961
  141OSM   H17F15422   6.839   4.160   3.896
  141OSM   H17G15423   0.064   4.313   3.928
  141OSM   C18F15424   0.007   4.206   4.109
  141OSM   H18F15425   0.038   4.294   4.170
  141OSM   H18G15426   0.045   4.113   4.155
  141OSM   H18H15427   6.753   4.203   4.102
  142OSM      N15428   1.271   5.613   2.306
  142OSM    C1515429   1.239   5.757   2.286
  142OSM   H15A15430   1.185   5.793   2.372
  142OSM   H15B15431   1.180   5.760   2.195
  142OSM   H15C15432   1.335   5.800   2.262
  142OSM    C1415433   1.324   5.585   2.446
  142OSM   H14A15434   1.420   5.630   2.463
  142OSM   H14B15435   1.340   5.481   2.471
  142OSM   H14C15436   1.245   5.617   2.513
  142OSM    C1315437   1.144   5.536   2.300
  142OSM   H13A15438   1.087   5.546   2.209
  142OSM   H13B15439   1.087   5.563   2.387
  142OSM   H13C15440   1.158   5.429   2.307
  142OSM    C1215441   1.367   5.567   2.195
  142OSM   H12A15442   1.321   5.581   2.098
  142OSM   H12B15443   1.372   5.460   2.209
  142OSM    C1115444   1.506   5.641   2.201
  142OSM   H11A15445   1.564   5.587   2.124
  142OSM   H11B15446   1.547   5.620   2.302
  142OSM      P15447   1.626   5.881   2.220
  142OSM    O1315448   1.724   5.888   2.110
  142OSM    O1415449   1.547   6.003   2.249
  142OSM    O1115450   1.683   5.823   2.348
  142OSM    O1215451   1.509   5.783   2.169
  142OSM    C1S15452   1.794   5.867   2.427
  142OSM    H1S15453   1.871   5.918   2.366
  142OSM    H1T15454   1.847   5.777   2.462
  142OSM     NF15455   1.873   6.036   2.588
  142OSM    HNF15456   1.914   5.987   2.664
  142OSM    C2S15457   1.756   5.958   2.544
  142OSM    H2S15458   1.684   6.036   2.510
  142OSM    C3S15459   1.696   5.874   2.660
  142OSM    H3S15460   1.776   5.804   2.694
  142OSM     O315461   1.588   5.802   2.617
  142OSM    HO315462   1.602   5.787   2.523
  142OSM    C4S15463   1.661   5.946   2.790
  142OSM    H4S15464   1.742   5.959   2.862
  142OSM    C5S15465   1.544   6.008   2.807
  142OSM    H5S15466   1.470   6.015   2.726
  142OSM    C6S15467   1.488   6.072   2.932
  142OSM    H6S15468   1.382   6.041   2.920
  142OSM    H6T15469   1.495   6.183   2.921
  142OSM    C7S15470   1.539   6.036   3.070
  142OSM    H7S15471   1.650   6.034   3.078
  142OSM    H7T15472   1.505   5.935   3.101
  142OSM    C8S15473   1.476   6.132   3.178
  142OSM    H8S15474   1.366   6.131   3.160
  142OSM    H8T15475   1.505   6.238   3.166
  142OSM    C9S15476   1.483   6.071   3.323
  142OSM    H9S15477   1.588   6.068   3.361
  142OSM    H9T15478   1.457   5.964   3.308
  142OSM   C10S15479   1.379   6.123   3.420
  142OSM   H10S15480   1.287   6.065   3.396
  142OSM   H10T15481   1.375   6.234   3.412
  142OSM   C11S15482   1.431   6.096   3.562
  142OSM   H11S15483   1.530   6.147   3.573
  142OSM   H11T15484   1.462   5.990   3.554
  142OSM   C12S15485   1.333   6.125   3.679
  142OSM   H12S15486   1.313   6.234   3.679
  142OSM   H12T15487   1.392   6.103   3.771
  142OSM   C13S15488   1.192   6.068   3.676
  142OSM   H13S15489   1.192   5.991   3.596
  142OSM   H13T15490   1.108   6.139   3.663
  142OSM   C14S15491   1.150   5.995   3.807
  142OSM   H14S15492   1.229   5.923   3.839
  142OSM   H14T15493   1.059   5.934   3.788
  142OSM   C15S15494   1.112   6.107   3.909
  142OSM   H15S15495   1.014   6.153   3.884
  142OSM   H15T15496   1.190   6.186   3.913
  142OSM   C16S15497   1.093   6.060   4.056
  142OSM   H16S15498   1.068   6.150   4.117
  142OSM   H16T15499   1.190   6.017   4.087
  142OSM   C17S15500   0.980   5.958   4.084
  142OSM   H17S15501   1.004   5.868   4.022
  142OSM   H17T15502   0.880   6.002   4.062
  142OSM   C18S15503   0.975   5.902   4.228
  142OSM   H18S15504   1.076   5.867   4.260
  142OSM   H18T15505   0.923   5.804   4.221
  142OSM   H18U15506   0.942   5.977   4.303
  142OSM    C1F15507   1.936   6.128   2.523
  142OSM     OF15508   1.893   6.177   2.417
  142OSM    C2F15509   2.076   6.164   2.574
  142OSM    H2F15510   2.131   6.171   2.478
  142OSM    H2G15511   2.110   6.088   2.648
  142OSM    C3F15512   2.065   6.303   2.643
  142OSM    H3F15513   2.051   6.381   2.566
  142OSM    H3G15514   2.162   6.337   2.685
  142OSM    C4F15515   1.961   6.306   2.758
  142OSM    H4F15516   1.976   6.219   2.825
  142OSM    H4G15517   1.853   6.304   2.735
  142OSM    C5F15518   1.979   6.427   2.852
  142OSM    H5F15519   1.973   6.523   2.797
  142OSM    H5G15520   2.085   6.433   2.885
  142OSM    C6F15521   1.870   6.415   2.961
  142OSM    H6F15522   1.772   6.383   2.919
  142OSM    H6G15523   1.851   6.518   2.997
  142OSM    C7F15524   1.911   6.328   3.076
  142OSM    H7F15525   2.019   6.347   3.096
  142OSM    H7G15526   1.900   6.224   3.039
  142OSM    C8F15527   1.821   6.365   3.199
  142OSM    H8F15528   1.717   6.360   3.160
  142OSM    H8G15529   1.847   6.467   3.236
  142OSM    C9F15530   1.845   6.250   3.298
  142OSM    H9F15531   1.820   6.149   3.265
  142OSM   C10F15532   1.859   6.268   3.432
  142OSM   H10F15533   1.882   6.180   3.492
  142OSM   C11F15534   1.858   6.397   3.507
  142OSM   H11F15535   1.900   6.481   3.447
  142OSM   H11G15536   1.921   6.390   3.599
  142OSM   C12F15537   1.713   6.438   3.545
  142OSM   H12F15538   1.669   6.353   3.602
  142OSM   H12G15539   1.656   6.457   3.452
  142OSM   C13F15540   1.710   6.570   3.625
  142OSM   H13F15541   1.755   6.660   3.578
  142OSM   H13G15542   1.769   6.556   3.719
  142OSM   C14F15543   1.574   6.618   3.669
  142OSM   H14F15544   1.512   6.641   3.580
  142OSM   H14G15545   1.586   6.709   3.732
  142OSM   C15F15546   1.492   6.506   3.752
  142OSM   H15F15547   1.476   6.415   3.691
  142OSM   H15G15548   1.389   6.545   3.766
  142OSM   C16F15549   1.557   6.471   3.878
  142OSM   H16F15550   1.551   6.556   3.950
  142OSM   H16G15551   1.664   6.446   3.859
  142OSM   C17F15552   1.487   6.363   3.960
  142OSM   H17F15553   1.488   6.268   3.903
  142OSM   H17G15554   1.382   6.383   3.992
  142OSM   C18F15555   1.580   6.345   4.084
  142OSM   H18F15556   1.530   6.301   4.174
  142OSM   H18G15557   1.612   6.447   4.113
  142OSM   H18H15558   1.667   6.279   4.063
  143OSM      N15559   1.116   4.911   2.258
  143OSM    C1515560   1.173   4.930   2.397
  143OSM   H15A15561   1.281   4.933   2.404
  143OSM   H15B15562   1.159   4.839   2.454
  143OSM   H15C15563   1.131   5.015   2.449
  143OSM    C1415564   1.146   5.032   2.178
  143OSM   H14A15565   1.117   5.120   2.233
  143OSM   H14B15566   1.101   5.017   2.081
  143OSM   H14C15567   1.252   5.051   2.167
  143OSM    C1315568   1.186   4.784   2.200
  143OSM   H13A15569   1.140   4.755   2.107
  143OSM   H13B15570   1.176   4.704   2.272
  143OSM   H13C15571   1.290   4.810   2.183
  143OSM    C1215572   0.962   4.884   2.277
  143OSM   H12A15573   0.947   4.817   2.361
  143OSM   H12B15574   0.926   4.830   2.190
  143OSM    C1115575   0.871   5.005   2.302
  143OSM   H11A15576   0.906   5.056   2.395
  143OSM   H11B15577   0.765   4.975   2.312
  143OSM      P15578   0.839   5.253   2.213
  143OSM    O1315579   0.883   5.332   2.096
  143OSM    O1415580   0.694   5.259   2.240
  143OSM    O1115581   0.914   5.298   2.340
  143OSM    O1215582   0.885   5.106   2.197
  143OSM    C1S15583   0.867   5.328   2.472
  143OSM    H1S15584   0.759   5.309   2.488
  143OSM    H1T15585   0.885   5.437   2.487
  143OSM     NF15586   0.870   5.287   2.705
  143OSM    HNF15587   0.912   5.363   2.754
  143OSM    C2S15588   0.946   5.253   2.585
  143OSM    H2S15589   0.950   5.143   2.574
  143OSM    C3S15590   1.097   5.299   2.587
  143OSM    H3S15591   1.092   5.409   2.601
  143OSM     O315592   1.153   5.284   2.453
  143OSM    HO315593   1.076   5.280   2.396
  143OSM    C4S15594   1.177   5.228   2.693
  143OSM    H4S15595   1.133   5.225   2.794
  143OSM    C5S15596   1.272   5.133   2.678
  143OSM    H5S15597   1.304   5.090   2.582
  143OSM    C6S15598   1.326   5.048   2.787
  143OSM    H6S15599   1.433   5.022   2.770
  143OSM    H6T15600   1.272   4.951   2.779
  143OSM    C7S15601   1.313   5.094   2.936
  143OSM    H7S15602   1.204   5.102   2.959
  143OSM    H7T15603   1.364   5.192   2.949
  143OSM    C8S15604   1.358   4.984   3.034
  143OSM    H8S15605   1.467   4.977   3.016
  143OSM    H8T15606   1.314   4.887   3.002
  143OSM    C9S15607   1.310   5.007   3.178
  143OSM    H9S15608   1.199   4.996   3.182
  143OSM    H9T15609   1.325   5.117   3.185
  143OSM   C10S15610   1.380   4.929   3.287
  143OSM   H10S15611   1.488   4.923   3.266
  143OSM   H10T15612   1.355   4.821   3.279
  143OSM   C11S15613   1.363   4.996   3.425
  143OSM   H11S15614   1.408   5.098   3.428
  143OSM   H11T15615   1.417   4.938   3.503
  143OSM   C12S15616   1.217   5.001   3.469
  143OSM   H12S15617   1.169   4.903   3.448
  143OSM   H12T15618   1.156   5.078   3.417
  143OSM   C13S15619   1.204   5.027   3.621
  143OSM   H13S15620   1.271   5.110   3.651
  143OSM   H13T15621   1.240   4.937   3.676
  143OSM   C14S15622   1.052   5.062   3.655
  143OSM   H14S15623   0.991   4.987   3.601
  143OSM   H14T15624   1.032   5.161   3.607
  143OSM   C15S15625   1.035   5.065   3.804
  143OSM   H15S15626   1.090   5.152   3.845
  143OSM   H15T15627   1.071   4.967   3.839
  143OSM   C16S15628   0.896   5.108   3.850
  143OSM   H16S15629   0.819   5.044   3.803
  143OSM   H16T15630   0.871   5.214   3.830
  143OSM   C17S15631   0.871   5.076   3.998
  143OSM   H17S15632   0.898   5.157   4.069
  143OSM   H17T15633   0.911   4.974   4.018
  143OSM   C18S15634   0.717   5.065   4.033
  143OSM   H18S15635   0.666   5.008   3.952
  143OSM   H18T15636   0.671   5.165   4.041
  143OSM   H18U15637   0.713   5.007   4.128
  143OSM    C1F15638   0.757   5.222   2.731
  143OSM     OF15639   0.704   5.141   2.650
  143OSM    C2F15640   0.690   5.251   2.859
  143OSM    H2F15641   0.725   5.351   2.893
  143OSM    H2G15642   0.717   5.175   2.935
  143OSM    C3F15643   0.537   5.230   2.844
  143OSM    H3F15644   0.520   5.126   2.808
  143OSM    H3G15645   0.492   5.296   2.766
  143OSM    C4F15646   0.466   5.273   2.971
  143OSM    H4F15647   0.361   5.297   2.944
  143OSM    H4G15648   0.515   5.370   2.991
  143OSM    C5F15649   0.477   5.185   3.096
  143OSM    H5F15650   0.581   5.151   3.117
  143OSM    H5G15651   0.423   5.090   3.074
  143OSM    C6F15652   0.422   5.235   3.236
  143OSM    H6F15653   0.311   5.238   3.235
  143OSM    H6G15654   0.458   5.338   3.258
  143OSM    C7F15655   0.478   5.142   3.342
  143OSM    H7F15656   0.589   5.146   3.351
  143OSM    H7G15657   0.431   5.047   3.310
  143OSM    C8F15658   0.432   5.193   3.482
  143OSM    H8F15659   0.328   5.171   3.512
  143OSM    H8G15660   0.436   5.304   3.474
  143OSM    C9F15661   0.531   5.156   3.582
  143OSM    H9F15662   0.628   5.207   3.576
  143OSM   C10F15663   0.517   5.057   3.670
  143OSM   H10F15664   0.598   5.027   3.739
  143OSM   C11F15665   0.390   4.969   3.693
  143OSM   H11F15666   0.438   4.876   3.730
  143OSM   H11G15667   0.332   4.947   3.600
  143OSM   C12F15668   0.296   5.015   3.804
  143OSM   H12F15669   0.272   5.121   3.822
  143OSM   H12G15670   0.349   4.980   3.895
  143OSM   C13F15671   0.165   4.941   3.784
  143OSM   H13F15672   0.167   4.832   3.761
  143OSM   H13G15673   0.120   4.985   3.693
  143OSM   C14F15674   0.068   4.972   3.899
  143OSM   H14F15675   6.823   4.930   3.885
  143OSM   H14G15676   0.036   5.079   3.901
  143OSM   C15F15677   0.104   4.930   4.040
  143OSM   H15F15678   0.179   4.998   4.085
  143OSM   H15G15679   0.155   4.831   4.039
  143OSM   C16F15680   6.846   4.905   4.139
  143OSM   H16F15681   0.025   4.854   4.232
  143OSM   H16G15682   6.778   4.828   4.096
  143OSM   C17F15683   6.762   5.034   4.168
  143OSM   H17F15684   6.707   5.074   4.080
  143OSM   H17G15685   6.824   5.120   4.203
  143OSM   C18F15686   6.650   5.013   4.271
  143OSM   H18F15687   6.575   4.944   4.229
  143OSM   H18G15688   6.596   5.108   4.290
  143OSM   H18H15689   6.686   4.980   4.370
  144OSM      N15690   0.707   6.359   1.927
  144OSM    C1515691   0.689   6.350   2.071
  144OSM   H15A15692   0.616   6.272   2.086
  144OSM   H15B15693   0.636   6.435   2.111
  144OSM   H15C15694   0.785   6.329   2.117
  144OSM    C1415695   0.581   6.386   1.850
  144OSM   H14A15696   0.595   6.414   1.747
  144OSM   H14B15697   0.532   6.463   1.908
  144OSM   H14C15698   0.522   6.296   1.853
  144OSM    C1315699   0.786   6.491   1.903
  144OSM   H13A15700   0.742   6.572   1.958
  144OSM   H13B15701   0.791   6.519   1.798
  144OSM   H13C15702   0.885   6.485   1.945
  144OSM    C1215703   0.785   6.238   1.862
  144OSM   H12A15704   0.786   6.258   1.755
  144OSM   H12B15705   0.726   6.148   1.864
  144OSM    C1115706   0.924   6.194   1.909
  144OSM   H11A15707   1.003   6.269   1.888
  144OSM   H11B15708   0.967   6.108   1.854
  144OSM      P15709   0.911   6.010   2.097
  144OSM    O1315710   0.771   5.971   2.077
  144OSM    O1415711   1.023   5.928   2.032
  144OSM    O1115712   0.937   6.012   2.250
  144OSM    O1215713   0.922   6.162   2.053
  144OSM    C1S15714   0.881   6.117   2.334
  144OSM    H1S15715   0.778   6.144   2.303
  144OSM    H1T15716   0.936   6.213   2.325
  144OSM     NF15717   0.819   6.189   2.557
  144OSM    HNF15718   0.884   6.250   2.601
  144OSM    C2S15719   0.876   6.077   2.486
  144OSM    H2S15720   0.802   5.997   2.510
  144OSM    C3S15721   1.009   6.030   2.556
  144OSM    H3S15722   1.096   6.098   2.543
  144OSM     O315723   1.060   5.915   2.489
  144OSM    HO315724   1.009   5.905   2.408
  144OSM    C4S15725   0.980   5.988   2.694
  144OSM    H4S15726   0.892   5.922   2.700
  144OSM    C5S15727   1.053   6.020   2.803
  144OSM    H5S15728   1.147   6.076   2.797
  144OSM    C6S15729   1.030   5.963   2.944
  144OSM    H6S15730   1.077   5.863   2.954
  144OSM    H6T15731   0.920   5.953   2.953
  144OSM    C7S15732   1.075   6.067   3.053
  144OSM    H7S15733   1.026   6.164   3.029
  144OSM    H7T15734   1.183   6.085   3.039
  144OSM    C8S15735   1.016   6.032   3.187
  144OSM    H8S15736   1.036   6.110   3.264
  144OSM    H8T15737   1.051   5.931   3.214
  144OSM    C9S15738   0.863   6.010   3.187
  144OSM    H9S15739   0.835   5.907   3.157
  144OSM    H9T15740   0.805   6.074   3.117
  144OSM   C10S15741   0.804   6.032   3.331
  144OSM   H10S15742   0.696   6.004   3.321
  144OSM   H10T15743   0.786   6.137   3.361
  144OSM   C11S15744   0.890   5.958   3.432
  144OSM   H11S15745   0.987   6.010   3.447
  144OSM   H11T15746   0.914   5.862   3.383
  144OSM   C12S15747   0.828   5.938   3.571
  144OSM   H12S15748   0.910   5.907   3.639
  144OSM   H12T15749   0.748   5.862   3.559
  144OSM   C13S15750   0.777   6.072   3.627
  144OSM   H13S15751   0.700   6.098   3.551
  144OSM   H13T15752   0.860   6.145   3.615
  144OSM   C14S15753   0.715   6.052   3.764
  144OSM   H14S15754   0.791   6.053   3.845
  144OSM   H14T15755   0.660   5.956   3.771
  144OSM   C15S15756   0.619   6.172   3.784
  144OSM   H15S15757   0.543   6.172   3.703
  144OSM   H15T15758   0.669   6.270   3.767
  144OSM   C16S15759   0.560   6.172   3.921
  144OSM   H16S15760   0.482   6.093   3.920
  144OSM   H16T15761   0.502   6.265   3.940
  144OSM   C17S15762   0.651   6.150   4.036
  144OSM   H17S15763   0.733   6.223   4.022
  144OSM   H17T15764   0.688   6.045   4.034
  144OSM   C18S15765   0.582   6.175   4.167
  144OSM   H18S15766   0.511   6.260   4.159
  144OSM   H18T15767   0.652   6.181   4.253
  144OSM   H18U15768   0.516   6.091   4.199
  144OSM    C1F15769   0.693   6.238   2.540
  144OSM     OF15770   0.612   6.189   2.469
  144OSM    C2F15771   0.662   6.369   2.606
  144OSM    H2F15772   0.677   6.357   2.716
  144OSM    H2G15773   0.555   6.380   2.581
  144OSM    C3F15774   0.726   6.498   2.556
  144OSM    H3F15775   0.694   6.523   2.452
  144OSM    H3G15776   0.836   6.486   2.550
  144OSM    C4F15777   0.678   6.610   2.651
  144OSM    H4F15778   0.708   6.577   2.753
  144OSM    H4G15779   0.568   6.608   2.639
  144OSM    C5F15780   0.720   6.750   2.623
  144OSM    H5F15781   0.673   6.789   2.530
  144OSM    H5G15782   0.828   6.773   2.613
  144OSM    C6F15783   0.685   6.852   2.732
  144OSM    H6F15784   0.734   6.818   2.825
  144OSM    H6G15785   0.575   6.854   2.747
  144OSM    C7F15786   0.723   0.138   2.687
  144OSM    H7F15787   0.643   0.172   2.618
  144OSM    H7G15788   0.823   0.144   2.640
  144OSM    C8F15789   0.728   0.233   2.812
  144OSM    H8F15790   0.777   0.324   2.770
  144OSM    H8G15791   0.802   0.201   2.889
  144OSM    C9F15792   0.586   0.248   2.866
  144OSM    H9F15793   0.512   0.283   2.792
  144OSM   C10F15794   0.536   0.229   2.989
  144OSM   H10F15795   0.435   0.268   3.008
  144OSM   C11F15796   0.609   0.183   3.118
  144OSM   H11F15797   0.548   0.097   3.155
  144OSM   H11G15798   0.597   0.256   3.200
  144OSM   C12F15799   0.755   0.136   3.125
  144OSM   H12F15800   0.837   0.202   3.089
  144OSM   H12G15801   0.757   0.047   3.058
  144OSM   C13F15802   0.787   0.085   3.266
  144OSM   H13F15803   0.883   0.029   3.269
  144OSM   H13G15804   0.703   0.013   3.280
  144OSM   C14F15805   0.779   0.183   3.385
  144OSM   H14F15806   0.686   0.243   3.370
  144OSM   H14G15807   0.866   0.252   3.386
  144OSM   C15F15808   0.768   0.110   3.518
  144OSM   H15F15809   0.859   0.046   3.526
  144OSM   H15G15810   0.684   0.037   3.527
  144OSM   C16F15811   0.784   0.205   3.638
  144OSM   H16F15812   0.697   0.273   3.642
  144OSM   H16G15813   0.881   0.260   3.635
  144OSM   C17F15814   0.775   0.127   3.769
  144OSM   H17F15815   0.803   0.200   3.848
  144OSM   H17G15816   0.855   0.050   3.766
  144OSM   C18F15817   0.643   0.054   3.809
  144OSM   H18F15818   0.565   0.132   3.817
  144OSM   H18G15819   0.652   6.844   3.897
  144OSM   H18H15820   0.603   6.845   3.729
  145SAPE     N15821   0.549   1.421   6.635
  145SAPE   HN115822   0.480   1.343   6.639
  145SAPE   HN215823   0.541   1.468   6.727
  145SAPE   HN315824   0.524   1.494   6.566
  145SAPE   C1215825   0.695   1.380   6.617
  145SAPE  H12A15826   0.706   1.293   6.685
  145SAPE  H12B15827   0.754   1.469   6.648
  145SAPE   C1115828   0.710   1.338   6.475
  145SAPE  H11A15829   0.816   1.327   6.444
  145SAPE  H11B15830   0.662   1.407   6.403
  145SAPE     P15831   0.661   1.115   6.335
  145SAPE   O1315832   0.772   1.023   6.369
  145SAPE   O1415833   0.531   1.055   6.302
  145SAPE   O1215834   0.641   1.214   6.458
  145SAPE   O1115835   0.710   1.196   6.213
  145SAPE    C115836   0.642   1.238   6.096
  145SAPE    HA15837   0.562   1.310   6.125
  145SAPE    HB15838   0.710   1.303   6.037
  145SAPE    C215839   0.588   1.128   6.002
  145SAPE    HS15840   0.509   1.086   6.068
  145SAPE   O2115841   0.694   1.038   5.960
  145SAPE   C2115842   0.655   0.922   5.922
  145SAPE   O2215843   0.540   0.883   5.938
  145SAPE   C2215844   0.768   0.827   5.864
  145SAPE   H2R15845   0.862   0.870   5.903
  145SAPE   H2S15846   0.752   0.734   5.923
  145SAPE    C315847   0.526   1.199   5.879
  145SAPE    HX15848   0.601   1.224   5.801
  145SAPE    HY15849   0.474   1.292   5.910
  145SAPE   O3115850   0.431   1.114   5.811
  145SAPE   C3115851   0.355   1.181   5.725
  145SAPE   O3215852   0.352   1.299   5.707
  145SAPE   C3215853   0.272   1.086   5.632
  145SAPE   H2X15854   0.255   1.146   5.540
  145SAPE   H2Y15855   0.176   1.059   5.682
  145SAPE   C2315856   0.760   0.795   5.713
  145SAPE   H3R15857   0.659   0.766   5.678
  145SAPE   H3S15858   0.831   0.710   5.708
  145SAPE   C2415859   0.803   0.909   5.622
  145SAPE   H4R15860   0.754   0.999   5.663
  145SAPE   H4S15861   0.749   0.901   5.525
  145SAPE   C2515862   0.949   0.928   5.615
  145SAPE   H5R15863   1.000   0.973   5.702
  145SAPE   C2615864   1.028   0.906   5.505
  145SAPE   H6R15865   1.135   0.886   5.523
  145SAPE   C2715866   0.978   0.853   5.374
  145SAPE   H7R15867   0.875   0.813   5.385
  145SAPE   H7S15868   1.039   0.762   5.354
  145SAPE   C2815869   0.996   0.958   5.269
  145SAPE   H8R15870   0.943   1.049   5.299
  145SAPE   C2915871   1.044   0.942   5.140
  145SAPE   H9R15872   1.046   1.032   5.077
  145SAPE  C21015873   1.097   0.813   5.089
  145SAPE  H10R15874   1.093   0.736   5.170
  145SAPE  H10S15875   1.206   0.823   5.073
  145SAPE  C21115876   1.018   0.750   4.976
  145SAPE  H11R15877   0.944   0.673   5.003
  145SAPE  C21215878   1.036   0.768   4.841
  145SAPE  H12R15879   0.968   0.718   4.770
  145SAPE  C21315880   1.146   0.848   4.768
  145SAPE  H13R15881   1.214   0.906   4.834
  145SAPE  H13S15882   1.097   0.931   4.713
  145SAPE  C21415883   1.215   0.749   4.678
  145SAPE  H14R15884   1.302   0.696   4.720
  145SAPE  C21515885   1.196   0.733   4.546
  145SAPE  H15R15886   1.266   0.673   4.485
  145SAPE  C21615887   1.104   0.816   4.456
  145SAPE  H16R15888   1.078   0.910   4.508
  145SAPE  H16S15889   1.011   0.766   4.420
  145SAPE  C21715890   1.194   0.870   4.341
  145SAPE  H17R15891   1.205   0.794   4.261
  145SAPE  H17S15892   1.295   0.901   4.375
  145SAPE  C21815893   1.144   0.995   4.269
  145SAPE  H18R15894   1.118   1.066   4.351
  145SAPE  H18S15895   1.050   0.973   4.215
  145SAPE  C21915896   1.250   1.051   4.171
  145SAPE  H19R15897   1.275   0.975   4.095
  145SAPE  H19S15898   1.344   1.084   4.219
  145SAPE  C22015899   1.203   1.182   4.105
  145SAPE  H20R15900   1.167   1.245   4.189
  145SAPE  H20S15901   1.123   1.173   4.029
  145SAPE  H20T15902   1.289   1.238   4.062
  145SAPE   C3315903   0.326   0.943   5.596
  145SAPE   H3X15904   0.269   0.883   5.522
  145SAPE   H3Y15905   0.329   0.878   5.686
  145SAPE   C3415906   0.468   0.946   5.533
  145SAPE   H4X15907   0.501   0.842   5.515
  145SAPE   H4Y15908   0.534   1.003   5.601
  145SAPE   C3515909   0.479   0.996   5.386
  145SAPE   H5X15910   0.579   0.961   5.351
  145SAPE   H5Y15911   0.477   1.106   5.375
  145SAPE   C3615912   0.391   0.915   5.282
  145SAPE   H6X15913   0.290   0.956   5.298
  145SAPE   H6Y15914   0.388   0.806   5.305
  145SAPE   C3715915   0.428   0.932   5.133
  145SAPE   H7X15916   0.529   0.891   5.114
  145SAPE   H7Y15917   0.428   1.041   5.114
  145SAPE   C3815918   0.336   0.875   5.020
  145SAPE   H8X15919   0.244   0.938   5.018
  145SAPE   H8Y15920   0.306   0.768   5.028
  145SAPE   C3915921   0.394   0.899   4.877
  145SAPE   H9X15922   0.491   0.846   4.872
  145SAPE   H9Y15923   0.413   1.007   4.862
  145SAPE  C31015924   0.309   0.835   4.770
  145SAPE  H10X15925   0.219   0.896   4.748
  145SAPE  H10Y15926   0.288   0.730   4.800
  145SAPE  C31115927   0.396   0.818   4.645
  145SAPE  H11X15928   0.478   0.747   4.672
  145SAPE  H11Y15929   0.442   0.919   4.639
  145SAPE  C31215930   0.323   0.775   4.517
  145SAPE  H12X15931   0.382   0.815   4.432
  145SAPE  H12Y15932   0.231   0.835   4.500
  145SAPE  C31315933   0.302   0.631   4.494
  145SAPE  H13X15934   0.230   0.592   4.569
  145SAPE  H13Y15935   0.394   0.568   4.494
  145SAPE  C31415936   0.237   0.627   4.356
  145SAPE  H14X15937   0.305   0.666   4.277
  145SAPE  H14Y15938   0.145   0.690   4.353
  145SAPE  C31515939   0.195   0.482   4.316
  145SAPE  H15X15940   0.101   0.451   4.367
  145SAPE  H15Y15941   0.270   0.406   4.346
  145SAPE  C31615942   0.153   0.464   4.173
  145SAPE  H16X15943   0.053   0.509   4.156
  145SAPE  H16Y15944   0.127   0.357   4.162
  145SAPE  C31715945   0.248   0.522   4.062
  145SAPE  H17X15946   0.243   0.633   4.065
  145SAPE  H17Y15947   0.202   0.505   3.962
  145SAPE  C31815948   0.396   0.478   4.064
  145SAPE  H18X15949   0.422   0.388   4.004
  145SAPE  H18Y15950   0.426   0.451   4.167
  145SAPE  H18Z15951   0.467   0.552   4.020
  146SAPE     N15952   3.464   6.647   6.612
  146SAPE   HN115953   3.457   6.669   6.714
  146SAPE   HN215954   3.400   6.568   6.591
  146SAPE   HN315955   3.562   6.623   6.586
  146SAPE   C1215956   3.424   6.784   6.563
  146SAPE  H12A15957   3.344   6.822   6.629
  146SAPE  H12B15958   3.389   6.785   6.457
  146SAPE   C1115959   3.553   0.006   6.575
  146SAPE  H11A15960   3.525   0.106   6.535
  146SAPE  H11B15961   3.639   6.825   6.516
  146SAPE     P15962   3.680   0.134   6.771
  146SAPE   O1315963   3.577   0.223   6.839
  146SAPE   O1415964   3.785   0.079   6.858
  146SAPE   O1215965   3.603   0.011   6.708
  146SAPE   O1115966   3.736   0.198   6.639
  146SAPE    C115967   3.795   0.326   6.649
  146SAPE    HA15968   3.728   0.414   6.659
  146SAPE    HB15969   3.867   0.327   6.734
  146SAPE    C215970   3.873   0.362   6.516
  146SAPE    HS15971   3.958   0.425   6.547
  146SAPE   O2115972   3.792   0.453   6.437
  146SAPE   C2115973   3.863   0.535   6.360
  146SAPE   O2215974   3.980   0.550   6.357
  146SAPE   C2215975   3.766   0.608   6.267
  146SAPE   H2R15976   3.721   0.531   6.201
  146SAPE   H2S15977   3.681   0.647   6.327
  146SAPE    C315978   3.934   0.238   6.441
  146SAPE    HX15979   3.854   0.164   6.424
  146SAPE    HY15980   4.008   0.191   6.510
  146SAPE   O3115981   3.987   0.281   6.314
  146SAPE   C3115982   4.123   0.286   6.313
  146SAPE   O3215983   4.192   0.268   6.408
  146SAPE   C3215984   4.164   0.326   6.173
  146SAPE   H2X15985   4.257   0.385   6.192
  146SAPE   H2Y15986   4.101   0.393   6.111
  146SAPE   C2315987   3.830   0.709   6.171
  146SAPE   H3R15988   3.921   0.758   6.213
  146SAPE   H3S15989   3.758   0.790   6.149
  146SAPE   C2415990   3.870   0.640   6.038
  146SAPE   H4R15991   3.788   0.576   6.000
  146SAPE   H4S15992   3.956   0.576   6.069
  146SAPE   C2515993   3.922   0.731   5.929
  146SAPE   H5R15994   4.001   0.800   5.962
  146SAPE   C2615995   3.879   0.743   5.801
  146SAPE   H6R15996   3.941   0.793   5.726
  146SAPE   C2715997   3.763   0.673   5.732
  146SAPE   H7R15998   3.712   0.750   5.670
  146SAPE   H7S15999   3.686   0.639   5.804
  146SAPE   C2816000   3.800   0.552   5.646
  146SAPE   H8R16001   3.879   0.487   5.687
  146SAPE   C2916002   3.756   0.517   5.525
  146SAPE   H9R16003   3.804   0.431   5.476
  146SAPE  C21016004   3.646   0.581   5.439
  146SAPE  H10R16005   3.692   0.664   5.381
  146SAPE  H10S16006   3.564   0.621   5.502
  146SAPE  C21116007   3.579   0.483   5.342
  146SAPE  H11R16008   3.521   0.402   5.387
  146SAPE  C21216009   3.590   0.469   5.207
  146SAPE  H12R16010   3.534   0.391   5.154
  146SAPE  C21316011   3.689   0.542   5.119
  146SAPE  H13R16012   3.753   0.466   5.071
  146SAPE  H13S16013   3.763   0.605   5.173
  146SAPE  C21416014   3.624   0.633   5.024
  146SAPE  H14R16015   3.592   0.724   5.076
  146SAPE  C21516016   3.572   0.618   4.900
  146SAPE  H15R16017   3.525   0.701   4.844
  146SAPE  C21616018   3.575   0.490   4.830
  146SAPE  H16R16019   3.477   0.474   4.779
  146SAPE  H16S16020   3.591   0.408   4.904
  146SAPE  C21716021   3.676   0.469   4.717
  146SAPE  H17R16022   3.782   0.459   4.748
  146SAPE  H17S16023   3.667   0.556   4.649
  146SAPE  C21816024   3.643   0.344   4.638
  146SAPE  H18R16025   3.541   0.351   4.594
  146SAPE  H18S16026   3.650   0.260   4.710
  146SAPE  C21916027   3.743   0.313   4.524
  146SAPE  H19R16028   3.711   0.213   4.489
  146SAPE  H19S16029   3.840   0.311   4.578
  146SAPE  C22016030   3.739   0.406   4.407
  146SAPE  H20R16031   3.768   0.509   4.436
  146SAPE  H20S16032   3.641   0.428   4.360
  146SAPE  H20T16033   3.810   0.372   4.329
  146SAPE   C3316034   4.210   0.202   6.090
  146SAPE   H3X16035   4.275   0.139   6.155
  146SAPE   H3Y16036   4.256   0.235   5.994
  146SAPE   C3416037   4.084   0.128   6.054
  146SAPE   H4X16038   4.024   0.186   5.980
  146SAPE   H4Y16039   4.023   0.108   6.144
  146SAPE   C3516040   4.126   6.845   5.988
  146SAPE   H5X16041   4.038   6.778   5.981
  146SAPE   H5Y16042   4.206   6.789   6.040
  146SAPE   C3616043   4.174   0.014   5.845
  146SAPE   H6X16044   4.269   0.071   5.833
  146SAPE   H6Y16045   4.091   0.078   5.809
  146SAPE   C3716046   4.174   6.739   5.770
  146SAPE   H7X16047   4.072   6.696   5.783
  146SAPE   H7Y16048   4.244   6.665   5.815
  146SAPE   C3816049   4.206   6.756   5.622
  146SAPE   H8X16050   4.311   6.789   5.609
  146SAPE   H8Y16051   4.133   6.826   5.576
  146SAPE   C3916052   4.173   6.623   5.551
  146SAPE   H9X16053   4.073   6.603   5.595
  146SAPE   H9Y16054   4.244   6.543   5.581
  146SAPE  C31016055   4.141   6.635   5.401
  146SAPE  H10X16056   4.090   6.725   5.361
  146SAPE  H10Y16057   4.084   6.543   5.376
  146SAPE  C31116058   4.279   6.621   5.319
  146SAPE  H11X16059   4.294   6.512   5.339
  146SAPE  H11Y16060   4.358   6.689   5.358
  146SAPE  C31216061   4.268   6.649   5.166
  146SAPE  H12X16062   4.200   6.736   5.154
  146SAPE  H12Y16063   4.219   6.563   5.116
  146SAPE  C31316064   4.406   6.675   5.107
  146SAPE  H13X16065   4.450   6.576   5.080
  146SAPE  H13Y16066   4.476   6.734   5.170
  146SAPE  C31416067   4.382   6.754   4.976
  146SAPE  H14X16068   4.349   6.855   5.008
  146SAPE  H14Y16069   4.303   6.706   4.914
  146SAPE  C31516070   4.499   6.753   4.878
  146SAPE  H15X16071   4.532   6.650   4.856
  146SAPE  H15Y16072   4.582   6.800   4.936
  146SAPE  C31616073   4.477   6.845   4.754
  146SAPE  H16X16074   4.456   0.091   4.792
  146SAPE  H16Y16075   4.380   6.813   4.711
  146SAPE  C31716076   4.597   0.017   4.661
  146SAPE  H17X16077   4.662   0.079   4.726
  146SAPE  H17Y16078   4.563   0.082   4.578
  146SAPE  C31816079   4.666   6.752   4.602
  146SAPE  H18X16080   4.595   6.695   4.538
  146SAPE  H18Y16081   4.703   6.690   4.686
  146SAPE  H18Z16082   4.755   6.777   4.541
  147SAPE     N16083   3.874   5.378   6.478
  147SAPE   HN116084   3.783   5.422   6.454
  147SAPE   HN216085   3.934   5.373   6.393
  147SAPE   HN316086   3.854   5.282   6.513
  147SAPE   C1216087   3.932   5.465   6.587
  147SAPE  H12A16088   4.004   5.402   6.644
  147SAPE  H12B16089   3.850   5.487   6.658
  147SAPE   C1116090   3.986   5.596   6.536
  147SAPE  H11A16091   3.917   5.644   6.464
  147SAPE  H11B16092   4.066   5.573   6.462
  147SAPE     P16093   4.150   5.670   6.729
  147SAPE   O1316094   4.190   5.803   6.790
  147SAPE   O1416095   4.120   5.549   6.811
  147SAPE   O1216096   4.024   5.693   6.636
  147SAPE   O1116097   4.259   5.621   6.625
  147SAPE    C116098   4.370   5.717   6.606
  147SAPE    HA16099   4.326   5.817   6.591
  147SAPE    HB16100   4.429   5.712   6.700
  147SAPE    C216101   4.456   5.690   6.484
  147SAPE    HS16102   4.563   5.684   6.513
  147SAPE   O2116103   4.431   5.796   6.385
  147SAPE   C2116104   4.532   5.830   6.307
  147SAPE   O2216105   4.647   5.806   6.333
  147SAPE   C2216106   4.478   5.895   6.182
  147SAPE   H2R16107   4.421   5.814   6.132
  147SAPE   H2S16108   4.406   5.972   6.217
  147SAPE    C316109   4.408   5.555   6.416
  147SAPE    HX16110   4.298   5.559   6.401
  147SAPE    HY16111   4.426   5.469   6.484
  147SAPE   O3116112   4.487   5.529   6.296
  147SAPE   C3116113   4.418   5.504   6.182
  147SAPE   O3216114   4.294   5.490   6.179
  147SAPE   C3216115   4.510   5.516   6.059
  147SAPE   H2X16116   4.603   5.468   6.096
  147SAPE   H2Y16117   4.548   5.618   6.041
  147SAPE   C2316118   4.577   5.942   6.086
  147SAPE   H3R16119   4.643   5.856   6.060
  147SAPE   H3S16120   4.658   6.000   6.134
  147SAPE   C2416121   4.517   5.995   5.961
  147SAPE   H4R16122   4.453   6.085   5.978
  147SAPE   H4S16123   4.450   5.918   5.917
  147SAPE   C2516124   4.625   6.045   5.860
  147SAPE   H5R16125   4.683   6.136   5.883
  147SAPE   C2616126   4.652   5.991   5.739
  147SAPE   H6R16127   4.726   6.039   5.674
  147SAPE   C2716128   4.582   5.875   5.677
  147SAPE   H7R16129   4.505   5.922   5.612
  147SAPE   H7S16130   4.518   5.813   5.744
  147SAPE   C2816131   4.684   5.794   5.597
  147SAPE   H8R16132   4.764   5.747   5.656
  147SAPE   C2916133   4.691   5.790   5.461
  147SAPE   H9R16134   4.771   5.726   5.420
  147SAPE  C21016135   4.597   5.845   5.360
  147SAPE  H10R16136   4.610   5.955   5.363
  147SAPE  H10S16137   4.493   5.822   5.392
  147SAPE  C21116138   4.611   5.807   5.217
  147SAPE  H11R16139   4.610   5.698   5.199
  147SAPE  C21216140   4.616   5.899   5.120
  147SAPE  H12R16141   4.624   5.862   5.016
  147SAPE  C21316142   4.626   6.048   5.137
  147SAPE  H13R16143   4.696   6.075   5.219
  147SAPE  H13S16144   4.532   6.103   5.158
  147SAPE  C21416145   4.683   6.098   5.003
  147SAPE  H14R16146   4.790   6.121   5.016
  147SAPE  C21516147   4.627   6.105   4.879
  147SAPE  H15R16148   4.686   6.150   4.798
  147SAPE  C21616149   4.490   6.056   4.826
  147SAPE  H16R16150   4.418   6.035   4.908
  147SAPE  H16S16151   4.515   5.956   4.786
  147SAPE  C21716152   4.415   6.155   4.736
  147SAPE  H17R16153   4.385   6.251   4.782
  147SAPE  H17S16154   4.319   6.104   4.713
  147SAPE  C21816155   4.509   6.192   4.617
  147SAPE  H18R16156   4.541   6.096   4.571
  147SAPE  H18S16157   4.598   6.250   4.646
  147SAPE  C21916158   4.462   6.289   4.513
  147SAPE  H19R16159   4.444   6.389   4.559
  147SAPE  H19S16160   4.371   6.255   4.458
  147SAPE  C22016161   4.562   6.302   4.399
  147SAPE  H20R16162   4.654   6.344   4.444
  147SAPE  H20S16163   4.546   6.371   4.313
  147SAPE  H20T16164   4.585   6.199   4.365
  147SAPE   C3316165   4.465   5.460   5.919
  147SAPE   H3X16166   4.366   5.499   5.886
  147SAPE   H3Y16167   4.451   5.350   5.927
  147SAPE   C3416168   4.579   5.487   5.814
  147SAPE   H4X16169   4.675   5.452   5.856
  147SAPE   H4Y16170   4.592   5.597   5.805
  147SAPE   C3516171   4.546   5.396   5.690
  147SAPE   H5X16172   4.451   5.432   5.646
  147SAPE   H5Y16173   4.543   5.289   5.719
  147SAPE   C3616174   4.657   5.398   5.578
  147SAPE   H6X16175   4.751   5.370   5.630
  147SAPE   H6Y16176   4.666   5.503   5.545
  147SAPE   C3716177   4.627   5.301   5.467
  147SAPE   H7X16178   4.521   5.270   5.478
  147SAPE   H7Y16179   4.687   5.210   5.487
  147SAPE   C3816180   4.665   5.370   5.331
  147SAPE   H8X16181   4.775   5.359   5.324
  147SAPE   H8Y16182   4.637   5.477   5.326
  147SAPE   C3916183   4.609   5.300   5.203
  147SAPE   H9X16184   4.673   5.211   5.184
  147SAPE   H9Y16185   4.609   5.380   5.127
  147SAPE  C31016186   4.464   5.251   5.212
  147SAPE  H10X16187   4.401   5.332   5.254
  147SAPE  H10Y16188   4.458   5.166   5.283
  147SAPE  C31116189   4.422   5.214   5.068
  147SAPE  H11X16190   4.478   5.122   5.040
  147SAPE  H11Y16191   4.459   5.301   5.011
  147SAPE  C31216192   4.271   5.191   5.052
  147SAPE  H12X16193   4.221   5.284   5.086
  147SAPE  H12Y16194   4.251   5.107   5.122
  147SAPE  C31316195   4.227   5.157   4.908
  147SAPE  H13X16196   4.245   5.048   4.894
  147SAPE  H13Y16197   4.290   5.210   4.834
  147SAPE  C31416198   4.076   5.176   4.892
  147SAPE  H14X16199   4.052   5.282   4.918
  147SAPE  H14Y16200   4.018   5.111   4.961
  147SAPE  C31516201   4.016   5.137   4.755
  147SAPE  H15X16202   4.021   5.026   4.746
  147SAPE  H15Y16203   4.069   5.180   4.667
  147SAPE  C31616204   3.869   5.165   4.734
  147SAPE  H16X16205   3.800   5.136   4.816
  147SAPE  H16Y16206   3.822   5.118   4.645
  147SAPE  C31716207   3.840   5.316   4.714
  147SAPE  H17X16208   3.856   5.368   4.811
  147SAPE  H17Y16209   3.731   5.335   4.705
  147SAPE  C31816210   3.905   5.381   4.589
  147SAPE  H18X16211   3.884   5.490   4.591
  147SAPE  H18Y16212   3.855   5.343   4.498
  147SAPE  H18Z16213   4.013   5.357   4.596
  148SAPE     N16214   1.199   0.304   6.577
  148SAPE   HN116215   1.098   0.325   6.566
  148SAPE   HN216216   1.220   0.203   6.568
  148SAPE   HN316217   1.225   0.339   6.672
  148SAPE   C1216218   1.298   0.367   6.477
  148SAPE  H12A16219   1.287   0.477   6.479
  148SAPE  H12B16220   1.269   0.321   6.380
  148SAPE   C1116221   1.441   0.328   6.516
  148SAPE  H11A16222   1.476   0.364   6.615
  148SAPE  H11B16223   1.514   0.389   6.457
  148SAPE     P16224   1.602   0.120   6.456
  148SAPE   O1316225   1.721   0.203   6.493
  148SAPE   O1416226   1.601   6.835   6.493
  148SAPE   O1216227   1.464   0.187   6.510
  148SAPE   O1116228   1.578   0.121   6.297
  148SAPE    C116229   1.459   0.069   6.243
  148SAPE    HA16230   1.443   6.822   6.282
  148SAPE    HB16231   1.368   0.125   6.273
  148SAPE    C216232   1.459   0.047   6.087
  148SAPE    HS16233   1.553   6.845   6.071
  148SAPE   O2116234   1.452   0.180   6.028
  148SAPE   C2116235   1.548   0.201   5.930
  148SAPE   O2216236   1.609   0.112   5.873
  148SAPE   C2216237   1.544   0.345   5.878
  148SAPE   H2R16238   1.440   0.368   5.846
  148SAPE   H2S16239   1.553   0.400   5.974
  148SAPE    C316240   1.341   6.817   6.043
  148SAPE    HX16241   1.243   6.854   6.079
  148SAPE    HY16242   1.346   6.715   6.086
  148SAPE   O3116243   1.345   6.809   5.906
  148SAPE   C3116244   1.416   6.708   5.842
  148SAPE   O3216245   1.463   6.615   5.903
  148SAPE   C3216246   1.407   6.723   5.690
  148SAPE   H2X16247   1.460   6.819   5.667
  148SAPE   H2Y16248   1.298   6.732   5.672
  148SAPE   C2316249   1.662   0.372   5.774
  148SAPE   H3R16250   1.753   0.317   5.806
  148SAPE   H3S16251   1.688   0.480   5.781
  148SAPE   C2416252   1.611   0.338   5.638
  148SAPE   H4R16253   1.524   0.407   5.622
  148SAPE   H4S16254   1.566   0.237   5.635
  148SAPE   C2516255   1.721   0.349   5.536
  148SAPE   H5R16256   1.726   0.447   5.486
  148SAPE   C2616257   1.804   0.249   5.508
  148SAPE   H6R16258   1.885   0.269   5.437
  148SAPE   C2716259   1.806   0.114   5.573
  148SAPE   H7R16260   1.731   0.056   5.514
  148SAPE   H7S16261   1.761   0.112   5.675
  148SAPE   C2816262   1.940   0.053   5.578
  148SAPE   H8R16263   2.018   0.100   5.640
  148SAPE   C2916264   1.977   6.791   5.516
  148SAPE   H9R16265   2.082   6.759   5.527
  148SAPE  C21016266   1.905   6.689   5.425
  148SAPE  H10R16267   1.801   6.725   5.410
  148SAPE  H10S16268   1.896   6.596   5.485
  148SAPE  C21116269   1.958   6.661   5.287
  148SAPE  H11R16270   2.004   6.561   5.285
  148SAPE  C21216271   1.959   6.738   5.173
  148SAPE  H12R16272   2.017   6.701   5.087
  148SAPE  C21316273   1.908   0.024   5.152
  148SAPE  H13R16274   1.954   0.069   5.061
  148SAPE  H13S16275   1.952   0.085   5.233
  148SAPE  C21416276   1.759   0.050   5.158
  148SAPE  H14R16277   1.692   6.819   5.170
  148SAPE  C21516278   1.702   0.171   5.133
  148SAPE  H15R16279   1.598   0.192   5.162
  148SAPE  C21616280   1.776   0.292   5.083
  148SAPE  H16R16281   1.885   0.280   5.106
  148SAPE  H16S16282   1.741   0.383   5.136
  148SAPE  C21716283   1.764   0.307   4.931
  148SAPE  H17R16284   1.809   0.404   4.901
  148SAPE  H17S16285   1.654   0.312   4.912
  148SAPE  C21816286   1.825   0.194   4.843
  148SAPE  H18R16287   1.772   0.097   4.854
  148SAPE  H18S16288   1.934   0.188   4.866
  148SAPE  C21916289   1.820   0.230   4.696
  148SAPE  H19R16290   1.886   0.318   4.678
  148SAPE  H19S16291   1.716   0.260   4.672
  148SAPE  C22016292   1.858   0.117   4.603
  148SAPE  H20R16293   1.835   0.133   4.495
  148SAPE  H20S16294   1.819   0.019   4.636
  148SAPE  H20T16295   1.969   0.105   4.603
  148SAPE   C3316296   1.463   6.607   5.612
  148SAPE   H3X16297   1.385   6.528   5.607
  148SAPE   H3Y16298   1.554   6.571   5.665
  148SAPE   C3416299   1.503   6.635   5.464
  148SAPE   H4X16300   1.586   6.709   5.466
  148SAPE   H4Y16301   1.412   6.675   5.417
  148SAPE   C3516302   1.540   6.513   5.380
  148SAPE   H5X16303   1.461   6.436   5.384
  148SAPE   H5Y16304   1.631   6.463   5.419
  148SAPE   C3616305   1.572   6.548   5.242
  148SAPE   H6X16306   1.664   6.611   5.236
  148SAPE   H6Y16307   1.488   6.607   5.200
  148SAPE   C3716308   1.596   6.431   5.146
  148SAPE   H7X16309   1.502   6.371   5.145
  148SAPE   H7Y16310   1.683   6.370   5.177
  148SAPE   C3816311   1.639   6.473   5.002
  148SAPE   H8X16312   1.737   6.519   5.029
  148SAPE   H8Y16313   1.570   6.557   4.981
  148SAPE   C3916314   1.649   6.359   4.903
  148SAPE   H9X16315   1.565   6.286   4.909
  148SAPE   H9Y16316   1.740   6.304   4.936
  148SAPE  C31016317   1.660   6.403   4.755
  148SAPE  H10X16318   1.584   6.481   4.735
  148SAPE  H10Y16319   1.640   6.333   4.670
  148SAPE  C31116320   1.804   6.461   4.732
  148SAPE  H11X16321   1.881   6.393   4.773
  148SAPE  H11Y16322   1.816   6.552   4.794
  148SAPE  C31216323   1.819   6.500   4.582
  148SAPE  H12X16324   1.749   6.584   4.562
  148SAPE  H12Y16325   1.784   6.418   4.516
  148SAPE  C31316326   1.962   6.515   4.547
  148SAPE  H13X16327   2.020   6.424   4.573
  148SAPE  H13Y16328   2.018   6.591   4.606
  148SAPE  C31416329   1.963   6.539   4.395
  148SAPE  H14X16330   2.055   6.582   4.349
  148SAPE  H14Y16331   1.882   6.611   4.371
  148SAPE  C31516332   1.935   6.414   4.305
  148SAPE  H15X16333   1.829   6.388   4.323
  148SAPE  H15Y16334   1.995   6.326   4.334
  148SAPE  C31616335   1.947   6.453   4.159
  148SAPE  H16X16336   2.046   6.505   4.154
  148SAPE  H16Y16337   1.862   6.514   4.122
  148SAPE  C31716338   1.948   6.334   4.065
  148SAPE  H17X16339   1.857   6.271   4.074
  148SAPE  H17Y16340   2.022   6.262   4.106
  148SAPE  C31816341   1.980   6.376   3.922
  148SAPE  H18X16342   2.089   6.400   3.919
  148SAPE  H18Y16343   1.908   6.454   3.890
  148SAPE  H18Z16344   1.957   6.292   3.853
  149SAPE     N16345   1.576   2.387   6.430
  149SAPE   HN116346   1.622   2.334   6.507
  149SAPE   HN216347   1.639   2.380   6.347
  149SAPE   HN316348   1.564   2.486   6.459
  149SAPE   C1216349   1.443   2.335   6.386
  149SAPE  H12A16350   1.401   2.387   6.298
  149SAPE  H12B16351   1.370   2.362   6.465
  149SAPE   C1116352   1.454   2.185   6.365
  149SAPE  H11A16353   1.532   2.173   6.287
  149SAPE  H11B16354   1.362   2.134   6.328
  149SAPE     P16355   1.520   1.971   6.506
  149SAPE   O1316356   1.663   1.930   6.475
  149SAPE   O1416357   1.463   1.930   6.635
  149SAPE   O1216358   1.505   2.127   6.485
  149SAPE   O1116359   1.433   1.916   6.392
  149SAPE    C116360   1.383   1.780   6.400
  149SAPE    HA16361   1.457   1.701   6.425
  149SAPE    HB16362   1.310   1.771   6.484
  149SAPE    C216363   1.307   1.737   6.275
  149SAPE    HS16364   1.258   1.640   6.298
  149SAPE   O2116365   1.390   1.723   6.162
  149SAPE   C2116366   1.467   1.623   6.165
  149SAPE   O2216367   1.472   1.528   6.244
  149SAPE   C2216368   1.559   1.636   6.053
  149SAPE   H2R16369   1.495   1.604   5.968
  149SAPE   H2S16370   1.593   1.741   6.041
  149SAPE    C316371   1.195   1.839   6.243
  149SAPE    HX16372   1.250   1.935   6.236
  149SAPE    HY16373   1.118   1.859   6.321
  149SAPE   O3116374   1.125   1.802   6.118
  149SAPE   C3116375   1.167   1.863   6.004
  149SAPE   O3216376   1.251   1.949   5.992
  149SAPE   C3216377   1.084   1.814   5.888
  149SAPE   H2X16378   0.974   1.817   5.905
  149SAPE   H2Y16379   1.106   1.706   5.883
  149SAPE   C2316380   1.691   1.549   6.050
  149SAPE   H3R16381   1.651   1.445   6.046
  149SAPE   H3S16382   1.751   1.570   6.141
  149SAPE   C2416383   1.767   1.561   5.917
  149SAPE   H4R16384   1.821   1.659   5.920
  149SAPE   H4S16385   1.701   1.578   5.830
  149SAPE   C2516386   1.874   1.459   5.878
  149SAPE   H5R16387   1.940   1.423   5.958
  149SAPE   C2616388   1.876   1.386   5.761
  149SAPE   H6R16389   1.952   1.308   5.750
  149SAPE   C2716390   1.788   1.414   5.638
  149SAPE   H7R16391   1.805   1.520   5.608
  149SAPE   H7S16392   1.680   1.404   5.661
  149SAPE   C2816393   1.802   1.312   5.526
  149SAPE   H8R16394   1.804   1.208   5.560
  149SAPE   C2916395   1.803   1.351   5.394
  149SAPE   H9R16396   1.834   1.275   5.320
  149SAPE  C21016397   1.786   1.489   5.339
  149SAPE  H10R16398   1.739   1.557   5.414
  149SAPE  H10S16399   1.706   1.479   5.263
  149SAPE  C21116400   1.916   1.546   5.289
  149SAPE  H11R16401   1.986   1.582   5.366
  149SAPE  C21216402   1.944   1.565   5.154
  149SAPE  H12R16403   2.039   1.616   5.130
  149SAPE  C21316404   1.868   1.514   5.039
  149SAPE  H13R16405   1.812   1.428   5.080
  149SAPE  H13S16406   1.940   1.467   4.967
  149SAPE  C21416407   1.778   1.603   4.962
  149SAPE  H14R16408   1.670   1.594   4.979
  149SAPE  C21516409   1.817   1.689   4.867
  149SAPE  H15R16410   1.739   1.751   4.821
  149SAPE  C21616411   1.960   1.708   4.817
  149SAPE  H16R16412   2.034   1.632   4.852
  149SAPE  H16S16413   1.986   1.810   4.852
  149SAPE  C21716414   1.959   1.734   4.660
  149SAPE  H17R16415   2.062   1.752   4.621
  149SAPE  H17S16416   1.897   1.826   4.648
  149SAPE  C21816417   1.900   1.620   4.580
  149SAPE  H18R16418   1.791   1.603   4.593
  149SAPE  H18S16419   1.950   1.522   4.599
  149SAPE  C21916420   1.921   1.653   4.436
  149SAPE  H19R16421   2.028   1.671   4.409
  149SAPE  H19S16422   1.857   1.741   4.418
  149SAPE  C22016423   1.888   1.532   4.352
  149SAPE  H20R16424   1.950   1.450   4.394
  149SAPE  H20S16425   1.924   1.556   4.249
  149SAPE  H20T16426   1.780   1.507   4.348
  149SAPE   C3316427   1.107   1.890   5.752
  149SAPE   H3X16428   1.215   1.894   5.726
  149SAPE   H3Y16429   1.071   1.995   5.760
  149SAPE   C3416430   1.025   1.821   5.636
  149SAPE   H4X16431   0.919   1.811   5.667
  149SAPE   H4Y16432   1.067   1.720   5.619
  149SAPE   C3516433   1.043   1.884   5.500
  149SAPE   H5X16434   1.151   1.907   5.502
  149SAPE   H5Y16435   0.982   1.977   5.495
  149SAPE   C3616436   1.019   1.785   5.383
  149SAPE   H6X16437   0.912   1.756   5.395
  149SAPE   H6Y16438   1.073   1.690   5.404
  149SAPE   C3716439   1.052   1.844   5.248
  149SAPE   H7X16440   1.149   1.899   5.242
  149SAPE   H7Y16441   0.976   1.923   5.226
  149SAPE   C3816442   1.049   1.743   5.134
  149SAPE   H8X16443   0.954   1.686   5.143
  149SAPE   H8Y16444   1.131   1.668   5.134
  149SAPE   C3916445   1.063   1.813   5.000
  149SAPE   H9X16446   1.169   1.844   4.987
  149SAPE   H9Y16447   0.982   1.889   5.006
  149SAPE  C31016448   1.040   1.714   4.879
  149SAPE  H10X16449   0.941   1.664   4.877
  149SAPE  H10Y16450   1.113   1.631   4.887
  149SAPE  C31116451   1.073   1.783   4.749
  149SAPE  H11X16452   1.159   1.852   4.763
  149SAPE  H11Y16453   0.981   1.840   4.724
  149SAPE  C31216454   1.121   1.687   4.639
  149SAPE  H12X16455   1.056   1.598   4.622
  149SAPE  H12Y16456   1.223   1.652   4.666
  149SAPE  C31316457   1.133   1.759   4.505
  149SAPE  H13X16458   1.207   1.841   4.519
  149SAPE  H13Y16459   1.032   1.802   4.488
  149SAPE  C31416460   1.183   1.660   4.396
  149SAPE  H14X16461   1.280   1.618   4.430
  149SAPE  H14Y16462   1.217   1.726   4.313
  149SAPE  C31516463   1.090   1.554   4.349
  149SAPE  H15X16464   1.065   1.489   4.435
  149SAPE  H15Y16465   1.151   1.485   4.286
  149SAPE  C31616466   0.965   1.596   4.279
  149SAPE  H16X16467   0.989   1.683   4.215
  149SAPE  H16Y16468   0.892   1.647   4.346
  149SAPE  C31716469   0.889   1.487   4.206
  149SAPE  H17X16470   0.844   1.424   4.286
  149SAPE  H17Y16471   0.962   1.423   4.152
  149SAPE  C31816472   0.778   1.530   4.104
  149SAPE  H18X16473   0.828   1.587   4.023
  149SAPE  H18Y16474   0.701   1.593   4.154
  149SAPE  H18Z16475   0.728   1.443   4.056
  150SAPE     N16476   4.131   3.194   6.776
  150SAPE   HN116477   4.209   3.223   6.714
  150SAPE   HN216478   4.099   3.272   6.837
  150SAPE   HN316479   4.155   3.115   6.839
  150SAPE   C1216480   4.012   3.136   6.710
  150SAPE  H12A16481   3.956   3.224   6.672
  150SAPE  H12B16482   3.956   3.082   6.789
  150SAPE   C1116483   4.044   3.043   6.600
  150SAPE  H11A16484   4.088   3.108   6.521
  150SAPE  H11B16485   3.949   3.006   6.556
  150SAPE     P16486   4.236   2.866   6.536
  150SAPE   O1316487   4.288   2.970   6.453
  150SAPE   O1416488   4.338   2.799   6.620
  150SAPE   O1216489   4.123   2.934   6.632
  150SAPE   O1116490   4.162   2.768   6.440
  150SAPE    C116491   4.043   2.802   6.367
  150SAPE    HA16492   3.952   2.753   6.408
  150SAPE    HB16493   4.016   2.909   6.373
  150SAPE    C216494   4.050   2.771   6.209
  150SAPE    HS16495   4.032   2.662   6.192
  150SAPE   O2116496   4.179   2.821   6.168
  150SAPE   C2116497   4.270   2.729   6.168
  150SAPE   O2216498   4.250   2.605   6.179
  150SAPE   C2216499   4.409   2.798   6.161
  150SAPE   H2R16500   4.399   2.900   6.118
  150SAPE   H2S16501   4.439   2.796   6.268
  150SAPE    C316502   3.944   2.860   6.135
  150SAPE    HX16503   3.975   2.964   6.163
  150SAPE    HY16504   3.841   2.828   6.161
  150SAPE   O3116505   3.954   2.853   5.991
  150SAPE   C3116506   3.895   2.746   5.930
  150SAPE   O3216507   3.839   2.653   5.985
  150SAPE   C3216508   3.904   2.752   5.773
  150SAPE   H2X16509   4.014   2.744   5.756
  150SAPE   H2Y16510   3.889   2.858   5.743
  150SAPE   C2316511   4.513   2.718   6.078
  150SAPE   H3R16512   4.522   2.611   6.104
  150SAPE   H3S16513   4.609   2.773   6.092
  150SAPE   C2416514   4.493   2.746   5.925
  150SAPE   H4R16515   4.585   2.722   5.867
  150SAPE   H4S16516   4.465   2.852   5.908
  150SAPE   C2516517   4.404   2.649   5.860
  150SAPE   H5R16518   4.385   2.551   5.906
  150SAPE   C2616519   4.356   2.661   5.737
  150SAPE   H6R16520   4.291   2.583   5.695
  150SAPE   C2716521   4.380   2.778   5.654
  150SAPE   H7R16522   4.482   2.822   5.657
  150SAPE   H7S16523   4.319   2.862   5.694
  150SAPE   C2816524   4.334   2.747   5.515
  150SAPE   H8R16525   4.224   2.752   5.510
  150SAPE   C2916526   4.401   2.741   5.398
  150SAPE   H9R16527   4.346   2.704   5.311
  150SAPE  C21016528   4.557   2.748   5.389
  150SAPE  H10R16529   4.593   2.643   5.391
  150SAPE  H10S16530   4.594   2.798   5.482
  150SAPE  C21116531   4.611   2.810   5.262
  150SAPE  H11R16532   4.559   2.760   5.178
  150SAPE  C21216533   4.706   2.904   5.248
  150SAPE  H12R16534   4.728   2.941   5.147
  150SAPE  C21316535   4.788   2.970   5.356
  150SAPE  H13R16536   4.843   2.897   5.420
  150SAPE  H13S16537   4.709   3.020   5.415
  150SAPE  C21416538   4.870   3.090   5.316
  150SAPE  H14R16539   4.833   3.182   5.365
  150SAPE  C21516540   4.986   3.095   5.247
  150SAPE  H15R16541   5.032   3.194   5.236
  150SAPE  C21616542   5.048   2.979   5.174
  150SAPE  H16R16543   4.987   2.891   5.202
  150SAPE  H16S16544   5.152   2.961   5.210
  150SAPE  C21716545   5.056   3.011   5.030
  150SAPE  H17R16546   5.094   3.115   5.023
  150SAPE  H17S16547   4.949   3.017   4.998
  150SAPE  C21816548   5.125   2.897   4.949
  150SAPE  H18R16549   5.094   2.902   4.842
  150SAPE  H18S16550   5.089   2.798   4.985
  150SAPE  C21916551   5.279   2.905   4.958
  150SAPE  H19R16552   5.307   2.904   5.066
  150SAPE  H19S16553   5.305   3.002   4.910
  150SAPE  C22016554   5.348   2.800   4.871
  150SAPE  H20R16555   5.282   2.797   4.781
  150SAPE  H20S16556   5.346   2.694   4.904
  150SAPE  H20T16557   5.442   2.837   4.825
  150SAPE   C3316558   3.822   2.646   5.699
  150SAPE   H3X16559   3.722   2.642   5.748
  150SAPE   H3Y16560   3.864   2.543   5.702
  150SAPE   C3416561   3.812   2.689   5.552
  150SAPE   H4X16562   3.809   2.800   5.540
  150SAPE   H4Y16563   3.721   2.647   5.506
  150SAPE   C3516564   3.931   2.638   5.469
  150SAPE   H5X16565   3.949   2.528   5.472
  150SAPE   H5Y16566   4.031   2.668   5.505
  150SAPE   C3616567   3.923   2.697   5.332
  150SAPE   H6X16568   3.973   2.796   5.326
  150SAPE   H6Y16569   3.817   2.700   5.300
  150SAPE   C3716570   4.002   2.614   5.227
  150SAPE   H7X16571   3.942   2.523   5.204
  150SAPE   H7Y16572   4.103   2.588   5.268
  150SAPE   C3816573   4.016   2.692   5.095
  150SAPE   H8X16574   4.071   2.784   5.124
  150SAPE   H8Y16575   3.915   2.728   5.065
  150SAPE   C3916576   4.086   2.614   4.982
  150SAPE   H9X16577   4.030   2.519   4.963
  150SAPE   H9Y16578   4.182   2.578   5.022
  150SAPE  C31016579   4.106   2.693   4.849
  150SAPE  H10X16580   4.166   2.632   4.778
  150SAPE  H10Y16581   4.159   2.786   4.881
  150SAPE  C31116582   3.966   2.728   4.789
  150SAPE  H11X16583   3.913   2.805   4.849
  150SAPE  H11Y16584   3.898   2.641   4.790
  150SAPE  C31216585   3.982   2.779   4.642
  150SAPE  H12X16586   3.884   2.770   4.591
  150SAPE  H12Y16587   4.054   2.708   4.595
  150SAPE  C31316588   4.045   2.918   4.632
  150SAPE  H13X16589   4.091   2.924   4.531
  150SAPE  H13Y16590   4.130   2.947   4.697
  150SAPE  C31416591   3.935   3.028   4.651
  150SAPE  H14X16592   3.880   3.017   4.747
  150SAPE  H14Y16593   3.853   3.015   4.578
  150SAPE  C31516594   3.986   3.165   4.636
  150SAPE  H15X16595   4.014   3.162   4.528
  150SAPE  H15Y16596   4.076   3.181   4.699
  150SAPE  C31616597   3.889   3.278   4.673
  150SAPE  H16X16598   3.866   3.262   4.780
  150SAPE  H16Y16599   3.794   3.255   4.618
  150SAPE  C31716600   3.939   3.421   4.645
  150SAPE  H17X16601   4.024   3.442   4.713
  150SAPE  H17Y16602   3.863   3.499   4.669
  150SAPE  C31816603   3.978   3.443   4.498
  150SAPE  H18X16604   4.071   3.384   4.480
  150SAPE  H18Y16605   4.003   3.548   4.473
  150SAPE  H18Z16606   3.898   3.415   4.427
  151SAPE     N16607   4.925   0.905   6.927
  151SAPE   HN116608   4.955   0.930   7.023
  151SAPE   HN216609   4.963   0.979   6.865
  151SAPE   HN316610   4.822   0.897   6.916
  151SAPE   C1216611   4.978   0.767   6.897
  151SAPE  H12A16612   4.925   0.690   6.956
  151SAPE  H12B16613   5.084   0.767   6.928
  151SAPE   C1116614   4.968   0.739   6.750
  151SAPE  H11A16615   5.013   0.644   6.715
  151SAPE  H11B16616   5.027   0.823   6.708
  151SAPE     P16617   4.717   0.654   6.711
  151SAPE   O1316618   4.674   0.642   6.849
  151SAPE   O1416619   4.622   0.697   6.603
  151SAPE   O1216620   4.836   0.754   6.704
  151SAPE   O1116621   4.787   0.524   6.661
  151SAPE    C116622   4.832   0.490   6.533
  151SAPE    HA16623   4.834   0.575   6.461
  151SAPE    HB16624   4.937   0.458   6.544
  151SAPE    C216625   4.746   0.385   6.453
  151SAPE    HS16626   4.793   0.359   6.356
  151SAPE   O2116627   4.619   0.444   6.436
  151SAPE   C2116628   4.600   0.515   6.328
  151SAPE   O2216629   4.683   0.538   6.239
  151SAPE   C2216630   4.455   0.571   6.339
  151SAPE   H2R16631   4.372   0.501   6.313
  151SAPE   H2S16632   4.442   0.584   6.448
  151SAPE    C316633   4.735   0.250   6.534
  151SAPE    HX16634   4.709   0.279   6.638
  151SAPE    HY16635   4.833   0.199   6.534
  151SAPE   O3116636   4.626   0.156   6.494
  151SAPE   C3116637   4.653   0.092   6.380
  151SAPE   O3216638   4.759   0.087   6.324
  151SAPE   C3216639   4.520   0.053   6.319
  151SAPE   H2X16640   4.469   0.141   6.274
  151SAPE   H2Y16641   4.457   0.025   6.407
  151SAPE   C2316642   4.422   0.708   6.266
  151SAPE   H3R16643   4.495   0.786   6.295
  151SAPE   H3S16644   4.332   0.742   6.322
  151SAPE   C2416645   4.415   0.710   6.116
  151SAPE   H4R16646   4.503   0.658   6.072
  151SAPE   H4S16647   4.419   0.820   6.102
  151SAPE   C2516648   4.280   0.656   6.066
  151SAPE   H5R16649   4.203   0.648   6.144
  151SAPE   C2616650   4.250   0.606   5.944
  151SAPE   H6R16651   4.144   0.578   5.934
  151SAPE   C2716652   4.337   0.602   5.821
  151SAPE   H7R16653   4.425   0.665   5.845
  151SAPE   H7S16654   4.281   0.643   5.734
  151SAPE   C2816655   4.374   0.456   5.797
  151SAPE   H8R16656   4.472   0.439   5.844
  151SAPE   C2916657   4.332   0.372   5.704
  151SAPE   H9R16658   4.379   0.273   5.693
  151SAPE  C21016659   4.214   0.404   5.609
  151SAPE  H10R16660   4.215   0.510   5.577
  151SAPE  H10S16661   4.124   0.405   5.674
  151SAPE  C21116662   4.205   0.311   5.491
  151SAPE  H11R16663   4.208   0.208   5.527
  151SAPE  C21216664   4.225   0.344   5.360
  151SAPE  H12R16665   4.205   0.263   5.289
  151SAPE  C21316666   4.254   0.481   5.293
  151SAPE  H13R16667   4.335   0.473   5.218
  151SAPE  H13S16668   4.291   0.548   5.374
  151SAPE  C21416669   4.117   0.525   5.230
  151SAPE  H14R16670   4.038   0.555   5.300
  151SAPE  C21516671   4.090   0.542   5.105
  151SAPE  H15R16672   3.984   0.566   5.087
  151SAPE  C21616673   4.185   0.523   4.990
  151SAPE  H16R16674   4.232   0.423   4.995
  151SAPE  H16S16675   4.268   0.597   4.987
  151SAPE  C21716676   4.130   0.523   4.847
  151SAPE  H17R16677   4.045   0.453   4.833
  151SAPE  H17S16678   4.208   0.494   4.773
  151SAPE  C21816679   4.089   0.664   4.812
  151SAPE  H18R16680   4.144   0.746   4.863
  151SAPE  H18S16681   3.983   0.683   4.839
  151SAPE  C21916682   4.093   0.709   4.669
  151SAPE  H19R16683   4.187   0.667   4.626
  151SAPE  H19S16684   4.103   0.819   4.677
  151SAPE  C22016685   3.987   0.659   4.574
  151SAPE  H20R16686   3.885   0.673   4.615
  151SAPE  H20S16687   4.000   0.552   4.549
  151SAPE  H20T16688   4.003   0.715   4.479
  151SAPE   C3316689   4.517   6.791   6.217
  151SAPE   H3X16690   4.411   6.766   6.195
  151SAPE   H3Y16691   4.564   6.703   6.265
  151SAPE   C3416692   4.590   6.828   6.082
  151SAPE   H4X16693   4.595   6.739   6.015
  151SAPE   H4Y16694   4.695   6.854   6.106
  151SAPE   C3516695   4.524   0.086   6.009
  151SAPE   H5X16696   4.517   0.173   6.077
  151SAPE   H5Y16697   4.417   0.064   5.989
  151SAPE   C3616698   4.598   0.145   5.892
  151SAPE   H6X16699   4.707   0.156   5.913
  151SAPE   H6Y16700   4.570   0.251   5.874
  151SAPE   C3716701   4.590   0.073   5.759
  151SAPE   H7X16702   4.489   0.089   5.717
  151SAPE   H7Y16703   4.610   6.820   5.767
  151SAPE   C3816704   4.694   0.133   5.664
  151SAPE   H8X16705   4.792   0.091   5.693
  151SAPE   H8Y16706   4.701   0.243   5.676
  151SAPE   C3916707   4.682   0.105   5.515
  151SAPE   H9X16708   4.725   0.006   5.487
  151SAPE   H9Y16709   4.751   0.179   5.468
  151SAPE  C31016710   4.547   0.126   5.450
  151SAPE  H10X16711   4.510   0.226   5.479
  151SAPE  H10Y16712   4.474   0.050   5.484
  151SAPE  C31116713   4.562   0.117   5.302
  151SAPE  H11X16714   4.467   0.090   5.251
  151SAPE  H11Y16715   4.626   0.035   5.263
  151SAPE  C31216716   4.611   0.244   5.234
  151SAPE  H12X16717   4.722   0.241   5.231
  151SAPE  H12Y16718   4.576   0.336   5.284
  151SAPE  C31316719   4.553   0.249   5.089
  151SAPE  H13X16720   4.442   0.241   5.089
  151SAPE  H13Y16721   4.579   0.153   5.039
  151SAPE  C31416722   4.601   0.367   5.006
  151SAPE  H14X16723   4.711   0.361   4.995
  151SAPE  H14Y16724   4.589   0.462   5.063
  151SAPE  C31516725   4.532   0.363   4.867
  151SAPE  H15X16726   4.423   0.376   4.883
  151SAPE  H15Y16727   4.562   0.269   4.814
  151SAPE  C31616728   4.569   0.489   4.785
  151SAPE  H16X16729   4.675   0.519   4.799
  151SAPE  H16Y16730   4.503   0.576   4.803
  151SAPE  C31716731   4.561   0.449   4.640
  151SAPE  H17X16732   4.462   0.403   4.618
  151SAPE  H17Y16733   4.639   0.374   4.618
  151SAPE  C31816734   4.569   0.566   4.535
  151SAPE  H18X16735   4.484   0.637   4.547
  151SAPE  H18Y16736   4.583   0.532   4.430
  151SAPE  H18Z16737   4.665   0.619   4.554
  152SAPE     N16738   6.766   2.205   6.618
  152SAPE   HN116739   6.706   2.196   6.702
  152SAPE   HN216740   6.750   2.116   6.568
  152SAPE   HN316741   0.008   2.191   6.649
  152SAPE   C1216742   6.735   2.326   6.541
  152SAPE  H12A16743   6.788   2.326   6.444
  152SAPE  H12B16744   6.770   2.409   6.606
  152SAPE   C1116745   6.582   2.345   6.516
  152SAPE  H11A16746   6.563   2.447   6.478
  152SAPE  H11B16747   6.520   2.332   6.608
  152SAPE     P16748   6.525   2.242   6.274
  152SAPE   O1316749   6.424   2.149   6.231
  152SAPE   O1416750   6.507   2.381   6.222
  152SAPE   O1216751   6.548   2.242   6.424
  152SAPE   O1116752   6.669   2.192   6.239
  152SAPE    C116753   6.768   2.279   6.172
  152SAPE    HA16754   6.762   2.382   6.215
  152SAPE    HB16755   0.013   2.239   6.187
  152SAPE    C216756   6.750   2.297   6.014
  152SAPE    HS16757   6.645   2.332   6.003
  152SAPE   O2116758   6.779   2.172   5.945
  152SAPE   C2116759   6.701   2.145   5.847
  152SAPE   O2216760   6.633   2.223   5.787
  152SAPE   C2216761   6.720   1.998   5.818
  152SAPE   H2R16762   6.807   1.971   5.755
  152SAPE   H2S16763   6.714   1.946   5.916
  152SAPE    C316764   6.846   2.405   5.957
  152SAPE    HX16765   0.091   2.363   5.972
  152SAPE    HY16766   6.832   2.501   6.011
  152SAPE   O3116767   6.835   2.432   5.807
  152SAPE   C3116768   6.739   2.508   5.775
  152SAPE   O3216769   6.653   2.560   5.846
  152SAPE   C3216770   6.748   2.525   5.626
  152SAPE   H2X16771   6.849   2.500   5.590
  152SAPE   H2Y16772   6.725   2.630   5.596
  152SAPE   C2316773   6.610   1.941   5.726
  152SAPE   H3R16774   6.519   2.003   5.736
  152SAPE   H3S16775   6.580   1.838   5.757
  152SAPE   C2416776   6.645   1.921   5.575
  152SAPE   H4R16777   6.558   1.871   5.526
  152SAPE   H4S16778   6.732   1.853   5.580
  152SAPE   C2516779   6.686   2.047   5.506
  152SAPE   H5R16780   6.659   2.135   5.567
  152SAPE   C2616781   6.726   2.059   5.380
  152SAPE   H6R16782   6.742   2.163   5.347
  152SAPE   C2716783   6.752   1.944   5.280
  152SAPE   H7R16784   6.765   1.853   5.342
  152SAPE   H7S16785   6.842   1.971   5.222
  152SAPE   C2816786   6.636   1.929   5.182
  152SAPE   H8R16787   6.539   1.948   5.231
  152SAPE   C2916788   6.641   1.902   5.051
  152SAPE   H9R16789   6.548   1.891   4.993
  152SAPE  C21016790   6.768   1.877   4.977
  152SAPE  H10R16791   6.744   1.809   4.893
  152SAPE  H10S16792   6.846   1.827   5.039
  152SAPE  C21116793   6.820   2.009   4.927
  152SAPE  H11R16794   6.841   2.084   5.005
  152SAPE  C21216795   6.829   2.056   4.804
  152SAPE  H12R16796   6.846   2.164   4.788
  152SAPE  C21316797   6.796   1.985   4.679
  152SAPE  H13R16798   6.794   1.876   4.701
  152SAPE  H13S16799   0.026   1.998   4.611
  152SAPE  C21416800   6.668   2.039   4.609
  152SAPE  H14R16801   6.677   2.142   4.572
  152SAPE  C21516802   6.550   1.980   4.585
  152SAPE  H15R16803   6.474   2.029   4.522
  152SAPE  C21616804   6.533   1.831   4.615
  152SAPE  H16R16805   6.454   1.814   4.691
  152SAPE  H16S16806   6.625   1.787   4.661
  152SAPE  C21716807   6.502   1.748   4.489
  152SAPE  H17R16808   6.404   1.787   4.453
  152SAPE  H17S16809   6.478   1.643   4.514
  152SAPE  C21816810   6.614   1.734   4.388
  152SAPE  H18R16811   6.712   1.749   4.438
  152SAPE  H18S16812   6.615   1.804   4.302
  152SAPE  C21916813   6.631   1.592   4.326
  152SAPE  H19R16814   6.611   1.518   4.407
  152SAPE  H19S16815   6.734   1.575   4.288
  152SAPE  C22016816   6.528   1.568   4.220
  152SAPE  H20R16817   6.427   1.567   4.268
  152SAPE  H20S16818   6.538   1.473   4.163
  152SAPE  H20T16819   6.535   1.642   4.138
  152SAPE   C3316820   6.632   2.463   5.546
  152SAPE   H3X16821   6.537   2.520   5.548
  152SAPE   H3Y16822   6.610   2.366   5.593
  152SAPE   C3416823   6.678   2.445   5.396
  152SAPE   H4X16824   6.759   2.369   5.393
  152SAPE   H4Y16825   6.725   2.541   5.367
  152SAPE   C3516826   6.560   2.413   5.317
  152SAPE   H5X16827   6.486   2.495   5.327
  152SAPE   H5Y16828   6.509   2.325   5.362
  152SAPE   C3616829   6.591   2.371   5.177
  152SAPE   H6X16830   6.495   2.329   5.140
  152SAPE   H6Y16831   6.665   2.288   5.177
  152SAPE   C3716832   6.626   2.487   5.074
  152SAPE   H7X16833   6.718   2.541   5.105
  152SAPE   H7Y16834   6.545   2.562   5.074
  152SAPE   C3816835   6.633   2.416   4.939
  152SAPE   H8X16836   6.541   2.358   4.919
  152SAPE   H8Y16837   6.708   2.336   4.951
  152SAPE   C3916838   6.627   2.519   4.824
  152SAPE   H9X16839   6.706   2.596   4.840
  152SAPE   H9Y16840   6.536   2.582   4.833
  152SAPE  C31016841   6.636   2.468   4.678
  152SAPE  H10X16842   6.556   2.391   4.667
  152SAPE  H10Y16843   6.732   2.413   4.671
  152SAPE  C31116844   6.623   2.580   4.578
  152SAPE  H11X16845   6.649   2.518   4.489
  152SAPE  H11Y16846   6.699   2.658   4.601
  152SAPE  C31216847   6.490   2.644   4.582
  152SAPE  H12X16848   6.496   2.727   4.656
  152SAPE  H12Y16849   6.415   2.564   4.603
  152SAPE  C31316850   6.439   2.701   4.448
  152SAPE  H13X16851   6.456   2.632   4.363
  152SAPE  H13Y16852   6.481   2.802   4.427
  152SAPE  C31416853   6.287   2.730   4.448
  152SAPE  H14X16854   6.260   2.793   4.536
  152SAPE  H14Y16855   6.242   2.629   4.465
  152SAPE  C31516856   6.221   2.790   4.311
  152SAPE  H15X16857   6.225   2.708   4.237
  152SAPE  H15Y16858   6.275   2.879   4.272
  152SAPE  C31616859   6.075   2.828   4.337
  152SAPE  H16X16860   6.027   2.760   4.410
  152SAPE  H16Y16861   6.006   2.818   4.251
  152SAPE  C31716862   6.045   2.970   4.379
  152SAPE  H17X16863   6.070   3.042   4.298
  152SAPE  H17Y16864   6.122   2.990   4.456
  152SAPE  C31816865   5.907   2.986   4.428
  152SAPE  H18X16866   5.874   2.890   4.474
  152SAPE  H18Y16867   5.832   3.017   4.351
  152SAPE  H18Z16868   5.914   3.058   4.512
  153SAPE     N16869   6.211   1.994   6.174
  153SAPE   HN116870   6.224   1.906   6.121
  153SAPE   HN216871   6.300   2.046   6.160
  153SAPE   HN316872   6.208   1.978   6.277
  153SAPE   C1216873   6.100   2.077   6.134
  153SAPE  H12A16874   6.136   2.147   6.056
  153SAPE  H12B16875   6.069   2.132   6.226
  153SAPE   C1116876   5.983   1.997   6.088
  153SAPE  H11A16877   5.992   1.962   5.983
  153SAPE  H11B16878   5.894   2.063   6.078
  153SAPE     P16879   5.860   1.901   6.307
  153SAPE   O1316880   5.832   1.776   6.385
  153SAPE   O1416881   5.918   2.020   6.384
  153SAPE   O1216882   5.952   1.886   6.176
  153SAPE   O1116883   5.724   1.945   6.241
  153SAPE    C116884   5.633   1.855   6.183
  153SAPE    HA16885   5.638   1.753   6.227
  153SAPE    HB16886   5.531   1.899   6.181
  153SAPE    C216887   5.674   1.824   6.030
  153SAPE    HS16888   5.782   1.803   6.015
  153SAPE   O2116889   5.635   1.943   5.961
  153SAPE   C2116890   5.710   1.975   5.851
  153SAPE   O2216891   5.794   1.905   5.801
  153SAPE   C2216892   5.646   2.099   5.793
  153SAPE   H2R16893   5.692   2.093   5.692
  153SAPE   H2S16894   5.536   2.089   5.793
  153SAPE    C316895   5.589   1.704   5.977
  153SAPE    HX16896   5.485   1.728   6.007
  153SAPE    HY16897   5.604   1.610   6.034
  153SAPE   O3116898   5.598   1.689   5.833
  153SAPE   C3116899   5.662   1.588   5.777
  153SAPE   O3216900   5.715   1.494   5.836
  153SAPE   C3216901   5.666   1.605   5.624
  153SAPE   H2X16902   5.691   1.712   5.608
  153SAPE   H2Y16903   5.570   1.570   5.582
  153SAPE   C2316904   5.701   2.221   5.867
  153SAPE   H3R16905   5.809   2.199   5.878
  153SAPE   H3S16906   5.652   2.241   5.965
  153SAPE   C2416907   5.691   2.349   5.781
  153SAPE   H4R16908   5.762   2.334   5.697
  153SAPE   H4S16909   5.714   2.440   5.840
  153SAPE   C2516910   5.548   2.356   5.733
  153SAPE   H5R16911   5.469   2.341   5.808
  153SAPE   C2616912   5.513   2.387   5.601
  153SAPE   H6R16913   5.408   2.409   5.578
  153SAPE   C2716914   5.613   2.408   5.489
  153SAPE   H7R16915   5.693   2.469   5.536
  153SAPE   H7S16916   5.565   2.463   5.405
  153SAPE   C2816917   5.671   2.284   5.432
  153SAPE   H8R16918   5.647   2.189   5.481
  153SAPE   C2916919   5.726   2.276   5.310
  153SAPE   H9R16920   5.769   2.176   5.291
  153SAPE  C21016921   5.758   2.393   5.217
  153SAPE  H10R16922   5.837   2.456   5.264
  153SAPE  H10S16923   5.670   2.460   5.213
  153SAPE  C21116924   5.795   2.356   5.071
  153SAPE  H11R16925   5.896   2.314   5.059
  153SAPE  C21216926   5.705   2.366   4.972
  153SAPE  H12R16927   5.747   2.357   4.871
  153SAPE  C21316928   5.563   2.402   4.986
  153SAPE  H13R16929   5.556   2.511   4.965
  153SAPE  H13S16930   5.517   2.381   5.085
  153SAPE  C21416931   5.460   2.339   4.885
  153SAPE  H14R16932   5.384   2.271   4.927
  153SAPE  C21516933   5.461   2.358   4.753
  153SAPE  H15R16934   5.382   2.311   4.694
  153SAPE  C21616935   5.540   2.455   4.669
  153SAPE  H16R16936   5.627   2.484   4.732
  153SAPE  H16S16937   5.466   2.537   4.657
  153SAPE  C21716938   5.587   2.407   4.528
  153SAPE  H17R16939   5.633   2.495   4.478
  153SAPE  H17S16940   5.520   2.359   4.454
  153SAPE  C21816941   5.699   2.302   4.538
  153SAPE  H18R16942   5.670   2.206   4.587
  153SAPE  H18S16943   5.782   2.344   4.599
  153SAPE  C21916944   5.767   2.261   4.405
  153SAPE  H19R16945   5.847   2.196   4.445
  153SAPE  H19S16946   5.826   2.343   4.360
  153SAPE  C22016947   5.685   2.164   4.317
  153SAPE  H20R16948   5.619   2.218   4.246
  153SAPE  H20S16949   5.616   2.107   4.383
  153SAPE  H20T16950   5.755   2.089   4.276
  153SAPE   C3316951   5.777   1.520   5.567
  153SAPE   H3X16952   5.775   1.420   5.616
  153SAPE   H3Y16953   5.871   1.571   5.598
  153SAPE   C3416954   5.758   1.517   5.416
  153SAPE   H4X16955   5.745   1.618   5.372
  153SAPE   H4Y16956   5.666   1.457   5.397
  153SAPE   C3516957   5.874   1.434   5.356
  153SAPE   H5X16958   5.890   1.334   5.400
  153SAPE   H5Y16959   5.965   1.498   5.362
  153SAPE   C3616960   5.852   1.434   5.203
  153SAPE   H6X16961   5.853   1.541   5.172
  153SAPE   H6Y16962   5.752   1.389   5.182
  153SAPE   C3716963   5.965   1.363   5.123
  153SAPE   H7X16964   5.962   1.252   5.117
  153SAPE   H7Y16965   6.056   1.372   5.187
  153SAPE   C3816966   5.995   1.429   4.986
  153SAPE   H8X16967   6.093   1.393   4.947
  153SAPE   H8Y16968   5.994   1.540   4.997
  153SAPE   C3916969   5.889   1.383   4.881
  153SAPE   H9X16970   5.786   1.414   4.906
  153SAPE   H9Y16971   5.892   1.272   4.873
  153SAPE  C31016972   5.916   1.437   4.740
  153SAPE  H10X16973   6.019   1.423   4.703
  153SAPE  H10Y16974   5.902   1.547   4.742
  153SAPE  C31116975   5.836   1.368   4.623
  153SAPE  H11X16976   5.731   1.347   4.654
  153SAPE  H11Y16977   5.891   1.273   4.606
  153SAPE  C31216978   5.845   1.461   4.505
  153SAPE  H12X16979   5.945   1.471   4.456
  153SAPE  H12Y16980   5.824   1.565   4.539
  153SAPE  C31316981   5.742   1.426   4.395
  153SAPE  H13X16982   5.752   1.494   4.308
  153SAPE  H13Y16983   5.642   1.443   4.440
  153SAPE  C31416984   5.770   1.281   4.340
  153SAPE  H14X16985   5.737   1.207   4.417
  153SAPE  H14Y16986   5.881   1.287   4.342
  153SAPE  C31516987   5.730   1.243   4.195
  153SAPE  H15X16988   5.781   1.150   4.162
  153SAPE  H15Y16989   5.758   1.328   4.129
  153SAPE  C31616990   5.581   1.230   4.175
  153SAPE  H16X16991   5.515   1.290   4.242
  153SAPE  H16Y16992   5.569   1.123   4.201
  153SAPE  C31716993   5.534   1.261   4.031
  153SAPE  H17X16994   5.548   1.366   3.998
  153SAPE  H17Y16995   5.423   1.249   4.024
  153SAPE  C31816996   5.608   1.161   3.943
  153SAPE  H18X16997   5.559   1.168   3.844
  153SAPE  H18Y16998   5.585   1.059   3.981
  153SAPE  H18Z16999   5.718   1.178   3.936
  154SAPE     N17000   3.289   0.422   6.687
  154SAPE   HN117001   3.213   0.447   6.621
  154SAPE   HN217002   3.273   0.337   6.745
  154SAPE   HN317003   3.311   0.497   6.756
  154SAPE   C1217004   3.413   0.400   6.605
  154SAPE  H12A17005   3.399   0.304   6.550
  154SAPE  H12B17006   3.500   0.381   6.672
  154SAPE   C1117007   3.445   0.513   6.508
  154SAPE  H11A17008   3.370   0.515   6.426
  154SAPE  H11B17009   3.542   0.493   6.458
  154SAPE     P17010   3.566   0.707   6.650
  154SAPE   O1317011   3.515   0.827   6.724
  154SAPE   O1417012   3.640   0.611   6.733
  154SAPE   O1217013   3.443   0.640   6.572
  154SAPE   O1117014   3.655   0.756   6.530
  154SAPE    C117015   3.618   0.877   6.460
  154SAPE    HA17016   3.619   0.956   6.539
  154SAPE    HB17017   3.703   0.900   6.392
  154SAPE    C217018   3.477   0.887   6.403
  154SAPE    HS17019   3.412   0.884   6.493
  154SAPE   O2117020   3.451   0.781   6.308
  154SAPE   C2117021   3.315   0.757   6.290
  154SAPE   O2217022   3.230   0.808   6.365
  154SAPE   C2217023   3.282   0.658   6.177
  154SAPE   H2R17024   3.338   0.683   6.085
  154SAPE   H2S17025   3.332   0.561   6.198
  154SAPE    C317026   3.455   1.014   6.319
  154SAPE    HX17027   3.508   1.097   6.371
  154SAPE    HY17028   3.350   1.050   6.323
  154SAPE   O3117029   3.524   1.008   6.192
  154SAPE   C3117030   3.452   0.992   6.078
  154SAPE   O3217031   3.334   0.988   6.073
  154SAPE   C3217032   3.548   1.004   5.958
  154SAPE   H2X17033   3.646   1.008   6.011
  154SAPE   H2Y17034   3.512   1.098   5.912
  154SAPE   C2317035   3.127   0.638   6.173
  154SAPE   H3R17036   3.064   0.729   6.158
  154SAPE   H3S17037   3.098   0.590   6.268
  154SAPE   C2417038   3.099   0.536   6.059
  154SAPE   H4R17039   2.990   0.515   6.068
  154SAPE   H4S17040   3.158   0.443   6.074
  154SAPE   C2517041   3.110   0.603   5.928
  154SAPE   H5R17042   3.042   0.689   5.925
  154SAPE   C2617043   3.178   0.573   5.819
  154SAPE   H6R17044   3.187   0.641   5.734
  154SAPE   C2717045   3.283   0.463   5.813
  154SAPE   H7R17046   3.344   0.457   5.906
  154SAPE   H7S17047   3.354   0.496   5.735
  154SAPE   C2817048   3.212   0.333   5.774
  154SAPE   H8R17049   3.124   0.318   5.839
  154SAPE   C2917050   3.238   0.242   5.679
  154SAPE   H9R17051   3.168   0.157   5.672
  154SAPE  C21017052   3.350   0.255   5.575
  154SAPE  H10R17053   3.436   0.321   5.602
  154SAPE  H10S17054   3.307   0.287   5.478
  154SAPE  C21117055   3.433   0.124   5.567
  154SAPE  H11R17056   3.470   0.086   5.664
  154SAPE  C21217057   3.468   0.053   5.453
  154SAPE  H12R17058   3.527   6.818   5.464
  154SAPE  C21317059   3.417   0.067   5.316
  154SAPE  H13R17060   3.338   0.144   5.305
  154SAPE  H13S17061   3.357   6.836   5.283
  154SAPE  C21417062   3.512   0.119   5.208
  154SAPE  H14R17063   3.618   0.130   5.238
  154SAPE  C21517064   3.488   0.134   5.074
  154SAPE  H15R17065   3.569   0.163   5.005
  154SAPE  C21617066   3.355   0.108   5.015
  154SAPE  H16R17067   3.304   0.024   5.066
  154SAPE  H16S17068   3.353   0.090   4.905
  154SAPE  C21717069   3.263   0.226   5.046
  154SAPE  H17R17070   3.296   0.306   4.977
  154SAPE  H17S17071   3.284   0.260   5.149
  154SAPE  C21817072   3.109   0.198   5.031
  154SAPE  H18R17073   3.047   0.287   5.057
  154SAPE  H18S17074   3.092   0.118   5.106
  154SAPE  C21917075   3.063   0.159   4.892
  154SAPE  H19R17076   2.966   0.105   4.893
  154SAPE  H19S17077   3.149   0.096   4.861
  154SAPE  C22017078   3.052   0.270   4.782
  154SAPE  H20R17079   3.152   0.317   4.778
  154SAPE  H20S17080   2.983   0.353   4.806
  154SAPE  H20T17081   3.029   0.231   4.680
  154SAPE   C3317082   3.528   0.885   5.856
  154SAPE   H3X17083   3.538   0.791   5.914
  154SAPE   H3Y17084   3.609   0.896   5.780
  154SAPE   C3417085   3.394   0.892   5.776
  154SAPE   H4X17086   3.361   0.995   5.752
  154SAPE   H4Y17087   3.333   0.846   5.857
  154SAPE   C3517088   3.400   0.807   5.650
  154SAPE   H5X17089   3.422   0.699   5.662
  154SAPE   H5Y17090   3.490   0.849   5.599
  154SAPE   C3617091   3.292   0.834   5.548
  154SAPE   H6X17092   3.308   0.937   5.509
  154SAPE   H6Y17093   3.190   0.837   5.593
  154SAPE   C3717094   3.293   0.728   5.436
  154SAPE   H7X17095   3.281   0.631   5.488
  154SAPE   H7Y17096   3.392   0.721   5.385
  154SAPE   C3817097   3.185   0.748   5.330
  154SAPE   H8X17098   3.229   0.818   5.255
  154SAPE   H8Y17099   3.096   0.798   5.373
  154SAPE   C3917100   3.147   0.620   5.260
  154SAPE   H9X17101   3.132   0.536   5.331
  154SAPE   H9Y17102   3.229   0.580   5.196
  154SAPE  C31017103   3.025   0.636   5.170
  154SAPE  H10X17104   2.952   0.685   5.238
  154SAPE  H10Y17105   2.991   0.533   5.144
  154SAPE  C31117106   3.061   0.721   5.048
  154SAPE  H11X17107   3.147   0.660   5.013
  154SAPE  H11Y17108   3.110   0.819   5.065
  154SAPE  C31217109   2.953   0.710   4.944
  154SAPE  H12X17110   2.857   0.745   4.989
  154SAPE  H12Y17111   2.933   0.605   4.917
  154SAPE  C31317112   2.977   0.784   4.815
  154SAPE  H13X17113   3.080   0.765   4.778
  154SAPE  H13Y17114   2.972   0.894   4.832
  154SAPE  C31417115   2.874   0.747   4.699
  154SAPE  H14X17116   2.882   0.817   4.613
  154SAPE  H14Y17117   2.771   0.754   4.739
  154SAPE  C31517118   2.896   0.613   4.639
  154SAPE  H15X17119   2.949   0.547   4.711
  154SAPE  H15Y17120   2.952   0.628   4.544
  154SAPE  C31617121   2.760   0.560   4.601
  154SAPE  H16X17122   2.709   0.652   4.564
  154SAPE  H16Y17123   2.710   0.515   4.690
  154SAPE  C31717124   2.778   0.465   4.484
  154SAPE  H17X17125   2.859   0.397   4.522
  154SAPE  H17Y17126   2.818   0.513   4.393
  154SAPE  C31817127   2.652   0.377   4.440
  154SAPE  H18X17128   2.627   0.316   4.529
  154SAPE  H18Y17129   2.675   0.316   4.351
  154SAPE  H18Z17130   2.565   0.444   4.420
  155SAPE     N17131   4.864   5.759   6.747
  155SAPE   HN117132   4.959   5.717   6.749
  155SAPE   HN217133   4.860   5.840   6.814
  155SAPE   HN317134   4.800   5.682   6.774
  155SAPE   C1217135   4.824   5.818   6.614
  155SAPE  H12A17136   4.734   5.880   6.634
  155SAPE  H12B17137   4.807   5.730   6.549
  155SAPE   C1117138   4.933   5.915   6.564
  155SAPE  H11A17139   4.910   5.962   6.467
  155SAPE  H11B17140   5.029   5.860   6.553
  155SAPE     P17141   4.884   6.157   6.676
  155SAPE   O1317142   4.738   6.137   6.686
  155SAPE   O1417143   4.951   6.228   6.789
  155SAPE   O1217144   4.945   6.014   6.667
  155SAPE   O1117145   4.910   6.216   6.530
  155SAPE    C117146   5.047   6.204   6.480
  155SAPE    HA17147   5.116   6.269   6.537
  155SAPE    HB17148   5.079   6.098   6.476
  155SAPE    C217149   5.054   6.256   6.334
  155SAPE    HS17150   5.155   6.224   6.301
  155SAPE   O2117151   5.039   6.400   6.342
  155SAPE   C2117152   5.088   6.477   6.238
  155SAPE   O2217153   5.148   6.428   6.141
  155SAPE   C2217154   5.046   6.615   6.258
  155SAPE   H2R17155   4.967   6.630   6.335
  155SAPE   H2S17156   5.139   6.671   6.284
  155SAPE    C317157   4.936   6.191   6.246
  155SAPE    HX17158   4.843   6.231   6.292
  155SAPE    HY17159   4.943   6.081   6.259
  155SAPE   O3117160   4.945   6.233   6.110
  155SAPE   C3117161   5.030   6.168   6.033
  155SAPE   O3217162   5.101   6.075   6.068
  155SAPE   C3217163   5.021   6.229   5.888
  155SAPE   H2X17164   5.046   6.336   5.904
  155SAPE   H2Y17165   4.913   6.213   5.866
  155SAPE   C2317166   4.973   6.654   6.129
  155SAPE   H3R17167   4.871   6.695   6.141
  155SAPE   H3S17168   4.968   6.571   6.055
  155SAPE   C2417169   5.046   6.768   6.055
  155SAPE   H4R17170   5.054   0.002   6.118
  155SAPE   H4S17171   4.983   6.808   5.973
  155SAPE   C2517172   5.186   6.744   5.999
  155SAPE   H5R17173   5.270   6.720   6.066
  155SAPE   C2617174   5.214   6.742   5.862
  155SAPE   H6R17175   5.317   6.724   5.827
  155SAPE   C2717176   5.108   6.770   5.751
  155SAPE   H7R17177   5.017   6.712   5.774
  155SAPE   H7S17178   5.145   6.714   5.662
  155SAPE   C2817179   5.084   0.063   5.721
  155SAPE   H8R17180   5.047   0.109   5.814
  155SAPE   C2917181   5.086   0.130   5.608
  155SAPE   H9R17182   5.057   0.237   5.610
  155SAPE  C21017183   5.138   0.067   5.474
  155SAPE  H10R17184   5.225   6.855   5.483
  155SAPE  H10S17185   5.169   0.140   5.396
  155SAPE  C21117186   5.028   6.836   5.407
  155SAPE  H11R17187   4.960   6.779   5.472
  155SAPE  C21217188   5.005   6.829   5.278
  155SAPE  H12R17189   4.922   6.769   5.238
  155SAPE  C21317190   5.084   0.037   5.170
  155SAPE  H13R17191   5.078   6.838   5.074
  155SAPE  H13S17192   5.191   0.049   5.198
  155SAPE  C21417193   5.033   0.186   5.157
  155SAPE  H14R17194   5.028   0.238   5.254
  155SAPE  C21517195   4.992   0.248   5.046
  155SAPE  H15R17196   4.959   0.351   5.063
  155SAPE  C21617197   5.009   0.200   4.901
  155SAPE  H16R17198   4.911   0.162   4.867
  155SAPE  H16S17199   5.081   0.116   4.900
  155SAPE  C21717200   5.066   0.305   4.807
  155SAPE  H17R17201   5.097   0.259   4.711
  155SAPE  H17S17202   5.145   0.350   4.870
  155SAPE  C21817203   4.973   0.427   4.779
  155SAPE  H18R17204   4.965   0.475   4.879
  155SAPE  H18S17205   4.878   0.378   4.748
  155SAPE  C21917206   5.039   0.526   4.685
  155SAPE  H19R17207   5.029   0.474   4.587
  155SAPE  H19S17208   5.146   0.541   4.711
  155SAPE  C22017209   4.965   0.656   4.695
  155SAPE  H20R17210   4.857   0.648   4.668
  155SAPE  H20S17211   5.018   0.731   4.632
  155SAPE  H20T17212   4.968   0.704   4.795
  155SAPE   C3317213   5.115   6.179   5.782
  155SAPE   H3X17214   5.095   6.069   5.781
  155SAPE   H3Y17215   5.222   6.194   5.804
  155SAPE   C3417216   5.075   6.226   5.638
  155SAPE   H4X17217   5.108   6.331   5.626
  155SAPE   H4Y17218   4.964   6.237   5.635
  155SAPE   C3517219   5.142   6.133   5.533
  155SAPE   H5X17220   5.126   6.025   5.557
  155SAPE   H5Y17221   5.252   6.144   5.542
  155SAPE   C3617222   5.098   6.160   5.389
  155SAPE   H6X17223   5.146   6.255   5.355
  155SAPE   H6Y17224   4.988   6.175   5.384
  155SAPE   C3717225   5.132   6.054   5.279
  155SAPE   H7X17226   5.076   5.960   5.297
  155SAPE   H7Y17227   5.236   6.021   5.298
  155SAPE   C3817228   5.118   6.097   5.137
  155SAPE   H8X17229   5.160   6.197   5.117
  155SAPE   H8Y17230   5.010   6.097   5.110
  155SAPE   C3917231   5.190   5.997   5.041
  155SAPE   H9X17232   5.146   5.896   5.051
  155SAPE   H9Y17233   5.299   5.994   5.059
  155SAPE  C31017234   5.182   6.032   4.888
  155SAPE  H10X17235   5.243   6.124   4.880
  155SAPE  H10Y17236   5.076   6.048   4.858
  155SAPE  C31117237   5.245   5.918   4.807
  155SAPE  H11X17238   5.186   5.827   4.827
  155SAPE  H11Y17239   5.349   5.910   4.846
  155SAPE  C31217240   5.253   5.947   4.659
  155SAPE  H12X17241   5.311   6.036   4.627
  155SAPE  H12Y17242   5.148   5.966   4.625
  155SAPE  C31317243   5.323   5.835   4.577
  155SAPE  H13X17244   5.282   5.732   4.579
  155SAPE  H13Y17245   5.423   5.828   4.623
  155SAPE  C31417246   5.354   5.858   4.428
  155SAPE  H14X17247   5.449   5.809   4.399
  155SAPE  H14Y17248   5.363   5.968   4.412
  155SAPE  C31517249   5.243   5.805   4.323
  155SAPE  H15X17250   5.149   5.855   4.354
  155SAPE  H15Y17251   5.234   5.697   4.348
  155SAPE  C31617252   5.284   5.825   4.177
  155SAPE  H16X17253   5.323   5.925   4.149
  155SAPE  H16Y17254   5.185   5.803   4.131
  155SAPE  C31717255   5.381   5.718   4.132
  155SAPE  H17X17256   5.360   5.620   4.181
  155SAPE  H17Y17257   5.483   5.755   4.153
  155SAPE  C31817258   5.386   5.692   3.981
  155SAPE  H18X17259   5.281   5.665   3.955
  155SAPE  H18Y17260   5.453   5.608   3.956
  155SAPE  H18Z17261   5.423   5.780   3.925
  156SAPE     N17262   6.397   1.133   6.499
  156SAPE   HN117263   6.308   1.090   6.465
  156SAPE   HN217264   6.411   1.087   6.591
  156SAPE   HN317265   6.386   1.235   6.516
  156SAPE   C1217266   6.509   1.098   6.411
  156SAPE  H12A17267   6.579   1.183   6.423
  156SAPE  H12B17268   6.472   1.096   6.306
  156SAPE   C1117269   6.583   0.969   6.437
  156SAPE  H11A17270   6.684   0.987   6.393
  156SAPE  H11B17271   6.529   0.883   6.392
  156SAPE     P17272   6.689   0.872   6.662
  156SAPE   O1317273   6.803   0.954   6.685
  156SAPE   O1417274   6.630   0.829   6.791
  156SAPE   O1217275   6.580   0.949   6.580
  156SAPE   O1117276   6.735   0.746   6.577
  156SAPE    C117277   6.663   0.632   6.545
  156SAPE    HA17278   6.702   0.551   6.611
  156SAPE    HB17279   6.554   0.642   6.563
  156SAPE    C217280   6.695   0.582   6.401
  156SAPE    HS17281   6.803   0.556   6.403
  156SAPE   O2117282   6.660   0.683   6.306
  156SAPE   C2117283   6.747   0.704   6.212
  156SAPE   O2217284   0.001   0.653   6.201
  156SAPE   C2217285   6.689   0.816   6.126
  156SAPE   H2R17286   6.584   0.833   6.160
  156SAPE   H2S17287   6.753   0.906   6.141
  156SAPE    C317288   6.623   0.454   6.367
  156SAPE    HX17289   6.515   0.460   6.392
  156SAPE    HY17290   6.657   0.373   6.435
  156SAPE   O3117291   6.656   0.416   6.226
  156SAPE   C3117292   6.559   0.422   6.137
  156SAPE   O3217293   6.445   0.461   6.154
  156SAPE   C3217294   6.608   0.377   6.004
  156SAPE   H2X17295   6.618   0.267   5.996
  156SAPE   H2Y17296   6.713   0.409   5.982
  156SAPE   C2317297   6.676   0.760   5.979
  156SAPE   H3R17298   6.621   0.663   5.977
  156SAPE   H3S17299   6.782   0.741   5.951
  156SAPE   C2417300   6.614   0.845   5.866
  156SAPE   H4R17301   6.511   0.876   5.894
  156SAPE   H4S17302   6.612   0.794   5.768
  156SAPE   C2517303   6.695   0.972   5.857
  156SAPE   H5R17304   6.692   1.022   5.955
  156SAPE   C2617305   6.758   1.026   5.744
  156SAPE   H6R17306   6.834   1.105   5.758
  156SAPE   C2717307   6.760   0.971   5.605
  156SAPE   H7R17308   6.799   1.054   5.543
  156SAPE   H7S17309   6.657   0.948   5.570
  156SAPE   C2817310   6.841   0.848   5.582
  156SAPE   H8R17311   0.038   0.822   5.674
  156SAPE   C2917312   6.837   0.774   5.476
  156SAPE   H9R17313   0.028   0.675   5.475
  156SAPE  C21017314   6.766   0.809   5.346
  156SAPE  H10R17315   6.667   0.857   5.364
  156SAPE  H10S17316   6.755   0.724   5.276
  156SAPE  C21117317   6.845   0.910   5.260
  156SAPE  H11R17318   0.060   0.967   5.320
  156SAPE  C21217319   6.837   0.928   5.127
  156SAPE  H12R17320   0.058   0.993   5.084
  156SAPE  C21317321   6.759   0.863   5.018
  156SAPE  H13R17322   6.717   0.766   5.052
  156SAPE  H13S17323   6.833   0.839   4.940
  156SAPE  C21417324   6.665   0.963   4.970
  156SAPE  H14R17325   6.576   0.968   5.035
  156SAPE  C21517326   6.673   1.041   4.861
  156SAPE  H15R17327   6.585   1.101   4.832
  156SAPE  C21617328   6.787   1.054   4.764
  156SAPE  H16R17329   6.813   0.958   4.714
  156SAPE  H16S17330   0.018   1.096   4.818
  156SAPE  C21717331   6.743   1.153   4.658
  156SAPE  H17R17332   6.718   1.250   4.706
  156SAPE  H17S17333   6.650   1.118   4.608
  156SAPE  C21817334   6.848   1.174   4.546
  156SAPE  H18R17335   0.003   1.075   4.496
  156SAPE  H18S17336   0.095   1.187   4.585
  156SAPE  C21917337   6.820   1.301   4.459
  156SAPE  H19R17338   6.803   1.391   4.522
  156SAPE  H19S17339   6.730   1.282   4.397
  156SAPE  C22017340   0.084   1.319   4.365
  156SAPE  H20R17341   0.180   1.335   4.419
  156SAPE  H20S17342   0.068   1.419   4.320
  156SAPE  H20T17343   0.094   1.245   4.284
  156SAPE   C3317344   6.511   0.412   5.889
  156SAPE   H3X17345   6.505   0.520   5.864
  156SAPE   H3Y17346   6.410   0.373   5.914
  156SAPE   C3417347   6.546   0.343   5.748
  156SAPE   H4X17348   6.448   0.325   5.700
  156SAPE   H4Y17349   6.587   0.244   5.778
  156SAPE   C3517350   6.645   0.415   5.661
  156SAPE   H5X17351   6.738   0.410   5.723
  156SAPE   H5Y17352   6.636   0.526   5.664
  156SAPE   C3617353   6.652   0.358   5.522
  156SAPE   H6X17354   6.555   0.365   5.469
  156SAPE   H6Y17355   6.688   0.253   5.526
  156SAPE   C3717356   6.772   0.421   5.441
  156SAPE   H7X17357   0.006   0.406   5.503
  156SAPE   H7Y17358   6.743   0.526   5.421
  156SAPE   C3817359   6.777   0.363   5.296
  156SAPE   H8X17360   6.673   0.340   5.262
  156SAPE   H8Y17361   6.841   0.272   5.294
  156SAPE   C3917362   6.834   0.450   5.186
  156SAPE   H9X17363   0.085   0.459   5.211
  156SAPE   H9Y17364   6.807   0.557   5.175
  156SAPE  C31017365   6.819   0.379   5.050
  156SAPE  H10X17366   6.710   0.356   5.039
  156SAPE  H10Y17367   0.015   0.282   5.057
  156SAPE  C31117368   0.011   0.460   4.927
  156SAPE  H11X17369   0.123   0.462   4.924
  156SAPE  H11Y17370   6.830   0.564   4.933
  156SAPE  C31217371   6.809   0.415   4.796
  156SAPE  H12X17372   6.779   0.512   4.749
  156SAPE  H12Y17373   6.721   0.351   4.818
  156SAPE  C31317374   0.045   0.329   4.718
  156SAPE  H13X17375   0.070   0.240   4.779
  156SAPE  H13Y17376   0.127   0.400   4.694
  156SAPE  C31417377   6.839   0.273   4.588
  156SAPE  H14X17378   6.849   0.349   4.509
  156SAPE  H14Y17379   6.729   0.256   4.596
  156SAPE  C31517380   0.045   0.142   4.541
  156SAPE  H15X17381   0.006   0.052   4.593
  156SAPE  H15Y17382   0.155   0.135   4.559
  156SAPE  C31617383   0.014   0.115   4.397
  156SAPE  H16X17384   0.059   0.197   4.337
  156SAPE  H16Y17385   6.760   0.123   4.393
  156SAPE  C31717386   0.043   6.826   4.352
  156SAPE  H17X17387   0.065   6.770   4.445
  156SAPE  H17Y17388   0.135   6.818   4.289
  156SAPE  C31817389   6.798   6.740   4.279
  156SAPE  H18X17390   6.855   6.650   4.246
  156SAPE  H18Y17391   6.764   6.786   4.183
  156SAPE  H18Z17392   6.711   6.720   4.345
  157SAPE     N17393   0.442   6.443   6.647
  157SAPE   HN117394   0.345   6.413   6.623
  157SAPE   HN217395   0.504   6.383   6.590
  157SAPE   HN317396   0.454   6.404   6.742
  157SAPE   C1217397   0.490   6.588   6.638
  157SAPE  H12A17398   0.445   6.636   6.548
  157SAPE  H12B17399   0.599   6.580   6.622
  157SAPE   C1117400   0.456   6.660   6.765
  157SAPE  H11A17401   0.497   6.763   6.755
  157SAPE  H11B17402   0.509   6.622   6.855
  157SAPE     P17403   0.233   6.765   6.869
  157SAPE   O1317404   0.090   6.728   6.881
  157SAPE   O1417405   0.299   6.806   6.997
  157SAPE   O1217406   0.313   6.654   6.794
  157SAPE   O1117407   0.241   0.033   6.766
  157SAPE    C117408   0.180   0.022   6.637
  157SAPE    HA17409   0.216   6.784   6.593
  157SAPE    HB17410   0.069   0.019   6.637
  157SAPE    C217411   0.228   0.138   6.550
  157SAPE    HS17412   0.208   0.231   6.608
  157SAPE   O2117413   0.154   0.131   6.424
  157SAPE   C2117414   0.121   0.242   6.363
  157SAPE   O2217415   0.148   0.352   6.404
  157SAPE   C2217416   0.051   0.213   6.225
  157SAPE   H2R17417   6.805   0.176   6.242
  157SAPE   H2S17418   0.052   0.312   6.173
  157SAPE    C317419   0.381   0.134   6.530
  157SAPE    HX17420   0.436   0.097   6.619
  157SAPE    HY17421   0.416   0.238   6.510
  157SAPE   O3117422   0.414   0.039   6.429
  157SAPE   C3117423   0.485   0.075   6.325
  157SAPE   O3217424   0.529   0.183   6.300
  157SAPE   C3217425   0.504   6.814   6.219
  157SAPE   H2X17426   0.400   6.784   6.192
  157SAPE   H2Y17427   0.555   6.738   6.283
  157SAPE   C2317428   0.137   0.111   6.138
  157SAPE   H3R17429   0.147   0.027   6.210
  157SAPE   H3S17430   0.235   0.146   6.101
  157SAPE   C2417431   0.058   0.055   6.014
  157SAPE   H4R17432   0.001   0.142   5.974
  157SAPE   H4S17433   6.831   6.853   6.058
  157SAPE   C2517434   0.133   6.816   5.928
  157SAPE   H5R17435   0.233   6.787   5.965
  157SAPE   C2617436   0.087   6.770   5.818
  157SAPE   H6R17437   0.161   6.712   5.761
  157SAPE   C2717438   6.815   6.808   5.752
  157SAPE   H7R17439   6.811   0.062   5.744
  157SAPE   H7S17440   6.735   6.777   5.824
  157SAPE   C2817441   6.775   6.756   5.611
  157SAPE   H8R17442   6.687   6.690   5.607
  157SAPE   C2917443   6.841   6.784   5.492
  157SAPE   H9R17444   6.801   6.736   5.402
  157SAPE  C21017445   0.123   6.850   5.475
  157SAPE  H10R17446   0.176   0.013   5.571
  157SAPE  H10S17447   0.119   0.097   5.433
  157SAPE  C21117448   0.216   6.752   5.404
  157SAPE  H11R17449   0.262   6.678   5.471
  157SAPE  C21217450   0.255   6.748   5.273
  157SAPE  H12R17451   0.332   6.678   5.238
  157SAPE  C21317452   0.203   6.847   5.170
  157SAPE  H13R17453   0.284   0.065   5.162
  157SAPE  H13S17454   0.110   0.046   5.196
  157SAPE  C21417455   0.201   6.781   5.035
  157SAPE  H14R17456   0.120   6.708   5.023
  157SAPE  C21517457   0.293   6.794   4.930
  157SAPE  H15R17458   0.272   6.734   4.840
  157SAPE  C21617459   0.413   0.028   4.926
  157SAPE  H16R17460   0.504   6.821   4.917
  157SAPE  H16S17461   0.415   0.101   5.010
  157SAPE  C21717462   0.405   0.120   4.801
  157SAPE  H17R17463   0.479   0.202   4.806
  157SAPE  H17S17464   0.308   0.174   4.810
  157SAPE  C21817465   0.432   0.075   4.659
  157SAPE  H18R17466   0.348   0.010   4.627
  157SAPE  H18S17467   0.525   0.015   4.657
  157SAPE  C21917468   0.455   0.179   4.551
  157SAPE  H19R17469   0.499   0.270   4.597
  157SAPE  H19S17470   0.352   0.208   4.519
  157SAPE  C22017471   0.539   0.132   4.435
  157SAPE  H20R17472   0.475   0.060   4.378
  157SAPE  H20S17473   0.636   0.091   4.470
  157SAPE  H20T17474   0.554   0.221   4.370
  157SAPE   C3317475   0.570   0.008   6.090
  157SAPE   H3X17476   0.670   0.054   6.102
  157SAPE   H3Y17477   0.504   0.086   6.048
  157SAPE   C3417478   0.560   6.759   5.985
  157SAPE   H4X17479   0.460   6.710   5.972
  157SAPE   H4Y17480   0.621   6.675   6.026
  157SAPE   C3517481   0.614   6.804   5.852
  157SAPE   H5X17482   0.723   6.824   5.863
  157SAPE   H5Y17483   0.570   0.047   5.831
  157SAPE   C3617484   0.598   6.705   5.740
  157SAPE   H6X17485   0.489   6.689   5.729
  157SAPE   H6Y17486   0.650   6.608   5.756
  157SAPE   C3717487   0.647   6.760   5.607
  157SAPE   H7X17488   0.754   6.791   5.609
  157SAPE   H7Y17489   0.595   6.849   5.566
  157SAPE   C3817490   0.626   6.647   5.500
  157SAPE   H8X17491   0.522   6.652   5.462
  157SAPE   H8Y17492   0.633   6.551   5.555
  157SAPE   C3917493   0.714   6.644   5.367
  157SAPE   H9X17494   0.714   6.539   5.332
  157SAPE   H9Y17495   0.821   6.674   5.380
  157SAPE  C31017496   0.665   6.754   5.273
  157SAPE  H10X17497   0.669   6.854   5.322
  157SAPE  H10Y17498   0.561   6.745   5.235
  157SAPE  C31117499   0.743   6.766   5.143
  157SAPE  H11X17500   0.849   6.767   5.173
  157SAPE  H11Y17501   0.710   0.004   5.093
  157SAPE  C31217502   0.716   6.645   5.051
  157SAPE  H12X17503   0.616   6.648   5.004
  157SAPE  H12Y17504   0.721   6.553   5.113
  157SAPE  C31317505   0.810   6.633   4.925
  157SAPE  H13X17506   0.916   6.638   4.957
  157SAPE  H13Y17507   0.790   6.715   4.853
  157SAPE  C31417508   0.808   6.494   4.853
  157SAPE  H14X17509   0.710   6.470   4.805
  157SAPE  H14Y17510   0.824   6.408   4.921
  157SAPE  C31517511   0.921   6.475   4.744
  157SAPE  H15X17512   0.917   6.367   4.716
  157SAPE  H15Y17513   1.017   6.501   4.794
  157SAPE  C31617514   0.883   6.559   4.624
  157SAPE  H16X17515   0.911   6.661   4.656
  157SAPE  H16Y17516   0.776   6.555   4.596
  157SAPE  C31717517   0.969   6.507   4.504
  157SAPE  H17X17518   1.074   6.515   4.540
  157SAPE  H17Y17519   0.968   6.577   4.418
  157SAPE  C31817520   0.943   6.367   4.452
  157SAPE  H18X17521   0.833   6.357   4.454
  157SAPE  H18Y17522   1.009   6.301   4.513
  157SAPE  H18Z17523   0.976   6.350   4.348
  158SAPE     N17524   2.656   5.066   6.168
  158SAPE   HN117525   2.583   5.138   6.181
  158SAPE   HN217526   2.605   4.975   6.176
  158SAPE   HN317527   2.727   5.076   6.243
  158SAPE   C1217528   2.715   5.103   6.035
  158SAPE  H12A17529   2.639   5.081   5.957
  158SAPE  H12B17530   2.802   5.035   6.019
  158SAPE   C1117531   2.773   5.250   6.021
  158SAPE  H11A17532   2.688   5.320   6.004
  158SAPE  H11B17533   2.839   5.246   5.931
  158SAPE     P17534   2.946   5.411   6.144
  158SAPE   O1317535   2.909   5.486   6.269
  158SAPE   O1417536   3.083   5.347   6.142
  158SAPE   O1217537   2.849   5.291   6.131
  158SAPE   O1117538   2.920   5.511   6.024
  158SAPE    C117539   2.800   5.588   6.025
  158SAPE    HA17540   2.750   5.591   5.926
  158SAPE    HB17541   2.714   5.547   6.083
  158SAPE    C217542   2.820   5.731   6.066
  158SAPE    HS17543   2.828   5.733   6.176
  158SAPE   O2117544   2.702   5.817   6.034
  158SAPE   C2117545   2.706   5.934   6.101
  158SAPE   O2217546   2.791   5.972   6.177
  158SAPE   C2217547   2.586   6.009   6.059
  158SAPE   H2R17548   2.605   6.041   5.955
  158SAPE   H2S17549   2.498   5.943   6.073
  158SAPE    C317550   2.945   5.794   5.990
  158SAPE    HX17551   3.030   5.734   6.031
  158SAPE    HY17552   2.945   5.901   6.020
  158SAPE   O3117553   2.926   5.772   5.840
  158SAPE   C3117554   2.978   5.866   5.765
  158SAPE   O3217555   3.019   5.975   5.800
  158SAPE   C3217556   2.974   5.813   5.621
  158SAPE   H2X17557   2.871   5.779   5.597
  158SAPE   H2Y17558   3.035   5.722   5.600
  158SAPE   C2317559   2.580   6.145   6.146
  158SAPE   H3R17560   2.673   6.201   6.122
  158SAPE   H3S17561   2.582   6.129   6.256
  158SAPE   C2417562   2.457   6.227   6.108
  158SAPE   H4R17563   2.460   6.240   5.998
  158SAPE   H4S17564   2.469   6.328   6.153
  158SAPE   C2517565   2.324   6.173   6.151
  158SAPE   H5R17566   2.315   6.149   6.258
  158SAPE   C2617567   2.215   6.161   6.072
  158SAPE   H6R17568   2.120   6.127   6.116
  158SAPE   C2717569   2.203   6.195   5.924
  158SAPE   H7R17570   2.131   6.119   5.883
  158SAPE   H7S17571   2.293   6.173   5.862
  158SAPE   C2817572   2.154   6.337   5.908
  158SAPE   H8R17573   2.078   6.367   5.982
  158SAPE   C2917574   2.154   6.393   5.786
  158SAPE   H9R17575   2.124   6.499   5.784
  158SAPE  C21017576   2.215   6.359   5.653
  158SAPE  H10R17577   2.220   6.249   5.643
  158SAPE  H10S17578   2.320   6.396   5.652
  158SAPE  C21117579   2.143   6.407   5.526
  158SAPE  H11R17580   2.177   6.508   5.497
  158SAPE  C21217581   2.053   6.340   5.456
  158SAPE  H12R17582   2.008   6.387   5.368
  158SAPE  C21317583   2.008   6.200   5.478
  158SAPE  H13R17584   1.954   6.195   5.575
  158SAPE  H13S17585   2.099   6.138   5.492
  158SAPE  C21417586   1.932   6.139   5.368
  158SAPE  H14R17587   1.823   6.150   5.373
  158SAPE  C21517588   1.986   6.072   5.263
  158SAPE  H15R17589   1.915   6.016   5.201
  158SAPE  C21617590   2.130   6.063   5.228
  158SAPE  H16R17591   2.169   5.961   5.247
  158SAPE  H16S17592   2.192   6.119   5.302
  158SAPE  C21717593   2.168   6.113   5.095
  158SAPE  H17R17594   2.105   6.067   5.016
  158SAPE  H17S17595   2.273   6.079   5.084
  158SAPE  C21817596   2.139   6.258   5.088
  158SAPE  H18R17597   2.189   6.315   5.170
  158SAPE  H18S17598   2.030   6.273   5.100
  158SAPE  C21917599   2.168   6.320   4.947
  158SAPE  H19R17600   2.111   6.268   4.867
  158SAPE  H19S17601   2.276   6.294   4.941
  158SAPE  C22017602   2.133   6.469   4.923
  158SAPE  H20R17603   2.169   6.510   4.826
  158SAPE  H20S17604   2.154   6.523   5.017
  158SAPE  H20T17605   2.022   6.478   4.921
  158SAPE   C3317606   2.997   5.922   5.509
  158SAPE   H3X17607   3.108   5.914   5.516
  158SAPE   H3Y17608   2.965   6.023   5.542
  158SAPE   C3417609   2.953   5.877   5.368
  158SAPE   H4X17610   2.855   5.928   5.354
  158SAPE   H4Y17611   2.937   5.767   5.370
  158SAPE   C3517612   3.051   5.910   5.254
  158SAPE   H5X17613   3.148   5.856   5.266
  158SAPE   H5Y17614   3.071   6.017   5.231
  158SAPE   C3617615   3.002   5.874   5.110
  158SAPE   H6X17616   3.087   5.873   5.039
  158SAPE   H6Y17617   2.936   5.956   5.072
  158SAPE   C3717618   2.902   5.752   5.098
  158SAPE   H7X17619   2.819   5.769   5.169
  158SAPE   H7Y17620   2.952   5.667   5.149
  158SAPE   C3817621   2.858   5.709   4.958
  158SAPE   H8X17622   2.844   5.809   4.912
  158SAPE   H8Y17623   2.756   5.666   4.960
  158SAPE   C3917624   2.957   5.643   4.867
  158SAPE   H9X17625   2.999   5.550   4.911
  158SAPE   H9Y17626   3.040   5.716   4.863
  158SAPE  C31017627   2.904   5.613   4.720
  158SAPE  H10X17628   2.985   5.561   4.663
  158SAPE  H10Y17629   2.889   5.712   4.672
  158SAPE  C31117630   2.781   5.527   4.716
  158SAPE  H11X17631   2.701   5.585   4.768
  158SAPE  H11Y17632   2.795   5.428   4.763
  158SAPE  C31217633   2.729   5.510   4.572
  158SAPE  H12X17634   2.816   5.471   4.515
  158SAPE  H12Y17635   2.715   5.607   4.520
  158SAPE  C31317636   2.608   5.419   4.564
  158SAPE  H13X17637   2.525   5.492   4.556
  158SAPE  H13Y17638   2.594   5.368   4.662
  158SAPE  C31417639   2.605   5.323   4.439
  158SAPE  H14X17640   2.706   5.276   4.440
  158SAPE  H14Y17641   2.594   5.385   4.348
  158SAPE  C31517642   2.495   5.223   4.441
  158SAPE  H15X17643   2.486   5.162   4.534
  158SAPE  H15Y17644   2.506   5.141   4.367
  158SAPE  C31617645   2.362   5.284   4.403
  158SAPE  H16X17646   2.366   5.312   4.295
  158SAPE  H16Y17647   2.340   5.373   4.465
  158SAPE  C31717648   2.250   5.178   4.410
  158SAPE  H17X17649   2.209   5.166   4.512
  158SAPE  H17Y17650   2.284   5.081   4.367
  158SAPE  C31817651   2.132   5.223   4.334
  158SAPE  H18X17652   2.046   5.154   4.343
  158SAPE  H18Y17653   2.162   5.228   4.227
  158SAPE  H18Z17654   2.097   5.323   4.367
  159SAPE     N17655   4.862   2.968   2.401
  159SAPE   HN117656   4.899   2.871   2.392
  159SAPE   HN217657   4.927   3.044   2.430
  159SAPE   HN317658   4.792   2.965   2.479
  159SAPE   C1217659   4.816   3.006   2.258
  159SAPE  H12A17660   4.726   2.942   2.256
  159SAPE  H12B17661   4.899   2.964   2.199
  159SAPE   C1117662   4.797   3.156   2.234
  159SAPE  H11A17663   4.748   3.207   2.320
  159SAPE  H11B17664   4.734   3.160   2.143
  159SAPE     P17665   4.954   3.367   2.190
  159SAPE   O1317666   5.044   3.386   2.074
  159SAPE   O1417667   4.824   3.431   2.187
  159SAPE   O1217668   4.929   3.216   2.214
  159SAPE   O1117669   5.033   3.404   2.321
  159SAPE    C117670   5.156   3.335   2.347
  159SAPE    HA17671   5.158   3.228   2.316
  159SAPE    HB17672   5.234   3.380   2.282
  159SAPE    C217673   5.193   3.362   2.500
  159SAPE    HS17674   5.272   3.287   2.524
  159SAPE   O2117675   5.082   3.366   2.590
  159SAPE   C2117676   4.985   3.266   2.583
  159SAPE   O2217677   5.002   3.158   2.533
  159SAPE   C2217678   4.863   3.302   2.674
  159SAPE   H2R17679   4.778   3.336   2.612
  159SAPE   H2S17680   4.824   3.209   2.720
  159SAPE    C317681   5.258   3.509   2.518
  159SAPE    HX17682   5.180   3.582   2.487
  159SAPE    HY17683   5.347   3.528   2.454
  159SAPE   O3117684   5.302   3.540   2.656
  159SAPE   C3117685   5.413   3.480   2.693
  159SAPE   O3217686   5.470   3.393   2.627
  159SAPE   C3217687   5.428   3.521   2.842
  159SAPE   H2X17688   5.357   3.458   2.901
  159SAPE   H2Y17689   5.405   3.629   2.854
  159SAPE   C2317690   4.885   3.392   2.787
  159SAPE   H3R17691   4.905   3.494   2.749
  159SAPE   H3S17692   4.983   3.373   2.836
  159SAPE   C2417693   4.782   3.382   2.901
  159SAPE   H4R17694   4.769   3.276   2.930
  159SAPE   H4S17695   4.683   3.406   2.854
  159SAPE   C2517696   4.807   3.478   3.016
  159SAPE   H5R17697   4.805   3.585   2.989
  159SAPE   C2617698   4.822   3.451   3.143
  159SAPE   H6R17699   4.853   3.529   3.215
  159SAPE   C2717700   4.817   3.315   3.196
  159SAPE   H7R17701   4.921   3.274   3.194
  159SAPE   H7S17702   4.755   3.246   3.135
  159SAPE   C2817703   4.765   3.332   3.336
  159SAPE   H8R17704   4.666   3.379   3.334
  159SAPE   C2917705   4.813   3.287   3.451
  159SAPE   H9R17706   4.758   3.307   3.544
  159SAPE  C21017707   4.940   3.201   3.445
  159SAPE  H10R17708   4.958   3.153   3.346
  159SAPE  H10S17709   4.939   3.121   3.521
  159SAPE  C21117710   5.053   3.297   3.490
  159SAPE  H11R17711   5.087   3.358   3.405
  159SAPE  C21217712   5.130   3.304   3.601
  159SAPE  H12R17713   5.200   3.388   3.615
  159SAPE  C21317714   5.119   3.212   3.715
  159SAPE  H13R17715   5.207   3.243   3.776
  159SAPE  H13S17716   5.141   3.110   3.676
  159SAPE  C21417717   4.990   3.240   3.795
  159SAPE  H14R17718   4.908   3.288   3.739
  159SAPE  C21517719   4.975   3.225   3.930
  159SAPE  H15R17720   4.883   3.246   3.985
  159SAPE  C21617721   5.085   3.173   4.016
  159SAPE  H16R17722   5.147   3.256   4.057
  159SAPE  H16S17723   5.160   3.113   3.959
  159SAPE  C21717724   5.047   3.098   4.144
  159SAPE  H17R17725   4.954   3.040   4.129
  159SAPE  H17S17726   5.013   3.173   4.218
  159SAPE  C21817727   5.163   3.013   4.206
  159SAPE  H18R17728   5.188   2.923   4.145
  159SAPE  H18S17729   5.142   2.992   4.312
  159SAPE  C21917730   5.294   3.087   4.225
  159SAPE  H19R17731   5.276   3.183   4.278
  159SAPE  H19S17732   5.339   3.112   4.127
  159SAPE  C22017733   5.397   3.012   4.306
  159SAPE  H20R17734   5.348   2.997   4.405
  159SAPE  H20S17735   5.492   3.069   4.318
  159SAPE  H20T17736   5.421   2.913   4.263
  159SAPE   C3317737   5.568   3.495   2.903
  159SAPE   H3X17738   5.636   3.433   2.842
  159SAPE   H3Y17739   5.559   3.440   2.999
  159SAPE   C3417740   5.661   3.618   2.920
  159SAPE   H4X17741   5.748   3.601   2.988
  159SAPE   H4Y17742   5.596   3.691   2.973
  159SAPE   C3517743   5.715   3.678   2.792
  159SAPE   H5X17744   5.630   3.689   2.722
  159SAPE   H5Y17745   5.769   3.592   2.748
  159SAPE   C3617746   5.812   3.790   2.811
  159SAPE   H6X17747   5.847   3.824   2.711
  159SAPE   H6Y17748   5.893   3.757   2.879
  159SAPE   C3717749   5.756   3.909   2.888
  159SAPE   H7X17750   5.718   3.869   2.984
  159SAPE   H7Y17751   5.664   3.942   2.835
  159SAPE   C3817752   5.854   4.017   2.904
  159SAPE   H8X17753   5.799   4.095   2.961
  159SAPE   H8Y17754   5.881   4.068   2.808
  159SAPE   C3917755   5.972   3.981   2.992
  159SAPE   H9X17756   6.053   3.926   2.938
  159SAPE   H9Y17757   5.937   3.910   3.070
  159SAPE  C31017758   6.022   4.096   3.074
  159SAPE  H10X17759   6.060   4.055   3.170
  159SAPE  H10Y17760   5.938   4.163   3.099
  159SAPE  C31117761   6.113   4.199   3.004
  159SAPE  H11X17762   6.155   4.281   3.067
  159SAPE  H11Y17763   6.047   4.246   2.928
  159SAPE  C31217764   6.237   4.149   2.925
  159SAPE  H12X17765   6.274   4.243   2.877
  159SAPE  H12Y17766   6.206   4.075   2.848
  159SAPE  C31317767   6.343   4.082   3.010
  159SAPE  H13X17768   6.305   3.988   3.053
  159SAPE  H13Y17769   6.353   4.148   3.099
  159SAPE  C31417770   6.473   4.068   2.929
  159SAPE  H14X17771   6.550   4.022   2.994
  159SAPE  H14Y17772   6.508   4.170   2.902
  159SAPE  C31517773   6.455   3.994   2.796
  159SAPE  H15X17774   6.389   4.046   2.724
  159SAPE  H15Y17775   6.427   3.887   2.802
  159SAPE  C31617776   6.592   3.994   2.716
  159SAPE  H16X17777   6.643   4.092   2.703
  159SAPE  H16Y17778   6.571   3.955   2.614
  159SAPE  C31717779   6.694   3.884   2.767
  159SAPE  H17X17780   6.646   3.785   2.749
  159SAPE  H17Y17781   6.703   3.897   2.877
  159SAPE  C31817782   6.839   3.891   2.716
  159SAPE  H18X17783   0.045   3.812   2.763
  159SAPE  H18Y17784   0.026   3.986   2.751
  159SAPE  H18Z17785   6.831   3.895   2.605
  160SAPE     N17786   5.102   2.090   2.371
  160SAPE   HN117787   5.177   2.048   2.312
  160SAPE   HN217788   5.151   2.116   2.459
  160SAPE   HN317789   5.032   2.013   2.383
  160SAPE   C1217790   5.026   2.203   2.301
  160SAPE  H12A17791   5.028   2.167   2.196
  160SAPE  H12B17792   5.098   2.286   2.318
  160SAPE   C1117793   4.895   2.224   2.368
  160SAPE  H11A17794   4.850   2.304   2.306
  160SAPE  H11B17795   4.896   2.264   2.472
  160SAPE     P17796   4.714   2.077   2.252
  160SAPE   O1317797   4.762   2.107   2.117
  160SAPE   O1417798   4.647   1.949   2.265
  160SAPE   O1217799   4.831   2.100   2.360
  160SAPE   O1117800   4.613   2.193   2.290
  160SAPE    C117801   4.583   2.253   2.410
  160SAPE    HA17802   4.675   2.304   2.446
  160SAPE    HB17803   4.503   2.328   2.392
  160SAPE    C217804   4.519   2.156   2.518
  160SAPE    HS17805   4.472   2.220   2.596
  160SAPE   O2117806   4.622   2.075   2.580
  160SAPE   C2117807   4.692   2.126   2.682
  160SAPE   O2217808   4.677   2.237   2.725
  160SAPE   C2217809   4.786   2.014   2.728
  160SAPE   H2R17810   4.731   1.934   2.783
  160SAPE   H2S17811   4.837   1.968   2.641
  160SAPE    C317812   4.407   2.071   2.467
  160SAPE    HX17813   4.436   1.995   2.391
  160SAPE    HY17814   4.336   2.129   2.405
  160SAPE   O3117815   4.326   2.020   2.580
  160SAPE   C3117816   4.382   1.913   2.650
  160SAPE   O3217817   4.483   1.850   2.621
  160SAPE   C3217818   4.292   1.903   2.769
  160SAPE   H2X17819   4.185   1.927   2.753
  160SAPE   H2Y17820   4.334   1.967   2.850
  160SAPE   C2317821   4.899   2.075   2.813
  160SAPE   H3R17822   4.856   2.129   2.900
  160SAPE   H3S17823   4.962   2.145   2.753
  160SAPE   C2417824   4.990   1.970   2.884
  160SAPE   H4R17825   5.030   1.894   2.813
  160SAPE   H4S17826   4.918   1.910   2.944
  160SAPE   C2517827   5.120   2.012   2.954
  160SAPE   H5R17828   5.210   2.003   2.891
  160SAPE   C2617829   5.133   2.039   3.084
  160SAPE   H6R17830   5.233   2.063   3.123
  160SAPE   C2717831   5.021   2.048   3.185
  160SAPE   H7R17832   5.049   1.996   3.280
  160SAPE   H7S17833   4.928   1.998   3.152
  160SAPE   C2817834   4.988   2.194   3.213
  160SAPE   H8R17835   4.962   2.241   3.118
  160SAPE   C2917836   4.985   2.260   3.328
  160SAPE   H9R17837   4.955   2.365   3.324
  160SAPE  C21017838   5.020   2.202   3.464
  160SAPE  H10R17839   5.103   2.262   3.507
  160SAPE  H10S17840   5.061   2.099   3.456
  160SAPE  C21117841   4.898   2.211   3.558
  160SAPE  H11R17842   4.815   2.151   3.518
  160SAPE  C21217843   4.891   2.251   3.686
  160SAPE  H12R17844   4.790   2.273   3.724
  160SAPE  C21317845   5.009   2.313   3.765
  160SAPE  H13R17846   4.977   2.410   3.809
  160SAPE  H13S17847   5.092   2.357   3.704
  160SAPE  C21417848   5.060   2.209   3.856
  160SAPE  H14R17849   5.078   2.112   3.808
  160SAPE  C21517850   5.103   2.225   3.980
  160SAPE  H15R17851   5.145   2.140   4.037
  160SAPE  C21617852   5.088   2.358   4.057
  160SAPE  H16R17853   5.088   2.331   4.164
  160SAPE  H16S17854   4.992   2.410   4.034
  160SAPE  C21717855   5.204   2.454   4.029
  160SAPE  H17R17856   5.175   2.551   4.075
  160SAPE  H17S17857   5.215   2.455   3.918
  160SAPE  C21817858   5.334   2.403   4.090
  160SAPE  H18R17859   5.345   2.296   4.063
  160SAPE  H18S17860   5.329   2.420   4.200
  160SAPE  C21917861   5.456   2.480   4.037
  160SAPE  H19R17862   5.450   2.584   4.076
  160SAPE  H19S17863   5.461   2.475   3.927
  160SAPE  C22017864   5.589   2.448   4.111
  160SAPE  H20R17865   5.672   2.509   4.069
  160SAPE  H20S17866   5.609   2.340   4.091
  160SAPE  H20T17867   5.570   2.465   4.219
  160SAPE   C3317868   4.283   1.761   2.831
  160SAPE   H3X17869   4.383   1.712   2.827
  160SAPE   H3Y17870   4.213   1.700   2.770
  160SAPE   C3417871   4.242   1.765   2.979
  160SAPE   H4X17872   4.161   1.840   2.987
  160SAPE   H4Y17873   4.325   1.808   3.039
  160SAPE   C3517874   4.208   1.622   3.042
  160SAPE   H5X17875   4.291   1.554   3.018
  160SAPE   H5Y17876   4.125   1.594   2.973
  160SAPE   C3617877   4.159   1.634   3.185
  160SAPE   H6X17878   4.089   1.720   3.181
  160SAPE   H6Y17879   4.244   1.660   3.251
  160SAPE   C3717880   4.099   1.503   3.233
  160SAPE   H7X17881   4.179   1.426   3.239
  160SAPE   H7Y17882   4.022   1.475   3.157
  160SAPE   C3817883   4.025   1.518   3.365
  160SAPE   H8X17884   3.970   1.422   3.378
  160SAPE   H8Y17885   3.949   1.598   3.356
  160SAPE   C3917886   4.120   1.535   3.484
  160SAPE   H9X17887   4.175   1.632   3.482
  160SAPE   H9Y17888   4.203   1.461   3.475
  160SAPE  C31017889   4.048   1.526   3.619
  160SAPE  H10X17890   4.130   1.529   3.695
  160SAPE  H10Y17891   3.989   1.434   3.640
  160SAPE  C31117892   3.958   1.642   3.648
  160SAPE  H11X17893   3.884   1.658   3.567
  160SAPE  H11Y17894   4.017   1.733   3.672
  160SAPE  C31217895   3.861   1.602   3.764
  160SAPE  H12X17896   3.788   1.528   3.725
  160SAPE  H12Y17897   3.804   1.696   3.782
  160SAPE  C31317898   3.923   1.537   3.890
  160SAPE  H13X17899   4.007   1.605   3.916
  160SAPE  H13Y17900   3.973   1.441   3.866
  160SAPE  C31417901   3.817   1.527   3.998
  160SAPE  H14X17902   3.747   1.452   3.957
  160SAPE  H14Y17903   3.773   1.626   4.025
  160SAPE  C31517904   3.887   1.480   4.121
  160SAPE  H15X17905   3.973   1.550   4.132
  160SAPE  H15Y17906   3.937   1.381   4.122
  160SAPE  C31617907   3.794   1.492   4.254
  160SAPE  H16X17908   3.724   1.406   4.257
  160SAPE  H16Y17909   3.744   1.591   4.261
  160SAPE  C31717910   3.889   1.477   4.371
  160SAPE  H17X17911   3.954   1.566   4.380
  160SAPE  H17Y17912   3.952   1.388   4.349
  160SAPE  C31817913   3.818   1.455   4.506
  160SAPE  H18X17914   3.765   1.358   4.503
  160SAPE  H18Y17915   3.750   1.540   4.527
  160SAPE  H18Z17916   3.903   1.454   4.578
  161SAPE     N17917   2.442   4.000   1.508
  161SAPE   HN117918   2.416   3.947   1.422
  161SAPE   HN217919   2.537   4.041   1.496
  161SAPE   HN317920   2.451   3.930   1.584
  161SAPE   C1217921   2.333   4.102   1.532
  161SAPE  H12A17922   2.240   4.044   1.548
  161SAPE  H12B17923   2.324   4.169   1.444
  161SAPE   C1117924   2.361   4.190   1.650
  161SAPE  H11A17925   2.364   4.134   1.745
  161SAPE  H11B17926   2.272   4.255   1.644
  161SAPE     P17927   2.540   4.363   1.724
  161SAPE   O1317928   2.686   4.377   1.725
  161SAPE   O1417929   2.460   4.484   1.707
  161SAPE   O1217930   2.483   4.244   1.624
  161SAPE   O1117931   2.511   4.307   1.863
  161SAPE    C117932   2.405   4.355   1.951
  161SAPE    HA17933   2.314   4.386   1.896
  161SAPE    HB17934   2.379   4.280   2.028
  161SAPE    C217935   2.467   4.475   2.032
  161SAPE    HS17936   2.524   4.544   1.966
  161SAPE   O2117937   2.561   4.420   2.127
  161SAPE   C2117938   2.645   4.503   2.189
  161SAPE   O2217939   2.667   4.614   2.145
  161SAPE   C2217940   2.738   4.416   2.283
  161SAPE   H2R17941   2.677   4.333   2.325
  161SAPE   H2S17942   2.814   4.380   2.210
  161SAPE    C317943   2.359   4.561   2.108
  161SAPE    HX17944   2.289   4.591   2.027
  161SAPE    HY17945   2.402   4.660   2.131
  161SAPE   O3117946   2.289   4.494   2.226
  161SAPE   C3117947   2.327   4.528   2.340
  161SAPE   O3217948   2.419   4.605   2.366
  161SAPE   C3217949   2.245   4.456   2.443
  161SAPE   H2X17950   2.268   4.348   2.430
  161SAPE   H2Y17951   2.140   4.479   2.414
  161SAPE   C2317952   2.806   4.493   2.394
  161SAPE   H3R17953   2.732   4.530   2.468
  161SAPE   H3S17954   2.853   4.584   2.352
  161SAPE   C2417955   2.912   4.405   2.459
  161SAPE   H4R17956   2.983   4.471   2.514
  161SAPE   H4S17957   2.978   4.364   2.380
  161SAPE   C2517958   2.861   4.292   2.541
  161SAPE   H5R17959   2.846   4.194   2.493
  161SAPE   C2617960   2.813   4.290   2.667
  161SAPE   H6R17961   2.795   4.192   2.712
  161SAPE   C2717962   2.823   4.397   2.770
  161SAPE   H7R17963   2.814   4.491   2.713
  161SAPE   H7S17964   2.929   4.404   2.804
  161SAPE   C2817965   2.718   4.388   2.880
  161SAPE   H8R17966   2.620   4.403   2.834
  161SAPE   C2917967   2.736   4.362   3.008
  161SAPE   H9R17968   2.646   4.357   3.071
  161SAPE  C21017969   2.858   4.322   3.086
  161SAPE  H10R17970   2.870   4.417   3.143
  161SAPE  H10S17971   2.948   4.317   3.020
  161SAPE  C21117972   2.849   4.196   3.170
  161SAPE  H11R17973   2.868   4.108   3.107
  161SAPE  C21217974   2.832   4.190   3.298
  161SAPE  H12R17975   2.829   4.088   3.339
  161SAPE  C21317976   2.804   4.297   3.393
  161SAPE  H13R17977   2.834   4.398   3.359
  161SAPE  H13S17978   2.858   4.279   3.489
  161SAPE  C21417979   2.655   4.309   3.416
  161SAPE  H14R17980   2.590   4.273   3.336
  161SAPE  C21517981   2.597   4.354   3.527
  161SAPE  H15R17982   2.488   4.361   3.516
  161SAPE  C21617983   2.655   4.402   3.660
  161SAPE  H16R17984   2.639   4.511   3.674
  161SAPE  H16S17985   2.764   4.383   3.664
  161SAPE  C21717986   2.586   4.336   3.775
  161SAPE  H17R17987   2.620   4.232   3.790
  161SAPE  H17S17988   2.475   4.339   3.768
  161SAPE  C21817989   2.614   4.413   3.907
  161SAPE  H18R17990   2.559   4.509   3.919
  161SAPE  H18S17991   2.723   4.432   3.915
  161SAPE  C21917992   2.571   4.326   4.037
  161SAPE  H19R17993   2.620   4.361   4.130
  161SAPE  H19S17994   2.605   4.220   4.027
  161SAPE  C22017995   2.420   4.314   4.070
  161SAPE  H20R17996   2.377   4.408   4.112
  161SAPE  H20S17997   2.419   4.237   4.150
  161SAPE  H20T17998   2.362   4.278   3.982
  161SAPE   C3317999   2.254   4.492   2.596
  161SAPE   H3X18000   2.260   4.602   2.602
  161SAPE   H3Y18001   2.357   4.453   2.610
  161SAPE   C3418002   2.152   4.424   2.687
  161SAPE   H4X18003   2.161   4.315   2.702
  161SAPE   H4Y18004   2.051   4.446   2.647
  161SAPE   C3518005   2.168   4.461   2.833
  161SAPE   H5X18006   2.151   4.570   2.844
  161SAPE   H5Y18007   2.269   4.435   2.873
  161SAPE   C3618008   2.060   4.392   2.924
  161SAPE   H6X18009   2.055   4.283   2.904
  161SAPE   H6Y18010   1.960   4.418   2.884
  161SAPE   C3718011   2.085   4.438   3.069
  161SAPE   H7X18012   2.084   4.549   3.071
  161SAPE   H7Y18013   2.188   4.403   3.095
  161SAPE   C3818014   1.985   4.380   3.165
  161SAPE   H8X18015   1.992   4.270   3.154
  161SAPE   H8Y18016   1.882   4.404   3.132
  161SAPE   C3918017   2.006   4.413   3.322
  161SAPE   H9X18018   1.999   4.523   3.338
  161SAPE   H9Y18019   2.108   4.378   3.348
  161SAPE  C31018020   1.897   4.338   3.393
  161SAPE  H10X18021   1.912   4.230   3.375
  161SAPE  H10Y18022   1.799   4.366   3.348
  161SAPE  C31118023   1.873   4.363   3.540
  161SAPE  H11X18024   1.848   4.470   3.557
  161SAPE  H11Y18025   1.972   4.341   3.587
  161SAPE  C31218026   1.766   4.276   3.611
  161SAPE  H12X18027   1.783   4.166   3.602
  161SAPE  H12Y18028   1.660   4.295   3.585
  161SAPE  C31318029   1.776   4.279   3.765
  161SAPE  H13X18030   1.757   4.383   3.798
  161SAPE  H13Y18031   1.880   4.258   3.798
  161SAPE  C31418032   1.680   4.193   3.841
  161SAPE  H14X18033   1.688   4.089   3.801
  161SAPE  H14Y18034   1.578   4.222   3.809
  161SAPE  C31518035   1.696   4.234   3.983
  161SAPE  H15X18036   1.663   4.338   4.002
  161SAPE  H15Y18037   1.804   4.227   4.007
  161SAPE  C31618038   1.604   4.141   4.075
  161SAPE  H16X18039   1.629   4.174   4.178
  161SAPE  H16Y18040   1.634   4.035   4.060
  161SAPE  C31718041   1.461   4.138   4.039
  161SAPE  H17X18042   1.444   4.114   3.932
  161SAPE  H17Y18043   1.426   4.243   4.051
  161SAPE  C31818044   1.379   4.062   4.144
  161SAPE  H18X18045   1.396   4.102   4.246
  161SAPE  H18Y18046   1.397   3.953   4.149
  161SAPE  H18Z18047   1.274   4.068   4.110
  162SAPE     N18048   2.106   0.375   1.853
  162SAPE   HN118049   2.066   0.279   1.852
  162SAPE   HN218050   2.084   0.422   1.943
  162SAPE   HN318051   2.066   0.436   1.779
  162SAPE   C1218052   2.252   0.372   1.819
  162SAPE  H12A18053   2.290   0.476   1.809
  162SAPE  H12B18054   2.256   0.310   1.727
  162SAPE   C1118055   2.341   0.297   1.921
  162SAPE  H11A18056   2.449   0.299   1.896
  162SAPE  H11B18057   2.317   0.188   1.919
  162SAPE     P18058   2.425   0.449   2.113
  162SAPE   O1318059   2.564   0.408   2.089
  162SAPE   O1418060   2.383   0.577   2.056
  162SAPE   O1218061   2.325   0.344   2.058
  162SAPE   O1118062   2.408   0.440   2.267
  162SAPE    C118063   2.335   0.321   2.316
  162SAPE    HA18064   2.230   0.332   2.282
  162SAPE    HB18065   2.367   0.227   2.268
  162SAPE    C218066   2.345   0.316   2.468
  162SAPE    HS18067   2.294   0.220   2.490
  162SAPE   O2118068   2.287   0.430   2.535
  162SAPE   C2118069   2.159   0.420   2.566
  162SAPE   O2218070   2.087   0.326   2.533
  162SAPE   C2218071   2.111   0.535   2.660
  162SAPE   H2R18072   2.109   0.632   2.607
  162SAPE   H2S18073   2.009   0.507   2.694
  162SAPE    C318074   2.494   0.283   2.512
  162SAPE    HX18075   2.566   0.360   2.477
  162SAPE    HY18076   2.507   0.183   2.466
  162SAPE   O3118077   2.505   0.278   2.652
  162SAPE   C3118078   2.624   0.235   2.696
  162SAPE   O3218079   2.718   0.184   2.627
  162SAPE   C3218080   2.650   0.287   2.841
  162SAPE   H2X18081   2.563   0.343   2.880
  162SAPE   H2Y18082   2.724   0.369   2.832
  162SAPE   C2318083   2.187   0.567   2.799
  162SAPE   H3R18084   2.168   0.674   2.823
  162SAPE   H3S18085   2.297   0.566   2.784
  162SAPE   C2418086   2.138   0.487   2.917
  162SAPE   H4R18087   2.028   0.495   2.926
  162SAPE   H4S18088   2.175   0.529   3.014
  162SAPE   C2518089   2.184   0.349   2.903
  162SAPE   H5R18090   2.147   0.298   2.814
  162SAPE   C2618091   2.259   0.278   2.986
  162SAPE   H6R18092   2.268   0.170   2.966
  162SAPE   C2718093   2.307   0.315   3.123
  162SAPE   H7R18094   2.267   0.415   3.151
  162SAPE   H7S18095   2.411   0.341   3.092
  162SAPE   C2818096   2.297   0.221   3.238
  162SAPE   H8R18097   2.315   0.114   3.219
  162SAPE   C2918098   2.253   0.255   3.359
  162SAPE   H9R18099   2.259   0.178   3.437
  162SAPE  C21018100   2.225   0.398   3.401
  162SAPE  H10R18101   2.146   0.451   3.343
  162SAPE  H10S18102   2.315   0.460   3.379
  162SAPE  C21118103   2.181   0.400   3.547
  162SAPE  H11R18104   2.259   0.423   3.621
  162SAPE  C21218105   2.058   0.386   3.593
  162SAPE  H12R18106   2.054   0.378   3.702
  162SAPE  C21318107   1.927   0.358   3.515
  162SAPE  H13R18108   1.956   0.351   3.408
  162SAPE  H13S18109   1.862   0.443   3.541
  162SAPE  C21418110   1.872   0.217   3.549
  162SAPE  H14R18111   1.890   0.143   3.470
  162SAPE  C21518112   1.816   0.172   3.663
  162SAPE  H15R18113   1.774   0.070   3.662
  162SAPE  C21618114   1.793   0.253   3.785
  162SAPE  H16R18115   1.692   0.299   3.783
  162SAPE  H16S18116   1.874   0.326   3.804
  162SAPE  C21718117   1.781   0.168   3.913
  162SAPE  H17R18118   1.880   0.121   3.933
  162SAPE  H17S18119   1.698   0.096   3.895
  162SAPE  C21818120   1.757   0.253   4.039
  162SAPE  H18R18121   1.653   0.292   4.048
  162SAPE  H18S18122   1.833   0.334   4.044
  162SAPE  C21918123   1.776   0.166   4.161
  162SAPE  H19R18124   1.766   0.233   4.248
  162SAPE  H19S18125   1.879   0.128   4.179
  162SAPE  C22018126   1.666   0.055   4.175
  162SAPE  H20R18127   1.681   0.006   4.274
  162SAPE  H20S18128   1.681   6.827   4.104
  162SAPE  H20T18129   1.567   0.104   4.163
  162SAPE   C3318130   2.696   0.171   2.935
  162SAPE   H3X18131   2.744   0.222   3.022
  162SAPE   H3Y18132   2.782   0.123   2.884
  162SAPE   C3418133   2.582   0.076   2.977
  162SAPE   H4X18134   2.526   0.042   2.887
  162SAPE   H4Y18135   2.505   0.126   3.041
  162SAPE   C3518136   2.627   6.817   3.066
  162SAPE   H5X18137   2.653   6.847   3.170
  162SAPE   H5Y18138   2.717   6.773   3.018
  162SAPE   C3618139   2.517   6.711   3.071
  162SAPE   H6X18140   2.512   6.683   2.964
  162SAPE   H6Y18141   2.415   6.750   3.089
  162SAPE   C3718142   2.537   6.594   3.163
  162SAPE   H7X18143   2.635   6.554   3.129
  162SAPE   H7Y18144   2.458   6.517   3.147
  162SAPE   C3818145   2.544   6.623   3.313
  162SAPE   H8X18146   2.446   6.659   3.351
  162SAPE   H8Y18147   2.620   6.699   3.338
  162SAPE   C3918148   2.575   6.492   3.400
  162SAPE   H9X18149   2.682   6.469   3.380
  162SAPE   H9Y18150   2.510   6.406   3.374
  162SAPE  C31018151   2.573   6.524   3.551
  162SAPE  H10X18152   2.466   6.549   3.569
  162SAPE  H10Y18153   2.628   6.618   3.572
  162SAPE  C31118154   2.616   6.393   3.628
  162SAPE  H11X18155   2.725   6.398   3.609
  162SAPE  H11Y18156   2.575   6.302   3.579
  162SAPE  C31218157   2.581   6.387   3.774
  162SAPE  H12X18158   2.607   6.291   3.824
  162SAPE  H12Y18159   2.473   6.405   3.788
  162SAPE  C31318160   2.668   6.492   3.848
  162SAPE  H13X18161   2.650   6.590   3.799
  162SAPE  H13Y18162   2.776   6.465   3.844
  162SAPE  C31418163   2.638   6.509   3.998
  162SAPE  H14X18164   2.703   6.435   4.050
  162SAPE  H14Y18165   2.534   6.476   4.018
  162SAPE  C31518166   2.667   6.653   4.049
  162SAPE  H15X18167   2.609   6.719   3.981
  162SAPE  H15Y18168   2.777   6.668   4.045
  162SAPE  C31618169   2.620   6.662   4.194
  162SAPE  H16X18170   2.654   6.581   4.262
  162SAPE  H16Y18171   2.510   6.649   4.199
  162SAPE  C31718172   2.645   6.796   4.261
  162SAPE  H17X18173   2.580   0.017   4.216
  162SAPE  H17Y18174   2.752   6.820   4.241
  162SAPE  C31818175   2.629   6.799   4.414
  162SAPE  H18X18176   2.638   0.047   4.452
  162SAPE  H18Y18177   2.719   6.749   4.456
  162SAPE  H18Z18178   2.534   6.758   4.454
  163SAPE     N18179   1.633   3.594   1.949
  163SAPE   HN118180   1.724   3.544   1.944
  163SAPE   HN218181   1.642   3.685   2.000
  163SAPE   HN318182   1.575   3.538   2.014
  163SAPE   C1218183   1.568   3.621   1.821
  163SAPE  H12A18184   1.555   3.528   1.762
  163SAPE  H12B18185   1.643   3.679   1.763
  163SAPE   C1118186   1.434   3.690   1.849
  163SAPE  H11A18187   1.382   3.724   1.757
  163SAPE  H11B18188   1.450   3.783   1.909
  163SAPE     P18189   1.229   3.683   2.010
  163SAPE   O1318190   1.190   3.800   1.935
  163SAPE   O1418191   1.121   3.599   2.060
  163SAPE   O1218192   1.336   3.609   1.913
  163SAPE   O1118193   1.313   3.727   2.128
  163SAPE    C118194   1.378   3.621   2.202
  163SAPE    HA18195   1.358   3.518   2.164
  163SAPE    HB18196   1.488   3.632   2.210
  163SAPE    C218197   1.331   3.626   2.352
  163SAPE    HS18198   1.228   3.586   2.360
  163SAPE   O2118199   1.339   3.761   2.393
  163SAPE   C2118200   1.235   3.798   2.468
  163SAPE   O2218201   1.158   3.730   2.526
  163SAPE   C2218202   1.223   3.950   2.473
  163SAPE   H2R18203   1.320   3.995   2.502
  163SAPE   H2S18204   1.200   3.987   2.371
  163SAPE    C318205   1.413   3.535   2.444
  163SAPE    HX18206   1.517   3.574   2.441
  163SAPE    HY18207   1.419   3.438   2.390
  163SAPE   O3118208   1.361   3.519   2.584
  163SAPE   C3118209   1.406   3.602   2.670
  163SAPE   O3218210   1.492   3.688   2.652
  163SAPE   C3218211   1.341   3.569   2.805
  163SAPE   H2X18212   1.361   3.462   2.828
  163SAPE   H2Y18213   1.230   3.574   2.795
  163SAPE   C2318214   1.116   3.988   2.584
  163SAPE   H3R18215   1.120   3.928   2.678
  163SAPE   H3S18216   1.023   3.954   2.534
  163SAPE   C2418217   1.113   4.138   2.617
  163SAPE   H4R18218   1.024   4.159   2.680
  163SAPE   H4S18219   1.094   4.204   2.530
  163SAPE   C2518220   1.249   4.170   2.679
  163SAPE   H5R18221   1.333   4.190   2.610
  163SAPE   C2618222   1.274   4.170   2.808
  163SAPE   H6R18223   1.378   4.190   2.834
  163SAPE   C2718224   1.174   4.140   2.918
  163SAPE   H7R18225   1.093   4.072   2.884
  163SAPE   H7S18226   1.118   4.233   2.942
  163SAPE   C2818227   1.224   4.065   3.041
  163SAPE   H8R18228   1.327   4.027   3.037
  163SAPE   C2918229   1.157   4.037   3.147
  163SAPE   H9R18230   1.214   3.991   3.229
  163SAPE  C21018231   1.013   4.075   3.188
  163SAPE  H10R18232   0.962   3.982   3.219
  163SAPE  H10S18233   0.953   4.123   3.108
  163SAPE  C21118234   1.020   4.176   3.294
  163SAPE  H11R18235   1.051   4.276   3.259
  163SAPE  C21218236   0.989   4.162   3.421
  163SAPE  H12R18237   0.994   4.254   3.481
  163SAPE  C21318238   0.944   4.042   3.490
  163SAPE  H13R18239   0.974   4.048   3.597
  163SAPE  H13S18240   1.001   3.953   3.453
  163SAPE  C21418241   0.793   4.029   3.476
  163SAPE  H14R18242   0.761   4.059   3.375
  163SAPE  C21518243   0.703   4.007   3.566
  163SAPE  H15R18244   0.597   4.001   3.535
  163SAPE  C21618245   0.732   3.986   3.714
  163SAPE  H16R18246   0.814   3.912   3.731
  163SAPE  H16S18247   0.647   3.936   3.766
  163SAPE  C21718248   0.768   4.124   3.776
  163SAPE  H17R18249   0.704   4.207   3.738
  163SAPE  H17S18250   0.869   4.162   3.752
  163SAPE  C21818251   0.744   4.133   3.925
  163SAPE  H18R18252   0.646   4.084   3.946
  163SAPE  H18S18253   0.748   4.238   3.961
  163SAPE  C21918254   0.852   4.062   4.008
  163SAPE  H19R18255   0.861   3.956   3.976
  163SAPE  H19S18256   0.836   4.072   4.118
  163SAPE  C22018257   0.994   4.122   3.984
  163SAPE  H20R18258   0.984   4.231   3.965
  163SAPE  H20S18259   1.033   4.076   3.891
  163SAPE  H20T18260   1.056   4.096   4.072
  163SAPE   C3318261   1.381   3.659   2.931
  163SAPE   H3X18262   1.356   3.766   2.915
  163SAPE   H3Y18263   1.489   3.643   2.955
  163SAPE   C3418264   1.303   3.618   3.053
  163SAPE   H4X18265   1.349   3.672   3.138
  163SAPE   H4Y18266   1.325   3.514   3.084
  163SAPE   C3518267   1.144   3.644   3.043
  163SAPE   H5X18268   1.103   3.581   2.961
  163SAPE   H5Y18269   1.124   3.750   3.016
  163SAPE   C3618270   1.073   3.580   3.170
  163SAPE   H6X18271   1.102   3.473   3.175
  163SAPE   H6Y18272   0.967   3.591   3.139
  163SAPE   C3718273   1.088   3.666   3.297
  163SAPE   H7X18274   1.107   3.771   3.267
  163SAPE   H7Y18275   1.183   3.636   3.347
  163SAPE   C3818276   0.967   3.655   3.384
  163SAPE   H8X18277   0.881   3.676   3.317
  163SAPE   H8Y18278   0.960   3.736   3.459
  163SAPE   C3918279   0.946   3.511   3.433
  163SAPE   H9X18280   1.034   3.492   3.498
  163SAPE   H9Y18281   0.965   3.437   3.352
  163SAPE  C31018282   0.820   3.477   3.515
  163SAPE  H10X18283   0.817   3.367   3.531
  163SAPE  H10Y18284   0.727   3.505   3.460
  163SAPE  C31118285   0.820   3.540   3.654
  163SAPE  H11X18286   0.831   3.650   3.653
  163SAPE  H11Y18287   0.911   3.511   3.711
  163SAPE  C31218288   0.699   3.493   3.741
  163SAPE  H12X18289   0.708   3.384   3.758
  163SAPE  H12Y18290   0.602   3.516   3.690
  163SAPE  C31318291   0.690   3.558   3.879
  163SAPE  H13X18292   0.693   3.667   3.857
  163SAPE  H13Y18293   0.770   3.529   3.950
  163SAPE  C31418294   0.552   3.541   3.944
  163SAPE  H14X18295   0.535   3.434   3.965
  163SAPE  H14Y18296   0.470   3.568   3.874
  163SAPE  C31518297   0.526   3.615   4.079
  163SAPE  H15X18298   0.599   3.580   4.155
  163SAPE  H15Y18299   0.422   3.590   4.109
  163SAPE  C31618300   0.527   3.767   4.068
  163SAPE  H16X18301   0.486   3.796   3.969
  163SAPE  H16Y18302   0.634   3.791   4.050
  163SAPE  C31718303   0.473   3.849   4.183
  163SAPE  H17X18304   0.513   3.798   4.274
  163SAPE  H17Y18305   0.363   3.837   4.195
  163SAPE  C31818306   0.532   3.993   4.190
  163SAPE  H18X18307   0.496   4.042   4.097
  163SAPE  H18Y18308   0.643   3.998   4.195
  163SAPE  H18Z18309   0.492   4.042   4.281
  164SAPE     N18310   6.574   4.098   2.095
  164SAPE   HN118311   6.665   4.068   2.138
  164SAPE   HN218312   6.526   4.010   2.069
  164SAPE   HN318313   6.582   4.156   2.009
  164SAPE   C1218314   6.511   4.177   2.205
  164SAPE  H12A18315   6.477   4.115   2.291
  164SAPE  H12B18316   6.412   4.218   2.176
  164SAPE   C1118317   6.607   4.295   2.254
  164SAPE  H11A18318   6.697   4.252   2.303
  164SAPE  H11B18319   6.543   4.350   2.327
  164SAPE     P18320   6.536   4.454   2.065
  164SAPE   O1318321   6.579   4.580   2.003
  164SAPE   O1418322   6.482   4.354   1.969
  164SAPE   O1218323   6.647   4.388   2.145
  164SAPE   O1118324   6.422   4.490   2.171
  164SAPE    C118325   6.407   4.619   2.233
  164SAPE    HA18326   6.397   4.696   2.154
  164SAPE    HB18327   6.307   4.627   2.279
  164SAPE    C218328   6.513   4.661   2.338
  164SAPE    HS18329   6.610   4.662   2.285
  164SAPE   O2118330   6.514   4.553   2.438
  164SAPE   C2118331   6.608   4.545   2.523
  164SAPE   O2218332   6.721   4.595   2.514
  164SAPE   C2218333   6.553   4.474   2.648
  164SAPE   H2R18334   6.443   4.480   2.636
  164SAPE   H2S18335   6.574   4.365   2.636
  164SAPE    C318336   6.498   4.810   2.402
  164SAPE    HX18337   6.496   4.880   2.315
  164SAPE    HY18338   6.591   4.835   2.458
  164SAPE   O3118339   6.388   4.822   2.484
  164SAPE   C3118340   6.319   4.939   2.478
  164SAPE   O3218341   6.358   5.042   2.428
  164SAPE   C3218342   6.179   4.925   2.538
  164SAPE   H2X18343   6.139   4.823   2.555
  164SAPE   H2Y18344   6.118   4.985   2.468
  164SAPE   C2318345   6.621   4.536   2.777
  164SAPE   H3R18346   6.600   4.645   2.783
  164SAPE   H3S18347   6.730   4.519   2.772
  164SAPE   C2418348   6.580   4.482   2.912
  164SAPE   H4R18349   6.631   4.534   2.995
  164SAPE   H4S18350   6.610   4.375   2.917
  164SAPE   C2518351   6.426   4.495   2.916
  164SAPE   H5R18352   6.380   4.447   2.829
  164SAPE   C2618353   6.349   4.526   3.027
  164SAPE   H6R18354   6.242   4.533   3.003
  164SAPE   C2718355   6.395   4.560   3.167
  164SAPE   H7R18356   6.336   4.648   3.202
  164SAPE   H7S18357   6.495   4.605   3.184
  164SAPE   C2818358   6.379   4.448   3.264
  164SAPE   H8R18359   6.462   4.378   3.275
  164SAPE   C2918360   6.283   4.434   3.359
  164SAPE   H9R18361   6.279   4.352   3.432
  164SAPE  C21018362   6.174   4.535   3.380
  164SAPE  H10R18363   6.080   4.477   3.393
  164SAPE  H10S18364   6.145   4.594   3.291
  164SAPE  C21118365   6.210   4.625   3.496
  164SAPE  H11R18366   6.273   4.710   3.464
  164SAPE  C21218367   6.156   4.621   3.618
  164SAPE  H12R18368   6.180   4.703   3.688
  164SAPE  C21318369   6.074   4.506   3.674
  164SAPE  H13R18370   6.115   4.467   3.769
  164SAPE  H13S18371   6.073   4.418   3.607
  164SAPE  C21418372   5.931   4.563   3.685
  164SAPE  H14R18373   5.889   4.609   3.594
  164SAPE  C21518374   5.846   4.567   3.796
  164SAPE  H15R18375   5.746   4.610   3.788
  164SAPE  C21618376   5.876   4.511   3.931
  164SAPE  H16R18377   5.978   4.465   3.933
  164SAPE  H16S18378   5.804   4.437   3.971
  164SAPE  C21718379   5.885   4.629   4.025
  164SAPE  H17R18380   5.945   4.711   3.980
  164SAPE  H17S18381   5.940   4.599   4.117
  164SAPE  C21818382   5.749   4.686   4.077
  164SAPE  H18R18383   5.669   4.613   4.101
  164SAPE  H18S18384   5.697   4.747   4.000
  164SAPE  C21918385   5.772   4.779   4.190
  164SAPE  H19R18386   5.854   4.850   4.166
  164SAPE  H19S18387   5.799   4.725   4.284
  164SAPE  C22018388   5.639   4.850   4.213
  164SAPE  H20R18389   5.658   4.927   4.291
  164SAPE  H20S18390   5.563   4.779   4.253
  164SAPE  H20T18391   5.600   4.897   4.121
  164SAPE   C3318392   6.167   4.992   2.671
  164SAPE   H3X18393   6.060   5.011   2.696
  164SAPE   H3Y18394   6.214   5.093   2.669
  164SAPE   C3418395   6.240   4.916   2.782
  164SAPE   H4X18396   6.347   4.937   2.761
  164SAPE   H4Y18397   6.215   4.807   2.784
  164SAPE   C3518398   6.218   4.977   2.924
  164SAPE   H5X18399   6.207   5.085   2.899
  164SAPE   H5Y18400   6.319   4.962   2.969
  164SAPE   C3618401   6.106   4.916   3.013
  164SAPE   H6X18402   6.123   4.807   3.026
  164SAPE   H6Y18403   6.006   4.929   2.965
  164SAPE   C3718404   6.112   4.985   3.151
  164SAPE   H7X18405   6.093   5.095   3.142
  164SAPE   H7Y18406   6.217   4.974   3.185
  164SAPE   C3818407   6.020   4.920   3.253
  164SAPE   H8X18408   6.038   4.810   3.259
  164SAPE   H8Y18409   5.916   4.954   3.234
  164SAPE   C3918410   6.049   4.973   3.397
  164SAPE   H9X18411   6.049   5.083   3.381
  164SAPE   H9Y18412   6.153   4.953   3.431
  164SAPE  C31018413   5.944   4.932   3.499
  164SAPE  H10X18414   5.949   4.821   3.505
  164SAPE  H10Y18415   5.844   4.946   3.453
  164SAPE  C31118416   5.969   4.997   3.642
  164SAPE  H11X18417   5.975   5.107   3.625
  164SAPE  H11Y18418   6.070   4.969   3.679
  164SAPE  C31218419   5.839   4.966   3.730
  164SAPE  H12X18420   5.835   4.857   3.749
  164SAPE  H12Y18421   5.746   4.997   3.676
  164SAPE  C31318422   5.835   5.032   3.867
  164SAPE  H13X18423   5.920   4.990   3.925
  164SAPE  H13Y18424   5.744   4.999   3.921
  164SAPE  C31418425   5.826   5.179   3.867
  164SAPE  H14X18426   5.770   5.220   3.780
  164SAPE  H14Y18427   5.925   5.227   3.855
  164SAPE  C31518428   5.764   5.223   3.997
  164SAPE  H15X18429   5.814   5.171   4.081
  164SAPE  H15Y18430   5.654   5.209   4.004
  164SAPE  C31618431   5.769   5.377   4.023
  164SAPE  H16X18432   5.711   5.439   3.951
  164SAPE  H16Y18433   5.872   5.414   4.008
  164SAPE  C31718434   5.732   5.411   4.172
  164SAPE  H17X18435   5.807   5.347   4.223
  164SAPE  H17Y18436   5.631   5.370   4.197
  164SAPE  C31818437   5.743   5.559   4.211
  164SAPE  H18X18438   5.665   5.618   4.158
  164SAPE  H18Y18439   5.840   5.605   4.182
  164SAPE  H18Z18440   5.722   5.579   4.319
  165SAPE     N18441   4.958   0.654   1.887
  165SAPE   HN118442   4.943   0.744   1.837
  165SAPE   HN218443   4.931   0.574   1.826
  165SAPE   HN318444   4.910   0.655   1.979
  165SAPE   C1218445   5.105   0.645   1.904
  165SAPE  H12A18446   5.143   0.690   1.810
  165SAPE  H12B18447   5.143   0.542   1.923
  165SAPE   C1118448   5.143   0.732   2.023
  165SAPE  H11A18449   5.252   0.746   2.033
  165SAPE  H11B18450   5.119   0.676   2.115
  165SAPE     P18451   5.096   0.965   2.141
  165SAPE   O1318452   5.215   1.040   2.101
  165SAPE   O1418453   4.975   1.044   2.160
  165SAPE   O1218454   5.070   0.849   2.031
  165SAPE   O1118455   5.132   0.885   2.275
  165SAPE    C118456   5.033   0.816   2.351
  165SAPE    HA18457   4.931   0.857   2.335
  165SAPE    HB18458   5.034   0.708   2.325
  165SAPE    C218459   5.041   0.847   2.498
  165SAPE    HS18460   4.991   0.945   2.505
  165SAPE   O2118461   5.178   0.850   2.552
  165SAPE   C2118462   5.241   0.970   2.538
  165SAPE   O2218463   5.186   1.074   2.506
  165SAPE   C2218464   5.389   0.951   2.559
  165SAPE   H2R18465   5.426   0.850   2.532
  165SAPE   H2S18466   5.432   1.024   2.487
  165SAPE    C318467   4.957   0.751   2.581
  165SAPE    HX18468   4.988   0.645   2.574
  165SAPE    HY18469   4.859   0.752   2.529
  165SAPE   O3118470   4.943   0.802   2.719
  165SAPE   C3118471   5.023   0.740   2.804
  165SAPE   O3218472   5.096   0.650   2.777
  165SAPE   C3218473   4.995   0.785   2.942
  165SAPE   H2X18474   4.981   0.896   2.941
  165SAPE   H2Y18475   5.085   0.746   2.994
  165SAPE   C2318476   5.443   0.985   2.699
  165SAPE   H3R18477   5.393   1.080   2.729
  165SAPE   H3S18478   5.552   1.000   2.682
  165SAPE   C2418479   5.423   0.871   2.806
  165SAPE   H4R18480   5.433   0.780   2.743
  165SAPE   H4S18481   5.318   0.883   2.841
  165SAPE   C2518482   5.520   0.864   2.915
  165SAPE   H5R18483   5.626   0.850   2.889
  165SAPE   C2618484   5.491   0.879   3.046
  165SAPE   H6R18485   5.568   0.868   3.124
  165SAPE   C2718486   5.353   0.906   3.097
  165SAPE   H7R18487   5.282   0.822   3.085
  165SAPE   H7S18488   5.306   0.987   3.037
  165SAPE   C2818489   5.345   0.944   3.245
  165SAPE   H8R18490   5.379   1.046   3.264
  165SAPE   C2918491   5.321   0.864   3.352
  165SAPE   H9R18492   5.319   0.912   3.451
  165SAPE  C21018493   5.283   0.717   3.344
  165SAPE  H10R18494   5.290   0.675   3.242
  165SAPE  H10S18495   5.182   0.694   3.382
  165SAPE  C21118496   5.381   0.652   3.440
  165SAPE  H11R18497   5.475   0.610   3.400
  165SAPE  C21218498   5.355   0.622   3.568
  165SAPE  H12R18499   5.426   0.556   3.619
  165SAPE  C21318500   5.228   0.653   3.649
  165SAPE  H13R18501   5.164   0.734   3.607
  165SAPE  H13S18502   5.256   0.705   3.743
  165SAPE  C21418503   5.132   0.542   3.691
  165SAPE  H14R18504   5.042   0.536   3.628
  165SAPE  C21518505   5.141   0.468   3.804
  165SAPE  H15R18506   5.061   0.399   3.834
  165SAPE  C21618507   5.259   0.462   3.900
  165SAPE  H16R18508   5.290   0.565   3.928
  165SAPE  H16S18509   5.349   0.419   3.853
  165SAPE  C21718510   5.254   0.377   4.028
  165SAPE  H17R18511   5.270   0.274   3.988
  165SAPE  H17S18512   5.156   0.388   4.078
  165SAPE  C21818513   5.374   0.399   4.126
  165SAPE  H18R18514   5.374   0.508   4.148
  165SAPE  H18S18515   5.459   0.362   4.066
  165SAPE  C21918516   5.361   0.306   4.251
  165SAPE  H19R18517   5.327   0.207   4.214
  165SAPE  H19S18518   5.281   0.341   4.319
  165SAPE  C22018519   5.488   0.294   4.330
  165SAPE  H20R18520   5.529   0.397   4.340
  165SAPE  H20S18521   5.564   0.238   4.272
  165SAPE  H20T18522   5.474   0.249   4.431
  165SAPE   C3318523   4.865   0.714   2.984
  165SAPE   H3X18524   4.887   0.605   2.977
  165SAPE   H3Y18525   4.788   0.744   2.911
  165SAPE   C3418526   4.823   0.749   3.132
  165SAPE   H4X18527   4.742   0.683   3.171
  165SAPE   H4Y18528   4.795   0.856   3.131
  165SAPE   C3518529   4.933   0.747   3.245
  165SAPE   H5X18530   5.024   0.787   3.196
  165SAPE   H5Y18531   4.941   0.639   3.270
  165SAPE   C3618532   4.898   0.840   3.370
  165SAPE   H6X18533   4.884   0.943   3.329
  165SAPE   H6Y18534   4.989   0.841   3.435
  165SAPE   C3718535   4.777   0.811   3.449
  165SAPE   H7X18536   4.795   0.716   3.503
  165SAPE   H7Y18537   4.692   0.794   3.379
  165SAPE   C3818538   4.733   0.932   3.541
  165SAPE   H8X18539   4.690   1.008   3.472
  165SAPE   H8Y18540   4.830   0.961   3.586
  165SAPE   C3918541   4.627   0.891   3.635
  165SAPE   H9X18542   4.538   0.846   3.586
  165SAPE   H9Y18543   4.594   0.974   3.701
  165SAPE  C31018544   4.676   0.787   3.743
  165SAPE  H10X18545   4.701   0.689   3.696
  165SAPE  H10Y18546   4.605   0.780   3.828
  165SAPE  C31118547   4.792   0.843   3.824
  165SAPE  H11X18548   4.772   0.947   3.857
  165SAPE  H11Y18549   4.880   0.848   3.756
  165SAPE  C31218550   4.822   0.755   3.950
  165SAPE  H12X18551   4.852   0.650   3.929
  165SAPE  H12Y18552   4.730   0.759   4.012
  165SAPE  C31318553   4.939   0.812   4.037
  165SAPE  H13X18554   4.939   0.750   4.129
  165SAPE  H13Y18555   4.913   0.918   4.058
  165SAPE  C31418556   5.079   0.816   3.972
  165SAPE  H14X18557   5.073   0.879   3.881
  165SAPE  H14Y18558   5.102   0.717   3.927
  165SAPE  C31518559   5.194   0.871   4.057
  165SAPE  H15X18560   5.198   0.981   4.045
  165SAPE  H15Y18561   5.294   0.828   4.031
  165SAPE  C31618562   5.184   0.852   4.209
  165SAPE  H16X18563   5.089   0.892   4.251
  165SAPE  H16Y18564   5.260   0.912   4.262
  165SAPE  C31718565   5.208   0.704   4.260
  165SAPE  H17X18566   5.312   0.681   4.228
  165SAPE  H17Y18567   5.138   0.637   4.207
  165SAPE  C31818568   5.205   0.670   4.405
  165SAPE  H18X18569   5.292   0.713   4.459
  165SAPE  H18Y18570   5.205   0.560   4.417
  165SAPE  H18Z18571   5.106   0.699   4.447
  166SAPE     N18572   0.237   5.840   2.229
  166SAPE   HN118573   0.267   5.790   2.315
  166SAPE   HN218574   0.142   5.803   2.209
  166SAPE   HN318575   0.307   5.811   2.158
  166SAPE   C1218576   0.253   5.990   2.225
  166SAPE  H12A18577   0.204   6.021   2.130
  166SAPE  H12B18578   0.361   6.014   2.214
  166SAPE   C1118579   0.185   6.071   2.340
  166SAPE  H11A18580   0.236   6.169   2.326
  166SAPE  H11B18581   0.216   6.034   2.440
  166SAPE     P18582   6.801   5.973   2.365
  166SAPE   O1318583   6.667   6.034   2.359
  166SAPE   O1418584   6.825   5.855   2.274
  166SAPE   O1218585   0.043   6.091   2.335
  166SAPE   O1118586   6.831   5.931   2.514
  166SAPE    C118587   6.764   6.003   2.622
  166SAPE    HA18588   6.658   6.028   2.599
  166SAPE    HB18589   6.746   5.935   2.708
  166SAPE    C218590   6.849   6.128   2.674
  166SAPE    HS18591   0.009   6.180   2.577
  166SAPE   O2118592   0.116   6.091   2.737
  166SAPE   C2118593   0.208   6.179   2.726
  166SAPE   O2218594   0.201   6.293   2.682
  166SAPE   C2218595   0.347   6.124   2.773
  166SAPE   H2R18596   0.346   6.017   2.802
  166SAPE   H2S18597   0.413   6.140   2.685
  166SAPE    C318598   6.761   6.224   2.774
  166SAPE    HX18599   6.665   6.234   2.718
  166SAPE    HY18600   6.814   6.322   2.779
  166SAPE   O3118601   6.754   6.176   2.906
  166SAPE   C3118602   6.640   6.138   2.959
  166SAPE   O3218603   6.526   6.151   2.910
  166SAPE   C3218604   6.662   6.068   3.091
  166SAPE   H2X18605   6.743   6.123   3.143
  166SAPE   H2Y18606   6.697   5.964   3.073
  166SAPE   C2318607   0.409   6.208   2.887
  166SAPE   H3R18608   0.373   6.313   2.880
  166SAPE   H3S18609   0.518   6.206   2.866
  166SAPE   C2418610   0.380   6.147   3.024
  166SAPE   H4R18611   0.405   6.039   3.022
  166SAPE   H4S18612   0.271   6.147   3.045
  166SAPE   C2518613   0.462   6.205   3.140
  166SAPE   H5R18614   0.568   6.226   3.124
  166SAPE   C2618615   0.408   6.231   3.263
  166SAPE   H6R18616   0.467   6.268   3.348
  166SAPE   C2718617   0.265   6.202   3.307
  166SAPE   H7R18618   0.182   6.252   3.251
  166SAPE   H7S18619   0.256   6.250   3.406
  166SAPE   C2818620   0.223   6.056   3.319
  166SAPE   H8R18621   0.178   6.016   3.227
  166SAPE   C2918622   0.226   5.983   3.426
  166SAPE   H9R18623   0.172   5.889   3.445
  166SAPE  C21018624   0.288   6.033   3.557
  166SAPE  H10R18625   0.304   6.142   3.575
  166SAPE  H10S18626   0.386   5.982   3.562
  166SAPE  C21118627   0.209   5.980   3.678
  166SAPE  H11R18628   0.123   6.040   3.713
  166SAPE  C21218629   0.232   5.863   3.749
  166SAPE  H12R18630   0.177   5.846   3.844
  166SAPE  C21318631   0.341   5.759   3.718
  166SAPE  H13R18632   0.402   5.746   3.810
  166SAPE  H13S18633   0.421   5.792   3.649
  166SAPE  C21418634   0.277   5.636   3.668
  166SAPE  H14R18635   0.223   5.651   3.573
  166SAPE  C21518636   0.276   5.514   3.728
  166SAPE  H15R18637   0.207   5.441   3.684
  166SAPE  C21618638   0.348   5.473   3.848
  166SAPE  H16R18639   0.432   5.541   3.874
  166SAPE  H16S18640   0.383   5.369   3.832
  166SAPE  C21718641   0.257   5.469   3.978
  166SAPE  H17R18642   0.309   5.415   4.060
  166SAPE  H17S18643   0.163   5.412   3.962
  166SAPE  C21818644   0.219   5.607   4.033
  166SAPE  H18R18645   0.165   5.586   4.127
  166SAPE  H18S18646   0.148   5.667   3.973
  166SAPE  C21918647   0.336   5.700   4.080
  166SAPE  H19R18648   0.337   5.779   4.002
  166SAPE  H19S18649   0.434   5.647   4.078
  166SAPE  C22018650   0.337   5.763   4.221
  166SAPE  H20R18651   0.435   5.815   4.223
  166SAPE  H20S18652   0.330   5.686   4.300
  166SAPE  H20T18653   0.251   5.833   4.229
  166SAPE   C3318654   6.538   6.070   3.182
  166SAPE   H3X18655   6.457   6.016   3.127
  166SAPE   H3Y18656   6.517   6.177   3.203
  166SAPE   C3418657   6.547   6.005   3.319
  166SAPE   H4X18658   6.636   6.038   3.377
  166SAPE   H4Y18659   6.549   5.895   3.302
  166SAPE   C3518660   6.413   6.029   3.385
  166SAPE   H5X18661   6.328   6.017   3.314
  166SAPE   H5Y18662   6.413   6.138   3.408
  166SAPE   C3618663   6.395   5.948   3.508
  166SAPE   H6X18664   6.470   5.974   3.585
  166SAPE   H6Y18665   6.415   5.841   3.485
  166SAPE   C3718666   6.255   5.962   3.579
  166SAPE   H7X18667   6.183   5.915   3.509
  166SAPE   H7Y18668   6.240   6.071   3.591
  166SAPE   C3818669   6.241   5.883   3.712
  166SAPE   H8X18670   6.320   5.912   3.784
  166SAPE   H8Y18671   6.253   5.773   3.704
  166SAPE   C3918672   6.100   5.905   3.769
  166SAPE   H9X18673   6.034   5.837   3.712
  166SAPE   H9Y18674   6.055   6.006   3.774
  166SAPE  C31018675   6.108   5.860   3.920
  166SAPE  H10X18676   6.133   5.752   3.924
  166SAPE  H10Y18677   6.005   5.860   3.963
  166SAPE  C31118678   6.196   5.947   4.009
  166SAPE  H11X18679   6.150   6.049   4.011
  166SAPE  H11Y18680   6.295   5.978   3.970
  166SAPE  C31218681   6.222   5.879   4.140
  166SAPE  H12X18682   6.322   5.909   4.179
  166SAPE  H12Y18683   6.228   5.769   4.128
  166SAPE  C31318684   6.121   5.906   4.249
  166SAPE  H13X18685   6.030   5.863   4.203
  166SAPE  H13Y18686   6.102   6.014   4.268
  166SAPE  C31418687   6.164   5.844   4.384
  166SAPE  H14X18688   6.093   5.878   4.463
  166SAPE  H14Y18689   6.255   5.899   4.418
  166SAPE  C31518690   6.172   5.691   4.393
  166SAPE  H15X18691   6.254   5.658   4.326
  166SAPE  H15Y18692   6.079   5.645   4.352
  166SAPE  C31618693   6.198   5.628   4.528
  166SAPE  H16X18694   6.124   5.664   4.603
  166SAPE  H16Y18695   6.301   5.649   4.564
  166SAPE  C31718696   6.179   5.471   4.540
  166SAPE  H17X18697   6.233   5.436   4.630
  166SAPE  H17Y18698   6.227   5.423   4.452
  166SAPE  C31818699   6.030   5.429   4.559
  166SAPE  H18X18700   6.009   5.449   4.667
  166SAPE  H18Y18701   6.013   5.320   4.547
  166SAPE  H18Z18702   5.956   5.484   4.496
  167SAPE     N18703   6.244   4.338   1.860
  167SAPE   HN118704   6.336   4.305   1.896
  167SAPE   HN218705   6.261   4.435   1.827
  167SAPE   HN318706   6.175   4.329   1.937
  167SAPE   C1218707   6.199   4.255   1.740
  167SAPE  H12A18708   6.286   4.271   1.672
  167SAPE  H12B18709   6.113   4.306   1.693
  167SAPE   C1118710   6.154   4.114   1.758
  167SAPE  H11A18711   6.124   4.080   1.656
  167SAPE  H11B18712   6.059   4.130   1.814
  167SAPE     P18713   6.246   3.999   1.977
  167SAPE   O1318714   6.375   3.935   2.001
  167SAPE   O1418715   6.214   4.120   2.059
  167SAPE   O1218716   6.254   4.032   1.824
  167SAPE   O1118717   6.133   3.895   1.967
  167SAPE    C118718   6.122   3.784   2.063
  167SAPE    HA18719   6.074   3.701   2.007
  167SAPE    HB18720   6.221   3.750   2.099
  167SAPE    C218721   6.039   3.816   2.192
  167SAPE    HS18722   5.935   3.837   2.158
  167SAPE   O2118723   6.100   3.931   2.262
  167SAPE   C2118724   6.024   4.025   2.321
  167SAPE   O2218725   5.905   4.007   2.331
  167SAPE   C2218726   6.094   4.143   2.377
  167SAPE   H2R18727   6.192   4.142   2.324
  167SAPE   H2S18728   6.033   4.232   2.349
  167SAPE    C318729   6.023   3.699   2.289
  167SAPE    HX18730   5.964   3.618   2.242
  167SAPE    HY18731   5.969   3.742   2.376
  167SAPE   O3118732   6.152   3.647   2.323
  167SAPE   C3118733   6.149   3.574   2.430
  167SAPE   O3218734   6.054   3.550   2.499
  167SAPE   C3218735   6.284   3.505   2.461
  167SAPE   H2X18736   6.366   3.571   2.428
  167SAPE   H2Y18737   6.287   3.409   2.405
  167SAPE   C2318738   6.116   4.157   2.526
  167SAPE   H3R18739   6.144   4.056   2.564
  167SAPE   H3S18740   6.019   4.183   2.572
  167SAPE   C2418741   6.237   4.252   2.559
  167SAPE   H4R18742   6.332   4.220   2.511
  167SAPE   H4S18743   6.265   4.262   2.666
  167SAPE   C2518744   6.217   4.388   2.501
  167SAPE   H5R18745   6.251   4.400   2.398
  167SAPE   C2618746   6.149   4.491   2.558
  167SAPE   H6R18747   6.133   4.584   2.503
  167SAPE   C2718748   6.106   4.493   2.710
  167SAPE   H7R18749   6.126   4.595   2.747
  167SAPE   H7S18750   6.169   4.425   2.771
  167SAPE   C2818751   5.960   4.466   2.742
  167SAPE   H8R18752   5.902   4.429   2.657
  167SAPE   C2918753   5.893   4.499   2.862
  167SAPE   H9R18754   5.794   4.456   2.885
  167SAPE  C21018755   5.961   4.560   2.978
  167SAPE  H10R18756   6.031   4.637   2.938
  167SAPE  H10S18757   6.019   4.484   3.035
  167SAPE  C21118758   5.870   4.644   3.063
  167SAPE  H11R18759   5.861   4.746   3.022
  167SAPE  C21218760   5.804   4.608   3.177
  167SAPE  H12R18761   5.755   4.680   3.244
  167SAPE  C21318762   5.813   4.469   3.234
  167SAPE  H13R18763   5.844   4.476   3.340
  167SAPE  H13S18764   5.894   4.414   3.181
  167SAPE  C21418765   5.694   4.382   3.211
  167SAPE  H14R18766   5.645   4.385   3.113
  167SAPE  C21518767   5.651   4.293   3.306
  167SAPE  H15R18768   5.572   4.223   3.278
  167SAPE  C21618769   5.707   4.259   3.439
  167SAPE  H16R18770   5.635   4.222   3.515
  167SAPE  H16S18771   5.749   4.343   3.498
  167SAPE  C21718772   5.826   4.167   3.435
  167SAPE  H17R18773   5.913   4.221   3.392
  167SAPE  H17S18774   5.788   4.077   3.381
  167SAPE  C21818775   5.875   4.123   3.571
  167SAPE  H18R18776   5.784   4.071   3.609
  167SAPE  H18S18777   5.891   4.217   3.628
  167SAPE  C21918778   5.998   4.028   3.572
  167SAPE  H19R18779   5.983   3.924   3.535
  167SAPE  H19S18780   6.020   4.022   3.680
  167SAPE  C22018781   6.120   4.075   3.501
  167SAPE  H20R18782   6.195   3.994   3.515
  167SAPE  H20S18783   6.158   4.166   3.552
  167SAPE  H20T18784   6.104   4.087   3.391
  167SAPE   C3318785   6.300   3.457   2.607
  167SAPE   H3X18786   6.371   3.372   2.603
  167SAPE   H3Y18787   6.208   3.422   2.659
  167SAPE   C3418788   6.356   3.573   2.702
  167SAPE   H4X18789   6.280   3.654   2.703
  167SAPE   H4Y18790   6.440   3.621   2.648
  167SAPE   C3518791   6.382   3.528   2.845
  167SAPE   H5X18792   6.470   3.460   2.845
  167SAPE   H5Y18793   6.301   3.469   2.893
  167SAPE   C3618794   6.427   3.642   2.938
  167SAPE   H6X18795   6.347   3.717   2.958
  167SAPE   H6Y18796   6.513   3.704   2.905
  167SAPE   C3718797   6.476   3.596   3.078
  167SAPE   H7X18798   6.555   3.518   3.083
  167SAPE   H7Y18799   6.388   3.564   3.139
  167SAPE   C3818800   6.530   3.721   3.146
  167SAPE   H8X18801   6.452   3.801   3.150
  167SAPE   H8Y18802   6.599   3.769   3.073
  167SAPE   C3918803   6.622   3.693   3.260
  167SAPE   H9X18804   6.694   3.777   3.265
  167SAPE   H9Y18805   6.688   3.606   3.236
  167SAPE  C31018806   6.551   3.654   3.393
  167SAPE  H10X18807   6.493   3.563   3.363
  167SAPE  H10Y18808   6.494   3.739   3.435
  167SAPE  C31118809   6.650   3.590   3.494
  167SAPE  H11X18810   6.726   3.669   3.515
  167SAPE  H11Y18811   6.714   3.514   3.445
  167SAPE  C31218812   6.584   3.529   3.621
  167SAPE  H12X18813   6.536   3.438   3.579
  167SAPE  H12Y18814   6.516   3.609   3.659
  167SAPE  C31318815   6.677   3.478   3.740
  167SAPE  H13X18816   6.712   3.564   3.802
  167SAPE  H13Y18817   6.767   3.429   3.696
  167SAPE  C31418818   6.614   3.371   3.840
  167SAPE  H14X18819   6.698   3.312   3.881
  167SAPE  H14Y18820   6.539   3.312   3.783
  167SAPE  C31518821   6.548   3.453   3.955
  167SAPE  H15X18822   6.490   3.539   3.917
  167SAPE  H15Y18823   6.623   3.512   4.011
  167SAPE  C31618824   6.469   3.371   4.053
  167SAPE  H16X18825   6.407   3.447   4.105
  167SAPE  H16Y18826   6.547   3.316   4.111
  167SAPE  C31718827   6.366   3.272   3.987
  167SAPE  H17X18828   6.426   3.180   3.969
  167SAPE  H17Y18829   6.319   3.297   3.889
  167SAPE  C31818830   6.243   3.228   4.071
  167SAPE  H18X18831   6.174   3.312   4.090
  167SAPE  H18Y18832   6.281   3.215   4.175
  167SAPE  H18Z18833   6.182   3.144   4.030
  168SAPE     N18834   2.580   5.494   2.310
  168SAPE   HN118835   2.509   5.492   2.234
  168SAPE   HN218836   2.576   5.590   2.350
  168SAPE   HN318837   2.674   5.469   2.272
  168SAPE   C1218838   2.520   5.401   2.418
  168SAPE  H12A18839   2.591   5.382   2.501
  168SAPE  H12B18840   2.496   5.304   2.370
  168SAPE   C1118841   2.390   5.444   2.483
  168SAPE  H11A18842   2.413   5.543   2.529
  168SAPE  H11B18843   2.369   5.363   2.556
  168SAPE     P18844   2.135   5.478   2.432
  168SAPE   O1318845   2.064   5.564   2.331
  168SAPE   O1418846   2.074   5.343   2.468
  168SAPE   O1218847   2.286   5.459   2.391
  168SAPE   O1118848   2.155   5.555   2.569
  168SAPE    C118849   2.164   5.698   2.567
  168SAPE    HA18850   2.256   5.730   2.514
  168SAPE    HB18851   2.077   5.750   2.522
  168SAPE    C218852   2.183   5.761   2.708
  168SAPE    HS18853   2.175   5.871   2.695
  168SAPE   O2118854   2.306   5.724   2.769
  168SAPE   C2118855   2.413   5.789   2.733
  168SAPE   O2218856   2.414   5.896   2.675
  168SAPE   C2218857   2.524   5.713   2.793
  168SAPE   H2R18858   2.506   5.724   2.902
  168SAPE   H2S18859   2.513   5.607   2.760
  168SAPE    C318860   2.066   5.731   2.806
  168SAPE    HX18861   2.069   5.620   2.808
  168SAPE    HY18862   1.967   5.747   2.760
  168SAPE   O3118863   2.087   5.786   2.936
  168SAPE   C3118864   2.063   5.917   2.942
  168SAPE   O3218865   2.009   5.981   2.856
  168SAPE   C3218866   2.114   5.974   3.078
  168SAPE   H2X18867   2.049   5.929   3.156
  168SAPE   H2Y18868   2.096   6.084   3.078
  168SAPE   C2318869   2.670   5.748   2.755
  168SAPE   H3R18870   2.687   5.857   2.747
  168SAPE   H3S18871   2.696   5.724   2.649
  168SAPE   C2418872   2.769   5.672   2.841
  168SAPE   H4R18873   2.739   5.686   2.947
  168SAPE   H4S18874   2.866   5.724   2.823
  168SAPE   C2518875   2.784   5.527   2.804
  168SAPE   H5R18876   2.822   5.509   2.703
  168SAPE   C2618877   2.742   5.417   2.876
  168SAPE   H6R18878   2.747   5.318   2.828
  168SAPE   C2718879   2.688   5.420   3.015
  168SAPE   H7R18880   2.597   5.355   3.018
  168SAPE   H7S18881   2.650   5.521   3.040
  168SAPE   C2818882   2.777   5.376   3.124
  168SAPE   H8R18883   2.865   5.315   3.098
  168SAPE   C2918884   2.771   5.418   3.253
  168SAPE   H9R18885   2.837   5.378   3.331
  168SAPE  C21018886   2.668   5.507   3.318
  168SAPE  H10R18887   2.651   5.467   3.421
  168SAPE  H10S18888   2.571   5.490   3.267
  168SAPE  C21118889   2.707   5.657   3.331
  168SAPE  H11R18890   2.772   5.680   3.245
  168SAPE  C21218891   2.690   5.750   3.428
  168SAPE  H12R18892   2.726   5.850   3.400
  168SAPE  C21318893   2.609   5.725   3.561
  168SAPE  H13R18894   2.553   5.629   3.553
  168SAPE  H13S18895   2.537   5.808   3.580
  168SAPE  C21418896   2.714   5.733   3.673
  168SAPE  H14R18897   2.755   5.634   3.696
  168SAPE  C21518898   2.773   5.844   3.734
  168SAPE  H15R18899   2.853   5.829   3.807
  168SAPE  C21618900   2.727   5.991   3.718
  168SAPE  H16R18901   2.677   6.033   3.808
  168SAPE  H16S18902   2.661   6.001   3.629
  168SAPE  C21718903   2.845   6.089   3.702
  168SAPE  H17R18904   2.805   6.186   3.666
  168SAPE  H17S18905   2.919   6.052   3.628
  168SAPE  C21818906   2.911   6.114   3.835
  168SAPE  H18R18907   2.942   6.019   3.883
  168SAPE  H18S18908   2.838   6.173   3.895
  168SAPE  C21918909   3.033   6.191   3.828
  168SAPE  H19R18910   3.003   6.284   3.775
  168SAPE  H19S18911   3.102   6.134   3.762
  168SAPE  C22018912   3.091   6.224   3.967
  168SAPE  H20R18913   3.144   6.134   4.003
  168SAPE  H20S18914   3.016   6.262   4.039
  168SAPE  H20T18915   3.170   6.301   3.947
  168SAPE   C3318916   2.264   5.955   3.107
  168SAPE   H3X18917   2.320   6.019   3.036
  168SAPE   H3Y18918   2.296   5.854   3.075
  168SAPE   C3418919   2.301   5.986   3.248
  168SAPE   H4X18920   2.254   6.084   3.270
  168SAPE   H4Y18921   2.411   6.001   3.253
  168SAPE   C3518922   2.279   5.872   3.350
  168SAPE   H5X18923   2.363   5.802   3.329
  168SAPE   H5Y18924   2.184   5.818   3.329
  168SAPE   C3618925   2.298   5.930   3.489
  168SAPE   H6X18926   2.406   5.952   3.503
  168SAPE   H6Y18927   2.278   5.855   3.568
  168SAPE   C3718928   2.180   6.033   3.518
  168SAPE   H7X18929   2.080   5.999   3.485
  168SAPE   H7Y18930   2.183   6.131   3.465
  168SAPE   C3818931   2.185   6.066   3.670
  168SAPE   H8X18932   2.148   5.979   3.727
  168SAPE   H8Y18933   2.130   6.163   3.682
  168SAPE   C3918934   2.325   6.083   3.738
  168SAPE   H9X18935   2.385   6.155   3.678
  168SAPE   H9Y18936   2.376   5.984   3.731
  168SAPE  C31018937   2.308   6.124   3.882
  168SAPE  H10X18938   2.209   6.174   3.890
  168SAPE  H10Y18939   2.386   6.199   3.908
  168SAPE  C31118940   2.315   6.010   3.985
  168SAPE  H11X18941   2.412   5.955   3.981
  168SAPE  H11Y18942   2.250   5.929   3.945
  168SAPE  C31218943   2.278   6.047   4.129
  168SAPE  H12X18944   2.288   5.962   4.200
  168SAPE  H12Y18945   2.173   6.081   4.122
  168SAPE  C31318946   2.363   6.164   4.185
  168SAPE  H13X18947   2.327   6.175   4.290
  168SAPE  H13Y18948   2.334   6.258   4.133
  168SAPE  C31418949   2.515   6.135   4.171
  168SAPE  H14X18950   2.582   6.222   4.177
  168SAPE  H14Y18951   2.542   6.116   4.065
  168SAPE  C31518952   2.564   6.028   4.270
  168SAPE  H15X18953   2.507   5.933   4.261
  168SAPE  H15Y18954   2.536   6.061   4.372
  168SAPE  C31618955   2.715   5.995   4.257
  168SAPE  H16X18956   2.760   6.094   4.280
  168SAPE  H16Y18957   2.749   5.969   4.155
  168SAPE  C31718958   2.768   5.910   4.372
  168SAPE  H17X18959   2.878   5.894   4.370
  168SAPE  H17Y18960   2.710   5.816   4.361
  168SAPE  C31818961   2.742   5.965   4.514
  168SAPE  H18X18962   2.802   5.911   4.591
  168SAPE  H18Y18963   2.637   5.956   4.549
  168SAPE  H18Z18964   2.766   6.074   4.524
  169SAPE     N18965   5.684   3.347   2.375
  169SAPE   HN118966   5.704   3.255   2.332
  169SAPE   HN218967   5.587   3.339   2.411
  169SAPE   HN318968   5.680   3.415   2.296
  169SAPE   C1218969   5.795   3.382   2.479
  169SAPE  H12A18970   5.738   3.391   2.575
  169SAPE  H12B18971   5.828   3.483   2.448
  169SAPE   C1118972   5.901   3.284   2.489
  169SAPE  H11A18973   5.856   3.189   2.527
  169SAPE  H11B18974   5.972   3.317   2.568
  169SAPE     P18975   6.081   3.181   2.312
  169SAPE   O1318976   6.022   3.056   2.256
  169SAPE   O1418977   6.164   3.253   2.218
  169SAPE   O1218978   5.963   3.280   2.362
  169SAPE   O1118979   6.166   3.151   2.447
  169SAPE    C118980   6.132   3.041   2.536
  169SAPE    HA18981   6.021   3.029   2.543
  169SAPE    HB18982   6.155   2.941   2.494
  169SAPE    C218983   6.198   3.057   2.672
  169SAPE    HS18984   6.191   2.955   2.714
  169SAPE   O2118985   6.139   3.161   2.756
  169SAPE   C2118986   6.102   3.131   2.876
  169SAPE   O2218987   6.116   3.028   2.943
  169SAPE   C2218988   6.017   3.247   2.924
  169SAPE   H2R18989   6.056   3.335   2.869
  169SAPE   H2S18990   5.913   3.227   2.890
  169SAPE    C318991   6.354   3.077   2.666
  169SAPE    HX18992   6.378   3.174   2.617
  169SAPE    HY18993   6.401   3.009   2.591
  169SAPE   O3118994   6.420   3.061   2.791
  169SAPE   C3118995   6.444   2.932   2.830
  169SAPE   O3218996   6.405   2.838   2.761
  169SAPE   C3218997   6.526   2.924   2.958
  169SAPE   H2X18998   6.534   3.025   3.004
  169SAPE   H2Y18999   6.629   2.890   2.931
  169SAPE   C2319000   6.014   3.261   3.082
  169SAPE   H3R19001   6.116   3.288   3.117
  169SAPE   H3S19002   5.986   3.162   3.125
  169SAPE   C2419003   5.909   3.368   3.121
  169SAPE   H4R19004   5.881   3.356   3.228
  169SAPE   H4S19005   5.813   3.351   3.068
  169SAPE   C2519006   5.960   3.506   3.079
  169SAPE   H5R19007   5.954   3.524   2.970
  169SAPE   C2619008   6.005   3.610   3.149
  169SAPE   H6R19009   6.019   3.703   3.092
  169SAPE   C2719010   6.015   3.616   3.296
  169SAPE   H7R19011   6.006   3.513   3.337
  169SAPE   H7S19012   5.920   3.653   3.340
  169SAPE   C2819013   6.135   3.689   3.356
  169SAPE   H8R19014   6.126   3.797   3.337
  169SAPE   C2919015   6.227   3.634   3.438
  169SAPE   H9R19016   6.296   3.707   3.484
  169SAPE  C21019017   6.239   3.493   3.486
  169SAPE  H10R19018   6.140   3.479   3.535
  169SAPE  H10S19019   6.313   3.478   3.567
  169SAPE  C21119020   6.265   3.398   3.374
  169SAPE  H11R19021   6.264   3.441   3.273
  169SAPE  C21219022   6.297   3.266   3.384
  169SAPE  H12R19023   6.336   3.213   3.296
  169SAPE  C21319024   6.312   3.190   3.511
  169SAPE  H13R19025   6.269   3.248   3.596
  169SAPE  H13S19026   6.414   3.166   3.547
  169SAPE  C21419027   6.216   3.064   3.502
  169SAPE  H14R19028   6.131   3.084   3.434
  169SAPE  C21519029   6.224   2.950   3.565
  169SAPE  H15R19030   6.147   2.871   3.563
  169SAPE  C21619031   6.337   2.909   3.662
  169SAPE  H16R19032   6.436   2.939   3.621
  169SAPE  H16S19033   6.354   2.799   3.661
  169SAPE  C21719034   6.322   2.963   3.804
  169SAPE  H17R19035   6.217   2.951   3.837
  169SAPE  H17S19036   6.346   3.070   3.786
  169SAPE  C21819037   6.417   2.901   3.905
  169SAPE  H18R19038   6.426   2.964   3.995
  169SAPE  H18S19039   6.519   2.887   3.863
  169SAPE  C21919040   6.377   2.759   3.957
  169SAPE  H19R19041   6.369   2.677   3.883
  169SAPE  H19S19042   6.279   2.768   4.008
  169SAPE  C22019043   6.479   2.712   4.066
  169SAPE  H20R19044   6.474   2.778   4.155
  169SAPE  H20S19045   6.581   2.725   4.026
  169SAPE  H20T19046   6.473   2.602   4.083
  169SAPE   C3319047   6.478   2.833   3.068
  169SAPE   H3X19048   6.504   2.728   3.042
  169SAPE   H3Y19049   6.369   2.846   3.085
  169SAPE   C3419050   6.556   2.874   3.201
  169SAPE   H4X19051   6.563   2.983   3.219
  169SAPE   H4Y19052   6.666   2.859   3.189
  169SAPE   C3519053   6.516   2.800   3.333
  169SAPE   H5X19054   6.418   2.843   3.361
  169SAPE   H5Y19055   6.587   2.832   3.412
  169SAPE   C3619056   6.514   2.649   3.327
  169SAPE   H6X19057   6.439   2.620   3.250
  169SAPE   H6Y19058   6.475   2.606   3.422
  169SAPE   C3719059   6.643   2.577   3.301
  169SAPE   H7X19060   6.705   2.579   3.393
  169SAPE   H7Y19061   6.706   2.621   3.221
  169SAPE   C3819062   6.636   2.427   3.270
  169SAPE   H8X19063   6.613   2.419   3.162
  169SAPE   H8Y19064   6.557   2.370   3.325
  169SAPE   C3919065   6.776   2.366   3.282
  169SAPE   H9X19066   6.850   2.424   3.223
  169SAPE   H9Y19067   6.777   2.265   3.235
  169SAPE  C31019068   6.823   2.355   3.422
  169SAPE  H10X19069   6.746   2.320   3.495
  169SAPE  H10Y19070   6.849   2.459   3.450
  169SAPE  C31119071   0.096   2.270   3.422
  169SAPE  H11X19072   0.167   2.307   3.345
  169SAPE  H11Y19073   0.065   2.170   3.385
  169SAPE  C31219074   0.171   2.256   3.555
  169SAPE  H12X19075   0.199   2.351   3.605
  169SAPE  H12Y19076   0.257   2.188   3.538
  169SAPE  C31319077   0.081   2.188   3.660
  169SAPE  H13X19078   0.046   2.085   3.634
  169SAPE  H13Y19079   6.847   2.250   3.673
  169SAPE  C31419080   0.149   2.171   3.796
  169SAPE  H14X19081   0.196   2.268   3.825
  169SAPE  H14Y19082   0.237   2.105   3.810
  169SAPE  C31519083   0.036   2.148   3.898
  169SAPE  H15X19084   6.820   2.070   3.869
  169SAPE  H15Y19085   6.837   2.244   3.907
  169SAPE  C31619086   0.091   2.118   4.044
  169SAPE  H16X19087   0.170   2.195   4.063
  169SAPE  H16Y19088   0.134   2.017   4.064
  169SAPE  C31719089   6.834   2.130   4.152
  169SAPE  H17X19090   6.751   2.060   4.130
  169SAPE  H17Y19091   6.785   2.229   4.146
  169SAPE  C31819092   0.024   2.102   4.293
  169SAPE  H18X19093   6.811   2.142   4.370
  169SAPE  H18Y19094   0.124   2.146   4.311
  169SAPE  H18Z19095   0.039   1.993   4.311
  170SAPE     N19096   0.035   3.825   1.539
  170SAPE   HN119097   6.788   3.828   1.532
  170SAPE   HN219098   0.075   3.899   1.478
  170SAPE   HN319099   0.063   3.735   1.495
  170SAPE   C1219100   0.078   3.820   1.684
  170SAPE  H12A19101   0.189   3.813   1.690
  170SAPE  H12B19102   0.024   3.731   1.723
  170SAPE   C1119103   0.025   3.941   1.756
  170SAPE  H11A19104   0.049   3.922   1.862
  170SAPE  H11B19105   6.771   3.952   1.758
  170SAPE     P19106   0.204   4.142   1.771
  170SAPE   O1319107   0.325   4.085   1.712
  170SAPE   O1419108   0.179   4.280   1.730
  170SAPE   O1219109   0.082   4.066   1.710
  170SAPE   O1119110   0.185   4.127   1.928
  170SAPE    C119111   0.305   4.144   2.000
  170SAPE    HA19112   0.372   4.058   1.983
  170SAPE    HB19113   0.357   4.239   1.977
  170SAPE    C219114   0.288   4.146   2.155
  170SAPE    HS19115   0.388   4.176   2.193
  170SAPE   O2119116   0.247   4.016   2.207
  170SAPE   C2119117   0.349   3.930   2.218
  170SAPE   O2219118   0.465   3.949   2.194
  170SAPE   C2219119   0.298   3.799   2.285
  170SAPE   H2R19120   0.296   3.830   2.392
  170SAPE   H2S19121   0.195   3.776   2.252
  170SAPE    C319122   0.190   4.254   2.212
  170SAPE    HX19123   0.095   4.253   2.154
  170SAPE    HY19124   0.242   4.349   2.188
  170SAPE   O3119125   0.163   4.227   2.354
  170SAPE   C3119126   0.238   4.279   2.445
  170SAPE   O3219127   0.348   4.332   2.437
  170SAPE   C3219128   0.167   4.295   2.579
  170SAPE   H2X19129   0.181   4.191   2.615
  170SAPE   H2Y19130   0.063   4.329   2.564
  170SAPE   C2319131   0.395   3.674   2.289
  170SAPE   H3R19132   0.494   3.708   2.325
  170SAPE   H3S19133   0.394   3.637   2.184
  170SAPE   C2419134   0.359   3.580   2.405
  170SAPE   H4R19135   0.377   3.637   2.499
  170SAPE   H4S19136   0.430   3.494   2.399
  170SAPE   C2519137   0.228   3.515   2.387
  170SAPE   H5R19138   0.209   3.447   2.302
  170SAPE   C2619139   0.125   3.521   2.467
  170SAPE   H6R19140   0.033   3.467   2.442
  170SAPE   C2719141   0.130   3.588   2.605
  170SAPE   H7R19142   0.158   3.695   2.592
  170SAPE   H7S19143   0.216   3.546   2.662
  170SAPE   C2819144   0.002   3.557   2.676
  170SAPE   H8R19145   6.770   3.587   2.619
  170SAPE   C2919146   6.849   3.505   2.803
  170SAPE   H9R19147   6.748   3.505   2.846
  170SAPE  C21019148   0.107   3.470   2.892
  170SAPE  H10R19149   0.209   3.498   2.858
  170SAPE  H10S19150   0.105   3.359   2.903
  170SAPE  C21119151   0.086   3.543   3.024
  170SAPE  H11R19152   0.070   3.652   3.019
  170SAPE  C21219153   0.090   3.481   3.149
  170SAPE  H12R19154   0.070   3.547   3.235
  170SAPE  C21319155   0.086   3.332   3.173
  170SAPE  H13R19156   0.141   3.307   3.266
  170SAPE  H13S19157   0.137   3.278   3.090
  170SAPE  C21419158   6.807   3.268   3.179
  170SAPE  H14R19159   6.758   3.276   3.080
  170SAPE  C21519160   6.737   3.214   3.278
  170SAPE  H15R19161   6.641   3.167   3.251
  170SAPE  C21619162   6.784   3.212   3.420
  170SAPE  H16R19163   6.708   3.266   3.480
  170SAPE  H16S19164   0.021   3.268   3.441
  170SAPE  C21719165   6.788   3.076   3.483
  170SAPE  H17R19166   0.017   3.014   3.446
  170SAPE  H17S19167   6.694   3.021   3.462
  170SAPE  C21819168   6.805   3.072   3.636
  170SAPE  H18R19169   6.790   2.965   3.663
  170SAPE  H18S19170   6.728   3.127   3.694
  170SAPE  C21919171   0.088   3.118   3.677
  170SAPE  H19R19172   0.100   3.222   3.640
  170SAPE  H19S19173   0.172   3.064   3.628
  170SAPE  C22019174   0.116   3.123   3.826
  170SAPE  H20R19175   0.069   3.038   3.879
  170SAPE  H20S19176   0.071   3.218   3.860
  170SAPE  H20T19177   0.225   3.129   3.848
  170SAPE   C3319178   0.244   4.384   2.686
  170SAPE   H3X19179   0.295   4.473   2.642
  170SAPE   H3Y19180   0.330   4.330   2.730
  170SAPE   C3419181   0.156   4.434   2.802
  170SAPE   H4X19182   0.054   4.457   2.763
  170SAPE   H4Y19183   0.192   4.527   2.851
  170SAPE   C3519184   0.129   4.335   2.913
  170SAPE   H5X19185   0.215   4.270   2.939
  170SAPE   H5Y19186   0.036   4.274   2.902
  170SAPE   C3619187   0.109   4.413   3.044
  170SAPE   H6X19188   0.042   4.499   3.026
  170SAPE   H6Y19189   0.209   4.454   3.069
  170SAPE   C3719190   0.054   4.329   3.167
  170SAPE   H7X19191   0.046   4.399   3.253
  170SAPE   H7Y19192   0.121   4.247   3.201
  170SAPE   C3819193   6.762   4.274   3.154
  170SAPE   H8X19194   6.744   4.226   3.055
  170SAPE   H8Y19195   6.695   4.362   3.150
  170SAPE   C3919196   6.725   4.189   3.273
  170SAPE   H9X19197   6.615   4.175   3.269
  170SAPE   H9Y19198   6.744   4.245   3.368
  170SAPE  C31019199   6.796   4.056   3.299
  170SAPE  H10X19200   0.042   4.081   3.266
  170SAPE  H10Y19201   6.770   3.972   3.230
  170SAPE  C31119202   6.769   4.008   3.447
  170SAPE  H11X19203   6.811   4.085   3.514
  170SAPE  H11Y19204   6.830   3.917   3.465
  170SAPE  C31219205   6.620   4.007   3.489
  170SAPE  H12X19206   6.554   3.953   3.417
  170SAPE  H12Y19207   6.575   4.109   3.495
  170SAPE  C31319208   6.606   3.948   3.631
  170SAPE  H13X19209   6.669   4.009   3.700
  170SAPE  H13Y19210   6.651   3.847   3.625
  170SAPE  C31419211   6.457   3.959   3.690
  170SAPE  H14X19212   6.391   3.939   3.603
  170SAPE  H14Y19213   6.461   4.065   3.724
  170SAPE  C31519214   6.434   3.871   3.818
  170SAPE  H15X19215   6.514   3.911   3.885
  170SAPE  H15Y19216   6.459   3.767   3.789
  170SAPE  C31619217   6.298   3.877   3.888
  170SAPE  H16X19218   6.225   3.841   3.812
  170SAPE  H16Y19219   6.277   3.980   3.924
  170SAPE  C31719220   6.292   3.797   4.023
  170SAPE  H17X19221   6.295   3.688   4.001
  170SAPE  H17Y19222   6.192   3.818   4.067
  170SAPE  C31819223   6.403   3.844   4.116
  170SAPE  H18X19224   6.389   3.945   4.159
  170SAPE  H18Y19225   6.506   3.823   4.079
  170SAPE  H18Z19226   6.405   3.779   4.206
  171SAPE     N19227   6.438   3.242   2.184
  171SAPE   HN119228   6.334   3.249   2.191
  171SAPE   HN219229   6.475   3.199   2.271
  171SAPE   HN319230   6.466   3.340   2.163
  171SAPE   C1219231   6.477   3.164   2.068
  171SAPE  H12A19232   6.585   3.142   2.082
  171SAPE  H12B19233   6.457   3.212   1.969
  171SAPE   C1119234   6.407   3.026   2.067
  171SAPE  H11A19235   6.435   2.976   1.971
  171SAPE  H11B19236   6.300   3.038   2.039
  171SAPE     P19237   6.544   2.842   2.203
  171SAPE   O1319238   6.523   2.759   2.323
  171SAPE   O1419239   6.568   2.757   2.088
  171SAPE   O1219240   6.422   2.942   2.186
  171SAPE   O1119241   6.665   2.940   2.224
  171SAPE    C119242   6.800   2.894   2.199
  171SAPE    HA19243   6.816   2.788   2.168
  171SAPE    HB19244   6.823   2.953   2.108
  171SAPE    C219245   0.042   2.929   2.314
  171SAPE    HS19246   0.128   2.859   2.317
  171SAPE   O2119247   6.837   2.913   2.445
  171SAPE   C2119248   6.801   2.789   2.474
  171SAPE   O2219249   6.833   2.689   2.419
  171SAPE   C2219250   6.705   2.795   2.601
  171SAPE   H2R19251   6.762   2.842   2.683
  171SAPE   H2S19252   6.620   2.863   2.580
  171SAPE    C319253   0.094   3.071   2.298
  171SAPE    HX19254   0.008   3.135   2.270
  171SAPE    HY19255   0.166   3.079   2.213
  171SAPE   O3119256   0.161   3.120   2.412
  171SAPE   C3119257   0.095   3.188   2.503
  171SAPE   O3219258   6.842   3.233   2.493
  171SAPE   C3219259   0.182   3.207   2.633
  171SAPE   H2X19260   0.174   3.310   2.674
  171SAPE   H2Y19261   0.287   3.184   2.608
  171SAPE   C2319262   6.658   2.653   2.653
  171SAPE   H3R19263   6.666   2.581   2.568
  171SAPE   H3S19264   6.552   2.666   2.684
  171SAPE   C2419265   6.733   2.622   2.785
  171SAPE   H4R19266   6.710   2.706   2.854
  171SAPE   H4S19267   6.844   2.619   2.771
  171SAPE   C2519268   6.678   2.500   2.854
  171SAPE   H5R19269   6.583   2.519   2.906
  171SAPE   C2619270   6.740   2.384   2.870
  171SAPE   H6R19271   6.697   2.307   2.937
  171SAPE   C2719272   0.018   2.347   2.811
  171SAPE   H7R19273   0.059   2.258   2.863
  171SAPE   H7S19274   0.092   2.426   2.832
  171SAPE   C2819275   6.852   2.319   2.660
  171SAPE   H8R19276   6.766   2.373   2.618
  171SAPE   C2919277   0.064   2.237   2.578
  171SAPE   H9R19278   0.021   2.214   2.480
  171SAPE  C21019279   0.179   2.146   2.617
  171SAPE  H10R19280   0.142   2.053   2.666
  171SAPE  H10S19281   0.237   2.201   2.694
  171SAPE  C21119282   0.258   2.103   2.491
  171SAPE  H11R19283   0.199   2.037   2.426
  171SAPE  C21219284   0.397   2.104   2.481
  171SAPE  H12R19285   0.433   2.082   2.379
  171SAPE  C21319286   0.485   2.162   2.581
  171SAPE  H13R19287   0.439   2.241   2.643
  171SAPE  H13S19288   0.561   2.221   2.527
  171SAPE  C21419289   0.569   2.059   2.652
  171SAPE  H14R19290   0.621   1.982   2.594
  171SAPE  C21519291   0.580   2.050   2.785
  171SAPE  H15R19292   0.639   1.967   2.826
  171SAPE  C21619293   0.518   2.137   2.886
  171SAPE  H16R19294   0.465   2.224   2.841
  171SAPE  H16S19295   0.595   2.174   2.957
  171SAPE  C21719296   0.423   2.049   2.978
  171SAPE  H17R19297   0.474   1.974   3.042
  171SAPE  H17S19298   0.362   1.989   2.908
  171SAPE  C21819299   0.330   2.124   3.066
  171SAPE  H18R19300   0.295   2.221   3.023
  171SAPE  H18S19301   0.399   2.154   3.147
  171SAPE  C21919302   0.206   2.044   3.113
  171SAPE  H19R19303   0.140   2.036   3.024
  171SAPE  H19S19304   0.137   2.107   3.172
  171SAPE  C22019305   0.228   1.909   3.188
  171SAPE  H20R19306   0.275   1.833   3.123
  171SAPE  H20S19307   0.132   1.872   3.228
  171SAPE  H20T19308   0.300   1.920   3.272
  171SAPE   C3319309   0.135   3.106   2.736
  171SAPE   H3X19310   0.024   3.105   2.735
  171SAPE   H3Y19311   0.164   3.150   2.834
  171SAPE   C3419312   0.191   2.964   2.730
  171SAPE   H4X19313   0.302   2.963   2.738
  171SAPE   H4Y19314   0.160   2.923   2.632
  171SAPE   C3519315   0.123   2.874   2.842
  171SAPE   H5X19316   0.133   2.766   2.819
  171SAPE   H5Y19317   0.014   2.893   2.854
  171SAPE   C3619318   0.194   2.892   2.979
  171SAPE   H6X19319   0.187   2.999   3.005
  171SAPE   H6Y19320   0.301   2.865   2.962
  171SAPE   C3719321   0.140   2.805   3.089
  171SAPE   H7X19322   0.120   2.700   3.056
  171SAPE   H7Y19323   0.039   2.842   3.117
  171SAPE   C3819324   0.222   2.810   3.221
  171SAPE   H8X19325   0.229   2.920   3.237
  171SAPE   H8Y19326   0.321   2.767   3.196
  171SAPE   C3919327   0.154   2.742   3.343
  171SAPE   H9X19328   0.170   2.632   3.339
  171SAPE   H9Y19329   0.050   2.782   3.353
  171SAPE  C31019330   0.230   2.786   3.472
  171SAPE  H10X19331   0.225   2.897   3.477
  171SAPE  H10Y19332   0.334   2.749   3.453
  171SAPE  C31119333   0.162   2.718   3.594
  171SAPE  H11X19334   0.156   2.609   3.574
  171SAPE  H11Y19335   0.055   2.743   3.604
  171SAPE  C31219336   0.223   2.748   3.729
  171SAPE  H12X19337   0.240   2.858   3.734
  171SAPE  H12Y19338   0.323   2.700   3.739
  171SAPE  C31319339   0.125   2.717   3.850
  171SAPE  H13X19340   0.025   2.761   3.833
  171SAPE  H13Y19341   0.178   2.757   3.940
  171SAPE  C31419342   0.130   2.565   3.877
  171SAPE  H14X19343   0.237   2.534   3.876
  171SAPE  H14Y19344   0.090   2.508   3.790
  171SAPE  C31519345   0.062   2.519   4.004
  171SAPE  H15X19346   0.047   2.409   3.993
  171SAPE  H15Y19347   6.816   2.562   4.006
  171SAPE  C31619348   0.137   2.563   4.129
  171SAPE  H16X19349   0.151   2.673   4.131
  171SAPE  H16Y19350   0.235   2.511   4.136
  171SAPE  C31719351   0.052   2.526   4.254
  171SAPE  H17X19352   0.046   2.416   4.271
  171SAPE  H17Y19353   6.804   2.556   4.231
  171SAPE  C31819354   0.096   2.597   4.380
  171SAPE  H18X19355   0.081   2.707   4.373
  171SAPE  H18Y19356   0.199   2.573   4.413
  171SAPE  H18Z19357   0.030   2.564   4.463
  172SAPE     N19358   0.116   5.228   1.876
  172SAPE   HN119359   0.049   5.210   1.953
  172SAPE   HN219360   0.088   5.319   1.836
  172SAPE   HN319361   0.111   5.146   1.812
  172SAPE   C1219362   0.258   5.239   1.924
  172SAPE  H12A19363   0.312   5.290   1.842
  172SAPE  H12B19364   0.301   5.137   1.929
  172SAPE   C1119365   0.268   5.328   2.051
  172SAPE  H11A19366   0.258   5.432   2.014
  172SAPE  H11B19367   0.368   5.311   2.096
  172SAPE     P19368   0.119   5.405   2.258
  172SAPE   O1319369   0.120   5.541   2.203
  172SAPE   O1419370   6.846   5.352   2.310
  172SAPE   O1219371   0.168   5.301   2.148
  172SAPE   O1119372   0.225   5.384   2.372
  172SAPE    C119373   0.347   5.463   2.362
  172SAPE    HA19374   0.425   5.409   2.303
  172SAPE    HB19375   0.333   5.555   2.303
  172SAPE    C219376   0.411   5.489   2.502
  172SAPE    HS19377   0.458   5.391   2.525
  172SAPE   O2119378   0.319   5.529   2.599
  172SAPE   C2119379   0.252   5.639   2.576
  172SAPE   O2219380   0.275   5.721   2.484
  172SAPE   C2219381   0.146   5.663   2.686
  172SAPE   H2R19382   0.077   5.744   2.653
  172SAPE   H2S19383   0.087   5.569   2.697
  172SAPE    C319384   0.538   5.577   2.489
  172SAPE    HX19385   0.502   5.673   2.447
  172SAPE    HY19386   0.598   5.523   2.412
  172SAPE   O3119387   0.592   5.582   2.623
  172SAPE   C3119388   0.609   5.698   2.683
  172SAPE   O3219389   0.590   5.813   2.633
  172SAPE   C3219390   0.661   5.660   2.825
  172SAPE   H2X19391   0.771   5.650   2.813
  172SAPE   H2Y19392   0.623   5.558   2.848
  172SAPE   C2319393   0.207   5.706   2.826
  172SAPE   H3R19394   0.289   5.780   2.834
  172SAPE   H3S19395   0.242   5.607   2.862
  172SAPE   C2419396   0.099   5.767   2.918
  172SAPE   H4R19397   0.022   5.686   2.917
  172SAPE   H4S19398   0.060   5.858   2.868
  172SAPE   C2519399   0.143   5.781   3.063
  172SAPE   H5R19400   0.221   5.859   3.069
  172SAPE   C2619401   0.119   5.704   3.172
  172SAPE   H6R19402   0.166   5.728   3.269
  172SAPE   C2719403   0.012   5.596   3.181
  172SAPE   H7R19404   6.853   5.529   3.094
  172SAPE   H7S19405   6.772   5.647   3.202
  172SAPE   C2819406   0.046   5.504   3.300
  172SAPE   H8R19407   0.126   5.434   3.273
  172SAPE   C2919408   0.021   5.514   3.433
  172SAPE   H9R19409   0.057   5.430   3.495
  172SAPE  C21019410   6.777   5.609   3.490
  172SAPE  H10R19411   6.709   5.645   3.410
  172SAPE  H10S19412   6.823   5.701   3.531
  172SAPE  C21119413   6.690   5.536   3.597
  172SAPE  H11R19414   6.673   5.430   3.575
  172SAPE  C21219415   6.653   5.589   3.713
  172SAPE  H12R19416   6.581   5.525   3.767
  172SAPE  C21319417   6.688   5.725   3.767
  172SAPE  H13R19418   6.692   5.800   3.686
  172SAPE  H13S19419   6.794   5.717   3.797
  172SAPE  C21419420   6.598   5.765   3.887
  172SAPE  H14R19421   6.516   5.697   3.916
  172SAPE  C21519422   6.620   5.874   3.962
  172SAPE  H15R19423   6.549   5.892   4.044
  172SAPE  C21619424   6.725   5.976   3.936
  172SAPE  H16R19425   6.714   6.008   3.830
  172SAPE  H16S19426   6.825   5.932   3.952
  172SAPE  C21719427   6.718   6.104   4.025
  172SAPE  H17R19428   6.681   6.074   4.126
  172SAPE  H17S19429   6.643   6.172   3.978
  172SAPE  C21819430   6.848   6.187   4.045
  172SAPE  H18R19431   6.839   6.288   4.091
  172SAPE  H18S19432   0.032   6.213   3.945
  172SAPE  C21919433   0.098   6.116   4.135
  172SAPE  H19R19434   0.129   6.024   4.082
  172SAPE  H19S19435   0.039   6.089   4.226
  172SAPE  C22019436   0.213   6.205   4.181
  172SAPE  H20R19437   0.256   6.169   4.277
  172SAPE  H20S19438   0.186   6.313   4.183
  172SAPE  H20T19439   0.280   6.195   4.093
  172SAPE   C3319440   0.634   5.769   2.932
  172SAPE   H3X19441   0.542   5.826   2.908
  172SAPE   H3Y19442   0.718   5.840   2.946
  172SAPE   C3419443   0.598   5.696   3.065
  172SAPE   H4X19444   0.689   5.648   3.108
  172SAPE   H4Y19445   0.531   5.609   3.046
  172SAPE   C3519446   0.512   5.774   3.156
  172SAPE   H5X19447   0.411   5.795   3.113
  172SAPE   H5Y19448   0.564   5.867   3.186
  172SAPE   C3619449   0.481   5.710   3.298
  172SAPE   H6X19450   0.405   5.630   3.287
  172SAPE   H6Y19451   0.426   5.791   3.350
  172SAPE   C3719452   0.606   5.662   3.363
  172SAPE   H7X19453   0.678   5.746   3.376
  172SAPE   H7Y19454   0.652   5.583   3.301
  172SAPE   C3819455   0.587   5.600   3.498
  172SAPE   H8X19456   0.513   5.517   3.495
  172SAPE   H8Y19457   0.553   5.677   3.572
  172SAPE   C3919458   0.722   5.543   3.550
  172SAPE   H9X19459   0.798   5.620   3.577
  172SAPE   H9Y19460   0.765   5.477   3.471
  172SAPE  C31019461   0.698   5.466   3.680
  172SAPE  H10X19462   0.753   5.369   3.675
  172SAPE  H10Y19463   0.591   5.448   3.703
  172SAPE  C31119464   0.751   5.550   3.803
  172SAPE  H11X19465   0.724   5.656   3.784
  172SAPE  H11Y19466   0.862   5.552   3.797
  172SAPE  C31219467   0.700   5.488   3.936
  172SAPE  H12X19468   0.756   5.394   3.954
  172SAPE  H12Y19469   0.593   5.458   3.944
  172SAPE  C31319470   0.717   5.591   4.053
  172SAPE  H13X19471   0.656   5.683   4.037
  172SAPE  H13Y19472   0.816   5.638   4.066
  172SAPE  C31419473   0.679   5.528   4.194
  172SAPE  H14X19474   0.594   5.458   4.176
  172SAPE  H14Y19475   0.639   5.617   4.248
  172SAPE  C31519476   0.793   5.437   4.239
  172SAPE  H15X19477   0.882   5.500   4.255
  172SAPE  H15Y19478   0.820   5.363   4.160
  172SAPE  C31619479   0.749   5.359   4.358
  172SAPE  H16X19480   0.655   5.309   4.328
  172SAPE  H16Y19481   0.710   5.420   4.442
  172SAPE  C31719482   0.854   5.261   4.417
  172SAPE  H17X19483   0.935   5.317   4.469
  172SAPE  H17Y19484   0.893   5.192   4.338
  172SAPE  C31819485   0.793   5.166   4.528
  172SAPE  H18X19486   0.705   5.116   4.483
  172SAPE  H18Y19487   0.767   5.234   4.613
  172SAPE  H18Z19488   0.867   5.088   4.555
  173SLPC     N19489   5.270   0.058   6.652
  173SLPC   C1319490   5.192   6.826   6.751
  173SLPC  H13A19491   5.234   6.726   6.755
  173SLPC  H13B19492   5.192   0.008   6.852
  173SLPC  H13C19493   5.093   6.806   6.712
  173SLPC   C1419494   5.399   0.064   6.729
  173SLPC  H14A19495   5.382   0.113   6.824
  173SLPC  H14B19496   5.454   6.828   6.736
  173SLPC  H14C19497   5.462   0.134   6.676
  173SLPC   C1519498   5.208   0.189   6.646
  173SLPC  H15A19499   5.124   0.204   6.580
  173SLPC  H15B19500   5.176   0.234   6.739
  173SLPC  H15C19501   5.281   0.264   6.618
  173SLPC   C1219502   5.291   6.845   6.523
  173SLPC  H12A19503   5.196   6.836   6.473
  173SLPC  H12B19504   5.332   6.747   6.544
  173SLPC   C1119505   5.392   0.069   6.420
  173SLPC  H11A19506   5.350   0.171   6.412
  173SLPC  H11B19507   5.383   0.015   6.324
  173SLPC     P19508   5.638   6.827   6.418
  173SLPC   O1319509   5.728   6.805   6.530
  173SLPC   O1419510   5.576   6.709   6.357
  173SLPC   O1219511   5.533   0.071   6.460
  173SLPC   O1119512   5.722   0.044   6.315
  173SLPC    C119513   5.698   0.054   6.174
  173SLPC    HA19514   5.800   0.070   6.132
  173SLPC    HB19515   5.659   6.812   6.141
  173SLPC    C219516   5.595   0.161   6.124
  173SLPC    HS19517   5.495   0.127   6.157
  173SLPC   O2119518   5.588   0.180   5.979
  173SLPC   C2119519   5.547   0.071   5.920
  173SLPC   O2219520   5.500   6.824   5.970
  173SLPC   C2219521   5.549   0.095   5.768
  173SLPC   H2R19522   5.449   0.067   5.728
  173SLPC   H2S19523   5.560   0.205   5.753
  173SLPC    C319524   5.622   0.303   6.186
  173SLPC    HX19525   5.729   0.322   6.161
  173SLPC    HY19526   5.601   0.309   6.295
  173SLPC   O3119527   5.545   0.402   6.118
  173SLPC   C3119528   5.606   0.481   6.036
  173SLPC   O3219529   5.726   0.493   6.017
  173SLPC   C3219530   5.502   0.558   5.956
  173SLPC   H2X19531   5.428   0.594   6.031
  173SLPC   H2Y19532   5.433   0.492   5.899
  173SLPC   C2319533   5.653   0.013   5.686
  173SLPC   H3R19534   5.618   0.020   5.581
  173SLPC   H3S19535   5.652   6.762   5.715
  173SLPC   C2419536   5.792   0.066   5.708
  173SLPC   H4R19537   5.819   0.061   5.816
  173SLPC   H4S19538   5.800   0.176   5.692
  173SLPC   C2519539   5.883   6.838   5.618
  173SLPC   H5R19540   5.826   6.747   5.592
  173SLPC   H5S19541   5.972   6.816   5.681
  173SLPC   C2619542   5.923   0.055   5.492
  173SLPC   H6R19543   6.022   0.098   5.517
  173SLPC   H6S19544   5.851   0.138   5.474
  173SLPC   C2719545   5.931   6.824   5.363
  173SLPC   H7R19546   5.831   6.815   5.317
  173SLPC   H7S19547   5.958   6.721   5.396
  173SLPC   C2819548   6.031   0.016   5.257
  173SLPC   H8R19549   6.062   6.795   5.184
  173SLPC   H8S19550   6.122   0.029   5.320
  173SLPC   C2919551   5.985   0.147   5.200
  173SLPC   H9R19552   5.980   0.228   5.275
  173SLPC  C21019553   5.952   0.171   5.077
  173SLPC  H10R19554   5.895   0.264   5.061
  173SLPC  C21119555   5.966   0.084   4.950
  173SLPC  H11R19556   5.867   0.062   4.904
  173SLPC  H11S19557   6.004   6.841   4.979
  173SLPC  C21219558   6.060   0.157   4.851
  173SLPC  H12R19559   6.148   0.201   4.899
  173SLPC  C21319560   6.034   0.178   4.720
  173SLPC  H13R19561   6.103   0.239   4.662
  173SLPC  C21419562   5.929   0.118   4.639
  173SLPC  H14R19563   5.881   0.192   4.570
  173SLPC  H14S19564   5.850   0.097   4.714
  173SLPC  C21519565   5.963   6.847   4.561
  173SLPC  H15R19566   6.019   6.777   4.626
  173SLPC  H15S19567   6.039   0.022   4.487
  173SLPC  C21619568   5.838   6.791   4.494
  173SLPC  H16R19569   5.780   6.730   4.567
  173SLPC  H16S19570   5.876   6.716   4.421
  173SLPC  C21719571   5.743   0.031   4.420
  173SLPC  H17R19572   5.809   0.090   4.354
  173SLPC  H17S19573   5.699   0.101   4.495
  173SLPC  C21819574   5.639   6.820   4.330
  173SLPC  H18R19575   5.621   0.031   4.244
  173SLPC  H18S19576   5.541   6.811   4.380
  173SLPC  H18T19577   5.667   6.717   4.297
  173SLPC   C3319578   5.559   0.670   5.865
  173SLPC   H3X19579   5.612   0.619   5.782
  173SLPC   H3Y19580   5.624   0.733   5.929
  173SLPC   C3419581   5.457   0.763   5.797
  173SLPC   H4X19582   5.393   0.813   5.873
  173SLPC   H4Y19583   5.387   0.701   5.737
  173SLPC   C3519584   5.525   0.885   5.726
  173SLPC   H5X19585   5.576   0.953   5.798
  173SLPC   H5Y19586   5.451   0.948   5.672
  173SLPC   C3619587   5.639   0.863   5.627
  173SLPC   H6X19588   5.599   0.802   5.543
  173SLPC   H6Y19589   5.714   0.795   5.675
  173SLPC   C3719590   5.719   0.989   5.590
  173SLPC   H7X19591   5.763   1.042   5.678
  173SLPC   H7Y19592   5.638   1.059   5.560
  173SLPC   C3819593   5.826   0.975   5.489
  173SLPC   H8X19594   5.910   0.907   5.517
  173SLPC   H8Y19595   5.857   1.078   5.461
  173SLPC   C3919596   5.761   0.924   5.357
  173SLPC   H9X19597   5.701   1.009   5.317
  173SLPC   H9Y19598   5.703   0.829   5.367
  173SLPC  C31019599   5.868   0.900   5.248
  173SLPC  H10X19600   5.948   0.833   5.286
  173SLPC  H10Y19601   5.905   0.993   5.199
  173SLPC  C31119602   5.808   0.809   5.140
  173SLPC  H11X19603   5.737   0.869   5.078
  173SLPC  H11Y19604   5.749   0.726   5.186
  173SLPC  C31219605   5.918   0.734   5.056
  173SLPC  H12X19606   6.004   0.702   5.119
  173SLPC  H12Y19607   5.960   0.817   4.997
  173SLPC  C31319608   5.856   0.627   4.962
  173SLPC  H13X19609   5.749   0.653   4.952
  173SLPC  H13Y19610   5.873   0.529   5.011
  173SLPC  C31419611   5.918   0.617   4.825
  173SLPC  H14X19612   6.029   0.608   4.831
  173SLPC  H14Y19613   5.904   0.715   4.774
  173SLPC  C31519614   5.863   0.498   4.741
  173SLPC  H15X19615   5.848   0.405   4.800
  173SLPC  H15Y19616   5.934   0.494   4.656
  173SLPC  C31619617   5.729   0.513   4.662
  173SLPC  H16X19618   5.706   0.406   4.642
  173SLPC  H16Y19619   5.744   0.566   4.565
  173SLPC  C31719620   5.611   0.566   4.738
  173SLPC  H17X19621   5.648   0.658   4.788
  173SLPC  H17Y19622   5.588   0.483   4.808
  173SLPC  C31819623   5.477   0.590   4.660
  173SLPC  H18X19624   5.478   0.652   4.568
  173SLPC  H18Y19625   5.401   0.635   4.728
  173SLPC  H18Z19626   5.428   0.496   4.625
  174SLPC     N19627   2.220   2.610   6.830
  174SLPC   C1319628   2.228   2.520   6.948
  174SLPC  H13A19629   2.282   2.562   7.032
  174SLPC  H13B19630   2.129   2.493   6.981
  174SLPC  H13C19631   2.287   2.434   6.919
  174SLPC   C1419632   2.115   2.713   6.847
  174SLPC  H14A19633   2.098   2.775   6.761
  174SLPC  H14B19634   2.023   2.664   6.875
  174SLPC  H14C19635   2.145   2.778   6.928
  174SLPC   C1519636   2.178   2.534   6.706
  174SLPC  H15A19637   2.079   2.493   6.716
  174SLPC  H15B19638   2.194   2.588   6.613
  174SLPC  H15C19639   2.254   2.457   6.703
  174SLPC   C1219640   2.356   2.680   6.806
  174SLPC  H12A19641   2.390   2.730   6.895
  174SLPC  H12B19642   2.341   2.768   6.746
  174SLPC   C1119643   2.476   2.596   6.747
  174SLPC  H11A19644   2.568   2.660   6.749
  174SLPC  H11B19645   2.450   2.580   6.641
  174SLPC     P19646   2.498   2.323   6.783
  174SLPC   O1319647   2.575   2.232   6.869
  174SLPC   O1419648   2.359   2.285   6.771
  174SLPC   O1219649   2.512   2.478   6.823
  174SLPC   O1119650   2.571   2.327   6.642
  174SLPC    C119651   2.716   2.322   6.643
  174SLPC    HA19652   2.768   2.377   6.725
  174SLPC    HB19653   2.752   2.218   6.626
  174SLPC    C219654   2.776   2.406   6.518
  174SLPC    HS19655   2.731   2.507   6.523
  174SLPC   O2119656   2.751   2.341   6.396
  174SLPC   C2119657   2.719   2.398   6.283
  174SLPC   O2219658   2.679   2.508   6.269
  174SLPC   C2219659   2.741   2.299   6.173
  174SLPC   H2R19660   2.849   2.277   6.172
  174SLPC   H2S19661   2.680   2.208   6.195
  174SLPC    C319662   2.932   2.428   6.530
  174SLPC    HX19663   2.982   2.329   6.535
  174SLPC    HY19664   2.958   2.477   6.626
  174SLPC   O3119665   3.004   2.484   6.425
  174SLPC   C3119666   3.014   2.620   6.421
  174SLPC   O3219667   2.957   2.689   6.507
  174SLPC   C3219668   3.096   2.672   6.306
  174SLPC   H2X19669   3.205   2.655   6.314
  174SLPC   H2Y19670   3.079   2.782   6.295
  174SLPC   C2319671   2.690   2.360   6.040
  174SLPC   H3R19672   2.715   2.468   6.031
  174SLPC   H3S19673   2.580   2.368   6.037
  174SLPC   C2419674   2.741   2.278   5.920
  174SLPC   H4R19675   2.717   2.171   5.941
  174SLPC   H4S19676   2.852   2.288   5.917
  174SLPC   C2519677   2.691   2.332   5.782
  174SLPC   H5R19678   2.717   2.440   5.778
  174SLPC   H5S19679   2.582   2.313   5.772
  174SLPC   C2619680   2.777   2.270   5.673
  174SLPC   H6R19681   2.759   2.160   5.671
  174SLPC   H6S19682   2.884   2.285   5.698
  174SLPC   C2719683   2.739   2.334   5.541
  174SLPC   H7R19684   2.806   2.300   5.459
  174SLPC   H7S19685   2.762   2.443   5.551
  174SLPC   C2819686   2.591   2.312   5.504
  174SLPC   H8R19687   2.571   2.382   5.419
  174SLPC   H8S19688   2.533   2.348   5.591
  174SLPC   C2919689   2.546   2.172   5.470
  174SLPC   H9R19690   2.500   2.117   5.554
  174SLPC  C21019691   2.549   2.114   5.352
  174SLPC  H10R19692   2.506   2.012   5.349
  174SLPC  C21119693   2.607   2.166   5.223
  174SLPC  H11R19694   2.620   2.277   5.223
  174SLPC  H11S19695   2.535   2.149   5.140
  174SLPC  C21219696   2.747   2.114   5.207
  174SLPC  H12R19697   2.777   2.046   5.288
  174SLPC  C21319698   2.834   2.143   5.110
  174SLPC  H13R19699   2.935   2.099   5.100
  174SLPC  C21419700   2.810   2.232   4.994
  174SLPC  H14R19701   2.909   2.259   4.951
  174SLPC  H14S19702   2.748   2.318   5.027
  174SLPC  C21519703   2.741   2.159   4.868
  174SLPC  H15R19704   2.801   2.069   4.846
  174SLPC  H15S19705   2.765   2.246   4.802
  174SLPC  C21619706   2.592   2.127   4.872
  174SLPC  H16R19707   2.535   2.222   4.876
  174SLPC  H16S19708   2.577   2.065   4.963
  174SLPC  C21719709   2.535   2.055   4.759
  174SLPC  H17R19710   2.428   2.032   4.777
  174SLPC  H17S19711   2.591   1.961   4.744
  174SLPC  C21819712   2.526   2.121   4.619
  174SLPC  H18R19713   2.444   2.195   4.615
  174SLPC  H18S19714   2.512   2.042   4.542
  174SLPC  H18T19715   2.622   2.174   4.602
  174SLPC   C3319716   3.034   2.601   6.184
  174SLPC   H3X19717   2.930   2.639   6.182
  174SLPC   H3Y19718   3.030   2.490   6.186
  174SLPC   C3419719   3.101   2.639   6.045
  174SLPC   H4X19720   3.203   2.596   6.053
  174SLPC   H4Y19721   3.102   2.748   6.026
  174SLPC   C3519722   3.037   2.549   5.931
  174SLPC   H5X19723   2.928   2.570   5.939
  174SLPC   H5Y19724   3.047   2.441   5.957
  174SLPC   C3619725   3.093   2.583   5.795
  174SLPC   H6X19726   3.203   2.592   5.798
  174SLPC   H6Y19727   3.052   2.677   5.752
  174SLPC   C3719728   3.063   2.476   5.691
  174SLPC   H7X19729   2.953   2.480   5.677
  174SLPC   H7Y19730   3.103   2.384   5.740
  174SLPC   C3819731   3.134   2.515   5.560
  174SLPC   H8X19732   3.243   2.517   5.579
  174SLPC   H8Y19733   3.098   2.616   5.531
  174SLPC   C3919734   3.114   2.410   5.455
  174SLPC   H9X19735   3.009   2.390   5.423
  174SLPC   H9Y19736   3.156   2.312   5.485
  174SLPC  C31019737   3.178   2.442   5.327
  174SLPC  H10X19738   3.155   2.357   5.260
  174SLPC  H10Y19739   3.288   2.452   5.342
  174SLPC  C31119740   3.122   2.564   5.247
  174SLPC  H11X19741   3.138   2.662   5.297
  174SLPC  H11Y19742   3.012   2.548   5.238
  174SLPC  C31219743   3.200   2.598   5.121
  174SLPC  H12X19744   3.309   2.601   5.144
  174SLPC  H12Y19745   3.165   2.697   5.085
  174SLPC  C31319746   3.175   2.505   5.011
  174SLPC  H13X19747   3.064   2.501   5.011
  174SLPC  H13Y19748   3.213   2.404   5.038
  174SLPC  C31419749   3.218   2.554   4.873
  174SLPC  H14X19750   3.328   2.537   4.861
  174SLPC  H14Y19751   3.203   2.664   4.859
  174SLPC  C31519752   3.164   2.471   4.751
  174SLPC  H15X19753   3.054   2.485   4.753
  174SLPC  H15Y19754   3.174   2.362   4.769
  174SLPC  C31619755   3.230   2.502   4.611
  174SLPC  H16X19756   3.242   2.612   4.602
  174SLPC  H16Y19757   3.163   2.488   4.524
  174SLPC  C31719758   3.369   2.444   4.595
  174SLPC  H17X19759   3.423   2.464   4.690
  174SLPC  H17Y19760   3.413   2.492   4.505
  174SLPC  C31819761   3.378   2.291   4.591
  174SLPC  H18X19762   3.485   2.266   4.609
  174SLPC  H18Y19763   3.351   2.247   4.492
  174SLPC  H18Z19764   3.318   2.242   4.670
  175SLPC     N19765   5.300   3.432   7.149
  175SLPC   C1319766   5.339   3.517   7.269
  175SLPC  H13A19767   5.257   3.577   7.304
  175SLPC  H13B19768   5.374   3.449   7.345
  175SLPC  H13C19769   5.420   3.585   7.246
  175SLPC   C1419770   5.190   3.338   7.189
  175SLPC  H14A19771   5.150   3.283   7.106
  175SLPC  H14B19772   5.219   3.267   7.266
  175SLPC  H14C19773   5.105   3.379   7.241
  175SLPC   C1519774   5.426   3.349   7.128
  175SLPC  H15A19775   5.434   3.293   7.036
  175SLPC  H15B19776   5.519   3.404   7.134
  175SLPC  H15C19777   5.426   3.264   7.196
  175SLPC   C1219778   5.274   3.516   7.032
  175SLPC  H12A19779   5.357   3.583   7.016
  175SLPC  H12B19780   5.188   3.580   7.048
  175SLPC   C1119781   5.240   3.444   6.897
  175SLPC  H11A19782   5.200   3.519   6.826
  175SLPC  H11B19783   5.148   3.383   6.911
  175SLPC     P19784   5.474   3.454   6.775
  175SLPC   O1319785   5.494   3.573   6.856
  175SLPC   O1419786   5.585   3.375   6.734
  175SLPC   O1219787   5.352   3.370   6.833
  175SLPC   O1119788   5.419   3.505   6.632
  175SLPC    C119789   5.300   3.446   6.575
  175SLPC    HA19790   5.215   3.421   6.642
  175SLPC    HB19791   5.247   3.523   6.514
  175SLPC    C219792   5.343   3.326   6.486
  175SLPC    HS19793   5.386   3.248   6.553
  175SLPC   O2119794   5.445   3.362   6.389
  175SLPC   C2119795   5.508   3.272   6.317
  175SLPC   O2219796   5.493   3.152   6.328
  175SLPC   C2219797   5.590   3.339   6.211
  175SLPC   H2R19798   5.528   3.423   6.172
  175SLPC   H2S19799   5.685   3.369   6.260
  175SLPC    C319800   5.223   3.241   6.439
  175SLPC    HX19801   5.149   3.219   6.519
  175SLPC    HY19802   5.265   3.142   6.413
  175SLPC   O3119803   5.165   3.300   6.324
  175SLPC   C3119804   5.073   3.404   6.343
  175SLPC   O3219805   5.032   3.444   6.450
  175SLPC   C3219806   5.019   3.455   6.208
  175SLPC   H2X19807   4.938   3.523   6.242
  175SLPC   H2Y19808   4.972   3.370   6.154
  175SLPC   C2319809   5.616   3.255   6.083
  175SLPC   H3R19810   5.631   3.318   5.993
  175SLPC   H3S19811   5.521   3.206   6.053
  175SLPC   C2419812   5.724   3.155   6.095
  175SLPC   H4R19813   5.712   3.077   6.173
  175SLPC   H4S19814   5.812   3.214   6.126
  175SLPC   C2519815   5.762   3.087   5.964
  175SLPC   H5R19816   5.679   3.022   5.928
  175SLPC   H5S19817   5.848   3.024   5.997
  175SLPC   C2619818   5.810   3.183   5.854
  175SLPC   H6R19819   5.883   3.259   5.889
  175SLPC   H6S19820   5.722   3.234   5.811
  175SLPC   C2719821   5.888   3.107   5.748
  175SLPC   H7R19822   5.813   3.038   5.704
  175SLPC   H7S19823   5.976   3.050   5.785
  175SLPC   C2819824   5.944   3.202   5.643
  175SLPC   H8R19825   5.873   3.287   5.636
  175SLPC   H8S19826   5.930   3.139   5.553
  175SLPC   C2919827   6.083   3.245   5.661
  175SLPC   H9R19828   6.113   3.259   5.766
  175SLPC  C21019829   6.170   3.268   5.559
  175SLPC  H10R19830   6.264   3.318   5.584
  175SLPC  C21119831   6.145   3.268   5.411
  175SLPC  H11R19832   6.190   3.358   5.365
  175SLPC  H11S19833   6.037   3.265   5.383
  175SLPC  C21219834   6.217   3.155   5.328
  175SLPC  H12R19835   6.257   3.069   5.385
  175SLPC  C21319836   6.238   3.171   5.197
  175SLPC  H13R19837   6.286   3.094   5.134
  175SLPC  C21419838   6.205   3.290   5.109
  175SLPC  H14R19839   6.300   3.341   5.084
  175SLPC  H14S19840   6.145   3.365   5.166
  175SLPC  C21519841   6.123   3.240   4.990
  175SLPC  H15R19842   6.032   3.194   5.033
  175SLPC  H15S19843   6.185   3.162   4.940
  175SLPC  C21619844   6.070   3.352   4.892
  175SLPC  H16R19845   6.157   3.397   4.840
  175SLPC  H16S19846   6.018   3.438   4.940
  175SLPC  C21719847   5.959   3.317   4.785
  175SLPC  H17R19848   5.893   3.244   4.837
  175SLPC  H17S19849   6.003   3.271   4.694
  175SLPC  C21819850   5.877   3.435   4.728
  175SLPC  H18R19851   5.780   3.407   4.683
  175SLPC  H18S19852   5.946   3.473   4.649
  175SLPC  H18T19853   5.872   3.511   4.809
  175SLPC   C3319854   5.116   3.535   6.118
  175SLPC   H3X19855   5.196   3.579   6.182
  175SLPC   H3Y19856   5.070   3.620   6.063
  175SLPC   C3419857   5.177   3.454   6.009
  175SLPC   H4X19858   5.100   3.403   5.947
  175SLPC   H4Y19859   5.228   3.374   6.068
  175SLPC   C3519860   5.268   3.532   5.914
  175SLPC   H5X19861   5.354   3.577   5.966
  175SLPC   H5Y19862   5.209   3.623   5.888
  175SLPC   C3619863   5.307   3.446   5.786
  175SLPC   H6X19864   5.221   3.420   5.721
  175SLPC   H6Y19865   5.357   3.356   5.827
  175SLPC   C3719866   5.405   3.524   5.707
  175SLPC   H7X19867   5.495   3.543   5.769
  175SLPC   H7Y19868   5.359   3.619   5.672
  175SLPC   C3819869   5.447   3.459   5.571
  175SLPC   H8X19870   5.470   3.537   5.495
  175SLPC   H8Y19871   5.361   3.395   5.540
  175SLPC   C3919872   5.563   3.365   5.605
  175SLPC   H9X19873   5.529   3.291   5.679
  175SLPC   H9Y19874   5.645   3.428   5.646
  175SLPC  C31019875   5.611   3.286   5.478
  175SLPC  H10X19876   5.524   3.223   5.452
  175SLPC  H10Y19877   5.674   3.201   5.512
  175SLPC  C31119878   5.678   3.364   5.366
  175SLPC  H11X19879   5.770   3.425   5.382
  175SLPC  H11Y19880   5.599   3.434   5.330
  175SLPC  C31219881   5.720   3.275   5.250
  175SLPC  H12X19882   5.758   3.176   5.282
  175SLPC  H12Y19883   5.803   3.330   5.201
  175SLPC  C31319884   5.597   3.262   5.157
  175SLPC  H13X19885   5.568   3.365   5.130
  175SLPC  H13Y19886   5.509   3.205   5.195
  175SLPC  C31419887   5.646   3.209   5.018
  175SLPC  H14X19888   5.689   3.108   5.033
  175SLPC  H14Y19889   5.730   3.273   4.986
  175SLPC  C31519890   5.534   3.201   4.918
  175SLPC  H15X19891   5.487   3.301   4.913
  175SLPC  H15Y19892   5.455   3.125   4.936
  175SLPC  C31619893   5.590   3.167   4.778
  175SLPC  H16X19894   5.638   3.068   4.766
  175SLPC  H16Y19895   5.680   3.229   4.758
  175SLPC  C31719896   5.485   3.172   4.663
  175SLPC  H17X19897   5.388   3.134   4.702
  175SLPC  H17Y19898   5.520   3.107   4.580
  175SLPC  C31819899   5.460   3.317   4.609
  175SLPC  H18X19900   5.409   3.313   4.511
  175SLPC  H18Y19901   5.561   3.363   4.607
  175SLPC  H18Z19902   5.395   3.360   4.689
  176SLPC     N19903   5.674   2.312   6.725
  176SLPC   C1319904   5.597   2.437   6.742
  176SLPC  H13A19905   5.583   2.487   6.647
  176SLPC  H13B19906   5.497   2.418   6.778
  176SLPC  H13C19907   5.646   2.508   6.807
  176SLPC   C1419908   5.682   2.251   6.861
  176SLPC  H14A19909   5.743   2.313   6.925
  176SLPC  H14B19910   5.582   2.241   6.901
  176SLPC  H14C19911   5.714   2.148   6.868
  176SLPC   C1519912   5.821   2.342   6.675
  176SLPC  H15A19913   5.871   2.247   6.687
  176SLPC  H15B19914   5.820   2.355   6.568
  176SLPC  H15C19915   5.871   2.414   6.738
  176SLPC   C1219916   5.601   2.219   6.628
  176SLPC  H12A19917   5.573   2.270   6.537
  176SLPC  H12B19918   5.504   2.212   6.675
  176SLPC   C1119919   5.661   2.075   6.589
  176SLPC  H11A19920   5.765   2.083   6.552
  176SLPC  H11B19921   5.600   2.041   6.502
  176SLPC     P19922   5.535   1.919   6.750
  176SLPC   O1319923   5.582   1.793   6.822
  176SLPC   O1419924   5.446   2.016   6.826
  176SLPC   O1219925   5.662   1.995   6.702
  176SLPC   O1119926   5.461   1.870   6.615
  176SLPC    C119927   5.509   1.753   6.543
  176SLPC    HA19928   5.593   1.788   6.480
  176SLPC    HB19929   5.543   1.680   6.620
  176SLPC    C219930   5.410   1.690   6.443
  176SLPC    HS19931   5.473   1.661   6.356
  176SLPC   O2119932   5.311   1.790   6.404
  176SLPC   C2119933   5.267   1.767   6.283
  176SLPC   O2219934   5.310   1.677   6.213
  176SLPC   C2219935   5.163   1.870   6.234
  176SLPC   H2R19936   5.075   1.852   6.299
  176SLPC   H2S19937   5.206   1.972   6.247
  176SLPC    C319938   5.353   1.564   6.499
  176SLPC    HX19939   5.283   1.573   6.584
  176SLPC    HY19940   5.435   1.509   6.551
  176SLPC   O3119941   5.289   1.478   6.402
  176SLPC   C3119942   5.375   1.407   6.329
  176SLPC   O3219943   5.496   1.408   6.357
  176SLPC   C3219944   5.316   1.345   6.200
  176SLPC   H2X19945   5.205   1.360   6.199
  176SLPC   H2Y19946   5.346   1.239   6.202
  176SLPC   C2319947   5.118   1.864   6.087
  176SLPC   H3R19948   5.020   1.914   6.071
  176SLPC   H3S19949   5.126   1.757   6.057
  176SLPC   C2419950   5.213   1.941   5.990
  176SLPC   H4R19951   5.318   1.926   6.022
  176SLPC   H4S19952   5.189   2.049   5.997
  176SLPC   C2519953   5.212   1.900   5.840
  176SLPC   H5R19954   5.110   1.916   5.800
  176SLPC   H5S19955   5.226   1.790   5.827
  176SLPC   C2619956   5.316   1.960   5.741
  176SLPC   H6R19957   5.417   1.924   5.769
  176SLPC   H6S19958   5.305   2.069   5.757
  176SLPC   C2719959   5.291   1.919   5.595
  176SLPC   H7R19960   5.191   1.958   5.566
  176SLPC   H7S19961   5.290   1.808   5.593
  176SLPC   C2819962   5.386   1.978   5.482
  176SLPC   H8R19963   5.389   2.089   5.490
  176SLPC   H8S19964   5.340   1.940   5.389
  176SLPC   C2919965   5.529   1.921   5.498
  176SLPC   H9R19966   5.560   1.900   5.601
  176SLPC  C21019967   5.605   1.875   5.397
  176SLPC  H10R19968   5.701   1.824   5.414
  176SLPC  C21119969   5.548   1.881   5.259
  176SLPC  H11R19970   5.453   1.824   5.250
  176SLPC  H11S19971   5.608   1.807   5.202
  176SLPC  C21219972   5.533   2.013   5.178
  176SLPC  H12R19973   5.545   2.111   5.226
  176SLPC  C21319974   5.501   2.030   5.050
  176SLPC  H13R19975   5.511   2.131   5.007
  176SLPC  C21419976   5.460   1.924   4.958
  176SLPC  H14R19977   5.355   1.945   4.928
  176SLPC  H14S19978   5.464   1.822   5.003
  176SLPC  C21519979   5.547   1.922   4.832
  176SLPC  H15R19980   5.652   1.947   4.861
  176SLPC  H15S19981   5.519   2.002   4.760
  176SLPC  C21619982   5.539   1.783   4.780
  176SLPC  H16R19983   5.440   1.765   4.733
  176SLPC  H16S19984   5.563   1.707   4.858
  176SLPC  C21719985   5.649   1.755   4.667
  176SLPC  H17R19986   5.645   1.645   4.652
  176SLPC  H17S19987   5.750   1.779   4.708
  176SLPC  C21819988   5.624   1.829   4.539
  176SLPC  H18R19989   5.688   1.791   4.456
  176SLPC  H18S19990   5.620   1.939   4.544
  176SLPC  H18T19991   5.520   1.805   4.509
  176SLPC   C3319992   5.374   1.390   6.062
  176SLPC   H3X19993   5.484   1.378   6.069
  176SLPC   H3Y19994   5.361   1.497   6.035
  176SLPC   C3419995   5.328   1.303   5.946
  176SLPC   H4X19996   5.217   1.312   5.935
  176SLPC   H4Y19997   5.345   1.199   5.980
  176SLPC   C3519998   5.400   1.332   5.818
  176SLPC   H5X19999   5.503   1.313   5.855
  176SLPC   H5Y20000   5.385   1.435   5.781
  176SLPC   C3620001   5.366   1.238   5.702
  176SLPC   H6X20002   5.263   1.261   5.667
  176SLPC   H6Y20003   5.369   1.134   5.742
  176SLPC   C3720004   5.447   1.267   5.580
  176SLPC   H7X20005   5.553   1.250   5.611
  176SLPC   H7Y20006   5.440   1.375   5.556
  176SLPC   C3820007   5.407   1.183   5.455
  176SLPC   H8X20008   5.301   1.206   5.430
  176SLPC   H8Y20009   5.410   1.076   5.482
  176SLPC   C3920010   5.498   1.222   5.336
  176SLPC   H9X20011   5.605   1.212   5.364
  176SLPC   H9Y20012   5.481   1.330   5.317
  176SLPC  C31020013   5.468   1.135   5.214
  176SLPC  H10X20014   5.362   1.137   5.178
  176SLPC  H10Y20015   5.475   1.029   5.246
  176SLPC  C31120016   5.553   1.165   5.091
  176SLPC  H11X20017   5.656   1.149   5.128
  176SLPC  H11Y20018   5.549   1.272   5.061
  176SLPC  C31220019   5.519   1.073   4.973
  176SLPC  H12X20020   5.420   1.106   4.936
  176SLPC  H12Y20021   5.503   0.968   5.005
  176SLPC  C31320022   5.622   1.067   4.855
  176SLPC  H13X20023   5.720   1.048   4.903
  176SLPC  H13Y20024   5.627   1.173   4.820
  176SLPC  C31420025   5.587   0.987   4.733
  176SLPC  H14X20026   5.499   1.026   4.678
  176SLPC  H14Y20027   5.561   0.888   4.778
  176SLPC  C31520028   5.714   0.977   4.637
  176SLPC  H15X20029   5.800   0.934   4.693
  176SLPC  H15Y20030   5.745   1.076   4.598
  176SLPC  C31620031   5.681   0.884   4.518
  176SLPC  H16X20032   5.684   0.779   4.555
  176SLPC  H16Y20033   5.767   0.876   4.449
  176SLPC  C31720034   5.555   0.916   4.441
  176SLPC  H17X20035   5.554   1.021   4.405
  176SLPC  H17Y20036   5.471   0.895   4.511
  176SLPC  C31820037   5.549   0.831   4.313
  176SLPC  H18X20038   5.644   0.830   4.257
  176SLPC  H18Y20039   5.470   0.853   4.238
  176SLPC  H18Z20040   5.525   0.724   4.332
  177SLPC     N20041   4.436   2.431   6.544
  177SLPC   C1320042   4.471   2.522   6.656
  177SLPC  H13A20043   4.577   2.516   6.672
  177SLPC  H13B20044   4.456   2.624   6.623
  177SLPC  H13C20045   4.413   2.496   6.743
  177SLPC   C1420046   4.522   2.478   6.439
  177SLPC  H14A20047   4.628   2.471   6.462
  177SLPC  H14B20048   4.506   2.425   6.346
  177SLPC  H14C20049   4.503   2.584   6.428
  177SLPC   C1520050   4.288   2.466   6.507
  177SLPC  H15A20051   4.281   2.571   6.483
  177SLPC  H15B20052   4.254   2.399   6.429
  177SLPC  H15C20053   4.212   2.458   6.584
  177SLPC   C1220054   4.462   2.283   6.580
  177SLPC  H12A20055   4.426   2.228   6.494
  177SLPC  H12B20056   4.400   2.265   6.667
  177SLPC   C1120057   4.606   2.230   6.585
  177SLPC  H11A20058   4.654   2.239   6.486
  177SLPC  H11B20059   4.605   2.124   6.616
  177SLPC     P20060   4.841   2.248   6.693
  177SLPC   O1320061   4.905   2.326   6.797
  177SLPC   O1420062   4.829   2.103   6.724
  177SLPC   O1220063   4.693   2.305   6.669
  177SLPC   O1120064   4.910   2.279   6.556
  177SLPC    C120065   4.951   2.416   6.541
  177SLPC    HA20066   4.918   2.490   6.617
  177SLPC    HB20067   5.062   2.428   6.536
  177SLPC    C220068   4.913   2.459   6.399
  177SLPC    HS20069   4.803   2.476   6.404
  177SLPC   O2120070   4.933   2.347   6.301
  177SLPC   C2120071   4.854   2.350   6.189
  177SLPC   O2220072   4.771   2.435   6.169
  177SLPC   C2220073   4.896   2.234   6.092
  177SLPC   H2R20074   5.001   2.258   6.063
  177SLPC   H2S20075   4.893   2.136   6.144
  177SLPC    C320076   4.992   2.586   6.355
  177SLPC    HX20077   4.992   2.669   6.429
  177SLPC    HY20078   4.950   2.634   6.264
  177SLPC   O3120079   5.134   2.550   6.328
  177SLPC   C3120080   5.167   2.510   6.203
  177SLPC   O3220081   5.102   2.519   6.104
  177SLPC   C3220082   5.319   2.469   6.194
  177SLPC   H2X20083   5.329   2.360   6.213
  177SLPC   H2Y20084   5.379   2.518   6.274
  177SLPC   C2320085   4.808   2.223   5.966
  177SLPC   H3R20086   4.804   2.317   5.908
  177SLPC   H3S20087   4.703   2.210   6.000
  177SLPC   C2420088   4.868   2.114   5.872
  177SLPC   H4R20089   4.829   2.022   5.920
  177SLPC   H4S20090   4.977   2.123   5.853
  177SLPC   C2520091   4.806   2.121   5.732
  177SLPC   H5R20092   4.863   2.194   5.672
  177SLPC   H5S20093   4.699   2.149   5.725
  177SLPC   C2620094   4.827   1.993   5.647
  177SLPC   H6R20095   4.795   1.904   5.705
  177SLPC   H6S20096   4.935   1.978   5.627
  177SLPC   C2720097   4.748   1.999   5.507
  177SLPC   H7R20098   4.790   2.088   5.455
  177SLPC   H7S20099   4.640   2.012   5.531
  177SLPC   C2820100   4.768   1.872   5.420
  177SLPC   H8R20101   4.681   1.871   5.351
  177SLPC   H8S20102   4.752   1.780   5.482
  177SLPC   C2920103   4.901   1.874   5.355
  177SLPC   H9R20104   4.981   1.890   5.429
  177SLPC  C21020105   4.936   1.848   5.231
  177SLPC  H10R20106   5.044   1.853   5.206
  177SLPC  C21120107   4.834   1.820   5.126
  177SLPC  H11R20108   4.760   1.749   5.168
  177SLPC  H11S20109   4.880   1.775   5.036
  177SLPC  C21220110   4.777   1.964   5.092
  177SLPC  H12R20111   4.809   2.050   5.152
  177SLPC  C21320112   4.691   1.980   4.983
  177SLPC  H13R20113   4.649   2.080   4.962
  177SLPC  C21420114   4.642   1.872   4.890
  177SLPC  H14R20115   4.554   1.818   4.930
  177SLPC  H14S20116   4.725   1.798   4.894
  177SLPC  C21520117   4.627   1.915   4.740
  177SLPC  H15R20118   4.621   1.815   4.690
  177SLPC  H15S20119   4.716   1.974   4.712
  177SLPC  C21620120   4.504   1.996   4.709
  177SLPC  H16R20121   4.512   2.098   4.752
  177SLPC  H16S20122   4.412   1.943   4.740
  177SLPC  C21720123   4.497   2.011   4.560
  177SLPC  H17R20124   4.502   1.912   4.510
  177SLPC  H17S20125   4.588   2.062   4.521
  177SLPC  C21820126   4.369   2.080   4.513
  177SLPC  H18R20127   4.286   2.034   4.572
  177SLPC  H18S20128   4.339   2.051   4.410
  177SLPC  H18T20129   4.376   2.189   4.527
  177SLPC   C3320130   5.373   2.493   6.049
  177SLPC   H3X20131   5.312   2.439   5.973
  177SLPC   H3Y20132   5.474   2.448   6.040
  177SLPC   C3420133   5.381   2.639   5.997
  177SLPC   H4X20134   5.435   2.703   6.070
  177SLPC   H4Y20135   5.277   2.677   5.995
  177SLPC   C3520136   5.445   2.658   5.862
  177SLPC   H5X20137   5.411   2.751   5.811
  177SLPC   H5Y20138   5.422   2.583   5.783
  177SLPC   C3620139   5.598   2.672   5.869
  177SLPC   H6X20140   5.648   2.587   5.919
  177SLPC   H6Y20141   5.616   2.757   5.938
  177SLPC   C3720142   5.665   2.702   5.732
  177SLPC   H7X20143   5.619   2.785   5.674
  177SLPC   H7Y20144   5.656   2.622   5.655
  177SLPC   C3820145   5.814   2.740   5.732
  177SLPC   H8X20146   5.874   2.672   5.795
  177SLPC   H8Y20147   5.806   2.841   5.778
  177SLPC   C3920148   5.866   2.730   5.591
  177SLPC   H9X20149   5.800   2.788   5.523
  177SLPC   H9Y20150   5.856   2.627   5.550
  177SLPC  C31020151   6.012   2.780   5.573
  177SLPC  H10X20152   6.085   2.723   5.634
  177SLPC  H10Y20153   6.012   2.880   5.621
  177SLPC  C31120154   6.066   2.794   5.429
  177SLPC  H11X20155   6.159   2.855   5.426
  177SLPC  H11Y20156   5.994   2.848   5.363
  177SLPC  C31220157   6.091   2.655   5.366
  177SLPC  H12X20158   6.019   2.574   5.391
  177SLPC  H12Y20159   6.182   2.613   5.413
  177SLPC  C31320160   6.117   2.643   5.214
  177SLPC  H13X20161   6.186   2.728   5.196
  177SLPC  H13Y20162   6.018   2.663   5.169
  177SLPC  C31420163   6.191   2.512   5.185
  177SLPC  H14X20164   6.120   2.427   5.186
  177SLPC  H14Y20165   6.272   2.497   5.259
  177SLPC  C31520166   6.252   2.525   5.044
  177SLPC  H15X20167   6.312   2.434   5.022
  177SLPC  H15Y20168   6.321   2.612   5.033
  177SLPC  C31620169   6.133   2.524   4.944
  177SLPC  H16X20170   6.077   2.616   4.969
  177SLPC  H16Y20171   6.075   2.431   4.962
  177SLPC  C31720172   6.180   2.524   4.797
  177SLPC  H17X20173   6.239   2.429   4.794
  177SLPC  H17Y20174   6.242   2.614   4.778
  177SLPC  C31820175   6.067   2.514   4.697
  177SLPC  H18X20176   5.999   2.428   4.714
  177SLPC  H18Y20177   6.113   2.485   4.600
  177SLPC  H18Z20178   6.005   2.606   4.689
  178SLPC     N20179   2.030   6.699   6.647
  178SLPC   C1320180   2.097   6.728   6.772
  178SLPC  H13A20181   2.142   6.638   6.808
  178SLPC  H13B20182   2.179   6.797   6.759
  178SLPC  H13C20183   2.030   6.762   6.850
  178SLPC   C1420184   1.900   6.631   6.680
  178SLPC  H14A20185   1.913   6.540   6.736
  178SLPC  H14B20186   1.840   6.696   6.742
  178SLPC  H14C20187   1.844   6.605   6.591
  178SLPC   C1520188   2.110   6.600   6.565
  178SLPC  H15A20189   2.188   6.644   6.506
  178SLPC  H15B20190   2.155   6.529   6.632
  178SLPC  H15C20191   2.042   6.556   6.493
  178SLPC   C1220192   2.010   6.824   6.563
  178SLPC  H12A20193   2.107   0.013   6.551
  178SLPC  H12B20194   1.967   0.045   6.624
  178SLPC   C1120195   1.961   6.820   6.419
  178SLPC  H11A20196   1.948   0.069   6.387
  178SLPC  H11B20197   1.861   6.772   6.414
  178SLPC     P20198   2.015   6.679   6.211
  178SLPC   O1320199   2.020   6.531   6.229
  178SLPC   O1420200   1.880   6.725   6.174
  178SLPC   O1220201   2.059   6.746   6.346
  178SLPC   O1120202   2.124   6.730   6.109
  178SLPC    C120203   2.225   6.829   6.117
  178SLPC    HA20204   2.195   0.052   6.189
  178SLPC    HB20205   2.312   6.781   6.167
  178SLPC    C220206   2.270   0.026   5.972
  178SLPC    HS20207   2.364   0.086   5.977
  178SLPC   O2120208   2.181   0.108   5.906
  178SLPC   C2120209   2.166   0.229   5.966
  178SLPC   O2220210   2.240   0.272   6.051
  178SLPC   C2220211   2.040   0.305   5.922
  178SLPC   H2R20212   1.972   0.236   5.867
  178SLPC   H2S20213   1.977   0.319   6.012
  178SLPC    C320214   2.292   6.760   5.882
  178SLPC    HX20215   2.194   6.709   5.872
  178SLPC    HY20216   2.351   6.697   5.951
  178SLPC   O3120217   2.357   6.784   5.757
  178SLPC   C3120218   2.492   6.806   5.761
  178SLPC   O3220219   2.557   6.794   5.865
  178SLPC   C3220220   2.551   0.004   5.634
  178SLPC   H2X20221   2.636   6.796   5.602
  178SLPC   H2Y20222   2.594   0.105   5.649
  178SLPC   C2320223   2.075   0.431   5.841
  178SLPC   H3R20224   2.149   0.499   5.888
  178SLPC   H3S20225   1.979   0.485   5.828
  178SLPC   C2420226   2.123   0.404   5.694
  178SLPC   H4R20227   2.050   0.338   5.643
  178SLPC   H4S20228   2.222   0.354   5.700
  178SLPC   C2520229   2.119   0.531   5.613
  178SLPC   H5R20230   2.124   0.612   5.689
  178SLPC   H5S20231   2.024   0.539   5.555
  178SLPC   C2620232   2.238   0.546   5.514
  178SLPC   H6R20233   2.259   0.460   5.447
  178SLPC   H6S20234   2.330   0.554   5.577
  178SLPC   C2720235   2.222   0.680   5.438
  178SLPC   H7R20236   2.208   0.765   5.509
  178SLPC   H7S20237   2.132   0.683   5.374
  178SLPC   C2820238   2.344   0.700   5.350
  178SLPC   H8R20239   2.333   0.611   5.284
  178SLPC   H8S20240   2.436   0.680   5.408
  178SLPC   C2920241   2.342   0.838   5.287
  178SLPC   H9R20242   2.295   0.916   5.349
  178SLPC  C21020243   2.394   0.864   5.169
  178SLPC  H10R20244   2.389   0.967   5.130
  178SLPC  C21120245   2.458   0.760   5.088
  178SLPC  H11R20246   2.387   0.692   5.035
  178SLPC  H11S20247   2.523   0.695   5.150
  178SLPC  C21220248   2.534   0.824   4.976
  178SLPC  H12R20249   2.638   0.857   4.993
  178SLPC  C21320250   2.499   0.810   4.844
  178SLPC  H13R20251   2.563   0.857   4.768
  178SLPC  C21420252   2.375   0.759   4.782
  178SLPC  H14R20253   2.297   0.773   4.860
  178SLPC  H14S20254   2.382   0.649   4.769
  178SLPC  C21520255   2.346   0.821   4.644
  178SLPC  H15R20256   2.276   0.761   4.582
  178SLPC  H15S20257   2.443   0.823   4.591
  178SLPC  C21620258   2.292   0.966   4.659
  178SLPC  H16R20259   2.350   1.029   4.730
  178SLPC  H16S20260   2.193   0.954   4.707
  178SLPC  C21720261   2.267   1.036   4.528
  178SLPC  H17R20262   2.244   1.142   4.552
  178SLPC  H17S20263   2.183   0.998   4.466
  178SLPC  C21820264   2.385   1.038   4.431
  178SLPC  H18R20265   2.482   1.056   4.482
  178SLPC  H18S20266   2.363   1.099   4.341
  178SLPC  H18T20267   2.397   0.931   4.404
  178SLPC   C3320268   2.446   0.007   5.521
  178SLPC   H3X20269   2.353   0.060   5.550
  178SLPC   H3Y20270   2.407   6.762   5.499
  178SLPC   C3420271   2.503   0.063   5.387
  178SLPC   H4X20272   2.597   0.008   5.364
  178SLPC   H4Y20273   2.531   0.170   5.402
  178SLPC   C3520274   2.410   0.056   5.265
  178SLPC   H5X20275   2.375   6.807   5.265
  178SLPC   H5Y20276   2.465   0.085   5.174
  178SLPC   C3620277   2.284   0.148   5.296
  178SLPC   H6X20278   2.309   0.237   5.358
  178SLPC   H6Y20279   2.222   0.089   5.367
  178SLPC   C3720280   2.201   0.204   5.187
  178SLPC   H7X20281   2.105   0.245   5.225
  178SLPC   H7Y20282   2.188   0.128   5.108
  178SLPC   C3820283   2.274   0.311   5.103
  178SLPC   H8X20284   2.376   0.274   5.080
  178SLPC   H8Y20285   2.287   0.408   5.155
  178SLPC   C3920286   2.182   0.348   4.984
  178SLPC   H9X20287   2.079   0.369   5.020
  178SLPC   H9Y20288   2.188   0.268   4.907
  178SLPC  C31020289   2.220   0.481   4.918
  178SLPC  H10X20290   2.329   0.481   4.894
  178SLPC  H10Y20291   2.191   0.575   4.970
  178SLPC  C31120292   2.136   0.475   4.783
  178SLPC  H11X20293   2.131   0.582   4.753
  178SLPC  H11Y20294   2.030   0.451   4.802
  178SLPC  C31220295   2.189   0.382   4.669
  178SLPC  H12X20296   2.154   0.278   4.689
  178SLPC  H12Y20297   2.299   0.391   4.659
  178SLPC  C31320298   2.129   0.441   4.548
  178SLPC  H13X20299   2.158   0.549   4.545
  178SLPC  H13Y20300   2.019   0.432   4.546
  178SLPC  C31420301   2.207   0.388   4.428
  178SLPC  H14X20302   2.314   0.418   4.431
  178SLPC  H14Y20303   2.161   0.443   4.342
  178SLPC  C31520304   2.206   0.238   4.400
  178SLPC  H15X20305   2.102   0.215   4.371
  178SLPC  H15Y20306   2.232   0.170   4.483
  178SLPC  C31620307   2.303   0.200   4.280
  178SLPC  H16X20308   2.405   0.209   4.321
  178SLPC  H16Y20309   2.295   0.271   4.194
  178SLPC  C31720310   2.284   0.059   4.242
  178SLPC  H17X20311   2.339   0.002   4.320
  178SLPC  H17Y20312   2.337   0.039   4.146
  178SLPC  C31820313   2.142   6.855   4.232
  178SLPC  H18X20314   2.081   0.070   4.172
  178SLPC  H18Y20315   2.102   6.838   4.334
  178SLPC  H18Z20316   2.156   6.758   4.181
  179SLPC     N20317   4.174   1.797   2.290
  179SLPC   C1320318   4.165   1.763   2.147
  179SLPC  H13A20319   4.249   1.810   2.097
  179SLPC  H13B20320   4.164   1.659   2.118
  179SLPC  H13C20321   4.089   1.816   2.091
  179SLPC   C1420322   4.129   1.940   2.313
  179SLPC  H14A20323   4.039   1.965   2.259
  179SLPC  H14B20324   4.112   1.949   2.419
  179SLPC  H14C20325   4.215   1.999   2.283
  179SLPC   C1520326   4.313   1.777   2.340
  179SLPC  H15A20327   4.349   1.679   2.312
  179SLPC  H15B20328   4.379   1.849   2.294
  179SLPC  H15C20329   4.323   1.797   2.445
  179SLPC   C1220330   4.070   1.700   2.364
  179SLPC  H12A20331   4.099   1.600   2.336
  179SLPC  H12B20332   3.977   1.718   2.312
  179SLPC   C1120333   4.037   1.716   2.517
  179SLPC  H11A20334   4.125   1.694   2.582
  179SLPC  H11B20335   3.955   1.645   2.539
  179SLPC     P20336   3.852   1.900   2.517
  179SLPC   O1320337   3.835   2.049   2.555
  179SLPC   O1420338   3.806   1.857   2.383
  179SLPC   O1220339   4.004   1.855   2.552
  179SLPC   O1120340   3.767   1.825   2.623
  179SLPC    C120341   3.807   1.767   2.741
  179SLPC    HA20342   3.916   1.764   2.758
  179SLPC    HB20343   3.767   1.826   2.826
  179SLPC    C220344   3.756   1.621   2.748
  179SLPC    HS20345   3.786   1.581   2.648
  179SLPC   O2120346   3.613   1.613   2.759
  179SLPC   C2120347   3.575   1.487   2.731
  179SLPC   O2220348   3.643   1.401   2.673
  179SLPC   C2220349   3.425   1.471   2.766
  179SLPC   H2R20350   3.371   1.556   2.719
  179SLPC   H2S20351   3.397   1.375   2.716
  179SLPC    C320352   3.838   1.540   2.855
  179SLPC    HX20353   3.947   1.561   2.843
  179SLPC    HY20354   3.826   1.431   2.837
  179SLPC   O3120355   3.806   1.578   2.992
  179SLPC   C3120356   3.724   1.497   3.064
  179SLPC   O3220357   3.676   1.391   3.026
  179SLPC   C3220358   3.683   1.575   3.200
  179SLPC   H2X20359   3.597   1.634   3.162
  179SLPC   H2Y20360   3.771   1.637   3.227
  179SLPC   C2320361   3.408   1.457   2.919
  179SLPC   H3R20362   3.460   1.532   2.983
  179SLPC   H3S20363   3.457   1.364   2.952
  179SLPC   C2420364   3.257   1.439   2.943
  179SLPC   H4R20365   3.224   1.390   2.849
  179SLPC   H4S20366   3.205   1.537   2.946
  179SLPC   C2520367   3.203   1.361   3.061
  179SLPC   H5R20368   3.265   1.272   3.085
  179SLPC   H5S20369   3.099   1.331   3.039
  179SLPC   C2620370   3.210   1.431   3.198
  179SLPC   H6R20371   3.185   1.538   3.182
  179SLPC   H6S20372   3.318   1.435   3.225
  179SLPC   C2720373   3.129   1.380   3.320
  179SLPC   H7R20374   3.030   1.350   3.279
  179SLPC   H7S20375   3.124   1.454   3.403
  179SLPC   C2820376   3.183   1.249   3.385
  179SLPC   H8R20377   3.272   1.271   3.449
  179SLPC   H8S20378   3.212   1.189   3.297
  179SLPC   C2920379   3.075   1.172   3.453
  179SLPC   H9R20380   3.022   1.105   3.384
  179SLPC  C21020381   3.040   1.175   3.580
  179SLPC  H10R20382   2.964   1.101   3.607
  179SLPC  C21120383   3.091   1.276   3.688
  179SLPC  H11R20384   3.137   1.362   3.633
  179SLPC  H11S20385   3.159   1.223   3.758
  179SLPC  C21220386   2.966   1.329   3.763
  179SLPC  H12R20387   2.886   1.355   3.692
  179SLPC  C21320388   2.938   1.334   3.891
  179SLPC  H13R20389   2.842   1.371   3.926
  179SLPC  C21420390   3.036   1.289   3.997
  179SLPC  H14R20391   3.027   1.359   4.083
  179SLPC  H14S20392   3.144   1.300   3.972
  179SLPC  C21520393   3.018   1.145   4.050
  179SLPC  H15R20394   3.072   1.131   4.146
  179SLPC  H15S20395   3.066   1.071   3.981
  179SLPC  C21620396   2.873   1.106   4.081
  179SLPC  H16R20397   2.821   1.093   3.983
  179SLPC  H16S20398   2.816   1.182   4.138
  179SLPC  C21720399   2.871   0.981   4.162
  179SLPC  H17R20400   2.925   0.999   4.258
  179SLPC  H17S20401   2.921   0.896   4.111
  179SLPC  C21820402   2.731   0.921   4.193
  179SLPC  H18R20403   2.672   0.897   4.102
  179SLPC  H18S20404   2.662   0.986   4.251
  179SLPC  H18T20405   2.733   0.816   4.229
  179SLPC   C3320406   3.632   1.492   3.317
  179SLPC   H3X20407   3.706   1.423   3.362
  179SLPC   H3Y20408   3.547   1.428   3.284
  179SLPC   C3420409   3.573   1.585   3.423
  179SLPC   H4X20410   3.503   1.657   3.376
  179SLPC   H4Y20411   3.653   1.647   3.468
  179SLPC   C3520412   3.508   1.489   3.528
  179SLPC   H5X20413   3.449   1.410   3.479
  179SLPC   H5Y20414   3.588   1.438   3.587
  179SLPC   C3620415   3.417   1.568   3.629
  179SLPC   H6X20416   3.329   1.507   3.659
  179SLPC   H6Y20417   3.371   1.650   3.569
  179SLPC   C3720418   3.493   1.611   3.751
  179SLPC   H7X20419   3.579   1.678   3.733
  179SLPC   H7Y20420   3.538   1.518   3.792
  179SLPC   C3820421   3.403   1.684   3.855
  179SLPC   H8X20422   3.310   1.628   3.879
  179SLPC   H8Y20423   3.371   1.780   3.809
  179SLPC   C3920424   3.482   1.698   3.981
  179SLPC   H9X20425   3.460   1.800   4.020
  179SLPC   H9Y20426   3.592   1.703   3.967
  179SLPC  C31020427   3.471   1.586   4.084
  179SLPC  H10X20428   3.557   1.594   4.153
  179SLPC  H10Y20429   3.483   1.484   4.041
  179SLPC  C31120430   3.330   1.580   4.156
  179SLPC  H11X20431   3.258   1.532   4.086
  179SLPC  H11Y20432   3.294   1.684   4.173
  179SLPC  C31220433   3.327   1.492   4.285
  179SLPC  H12X20434   3.244   1.513   4.356
  179SLPC  H12Y20435   3.415   1.511   4.350
  179SLPC  C31320436   3.316   1.335   4.253
  179SLPC  H13X20437   3.398   1.302   4.187
  179SLPC  H13Y20438   3.220   1.320   4.199
  179SLPC  C31420439   3.311   1.261   4.389
  179SLPC  H14X20440   3.224   1.285   4.453
  179SLPC  H14Y20441   3.400   1.295   4.446
  179SLPC  C31520442   3.323   1.103   4.362
  179SLPC  H15X20443   3.392   1.070   4.280
  179SLPC  H15Y20444   3.222   1.076   4.325
  179SLPC  C31620445   3.365   1.024   4.487
  179SLPC  H16X20446   3.454   1.077   4.527
  179SLPC  H16Y20447   3.380   0.920   4.452
  179SLPC  C31720448   3.257   1.026   4.600
  179SLPC  H17X20449   3.161   0.989   4.559
  179SLPC  H17Y20450   3.237   1.133   4.618
  179SLPC  C31820451   3.295   0.957   4.728
  179SLPC  H18X20452   3.214   0.973   4.803
  179SLPC  H18Y20453   3.389   0.999   4.771
  179SLPC  H18Z20454   3.310   0.850   4.705
  180SLPC     N20455   1.790   1.641   1.985
  180SLPC   C1320456   1.871   1.526   2.019
  180SLPC  H13A20457   1.900   1.471   1.931
  180SLPC  H13B20458   1.954   1.549   2.085
  180SLPC  H13C20459   1.815   1.446   2.066
  180SLPC   C1420460   1.685   1.589   1.891
  180SLPC  H14A20461   1.728   1.568   1.795
  180SLPC  H14B20462   1.634   1.503   1.930
  180SLPC  H14C20463   1.609   1.663   1.871
  180SLPC   C1520464   1.859   1.750   1.906
  180SLPC  H15A20465   1.936   1.799   1.964
  180SLPC  H15B20466   1.928   1.695   1.843
  180SLPC  H15C20467   1.791   1.811   1.849
  180SLPC   C1220468   1.726   1.700   2.112
  180SLPC  H12A20469   1.687   1.611   2.159
  180SLPC  H12B20470   1.651   1.774   2.087
  180SLPC   C1120471   1.821   1.762   2.215
  180SLPC  H11A20472   1.900   1.688   2.240
  180SLPC  H11B20473   1.755   1.776   2.303
  180SLPC     P20474   2.008   1.939   2.239
  180SLPC   O1320475   2.127   1.886   2.168
  180SLPC   O1420476   2.007   2.080   2.258
  180SLPC   O1220477   1.872   1.888   2.177
  180SLPC   O1120478   2.020   1.880   2.376
  180SLPC    C120479   1.959   1.926   2.495
  180SLPC    HA20480   1.862   1.979   2.484
  180SLPC    HB20481   1.928   1.839   2.557
  180SLPC    C220482   2.056   2.012   2.583
  180SLPC    HS20483   2.099   2.097   2.527
  180SLPC   O2120484   2.164   1.934   2.630
  180SLPC   C2120485   2.284   1.986   2.636
  180SLPC   O2220486   2.313   2.103   2.623
  180SLPC   C2220487   2.386   1.867   2.663
  180SLPC   H2R20488   2.361   1.793   2.585
  180SLPC   H2S20489   2.487   1.909   2.642
  180SLPC    C320490   1.969   2.057   2.704
  180SLPC    HX20491   1.874   2.104   2.670
  180SLPC    HY20492   2.025   2.137   2.757
  180SLPC   O3120493   1.928   1.941   2.785
  180SLPC   C3120494   2.008   1.912   2.887
  180SLPC   O3220495   2.110   1.966   2.919
  180SLPC   C3220496   1.952   1.787   2.956
  180SLPC   H2X20497   2.030   1.709   2.944
  180SLPC   H2Y20498   1.858   1.758   2.904
  180SLPC   C2320499   2.362   1.809   2.805
  180SLPC   H3R20500   2.261   1.765   2.807
  180SLPC   H3S20501   2.363   1.900   2.869
  180SLPC   C2420502   2.471   1.716   2.841
  180SLPC   H4R20503   2.567   1.770   2.857
  180SLPC   H4S20504   2.487   1.638   2.763
  180SLPC   C2520505   2.443   1.642   2.972
  180SLPC   H5R20506   2.535   1.588   3.002
  180SLPC   H5S20507   2.363   1.570   2.947
  180SLPC   C2620508   2.402   1.721   3.097
  180SLPC   H6R20509   2.348   1.811   3.060
  180SLPC   H6S20510   2.491   1.755   3.152
  180SLPC   C2720511   2.309   1.651   3.187
  180SLPC   H7R20512   2.355   1.561   3.234
  180SLPC   H7S20513   2.228   1.598   3.132
  180SLPC   C2820514   2.261   1.746   3.298
  180SLPC   H8R20515   2.207   1.831   3.249
  180SLPC   H8S20516   2.355   1.777   3.347
  180SLPC   C2920517   2.187   1.672   3.405
  180SLPC   H9R20518   2.177   1.564   3.388
  180SLPC  C21020519   2.158   1.723   3.524
  180SLPC  H10R20520   2.113   1.657   3.600
  180SLPC  C21120521   2.169   1.866   3.576
  180SLPC  H11R20522   2.087   1.884   3.649
  180SLPC  H11S20523   2.156   1.935   3.490
  180SLPC  C21220524   2.303   1.898   3.634
  180SLPC  H12R20525   2.394   1.856   3.589
  180SLPC  C21320526   2.317   1.985   3.734
  180SLPC  H13R20527   2.410   2.012   3.785
  180SLPC  C21420528   2.206   2.042   3.808
  180SLPC  H14R20529   2.119   2.065   3.743
  180SLPC  H14S20530   2.239   2.139   3.851
  180SLPC  C21520531   2.162   1.945   3.915
  180SLPC  H15R20532   2.249   1.937   3.985
  180SLPC  H15S20533   2.150   1.844   3.870
  180SLPC  C21620534   2.034   1.986   3.998
  180SLPC  H16R20535   1.950   2.019   3.932
  180SLPC  H16S20536   2.068   2.066   4.067
  180SLPC  C21720537   1.977   1.868   4.070
  180SLPC  H17R20538   2.050   1.827   4.143
  180SLPC  H17S20539   1.958   1.784   4.000
  180SLPC  C21820540   1.848   1.899   4.150
  180SLPC  H18R20541   1.812   1.816   4.213
  180SLPC  H18S20542   1.769   1.919   4.075
  180SLPC  H18T20543   1.873   1.982   4.219
  180SLPC   C3320544   1.918   1.820   3.103
  180SLPC   H3X20545   1.865   1.918   3.101
  180SLPC   H3Y20546   2.010   1.833   3.163
  180SLPC   C3420547   1.832   1.712   3.172
  180SLPC   H4X20548   1.887   1.617   3.186
  180SLPC   H4Y20549   1.740   1.703   3.110
  180SLPC   C3520550   1.797   1.740   3.317
  180SLPC   H5X20551   1.766   1.845   3.331
  180SLPC   H5Y20552   1.893   1.742   3.372
  180SLPC   C3620553   1.693   1.639   3.368
  180SLPC   H6X20554   1.722   1.541   3.324
  180SLPC   H6Y20555   1.597   1.658   3.315
  180SLPC   C3720556   1.682   1.643   3.519
  180SLPC   H7X20557   1.598   1.574   3.542
  180SLPC   H7Y20558   1.655   1.741   3.563
  180SLPC   C3820559   1.815   1.601   3.581
  180SLPC   H8X20560   1.889   1.684   3.584
  180SLPC   H8Y20561   1.844   1.515   3.518
  180SLPC   C3920562   1.812   1.537   3.722
  180SLPC   H9X20563   1.752   1.446   3.701
  180SLPC   H9Y20564   1.759   1.600   3.797
  180SLPC  C31020565   1.951   1.521   3.776
  180SLPC  H10X20566   1.991   1.625   3.777
  180SLPC  H10Y20567   2.018   1.467   3.705
  180SLPC  C31120568   1.964   1.458   3.913
  180SLPC  H11X20569   1.890   1.505   3.982
  180SLPC  H11Y20570   2.059   1.484   3.965
  180SLPC  C31220571   1.957   1.306   3.923
  180SLPC  H12X20572   1.998   1.252   3.834
  180SLPC  H12Y20573   1.854   1.266   3.928
  180SLPC  C31320574   2.041   1.251   4.043
  180SLPC  H13X20575   2.010   1.307   4.134
  180SLPC  H13Y20576   2.148   1.277   4.031
  180SLPC  C31420577   2.027   1.100   4.064
  180SLPC  H14X20578   2.036   1.051   3.965
  180SLPC  H14Y20579   1.935   1.061   4.113
  180SLPC  C31520580   2.144   1.050   4.138
  180SLPC  H15X20581   2.133   1.085   4.243
  180SLPC  H15Y20582   2.232   1.097   4.090
  180SLPC  C31620583   2.164   0.897   4.148
  180SLPC  H16X20584   2.079   0.853   4.205
  180SLPC  H16Y20585   2.263   0.889   4.197
  180SLPC  C31720586   2.183   0.829   4.011
  180SLPC  H17X20587   2.281   0.856   3.967
  180SLPC  H17Y20588   2.107   0.863   3.937
  180SLPC  C31820589   2.173   0.668   4.020
  180SLPC  H18X20590   2.067   0.650   4.048
  180SLPC  H18Y20591   2.246   0.630   4.094
  180SLPC  H18Z20592   2.181   0.620   3.920
  181SLPC     N20593   1.240   0.269   2.405
  181SLPC   C1320594   1.273   0.419   2.398
  181SLPC  H13A20595   1.324   0.446   2.308
  181SLPC  H13B20596   1.186   0.484   2.399
  181SLPC  H13C20597   1.339   0.443   2.480
  181SLPC   C1420598   1.148   0.244   2.291
  181SLPC  H14A20599   1.085   0.328   2.265
  181SLPC  H14B20600   1.208   0.210   2.208
  181SLPC  H14C20601   1.082   0.165   2.325
  181SLPC   C1520602   1.171   0.237   2.532
  181SLPC  H15A20603   1.147   0.132   2.532
  181SLPC  H15B20604   1.226   0.267   2.620
  181SLPC  H15C20605   1.090   0.307   2.550
  181SLPC   C1220606   1.367   0.184   2.384
  181SLPC  H12A20607   1.356   0.078   2.405
  181SLPC  H12B20608   1.437   0.213   2.461
  181SLPC   C1120609   1.443   0.202   2.256
  181SLPC  H11A20610   1.376   0.179   2.171
  181SLPC  H11B20611   1.523   0.124   2.259
  181SLPC     P20612   1.647   0.353   2.325
  181SLPC   O1320613   1.753   0.282   2.244
  181SLPC   O1420614   1.670   0.501   2.338
  181SLPC   O1220615   1.508   0.334   2.252
  181SLPC   O1120616   1.625   0.289   2.468
  181SLPC    C120617   1.713   0.184   2.505
  181SLPC    HA20618   1.683   0.086   2.461
  181SLPC    HB20619   1.817   0.214   2.479
  181SLPC    C220620   1.721   0.156   2.657
  181SLPC    HS20621   1.777   0.060   2.666
  181SLPC   O2120622   1.584   0.148   2.711
  181SLPC   C2120623   1.543   0.031   2.756
  181SLPC   O2220624   1.612   6.800   2.793
  181SLPC   C2220625   1.386   0.016   2.734
  181SLPC   H2R20626   1.379   0.034   2.624
  181SLPC   H2S20627   1.354   6.769   2.758
  181SLPC    C320628   1.804   0.264   2.739
  181SLPC    HX20629   1.791   0.362   2.688
  181SLPC    HY20630   1.910   0.234   2.741
  181SLPC   O3120631   1.762   0.273   2.874
  181SLPC   C3120632   1.714   0.391   2.920
  181SLPC   O3220633   1.697   0.493   2.855
  181SLPC   C3220634   1.675   0.379   3.064
  181SLPC   H2X20635   1.768   0.407   3.118
  181SLPC   H2Y20636   1.646   0.277   3.099
  181SLPC   C2320637   1.293   0.086   2.830
  181SLPC   H3R20638   1.191   0.079   2.788
  181SLPC   H3S20639   1.316   0.195   2.837
  181SLPC   C2420640   1.296   0.009   2.964
  181SLPC   H4R20641   1.403   6.847   2.989
  181SLPC   H4S20642   1.255   6.763   2.959
  181SLPC   C2520643   1.235   0.088   3.078
  181SLPC   H5R20644   1.130   0.119   3.057
  181SLPC   H5S20645   1.288   0.185   3.088
  181SLPC   C2620646   1.241   0.005   3.215
  181SLPC   H6R20647   1.349   6.840   3.227
  181SLPC   H6S20648   1.182   6.769   3.201
  181SLPC   C2720649   1.189   0.102   3.319
  181SLPC   H7R20650   1.080   0.117   3.302
  181SLPC   H7S20651   1.233   0.203   3.309
  181SLPC   C2820652   1.204   0.059   3.463
  181SLPC   H8R20653   1.154   6.818   3.483
  181SLPC   H8S20654   1.155   0.134   3.528
  181SLPC   C2920655   1.345   0.044   3.498
  181SLPC   H9R20656   1.407   0.004   3.416
  181SLPC  C21020657   1.400   0.070   3.618
  181SLPC  H10R20658   1.507   0.055   3.640
  181SLPC  C21120659   1.318   0.120   3.733
  181SLPC  H11R20660   1.244   0.196   3.700
  181SLPC  H11S20661   1.382   0.193   3.787
  181SLPC  C21220662   1.272   0.002   3.816
  181SLPC  H12R20663   1.296   6.760   3.773
  181SLPC  C21320664   1.190   0.016   3.927
  181SLPC  H13R20665   1.164   6.779   3.979
  181SLPC  C21420666   1.152   0.153   3.992
  181SLPC  H14R20667   1.047   0.175   3.962
  181SLPC  H14S20668   1.204   0.238   3.942
  181SLPC  C21520669   1.154   0.150   4.138
  181SLPC  H15R20670   1.142   0.251   4.185
  181SLPC  H15S20671   1.250   0.113   4.180
  181SLPC  C21620672   1.044   0.072   4.208
  181SLPC  H16R20673   1.031   6.830   4.158
  181SLPC  H16S20674   0.945   0.118   4.187
  181SLPC  C21720675   1.070   0.054   4.362
  181SLPC  H17R20676   1.110   0.155   4.386
  181SLPC  H17S20677   1.151   6.842   4.395
  181SLPC  C21820678   0.942   0.041   4.449
  181SLPC  H18R20679   0.965   0.045   4.558
  181SLPC  H18S20680   0.902   6.796   4.426
  181SLPC  H18T20681   0.875   0.127   4.431
  181SLPC   C3320682   1.559   0.475   3.104
  181SLPC   H3X20683   1.462   0.435   3.068
  181SLPC   H3Y20684   1.572   0.569   3.047
  181SLPC   C3420685   1.552   0.509   3.255
  181SLPC   H4X20686   1.468   0.582   3.255
  181SLPC   H4Y20687   1.645   0.553   3.297
  181SLPC   C3520688   1.525   0.386   3.342
  181SLPC   H5X20689   1.625   0.343   3.367
  181SLPC   H5Y20690   1.479   0.315   3.271
  181SLPC   C3620691   1.455   0.420   3.470
  181SLPC   H6X20692   1.414   0.327   3.516
  181SLPC   H6Y20693   1.367   0.475   3.430
  181SLPC   C3720694   1.537   0.493   3.571
  181SLPC   H7X20695   1.600   0.560   3.508
  181SLPC   H7Y20696   1.598   0.416   3.622
  181SLPC   C3820697   1.465   0.587   3.670
  181SLPC   H8X20698   1.377   0.634   3.622
  181SLPC   H8Y20699   1.539   0.667   3.694
  181SLPC   C3920700   1.434   0.524   3.807
  181SLPC   H9X20701   1.523   0.481   3.856
  181SLPC   H9Y20702   1.362   0.442   3.787
  181SLPC  C31020703   1.377   0.624   3.913
  181SLPC  H10X20704   1.317   0.705   3.866
  181SLPC  H10Y20705   1.460   0.686   3.954
  181SLPC  C31120706   1.300   0.562   4.030
  181SLPC  H11X20707   1.208   0.506   4.000
  181SLPC  H11Y20708   1.254   0.646   4.086
  181SLPC  C31220709   1.389   0.477   4.123
  181SLPC  H12X20710   1.488   0.524   4.143
  181SLPC  H12Y20711   1.404   0.374   4.084
  181SLPC  C31320712   1.317   0.480   4.262
  181SLPC  H13X20713   1.208   0.474   4.241
  181SLPC  H13Y20714   1.341   0.581   4.299
  181SLPC  C31420715   1.374   0.371   4.354
  181SLPC  H14X20716   1.483   0.391   4.351
  181SLPC  H14Y20717   1.358   0.267   4.319
  181SLPC  C31520718   1.330   0.385   4.502
  181SLPC  H15X20719   1.220   0.386   4.517
  181SLPC  H15Y20720   1.371   0.483   4.532
  181SLPC  C31620721   1.405   0.283   4.585
  181SLPC  H16X20722   1.512   0.280   4.553
  181SLPC  H16Y20723   1.352   0.185   4.576
  181SLPC  C31720724   1.403   0.308   4.737
  181SLPC  H17X20725   1.470   0.395   4.756
  181SLPC  H17Y20726   1.459   0.225   4.784
  181SLPC  C31820727   1.267   0.326   4.795
  181SLPC  H18X20728   1.201   0.248   4.750
  181SLPC  H18Y20729   1.222   0.421   4.760
  181SLPC  H18Z20730   1.263   0.309   4.905
  182SLPC     N20731   2.508   6.122   1.618
  182SLPC   C1320732   2.479   6.229   1.519
  182SLPC  H13A20733   2.530   6.213   1.425
  182SLPC  H13B20734   2.374   6.235   1.492
  182SLPC  H13C20735   2.501   6.326   1.562
  182SLPC   C1420736   2.467   5.988   1.577
  182SLPC  H14A20737   2.499   5.960   1.478
  182SLPC  H14B20738   2.510   5.922   1.651
  182SLPC  H14C20739   2.359   5.983   1.567
  182SLPC   C1520740   2.434   6.148   1.743
  182SLPC  H15A20741   2.461   6.073   1.816
  182SLPC  H15B20742   2.472   6.240   1.785
  182SLPC  H15C20743   2.329   6.156   1.723
  182SLPC   C1220744   2.667   6.135   1.636
  182SLPC  H12A20745   2.717   6.138   1.541
  182SLPC  H12B20746   2.702   6.049   1.693
  182SLPC   C1120747   2.722   6.258   1.707
  182SLPC  H11A20748   2.669   6.341   1.657
  182SLPC  H11B20749   2.832   6.267   1.690
  182SLPC     P20750   2.763   6.153   1.939
  182SLPC   O1320751   2.690   6.025   1.916
  182SLPC   O1420752   2.909   6.144   1.919
  182SLPC   O1220753   2.703   6.266   1.847
  182SLPC   O1120754   2.735   6.194   2.085
  182SLPC    C120755   2.612   6.242   2.138
  182SLPC    HA20756   2.568   6.318   2.070
  182SLPC    HB20757   2.538   6.161   2.152
  182SLPC    C220758   2.639   6.319   2.275
  182SLPC    HS20759   2.556   6.302   2.347
  182SLPC   O2120760   2.669   6.454   2.256
  182SLPC   C2120761   2.564   6.540   2.274
  182SLPC   O2220762   2.444   6.509   2.289
  182SLPC   C2220763   2.621   6.679   2.282
  182SLPC   H2R20764   2.670   6.711   2.187
  182SLPC   H2S20765   2.532   6.745   2.279
  182SLPC    C320766   2.759   6.257   2.346
  182SLPC    HX20767   2.842   6.273   2.274
  182SLPC    HY20768   2.736   6.151   2.368
  182SLPC   O3120769   2.773   6.330   2.467
  182SLPC   C3120770   2.870   6.274   2.544
  182SLPC   O3220771   2.933   6.169   2.516
  182SLPC   C3220772   2.894   6.347   2.669
  182SLPC   H2X20773   2.961   6.298   2.743
  182SLPC   H2Y20774   2.795   6.361   2.716
  182SLPC   C2320775   2.709   6.713   2.409
  182SLPC   H3R20776   2.746   6.818   2.401
  182SLPC   H3S20777   2.802   6.653   2.409
  182SLPC   C2420778   2.631   6.677   2.542
  182SLPC   H4R20779   2.691   6.698   2.634
  182SLPC   H4S20780   2.608   6.569   2.546
  182SLPC   C2520781   2.503   6.756   2.567
  182SLPC   H5R20782   2.437   6.747   2.478
  182SLPC   H5S20783   2.515   0.009   2.586
  182SLPC   C2620784   2.426   6.694   2.677
  182SLPC   H6R20785   2.479   6.703   2.774
  182SLPC   H6S20786   2.412   6.586   2.656
  182SLPC   C2720787   2.295   6.773   2.698
  182SLPC   H7R20788   2.239   6.784   2.603
  182SLPC   H7S20789   2.297   0.025   2.722
  182SLPC   C2820790   2.200   6.710   2.801
  182SLPC   H8R20791   2.254   6.693   2.896
  182SLPC   H8S20792   2.188   6.606   2.765
  182SLPC   C2920793   2.067   6.780   2.820
  182SLPC   H9R20794   2.000   6.792   2.734
  182SLPC  C21020795   2.012   6.821   2.932
  182SLPC  H10R20796   1.913   0.013   2.928
  182SLPC  C21120797   2.068   6.818   3.078
  182SLPC  H11R20798   2.025   0.039   3.144
  182SLPC  H11S20799   2.171   0.002   3.072
  182SLPC  C21220800   2.070   6.687   3.146
  182SLPC  H12R20801   2.031   6.607   3.081
  182SLPC  C21320802   2.094   6.660   3.279
  182SLPC  H13R20803   2.106   6.554   3.306
  182SLPC  C21420804   2.128   6.763   3.388
  182SLPC  H14R20805   2.105   0.013   3.366
  182SLPC  H14S20806   2.236   6.769   3.413
  182SLPC  C21520807   2.057   6.725   3.519
  182SLPC  H15R20808   2.077   6.621   3.551
  182SLPC  H15S20809   1.946   6.735   3.516
  182SLPC  C21620810   2.096   6.816   3.640
  182SLPC  H16R20811   2.059   0.064   3.629
  182SLPC  H16S20812   2.206   6.831   3.648
  182SLPC  C21720813   2.042   6.745   3.770
  182SLPC  H17R20814   2.069   6.638   3.757
  182SLPC  H17S20815   1.933   6.765   3.763
  182SLPC  C21820816   2.103   6.784   3.908
  182SLPC  H18R20817   2.045   6.739   3.991
  182SLPC  H18S20818   2.098   0.039   3.911
  182SLPC  H18T20819   2.207   6.748   3.897
  182SLPC   C3320820   2.947   6.488   2.643
  182SLPC   H3X20821   2.867   6.560   2.616
  182SLPC   H3Y20822   3.014   6.479   2.555
  182SLPC   C3420823   3.025   6.557   2.748
  182SLPC   H4X20824   3.049   6.655   2.701
  182SLPC   H4Y20825   3.117   6.505   2.782
  182SLPC   C3520826   2.947   6.590   2.876
  182SLPC   H5X20827   2.919   6.492   2.920
  182SLPC   H5Y20828   2.850   6.641   2.857
  182SLPC   C3620829   3.021   6.657   2.999
  182SLPC   H6X20830   3.022   6.767   2.984
  182SLPC   H6Y20831   3.129   6.633   3.001
  182SLPC   C3720832   2.950   6.621   3.128
  182SLPC   H7X20833   2.969   6.514   3.153
  182SLPC   H7Y20834   2.841   6.634   3.114
  182SLPC   C3820835   2.995   6.725   3.237
  182SLPC   H8X20836   2.948   6.818   3.197
  182SLPC   H8Y20837   3.105   6.737   3.232
  182SLPC   C3920838   2.961   6.668   3.371
  182SLPC   H9X20839   3.030   6.584   3.396
  182SLPC   H9Y20840   2.856   6.633   3.365
  182SLPC  C31020841   2.982   6.763   3.494
  182SLPC  H10X20842   2.929   0.002   3.478
  182SLPC  H10Y20843   3.088   6.795   3.494
  182SLPC  C31120844   2.946   6.696   3.629
  182SLPC  H11X20845   2.858   6.629   3.623
  182SLPC  H11Y20846   2.922   6.778   3.700
  182SLPC  C31220847   3.063   6.615   3.687
  182SLPC  H12X20848   3.111   6.564   3.600
  182SLPC  H12Y20849   3.041   6.543   3.769
  182SLPC  C31320850   3.160   6.702   3.775
  182SLPC  H13X20851   3.207   6.787   3.722
  182SLPC  H13Y20852   3.250   6.642   3.799
  182SLPC  C31420853   3.096   6.743   3.915
  182SLPC  H14X20854   3.053   6.651   3.960
  182SLPC  H14Y20855   3.024   6.827   3.918
  182SLPC  C31520856   3.209   6.771   4.012
  182SLPC  H15X20857   3.274   6.849   3.967
  182SLPC  H15Y20858   3.268   6.677   4.017
  182SLPC  C31620859   3.165   6.824   4.149
  182SLPC  H16X20860   3.257   6.851   4.204
  182SLPC  H16Y20861   3.115   6.737   4.197
  182SLPC  C31720862   3.058   0.079   4.158
  182SLPC  H17X20863   2.970   0.064   4.092
  182SLPC  H17Y20864   3.106   0.171   4.117
  182SLPC  C31820865   3.008   0.087   4.303
  182SLPC  H18X20866   2.932   0.168   4.311
  182SLPC  H18Y20867   3.092   0.113   4.372
  182SLPC  H18Z20868   2.968   6.846   4.336
  183SLPC     N20869   5.218   3.012   1.945
  183SLPC   C1320870   5.328   3.065   1.866
  183SLPC  H13A20871   5.397   2.982   1.860
  183SLPC  H13B20872   5.296   3.098   1.769
  183SLPC  H13C20873   5.371   3.151   1.915
  183SLPC   C1420874   5.168   2.885   1.877
  183SLPC  H14A20875   5.104   2.828   1.943
  183SLPC  H14B20876   5.107   2.906   1.790
  183SLPC  H14C20877   5.252   2.821   1.856
  183SLPC   C1520878   5.096   3.109   1.951
  183SLPC  H15A20879   5.109   3.192   2.019
  183SLPC  H15B20880   5.093   3.167   1.859
  183SLPC  H15C20881   5.006   3.053   1.966
  183SLPC   C1220882   5.268   2.984   2.087
  183SLPC  H12A20883   5.320   3.070   2.127
  183SLPC  H12B20884   5.330   2.895   2.085
  183SLPC   C1120885   5.157   2.950   2.189
  183SLPC  H11A20886   5.083   3.033   2.199
  183SLPC  H11B20887   5.185   2.942   2.296
  183SLPC     P20888   5.069   2.696   2.224
  183SLPC   O1320889   4.975   2.717   2.339
  183SLPC   O1420890   5.028   2.592   2.127
  183SLPC   O1220891   5.093   2.831   2.141
  183SLPC   O1120892   5.206   2.652   2.279
  183SLPC    C120893   5.232   2.571   2.397
  183SLPC    HA20894   5.171   2.596   2.486
  183SLPC    HB20895   5.229   2.463   2.370
  183SLPC    C220896   5.369   2.597   2.462
  183SLPC    HS20897   5.365   2.554   2.564
  183SLPC   O2120898   5.411   2.733   2.472
  183SLPC   C2120899   5.330   2.831   2.517
  183SLPC   O2220900   5.221   2.812   2.563
  183SLPC   C2220901   5.399   2.975   2.515
  183SLPC   H2R20902   5.509   2.967   2.502
  183SLPC   H2S20903   5.361   3.026   2.424
  183SLPC    C320904   5.487   2.532   2.380
  183SLPC    HX20905   5.475   2.565   2.274
  183SLPC    HY20906   5.485   2.422   2.371
  183SLPC   O3120907   5.623   2.574   2.418
  183SLPC   C3120908   5.661   2.532   2.538
  183SLPC   O3220909   5.594   2.461   2.608
  183SLPC   C3220910   5.803   2.578   2.562
  183SLPC   H2X20911   5.827   2.669   2.503
  183SLPC   H2Y20912   5.861   2.491   2.525
  183SLPC   C2320913   5.366   3.055   2.635
  183SLPC   H3R20914   5.256   3.060   2.647
  183SLPC   H3S20915   5.392   3.158   2.604
  183SLPC   C2420916   5.431   3.017   2.763
  183SLPC   H4R20917   5.540   3.007   2.746
  183SLPC   H4S20918   5.397   2.918   2.799
  183SLPC   C2520919   5.414   3.109   2.884
  183SLPC   H5R20920   5.313   3.155   2.896
  183SLPC   H5S20921   5.478   3.199   2.882
  183SLPC   C2620922   5.442   3.029   3.008
  183SLPC   H6R20923   5.529   2.964   2.981
  183SLPC   H6S20924   5.352   2.969   3.032
  183SLPC   C2720925   5.475   3.115   3.138
  183SLPC   H7R20926   5.582   3.143   3.129
  183SLPC   H7S20927   5.474   3.050   3.228
  183SLPC   C2820928   5.381   3.230   3.173
  183SLPC   H8R20929   5.274   3.201   3.174
  183SLPC   H8S20930   5.390   3.308   3.095
  183SLPC   C2920931   5.400   3.275   3.320
  183SLPC   H9R20932   5.386   3.204   3.403
  183SLPC  C21020933   5.438   3.402   3.347
  183SLPC  H10R20934   5.461   3.432   3.451
  183SLPC  C21120935   5.447   3.520   3.255
  183SLPC  H11R20936   5.382   3.601   3.295
  183SLPC  H11S20937   5.410   3.502   3.152
  183SLPC  C21220938   5.591   3.559   3.252
  183SLPC  H12R20939   5.656   3.475   3.222
  183SLPC  C21320940   5.635   3.683   3.275
  183SLPC  H13R20941   5.740   3.702   3.247
  183SLPC  C21420942   5.553   3.805   3.306
  183SLPC  H14R20943   5.469   3.813   3.234
  183SLPC  H14S20944   5.621   3.891   3.290
  183SLPC  C21520945   5.512   3.821   3.457
  183SLPC  H15R20946   5.421   3.758   3.466
  183SLPC  H15S20947   5.469   3.921   3.479
  183SLPC  C21620948   5.613   3.783   3.555
  183SLPC  H16R20949   5.710   3.822   3.520
  183SLPC  H16S20950   5.633   3.673   3.553
  183SLPC  C21720951   5.571   3.827   3.692
  183SLPC  H17R20952   5.483   3.769   3.727
  183SLPC  H17S20953   5.534   3.932   3.692
  183SLPC  C21820954   5.687   3.823   3.799
  183SLPC  H18R20955   5.652   3.857   3.899
  183SLPC  H18S20956   5.770   3.897   3.789
  183SLPC  H18T20957   5.715   3.716   3.810
  183SLPC   C3320958   5.840   2.582   2.710
  183SLPC   H3X20959   5.950   2.573   2.719
  183SLPC   H3Y20960   5.797   2.489   2.754
  183SLPC   C3420961   5.768   2.693   2.786
  183SLPC   H4X20962   5.661   2.667   2.796
  183SLPC   H4Y20963   5.771   2.792   2.736
  183SLPC   C3520964   5.834   2.706   2.930
  183SLPC   H5X20965   5.944   2.717   2.917
  183SLPC   H5Y20966   5.806   2.618   2.991
  183SLPC   C3620967   5.779   2.822   3.005
  183SLPC   H6X20968   5.670   2.808   3.023
  183SLPC   H6Y20969   5.776   2.916   2.946
  183SLPC   C3720970   5.844   2.851   3.147
  183SLPC   H7X20971   5.943   2.898   3.132
  183SLPC   H7Y20972   5.867   2.755   3.199
  183SLPC   C3820973   5.754   2.936   3.238
  183SLPC   H8X20974   5.649   2.903   3.248
  183SLPC   H8Y20975   5.747   3.032   3.184
  183SLPC   C3920976   5.819   2.951   3.379
  183SLPC   H9X20977   5.917   2.996   3.349
  183SLPC   H9Y20978   5.831   2.853   3.429
  183SLPC  C31020979   5.749   3.049   3.478
  183SLPC  H10X20980   5.663   2.995   3.523
  183SLPC  H10Y20981   5.708   3.136   3.422
  183SLPC  C31120982   5.858   3.109   3.574
  183SLPC  H11X20983   5.952   3.131   3.520
  183SLPC  H11Y20984   5.877   3.024   3.643
  183SLPC  C31220985   5.801   3.231   3.646
  183SLPC  H12X20986   5.713   3.187   3.698
  183SLPC  H12Y20987   5.753   3.309   3.582
  183SLPC  C31320988   5.896   3.298   3.747
  183SLPC  H13X20989   5.974   3.342   3.680
  183SLPC  H13Y20990   5.943   3.211   3.797
  183SLPC  C31420991   5.835   3.411   3.839
  183SLPC  H14X20992   5.783   3.492   3.783
  183SLPC  H14Y20993   5.916   3.456   3.901
  183SLPC  C31520994   5.737   3.364   3.947
  183SLPC  H15X20995   5.790   3.299   4.020
  183SLPC  H15Y20996   5.659   3.306   3.894
  183SLPC  C31620997   5.663   3.482   4.026
  183SLPC  H16X20998   5.589   3.528   3.958
  183SLPC  H16Y20999   5.745   3.551   4.052
  183SLPC  C31721000   5.593   3.437   4.155
  183SLPC  H17X21001   5.577   3.528   4.216
  183SLPC  H17Y21002   5.661   3.379   4.221
  183SLPC  C31821003   5.453   3.386   4.140
  183SLPC  H18X21004   5.463   3.282   4.105
  183SLPC  H18Y21005   5.397   3.446   4.064
  183SLPC  H18Z21006   5.386   3.395   4.228
  184SLPC     N21007   5.874   1.892   2.176
  184SLPC   C1321008   5.833   1.851   2.308
  184SLPC  H13A21009   5.852   1.915   2.393
  184SLPC  H13B21010   5.727   1.834   2.300
  184SLPC  H13C21011   5.878   1.755   2.331
  184SLPC   C1421012   5.854   2.034   2.155
  184SLPC  H14A21013   5.901   2.095   2.231
  184SLPC  H14B21014   5.890   2.057   2.055
  184SLPC  H14C21015   5.750   2.055   2.139
  184SLPC   C1521016   5.789   1.816   2.082
  184SLPC  H15A21017   5.823   1.714   2.076
  184SLPC  H15B21018   5.683   1.815   2.104
  184SLPC  H15C21019   5.811   1.850   1.982
  184SLPC   C1221020   6.021   1.852   2.159
  184SLPC  H12A21021   6.020   1.745   2.143
  184SLPC  H12B21022   6.084   1.867   2.246
  184SLPC   C1121023   6.096   1.917   2.035
  184SLPC  H11A21024   6.038   1.930   1.941
  184SLPC  H11B21025   6.185   1.858   2.004
  184SLPC     P21026   6.266   2.070   2.150
  184SLPC   O1321027   6.289   1.966   2.250
  184SLPC   O1421028   6.379   2.100   2.069
  184SLPC   O1221029   6.142   2.045   2.064
  184SLPC   O1121030   6.216   2.201   2.224
  184SLPC    C121031   6.125   2.188   2.336
  184SLPC    HA21032   6.047   2.267   2.332
  184SLPC    HB21033   6.068   2.092   2.328
  184SLPC    C221034   6.201   2.184   2.474
  184SLPC    HS21035   6.268   2.096   2.477
  184SLPC   O2121036   6.108   2.185   2.584
  184SLPC   C2121037   6.078   2.062   2.631
  184SLPC   O2221038   6.105   1.953   2.577
  184SLPC   C2221039   6.020   2.080   2.772
  184SLPC   H2R21040   5.964   2.175   2.779
  184SLPC   H2S21041   5.955   1.992   2.789
  184SLPC    C321042   6.292   2.313   2.474
  184SLPC    HX21043   6.240   2.402   2.432
  184SLPC    HY21044   6.382   2.280   2.418
  184SLPC   O3121045   6.336   2.343   2.615
  184SLPC   C3121046   6.237   2.418   2.674
  184SLPC   O3221047   6.130   2.451   2.625
  184SLPC   C3221048   6.275   2.462   2.815
  184SLPC   H2X21049   6.332   2.557   2.807
  184SLPC   H2Y21050   6.331   2.379   2.862
  184SLPC   C2321051   6.142   2.091   2.875
  184SLPC   H3R21052   6.213   2.171   2.847
  184SLPC   H3S21053   6.194   1.993   2.862
  184SLPC   C2421054   6.100   2.100   3.017
  184SLPC   H4R21055   6.058   2.002   3.046
  184SLPC   H4S21056   6.024   2.180   3.033
  184SLPC   C2521057   6.222   2.121   3.117
  184SLPC   H5R21058   6.275   2.214   3.086
  184SLPC   H5S21059   6.291   2.034   3.111
  184SLPC   C2621060   6.160   2.144   3.261
  184SLPC   H6R21061   6.106   2.049   3.280
  184SLPC   H6S21062   6.104   2.240   3.262
  184SLPC   C2721063   6.270   2.146   3.377
  184SLPC   H7R21064   6.332   2.237   3.364
  184SLPC   H7S21065   6.336   2.059   3.360
  184SLPC   C2821066   6.212   2.165   3.520
  184SLPC   H8R21067   6.141   2.250   3.515
  184SLPC   H8S21068   6.287   2.193   3.597
  184SLPC   C2921069   6.143   2.038   3.558
  184SLPC   H9R21070   6.055   2.020   3.494
  184SLPC  C21021071   6.170   1.963   3.669
  184SLPC  H10R21072   6.111   1.873   3.690
  184SLPC  C21121073   6.283   1.981   3.765
  184SLPC  H11R21074   6.371   2.004   3.701
  184SLPC  H11S21075   6.316   1.893   3.823
  184SLPC  C21221076   6.254   2.098   3.866
  184SLPC  H12R21077   6.147   2.116   3.884
  184SLPC  C21321078   6.347   2.178   3.928
  184SLPC  H13R21079   6.319   2.259   3.997
  184SLPC  C21421080   6.493   2.182   3.889
  184SLPC  H14R21081   6.536   2.080   3.878
  184SLPC  H14S21082   6.550   2.244   3.961
  184SLPC  C21521083   6.518   2.256   3.760
  184SLPC  H15R21084   6.504   2.193   3.670
  184SLPC  H15S21085   6.627   2.280   3.752
  184SLPC  C21621086   6.432   2.375   3.744
  184SLPC  H16R21087   6.425   2.423   3.843
  184SLPC  H16S21088   6.325   2.356   3.721
  184SLPC  C21721089   6.496   2.475   3.649
  184SLPC  H17R21090   6.418   2.551   3.629
  184SLPC  H17S21091   6.526   2.426   3.554
  184SLPC  C21821092   6.624   2.551   3.700
  184SLPC  H18R21093   6.603   2.607   3.794
  184SLPC  H18S21094   6.652   2.624   3.621
  184SLPC  H18T21095   6.713   2.491   3.727
  184SLPC   C3321096   6.150   2.474   2.913
  184SLPC   H3X21097   6.090   2.380   2.917
  184SLPC   H3Y21098   6.091   2.558   2.871
  184SLPC   C3421099   6.189   2.539   3.048
  184SLPC   H4X21100   6.218   2.644   3.025
  184SLPC   H4Y21101   6.273   2.490   3.103
  184SLPC   C3521102   6.079   2.540   3.155
  184SLPC   H5X21103   6.058   2.433   3.176
  184SLPC   H5Y21104   5.986   2.566   3.101
  184SLPC   C3621105   6.105   2.619   3.283
  184SLPC   H6X21106   6.081   2.727   3.270
  184SLPC   H6Y21107   6.215   2.614   3.297
  184SLPC   C3721108   6.028   2.569   3.406
  184SLPC   H7X21109   6.065   2.465   3.412
  184SLPC   H7Y21110   5.917   2.562   3.403
  184SLPC   C3821111   6.058   2.637   3.536
  184SLPC   H8X21112   5.996   2.729   3.536
  184SLPC   H8Y21113   6.165   2.668   3.536
  184SLPC   C3921114   6.024   2.552   3.656
  184SLPC   H9X21115   6.068   2.451   3.641
  184SLPC   H9Y21116   5.913   2.544   3.657
  184SLPC  C31021117   6.077   2.612   3.784
  184SLPC  H10X21118   6.049   2.719   3.796
  184SLPC  H10Y21119   6.187   2.596   3.777
  184SLPC  C31121120   6.023   2.538   3.902
  184SLPC  H11X21121   6.049   2.430   3.893
  184SLPC  H11Y21122   5.913   2.552   3.903
  184SLPC  C31221123   6.079   2.580   4.039
  184SLPC  H12X21124   6.054   2.688   4.036
  184SLPC  H12Y21125   6.190   2.570   4.038
  184SLPC  C31321126   6.021   2.503   4.163
  184SLPC  H13X21127   5.912   2.484   4.152
  184SLPC  H13Y21128   6.030   2.573   4.248
  184SLPC  C31421129   6.099   2.368   4.183
  184SLPC  H14X21130   6.114   2.320   4.084
  184SLPC  H14Y21131   6.035   2.307   4.252
  184SLPC  C31521132   6.244   2.384   4.241
  184SLPC  H15X21133   6.223   2.468   4.312
  184SLPC  H15Y21134   6.315   2.430   4.169
  184SLPC  C31621135   6.296   2.269   4.321
  184SLPC  H16X21136   6.328   2.185   4.255
  184SLPC  H16Y21137   6.216   2.234   4.390
  184SLPC  C31721138   6.423   2.304   4.406
  184SLPC  H17X21139   6.428   2.219   4.478
  184SLPC  H17Y21140   6.403   2.393   4.469
  184SLPC  C31821141   6.554   2.316   4.320
  184SLPC  H18X21142   6.641   2.290   4.383
  184SLPC  H18Y21143   6.561   2.411   4.262
  184SLPC  H18Z21144   6.551   2.234   4.245
  185POPC     N21145   1.387   6.171   6.570
  185POPC   C1221146   1.395   6.187   6.424
  185POPC  H12A21147   1.417   6.092   6.378
  185POPC  H12B21148   1.478   6.250   6.395
  185POPC   C1321149   1.335   6.031   6.608
  185POPC  H13A21150   1.339   6.016   6.715
  185POPC  H13B21151   1.239   6.009   6.563
  185POPC  H13C21152   1.406   5.963   6.564
  185POPC   C1421153   1.521   6.178   6.634
  185POPC  H14A21154   1.519   6.135   6.733
  185POPC  H14B21155   1.588   6.105   6.591
  185POPC  H14C21156   1.561   6.278   6.636
  185POPC   C1521157   1.294   6.262   6.637
  185POPC  H15A21158   1.281   6.237   6.741
  185POPC  H15B21159   1.196   6.255   6.593
  185POPC  H15C21160   1.324   6.365   6.630
  185POPC   C1121161   1.276   6.249   6.343
  185POPC  H11A21162   1.293   6.244   6.233
  185POPC  H11B21163   1.271   6.357   6.366
  185POPC     P21164   1.090   6.058   6.325
  185POPC   O1321165   0.978   6.097   6.234
  185POPC   O1421166   1.061   5.968   6.441
  185POPC   O1221167   1.149   6.199   6.380
  185POPC   O1121168   1.201   5.983   6.247
  185POPC    C121169   1.207   5.978   6.103
  185POPC    HA21170   1.307   5.949   6.063
  185POPC    HB21171   1.181   6.076   6.058
  185POPC    C221172   1.118   5.871   6.043
  185POPC    HS21173   1.012   5.901   6.056
  185POPC   O2121174   1.144   5.747   6.104
  185POPC   C2121175   1.047   5.655   6.091
  185POPC   O2221176   0.935   5.677   6.038
  185POPC   C2221177   1.098   5.531   6.150
  185POPC   H2R21178   1.037   5.507   6.240
  185POPC   H2S21179   1.195   5.537   6.203
  185POPC    C321180   1.145   5.854   5.891
  185POPC    HX21181   1.079   5.772   5.857
  185POPC    HY21182   1.245   5.809   5.877
  185POPC   O3121183   1.121   5.982   5.836
  185POPC   C3121184   0.992   6.004   5.805
  185POPC   O3221185   0.904   5.922   5.812
  185POPC   C3221186   0.972   6.142   5.757
  185POPC   H2X21187   1.070   6.185   5.726
  185POPC   H2Y21188   0.933   6.199   5.844
  185POPC   C2321189   1.094   5.418   6.044
  185POPC   H3R21190   0.996   5.421   5.991
  185POPC   H3S21191   1.084   5.320   6.096
  185POPC   C2421192   1.206   5.425   5.948
  185POPC   H4R21193   1.268   5.332   5.953
  185POPC   H4S21194   1.271   5.511   5.973
  185POPC   C2521195   1.159   5.449   5.806
  185POPC   H5R21196   1.116   5.551   5.811
  185POPC   H5S21197   1.088   5.370   5.773
  185POPC   C2621198   1.279   5.463   5.708
  185POPC   H6R21199   1.326   5.362   5.706
  185POPC   H6S21200   1.355   5.537   5.738
  185POPC   C2721201   1.229   5.506   5.564
  185POPC   H7R21202   1.176   5.602   5.579
  185POPC   H7S21203   1.153   5.430   5.536
  185POPC   C2821204   1.338   5.531   5.464
  185POPC   H8R21205   1.421   5.594   5.503
  185POPC   H8S21206   1.285   5.588   5.385
  185POPC   C2921207   1.395   5.401   5.414
  185POPC   H9121208   1.442   5.343   5.495
  185POPC  C21021209   1.397   5.338   5.297
  185POPC  H10121210   1.458   5.248   5.284
  185POPC  C21121211   1.330   5.381   5.164
  185POPC  H11R21212   1.367   5.484   5.145
  185POPC  H11S21213   1.219   5.385   5.164
  185POPC  C21221214   1.379   5.286   5.054
  185POPC  H12R21215   1.309   5.303   4.970
  185POPC  H12S21216   1.371   5.179   5.084
  185POPC  C21321217   1.517   5.312   4.995
  185POPC  H13R21218   1.591   5.321   5.078
  185POPC  H13S21219   1.509   5.413   4.951
  185POPC  C21421220   1.566   5.219   4.886
  185POPC  H14R21221   1.502   5.227   4.796
  185POPC  H14S21222   1.559   5.111   4.912
  185POPC  C21521223   1.713   5.251   4.849
  185POPC  H15R21224   1.785   5.217   4.927
  185POPC  H15S21225   1.727   5.359   4.827
  185POPC  C21621226   1.759   5.183   4.716
  185POPC  H16R21227   1.694   5.220   4.634
  185POPC  H16S21228   1.733   5.075   4.717
  185POPC  C21721229   1.914   5.216   4.685
  185POPC  H17R21230   1.962   5.130   4.633
  185POPC  H17S21231   1.955   5.210   4.788
  185POPC  C21821232   1.917   5.351   4.625
  185POPC  H18R21233   1.824   5.363   4.567
  185POPC  H18S21234   2.010   5.371   4.566
  185POPC  H18T21235   1.919   5.416   4.715
  185POPC   C3321236   0.864   6.155   5.644
  185POPC   H3X21237   0.822   6.254   5.670
  185POPC   H3Y21238   0.780   6.082   5.649
  185POPC   C3421239   0.929   6.154   5.506
  185POPC   H4X21240   0.983   6.058   5.496
  185POPC   H4Y21241   1.015   6.225   5.499
  185POPC   C3521242   0.827   6.193   5.392
  185POPC   H5X21243   0.884   6.211   5.299
  185POPC   H5Y21244   0.783   6.286   5.434
  185POPC   C3621245   0.725   6.076   5.370
  185POPC   H6X21246   0.659   6.079   5.459
  185POPC   H6Y21247   0.772   5.975   5.366
  185POPC   C3721248   0.641   6.081   5.242
  185POPC   H7X21249   0.553   6.020   5.269
  185POPC   H7Y21250   0.687   6.031   5.154
  185POPC   C3821251   0.606   6.224   5.196
  185POPC   H8X21252   0.684   6.276   5.136
  185POPC   H8Y21253   0.599   6.290   5.286
  185POPC   C3921254   0.477   6.228   5.112
  185POPC   H9X21255   0.425   6.323   5.136
  185POPC   H9Y21256   0.419   6.138   5.140
  185POPC  C31021257   0.498   6.230   4.957
  185POPC  H10X21258   0.524   6.124   4.936
  185POPC  H10Y21259   0.590   6.284   4.926
  185POPC  C31121260   0.370   6.276   4.879
  185POPC  H11X21261   0.404   6.246   4.777
  185POPC  H11Y21262   0.338   6.381   4.893
  185POPC  C31221263   0.241   6.192   4.917
  185POPC  H12X21264   0.220   6.216   5.024
  185POPC  H12Y21265   0.262   6.083   4.910
  185POPC  C31321266   0.116   6.230   4.843
  185POPC  H13X21267   0.088   6.337   4.859
  185POPC  H13Y21268   0.033   6.164   4.876
  185POPC  C31421269   0.134   6.216   4.693
  185POPC  H14X21270   0.168   6.115   4.662
  185POPC  H14Y21271   0.221   6.283   4.670
  185POPC  C31521272   0.004   6.269   4.619
  185POPC  H15X21273   6.819   6.352   4.681
  185POPC  H15Y21274   6.789   6.185   4.624
  185POPC  C31621275   0.027   6.311   4.474
  185POPC  H16X21276   0.003   6.230   4.403
  185POPC  H16Y21277   0.135   6.336   4.469
  185POPC  H16Z21278   6.826   6.401   4.443
  186POPC     N21279   3.378   5.205   6.455
  186POPC   C1221280   3.452   5.290   6.354
  186POPC  H12A21281   3.455   5.243   6.257
  186POPC  H12B21282   3.555   5.297   6.387
  186POPC   C1321283   3.439   5.068   6.453
  186POPC  H13A21284   3.547   5.076   6.452
  186POPC  H13B21285   3.421   5.020   6.548
  186POPC  H13C21286   3.411   5.011   6.366
  186POPC   C1421287   3.395   5.258   6.592
  186POPC  H14A21288   3.327   5.209   6.661
  186POPC  H14B21289   3.496   5.247   6.629
  186POPC  H14C21290   3.375   5.363   6.580
  186POPC   C1521291   3.236   5.190   6.418
  186POPC  H15A21292   3.224   5.119   6.338
  186POPC  H15B21293   3.195   5.285   6.387
  186POPC  H15C21294   3.180   5.155   6.504
  186POPC   C1121295   3.395   5.432   6.331
  186POPC  H11A21296   3.288   5.426   6.300
  186POPC  H11B21297   3.438   5.489   6.247
  186POPC     P21298   3.533   5.574   6.503
  186POPC   O1321299   3.646   5.491   6.464
  186POPC   O1421300   3.525   5.618   6.643
  186POPC   O1221301   3.394   5.510   6.457
  186POPC   O1121302   3.538   5.707   6.416
  186POPC    C121303   3.426   5.793   6.437
  186POPC    HA21304   3.438   5.863   6.523
  186POPC    HB21305   3.326   5.745   6.438
  186POPC    C221306   3.399   5.894   6.317
  186POPC    HS21307   3.307   5.955   6.331
  186POPC   O2121308   3.395   5.823   6.201
  186POPC   C2121309   3.293   5.748   6.163
  186POPC   O2221310   3.186   5.733   6.223
  186POPC   C2221311   3.318   5.687   6.030
  186POPC   H2R21312   3.243   5.606   6.013
  186POPC   H2S21313   3.410   5.625   6.026
  186POPC    C321314   3.515   5.996   6.312
  186POPC    HX21315   3.611   5.945   6.291
  186POPC    HY21316   3.519   6.036   6.415
  186POPC   O3121317   3.490   6.097   6.217
  186POPC   C3121318   3.595   6.141   6.151
  186POPC   O3221319   3.710   6.098   6.156
  186POPC   C3221320   3.543   6.244   6.055
  186POPC   H2X21321   3.553   6.342   6.106
  186POPC   H2Y21322   3.436   6.228   6.034
  186POPC   C2321323   3.306   5.784   5.913
  186POPC   H3R21324   3.224   5.857   5.931
  186POPC   H3S21325   3.278   5.725   5.824
  186POPC   C2421326   3.430   5.865   5.871
  186POPC   H4R21327   3.515   5.796   5.852
  186POPC   H4S21328   3.461   5.933   5.954
  186POPC   C2521329   3.401   5.953   5.745
  186POPC   H5R21330   3.475   6.034   5.755
  186POPC   H5S21331   3.298   5.995   5.754
  186POPC   C2621332   3.403   5.871   5.617
  186POPC   H6R21333   3.308   5.813   5.617
  186POPC   H6S21334   3.495   5.808   5.619
  186POPC   C2721335   3.390   5.956   5.495
  186POPC   H7R21336   3.299   6.019   5.500
  186POPC   H7S21337   3.384   5.891   5.405
  186POPC   C2821338   3.505   6.047   5.459
  186POPC   H8R21339   3.530   6.109   5.548
  186POPC   H8S21340   3.471   6.133   5.397
  186POPC   C2921341   3.633   5.984   5.405
  186POPC   H9121342   3.714   5.985   5.480
  186POPC  C21021343   3.653   5.944   5.283
  186POPC  H10121344   3.756   5.913   5.259
  186POPC  C21121345   3.561   5.959   5.167
  186POPC  H11R21346   3.471   6.020   5.194
  186POPC  H11S21347   3.525   5.858   5.141
  186POPC  C21221348   3.632   6.024   5.054
  186POPC  H12R21349   3.672   6.125   5.079
  186POPC  H12S21350   3.566   6.054   4.969
  186POPC  C21321351   3.748   5.945   5.003
  186POPC  H13R21352   3.707   5.842   4.989
  186POPC  H13S21353   3.839   5.939   5.065
  186POPC  C21421354   3.796   6.005   4.858
  186POPC  H14R21355   3.833   6.107   4.883
  186POPC  H14S21356   3.708   6.017   4.791
  186POPC  C21521357   3.912   5.922   4.793
  186POPC  H15R21358   3.899   5.812   4.781
  186POPC  H15S21359   3.999   5.918   4.861
  186POPC  C21621360   3.959   5.992   4.669
  186POPC  H16R21361   3.992   6.095   4.690
  186POPC  H16S21362   3.877   5.994   4.593
  186POPC  C21721363   4.085   5.923   4.615
  186POPC  H17R21364   4.065   5.816   4.591
  186POPC  H17S21365   4.160   5.934   4.697
  186POPC  C21821366   4.131   5.995   4.493
  186POPC  H18R21367   4.051   6.001   4.417
  186POPC  H18S21368   4.220   5.951   4.443
  186POPC  H18T21369   4.164   6.100   4.511
  186POPC   C3321370   3.616   6.268   5.920
  186POPC   H3X21371   3.537   6.300   5.850
  186POPC   H3Y21372   3.648   6.168   5.885
  186POPC   C3421373   3.725   6.375   5.896
  186POPC   H4X21374   3.810   6.357   5.965
  186POPC   H4Y21375   3.682   6.475   5.920
  186POPC   C3521376   3.790   6.360   5.758
  186POPC   H5X21377   3.831   6.259   5.741
  186POPC   H5Y21378   3.874   6.432   5.748
  186POPC   C3621379   3.684   6.389   5.652
  186POPC   H6X21380   3.615   6.464   5.696
  186POPC   H6Y21381   3.631   6.291   5.649
  186POPC   C3721382   3.741   6.440   5.515
  186POPC   H7X21383   3.826   6.374   5.487
  186POPC   H7Y21384   3.777   6.545   5.515
  186POPC   C3821385   3.629   6.443   5.409
  186POPC   H8X21386   3.530   6.482   5.439
  186POPC   H8Y21387   3.608   6.341   5.369
  186POPC   C3921388   3.667   6.532   5.292
  186POPC   H9X21389   3.762   6.512   5.239
  186POPC   H9Y21390   3.661   6.635   5.333
  186POPC  C31021391   3.566   6.544   5.174
  186POPC  H10X21392   3.476   6.602   5.203
  186POPC  H10Y21393   3.537   6.443   5.141
  186POPC  C31121394   3.628   6.611   5.049
  186POPC  H11X21395   3.709   6.541   5.021
  186POPC  H11Y21396   3.676   6.706   5.080
  186POPC  C31221397   3.519   6.610   4.945
  186POPC  H12X21398   3.421   6.646   4.983
  186POPC  H12Y21399   3.500   6.507   4.907
  186POPC  C31321400   3.545   6.692   4.818
  186POPC  H13X21401   3.643   6.660   4.776
  186POPC  H13Y21402   3.572   6.797   4.845
  186POPC  C31421403   3.433   6.686   4.719
  186POPC  H14X21404   3.336   6.705   4.768
  186POPC  H14Y21405   3.428   6.580   4.684
  186POPC  C31521406   3.456   6.795   4.615
  186POPC  H15X21407   3.552   6.769   4.566
  186POPC  H15Y21408   3.461   0.034   4.672
  186POPC  C31621409   3.354   6.816   4.502
  186POPC  H16X21410   3.254   6.837   4.546
  186POPC  H16Y21411   3.357   6.717   4.451
  186POPC  H16Z21412   3.376   0.038   4.427
  187POPC     N21413   6.360   5.907   1.997
  187POPC   C1221414   6.419   5.878   2.130
  187POPC  H12A21415   6.480   5.964   2.153
  187POPC  H12B21416   6.489   5.798   2.111
  187POPC   C1321417   6.286   5.795   1.943
  187POPC  H13A21418   6.231   5.831   1.857
  187POPC  H13B21419   6.340   5.704   1.924
  187POPC  H13C21420   6.206   5.786   2.015
  187POPC   C1421421   6.263   6.020   2.012
  187POPC  H14A21422   6.182   5.993   2.079
  187POPC  H14B21423   6.316   6.108   2.045
  187POPC  H14C21424   6.218   6.043   1.916
  187POPC   C1521425   6.465   5.945   1.900
  187POPC  H15A21426   6.493   6.050   1.902
  187POPC  H15B21427   6.429   5.934   1.799
  187POPC  H15C21428   6.556   5.886   1.902
  187POPC   C1121429   6.333   5.837   2.249
  187POPC  H11A21430   6.283   5.911   2.314
  187POPC  H11B21431   6.406   5.807   2.327
  187POPC     P21432   6.096   5.727   2.241
  187POPC   O1321433   6.048   5.587   2.231
  187POPC   O1421434   6.044   5.832   2.155
  187POPC   O1221435   6.251   5.725   2.230
  187POPC   O1121436   6.075   5.770   2.390
  187POPC    C121437   6.146   5.699   2.487
  187POPC    HA21438   6.254   5.727   2.477
  187POPC    HB21439   6.141   5.589   2.472
  187POPC    C221440   6.099   5.738   2.633
  187POPC    HS21441   6.171   5.691   2.704
  187POPC   O2121442   5.963   5.701   2.664
  187POPC   C2121443   5.943   5.583   2.708
  187POPC   O2221444   6.033   5.497   2.723
  187POPC   C2221445   5.799   5.573   2.744
  187POPC   H2R21446   5.737   5.532   2.662
  187POPC   H2S21447   5.767   5.677   2.766
  187POPC    C321448   6.112   5.894   2.639
  187POPC    HX21449   6.034   5.937   2.573
  187POPC    HY21450   6.212   5.931   2.607
  187POPC   O3121451   6.081   5.930   2.779
  187POPC   C3121452   6.103   6.056   2.797
  187POPC   O3221453   6.136   6.139   2.711
  187POPC   C3221454   6.081   6.088   2.947
  187POPC   H2X21455   6.076   5.995   3.007
  187POPC   H2Y21456   5.977   6.128   2.946
  187POPC   C2321457   5.784   5.495   2.880
  187POPC   H3R21458   5.687   5.532   2.922
  187POPC   H3S21459   5.868   5.516   2.950
  187POPC   C2421460   5.765   5.342   2.861
  187POPC   H4R21461   5.858   5.289   2.832
  187POPC   H4S21462   5.684   5.338   2.785
  187POPC   C2521463   5.710   5.276   2.992
  187POPC   H5R21464   5.619   5.336   3.014
  187POPC   H5S21465   5.788   5.284   3.071
  187POPC   C2621466   5.670   5.126   2.988
  187POPC   H6R21467   5.760   5.064   2.969
  187POPC   H6S21468   5.606   5.102   2.900
  187POPC   C2721469   5.614   5.062   3.117
  187POPC   H7R21470   5.708   5.050   3.176
  187POPC   H7S21471   5.563   4.967   3.091
  187POPC   C2821472   5.526   5.150   3.195
  187POPC   H8R21473   5.435   5.175   3.137
  187POPC   H8S21474   5.576   5.247   3.215
  187POPC   C2921475   5.477   5.066   3.315
  187POPC   H9121476   5.443   4.965   3.287
  187POPC  C21021477   5.495   5.096   3.447
  187POPC  H10121478   5.478   5.017   3.522
  187POPC  C21121479   5.542   5.229   3.497
  187POPC  H11R21480   5.545   5.303   3.414
  187POPC  H11S21481   5.646   5.224   3.536
  187POPC  C21221482   5.447   5.298   3.590
  187POPC  H12R21483   5.346   5.259   3.565
  187POPC  H12S21484   5.439   5.407   3.568
  187POPC  C21321485   5.478   5.284   3.743
  187POPC  H13R21486   5.578   5.325   3.771
  187POPC  H13S21487   5.474   5.176   3.769
  187POPC  C21421488   5.373   5.329   3.841
  187POPC  H14R21489   5.279   5.282   3.805
  187POPC  H14S21490   5.354   5.437   3.819
  187POPC  C21521491   5.395   5.310   3.991
  187POPC  H15R21492   5.461   5.392   4.025
  187POPC  H15S21493   5.443   5.216   4.026
  187POPC  C21621494   5.268   5.316   4.078
  187POPC  H16R21495   5.196   5.242   4.037
  187POPC  H16S21496   5.226   5.419   4.073
  187POPC  C21721497   5.301   5.306   4.227
  187POPC  H17R21498   5.382   5.376   4.260
  187POPC  H17S21499   5.323   5.200   4.250
  187POPC  C21821500   5.181   5.343   4.315
  187POPC  H18R21501   5.128   5.434   4.281
  187POPC  H18S21502   5.211   5.343   4.422
  187POPC  H18T21503   5.109   5.258   4.305
  187POPC   C3321504   6.181   6.192   2.996
  187POPC   H3X21505   6.172   6.286   2.938
  187POPC   H3Y21506   6.290   6.169   2.998
  187POPC   C3421507   6.158   6.223   3.149
  187POPC   H4X21508   6.255   6.256   3.190
  187POPC   H4Y21509   6.151   6.126   3.202
  187POPC   C3521510   6.055   6.326   3.184
  187POPC   H5X21511   5.953   6.287   3.163
  187POPC   H5Y21512   6.083   6.416   3.125
  187POPC   C3621513   6.060   6.377   3.328
  187POPC   H6X21514   5.962   6.427   3.343
  187POPC   H6Y21515   6.144   6.449   3.340
  187POPC   C3721516   6.072   6.261   3.433
  187POPC   H7X21517   6.174   6.227   3.406
  187POPC   H7Y21518   6.010   6.173   3.405
  187POPC   C3821519   6.050   6.294   3.576
  187POPC   H8X21520   6.055   6.195   3.626
  187POPC   H8Y21521   5.947   6.327   3.601
  187POPC   C3921522   6.149   6.396   3.626
  187POPC   H9X21523   6.132   6.494   3.578
  187POPC   H9Y21524   6.253   6.376   3.593
  187POPC  C31021525   6.155   6.410   3.774
  187POPC  H10X21526   6.053   6.438   3.808
  187POPC  H10Y21527   6.227   6.486   3.811
  187POPC  C31121528   6.187   6.275   3.842
  187POPC  H11X21529   6.278   6.236   3.793
  187POPC  H11Y21530   6.099   6.206   3.840
  187POPC  C31221531   6.225   6.310   3.989
  187POPC  H12X21532   6.309   6.383   3.982
  187POPC  H12Y21533   6.253   6.217   4.043
  187POPC  C31321534   6.112   6.374   4.073
  187POPC  H13X21535   6.026   6.307   4.050
  187POPC  H13Y21536   6.088   6.475   4.033
  187POPC  C31421537   6.159   6.390   4.215
  187POPC  H14X21538   6.242   6.464   4.219
  187POPC  H14Y21539   6.190   6.289   4.251
  187POPC  C31521540   6.053   6.422   4.317
  187POPC  H15X21541   5.967   6.353   4.301
  187POPC  H15Y21542   6.017   6.527   4.306
  187POPC  C31621543   6.099   6.410   4.459
  187POPC  H16X21544   6.126   6.305   4.483
  187POPC  H16Y21545   6.016   6.438   4.527
  187POPC  H16Z21546   6.185   6.479   4.469
  188POPC     N21547   5.959   5.357   1.954
  188POPC   C1221548   5.924   5.359   2.098
  188POPC  H12A21549   5.853   5.437   2.122
  188POPC  H12B21550   6.012   5.373   2.159
  188POPC   C1321551   6.065   5.252   1.928
  188POPC  H13A21552   6.030   5.152   1.950
  188POPC  H13B21553   6.091   5.254   1.823
  188POPC  H13C21554   6.159   5.259   1.980
  188POPC   C1421555   5.837   5.342   1.867
  188POPC  H14A21556   5.857   5.345   1.761
  188POPC  H14B21557   5.806   5.242   1.893
  188POPC  H14C21558   5.762   5.414   1.896
  188POPC   C1521559   6.019   5.488   1.927
  188POPC  H15A21560   5.942   5.563   1.929
  188POPC  H15B21561   6.083   5.497   1.840
  188POPC  H15C21562   6.085   5.525   2.004
  188POPC   C1121563   5.854   5.240   2.169
  188POPC  H11A21564   5.862   5.262   2.278
  188POPC  H11B21565   5.916   5.149   2.155
  188POPC     P21566   5.612   5.321   2.176
  188POPC   O1321567   5.478   5.258   2.186
  188POPC   O1421568   5.621   5.442   2.088
  188POPC   O1221569   5.721   5.218   2.128
  188POPC   O1121570   5.644   5.363   2.319
  188POPC    C121571   5.625   5.281   2.433
  188POPC    HA21572   5.704   5.298   2.510
  188POPC    HB21573   5.640   5.176   2.400
  188POPC    C221574   5.492   5.293   2.512
  188POPC    HS21575   5.407   5.277   2.442
  188POPC   O2121576   5.488   5.412   2.593
  188POPC   C2121577   5.367   5.470   2.611
  188POPC   O2221578   5.265   5.442   2.557
  188POPC   C2221579   5.381   5.580   2.717
  188POPC   H2R21580   5.312   5.663   2.690
  188POPC   H2S21581   5.483   5.625   2.716
  188POPC    C321582   5.476   5.162   2.602
  188POPC    HX21583   5.558   5.168   2.676
  188POPC    HY21584   5.473   5.071   2.537
  188POPC   O3121585   5.360   5.160   2.684
  188POPC   C3121586   5.253   5.120   2.620
  188POPC   O3221587   5.256   5.067   2.508
  188POPC   C3221588   5.125   5.145   2.703
  188POPC   H2X21589   5.046   5.102   2.637
  188POPC   H2Y21590   5.100   5.253   2.703
  188POPC   C2321591   5.344   5.530   2.858
  188POPC   H3R21592   5.414   5.446   2.876
  188POPC   H3S21593   5.239   5.496   2.868
  188POPC   C2421594   5.366   5.648   2.961
  188POPC   H4R21595   5.377   5.745   2.909
  188POPC   H4S21596   5.462   5.632   3.015
  188POPC   C2521597   5.261   5.656   3.074
  188POPC   H5R21598   5.169   5.596   3.058
  188POPC   H5S21599   5.230   5.762   3.073
  188POPC   C2621600   5.319   5.622   3.207
  188POPC   H6R21601   5.429   5.642   3.207
  188POPC   H6S21602   5.317   5.511   3.213
  188POPC   C2721603   5.253   5.694   3.322
  188POPC   H7R21604   5.143   5.681   3.314
  188POPC   H7S21605   5.276   5.802   3.310
  188POPC   C2821606   5.288   5.638   3.459
  188POPC   H8R21607   5.397   5.619   3.454
  188POPC   H8S21608   5.242   5.538   3.472
  188POPC   C2921609   5.271   5.727   3.577
  188POPC   H9121610   5.329   5.820   3.573
  188POPC  C21021611   5.198   5.708   3.688
  188POPC  H10121612   5.187   5.790   3.761
  188POPC  C21121613   5.119   5.583   3.710
  188POPC  H11R21614   5.170   5.508   3.773
  188POPC  H11S21615   5.104   5.527   3.616
  188POPC  C21221616   4.976   5.610   3.766
  188POPC  H12R21617   4.918   5.519   3.742
  188POPC  H12S21618   4.928   5.691   3.706
  188POPC  C21321619   4.967   5.649   3.911
  188POPC  H13R21620   5.045   5.724   3.937
  188POPC  H13S21621   4.986   5.556   3.970
  188POPC  C21421622   4.818   5.699   3.947
  188POPC  H14R21623   4.747   5.615   3.932
  188POPC  H14S21624   4.770   5.767   3.874
  188POPC  C21521625   4.817   5.745   4.093
  188POPC  H15R21626   4.875   5.840   4.087
  188POPC  H15S21627   4.871   5.675   4.161
  188POPC  C21621628   4.674   5.764   4.144
  188POPC  H16R21629   4.615   5.671   4.128
  188POPC  H16S21630   4.624   5.837   4.076
  188POPC  C21721631   4.672   5.804   4.292
  188POPC  H17R21632   4.735   5.895   4.302
  188POPC  H17S21633   4.707   5.717   4.351
  188POPC  C21821634   4.529   5.841   4.346
  188POPC  H18R21635   4.458   5.762   4.314
  188POPC  H18S21636   4.501   5.941   4.307
  188POPC  H18T21637   4.529   5.843   4.457
  188POPC   C3321638   5.127   5.080   2.844
  188POPC   H3X21639   5.187   4.987   2.827
  188POPC   H3Y21640   5.024   5.045   2.868
  188POPC   C3421641   5.170   5.171   2.956
  188POPC   H4X21642   5.264   5.223   2.927
  188POPC   H4Y21643   5.180   5.108   3.047
  188POPC   C3521644   5.065   5.280   2.997
  188POPC   H5X21645   4.958   5.252   2.982
  188POPC   H5Y21646   5.082   5.372   2.937
  188POPC   C3621647   5.088   5.324   3.145
  188POPC   H6X21648   5.024   5.413   3.162
  188POPC   H6Y21649   5.195   5.350   3.156
  188POPC   C3721650   5.025   5.215   3.236
  188POPC   H7X21651   5.071   5.118   3.205
  188POPC   H7Y21652   4.916   5.214   3.217
  188POPC   C3821653   5.062   5.242   3.378
  188POPC   H8X21654   5.023   5.342   3.406
  188POPC   H8Y21655   5.173   5.244   3.388
  188POPC   C3921656   4.998   5.145   3.469
  188POPC   H9X21657   5.068   5.138   3.555
  188POPC   H9Y21658   5.009   5.048   3.416
  188POPC  C31021659   4.857   5.185   3.517
  188POPC  H10X21660   4.797   5.095   3.541
  188POPC  H10Y21661   4.801   5.249   3.446
  188POPC  C31121662   4.860   5.262   3.647
  188POPC  H11X21663   4.766   5.319   3.665
  188POPC  H11Y21664   4.936   5.341   3.628
  188POPC  C31221665   4.890   5.182   3.774
  188POPC  H12X21666   4.992   5.139   3.777
  188POPC  H12Y21667   4.819   5.096   3.775
  188POPC  C31321668   4.882   5.258   3.912
  188POPC  H13X21669   4.922   5.361   3.899
  188POPC  H13Y21670   4.936   5.204   3.992
  188POPC  C31421671   4.738   5.272   3.960
  188POPC  H14X21672   4.708   5.165   3.962
  188POPC  H14Y21673   4.662   5.319   3.894
  188POPC  C31521674   4.716   5.332   4.100
  188POPC  H15X21675   4.755   5.436   4.095
  188POPC  H15Y21676   4.768   5.279   4.182
  188POPC  C31621677   4.572   5.333   4.143
  188POPC  H16X21678   4.554   5.394   4.234
  188POPC  H16Y21679   4.547   5.226   4.162
  188POPC  H16Z21680   4.501   5.358   4.061
  189SAPI   C1221681   2.314   5.378   6.795
  189SAPI    H221682   2.261   5.308   6.727
  189SAPI    O221683   2.216   5.399   6.895
  189SAPI   HO221684   2.140   5.442   6.855
  189SAPI   C1321685   2.441   5.305   6.837
  189SAPI    H321686   2.504   5.293   6.747
  189SAPI    O321687   2.414   5.174   6.893
  189SAPI   HO321688   2.496   5.125   6.900
  189SAPI   C1421689   2.513   5.386   6.942
  189SAPI    H421690   2.464   5.366   7.040
  189SAPI    O421691   2.646   5.332   6.959
  189SAPI   HO421692   2.710   5.356   6.892
  189SAPI   C1521693   2.510   5.542   6.925
  189SAPI    H521694   2.606   5.572   6.877
  189SAPI    O521695   2.513   5.609   7.055
  189SAPI   HO521696   2.598   5.587   7.093
  189SAPI   C1621697   2.420   5.607   6.822
  189SAPI    H621698   2.331   5.639   6.880
  189SAPI    O621699   2.480   5.722   6.759
  189SAPI   HO621700   2.414   5.787   6.736
  189SAPI   C1121701   2.365   5.504   6.721
  189SAPI    H121702   2.444   5.476   6.649
  189SAPI     P21703   2.207   5.531   6.510
  189SAPI   O1321704   2.068   5.570   6.492
  189SAPI   O1421705   2.239   5.385   6.506
  189SAPI   O1221706   2.260   5.577   6.659
  189SAPI   O1121707   2.294   5.598   6.395
  189SAPI    C121708   2.306   5.744   6.380
  189SAPI    HA21709   2.218   5.796   6.424
  189SAPI    HB21710   2.391   5.785   6.437
  189SAPI    C221711   2.309   5.779   6.228
  189SAPI    HS21712   2.322   5.888   6.217
  189SAPI   O2121713   2.197   5.723   6.156
  189SAPI   C2121714   2.081   5.789   6.182
  189SAPI   O2221715   2.079   5.891   6.242
  189SAPI   C2221716   1.963   5.725   6.116
  189SAPI   H2R21717   1.975   5.729   6.006
  189SAPI   H2S21718   1.970   5.618   6.147
  189SAPI    C321719   2.433   5.709   6.161
  189SAPI    HX21720   2.432   5.601   6.186
  189SAPI    HY21721   2.516   5.753   6.221
  189SAPI   O3121722   2.433   5.741   6.019
  189SAPI   C3121723   2.453   5.629   5.937
  189SAPI   O3221724   2.461   5.516   5.969
  189SAPI   C3221725   2.436   5.674   5.794
  189SAPI   H2X21726   2.374   5.766   5.794
  189SAPI   H2Y21727   2.374   5.608   5.730
  189SAPI   C2321728   1.826   5.786   6.161
  189SAPI   H3R21729   1.826   5.897   6.163
  189SAPI   H3S21730   1.801   5.746   6.262
  189SAPI   C2421731   1.713   5.744   6.065
  189SAPI   H4R21732   1.707   5.794   5.966
  189SAPI   H4S21733   1.625   5.785   6.119
  189SAPI   C2521734   1.704   5.594   6.061
  189SAPI   H5R21735   1.714   5.543   6.158
  189SAPI   C2621736   1.674   5.526   5.951
  189SAPI   H6R21737   1.686   5.417   5.960
  189SAPI   C2721738   1.665   5.584   5.816
  189SAPI   H7R21739   1.712   5.684   5.804
  189SAPI   H7S21740   1.562   5.625   5.802
  189SAPI   C2821741   1.706   5.494   5.704
  189SAPI   H8R21742   1.628   5.433   5.657
  189SAPI   C2921743   1.827   5.496   5.652
  189SAPI   H9R21744   1.855   5.422   5.575
  189SAPI  C21021745   1.943   5.578   5.711
  189SAPI  H10R21746   1.930   5.634   5.806
  189SAPI  H10S21747   1.959   5.666   5.645
  189SAPI  C21121748   2.073   5.496   5.717
  189SAPI  H11R21749   2.084   5.438   5.809
  189SAPI  C21221750   2.170   5.495   5.624
  189SAPI  H12R21751   2.259   5.432   5.639
  189SAPI  C21321752   2.174   5.568   5.494
  189SAPI  H13R21753   2.243   5.654   5.504
  189SAPI  H13S21754   2.073   5.607   5.469
  189SAPI  C21421755   2.224   5.483   5.375
  189SAPI  H14R21756   2.269   5.390   5.411
  189SAPI  C21521757   2.220   5.515   5.240
  189SAPI  H15R21758   2.253   5.435   5.172
  189SAPI  C21621759   2.170   5.645   5.177
  189SAPI  H16R21760   2.247   5.677   5.104
  189SAPI  H16S21761   2.158   5.731   5.246
  189SAPI  C21721762   2.041   5.605   5.107
  189SAPI  H17R21763   1.970   5.551   5.174
  189SAPI  H17S21764   2.067   5.547   5.016
  189SAPI  C21821765   1.972   5.727   5.050
  189SAPI  H18R21766   1.964   5.800   5.134
  189SAPI  H18S21767   1.873   5.691   5.014
  189SAPI  C21921768   2.042   5.788   4.930
  189SAPI  H19R21769   2.061   5.710   4.853
  189SAPI  H19S21770   2.141   5.825   4.963
  189SAPI  C22021771   1.945   5.896   4.864
  189SAPI  H20R21772   1.977   5.943   4.768
  189SAPI  H20S21773   1.910   5.969   4.939
  189SAPI  H20T21774   1.854   5.837   4.839
  189SAPI   C3321775   2.577   5.696   5.724
  189SAPI   H3X21776   2.627   5.601   5.754
  189SAPI   H3Y21777   2.625   5.782   5.776
  189SAPI   C3421778   2.566   5.702   5.572
  189SAPI   H4X21779   2.530   5.605   5.533
  189SAPI   H4Y21780   2.671   5.702   5.535
  189SAPI   C3521781   2.487   5.820   5.516
  189SAPI   H5X21782   2.542   5.913   5.544
  189SAPI   H5Y21783   2.389   5.815   5.568
  189SAPI   C3621784   2.448   5.801   5.367
  189SAPI   H6X21785   2.343   5.836   5.355
  189SAPI   H6Y21786   2.447   5.696   5.330
  189SAPI   C3721787   2.531   5.884   5.271
  189SAPI   H7X21788   2.631   5.837   5.283
  189SAPI   H7Y21789   2.543   5.987   5.311
  189SAPI   C3821790   2.484   5.876   5.120
  189SAPI   H8X21791   2.375   5.889   5.103
  189SAPI   H8Y21792   2.501   5.773   5.082
  189SAPI   C3921793   2.571   5.972   5.034
  189SAPI   H9X21794   2.673   5.951   5.072
  189SAPI   H9Y21795   2.544   6.079   5.049
  189SAPI  C31021796   2.549   5.953   4.883
  189SAPI  H10X21797   2.570   5.844   4.871
  189SAPI  H10Y21798   2.631   6.005   4.828
  189SAPI  C31121799   2.403   5.974   4.836
  189SAPI  H11X21800   2.369   6.075   4.867
  189SAPI  H11Y21801   2.344   5.896   4.888
  189SAPI  C31221802   2.381   5.966   4.689
  189SAPI  H12X21803   2.430   5.877   4.643
  189SAPI  H12Y21804   2.413   6.061   4.641
  189SAPI  C31321805   2.233   5.954   4.649
  189SAPI  H13X21806   2.182   6.047   4.684
  189SAPI  H13Y21807   2.191   5.876   4.716
  189SAPI  C31421808   2.211   5.915   4.506
  189SAPI  H14X21809   2.256   5.815   4.490
  189SAPI  H14Y21810   2.257   5.980   4.429
  189SAPI  C31521811   2.058   5.915   4.482
  189SAPI  H15X21812   2.032   6.021   4.463
  189SAPI  H15Y21813   2.010   5.886   4.578
  189SAPI  C31621814   2.004   5.827   4.362
  189SAPI  H16X21815   2.035   5.724   4.390
  189SAPI  H16Y21816   2.059   5.853   4.268
  189SAPI  C31721817   1.851   5.826   4.341
  189SAPI  H17X21818   1.818   5.778   4.435
  189SAPI  H17Y21819   1.821   5.771   4.250
  189SAPI  C31821820   1.791   5.966   4.328
  189SAPI  H18X21821   1.860   6.050   4.307
  189SAPI  H18Y21822   1.740   5.986   4.425
  189SAPI  H18Z21823   1.706   5.967   4.256
  190SAPI   C1221824   0.888   3.259   6.451
  190SAPI    H221825   0.885   3.207   6.353
  190SAPI    O221826   1.019   3.277   6.499
  190SAPI   HO221827   1.035   3.201   6.555
  190SAPI   C1321828   0.823   3.396   6.435
  190SAPI    H321829   0.716   3.374   6.411
  190SAPI    O321830   0.886   3.479   6.336
  190SAPI   HO321831   0.980   3.471   6.353
  190SAPI   C1421832   0.825   3.465   6.575
  190SAPI    H421833   0.935   3.484   6.577
  190SAPI    O421834   0.751   3.592   6.568
  190SAPI   HO421835   0.809   3.665   6.590
  190SAPI   C1521836   0.794   3.385   6.700
  190SAPI    H521837   0.686   3.406   6.714
  190SAPI    O521838   0.860   3.423   6.816
  190SAPI   HO521839   0.801   3.424   6.893
  190SAPI   C1621840   0.802   3.234   6.686
  190SAPI    H621841   0.904   3.205   6.721
  190SAPI    O621842   0.712   3.159   6.769
  190SAPI   HO621843   0.743   3.069   6.758
  190SAPI   C1121844   0.809   3.173   6.549
  190SAPI    H121845   0.706   3.151   6.512
  190SAPI     P21846   0.825   2.901   6.571
  190SAPI   O1321847   0.732   2.908   6.679
  190SAPI   O1421848   0.944   2.821   6.590
  190SAPI   O1221849   0.887   3.051   6.542
  190SAPI   O1121850   0.752   2.861   6.435
  190SAPI    C121851   0.839   2.853   6.314
  190SAPI    HA21852   0.898   2.946   6.301
  190SAPI    HB21853   0.921   2.781   6.333
  190SAPI    C221854   0.751   2.813   6.199
  190SAPI    HS21855   0.822   2.794   6.115
  190SAPI   O2121856   0.659   2.912   6.153
  190SAPI   C2121857   0.707   3.013   6.077
  190SAPI   O2221858   0.830   3.035   6.066
  190SAPI   C2221859   0.596   3.088   6.008
  190SAPI   H2R21860   0.528   3.035   5.938
  190SAPI   H2S21861   0.534   3.127   6.091
  190SAPI    C321862   0.678   2.677   6.223
  190SAPI    HX21863   0.586   2.698   6.281
  190SAPI    HY21864   0.748   2.625   6.292
  190SAPI   O3121865   0.670   2.599   6.104
  190SAPI   C3121866   0.558   2.615   6.033
  190SAPI   O3221867   0.476   2.700   6.042
  190SAPI   C3221868   0.582   2.523   5.911
  190SAPI   H2X21869   0.568   2.419   5.949
  190SAPI   H2Y21870   0.688   2.530   5.879
  190SAPI   C2321871   0.663   3.198   5.926
  190SAPI   H3R21872   0.748   3.149   5.874
  190SAPI   H3S21873   0.702   3.273   5.998
  190SAPI   C2421874   0.567   3.277   5.834
  190SAPI   H4R21875   0.493   3.341   5.886
  190SAPI   H4S21876   0.510   3.191   5.793
  190SAPI   C2521877   0.630   3.355   5.725
  190SAPI   H5R21878   0.670   3.455   5.750
  190SAPI   C2621879   0.639   3.328   5.590
  190SAPI   H6R21880   0.697   3.396   5.525
  190SAPI   C2721881   0.593   3.198   5.531
  190SAPI   H7R21882   0.554   3.199   5.427
  190SAPI   H7S21883   0.506   3.154   5.585
  190SAPI   C2821884   0.710   3.103   5.534
  190SAPI   H8R21885   0.742   3.066   5.632
  190SAPI   C2921886   0.787   3.067   5.425
  190SAPI   H9R21887   0.867   2.997   5.451
  190SAPI  C21021888   0.769   3.112   5.287
  190SAPI  H10R21889   0.730   3.216   5.288
  190SAPI  H10S21890   0.683   3.057   5.243
  190SAPI  C21121891   0.893   3.099   5.202
  190SAPI  H11R21892   0.988   3.076   5.252
  190SAPI  C21221893   0.892   3.108   5.067
  190SAPI  H12R21894   0.984   3.094   5.009
  190SAPI  C21321895   0.770   3.145   4.982
  190SAPI  H13R21896   0.786   3.250   4.950
  190SAPI  H13S21897   0.680   3.121   5.042
  190SAPI  C21421898   0.780   3.047   4.862
  190SAPI  H14R21899   0.791   2.942   4.892
  190SAPI  C21521900   0.758   3.078   4.732
  190SAPI  H15R21901   0.772   3.001   4.655
  190SAPI  C21621902   0.737   3.216   4.675
  190SAPI  H16R21903   0.710   3.280   4.762
  190SAPI  H16S21904   0.656   3.203   4.599
  190SAPI  C21721905   0.859   3.260   4.589
  190SAPI  H17R21906   0.834   3.353   4.533
  190SAPI  H17S21907   0.882   3.177   4.520
  190SAPI  C21821908   0.982   3.307   4.675
  190SAPI  H18R21909   1.018   3.228   4.744
  190SAPI  H18S21910   0.941   3.385   4.743
  190SAPI  C21921911   1.092   3.359   4.591
  190SAPI  H19R21912   1.165   3.408   4.659
  190SAPI  H19S21913   1.042   3.438   4.531
  190SAPI  C22021914   1.152   3.260   4.495
  190SAPI  H20R21915   1.084   3.197   4.433
  190SAPI  H20S21916   1.215   3.197   4.561
  190SAPI  H20T21917   1.213   3.322   4.426
  190SAPI   C3321918   0.491   2.553   5.798
  190SAPI   H3X21919   0.465   2.661   5.801
  190SAPI   H3Y21920   0.399   2.490   5.800
  190SAPI   C3421921   0.573   2.535   5.664
  190SAPI   H4X21922   0.605   2.433   5.635
  190SAPI   H4Y21923   0.667   2.591   5.677
  190SAPI   C3521924   0.505   2.590   5.546
  190SAPI   H5X21925   0.484   2.696   5.573
  190SAPI   H5Y21926   0.412   2.535   5.519
  190SAPI   C3621927   0.594   2.583   5.427
  190SAPI   H6X21928   0.611   2.475   5.405
  190SAPI   H6Y21929   0.687   2.641   5.443
  190SAPI   C3721930   0.520   2.649   5.306
  190SAPI   H7X21931   0.510   2.757   5.329
  190SAPI   H7Y21932   0.414   2.617   5.299
  190SAPI   C3821933   0.591   2.634   5.171
  190SAPI   H8X21934   0.688   2.689   5.176
  190SAPI   H8Y21935   0.525   2.669   5.089
  190SAPI   C3921936   0.641   2.487   5.131
  190SAPI   H9X21937   0.558   2.414   5.118
  190SAPI   H9Y21938   0.698   2.449   5.218
  190SAPI  C31021939   0.737   2.488   5.017
  190SAPI  H10X21940   0.759   2.382   4.993
  190SAPI  H10Y21941   0.831   2.540   5.045
  190SAPI  C31121942   0.683   2.560   4.890
  190SAPI  H11X21943   0.692   2.670   4.905
  190SAPI  H11Y21944   0.578   2.535   4.865
  190SAPI  C31221945   0.778   2.534   4.771
  190SAPI  H12X21946   0.761   2.427   4.743
  190SAPI  H12Y21947   0.883   2.545   4.803
  190SAPI  C31321948   0.749   2.626   4.649
  190SAPI  H13X21949   0.754   2.737   4.656
  190SAPI  H13Y21950   0.646   2.607   4.614
  190SAPI  C31421951   0.836   2.582   4.530
  190SAPI  H14X21952   0.817   2.475   4.507
  190SAPI  H14Y21953   0.942   2.586   4.564
  190SAPI  C31521954   0.818   2.667   4.401
  190SAPI  H15X21955   0.882   2.756   4.422
  190SAPI  H15Y21956   0.712   2.689   4.379
  190SAPI  C31621957   0.894   2.598   4.277
  190SAPI  H16X21958   0.870   2.491   4.259
  190SAPI  H16Y21959   1.000   2.601   4.308
  190SAPI  C31721960   0.854   2.667   4.151
  190SAPI  H17X21961   0.762   2.728   4.168
  190SAPI  H17Y21962   0.818   2.594   4.075
  190SAPI  C31821963   0.962   2.763   4.099
  190SAPI  H18X21964   0.919   2.838   4.028
  190SAPI  H18Y21965   1.044   2.701   4.057
  190SAPI  H18Z21966   1.002   2.825   4.182
  191SAPI   C1221967   3.933   4.742   1.968
  191SAPI    H221968   4.035   4.753   2.009
  191SAPI    O221969   3.857   4.841   2.035
  191SAPI   HO221970   3.817   4.793   2.108
  191SAPI   C1321971   3.940   4.761   1.820
  191SAPI    H321972   4.003   4.676   1.785
  191SAPI    O321973   4.018   4.874   1.790
  191SAPI   HO321974   4.056   4.851   1.705
  191SAPI   C1421975   3.806   4.766   1.753
  191SAPI    H421976   3.741   4.840   1.804
  191SAPI    O421977   3.809   4.816   1.619
  191SAPI   HO421978   3.789   4.909   1.628
  191SAPI   C1521979   3.739   4.627   1.777
  191SAPI    H521980   3.799   4.562   1.709
  191SAPI    O521981   3.604   4.619   1.732
  191SAPI   HO521982   3.543   4.677   1.778
  191SAPI   C1621983   3.762   4.556   1.912
  191SAPI    H621984   3.673   4.592   1.969
  191SAPI    O621985   3.756   4.415   1.908
  191SAPI   HO621986   3.748   4.397   2.002
  191SAPI   C1121987   3.878   4.602   2.001
  191SAPI    H121988   3.962   4.537   1.969
  191SAPI     P21989   3.871   4.448   2.232
  191SAPI   O1321990   3.781   4.347   2.169
  191SAPI   O1421991   3.857   4.484   2.372
  191SAPI   O1221992   3.868   4.591   2.142
  191SAPI   O1121993   4.018   4.396   2.185
  191SAPI    C121994   4.135   4.472   2.202
  191SAPI    HA21995   4.162   4.539   2.118
  191SAPI    HB21996   4.119   4.534   2.293
  191SAPI    C221997   4.245   4.379   2.246
  191SAPI    HS21998   4.273   4.322   2.155
  191SAPI   O2121999   4.208   4.283   2.345
  191SAPI   C2122000   4.284   4.170   2.343
  191SAPI   O2222001   4.373   4.144   2.267
  191SAPI   C2222002   4.245   4.090   2.472
  191SAPI   H2R22003   4.145   4.126   2.503
  191SAPI   H2S22004   4.246   3.986   2.434
  191SAPI    C322005   4.373   4.454   2.282
  191SAPI    HX22006   4.389   4.527   2.200
  191SAPI    HY22007   4.460   4.388   2.302
  191SAPI   O3122008   4.345   4.519   2.409
  191SAPI   C3122009   4.441   4.600   2.449
  191SAPI   O3222010   4.544   4.624   2.388
  191SAPI   C3222011   4.411   4.659   2.585
  191SAPI   H2X22012   4.312   4.627   2.622
  191SAPI   H2Y22013   4.411   4.767   2.559
  191SAPI   C2322014   4.349   4.090   2.587
  191SAPI   H3R22015   4.445   4.062   2.537
  191SAPI   H3S22016   4.322   4.011   2.660
  191SAPI   C2422017   4.362   4.212   2.668
  191SAPI   H4R22018   4.377   4.299   2.600
  191SAPI   H4S22019   4.449   4.187   2.732
  191SAPI   C2522020   4.253   4.235   2.769
  191SAPI   H5R22021   4.157   4.270   2.727
  191SAPI   C2622022   4.243   4.210   2.900
  191SAPI   H6R22023   4.140   4.217   2.938
  191SAPI   C2722024   4.355   4.145   2.981
  191SAPI   H7R22025   4.403   4.225   3.043
  191SAPI   H7S22026   4.436   4.108   2.915
  191SAPI   C2822027   4.299   4.030   3.069
  191SAPI   H8R22028   4.249   3.943   3.022
  191SAPI   C2922029   4.286   4.027   3.202
  191SAPI   H9R22030   4.246   3.939   3.254
  191SAPI  C21022031   4.323   4.125   3.310
  191SAPI  H10R22032   4.400   4.196   3.273
  191SAPI  H10S22033   4.378   4.066   3.387
  191SAPI  C21122034   4.208   4.198   3.376
  191SAPI  H11R22035   4.161   4.260   3.298
  191SAPI  C21222036   4.174   4.204   3.510
  191SAPI  H12R22037   4.085   4.268   3.527
  191SAPI  C21322038   4.232   4.145   3.637
  191SAPI  H13R22039   4.280   4.225   3.698
  191SAPI  H13S22040   4.314   4.084   3.593
  191SAPI  C21422041   4.136   4.058   3.711
  191SAPI  H14R22042   4.082   3.972   3.670
  191SAPI  C21522043   4.134   4.062   3.853
  191SAPI  H15R22044   4.061   4.004   3.912
  191SAPI  C21622045   4.223   4.153   3.934
  191SAPI  H16R22046   4.220   4.256   3.892
  191SAPI  H16S22047   4.323   4.108   3.916
  191SAPI  C21722048   4.193   4.155   4.083
  191SAPI  H17R22049   4.287   4.176   4.140
  191SAPI  H17S22050   4.139   4.064   4.116
  191SAPI  C21822051   4.094   4.278   4.110
  191SAPI  H18R22052   4.012   4.259   4.038
  191SAPI  H18S22053   4.128   4.381   4.086
  191SAPI  C21922054   4.038   4.266   4.250
  191SAPI  H19R22055   4.112   4.288   4.330
  191SAPI  H19S22056   4.006   4.162   4.273
  191SAPI  C22022057   3.917   4.359   4.270
  191SAPI  H20R22058   3.943   4.465   4.247
  191SAPI  H20S22059   3.867   4.342   4.368
  191SAPI  H20T22060   3.841   4.334   4.193
  191SAPI   C3322061   4.509   4.613   2.698
  191SAPI   H3X22062   4.597   4.680   2.705
  191SAPI   H3Y22063   4.539   4.508   2.676
  191SAPI   C3422064   4.434   4.611   2.831
  191SAPI   H4X22065   4.361   4.527   2.825
  191SAPI   H4Y22066   4.373   4.703   2.844
  191SAPI   C3522067   4.525   4.597   2.953
  191SAPI   H5X22068   4.591   4.686   2.962
  191SAPI   H5Y22069   4.592   4.509   2.941
  191SAPI   C3622070   4.452   4.583   3.086
  191SAPI   H6X22071   4.398   4.486   3.079
  191SAPI   H6Y22072   4.378   4.663   3.106
  191SAPI   C3722073   4.540   4.560   3.208
  191SAPI   H7X22074   4.600   4.650   3.231
  191SAPI   H7Y22075   4.613   4.478   3.190
  191SAPI   C3822076   4.456   4.525   3.332
  191SAPI   H8X22077   4.388   4.439   3.312
  191SAPI   H8Y22078   4.385   4.609   3.345
  191SAPI   C3922079   4.541   4.500   3.459
  191SAPI   H9X22080   4.606   4.590   3.466
  191SAPI   H9Y22081   4.610   4.414   3.444
  191SAPI  C31022082   4.455   4.477   3.584
  191SAPI  H10X22083   4.401   4.380   3.573
  191SAPI  H10Y22084   4.373   4.551   3.592
  191SAPI  C31122085   4.542   4.484   3.710
  191SAPI  H11X22086   4.571   4.591   3.718
  191SAPI  H11Y22087   4.633   4.422   3.695
  191SAPI  C31222088   4.465   4.448   3.839
  191SAPI  H12X22089   4.423   4.346   3.833
  191SAPI  H12Y22090   4.387   4.528   3.840
  191SAPI  C31322091   4.540   4.463   3.970
  191SAPI  H13X22092   4.591   4.561   3.974
  191SAPI  H13Y22093   4.628   4.395   3.970
  191SAPI  C31422094   4.441   4.442   4.086
  191SAPI  H14X22095   4.386   4.347   4.067
  191SAPI  H14Y22096   4.372   4.528   4.070
  191SAPI  C31522097   4.504   4.437   4.227
  191SAPI  H15X22098   4.551   4.536   4.242
  191SAPI  H15Y22099   4.576   4.352   4.225
  191SAPI  C31622100   4.391   4.411   4.335
  191SAPI  H16X22101   4.333   4.319   4.316
  191SAPI  H16Y22102   4.323   4.499   4.335
  191SAPI  C31722103   4.447   4.393   4.474
  191SAPI  H17X22104   4.530   4.460   4.504
  191SAPI  H17Y22105   4.503   4.297   4.480
  191SAPI  C31822106   4.342   4.397   4.590
  191SAPI  H18X22107   4.250   4.338   4.571
  191SAPI  H18Y22108   4.304   4.501   4.602
  191SAPI  H18Z22109   4.382   4.366   4.689
  192SAPI   C1222110   0.111   6.537   2.169
  192SAPI    H222111   0.189   6.499   2.238
  192SAPI    O222112   0.160   6.547   2.036
  192SAPI   HO222113   0.255   6.561   2.036
  192SAPI   C1322114   6.844   6.444   2.181
  192SAPI    H322115   6.805   6.449   2.286
  192SAPI    O322116   0.021   6.307   2.137
  192SAPI   HO322117   6.854   6.248   2.210
  192SAPI   C1422118   6.725   6.503   2.104
  192SAPI    H422119   6.745   6.506   1.995
  192SAPI    O422120   6.603   6.436   2.131
  192SAPI   HO422121   6.577   6.458   2.221
  192SAPI   C1522122   6.710   6.651   2.127
  192SAPI    H522123   6.651   6.657   2.221
  192SAPI    O522124   6.624   6.711   2.030
  192SAPI   HO522125   6.678   6.737   1.955
  192SAPI   C1622126   6.831   6.740   2.164
  192SAPI    H622127   0.023   6.769   2.068
  192SAPI    O622128   6.784   0.011   2.215
  192SAPI   HO622129   0.009   0.057   2.239
  192SAPI   C1122130   0.085   6.673   2.238
  192SAPI    H122131   0.050   6.660   2.343
  192SAPI     P22132   0.315   6.743   2.370
  192SAPI   O1322133   0.446   6.804   2.330
  192SAPI   O1422134   0.329   6.605   2.418
  192SAPI   O1222135   0.205   6.756   2.247
  192SAPI   O1122136   0.272   6.832   2.488
  192SAPI    C122137   0.189   6.768   2.589
  192SAPI    HA22138   0.099   6.726   2.539
  192SAPI    HB22139   0.241   6.695   2.653
  192SAPI    C222140   0.131   0.016   2.687
  192SAPI    HS22141   0.095   6.808   2.771
  192SAPI   O2122142   0.028   0.103   2.633
  192SAPI   C2122143   6.760   0.055   2.641
  192SAPI   O2222144   6.737   6.799   2.676
  192SAPI   C2222145   6.650   0.161   2.611
  192SAPI   H2R22146   6.704   0.252   2.576
  192SAPI   H2S22147   6.579   0.108   2.544
  192SAPI    C322148   0.243   0.110   2.744
  192SAPI    HX22149   0.263   0.178   2.659
  192SAPI    HY22150   0.328   0.040   2.763
  192SAPI   O3122151   0.222   0.179   2.867
  192SAPI   C3122152   0.217   0.318   2.855
  192SAPI   O3222153   0.236   0.372   2.750
  192SAPI   C3222154   0.171   0.379   2.987
  192SAPI   H2X22155   0.233   0.341   3.070
  192SAPI   H2Y22156   0.064   0.353   3.003
  192SAPI   C2322157   6.568   0.191   2.737
  192SAPI   H3R22158   6.537   0.100   2.792
  192SAPI   H3S22159   6.471   0.234   2.702
  192SAPI   C2422160   6.640   0.280   2.835
  192SAPI   H4R22161   6.687   0.354   2.766
  192SAPI   H4S22162   6.732   0.225   2.864
  192SAPI   C2522163   6.577   0.324   2.959
  192SAPI   H5R22164   6.514   0.412   2.940
  192SAPI   C2622165   6.583   0.266   3.077
  192SAPI   H6R22166   6.539   0.319   3.162
  192SAPI   C2722167   6.657   0.142   3.110
  192SAPI   H7R22168   6.765   0.144   3.082
  192SAPI   H7S22169   6.618   0.054   3.055
  192SAPI   C2822170   6.662   0.104   3.263
  192SAPI   H8R22171   6.568   0.058   3.295
  192SAPI   C2922172   6.760   0.142   3.348
  192SAPI   H9R22173   6.744   0.110   3.452
  192SAPI  C21022174   0.022   0.236   3.330
  192SAPI  H10R22175   0.029   0.313   3.411
  192SAPI  H10S22176   0.016   0.294   3.236
  192SAPI  C21122177   0.150   0.160   3.334
  192SAPI  H11R22178   0.192   0.132   3.236
  192SAPI  C21222179   0.229   0.135   3.444
  192SAPI  H12R22180   0.321   0.077   3.429
  192SAPI  C21322181   0.191   0.164   3.589
  192SAPI  H13R22182   0.136   0.072   3.618
  192SAPI  H13S22183   0.128   0.255   3.601
  192SAPI  C21422184   0.295   0.183   3.699
  192SAPI  H14R22185   0.395   0.214   3.663
  192SAPI  C21522186   0.294   0.156   3.831
  192SAPI  H15R22187   0.381   0.181   3.893
  192SAPI  C21622188   0.164   0.124   3.906
  192SAPI  H16R22189   0.092   0.077   3.836
  192SAPI  H16S22190   0.121   0.215   3.952
  192SAPI  C21722191   0.191   0.017   4.015
  192SAPI  H17R22192   0.088   6.846   4.046
  192SAPI  H17S22193   0.249   0.063   4.098
  192SAPI  C21822194   0.254   6.746   3.949
  192SAPI  H18R22195   0.351   6.774   3.904
  192SAPI  H18S22196   0.177   6.701   3.884
  192SAPI  C21922197   0.279   6.635   4.056
  192SAPI  H19R22198   0.186   6.580   4.084
  192SAPI  H19S22199   0.331   6.685   4.140
  192SAPI  C22022200   0.375   6.531   4.004
  192SAPI  H20R22201   0.386   6.446   4.075
  192SAPI  H20S22202   0.474   6.566   3.967
  192SAPI  H20T22203   0.325   6.489   3.915
  192SAPI   C3322204   0.176   0.536   2.983
  192SAPI   H3X22205   0.089   0.580   2.929
  192SAPI   H3Y22206   0.272   0.560   2.932
  192SAPI   C3422207   0.179   0.603   3.118
  192SAPI   H4X22208   0.099   0.551   3.176
  192SAPI   H4Y22209   0.160   0.713   3.121
  192SAPI   C3522210   0.315   0.582   3.197
  192SAPI   H5X22211   0.387   0.663   3.175
  192SAPI   H5Y22212   0.354   0.488   3.152
  192SAPI   C3622213   0.300   0.557   3.342
  192SAPI   H6X22214   0.206   0.499   3.358
  192SAPI   H6Y22215   0.273   0.657   3.384
  192SAPI   C3722216   0.411   0.483   3.420
  192SAPI   H7X22217   0.407   0.378   3.382
  192SAPI   H7Y22218   0.379   0.486   3.527
  192SAPI   C3822219   0.549   0.530   3.391
  192SAPI   H8X22220   0.560   0.529   3.280
  192SAPI   H8Y22221   0.635   0.467   3.422
  192SAPI   C3922222   0.586   0.671   3.431
  192SAPI   H9X22223   0.503   0.743   3.415
  192SAPI   H9Y22224   0.669   0.707   3.367
  192SAPI  C31022225   0.625   0.664   3.581
  192SAPI  H10X22226   0.719   0.605   3.587
  192SAPI  H10Y22227   0.545   0.615   3.641
  192SAPI  C31122228   0.654   0.806   3.644
  192SAPI  H11X22229   0.731   0.858   3.583
  192SAPI  H11Y22230   0.708   0.787   3.740
  192SAPI  C31222231   0.536   0.907   3.644
  192SAPI  H12X22232   0.506   0.919   3.538
  192SAPI  H12Y22233   0.565   1.010   3.672
  192SAPI  C31322234   0.417   0.863   3.734
  192SAPI  H13X22235   0.369   0.775   3.688
  192SAPI  H13Y22236   0.338   0.941   3.733
  192SAPI  C31422237   0.454   0.824   3.882
  192SAPI  H14X22238   0.515   0.732   3.875
  192SAPI  H14Y22239   0.356   0.807   3.932
  192SAPI  C31522240   0.535   0.942   3.950
  192SAPI  H15X22241   0.471   1.030   3.930
  192SAPI  H15Y22242   0.632   0.958   3.897
  192SAPI  C31622243   0.556   0.930   4.100
  192SAPI  H16X22244   0.615   0.837   4.115
  192SAPI  H16Y22245   0.456   0.906   4.142
  192SAPI  C31722246   0.616   1.052   4.163
  192SAPI  H17X22247   0.664   1.023   4.260
  192SAPI  H17Y22248   0.552   1.139   4.187
  192SAPI  C31822249   0.746   1.115   4.096
  192SAPI  H18X22250   0.813   1.034   4.061
  192SAPI  H18Y22251   0.792   1.184   4.170
  192SAPI  H18Z22252   0.709   1.179   4.013
  193SOD    SOD22253   2.712   4.279   0.912
  194SOD    SOD22254   2.102   5.147   0.361
  195SOD    SOD22255   4.285   1.505   7.139
  196SOD    SOD22256   4.763   0.518   0.708
  197SOD    SOD22257   3.104   1.292   7.077
  198SOD    SOD22258   4.580   3.498   0.380
  199SOD    SOD22259   3.288   4.243   2.099
  200SOD    SOD22260   4.726   3.890   1.349
  201SOD    SOD22261   4.557   5.571   2.115
  202SOD    SOD22262   3.890   1.970   1.476
  203SOD    SOD22263   4.616   4.203   6.467
  204SOD    SOD22264   2.054   3.408   7.066
  205SOD    SOD22265   6.779   2.403   2.092
  206SOD    SOD22266   3.583   3.978   1.375
  207SOD    SOD22267   5.676   2.697   1.252
  208SOD    SOD22268   4.160   0.225   7.104
  209SOD    SOD22269   6.806   3.409   0.863
  210SOD    SOD22270   2.372   3.387   8.453
  211SOD    SOD22271   6.080   2.218   0.112
  212SOD    SOD22272   6.847   0.240   8.417
  213SOD    SOD22273   6.831   4.704   7.212
  214SOD    SOD22274   3.428   0.889   8.430
  215SOD    SOD22275   5.140   6.507   7.781
  216SOD    SOD22276   1.085   3.073   7.096
  217SOD    SOD22277   0.662   4.351   8.326
  218SOD    SOD22278   2.574   6.096   7.054
  219SOD    SOD22279   6.789   2.733   0.992
  220SOD    SOD22280   3.685   3.219   7.380
  221SOD    SOD22281   1.524   4.081   6.594
  222SOD    SOD22282   2.869   0.042   2.020
  223SOD    SOD22283   3.946   6.557   1.917
  224SOD    SOD22284   0.378   2.964   8.632
  225SOD    SOD22285   2.778   0.206   7.062
  226SOD    SOD22286   3.652   3.016   2.200
  227SOD    SOD22287   2.123   1.315   7.318
  228SOD    SOD22288   4.098   5.149   7.070
  229SOD    SOD22289   0.310   0.785   6.486
  230SOD    SOD22290   2.626   2.199   7.611
  231SOD    SOD22291   3.341   4.862   8.506
  232SOD    SOD22292   1.681   3.834   7.231
  233SOD    SOD22293   2.367   2.253   2.363
  234CLA    CLA22294   3.408   0.451   8.421
  235CLA    CLA22295   3.443   5.213   7.197
  236CLA    CLA22296   6.787   1.647   7.103
  237CLA    CLA22297   3.546   2.866   7.829
  238CLA    CLA22298   4.301   1.642   0.515
  239CLA    CLA22299   3.188   4.359   7.859
  240CLA    CLA22300   6.734   3.088   1.246
  241CLA    CLA22301   2.899   6.546   8.106
  242CLA    CLA22302   2.595   4.775   0.778
  243CLA    CLA22303   2.039   2.896   7.327
  244CLA    CLA22304   6.564   2.399   0.194
  245CLA    CLA22305   6.457   4.490   0.947
  246CLA    CLA22306   0.031   6.678   7.421
  247CLA    CLA22307   2.519   1.898   0.671
  248CLA    CLA22308   2.931   3.847   1.357
  249CLA    CLA22309   0.413   3.336   7.249
  250CLA    CLA22310   5.219   5.253   7.468
  251TIP3   OH222311   1.190   0.532   8.465
  251TIP3    H122312   1.146   0.543   8.381
  251TIP3    H222313   1.171   0.442   8.491
  252TIP3   OH222314   2.586   0.627   0.875
  252TIP3    H122315   2.673   0.657   0.899
  252TIP3    H222316   2.549   0.590   0.955
  253TIP3   OH222317   2.070   1.364   1.489
  253TIP3    H122318   2.111   1.401   1.567
  253TIP3    H222319   1.984   1.334   1.518
  254TIP3   OH222320   4.271   4.748   1.800
  254TIP3    H122321   4.233   4.698   1.728
  254TIP3    H222322   4.203   4.810   1.826
  255TIP3   OH222323   6.342   6.033   6.013
  255TIP3    H122324   6.348   6.079   5.929
  255TIP3    H222325   6.330   5.941   5.990
  256TIP3   OH222326   0.596   0.306   7.503
  256TIP3    H122327   0.534   0.378   7.490
  256TIP3    H222328   0.617   0.276   7.414
  257TIP3   OH222329   5.183   0.067   7.628
  257TIP3    H122330   5.120   0.063   7.556
  257TIP3    H222331   5.268   0.066   7.585
  258TIP3   OH222332   3.094   2.310   2.630
  258TIP3    H122333   3.046   2.227   2.635
  258TIP3    H222334   3.173   2.295   2.683
  259TIP3   OH222335   1.955   0.544   7.128
  259TIP3    H122336   1.968   0.482   7.057
  259TIP3    H222337   1.998   0.504   7.204
  260TIP3   OH222338   4.082   1.612   7.108
  260TIP3    H122339   4.027   1.559   7.050
  260TIP3    H222340   4.101   1.691   7.058
  261TIP3   OH222341   1.515   5.748   7.184
  261TIP3    H122342   1.529   5.693   7.260
  261TIP3    H222343   1.477   5.829   7.219
  262TIP3   OH222344   4.752   6.258   1.837
  262TIP3    H122345   4.712   6.173   1.855
  262TIP3    H222346   4.705   6.291   1.761
  263TIP3   OH222347   6.492   4.920   7.171
  263TIP3    H122348   6.578   4.889   7.144
  263TIP3    H222349   6.431   4.877   7.112
  264TIP3   OH222350   5.178   1.448   0.511
  264TIP3    H122351   5.169   1.435   0.606
  264TIP3    H222352   5.219   1.368   0.479
  265TIP3   OH222353   0.314   1.841   0.131
  265TIP3    H122354   0.335   1.864   0.040
  265TIP3    H222355   0.236   1.787   0.124
  266TIP3   OH222356   1.468   5.276   8.131
  266TIP3    H122357   1.530   5.311   8.066
  266TIP3    H222358   1.428   5.201   8.088
  267TIP3   OH222359   1.024   5.127   0.595
  267TIP3    H122360   1.052   5.199   0.651
  267TIP3    H222361   0.960   5.166   0.535
  268TIP3   OH222362   4.617   4.684   1.164
  268TIP3    H122363   4.666   4.751   1.116
  268TIP3    H222364   4.683   4.643   1.221
  269TIP3   OH222365   3.106   1.754   0.011
  269TIP3    H122366   3.139   1.841   0.034
  269TIP3    H222367   3.043   1.771   8.654
  270TIP3   OH222368   5.428   0.282   8.579
  270TIP3    H122369   5.451   0.266   8.487
  270TIP3    H222370   5.512   0.295   8.623
  271TIP3   OH222371   2.627   5.458   1.073
  271TIP3    H122372   2.715   5.430   1.098
  271TIP3    H222373   2.587   5.380   1.034
  272TIP3   OH222374   0.088   3.105   0.473
  272TIP3    H122375   0.173   3.065   0.456
  272TIP3    H222376   0.036   3.036   0.514
  273TIP3   OH222377   1.715   3.013   1.494
  273TIP3    H122378   1.671   2.956   1.558
  273TIP3    H222379   1.708   2.967   1.411
  274TIP3   OH222380   3.944   1.942   0.924
  274TIP3    H122381   4.017   1.934   0.863
  274TIP3    H222382   3.943   1.858   0.971
  275TIP3   OH222383   3.151   1.004   0.775
  275TIP3    H122384   3.204   1.062   0.830
  275TIP3    H222385   3.187   1.015   0.687
  276TIP3   OH222386   4.489   6.002   2.317
  276TIP3    H122387   4.441   6.069   2.366
  276TIP3    H222388   4.547   6.052   2.259
  277TIP3   OH222389   6.373   2.092   6.580
  277TIP3    H122390   6.467   2.080   6.567
  277TIP3    H222391   6.355   2.055   6.666
  278TIP3   OH222392   0.216   4.385   6.987
  278TIP3    H122393   0.309   4.392   6.969
  278TIP3    H222394   0.173   4.417   6.907
  279TIP3   OH222395   0.448   3.273   2.176
  279TIP3    H122396   0.524   3.273   2.235
  279TIP3    H222397   0.424   3.365   2.167
  280TIP3   OH222398   6.647   2.742   6.525
  280TIP3    H122399   6.658   2.702   6.439
  280TIP3    H222400   6.729   2.789   6.541
  281TIP3   OH222401   4.569   5.458   8.582
  281TIP3    H122402   4.578   5.442   8.488
  281TIP3    H222403   4.625   5.532   8.600
  282TIP3   OH222404   5.177   0.449   8.218
  282TIP3    H122405   5.206   0.442   8.127
  282TIP3    H222406   5.212   0.532   8.248
  283TIP3   OH222407   6.285   4.271   6.879
  283TIP3    H122408   6.191   4.258   6.875
  283TIP3    H222409   6.297   4.366   6.874
  284TIP3   OH222410   0.272   3.644   1.092
  284TIP3    H122411   0.202   3.709   1.091
  284TIP3    H222412   0.235   3.569   1.045
  285TIP3   OH222413   0.247   4.126   0.944
  285TIP3    H122414   0.342   4.120   0.955
  285TIP3    H222415   0.215   4.155   1.029
  286TIP3   OH222416   4.388   2.169   1.652
  286TIP3    H122417   4.385   2.224   1.731
  286TIP3    H222418   4.360   2.227   1.582
  287TIP3   OH222419   6.775   3.616   7.225
  287TIP3    H122420   0.009   3.585   7.222
  287TIP3    H222421   6.746   3.599   7.315
  288TIP3   OH222422   6.511   5.220   6.650
  288TIP3    H122423   6.582   5.174   6.696
  288TIP3    H222424   6.533   5.313   6.659
  289TIP3   OH222425   2.421   0.837   7.082
  289TIP3    H122426   2.407   0.868   6.992
  289TIP3    H222427   2.353   0.771   7.095
  290TIP3   OH222428   3.945   6.684   7.211
  290TIP3    H122429   4.029   6.660   7.172
  290TIP3    H222430   3.904   6.601   7.234
  291TIP3   OH222431   0.566   1.755   7.123
  291TIP3    H122432   0.503   1.774   7.053
  291TIP3    H222433   0.576   1.838   7.169
  292TIP3   OH222434   2.758   1.201   0.753
  292TIP3    H122435   2.697   1.133   0.726
  292TIP3    H222436   2.719   1.283   0.722
  293TIP3   OH222437   1.482   1.787   7.877
  293TIP3    H122438   1.481   1.719   7.944
  293TIP3    H222439   1.431   1.750   7.804
  294TIP3   OH222440   5.572   3.915   7.256
  294TIP3    H122441   5.665   3.936   7.266
  294TIP3    H222442   5.571   3.832   7.209
  295TIP3   OH222443   0.647   5.726   8.450
  295TIP3    H122444   0.559   5.703   8.479
  295TIP3    H222445   0.705   5.677   8.508
  296TIP3   OH222446   1.541   5.738   1.903
  296TIP3    H122447   1.586   5.654   1.907
  296TIP3    H222448   1.543   5.771   1.993
  297TIP3   OH222449   2.377   1.704   7.886
  297TIP3    H122450   2.302   1.763   7.898
  297TIP3    H222451   2.367   1.672   7.796
  298TIP3   OH222452   5.864   5.491   8.112
  298TIP3    H122453   5.773   5.487   8.084
  298TIP3    H222454   5.909   5.425   8.059
  299TIP3   OH222455   1.201   5.093   1.880
  299TIP3    H122456   1.163   5.177   1.906
  299TIP3    H222457   1.132   5.050   1.830
  300TIP3   OH222458   4.182   2.163   7.885
  300TIP3    H122459   4.136   2.247   7.873
  300TIP3    H222460   4.143   2.126   7.964
  301TIP3   OH222461   5.889   5.576   0.743
  301TIP3    H122462   5.881   5.559   0.649
  301TIP3    H222463   5.812   5.535   0.781
  302TIP3   OH222464   2.641   5.413   7.519
  302TIP3    H122465   2.673   5.415   7.429
  302TIP3    H222466   2.624   5.504   7.541
  303TIP3   OH222467   5.716   2.934   1.237
  303TIP3    H122468   5.697   2.987   1.160
  303TIP3    H222469   5.700   2.992   1.311
  304TIP3   OH222470   3.449   0.696   8.600
  304TIP3    H122471   3.501   0.647   8.663
  304TIP3    H222472   3.409   0.629   8.545
  305TIP3   OH222473   2.437   0.265   0.365
  305TIP3    H122474   2.414   0.183   0.320
  305TIP3    H222475   2.532   0.260   0.376
  306TIP3   OH222476   0.361   4.961   7.248
  306TIP3    H122477   0.307   5.039   7.237
  306TIP3    H222478   0.408   4.953   7.165
  307TIP3   OH222479   4.359   2.857   6.895
  307TIP3    H122480   4.396   2.790   6.952
  307TIP3    H222481   4.363   2.819   6.807
  308TIP3   OH222482   3.141   4.447   8.497
  308TIP3    H122483   3.093   4.502   8.558
  308TIP3    H222484   3.233   4.468   8.512
  309TIP3   OH222485   6.811   3.995   2.191
  309TIP3    H122486   0.046   4.023   2.191
  309TIP3    H222487   6.816   3.900   2.192
  310TIP3   OH222488   4.349   1.969   6.465
  310TIP3    H122489   4.282   2.037   6.457
  310TIP3    H222490   4.305   1.896   6.508
  311TIP3   OH222491   3.433   1.219   1.693
  311TIP3    H122492   3.495   1.213   1.766
  311TIP3    H222493   3.488   1.233   1.616
  312TIP3   OH222494   4.486   6.048   0.296
  312TIP3    H122495   4.484   6.139   0.265
  312TIP3    H222496   4.566   6.012   0.258
  313TIP3   OH222497   5.461   2.418   7.757
  313TIP3    H122498   5.382   2.463   7.790
  313TIP3    H222499   5.454   2.330   7.793
  314TIP3   OH222500   2.838   0.061   7.827
  314TIP3    H122501   2.881   0.145   7.816
  314TIP3    H222502   2.813   0.034   7.739
  315TIP3   OH222503   2.598   1.292   8.148
  315TIP3    H122504   2.532   1.226   8.169
  315TIP3    H222505   2.640   1.312   8.231
  316TIP3   OH222506   4.109   5.443   7.392
  316TIP3    H122507   4.111   5.347   7.395
  316TIP3    H222508   4.048   5.463   7.320
  317TIP3   OH222509   0.252   2.521   8.620
  317TIP3    H122510   0.340   2.485   8.609
  317TIP3    H222511   0.242   2.531   0.001
  318TIP3   OH222512   2.147   2.274   8.219
  318TIP3    H122513   2.206   2.302   8.289
  318TIP3    H222514   2.190   2.304   8.139
  319TIP3   OH222515   6.035   0.828   1.497
  319TIP3    H122516   6.010   0.738   1.519
  319TIP3    H222517   6.077   0.861   1.576
  320TIP3   OH222518   2.213   5.889   8.111
  320TIP3    H122519   2.233   5.952   8.043
  320TIP3    H222520   2.235   5.934   8.193
  321TIP3   OH222521   0.284   3.262   8.029
  321TIP3    H122522   0.211   3.268   8.091
  321TIP3    H222523   0.327   3.347   8.035
  322TIP3   OH222524   6.282   1.375   1.834
  322TIP3    H122525   6.213   1.430   1.870
  322TIP3    H222526   6.304   1.415   1.750
  323TIP3   OH222527   5.288   1.473   7.705
  323TIP3    H122528   5.382   1.456   7.713
  323TIP3    H222529   5.250   1.437   7.785
  324TIP3   OH222530   1.828   0.457   1.335
  324TIP3    H122531   1.878   0.487   1.412
  324TIP3    H222532   1.769   0.529   1.314
  325TIP3   OH222533   0.999   1.277   6.177
  325TIP3    H122534   0.921   1.226   6.155
  325TIP3    H222535   0.966   1.361   6.208
  326TIP3   OH222536   6.854   4.630   0.624
  326TIP3    H122537   0.075   4.684   0.613
  326TIP3    H222538   0.024   4.563   0.687
  327TIP3   OH222539   6.525   2.636   8.691
  327TIP3    H122540   6.531   2.570   0.046
  327TIP3    H222541   6.465   2.599   8.627
  328TIP3   OH222542   6.356   1.911   1.587
  328TIP3    H122543   6.309   1.883   1.666
  328TIP3    H222544   6.288   1.945   1.530
  329TIP3   OH222545   6.413   4.956   1.180
  329TIP3    H122546   6.475   4.899   1.225
  329TIP3    H222547   6.358   4.991   1.251
  330TIP3   OH222548   1.864   5.353   1.279
  330TIP3    H122549   1.804   5.426   1.293
  330TIP3    H222550   1.837   5.315   1.195
  331TIP3   OH222551   4.559   1.528   1.508
  331TIP3    H122552   4.536   1.620   1.498
  331TIP3    H222553   4.654   1.528   1.516
  332TIP3   OH222554   6.259   0.459   7.394
  332TIP3    H122555   6.314   0.509   7.334
  332TIP3    H222556   6.308   0.378   7.410
  333TIP3   OH222557   3.478   2.154   1.255
  333TIP3    H122558   3.427   2.092   1.204
  333TIP3    H222559   3.528   2.203   1.189
  334TIP3   OH222560   1.242   1.598   0.830
  334TIP3    H122561   1.156   1.557   0.836
  334TIP3    H222562   1.303   1.532   0.865
  335TIP3   OH222563   4.592   6.353   0.793
  335TIP3    H122564   4.513   6.335   0.844
  335TIP3    H222565   4.664   6.324   0.849
  336TIP3   OH222566   4.461   3.975   7.119
  336TIP3    H122567   4.458   3.980   7.024
  336TIP3    H222568   4.417   3.892   7.139
  337TIP3   OH222569   4.839   4.124   6.517
  337TIP3    H122570   4.862   4.157   6.603
  337TIP3    H222571   4.916   4.140   6.463
  338TIP3   OH222572   0.198   4.646   1.359
  338TIP3    H122573   0.106   4.619   1.360
  338TIP3    H222574   0.247   4.566   1.382
  339TIP3   OH222575   1.626   2.987   7.630
  339TIP3    H122576   1.590   2.926   7.695
  339TIP3    H222577   1.715   2.957   7.616
  340TIP3   OH222578   6.032   5.819   0.788
  340TIP3    H122579   5.984   5.741   0.757
  340TIP3    H222580   6.087   5.787   0.859
  341TIP3   OH222581   2.457   2.402   8.494
  341TIP3    H122582   2.496   2.489   8.503
  341TIP3    H222583   2.528   2.341   8.518
  342TIP3   OH222584   2.771   3.301   1.926
  342TIP3    H122585   2.775   3.328   2.018
  342TIP3    H222586   2.691   3.247   1.921
  343TIP3   OH222587   5.982   1.716   7.954
  343TIP3    H122588   5.992   1.630   7.996
  343TIP3    H222589   5.986   1.697   7.860
  344TIP3   OH222590   4.469   2.328   7.263
  344TIP3    H122591   4.538   2.388   7.291
  344TIP3    H222592   4.482   2.250   7.317
  345TIP3   OH222593   1.532   1.425   7.886
  345TIP3    H122594   1.511   1.474   7.966
  345TIP3    H222595   1.623   1.397   7.899
  346TIP3   OH222596   5.827   4.169   8.115
  346TIP3    H122597   5.807   4.258   8.085
  346TIP3    H222598   5.790   4.113   8.047
  347TIP3   OH222599   2.918   5.353   0.000
  347TIP3    H122600   3.009   5.346   0.031
  347TIP3    H222601   2.888   5.437   0.033
  348TIP3   OH222602   1.400   4.437   6.980
  348TIP3    H122603   1.314   4.399   6.957
  348TIP3    H222604   1.433   4.473   6.898
  349TIP3   OH222605   5.309   6.725   7.346
  349TIP3    H122606   5.350   6.644   7.318
  349TIP3    H222607   5.242   6.743   7.279
  350TIP3   OH222608   2.536   2.658   7.805
  350TIP3    H122609   2.512   2.693   7.891
  350TIP3    H222610   2.592   2.725   7.767
  351TIP3   OH222611   1.680   6.433   5.916
  351TIP3    H122612   1.756   6.484   5.888
  351TIP3    H222613   1.607   6.494   5.909
  352TIP3   OH222614   1.873   3.511   1.562
  352TIP3    H122615   1.856   3.583   1.502
  352TIP3    H222616   1.883   3.434   1.506
  353TIP3   OH222617   5.062   2.127   6.394
  353TIP3    H122618   5.151   2.145   6.425
  353TIP3    H222619   5.009   2.197   6.433
  354TIP3   OH222620   0.625   1.248   7.687
  354TIP3    H122621   0.626   1.341   7.708
  354TIP3    H222622   0.533   1.222   7.695
  355TIP3   OH222623   4.233   6.228   0.354
  355TIP3    H122624   4.287   6.304   0.377
  355TIP3    H222625   4.292   6.153   0.361
  356TIP3   OH222626   2.708   0.540   8.595
  356TIP3    H122627   2.727   0.526   8.502
  356TIP3    H222628   2.720   0.634   8.608
  357TIP3   OH222629   3.524   6.548   7.031
  357TIP3    H122630   3.616   6.562   7.010
  357TIP3    H222631   3.524   6.530   7.125
  358TIP3   OH222632   4.157   1.905   8.456
  358TIP3    H122633   4.174   1.816   8.426
  358TIP3    H222634   4.085   1.897   8.519
  359TIP3   OH222635   1.128   0.018   8.272
  359TIP3    H122636   1.037   6.845   8.269
  359TIP3    H222637   1.161   0.001   8.184
  360TIP3   OH222638   4.563   4.119   8.619
  360TIP3    H122639   4.630   4.188   8.617
  360TIP3    H222640   4.528   4.117   8.530
  361TIP3   OH222641   6.246   1.150   0.937
  361TIP3    H122642   6.206   1.236   0.919
  361TIP3    H222643   6.173   1.089   0.936
  362TIP3   OH222644   2.645   3.437   0.651
  362TIP3    H122645   2.638   3.521   0.606
  362TIP3    H222646   2.593   3.448   0.731
  363TIP3   OH222647   5.612   6.338   6.946
  363TIP3    H122648   5.698   6.351   6.904
  363TIP3    H222649   5.549   6.372   6.882
  364TIP3   OH222650   2.678   1.526   1.325
  364TIP3    H122651   2.723   1.525   1.410
  364TIP3    H222652   2.708   1.608   1.284
  365TIP3   OH222653   6.493   0.355   7.896
  365TIP3    H122654   6.514   0.274   7.943
  365TIP3    H222655   6.421   0.331   7.838
  366TIP3   OH222656   2.440   5.118   7.236
  366TIP3    H122657   2.477   5.144   7.152
  366TIP3    H222658   2.347   5.137   7.229
  367TIP3   OH222659   6.025   4.584   1.728
  367TIP3    H122660   5.995   4.498   1.696
  367TIP3    H222661   5.982   4.593   1.813
  368TIP3   OH222662   4.863   3.157   1.372
  368TIP3    H122663   4.919   3.080   1.385
  368TIP3    H222664   4.795   3.127   1.312
  369TIP3   OH222665   5.229   2.121   0.276
  369TIP3    H122666   5.141   2.134   0.240
  369TIP3    H222667   5.245   2.027   0.266
  370TIP3   OH222668   5.098   3.135   6.926
  370TIP3    H122669   5.184   3.130   6.885
  370TIP3    H222670   5.037   3.150   6.853
  371TIP3   OH222671   5.971   0.076   6.423
  371TIP3    H122672   6.006   0.000   6.470
  371TIP3    H222673   5.884   0.048   6.394
  372TIP3   OH222674   0.973   0.977   0.347
  372TIP3    H122675   0.938   0.898   0.305
  372TIP3    H222676   1.041   1.008   0.287
  373TIP3   OH222677   0.698   0.454   8.511
  373TIP3    H122678   0.623   0.505   8.481
  373TIP3    H222679   0.761   0.519   8.541
  374TIP3   OH222680   4.723   6.850   7.626
  374TIP3    H122681   4.736   0.087   7.610
  374TIP3    H222682   4.787   6.829   7.694
  375TIP3   OH222683   6.587   4.630   8.086
  375TIP3    H122684   6.581   4.555   8.026
  375TIP3    H222685   6.517   4.616   8.149
  376TIP3   OH222686   2.179   4.828   7.442
  376TIP3    H122687   2.259   4.854   7.396
  376TIP3    H222688   2.185   4.732   7.447
  377TIP3   OH222689   2.371   6.331   0.662
  377TIP3    H122690   2.329   6.417   0.662
  377TIP3    H222691   2.310   6.274   0.616
  378TIP3   OH222692   1.388   6.180   8.271
  378TIP3    H122693   1.353   6.209   8.355
  378TIP3    H222694   1.314   6.185   8.211
  379TIP3   OH222695   2.689   0.092   6.064
  379TIP3    H122696   2.775   0.132   6.056
  379TIP3    H222697   2.677   0.043   5.983
  380TIP3   OH222698   5.524   5.097   1.325
  380TIP3    H122699   5.564   5.150   1.394
  380TIP3    H222700   5.432   5.120   1.327
  381TIP3   OH222701   2.027   5.280   0.534
  381TIP3    H122702   1.981   5.245   0.610
  381TIP3    H222703   2.081   5.351   0.570
  382TIP3   OH222704   6.505   4.267   8.222
  382TIP3    H122705   6.496   4.220   8.305
  382TIP3    H222706   6.488   4.358   8.244
  383TIP3   OH222707   0.677   6.387   7.405
  383TIP3    H122708   0.615   6.452   7.436
  383TIP3    H222709   0.629   6.337   7.339
  384TIP3   OH222710   3.821   3.763   7.483
  384TIP3    H122711   3.869   3.840   7.455
  384TIP3    H222712   3.887   3.694   7.492
  385TIP3   OH222713   4.867   2.801   7.220
  385TIP3    H122714   4.917   2.720   7.233
  385TIP3    H222715   4.932   2.864   7.189
  386TIP3   OH222716   3.594   4.845   0.206
  386TIP3    H122717   3.652   4.852   0.281
  386TIP3    H222718   3.584   4.935   0.175
  387TIP3   OH222719   5.434   2.107   7.791
  387TIP3    H122720   5.344   2.114   7.823
  387TIP3    H222721   5.476   2.046   7.852
  388TIP3   OH222722   6.241   3.747   8.275
  388TIP3    H122723   6.263   3.840   8.281
  388TIP3    H222724   6.291   3.716   8.199
  389TIP3   OH222725   3.034   6.686   7.852
  389TIP3    H122726   2.962   6.746   7.836
  389TIP3    H222727   2.997   6.618   7.908
  390TIP3   OH222728   4.891   0.125   1.382
  390TIP3    H122729   4.817   0.179   1.409
  390TIP3    H222730   4.960   0.187   1.358
  391TIP3   OH222731   5.547   0.887   1.256
  391TIP3    H122732   5.564   0.794   1.237
  391TIP3    H222733   5.517   0.923   1.172
  392TIP3   OH222734   2.557   3.504   1.155
  392TIP3    H122735   2.516   3.586   1.126
  392TIP3    H222736   2.559   3.512   1.250
  393TIP3   OH222737   3.624   1.212   1.911
  393TIP3    H122738   3.603   1.131   1.958
  393TIP3    H222739   3.718   1.205   1.893
  394TIP3   OH222740   0.014   4.353   0.718
  394TIP3    H122741   6.776   4.358   0.701
  394TIP3    H222742   0.038   4.265   0.688
  395TIP3   OH222743   4.135   0.663   0.171
  395TIP3    H122744   4.199   0.723   0.210
  395TIP3    H222745   4.188   0.595   0.130
  396TIP3   OH222746   4.434   1.452   7.831
  396TIP3    H122747   4.510   1.511   7.833
  396TIP3    H222748   4.449   1.391   7.902
  397TIP3   OH222749   6.219   5.438   6.937
  397TIP3    H122750   6.202   5.466   7.027
  397TIP3    H222751   6.262   5.353   6.946
  398TIP3   OH222752   2.131   6.075   7.811
  398TIP3    H122753   2.083   5.993   7.804
  398TIP3    H222754   2.095   6.118   7.889
  399TIP3   OH222755   5.756   5.532   0.173
  399TIP3    H122756   5.711   5.535   0.257
  399TIP3    H222757   5.798   5.446   0.171
  400TIP3   OH222758   5.439   1.677   8.499
  400TIP3    H122759   5.506   1.733   8.462
  400TIP3    H222760   5.473   1.588   8.488
  401TIP3   OH222761   5.462   6.340   1.435
  401TIP3    H122762   5.381   6.297   1.464
  401TIP3    H222763   5.528   6.271   1.437
  402TIP3   OH222764   3.124   0.039   0.310
  402TIP3    H122765   3.057   6.827   0.313
  402TIP3    H222766   3.077   0.117   0.282
  403TIP3   OH222767   4.268   1.225   0.595
  403TIP3    H122768   4.284   1.238   0.689
  403TIP3    H222769   4.331   1.158   0.569
  404TIP3   OH222770   3.335   6.548   1.901
  404TIP3    H122771   3.246   6.513   1.903
  404TIP3    H222772   3.365   6.544   1.991
  405TIP3   OH222773   3.842   1.522   0.517
  405TIP3    H122774   3.849   1.613   0.487
  405TIP3    H222775   3.925   1.482   0.491
  406TIP3   OH222776   2.107   4.040   8.559
  406TIP3    H122777   2.114   4.037   8.464
  406TIP3    H222778   2.192   4.010   8.591
  407TIP3   OH222779   5.961   6.504   0.906
  407TIP3    H122780   5.916   6.430   0.948
  407TIP3    H222781   5.963   6.572   0.973
  408TIP3   OH222782   3.044   2.782   0.212
  408TIP3    H122783   3.037   2.877   0.208
  408TIP3    H222784   3.084   2.764   0.297
  409TIP3   OH222785   6.401   6.356   0.982
  409TIP3    H122786   6.434   6.430   0.931
  409TIP3    H222787   6.367   6.395   1.062
  410TIP3   OH222788   5.185   1.366   7.944
  410TIP3    H122789   5.238   1.385   8.022
  410TIP3    H222790   5.096   1.353   7.977
  411TIP3   OH222791   3.786   4.156   1.770
  411TIP3    H122792   3.744   4.167   1.685
  411TIP3    H222793   3.799   4.245   1.802
  412TIP3   OH222794   4.494   3.298   0.448
  412TIP3    H122795   4.554   3.331   0.515
  412TIP3    H222796   4.441   3.232   0.493
  413TIP3   OH222797   0.864   6.015   1.059
  413TIP3    H122798   0.801   5.962   1.108
  413TIP3    H222799   0.823   6.029   0.974
  414TIP3   OH222800   2.802   3.610   8.300
  414TIP3    H122801   2.808   3.517   8.277
  414TIP3    H222802   2.817   3.656   8.218
  415TIP3   OH222803   6.126   3.830   7.323
  415TIP3    H122804   6.051   3.774   7.340
  415TIP3    H222805   6.202   3.773   7.334
  416TIP3   OH222806   5.556   6.238   7.718
  416TIP3    H122807   5.521   6.302   7.657
  416TIP3    H222808   5.632   6.281   7.758
  417TIP3   OH222809   4.611   2.074   1.523
  417TIP3    H122810   4.541   2.101   1.583
  417TIP3    H222811   4.585   1.986   1.495
  418TIP3   OH222812   1.480   4.741   1.483
  418TIP3    H122813   1.483   4.661   1.535
  418TIP3    H222814   1.549   4.796   1.519
  419TIP3   OH222815   2.052   5.991   0.605
  419TIP3    H122816   2.064   5.913   0.660
  419TIP3    H222817   1.957   5.994   0.590
  420TIP3   OH222818   3.940   4.761   0.002
  420TIP3    H122819   4.020   4.776   8.666
  420TIP3    H222820   3.927   4.841   0.053
  421TIP3   OH222821   2.892   6.338   0.817
  421TIP3    H122822   2.824   6.403   0.798
  421TIP3    H222823   2.847   6.271   0.869
  422TIP3   OH222824   0.670   4.568   7.739
  422TIP3    H122825   0.624   4.488   7.715
  422TIP3    H222826   0.666   4.622   7.661
  423TIP3   OH222827   4.623   2.574   7.821
  423TIP3    H122828   4.536   2.534   7.817
  423TIP3    H222829   4.609   2.664   7.793
  424TIP3   OH222830   3.700   2.695   7.607
  424TIP3    H122831   3.656   2.736   7.681
  424TIP3    H222832   3.664   2.607   7.603
  425TIP3   OH222833   5.714   5.894   1.323
  425TIP3    H122834   5.805   5.898   1.351
  425TIP3    H222835   5.706   5.960   1.254
  426TIP3   OH222836   3.795   2.455   2.321
  426TIP3    H122837   3.884   2.466   2.288
  426TIP3    H222838   3.803   2.387   2.388
  427TIP3   OH222839   0.274   0.568   7.600
  427TIP3    H122840   0.248   0.493   7.547
  427TIP3    H222841   0.365   0.585   7.577
  428TIP3   OH222842   0.733   6.544   0.988
  428TIP3    H122843   0.767   6.631   0.967
  428TIP3    H222844   0.641   6.548   0.962
  429TIP3   OH222845   4.700   2.743   0.828
  429TIP3    H122846   4.681   2.837   0.835
  429TIP3    H222847   4.762   2.726   0.899
  430TIP3   OH222848   0.349   6.291   2.063
  430TIP3    H122849   0.280   6.353   2.038
  430TIP3    H222850   0.381   6.323   2.148
  431TIP3   OH222851   0.896   6.676   7.981
  431TIP3    H122852   0.908   6.634   7.896
  431TIP3    H222853   0.862   6.763   7.960
  432TIP3   OH222854   5.968   6.283   7.539
  432TIP3    H122855   5.921   6.200   7.547
  432TIP3    H222856   5.969   6.318   7.628
  433TIP3   OH222857   2.757   0.156   1.331
  433TIP3    H122858   2.790   0.239   1.296
  433TIP3    H222859   2.787   0.155   1.422
  434TIP3   OH222860   6.527   3.108   0.842
  434TIP3    H122861   6.545   3.165   0.768
  434TIP3    H222862   6.476   3.162   0.902
  435TIP3   OH222863   1.136   1.818   0.267
  435TIP3    H122864   1.053   1.834   0.311
  435TIP3    H222865   1.173   1.742   0.312
  436TIP3   OH222866   1.789   5.943   1.383
  436TIP3    H122867   1.842   5.865   1.400
  436TIP3    H222868   1.709   5.909   1.344
  437TIP3   OH222869   5.319   0.680   2.353
  437TIP3    H122870   5.259   0.752   2.335
  437TIP3    H222871   5.279   0.632   2.425
  438TIP3   OH222872   4.395   3.201   0.812
  438TIP3    H122873   4.301   3.183   0.814
  438TIP3    H222874   4.404   3.288   0.849
  439TIP3   OH222875   6.213   3.161   0.572
  439TIP3    H122876   6.290   3.104   0.572
  439TIP3    H222877   6.149   3.115   0.517
  440TIP3   OH222878   6.509   3.398   8.683
  440TIP3    H122879   6.446   3.452   8.634
  440TIP3    H222880   6.575   3.461   8.712
  441TIP3   OH222881   5.442   2.760   6.720
  441TIP3    H122882   5.387   2.747   6.797
  441TIP3    H222883   5.407   2.699   6.655
  442TIP3   OH222884   4.666   3.924   7.442
  442TIP3    H122885   4.659   3.829   7.430
  442TIP3    H222886   4.757   3.944   7.420
  443TIP3   OH222887   2.552   0.377   0.753
  443TIP3    H122888   2.539   0.467   0.783
  443TIP3    H222889   2.644   0.373   0.727
  444TIP3   OH222890   4.542   6.095   1.096
  444TIP3    H122891   4.576   6.047   1.020
  444TIP3    H222892   4.581   6.182   1.088
  445TIP3   OH222893   6.386   1.899   0.590
  445TIP3    H122894   6.329   1.964   0.631
  445TIP3    H222895   6.325   1.838   0.549
  446TIP3   OH222896   2.274   0.971   1.233
  446TIP3    H122897   2.198   0.918   1.258
  446TIP3    H222898   2.238   1.058   1.216
  447TIP3   OH222899   6.523   4.289   0.012
  447TIP3    H122900   6.491   4.269   0.100
  447TIP3    H222901   6.543   4.383   0.015
  448TIP3   OH222902   1.593   3.785   8.123
  448TIP3    H122903   1.609   3.762   8.215
  448TIP3    H222904   1.516   3.733   8.099
  449TIP3   OH222905   3.985   0.689   7.027
  449TIP3    H122906   4.051   0.757   7.043
  449TIP3    H222907   3.961   0.701   6.935
  450TIP3   OH222908   4.875   6.636   2.421
  450TIP3    H122909   4.803   6.658   2.362
  450TIP3    H222910   4.855   6.684   2.502
  451TIP3   OH222911   6.532   0.006   6.270
  451TIP3    H122912   6.452   6.826   6.232
  451TIP3    H222913   6.585   6.787   6.292
  452TIP3   OH222914   3.186   5.162   1.499
  452TIP3    H122915   3.124   5.177   1.428
  452TIP3    H222916   3.132   5.132   1.572
  453TIP3   OH222917   5.583   6.654   6.726
  453TIP3    H122918   5.619   6.698   6.649
  453TIP3    H222919   5.570   6.564   6.699
  454TIP3   OH222920   3.795   2.451   7.778
  454TIP3    H122921   3.874   2.452   7.723
  454TIP3    H222922   3.800   2.532   7.827
  455TIP3   OH222923   1.741   3.425   0.633
  455TIP3    H122924   1.717   3.516   0.620
  455TIP3    H222925   1.836   3.423   0.624
  456TIP3   OH222926   0.434   2.379   7.017
  456TIP3    H122927   0.451   2.392   6.924
  456TIP3    H222928   0.407   2.466   7.048
  457TIP3   OH222929   0.586   1.267   1.152
  457TIP3    H122930   0.522   1.310   1.095
  457TIP3    H222931   0.656   1.239   1.093
  458TIP3   OH222932   0.568   4.282   7.083
  458TIP3    H122933   0.520   4.211   7.125
  458TIP3    H222934   0.544   4.276   6.990
  459TIP3   OH222935   0.959   4.452   1.245
  459TIP3    H122936   1.025   4.484   1.306
  459TIP3    H222937   0.878   4.494   1.274
  460TIP3   OH222938   1.986   0.133   0.691
  460TIP3    H122939   1.952   0.101   0.774
  460TIP3    H222940   2.081   0.126   0.699
  461TIP3   OH222941   0.483   5.960   2.414
  461TIP3    H122942   0.491   5.902   2.490
  461TIP3    H222943   0.529   6.040   2.440
  462TIP3   OH222944   5.423   3.530   0.015
  462TIP3    H122945   5.406   3.622   8.713
  462TIP3    H222946   5.455   3.496   8.645
  463TIP3   OH222947   3.785   2.193   8.616
  463TIP3    H122948   3.820   2.105   8.602
  463TIP3    H222949   3.830   2.247   8.552
  464TIP3   OH222950   0.550   3.945   1.749
  464TIP3    H122951   0.457   3.966   1.754
  464TIP3    H222952   0.558   3.888   1.673
  465TIP3   OH222953   6.082   1.350   0.023
  465TIP3    H122954   6.050   1.260   0.013
  465TIP3    H222955   6.122   1.351   0.110
  466TIP3   OH222956   2.496   2.831   0.540
  466TIP3    H122957   2.436   2.812   0.469
  466TIP3    H222958   2.449   2.805   0.619
  467TIP3   OH222959   6.233   5.767   6.703
  467TIP3    H122960   6.196   5.719   6.629
  467TIP3    H222961   6.314   5.805   6.668
  468TIP3   OH222962   5.369   2.342   7.427
  468TIP3    H122963   5.410   2.257   7.446
  468TIP3    H222964   5.398   2.363   7.339
  469TIP3   OH222965   4.210   3.132   7.904
  469TIP3    H122966   4.280   3.073   7.933
  469TIP3    H222967   4.135   3.108   7.958
  470TIP3   OH222968   6.311   0.761   1.850
  470TIP3    H122969   6.273   0.675   1.869
  470TIP3    H222970   6.318   0.764   1.755
  471TIP3   OH222971   3.552   6.339   6.428
  471TIP3    H122972   3.631   6.288   6.447
  471TIP3    H222973   3.485   6.302   6.486
  472TIP3   OH222974   2.951   3.058   8.668
  472TIP3    H122975   2.979   3.041   8.578
  472TIP3    H222976   2.892   2.986   8.689
  473TIP3   OH222977   4.098   3.292   1.546
  473TIP3    H122978   4.009   3.295   1.510
  473TIP3    H222979   4.141   3.369   1.509
  474TIP3   OH222980   2.593   3.912   8.088
  474TIP3    H122981   2.673   3.868   8.060
  474TIP3    H222982   2.592   3.993   8.038
  475TIP3   OH222983   4.401   0.973   0.620
  475TIP3    H122984   4.495   0.992   0.618
  475TIP3    H222985   4.393   0.902   0.684
  476TIP3   OH222986   2.199   4.958   0.516
  476TIP3    H122987   2.262   4.999   0.575
  476TIP3    H222988   2.249   4.891   0.470
  477TIP3   OH222989   3.505   3.565   0.923
  477TIP3    H122990   3.542   3.479   0.943
  477TIP3    H222991   3.576   3.613   0.880
  478TIP3   OH222992   6.006   4.940   2.083
  478TIP3    H122993   5.977   4.866   2.136
  478TIP3    H222994   5.961   5.016   2.121
  479TIP3   OH222995   1.765   5.491   0.242
  479TIP3    H122996   1.741   5.452   0.327
  479TIP3    H222997   1.856   5.521   0.255
  480TIP3   OH222998   5.385   4.979   7.531
  480TIP3    H122999   5.343   4.913   7.586
  480TIP3    H223000   5.317   5.044   7.515
  481TIP3   OH223001   4.797   2.203   1.084
  481TIP3    H123002   4.811   2.109   1.094
  481TIP3    H223003   4.884   2.241   1.086
  482TIP3   OH223004   5.842   6.810   7.583
  482TIP3    H123005   5.811   6.719   7.581
  482TIP3    H223006   5.765   0.006   7.562
  483TIP3   OH223007   1.034   0.416   1.803
  483TIP3    H123008   1.118   0.394   1.761
  483TIP3    H223009   1.042   0.380   1.891
  484TIP3   OH223010   4.048   1.776   7.827
  484TIP3    H123011   4.061   1.750   7.735
  484TIP3    H223012   3.999   1.858   7.822
  485TIP3   OH223013   2.912   0.698   1.203
  485TIP3    H123014   2.993   0.681   1.252
  485TIP3    H223015   2.920   0.642   1.125
  486TIP3   OH223016   4.136   4.686   7.632
  486TIP3    H123017   4.097   4.606   7.667
  486TIP3    H223018   4.083   4.757   7.669
  487TIP3   OH223019   0.228   0.643   1.096
  487TIP3    H123020   0.294   0.607   1.155
  487TIP3    H223021   0.165   0.685   1.154
  488TIP3   OH223022   6.133   4.869   1.149
  488TIP3    H123023   6.140   4.774   1.147
  488TIP3    H223024   6.218   4.900   1.119
  489TIP3   OH223025   4.606   2.915   8.208
  489TIP3    H123026   4.649   2.874   8.283
  489TIP3    H223027   4.542   2.975   8.247
  490TIP3   OH223028   6.155   4.259   8.532
  490TIP3    H123029   6.157   4.193   8.602
  490TIP3    H223030   6.176   4.341   8.576
  491TIP3   OH223031   4.993   3.073   8.380
  491TIP3    H123032   5.070   3.126   8.400
  491TIP3    H223033   4.935   3.132   8.331
  492TIP3   OH223034   6.461   1.136   6.793
  492TIP3    H123035   6.542   1.183   6.814
  492TIP3    H223036   6.391   1.196   6.818
  493TIP3   OH223037   2.161   6.716   7.120
  493TIP3    H123038   2.071   6.684   7.106
  493TIP3    H223039   2.216   6.646   7.086
  494TIP3   OH223040   1.251   0.032   1.610
  494TIP3    H123041   1.282   6.833   1.539
  494TIP3    H223042   1.215   0.109   1.566
  495TIP3   OH223043   3.539   0.515   7.332
  495TIP3    H123044   3.482   0.487   7.404
  495TIP3    H223045   3.515   0.458   7.259
  496TIP3   OH223046   0.806   2.693   1.035
  496TIP3    H123047   0.752   2.770   1.016
  496TIP3    H223048   0.861   2.682   0.957
  497TIP3   OH223049   1.362   0.782   7.331
  497TIP3    H123050   1.428   0.833   7.378
  497TIP3    H223051   1.407   0.750   7.253
  498TIP3   OH223052   2.971   0.513   0.307
  498TIP3    H123053   3.006   0.521   0.395
  498TIP3    H223054   2.918   0.591   0.295
  499TIP3   OH223055   4.217   5.771   8.561
  499TIP3    H123056   4.137   5.719   8.569
  499TIP3    H223057   4.281   5.711   8.524
  500TIP3   OH223058   5.707   2.840   7.547
  500TIP3    H123059   5.676   2.752   7.566
  500TIP3    H223060   5.800   2.829   7.527
  501TIP3   OH223061   3.688   4.641   0.040
  501TIP3    H123062   3.782   4.660   0.035
  501TIP3    H223063   3.652   4.710   0.095
  502TIP3   OH223064   2.185   1.538   8.193
  502TIP3    H123065   2.278   1.523   8.178
  502TIP3    H223066   2.148   1.450   8.206
  503TIP3   OH223067   1.739   5.333   2.165
  503TIP3    H123068   1.770   5.424   2.170
  503TIP3    H223069   1.809   5.282   2.206
  504TIP3   OH223070   4.321   4.576   7.471
  504TIP3    H123071   4.273   4.635   7.529
  504TIP3    H223072   4.330   4.495   7.521
  505TIP3   OH223073   5.177   2.502   0.386
  505TIP3    H123074   5.107   2.455   0.431
  505TIP3    H223075   5.163   2.484   0.293
  506TIP3   OH223076   5.770   0.523   7.512
  506TIP3    H123077   5.782   0.616   7.493
  506TIP3    H223078   5.858   0.487   7.513
  507TIP3   OH223079   0.759   0.623   6.684
  507TIP3    H123080   0.796   0.685   6.620
  507TIP3    H223081   0.667   0.649   6.692
  508TIP3   OH223082   2.956   5.834   0.116
  508TIP3    H123083   3.045   5.799   0.117
  508TIP3    H223084   2.964   5.918   0.071
  509TIP3   OH223085   2.777   1.360   1.815
  509TIP3    H123086   2.796   1.435   1.873
  509TIP3    H223087   2.752   1.290   1.875
  510TIP3   OH223088   3.084   4.712   7.122
  510TIP3    H123089   3.053   4.659   7.195
  510TIP3    H223090   3.017   4.702   7.054
  511TIP3   OH223091   2.743   2.673   0.210
  511TIP3    H123092   2.742   2.584   0.245
  511TIP3    H223093   2.829   2.708   0.235
  512TIP3   OH223094   1.187   5.756   1.592
  512TIP3    H123095   1.199   5.850   1.578
  512TIP3    H223096   1.112   5.751   1.652
  513TIP3   OH223097   6.632   1.955   6.562
  513TIP3    H123098   6.588   1.902   6.628
  513TIP3    H223099   6.612   1.911   6.479
  514TIP3   OH223100   6.594   2.045   0.902
  514TIP3    H123101   6.654   2.094   0.958
  514TIP3    H223102   6.626   2.060   0.813
  515TIP3   OH223103   3.243   1.558   0.840
  515TIP3    H123104   3.198   1.532   0.920
  515TIP3    H223105   3.335   1.534   0.855
  516TIP3   OH223106   4.471   4.655   1.982
  516TIP3    H123107   4.558   4.680   1.950
  516TIP3    H223108   4.410   4.696   1.921
  517TIP3   OH223109   3.244   3.722   0.430
  517TIP3    H123110   3.208   3.725   0.519
  517TIP3    H223111   3.208   3.642   0.393
  518TIP3   OH223112   6.523   4.479   0.239
  518TIP3    H123113   6.598   4.491   0.297
  518TIP3    H223114   6.462   4.549   0.265
  519TIP3   OH223115   5.604   5.882   8.190
  519TIP3    H123116   5.662   5.954   8.167
  519TIP3    H223117   5.641   5.806   8.144
  520TIP3   OH223118   1.506   5.016   7.509
  520TIP3    H123119   1.587   4.974   7.541
  520TIP3    H223120   1.440   4.992   7.574
  521TIP3   OH223121   5.827   4.025   7.178
  521TIP3    H123122   5.852   4.107   7.135
  521TIP3    H223123   5.870   3.957   7.127
  522TIP3   OH223124   1.129   2.683   8.484
  522TIP3    H123125   1.077   2.622   8.536
  522TIP3    H223126   1.094   2.675   8.395
  523TIP3   OH223127   5.207   6.683   1.274
  523TIP3    H123128   5.242   6.599   1.245
  523TIP3    H223129   5.127   6.694   1.223
  524TIP3   OH223130   2.516   5.508   1.867
  524TIP3    H123131   2.477   5.443   1.925
  524TIP3    H223132   2.441   5.550   1.824
  525TIP3   OH223133   0.226   1.261   8.261
  525TIP3    H123134   0.134   1.262   8.286
  525TIP3    H223135   0.270   1.212   8.330
  526TIP3   OH223136   6.553   4.263   1.712
  526TIP3    H123137   6.604   4.313   1.649
  526TIP3    H223138   6.585   4.293   1.797
  527TIP3   OH223139   5.738   4.698   0.279
  527TIP3    H123140   5.772   4.713   0.191
  527TIP3    H223141   5.762   4.607   0.299
  528TIP3   OH223142   1.679   6.269   1.174
  528TIP3    H123143   1.608   6.259   1.237
  528TIP3    H223144   1.637   6.259   1.089
  529TIP3   OH223145   1.446   5.293   2.445
  529TIP3    H123146   1.368   5.258   2.487
  529TIP3    H223147   1.424   5.296   2.352
  530TIP3   OH223148   3.840   4.511   7.622
  530TIP3    H123149   3.803   4.599   7.622
  530TIP3    H223150   3.790   4.464   7.689
  531TIP3   OH223151   1.919   4.777   7.315
  531TIP3    H123152   1.895   4.852   7.260
  531TIP3    H223153   2.009   4.797   7.344
  532TIP3   OH223154   3.854   3.055   0.839
  532TIP3    H123155   3.783   3.104   0.798
  532TIP3    H223156   3.838   2.964   0.813
  533TIP3   OH223157   4.288   4.144   8.554
  533TIP3    H123158   4.352   4.180   8.493
  533TIP3    H223159   4.209   4.131   8.500
  534TIP3   OH223160   6.129   3.687   1.264
  534TIP3    H123161   6.215   3.730   1.258
  534TIP3    H223162   6.148   3.602   1.304
  535TIP3   OH223163   4.955   1.938   0.832
  535TIP3    H123164   4.949   1.952   0.926
  535TIP3    H223165   5.045   1.963   0.810
  536TIP3   OH223166   0.253   1.098   8.041
  536TIP3    H123167   0.261   1.161   8.113
  536TIP3    H223168   0.168   1.118   8.002
  537TIP3   OH223169   2.991   4.540   0.777
  537TIP3    H123170   2.926   4.512   0.842
  537TIP3    H223171   2.995   4.635   0.785
  538TIP3   OH223172   1.777   3.761   0.639
  538TIP3    H123173   1.690   3.736   0.666
  538TIP3    H223174   1.770   3.776   0.544
  539TIP3   OH223175   6.457   4.397   1.277
  539TIP3    H123176   6.415   4.427   1.358
  539TIP3    H223177   6.464   4.475   1.223
  540TIP3   OH223178   1.836   0.412   8.619
  540TIP3    H123179   1.787   0.347   8.568
  540TIP3    H223180   1.847   0.486   8.560
  541TIP3   OH223181   0.403   3.663   8.692
  541TIP3    H123182   0.357   3.746   8.707
  541TIP3    H223183   0.481   3.689   8.642
  542TIP3   OH223184   5.885   4.779   7.204
  542TIP3    H123185   5.827   4.827   7.144
  542TIP3    H223186   5.846   4.692   7.210
  543TIP3   OH223187   4.428   0.257   8.476
  543TIP3    H123188   4.489   0.210   8.419
  543TIP3    H223189   4.414   0.341   8.431
  544TIP3   OH223190   2.328   4.647   0.690
  544TIP3    H123191   2.417   4.671   0.718
  544TIP3    H223192   2.322   4.682   0.601
  545TIP3   OH223193   2.199   1.587   6.926
  545TIP3    H123194   2.129   1.651   6.907
  545TIP3    H223195   2.174   1.510   6.876
  546TIP3   OH223196   1.738   2.333   7.316
  546TIP3    H123197   1.804   2.310   7.251
  546TIP3    H223198   1.705   2.250   7.349
  547TIP3   OH223199   1.986   5.229   7.642
  547TIP3    H123200   1.989   5.224   7.546
  547TIP3    H223201   2.015   5.318   7.662
  548TIP3   OH223202   4.995   4.402   0.911
  548TIP3    H123203   5.013   4.356   0.993
  548TIP3    H223204   4.915   4.361   0.878
  549TIP3   OH223205   2.755   2.536   8.180
  549TIP3    H123206   2.821   2.581   8.127
  549TIP3    H223207   2.770   2.443   8.163
  550TIP3   OH223208   3.878   6.533   8.295
  550TIP3    H123209   3.784   6.547   8.282
  550TIP3    H223210   3.887   6.438   8.306
  551TIP3   OH223211   0.358   0.964   1.146
  551TIP3    H123212   0.307   1.037   1.181
  551TIP3    H223213   0.293   0.905   1.109
  552TIP3   OH223214   0.162   0.851   8.682
  552TIP3    H123215   0.130   0.779   0.022
  552TIP3    H223216   0.210   0.809   8.611
  553TIP3   OH223217   0.029   5.610   1.381
  553TIP3    H123218   6.826   5.539   1.403
  553TIP3    H223219   0.092   5.612   1.453
  554TIP3   OH223220   5.154   2.721   6.794
  554TIP3    H123221   5.102   2.776   6.735
  554TIP3    H223222   5.166   2.639   6.747
  555TIP3   OH223223   3.370   4.176   6.529
  555TIP3    H123224   3.354   4.231   6.452
  555TIP3    H223225   3.450   4.211   6.568
  556TIP3   OH223226   5.679   3.677   8.591
  556TIP3    H123227   5.680   3.773   8.580
  556TIP3    H223228   5.647   3.645   8.506
  557TIP3   OH223229   1.726   3.145   8.103
  557TIP3    H123230   1.797   3.164   8.041
  557TIP3    H223231   1.655   3.111   8.047
  558TIP3   OH223232   6.590   1.151   0.435
  558TIP3    H123233   6.591   1.172   0.528
  558TIP3    H223234   6.498   1.140   0.413
  559TIP3   OH223235   1.370   0.450   1.501
  559TIP3    H123236   1.423   0.522   1.466
  559TIP3    H223237   1.386   0.377   1.441
  560TIP3   OH223238   4.436   1.056   1.527
  560TIP3    H123239   4.395   1.061   1.613
  560TIP3    H223240   4.405   1.134   1.482
  561TIP3   OH223241   0.157   3.358   1.422
  561TIP3    H123242   0.202   3.435   1.388
  561TIP3    H223243   0.088   3.394   1.478
  562TIP3   OH223244   2.913   0.871   1.648
  562TIP3    H123245   2.899   0.812   1.722
  562TIP3    H223246   2.873   0.826   1.573
  563TIP3   OH223247   1.365   0.678   6.752
  563TIP3    H123248   1.281   0.701   6.711
  563TIP3    H223249   1.403   0.762   6.778
  564TIP3   OH223250   0.357   1.317   7.746
  564TIP3    H123251   0.280   1.373   7.749
  564TIP3    H223252   0.404   1.336   7.828
  565TIP3   OH223253   6.247   6.200   0.591
  565TIP3    H123254   6.258   6.163   0.679
  565TIP3    H223255   6.228   6.292   0.605
  566TIP3   OH223256   0.373   5.418   0.917
  566TIP3    H123257   0.354   5.350   0.853
  566TIP3    H223258   0.347   5.381   1.001
  567TIP3   OH223259   2.994   0.466   8.204
  567TIP3    H123260   3.063   0.419   8.158
  567TIP3    H223261   3.014   0.454   8.297
  568TIP3   OH223262   3.332   3.468   8.694
  568TIP3    H123263   3.419   3.444   8.662
  568TIP3    H223264   3.286   3.384   8.703
  569TIP3   OH223265   1.890   3.402   7.248
  569TIP3    H123266   1.943   3.341   7.299
  569TIP3    H223267   1.803   3.398   7.289
  570TIP3   OH223268   4.352   1.385   8.330
  570TIP3    H123269   4.377   1.474   8.307
  570TIP3    H223270   4.257   1.382   8.319
  571TIP3   OH223271   4.819   2.911   8.035
  571TIP3    H123272   4.890   2.886   8.093
  571TIP3    H223273   4.740   2.902   8.088
  572TIP3   OH223274   3.125   4.335   1.584
  572TIP3    H123275   3.122   4.284   1.665
  572TIP3    H223276   3.201   4.393   1.595
  573TIP3   OH223277   1.829   2.213   2.392
  573TIP3    H123278   1.895   2.162   2.345
  573TIP3    H223279   1.747   2.194   2.347
  574TIP3   OH223280   2.644   5.241   8.014
  574TIP3    H123281   2.644   5.155   8.057
  574TIP3    H223282   2.598   5.227   7.932
  575TIP3   OH223283   4.758   0.903   6.460
  575TIP3    H123284   4.827   0.937   6.516
  575TIP3    H223285   4.705   0.847   6.518
  576TIP3   OH223286   3.958   1.194   7.280
  576TIP3    H123287   3.870   1.188   7.245
  576TIP3    H223288   4.010   1.132   7.228
  577TIP3   OH223289   3.260   6.178   0.979
  577TIP3    H123290   3.280   6.231   1.056
  577TIP3    H223291   3.165   6.180   0.972
  578TIP3   OH223292   2.710   1.453   7.328
  578TIP3    H123293   2.775   1.399   7.372
  578TIP3    H223294   2.759   1.529   7.296
  579TIP3   OH223295   6.307   2.758   2.539
  579TIP3    H123296   6.389   2.768   2.490
  579TIP3    H223297   6.327   2.792   2.626
  580TIP3   OH223298   5.928   2.311   6.379
  580TIP3    H123299   6.023   2.310   6.381
  580TIP3    H223300   5.903   2.219   6.392
  581TIP3   OH223301   4.524   4.207   7.749
  581TIP3    H123302   4.568   4.129   7.782
  581TIP3    H223303   4.504   4.188   7.658
  582TIP3   OH223304   1.800   1.183   7.077
  582TIP3    H123305   1.895   1.193   7.084
  582TIP3    H223306   1.781   1.193   6.983
  583TIP3   OH223307   1.714   1.822   1.123
  583TIP3    H123308   1.665   1.816   1.041
  583TIP3    H223309   1.709   1.733   1.160
  584TIP3   OH223310   6.321   5.105   6.817
  584TIP3    H123311   6.370   5.163   6.759
  584TIP3    H223312   6.364   5.020   6.808
  585TIP3   OH223313   2.666   3.391   7.194
  585TIP3    H123314   2.603   3.345   7.251
  585TIP3    H223315   2.747   3.391   7.244
  586TIP3   OH223316   2.568   4.752   6.724
  586TIP3    H123317   2.568   4.674   6.667
  586TIP3    H223318   2.628   4.812   6.681
  587TIP3   OH223319   5.772   0.827   1.718
  587TIP3    H123320   5.729   0.864   1.795
  587TIP3    H223321   5.863   0.816   1.745
  588TIP3   OH223322   6.794   5.323   0.167
  588TIP3    H123323   6.771   5.339   0.075
  588TIP3    H223324   6.766   5.233   0.184
  589TIP3   OH223325   2.198   6.610   2.360
  589TIP3    H123326   2.281   6.569   2.339
  589TIP3    H223327   2.134   6.539   2.356
  590TIP3   OH223328   4.383   6.608   7.890
  590TIP3    H123329   4.422   6.536   7.840
  590TIP3    H223330   4.289   6.598   7.877
  591TIP3   OH223331   6.844   1.350   6.416
  591TIP3    H123332   6.814   1.330   6.328
  591TIP3    H223333   0.057   1.415   6.404
  592TIP3   OH223334   6.308   3.240   8.413
  592TIP3    H123335   6.249   3.176   8.452
  592TIP3    H223336   6.251   3.294   8.357
  593TIP3   OH223337   0.661   0.133   0.322
  593TIP3    H123338   0.691   0.197   0.257
  593TIP3    H223339   0.629   0.187   0.395
  594TIP3   OH223340   2.229   4.774   6.122
  594TIP3    H123341   2.221   4.678   6.121
  594TIP3    H223342   2.150   4.804   6.165
  595TIP3   OH223343   5.570   2.986   8.117
  595TIP3    H123344   5.634   3.045   8.078
  595TIP3    H223345   5.486   3.030   8.106
  596TIP3   OH223346   0.412   0.290   1.636
  596TIP3    H123347   0.373   0.202   1.635
  596TIP3    H223348   0.502   0.276   1.667
  597TIP3   OH223349   3.980   4.788   2.460
  597TIP3    H123350   3.992   4.883   2.461
  597TIP3    H223351   3.951   4.767   2.549
  598TIP3   OH223352   4.644   1.127   7.965
  598TIP3    H123353   4.586   1.089   7.899
  598TIP3    H223354   4.597   1.204   7.997
  599TIP3   OH223355   4.793   1.250   0.013
  599TIP3    H123356   4.771   1.181   8.664
  599TIP3    H223357   4.854   1.207   0.074
  600TIP3   OH223358   5.407   3.735   1.562
  600TIP3    H123359   5.320   3.771   1.580
  600TIP3    H223360   5.467   3.795   1.607
  601TIP3   OH223361   4.195   3.034   7.004
  601TIP3    H123362   4.175   3.023   7.097
  601TIP3    H223363   4.250   2.958   6.983
  602TIP3   OH223364   4.400   1.929   0.441
  602TIP3    H123365   4.369   1.847   0.479
  602TIP3    H223366   4.332   1.993   0.463
  603TIP3   OH223367   4.352   1.649   1.040
  603TIP3    H123368   4.436   1.694   1.026
  603TIP3    H223369   4.328   1.615   0.954
  604TIP3   OH223370   4.679   4.879   2.465
  604TIP3    H123371   4.760   4.908   2.424
  604TIP3    H223372   4.662   4.792   2.426
  605TIP3   OH223373   3.961   6.438   0.894
  605TIP3    H123374   3.934   6.513   0.840
  605TIP3    H223375   3.893   6.372   0.880
  606TIP3   OH223376   4.439   1.496   2.137
  606TIP3    H123377   4.516   1.441   2.149
  606TIP3    H223378   4.473   1.585   2.126
  607TIP3   OH223379   6.288   5.349   8.239
  607TIP3    H123380   6.230   5.295   8.186
  607TIP3    H223381   6.355   5.289   8.271
  608TIP3   OH223382   0.675   2.495   8.295
  608TIP3    H123383   0.607   2.438   8.330
  608TIP3    H223384   0.699   2.455   8.211
  609TIP3   OH223385   6.394   4.055   7.228
  609TIP3    H123386   6.457   4.125   7.249
  609TIP3    H223387   6.437   3.975   7.260
  610TIP3   OH223388   5.360   2.358   8.435
  610TIP3    H123389   5.335   2.450   8.440
  610TIP3    H223390   5.337   2.322   8.521
  611TIP3   OH223391   2.098   2.911   8.392
  611TIP3    H123392   2.141   2.878   8.313
  611TIP3    H223393   2.161   2.895   8.462
  612TIP3   OH223394   0.570   5.378   1.898
  612TIP3    H123395   0.576   5.437   1.973
  612TIP3    H223396   0.561   5.291   1.937
  613TIP3   OH223397   2.521   4.976   1.236
  613TIP3    H123398   2.511   5.029   1.315
  613TIP3    H223399   2.535   4.887   1.269
  614TIP3   OH223400   3.422   6.510   1.654
  614TIP3    H123401   3.395   6.508   1.745
  614TIP3    H223402   3.480   6.435   1.644
  615TIP3   OH223403   2.287   0.722   2.292
  615TIP3    H123404   2.293   0.627   2.297
  615TIP3    H223405   2.305   0.743   2.201
  616TIP3   OH223406   6.330   1.107   8.457
  616TIP3    H123407   6.265   1.037   8.452
  616TIP3    H223408   6.318   1.156   8.376
  617TIP3   OH223409   4.079   1.336   1.614
  617TIP3    H123410   4.025   1.327   1.535
  617TIP3    H223411   4.125   1.419   1.602
  618TIP3   OH223412   5.171   2.756   1.516
  618TIP3    H123413   5.095   2.781   1.567
  618TIP3    H223414   5.173   2.818   1.443
  619TIP3   OH223415   1.851   2.462   0.843
  619TIP3    H123416   1.868   2.556   0.851
  619TIP3    H223417   1.804   2.440   0.923
  620TIP3   OH223418   0.614   0.334   0.588
  620TIP3    H123419   0.704   0.365   0.580
  620TIP3    H223420   0.563   0.394   0.535
  621TIP3   OH223421   3.916   6.694   2.112
  621TIP3    H123422   3.948   6.778   2.146
  621TIP3    H223423   3.827   6.687   2.144
  622TIP3   OH223424   5.567   2.192   1.177
  622TIP3    H123425   5.542   2.104   1.206
  622TIP3    H223426   5.661   2.186   1.161
  623TIP3   OH223427   3.181   0.341   7.105
  623TIP3    H123428   3.170   0.370   7.015
  623TIP3    H223429   3.220   0.254   7.098
  624TIP3   OH223430   0.524   1.646   0.671
  624TIP3    H123431   0.436   1.624   0.699
  624TIP3    H223432   0.570   1.671   0.751
  625TIP3   OH223433   1.531   1.072   0.908
  625TIP3    H123434   1.571   1.132   0.971
  625TIP3    H223435   1.437   1.077   0.927
  626TIP3   OH223436   5.965   5.987   8.606
  626TIP3    H123437   5.939   6.028   8.688
  626TIP3    H223438   5.885   5.985   8.553
  627TIP3   OH223439   5.461   6.701   0.223
  627TIP3    H123440   5.429   6.618   0.187
  627TIP3    H223441   5.555   6.701   0.203
  628TIP3   OH223442   4.967   0.256   0.531
  628TIP3    H123443   5.053   0.288   0.558
  628TIP3    H223444   4.983   0.166   0.502
  629TIP3   OH223445   4.355   5.286   0.912
  629TIP3    H123446   4.428   5.246   0.865
  629TIP3    H223447   4.354   5.242   0.997
  630TIP3   OH223448   1.419   6.803   0.908
  630TIP3    H123449   1.335   6.826   0.867
  630TIP3    H223450   1.473   0.025   0.896
  631TIP3   OH223451   1.367   1.010   0.510
  631TIP3    H123452   1.418   1.065   0.569
  631TIP3    H223453   1.309   1.072   0.465
  632TIP3   OH223454   0.010   2.633   6.850
  632TIP3    H123455   6.775   2.641   6.879
  632TIP3    H223456   0.050   2.716   6.874
  633TIP3   OH223457   3.196   6.059   7.503
  633TIP3    H123458   3.229   6.104   7.425
  633TIP3    H223459   3.219   6.118   7.576
  634TIP3   OH223460   6.344   2.102   6.861
  634TIP3    H123461   6.251   2.122   6.857
  634TIP3    H223462   6.358   2.071   6.950
  635TIP3   OH223463   2.857   3.788   8.054
  635TIP3    H123464   2.851   3.841   7.975
  635TIP3    H223465   2.895   3.847   8.120
  636TIP3   OH223466   4.497   2.845   0.273
  636TIP3    H123467   4.514   2.894   0.193
  636TIP3    H223468   4.583   2.835   0.314
  637TIP3   OH223469   2.910   2.825   8.195
  637TIP3    H123470   2.843   2.770   8.235
  637TIP3    H223471   2.965   2.764   8.146
  638TIP3   OH223472   1.439   1.258   8.466
  638TIP3    H123473   1.504   1.249   8.536
  638TIP3    H223474   1.491   1.277   8.387
  639TIP3   OH223475   5.598   4.069   8.251
  639TIP3    H123476   5.677   4.100   8.205
  639TIP3    H223477   5.536   4.142   8.243
  640TIP3   OH223478   5.778   6.575   7.734
  640TIP3    H123479   5.754   6.530   7.652
  640TIP3    H223480   5.730   6.526   7.802
  641TIP3   OH223481   5.771   5.696   6.114
  641TIP3    H123482   5.765   5.611   6.157
  641TIP3    H223483   5.680   5.723   6.101
  642TIP3   OH223484   5.946   1.566   0.321
  642TIP3    H123485   5.867   1.532   0.278
  642TIP3    H223486   5.932   1.660   0.327
  643TIP3   OH223487   2.891   4.808   1.428
  643TIP3    H123488   2.874   4.822   1.335
  643TIP3    H223489   2.830   4.867   1.473
  644TIP3   OH223490   1.925   3.126   0.069
  644TIP3    H123491   1.870   3.197   0.103
  644TIP3    H223492   1.869   3.081   0.005
  645TIP3   OH223493   0.748   1.632   0.880
  645TIP3    H123494   0.832   1.620   0.836
  645TIP3    H223495   0.763   1.604   0.970
  646TIP3   OH223496   4.490   3.459   0.173
  646TIP3    H123497   4.462   3.369   0.187
  646TIP3    H223498   4.455   3.482   0.086
  647TIP3   OH223499   5.450   2.773   1.308
  647TIP3    H123500   5.435   2.748   1.399
  647TIP3    H223501   5.388   2.719   1.258
  648TIP3   OH223502   6.008   6.759   7.881
  648TIP3    H123503   6.021   6.792   7.792
  648TIP3    H223504   5.947   6.687   7.871
  649TIP3   OH223505   1.438   4.002   7.937
  649TIP3    H123506   1.379   3.937   7.975
  649TIP3    H223507   1.434   3.985   7.843
  650TIP3   OH223508   6.812   0.684   0.388
  650TIP3    H123509   6.728   0.729   0.395
  650TIP3    H223510   6.820   0.635   0.470
  651TIP3   OH223511   1.395   4.285   1.326
  651TIP3    H123512   1.371   4.352   1.261
  651TIP3    H223513   1.317   4.231   1.335
  652TIP3   OH223514   0.228   3.466   7.503
  652TIP3    H123515   0.300   3.447   7.442
  652TIP3    H223516   0.179   3.384   7.508
  653TIP3   OH223517   3.995   2.483   0.907
  653TIP3    H123518   4.027   2.566   0.940
  653TIP3    H223519   3.905   2.476   0.941
  654TIP3   OH223520   0.251   3.270   7.742
  654TIP3    H123521   0.261   3.262   7.837
  654TIP3    H223522   0.300   3.350   7.719
  655TIP3   OH223523   1.876   0.198   7.179
  655TIP3    H123524   1.867   0.237   7.092
  655TIP3    H223525   1.943   0.250   7.223
  656TIP3   OH223526   1.329   3.343   7.596
  656TIP3    H123527   1.407   3.321   7.647
  656TIP3    H223528   1.259   3.349   7.661
  657TIP3   OH223529   2.431   1.442   1.198
  657TIP3    H123530   2.521   1.451   1.231
  657TIP3    H223531   2.439   1.383   1.123
  658TIP3   OH223532   5.031   5.083   2.338
  658TIP3    H123533   5.078   5.164   2.320
  658TIP3    H223534   5.089   5.033   2.394
  659TIP3   OH223535   3.398   0.558   6.904
  659TIP3    H123536   3.447   0.639   6.890
  659TIP3    H223537   3.446   0.512   6.973
  660TIP3   OH223538   0.747   2.256   0.879
  660TIP3    H123539   0.684   2.322   0.850
  660TIP3    H223540   0.788   2.225   0.798
  661TIP3   OH223541   3.701   2.956   1.849
  661TIP3    H123542   3.662   3.018   1.787
  661TIP3    H223543   3.626   2.917   1.894
  662TIP3   OH223544   3.270   2.062   7.734
  662TIP3    H123545   3.347   2.048   7.791
  662TIP3    H223546   3.224   1.978   7.736
  663TIP3   OH223547   1.237   6.841   8.015
  663TIP3    H123548   1.287   6.764   7.988
  663TIP3    H223549   1.271   0.055   7.959
  664TIP3   OH223550   5.768   4.091   8.651
  664TIP3    H123551   5.786   4.000   8.675
  664TIP3    H223552   5.686   4.088   8.602
  665TIP3   OH223553   3.154   2.755   1.627
  665TIP3    H123554   3.250   2.749   1.618
  665TIP3    H223555   3.141   2.819   1.697
  666TIP3   OH223556   4.850   3.696   1.395
  666TIP3    H123557   4.854   3.602   1.379
  666TIP3    H223558   4.833   3.704   1.489
  667TIP3   OH223559   1.592   5.840   6.947
  667TIP3    H123560   1.598   5.793   7.030
  667TIP3    H223561   1.550   5.923   6.969
  668TIP3   OH223562   2.997   5.521   1.169
  668TIP3    H123563   2.994   5.613   1.193
  668TIP3    H223564   2.956   5.476   1.243
  669TIP3   OH223565   2.244   3.083   1.417
  669TIP3    H123566   2.284   3.169   1.400
  669TIP3    H223567   2.287   3.051   1.496
  670TIP3   OH223568   6.432   0.224   0.100
  670TIP3    H123569   6.415   0.218   0.194
  670TIP3    H223570   6.479   0.143   0.080
  671TIP3   OH223571   1.315   2.715   0.441
  671TIP3    H123572   1.234   2.667   0.457
  671TIP3    H223573   1.332   2.705   0.348
  672TIP3   OH223574   1.681   4.522   8.198
  672TIP3    H123575   1.765   4.499   8.238
  672TIP3    H223576   1.678   4.617   8.200
  673TIP3   OH223577   6.620   5.050   0.770
  673TIP3    H123578   6.675   5.003   0.708
  673TIP3    H223579   6.592   4.983   0.833
  674TIP3   OH223580   2.980   5.077   6.518
  674TIP3    H123581   2.959   5.168   6.536
  674TIP3    H223582   2.943   5.060   6.432
  675TIP3   OH223583   3.646   5.844   0.040
  675TIP3    H123584   3.627   5.816   0.130
  675TIP3    H223585   3.741   5.850   0.036
  676TIP3   OH223586   6.189   4.118   6.340
  676TIP3    H123587   6.219   4.155   6.423
  676TIP3    H223588   6.266   4.120   6.283
  677TIP3   OH223589   5.925   3.649   0.121
  677TIP3    H123590   5.865   3.712   0.162
  677TIP3    H223591   5.899   3.564   0.156
  678TIP3   OH223592   6.329   2.136   0.996
  678TIP3    H123593   6.338   2.224   0.961
  678TIP3    H223594   6.398   2.085   0.954
  679TIP3   OH223595   5.393   1.916   0.554
  679TIP3    H123596   5.379   1.846   0.617
  679TIP3    H223597   5.371   1.877   0.469
  680TIP3   OH223598   3.149   1.489   6.956
  680TIP3    H123599   3.114   1.578   6.953
  680TIP3    H223600   3.240   1.499   6.927
  681TIP3   OH223601   1.125   3.723   7.647
  681TIP3    H123602   1.120   3.711   7.552
  681TIP3    H223603   1.125   3.818   7.659
  682TIP3   OH223604   6.616   2.741   7.676
  682TIP3    H123605   6.680   2.778   7.737
  682TIP3    H223606   6.567   2.817   7.643
  683TIP3   OH223607   1.985   3.281   1.304
  683TIP3    H123608   1.926   3.291   1.229
  683TIP3    H223609   2.073   3.283   1.267
  684TIP3   OH223610   3.226   3.276   0.287
  684TIP3    H123611   3.237   3.263   0.381
  684TIP3    H223612   3.182   3.197   0.256
  685TIP3   OH223613   0.982   5.658   0.989
  685TIP3    H123614   0.913   5.592   0.977
  685TIP3    H223615   0.963   5.725   0.924
  686TIP3   OH223616   5.451   1.103   6.948
  686TIP3    H123617   5.414   1.066   6.867
  686TIP3    H223618   5.420   1.045   7.017
  687TIP3   OH223619   5.984   1.178   0.558
  687TIP3    H123620   5.946   1.188   0.471
  687TIP3    H223621   6.044   1.252   0.566
  688TIP3   OH223622   1.978   1.706   6.577
  688TIP3    H123623   2.056   1.694   6.631
  688TIP3    H223624   1.983   1.637   6.512
  689TIP3   OH223625   6.001   0.577   1.591
  689TIP3    H123626   6.006   0.487   1.558
  689TIP3    H223627   6.039   0.572   1.679
  690TIP3   OH223628   1.977   6.608   1.276
  690TIP3    H123629   1.956   6.563   1.358
  690TIP3    H223630   2.053   6.562   1.242
  691TIP3   OH223631   1.670   0.830   8.444
  691TIP3    H123632   1.670   0.840   8.349
  691TIP3    H223633   1.763   0.825   8.467
  692TIP3   OH223634   2.680   2.344   8.619
  692TIP3    H123635   2.756   2.313   8.570
  692TIP3    H223636   2.692   2.306   8.707
  693TIP3   OH223637   2.043   1.573   7.318
  693TIP3    H123638   2.116   1.623   7.280
  693TIP3    H223639   1.965   1.618   7.287
  694TIP3   OH223640   1.323   0.204   7.383
  694TIP3    H123641   1.414   0.230   7.399
  694TIP3    H223642   1.286   0.192   7.471
  695TIP3   OH223643   5.334   4.115   8.445
  695TIP3    H123644   5.264   4.148   8.503
  695TIP3    H223645   5.289   4.096   8.362
  696TIP3   OH223646   2.410   4.266   0.504
  696TIP3    H123647   2.402   4.171   0.501
  696TIP3    H223648   2.336   4.296   0.556
  697TIP3   OH223649   1.008   0.975   1.581
  697TIP3    H123650   0.992   0.959   1.674
  697TIP3    H223651   1.023   1.070   1.576
  698TIP3   OH223652   5.288   0.789   0.998
  698TIP3    H123653   5.232   0.825   0.929
  698TIP3    H223654   5.336   0.865   1.032
  699TIP3   OH223655   5.257   3.006   0.157
  699TIP3    H123656   5.237   3.036   0.068
  699TIP3    H223657   5.172   3.009   0.202
  700TIP3   OH223658   1.396   4.489   6.398
  700TIP3    H123659   1.442   4.484   6.314
  700TIP3    H223660   1.413   4.577   6.429
  701TIP3   OH223661   1.797   1.175   1.313
  701TIP3    H123662   1.791   1.234   1.388
  701TIP3    H223663   1.805   1.088   1.351
  702TIP3   OH223664   3.312   1.763   7.491
  702TIP3    H123665   3.230   1.793   7.450
  702TIP3    H223666   3.355   1.711   7.423
  703TIP3   OH223667   5.189   4.280   0.766
  703TIP3    H123668   5.123   4.323   0.822
  703TIP3    H223669   5.218   4.349   0.706
  704TIP3   OH223670   6.176   2.008   7.958
  704TIP3    H123671   6.127   1.971   8.031
  704TIP3    H223672   6.252   2.050   7.999
  705TIP3   OH223673   0.171   5.312   8.086
  705TIP3    H123674   0.113   5.348   8.018
  705TIP3    H223675   0.190   5.387   8.142
  706TIP3   OH223676   2.501   4.324   1.311
  706TIP3    H123677   2.443   4.390   1.349
  706TIP3    H223678   2.589   4.355   1.331
  707TIP3   OH223679   5.108   4.556   0.574
  707TIP3    H123680   5.156   4.573   0.655
  707TIP3    H223681   5.142   4.620   0.512
  708TIP3   OH223682   0.749   0.399   1.348
  708TIP3    H123683   0.701   0.481   1.356
  708TIP3    H223684   0.791   0.387   1.434
  709TIP3   OH223685   3.094   2.639   0.755
  709TIP3    H123686   3.086   2.664   0.847
  709TIP3    H223687   3.071   2.718   0.706
  710TIP3   OH223688   3.760   3.450   0.032
  710TIP3    H123689   3.745   3.511   0.105
  710TIP3    H223690   3.754   3.364   0.072
  711TIP3   OH223691   0.989   0.614   6.856
  711TIP3    H123692   0.913   0.622   6.798
  711TIP3    H223693   1.026   0.702   6.858
  712TIP3   OH223694   5.340   3.172   8.047
  712TIP3    H123695   5.346   3.242   8.112
  712TIP3    H223696   5.330   3.217   7.963
  713TIP3   OH223697   1.835   5.833   8.113
  713TIP3    H123698   1.766   5.768   8.111
  713TIP3    H223699   1.791   5.916   8.093
  714TIP3   OH223700   3.418   4.464   0.841
  714TIP3    H123701   3.382   4.509   0.764
  714TIP3    H223702   3.438   4.534   0.903
  715TIP3   OH223703   1.796   0.114   7.725
  715TIP3    H123704   1.779   0.199   7.767
  715TIP3    H223705   1.826   0.058   7.797
  716TIP3   OH223706   5.024   0.391   7.396
  716TIP3    H123707   5.072   0.449   7.337
  716TIP3    H223708   5.043   0.303   7.363
  717TIP3   OH223709   4.580   5.708   1.673
  717TIP3    H123710   4.648   5.640   1.670
  717TIP3    H223711   4.556   5.722   1.582
  718TIP3   OH223712   0.580   5.672   6.187
  718TIP3    H123713   0.623   5.704   6.108
  718TIP3    H223714   0.546   5.751   6.229
  719TIP3   OH223715   4.757   3.941   7.864
  719TIP3    H123716   4.803   4.020   7.839
  719TIP3    H223717   4.796   3.872   7.810
  720TIP3   OH223718   6.661   0.339   8.502
  720TIP3    H123719   6.626   0.425   8.524
  720TIP3    H223720   6.584   0.282   8.492
  721TIP3   OH223721   5.556   6.364   8.380
  721TIP3    H123722   5.509   6.327   8.454
  721TIP3    H223723   5.646   6.334   8.391
  722TIP3   OH223724   5.369   0.352   2.053
  722TIP3    H123725   5.438   0.391   2.107
  722TIP3    H223726   5.389   0.259   2.051
  723TIP3   OH223727   6.501   1.802   6.747
  723TIP3    H123728   6.459   1.744   6.684
  723TIP3    H223729   6.449   1.792   6.827
  724TIP3   OH223730   6.704   1.436   6.891
  724TIP3    H123731   6.704   1.501   6.961
  724TIP3    H223732   6.735   1.356   6.933
  725TIP3   OH223733   5.359   2.915   0.745
  725TIP3    H123734   5.297   2.930   0.674
  725TIP3    H223735   5.397   3.001   0.763
  726TIP3   OH223736   3.788   4.205   7.471
  726TIP3    H123737   3.706   4.157   7.463
  726TIP3    H223738   3.765   4.285   7.518
  727TIP3   OH223739   0.127   1.118   6.028
  727TIP3    H123740   0.080   1.201   6.034
  727TIP3    H223741   0.194   1.124   6.096
  728TIP3   OH223742   4.394   5.525   7.313
  728TIP3    H123743   4.300   5.508   7.313
  728TIP3    H223744   4.431   5.459   7.256
  729TIP3   OH223745   3.935   2.416   0.149
  729TIP3    H123746   3.955   2.399   0.057
  729TIP3    H223747   3.871   2.349   0.172
  730TIP3   OH223748   2.225   1.034   1.891
  730TIP3    H123749   2.315   1.029   1.921
  730TIP3    H223750   2.188   0.948   1.913
  731TIP3   OH223751   3.807   3.976   8.330
  731TIP3    H123752   3.735   3.960   8.268
  731TIP3    H223753   3.809   4.071   8.340
  732TIP3   OH223754   4.132   6.133   7.384
  732TIP3    H123755   4.175   6.047   7.383
  732TIP3    H223756   4.052   6.120   7.332
  733TIP3   OH223757   5.988   3.242   8.049
  733TIP3    H123758   5.940   3.159   8.048
  733TIP3    H223759   5.939   3.298   7.988
  734TIP3   OH223760   6.165   2.612   0.546
  734TIP3    H123761   6.152   2.637   0.454
  734TIP3    H223762   6.199   2.691   0.587
  735TIP3   OH223763   2.768   0.797   0.314
  735TIP3    H123764   2.722   0.745   0.248
  735TIP3    H223765   2.735   0.764   0.398
  736TIP3   OH223766   3.967   1.266   2.160
  736TIP3    H123767   3.907   1.328   2.120
  736TIP3    H223768   4.052   1.310   2.160
  737TIP3   OH223769   2.795   3.774   6.876
  737TIP3    H123770   2.738   3.740   6.807
  737TIP3    H223771   2.883   3.748   6.850
  738TIP3   OH223772   5.429   1.163   1.435
  738TIP3    H123773   5.494   1.123   1.378
  738TIP3    H223774   5.346   1.124   1.409
  739TIP3   OH223775   0.988   6.343   7.158
  739TIP3    H123776   0.994   6.356   7.063
  739TIP3    H223777   1.006   6.430   7.195
  740TIP3   OH223778   4.038   1.392   7.561
  740TIP3    H123779   4.004   1.472   7.600
  740TIP3    H223780   4.080   1.420   7.480
  741TIP3   OH223781   2.190   3.373   0.085
  741TIP3    H123782   2.181   3.308   0.156
  741TIP3    H223783   2.138   3.448   0.114
  742TIP3   OH223784   1.202   5.385   7.430
  742TIP3    H123785   1.201   5.344   7.343
  742TIP3    H223786   1.122   5.354   7.472
  743TIP3   OH223787   4.600   5.992   1.744
  743TIP3    H123788   4.549   5.988   1.825
  743TIP3    H223789   4.595   5.903   1.709
  744TIP3   OH223790   2.229   3.891   6.300
  744TIP3    H123791   2.151   3.868   6.351
  744TIP3    H223792   2.241   3.985   6.315
  745TIP3   OH223793   6.670   2.684   0.394
  745TIP3    H123794   6.613   2.690   0.317
  745TIP3    H223795   6.720   2.603   0.381
  746TIP3   OH223796   0.978   3.156   0.549
  746TIP3    H123797   1.006   3.065   0.548
  746TIP3    H223798   0.998   3.187   0.637
  747TIP3   OH223799   2.741   2.241   7.840
  747TIP3    H123800   2.755   2.296   7.917
  747TIP3    H223801   2.751   2.151   7.872
  748TIP3   OH223802   3.903   1.609   7.352
  748TIP3    H123803   3.813   1.576   7.355
  748TIP3    H223804   3.936   1.580   7.267
  749TIP3   OH223805   0.400   3.184   6.784
  749TIP3    H123806   0.490   3.214   6.792
  749TIP3    H223807   0.352   3.260   6.752
  750TIP3   OH223808   0.038   2.657   1.736
  750TIP3    H123809   0.066   2.720   1.803
  750TIP3    H223810   6.802   2.641   1.756
  751TIP3   OH223811   2.351   2.028   2.273
  751TIP3    H123812   2.413   1.956   2.271
  751TIP3    H223813   2.268   1.991   2.241
  752TIP3   OH223814   1.193   5.429   1.210
  752TIP3    H123815   1.154   5.485   1.276
  752TIP3    H223816   1.286   5.426   1.233
  753TIP3   OH223817   5.935   4.956   8.175
  753TIP3    H123818   5.963   4.866   8.190
  753TIP3    H223819   5.992   5.009   8.231
  754TIP3   OH223820   1.933   0.582   0.113
  754TIP3    H123821   1.840   0.589   0.092
  754TIP3    H223822   1.974   0.551   0.032
  755TIP3   OH223823   3.901   1.954   0.201
  755TIP3    H123824   3.838   1.916   0.139
  755TIP3    H223825   3.960   1.882   0.222
  756TIP3   OH223826   6.314   5.044   8.589
  756TIP3    H123827   6.340   5.090   8.669
  756TIP3    H223828   6.394   4.999   8.560
  757TIP3   OH223829   1.884   2.937   6.449
  757TIP3    H123830   1.874   2.843   6.433
  757TIP3    H223831   1.976   2.954   6.430
  758TIP3   OH223832   4.828   1.083   0.775
  758TIP3    H123833   4.856   1.064   0.865
  758TIP3    H223834   4.813   1.177   0.775
  759TIP3   OH223835   5.004   1.576   1.754
  759TIP3    H123836   5.013   1.577   1.849
  759TIP3    H223837   4.926   1.523   1.738
  760TIP3   OH223838   6.318   1.297   8.248
  760TIP3    H123839   6.410   1.313   8.226
  760TIP3    H223840   6.269   1.334   8.174
  761TIP3   OH223841   0.527   6.371   7.168
  761TIP3    H123842   0.459   6.438   7.175
  761TIP3    H223843   0.542   6.363   7.074
  762TIP3   OH223844   6.497   0.310   7.599
  762TIP3    H123845   6.538   0.259   7.669
  762TIP3    H223846   6.439   0.247   7.555
  763TIP3   OH223847   0.381   2.946   1.324
  763TIP3    H123848   0.383   2.852   1.345
  763TIP3    H223849   0.315   2.982   1.384
  764TIP3   OH223850   4.433   4.389   1.922
  764TIP3    H123851   4.464   4.474   1.954
  764TIP3    H223852   4.365   4.410   1.859
  765TIP3   OH223853   0.774   4.223   0.279
  765TIP3    H123854   0.756   4.222   0.373
  765TIP3    H223855   0.766   4.315   0.254
  766TIP3   OH223856   2.493   1.628   6.808
  766TIP3    H123857   2.498   1.588   6.721
  766TIP3    H223858   2.399   1.634   6.826
  767TIP3   OH223859   3.533   3.282   7.563
  767TIP3    H123860   3.465   3.334   7.520
  767TIP3    H223861   3.553   3.331   7.643
  768TIP3   OH223862   0.631   0.616   1.456
  768TIP3    H123863   0.695   0.684   1.479
  768TIP3    H223864   0.551   0.665   1.437
  769TIP3   OH223865   3.147   1.576   7.624
  769TIP3    H123866   3.223   1.608   7.575
  769TIP3    H223867   3.163   1.604   7.714
  770TIP3   OH223868   2.859   6.714   8.365
  770TIP3    H123869   2.853   6.672   8.280
  770TIP3    H223870   2.939   6.678   8.404
  771TIP3   OH223871   5.837   6.070   1.966
  771TIP3    H123872   5.898   6.072   2.040
  771TIP3    H223873   5.858   5.989   1.920
  772TIP3   OH223874   6.240   2.305   1.614
  772TIP3    H123875   6.216   2.397   1.625
  772TIP3    H223876   6.316   2.293   1.670
  773TIP3   OH223877   4.890   3.086   7.565
  773TIP3    H123878   4.841   3.042   7.635
  773TIP3    H223879   4.823   3.117   7.504
  774TIP3   OH223880   2.571   3.059   8.440
  774TIP3    H123881   2.555   3.098   8.526
  774TIP3    H223882   2.664   3.076   8.423
  775TIP3   OH223883   3.168   4.513   7.324
  775TIP3    H123884   3.093   4.558   7.362
  775TIP3    H223885   3.205   4.463   7.396
  776TIP3   OH223886   2.419   5.853   0.175
  776TIP3    H123887   2.331   5.885   0.199
  776TIP3    H223888   2.429   5.772   0.224
  777TIP3   OH223889   3.247   3.644   0.941
  777TIP3    H123890   3.338   3.617   0.927
  777TIP3    H223891   3.252   3.711   1.009
  778TIP3   OH223892   0.423   3.510   1.490
  778TIP3    H123893   0.477   3.467   1.423
  778TIP3    H223894   0.469   3.491   1.573
  779TIP3   OH223895   3.000   2.409   7.677
  779TIP3    H123896   2.975   2.348   7.746
  779TIP3    H223897   3.023   2.490   7.723
  780TIP3   OH223898   2.717   0.803   8.665
  780TIP3    H123899   2.633   0.773   8.702
  780TIP3    H223900   2.735   0.885   8.711
  781TIP3   OH223901   3.406   1.529   7.399
  781TIP3    H123902   3.447   1.487   7.474
  781TIP3    H223903   3.478   1.547   7.339
  782TIP3   OH223904   0.304   2.906   5.927
  782TIP3    H123905   0.346   2.821   5.926
  782TIP3    H223906   0.217   2.891   5.889
  783TIP3   OH223907   6.485   6.253   8.321
  783TIP3    H123908   6.416   6.188   8.309
  783TIP3    H223909   6.480   6.308   8.243
  784TIP3   OH223910   2.831   5.461   2.245
  784TIP3    H123911   2.838   5.374   2.285
  784TIP3    H223912   2.920   5.496   2.248
  785TIP3   OH223913   1.162   0.272   7.623
  785TIP3    H123914   1.178   0.186   7.662
  785TIP3    H223915   1.067   0.278   7.613
  786TIP3   OH223916   3.523   3.583   0.363
  786TIP3    H123917   3.438   3.574   0.321
  786TIP3    H223918   3.504   3.574   0.457
  787TIP3   OH223919   1.993   2.704   1.752
  787TIP3    H123920   2.023   2.707   1.843
  787TIP3    H223921   2.002   2.794   1.721
  788TIP3   OH223922   5.281   5.286   0.513
  788TIP3    H123923   5.332   5.299   0.593
  788TIP3    H223924   5.252   5.374   0.488
  789TIP3   OH223925   5.244   0.522   2.558
  789TIP3    H123926   5.234   0.587   2.628
  789TIP3    H223927   5.158   0.480   2.552
  790TIP3   OH223928   1.246   6.440   0.751
  790TIP3    H123929   1.333   6.464   0.784
  790TIP3    H223930   1.217   6.517   0.703
  791TIP3   OH223931   2.423   1.876   7.018
  791TIP3    H123932   2.356   1.811   6.999
  791TIP3    H223933   2.477   1.879   6.938
  792TIP3   OH223934   4.769   6.635   8.089
  792TIP3    H123935   4.683   6.674   8.104
  792TIP3    H223936   4.750   6.543   8.069
  793TIP3   OH223937   4.533   1.869   0.968
  793TIP3    H123938   4.581   1.921   0.904
  793TIP3    H223939   4.456   1.923   0.988
  794TIP3   OH223940   6.508   4.146   7.831
  794TIP3    H123941   6.539   4.182   7.748
  794TIP3    H223942   6.571   4.077   7.851
  795TIP3   OH223943   1.577   6.638   0.495
  795TIP3    H123944   1.630   6.659   0.418
  795TIP3    H223945   1.570   6.721   0.543
  796TIP3   OH223946   0.516   6.572   8.040
  796TIP3    H123947   0.452   6.504   8.063
  796TIP3    H223948   0.585   6.525   7.993
  797TIP3   OH223949   3.883   3.930   0.542
  797TIP3    H123950   3.907   3.966   0.628
  797TIP3    H223951   3.846   3.844   0.561
  798TIP3   OH223952   0.102   4.138   8.206
  798TIP3    H123953   0.062   4.168   8.288
  798TIP3    H223954   0.147   4.057   8.230
  799TIP3   OH223955   2.972   4.213   0.358
  799TIP3    H123956   3.048   4.258   0.396
  799TIP3    H223957   2.994   4.120   0.364
  800TIP3   OH223958   2.836   5.810   6.807
  800TIP3    H123959   2.842   5.745   6.878
  800TIP3    H223960   2.916   5.796   6.756
  801TIP3   OH223961   0.923   3.861   1.495
  801TIP3    H123962   0.999   3.864   1.437
  801TIP3    H223963   0.955   3.816   1.574
  802TIP3   OH223964   0.860   3.631   7.333
  802TIP3    H123965   0.908   3.558   7.371
  802TIP3    H223966   0.769   3.614   7.356
  803TIP3   OH223967   4.276   4.364   0.314
  803TIP3    H123968   4.199   4.376   0.369
  803TIP3    H223969   4.241   4.336   0.229
  804TIP3   OH223970   5.477   3.157   8.711
  804TIP3    H123971   5.437   3.149   0.084
  804TIP3    H223972   5.553   3.098   0.001
  805TIP3   OH223973   5.456   6.286   2.867
  805TIP3    H123974   5.428   6.373   2.897
  805TIP3    H223975   5.541   6.302   2.826
  806TIP3   OH223976   6.435   5.936   8.579
  806TIP3    H123977   6.474   5.918   8.493
  806TIP3    H223978   6.494   5.896   8.642
  807TIP3   OH223979   0.927   2.954   8.203
  807TIP3    H123980   0.875   3.034   8.202
  807TIP3    H223981   0.897   2.907   8.281
  808TIP3   OH223982   3.086   4.730   0.333
  808TIP3    H123983   3.180   4.710   0.332
  808TIP3    H223984   3.047   4.658   0.384
  809TIP3   OH223985   5.941   0.102   1.858
  809TIP3    H123986   6.014   0.160   1.836
  809TIP3    H223987   5.934   0.043   1.783
  810TIP3   OH223988   2.914   5.894   0.526
  810TIP3    H123989   2.895   5.962   0.462
  810TIP3    H223990   2.837   5.837   0.524
  811TIP3   OH223991   4.749   3.950   0.665
  811TIP3    H123992   4.666   3.938   0.711
  811TIP3    H223993   4.816   3.927   0.730
  812TIP3   OH223994   2.962   4.162   7.721
  812TIP3    H123995   3.017   4.123   7.653
  812TIP3    H223996   3.019   4.225   7.764
  813TIP3   OH223997   0.969   3.760   1.754
  813TIP3    H123998   0.982   3.665   1.745
  813TIP3    H223999   1.037   3.788   1.815
  814TIP3   OH224000   1.206   6.168   1.415
  814TIP3    H124001   1.166   6.112   1.347
  814TIP3    H224002   1.143   6.239   1.427
  815TIP3   OH224003   6.137   4.290   0.786
  815TIP3    H124004   6.093   4.331   0.860
  815TIP3    H224005   6.136   4.196   0.807
  816TIP3   OH224006   4.133   3.679   0.774
  816TIP3    H124007   4.143   3.703   0.682
  816TIP3    H224008   4.132   3.763   0.821
  817TIP3   OH224009   1.780   6.783   1.416
  817TIP3    H124010   1.853   6.766   1.356
  817TIP3    H224011   1.733   6.700   1.419
  818TIP3   OH224012   2.508   6.071   2.498
  818TIP3    H124013   2.461   6.023   2.430
  818TIP3    H224014   2.469   6.041   2.580
  819TIP3   OH224015   5.314   6.724   0.976
  819TIP3    H124016   5.383   6.706   0.912
  819TIP3    H224017   5.354   6.699   1.060
  820TIP3   OH224018   0.499   2.950   6.404
  820TIP3    H124019   0.470   2.923   6.491
  820TIP3    H224020   0.590   2.921   6.398
  821TIP3   OH224021   1.019   5.519   1.795
  821TIP3    H124022   1.011   5.453   1.726
  821TIP3    H224023   0.932   5.558   1.801
  822TIP3   OH224024   5.654   5.029   7.123
  822TIP3    H124025   5.718   5.001   7.057
  822TIP3    H224026   5.611   5.106   7.085
  823TIP3   OH224027   4.316   3.502   6.401
  823TIP3    H124028   4.222   3.487   6.411
  823TIP3    H224029   4.331   3.588   6.441
  824TIP3   OH224030   1.669   5.140   8.476
  824TIP3    H124031   1.742   5.180   8.429
  824TIP3    H224032   1.707   5.110   8.558
  825TIP3   OH224033   5.727   4.279   1.526
  825TIP3    H124034   5.708   4.249   1.437
  825TIP3    H224035   5.813   4.320   1.521
  826TIP3   OH224036   4.718   0.687   0.207
  826TIP3    H124037   4.658   0.612   0.203
  826TIP3    H224038   4.665   0.762   0.179
  827TIP3   OH224039   1.272   6.608   6.585
  827TIP3    H124040   1.185   6.583   6.616
  827TIP3    H224041   1.268   6.594   6.490
  828TIP3   OH224042   2.387   0.705   1.640
  828TIP3    H124043   2.305   0.743   1.608
  828TIP3    H224044   2.406   0.754   1.720
  829TIP3   OH224045   6.442   1.200   1.123
  829TIP3    H124046   6.404   1.196   1.211
  829TIP3    H224047   6.369   1.176   1.065
  830TIP3   OH224048   5.403   2.391   1.063
  830TIP3    H124049   5.435   2.371   0.975
  830TIP3    H224050   5.440   2.322   1.118
  831TIP3   OH224051   1.705   2.035   0.365
  831TIP3    H124052   1.762   1.986   0.306
  831TIP3    H224053   1.617   2.004   0.344
  832TIP3   OH224054   5.298   0.587   1.177
  832TIP3    H124055   5.291   0.651   1.106
  832TIP3    H224056   5.322   0.640   1.254
  833TIP3   OH224057   4.647   6.401   7.208
  833TIP3    H124058   4.595   6.339   7.158
  833TIP3    H224059   4.725   6.416   7.154
  834TIP3   OH224060   6.078   3.591   8.131
  834TIP3    H124061   6.003   3.636   8.091
  834TIP3    H224062   6.122   3.660   8.181
  835TIP3   OH224063   0.363   1.231   6.574
  835TIP3    H124064   0.330   1.280   6.498
  835TIP3    H224065   0.286   1.186   6.609
  836TIP3   OH224066   5.045   5.084   1.671
  836TIP3    H124067   5.039   5.028   1.748
  836TIP3    H224068   4.960   5.127   1.666
  837TIP3   OH224069   4.174   4.874   8.617
  837TIP3    H124070   4.214   4.916   8.541
  837TIP3    H224071   4.157   4.945   8.679
  838TIP3   OH224072   1.521   6.822   1.994
  838TIP3    H124073   1.448   6.776   2.037
  838TIP3    H224074   1.555   6.759   1.931
  839TIP3   OH224075   4.688   1.091   6.873
  839TIP3    H124076   4.697   1.186   6.879
  839TIP3    H224077   4.600   1.078   6.838
  840TIP3   OH224078   6.672   2.125   0.298
  840TIP3    H124079   6.676   2.209   0.251
  840TIP3    H224080   6.580   2.115   0.321
  841TIP3   OH224081   2.680   0.360   1.711
  841TIP3    H124082   2.609   0.403   1.664
  841TIP3    H224083   2.700   0.420   1.783
  842TIP3   OH224084   0.073   0.278   0.470
  842TIP3    H124085   0.019   0.332   0.528
  842TIP3    H224086   0.080   0.194   0.516
  843TIP3   OH224087   4.864   5.894   1.102
  843TIP3    H124088   4.822   5.956   1.043
  843TIP3    H224089   4.890   5.947   1.177
  844TIP3   OH224090   0.973   0.811   0.829
  844TIP3    H124091   0.960   0.827   0.736
  844TIP3    H224092   0.891   0.774   0.859
  845TIP3   OH224093   1.893   0.236   0.131
  845TIP3    H124094   1.822   0.182   0.166
  845TIP3    H224095   1.850   0.316   0.101
  846TIP3   OH224096   0.555   1.831   1.216
  846TIP3    H124097   0.616   1.796   1.151
  846TIP3    H224098   0.574   1.925   1.218
  847TIP3   OH224099   3.742   2.939   2.399
  847TIP3    H124100   3.819   2.887   2.421
  847TIP3    H224101   3.761   3.025   2.436
  848TIP3   OH224102   5.857   4.371   1.037
  848TIP3    H124103   5.858   4.359   0.942
  848TIP3    H224104   5.861   4.466   1.048
  849TIP3   OH224105   0.442   2.678   0.876
  849TIP3    H124106   0.382   2.733   0.927
  849TIP3    H224107   0.508   2.739   0.843
  850TIP3   OH224108   2.646   5.894   7.235
  850TIP3    H124109   2.578   5.840   7.195
  850TIP3    H224110   2.608   5.923   7.318
  851TIP3   OH224111   2.465   1.132   7.068
  851TIP3    H124112   2.513   1.088   7.139
  851TIP3    H224113   2.534   1.156   7.005
  852TIP3   OH224114   4.216   3.413   7.854
  852TIP3    H124115   4.201   3.320   7.872
  852TIP3    H224116   4.278   3.414   7.782
  853TIP3   OH224117   2.425   6.272   8.093
  853TIP3    H124118   2.441   6.192   8.042
  853TIP3    H224119   2.497   6.330   8.068
  854TIP3   OH224120   1.955   6.719   7.486
  854TIP3    H124121   1.868   6.750   7.460
  854TIP3    H224122   1.991   6.790   7.540
  855TIP3   OH224123   3.625   2.765   0.040
  855TIP3    H124124   3.719   2.782   0.041
  855TIP3    H224125   3.614   2.689   0.097
  856TIP3   OH224126   6.664   3.881   7.818
  856TIP3    H124127   6.703   3.870   7.905
  856TIP3    H224128   6.613   3.801   7.804
  857TIP3   OH224129   1.140   1.087   8.618
  857TIP3    H124130   1.113   1.044   8.700
  857TIP3    H224131   1.235   1.075   8.616
  858TIP3   OH224132   4.571   3.739   1.343
  858TIP3    H124133   4.485   3.773   1.369
  858TIP3    H224134   4.571   3.649   1.374
  859TIP3   OH224135   5.696   0.088   1.214
  859TIP3    H124136   5.601   0.081   1.203
  859TIP3    H224137   5.709   0.177   1.247
  860TIP3   OH224138   1.787   3.486   8.713
  860TIP3    H124139   1.783   3.399   0.039
  860TIP3    H224140   1.866   3.525   0.037
  861TIP3   OH224141   4.137   2.121   0.190
  861TIP3    H124142   4.184   2.081   0.117
  861TIP3    H224143   4.068   2.058   0.211
  862TIP3   OH224144   3.171   5.336   1.126
  862TIP3    H124145   3.178   5.317   1.220
  862TIP3    H224146   3.112   5.411   1.121
  863TIP3   OH224147   3.270   4.699   8.337
  863TIP3    H124148   3.346   4.641   8.334
  863TIP3    H224149   3.244   4.710   8.246
  864TIP3   OH224150   2.766   4.519   7.646
  864TIP3    H124151   2.807   4.491   7.728
  864TIP3    H224152   2.696   4.578   7.674
  865TIP3   OH224153   0.787   0.106   7.557
  865TIP3    H124154   0.763   0.192   7.524
  865TIP3    H224155   0.738   0.096   7.639
  866TIP3   OH224156   0.590   0.025   2.087
  866TIP3    H124157   0.676   0.016   2.128
  866TIP3    H224158   0.528   0.012   2.159
  867TIP3   OH224159   1.386   2.342   1.247
  867TIP3    H124160   1.309   2.323   1.193
  867TIP3    H224161   1.394   2.265   1.305
  868TIP3   OH224162   0.050   0.640   0.128
  868TIP3    H124163   0.012   0.554   0.116
  868TIP3    H224164   0.031   0.662   0.220
  869TIP3   OH224165   5.734   4.476   0.743
  869TIP3    H124166   5.666   4.526   0.698
  869TIP3    H224167   5.737   4.514   0.831
  870TIP3   OH224168   1.815   5.749   6.802
  870TIP3    H124169   1.758   5.798   6.862
  870TIP3    H224170   1.764   5.671   6.780
  871TIP3   OH224171   5.576   0.580   0.278
  871TIP3    H124172   5.494   0.547   0.241
  871TIP3    H224173   5.553   0.601   0.369
  872TIP3   OH224174   3.578   6.326   0.637
  872TIP3    H124175   3.512   6.290   0.697
  872TIP3    H224176   3.545   6.412   0.614
  873TIP3   OH224177   1.223   0.286   0.102
  873TIP3    H124178   1.199   0.198   0.132
  873TIP3    H224179   1.291   0.271   0.037
  874TIP3   OH224180   3.185   0.512   0.127
  874TIP3    H124181   3.168   0.578   0.060
  874TIP3    H224182   3.102   0.504   0.174
  875TIP3   OH224183   5.452   1.621   1.670
  875TIP3    H124184   5.418   1.546   1.719
  875TIP3    H224185   5.546   1.620   1.686
  876TIP3   OH224186   3.669   5.397   7.518
  876TIP3    H124187   3.721   5.325   7.554
  876TIP3    H224188   3.578   5.366   7.525
  877TIP3   OH224189   4.554   6.577   1.012
  877TIP3    H124190   4.560   6.622   0.927
  877TIP3    H224191   4.504   6.498   0.993
  878TIP3   OH224192   5.841   3.783   7.994
  878TIP3    H124193   5.801   3.783   7.907
  878TIP3    H224194   5.933   3.800   7.978
  879TIP3   OH224195   6.473   0.151   8.082
  879TIP3    H124196   6.410   0.080   8.073
  879TIP3    H224197   6.420   0.227   8.107
  880TIP3   OH224198   1.065   1.957   7.662
  880TIP3    H124199   1.049   1.883   7.605
  880TIP3    H224200   1.087   1.918   7.747
  881TIP3   OH224201   4.335   3.989   2.055
  881TIP3    H124202   4.374   4.015   1.971
  881TIP3    H224203   4.364   4.056   2.116
  882TIP3   OH224204   1.702   1.478   7.389
  882TIP3    H124205   1.608   1.494   7.384
  882TIP3    H224206   1.740   1.540   7.327
  883TIP3   OH224207   3.309   2.563   6.580
  883TIP3    H124208   3.318   2.474   6.612
  883TIP3    H224209   3.378   2.572   6.514
  884TIP3   OH224210   4.632   6.680   7.024
  884TIP3    H124211   4.582   6.616   7.074
  884TIP3    H224212   4.594   6.678   6.936
  885TIP3   OH224213   1.349   2.427   7.806
  885TIP3    H124214   1.270   2.437   7.858
  885TIP3    H224215   1.420   2.421   7.870
  886TIP3   OH224216   3.118   4.619   2.214
  886TIP3    H124217   3.101   4.662   2.298
  886TIP3    H224218   3.149   4.689   2.157
  887TIP3   OH224219   3.489   2.361   8.395
  887TIP3    H124220   3.501   2.403   8.309
  887TIP3    H224221   3.427   2.418   8.440
  888TIP3   OH224222   2.533   0.195   8.322
  888TIP3    H124223   2.603   0.136   8.351
  888TIP3    H224224   2.501   0.155   8.241
  889TIP3   OH224225   4.356   3.622   8.347
  889TIP3    H124226   4.313   3.708   8.349
  889TIP3    H224227   4.357   3.594   8.439
  890TIP3   OH224228   0.633   0.529   7.876
  890TIP3    H124229   0.542   0.502   7.865
  890TIP3    H224230   0.654   0.579   7.798
  891TIP3   OH224231   4.439   5.755   2.225
  891TIP3    H124232   4.425   5.679   2.282
  891TIP3    H224233   4.476   5.822   2.283
  892TIP3   OH224234   6.077   2.634   1.033
  892TIP3    H124235   6.082   2.573   0.959
  892TIP3    H224236   6.042   2.715   0.996
  893TIP3   OH224237   4.748   6.034   7.924
  893TIP3    H124238   4.746   6.117   7.876
  893TIP3    H224239   4.772   5.969   7.858
  894TIP3   OH224240   2.868   1.279   2.193
  894TIP3    H124241   2.819   1.271   2.111
  894TIP3    H224242   2.808   1.321   2.253
  895TIP3   OH224243   3.066   6.674   7.192
  895TIP3    H124244   3.005   6.676   7.265
  895TIP3    H224245   3.118   6.595   7.206
  896TIP3   OH224246   2.656   3.721   6.589
  896TIP3    H124247   2.737   3.683   6.554
  896TIP3    H224248   2.615   3.763   6.514
  897TIP3   OH224249   5.814   2.624   6.925
  897TIP3    H124250   5.845   2.543   6.966
  897TIP3    H224251   5.722   2.630   6.951
  898TIP3   OH224252   0.168   1.868   8.456
  898TIP3    H124253   0.126   1.783   8.452
  898TIP3    H224254   0.138   1.906   8.538
  899TIP3   OH224255   6.394   6.735   0.364
  899TIP3    H124256   6.304   6.722   0.394
  899TIP3    H224257   6.447   6.724   0.443
  900TIP3   OH224258   2.162   1.891   6.802
  900TIP3    H124259   2.161   1.974   6.850
  900TIP3    H224260   2.091   1.840   6.841
  901TIP3   OH224261   3.071   0.862   6.994
  901TIP3    H124262   3.088   0.954   6.973
  901TIP3    H224263   3.015   0.831   6.923
  902TIP3   OH224264   0.500   1.070   1.874
  902TIP3    H124265   0.553   1.054   1.952
  902TIP3    H224266   0.418   1.025   1.892
  903TIP3   OH224267   1.030   3.644   1.224
  903TIP3    H124268   1.064   3.733   1.236
  903TIP3    H224269   0.937   3.657   1.203
  904TIP3   OH224270   1.780   3.616   6.781
  904TIP3    H124271   1.771   3.637   6.874
  904TIP3    H224272   1.853   3.670   6.751
  905TIP3   OH224273   5.496   3.458   0.788
  905TIP3    H124274   5.467   3.512   0.714
  905TIP3    H224275   5.520   3.521   0.856
  906TIP3   OH224276   1.044   3.551   0.268
  906TIP3    H124277   0.956   3.583   0.285
  906TIP3    H224278   1.094   3.575   0.346
  907TIP3   OH224279   2.523   0.046   6.266
  907TIP3    H124280   2.588   0.050   6.336
  907TIP3    H224281   2.572   0.069   6.187
  908TIP3   OH224282   2.227   1.992   0.698
  908TIP3    H124283   2.249   2.051   0.770
  908TIP3    H224284   2.311   1.969   0.659
  909TIP3   OH224285   4.542   3.177   1.554
  909TIP3    H124286   4.610   3.131   1.604
  909TIP3    H224287   4.584   3.257   1.524
  910TIP3   OH224288   0.078   3.824   6.958
  910TIP3    H124289   0.162   3.843   6.916
  910TIP3    H224290   0.079   3.729   6.970
  911TIP3   OH224291   5.448   1.266   0.939
  911TIP3    H124292   5.399   1.341   0.972
  911TIP3    H224293   5.506   1.303   0.872
  912TIP3   OH224294   2.743   4.599   8.371
  912TIP3    H124295   2.828   4.624   8.408
  912TIP3    H224296   2.687   4.675   8.386
  913TIP3   OH224297   3.529   1.058   8.247
  913TIP3    H124298   3.484   1.042   8.164
  913TIP3    H224299   3.516   1.152   8.264
  914TIP3   OH224300   1.501   5.027   2.081
  914TIP3    H124301   1.463   4.940   2.072
  914TIP3    H224302   1.595   5.012   2.093
  915TIP3   OH224303   3.184   0.802   0.388
  915TIP3    H124304   3.237   0.791   0.309
  915TIP3    H224305   3.234   0.759   0.457
  916TIP3   OH224306   5.630   4.366   7.558
  916TIP3    H124307   5.679   4.289   7.532
  916TIP3    H224308   5.643   4.429   7.487
  917TIP3   OH224309   0.750   1.251   0.168
  917TIP3    H124310   0.671   1.296   0.198
  917TIP3    H224311   0.820   1.286   0.223
  918TIP3   OH224312   0.892   6.291   6.481
  918TIP3    H124313   0.918   6.260   6.568
  918TIP3    H224314   0.967   6.270   6.425
  919TIP3   OH224315   3.618   4.711   7.424
  919TIP3    H124316   3.673   4.753   7.491
  919TIP3    H224317   3.564   4.783   7.390
  920TIP3   OH224318   0.502   0.877   7.756
  920TIP3    H124319   0.513   0.919   7.841
  920TIP3    H224320   0.569   0.808   7.754
  921TIP3   OH224321   3.087   3.636   7.384
  921TIP3    H124322   3.119   3.573   7.449
  921TIP3    H224323   3.024   3.586   7.332
  922TIP3   OH224324   2.319   6.188   7.015
  922TIP3    H124325   2.294   6.227   7.098
  922TIP3    H224326   2.254   6.119   6.999
  923TIP3   OH224327   2.413   6.799   6.964
  923TIP3    H124328   2.409   6.840   7.050
  923TIP3    H224329   2.398   6.706   6.982
  924TIP3   OH224330   5.089   0.849   8.483
  924TIP3    H124331   5.093   0.940   8.454
  924TIP3    H224332   5.139   0.847   8.565
  925TIP3   OH224333   1.892   2.890   7.608
  925TIP3    H124334   1.912   2.928   7.523
  925TIP3    H224335   1.883   2.796   7.591
  926TIP3   OH224336   5.149   5.713   0.769
  926TIP3    H124337   5.109   5.781   0.715
  926TIP3    H224338   5.234   5.749   0.795
  927TIP3   OH224339   2.257   4.306   8.029
  927TIP3    H124340   2.189   4.240   8.040
  927TIP3    H224341   2.316   4.269   7.963
  928TIP3   OH224342   0.443   4.439   6.838
  928TIP3    H124343   0.451   4.381   6.762
  928TIP3    H224344   0.409   4.521   6.802
  929TIP3   OH224345   2.147   1.320   2.218
  929TIP3    H124346   2.208   1.247   2.213
  929TIP3    H224347   2.189   1.389   2.165
  930TIP3   OH224348   6.401   6.381   7.062
  930TIP3    H124349   6.382   6.475   7.070
  930TIP3    H224350   6.403   6.349   7.152
  931TIP3   OH224351   1.834   2.004   0.821
  931TIP3    H124352   1.869   2.075   0.767
  931TIP3    H224353   1.864   1.924   0.778
  932TIP3   OH224354   1.087   6.760   2.584
  932TIP3    H124355   1.174   6.720   2.583
  932TIP3    H224356   1.038   6.714   2.515
  933TIP3   OH224357   3.237   1.787   2.281
  933TIP3    H124358   3.208   1.750   2.364
  933TIP3    H224359   3.215   1.880   2.287
  934TIP3   OH224360   1.020   2.176   1.390
  934TIP3    H124361   1.067   2.257   1.411
  934TIP3    H224362   0.947   2.204   1.336
  935TIP3   OH224363   4.532   1.289   0.708
  935TIP3    H124364   4.557   1.347   0.636
  935TIP3    H224365   4.499   1.349   0.775
  936TIP3   OH224366   4.523   4.820   0.109
  936TIP3    H124367   4.587   4.889   0.123
  936TIP3    H224368   4.575   4.744   0.081
  937TIP3   OH224369   1.787   4.572   1.365
  937TIP3    H124370   1.793   4.601   1.456
  937TIP3    H224371   1.781   4.477   1.370
  938TIP3   OH224372   1.709   0.336   0.349
  938TIP3    H124373   1.750   0.419   0.325
  938TIP3    H224374   1.615   0.350   0.333
  939TIP3   OH224375   6.806   6.109   0.404
  939TIP3    H124376   6.733   6.161   0.370
  939TIP3    H224377   6.837   6.059   0.328
  940TIP3   OH224378   6.185   6.451   0.750
  940TIP3    H124379   6.103   6.490   0.781
  940TIP3    H224380   6.237   6.437   0.830
  941TIP3   OH224381   4.927   4.071   1.016
  941TIP3    H124382   4.981   4.127   1.073
  941TIP3    H224383   4.882   4.013   1.076
  942TIP3   OH224384   3.069   0.226   7.485
  942TIP3    H124385   3.100   0.316   7.493
  942TIP3    H224386   3.140   0.180   7.440
  943TIP3   OH224387   4.050   4.269   1.233
  943TIP3    H124388   4.055   4.337   1.166
  943TIP3    H224389   3.966   4.284   1.277
  944TIP3   OH224390   1.857   2.389   0.580
  944TIP3    H124391   1.860   2.416   0.672
  944TIP3    H224392   1.920   2.318   0.574
  945TIP3   OH224393   1.954   3.044   1.057
  945TIP3    H124394   1.866   3.010   1.073
  945TIP3    H224395   1.951   3.081   0.969
  946TIP3   OH224396   2.908   2.025   1.417
  946TIP3    H124397   2.886   2.114   1.442
  946TIP3    H224398   2.840   1.971   1.456
  947TIP3   OH224399   3.516   1.344   8.221
  947TIP3    H124400   3.489   1.435   8.235
  947TIP3    H224401   3.590   1.350   8.161
  948TIP3   OH224402   5.459   2.819   1.709
  948TIP3    H124403   5.474   2.778   1.794
  948TIP3    H224404   5.537   2.873   1.694
  949TIP3   OH224405   4.458   2.975   7.293
  949TIP3    H124406   4.512   2.942   7.221
  949TIP3    H224407   4.469   2.910   7.362
  950TIP3   OH224408   4.490   5.922   7.410
  950TIP3    H124409   4.508   5.941   7.502
  950TIP3    H224410   4.554   5.974   7.362
  951TIP3   OH224411   2.218   2.356   1.823
  951TIP3    H124412   2.166   2.396   1.892
  951TIP3    H224413   2.156   2.341   1.752
  952TIP3   OH224414   4.105   6.745   8.099
  952TIP3    H124415   4.150   6.677   8.049
  952TIP3    H224416   4.056   6.697   8.166
  953TIP3   OH224417   1.182   6.509   7.587
  953TIP3    H124418   1.093   6.495   7.555
  953TIP3    H224419   1.235   6.518   7.507
  954TIP3   OH224420   2.735   5.153   1.150
  954TIP3    H124421   2.666   5.092   1.176
  954TIP3    H224422   2.756   5.128   1.060
  955TIP3   OH224423   0.524   0.411   6.140
  955TIP3    H124424   0.550   0.332   6.187
  955TIP3    H224425   0.462   0.379   6.074
  956TIP3   OH224426   6.849   6.066   0.688
  956TIP3    H124427   6.829   6.043   0.597
  956TIP3    H224428   6.796   6.006   0.740
  957TIP3   OH224429   6.501   6.518   2.381
  957TIP3    H124430   6.476   6.426   2.394
  957TIP3    H224431   6.579   6.529   2.435
  958TIP3   OH224432   4.435   4.973   1.703
  958TIP3    H124433   4.415   4.893   1.751
  958TIP3    H224434   4.430   5.042   1.770
  959TIP3   OH224435   4.984   6.644   1.903
  959TIP3    H124436   5.001   6.558   1.940
  959TIP3    H224437   4.910   6.631   1.844
  960TIP3   OH224438   0.942   5.992   8.242
  960TIP3    H124439   1.019   6.043   8.267
  960TIP3    H224440   0.903   5.965   8.326
  961TIP3   OH224441   1.244   4.476   0.832
  961TIP3    H124442   1.248   4.532   0.910
  961TIP3    H224443   1.238   4.537   0.759
  962TIP3   OH224444   3.943   2.720   7.471
  962TIP3    H124445   3.854   2.723   7.506
  962TIP3    H224446   3.999   2.742   7.545
  963TIP3   OH224447   4.715   6.614   7.362
  963TIP3    H124448   4.655   6.570   7.302
  963TIP3    H224449   4.662   6.633   7.439
  964TIP3   OH224450   2.388   3.297   0.455
  964TIP3    H124451   2.308   3.342   0.428
  964TIP3    H224452   2.389   3.304   0.550
  965TIP3   OH224453   5.474   1.399   0.219
  965TIP3    H124454   5.532   1.345   0.166
  965TIP3    H224455   5.508   1.391   0.308
  966TIP3   OH224456   2.587   6.123   1.252
  966TIP3    H124457   2.672   6.107   1.293
  966TIP3    H224458   2.580   6.056   1.185
  967TIP3   OH224459   0.077   3.862   1.079
  967TIP3    H124460   0.150   3.890   1.023
  967TIP3    H224461   0.002   3.913   1.049
  968TIP3   OH224462   2.860   2.401   1.794
  968TIP3    H124463   2.875   2.435   1.705
  968TIP3    H224464   2.930   2.337   1.807
  969TIP3   OH224465   4.109   2.260   1.531
  969TIP3    H124466   4.100   2.169   1.561
  969TIP3    H224467   4.066   2.312   1.599
  970TIP3   OH224468   2.066   2.326   7.853
  970TIP3    H124469   2.020   2.244   7.837
  970TIP3    H224470   1.998   2.393   7.854
  971TIP3   OH224471   1.403   4.187   0.645
  971TIP3    H124472   1.376   4.247   0.576
  971TIP3    H224473   1.325   4.175   0.699
  972TIP3   OH224474   6.829   5.194   1.314
  972TIP3    H124475   6.745   5.230   1.343
  972TIP3    H224476   0.026   5.193   1.393
  973TIP3   OH224477   0.118   2.420   7.095
  973TIP3    H124478   0.169   2.371   7.031
  973TIP3    H224479   0.028   2.417   7.062
  974TIP3   OH224480   6.794   6.104   8.025
  974TIP3    H124481   6.839   6.029   7.986
  974TIP3    H224482   6.706   6.071   8.045
  975TIP3   OH224483   2.789   4.990   6.813
  975TIP3    H124484   2.783   4.979   6.718
  975TIP3    H224485   2.862   5.050   6.827
  976TIP3   OH224486   4.374   6.152   0.789
  976TIP3    H124487   4.314   6.078   0.798
  976TIP3    H224488   4.326   6.227   0.822
  977TIP3   OH224489   4.148   6.012   8.428
  977TIP3    H124490   4.178   5.949   8.494
  977TIP3    H224491   4.067   5.974   8.394
  978TIP3   OH224492   1.744   4.349   6.251
  978TIP3    H124493   1.726   4.283   6.317
  978TIP3    H224494   1.665   4.353   6.198
  979TIP3   OH224495   1.967   0.624   1.078
  979TIP3    H124496   1.892   0.586   1.124
  979TIP3    H224497   2.040   0.614   1.139
  980TIP3   OH224498   4.773   4.640   8.685
  980TIP3    H124499   4.704   4.577   8.707
  980TIP3    H224500   4.743   4.680   8.603
  981TIP3   OH224501   6.758   3.573   6.932
  981TIP3    H124502   6.736   3.604   7.020
  981TIP3    H224503   6.722   3.484   6.930
  982TIP3   OH224504   3.031   2.537   8.449
  982TIP3    H124505   2.955   2.594   8.459
  982TIP3    H224506   3.008   2.458   8.497
  983TIP3   OH224507   0.713   4.510   0.282
  983TIP3    H124508   0.759   4.580   0.236
  983TIP3    H224509   0.687   4.550   0.365
  984TIP3   OH224510   5.239   5.582   7.500
  984TIP3    H124511   5.223   5.489   7.484
  984TIP3    H224512   5.235   5.622   7.413
  985TIP3   OH224513   2.737   1.186   1.352
  985TIP3    H124514   2.816   1.139   1.325
  985TIP3    H224515   2.729   1.257   1.287
  986TIP3   OH224516   5.289   3.904   0.984
  986TIP3    H124517   5.309   3.982   1.035
  986TIP3    H224518   5.347   3.909   0.908
  987TIP3   OH224519   3.515   2.748   8.500
  987TIP3    H124520   3.546   2.738   8.590
  987TIP3    H224521   3.451   2.678   8.488
  988TIP3   OH224522   4.533   3.549   8.164
  988TIP3    H124523   4.500   3.459   8.155
  988TIP3    H224524   4.470   3.592   8.222
  989TIP3   OH224525   5.448   0.987   2.205
  989TIP3    H124526   5.378   1.028   2.155
  989TIP3    H224527   5.412   0.902   2.232
  990TIP3   OH224528   4.070   3.517   1.328
  990TIP3    H124529   4.048   3.601   1.368
  990TIP3    H224530   4.019   3.516   1.247
  991TIP3   OH224531   3.559   1.210   0.371
  991TIP3    H124532   3.474   1.241   0.341
  991TIP3    H224533   3.619   1.283   0.355
  992TIP3   OH224534   6.817   5.565   7.977
  992TIP3    H124535   6.784   5.643   7.931
  992TIP3    H224536   6.853   5.598   8.058
  993TIP3   OH224537   5.239   3.299   7.841
  993TIP3    H124538   5.155   3.255   7.834
  993TIP3    H224539   5.218   3.391   7.855
  994TIP3   OH224540   4.483   5.358   7.056
  994TIP3    H124541   4.525   5.309   7.126
  994TIP3    H224542   4.549   5.419   7.026
  995TIP3   OH224543   0.536   4.801   6.693
  995TIP3    H124544   0.528   4.851   6.612
  995TIP3    H224545   0.484   4.722   6.678
  996TIP3   OH224546   6.079   3.523   7.341
  996TIP3    H124547   6.143   3.504   7.272
  996TIP3    H224548   6.113   3.479   7.418
  997TIP3   OH224549   4.920   1.603   7.012
  997TIP3    H124550   4.876   1.676   7.057
  997TIP3    H224551   4.881   1.602   6.924
  998TIP3   OH224552   0.634   6.814   8.116
  998TIP3    H124553   0.711   6.782   8.163
  998TIP3    H224554   0.593   6.734   8.082
  999TIP3   OH224555   3.014   4.643   6.389
  999TIP3    H124556   3.043   4.714   6.446
  999TIP3    H224557   2.933   4.612   6.428
 1000TIP3   OH224558   1.605   2.477   6.820
 1000TIP3    H124559   1.552   2.506   6.746
 1000TIP3    H224560   1.684   2.441   6.781
 1001TIP3   OH224561   6.836   4.063   6.857
 1001TIP3    H124562   6.851   3.976   6.894
 1001TIP3    H224563   6.741   4.071   6.853
 1002TIP3   OH224564   0.267   2.011   1.244
 1002TIP3    H124565   0.207   2.086   1.240
 1002TIP3    H224566   0.270   1.979   1.154
 1003TIP3   OH224567   4.604   0.414   7.846
 1003TIP3    H124568   4.620   0.355   7.772
 1003TIP3    H224569   4.528   0.466   7.819
 1004TIP3   OH224570   3.465   0.443   0.002
 1004TIP3    H124571   3.376   0.470   0.025
 1004TIP3    H224572   3.459   0.419   8.623
 1005TIP3   OH224573   3.624   5.402   1.449
 1005TIP3    H124574   3.588   5.314   1.434
 1005TIP3    H224575   3.561   5.461   1.409
 1006TIP3   OH224576   1.340   2.743   7.648
 1006TIP3    H124577   1.347   2.662   7.597
 1006TIP3    H224578   1.411   2.737   7.712
 1007TIP3   OH224579   2.442   0.033   7.571
 1007TIP3    H124580   2.426   0.117   7.528
 1007TIP3    H224581   2.367   0.022   7.629
 1008TIP3   OH224582   4.161   2.274   8.284
 1008TIP3    H124583   4.174   2.191   8.238
 1008TIP3    H224584   4.081   2.261   8.334
 1009TIP3   OH224585   0.571   4.085   0.133
 1009TIP3    H124586   0.537   4.134   0.058
 1009TIP3    H224587   0.647   4.136   0.162
 1010TIP3   OH224588   4.241   3.155   6.252
 1010TIP3    H124589   4.233   3.067   6.290
 1010TIP3    H224590   4.335   3.172   6.250
 1011TIP3   OH224591   0.503   0.707   0.923
 1011TIP3    H124592   0.469   0.619   0.943
 1011TIP3    H224593   0.476   0.724   0.833
 1012TIP3   OH224594   6.779   5.658   0.514
 1012TIP3    H124595   6.812   5.704   0.591
 1012TIP3    H224596   6.838   5.583   0.505
 1013TIP3   OH224597   3.628   2.907   0.886
 1013TIP3    H124598   3.597   2.970   0.821
 1013TIP3    H224599   3.699   2.860   0.842
 1014TIP3   OH224600   1.266   4.897   7.559
 1014TIP3    H124601   1.298   4.821   7.511
 1014TIP3    H224602   1.224   4.951   7.491
 1015TIP3   OH224603   2.517   3.546   8.380
 1015TIP3    H124604   2.472   3.623   8.345
 1015TIP3    H224605   2.610   3.568   8.374
 1016TIP3   OH224606   2.017   6.221   0.788
 1016TIP3    H124607   2.047   6.284   0.723
 1016TIP3    H224608   1.927   6.248   0.808
 1017TIP3   OH224609   6.191   0.251   6.914
 1017TIP3    H124610   6.251   0.252   6.839
 1017TIP3    H224611   6.105   0.267   6.875
 1018TIP3   OH224612   2.021   1.902   1.446
 1018TIP3    H124613   1.944   1.923   1.393
 1018TIP3    H224614   2.095   1.933   1.395
 1019TIP3   OH224615   3.355   4.752   6.435
 1019TIP3    H124616   3.350   4.771   6.341
 1019TIP3    H224617   3.273   4.786   6.471
 1020TIP3   OH224618   3.128   1.817   0.889
 1020TIP3    H124619   3.151   1.744   0.947
 1020TIP3    H224620   3.061   1.780   0.831
 1021TIP3   OH224621   3.093   3.695   0.036
 1021TIP3    H124622   3.105   3.784   0.069
 1021TIP3    H224623   3.162   3.684   8.685
 1022TIP3   OH224624   4.141   0.903   7.736
 1022TIP3    H124625   4.166   0.989   7.702
 1022TIP3    H224626   4.047   0.898   7.720
 1023TIP3   OH224627   6.373   1.247   1.386
 1023TIP3    H124628   6.289   1.289   1.407
 1023TIP3    H224629   6.413   1.229   1.471
 1024TIP3   OH224630   4.888   6.764   6.579
 1024TIP3    H124631   4.802   6.778   6.618
 1024TIP3    H224632   4.907   6.672   6.596
 1025TIP3   OH224633   2.144   3.606   6.962
 1025TIP3    H124634   2.134   3.671   6.893
 1025TIP3    H224635   2.193   3.652   7.031
 1026TIP3   OH224636   3.398   4.015   1.508
 1026TIP3    H124637   3.412   4.008   1.602
 1026TIP3    H224638   3.304   4.024   1.497
 1027TIP3   OH224639   4.313   5.831   0.118
 1027TIP3    H124640   4.263   5.812   0.039
 1027TIP3    H224641   4.399   5.858   0.086
 1028TIP3   OH224642   4.369   2.878   8.081
 1028TIP3    H124643   4.464   2.885   8.094
 1028TIP3    H224644   4.359   2.826   8.002
 1029TIP3   OH224645   4.292   5.321   7.576
 1029TIP3    H124646   4.281   5.392   7.513
 1029TIP3    H224647   4.256   5.244   7.531
 1030TIP3   OH224648   6.135   4.055   7.129
 1030TIP3    H124649   6.227   4.056   7.154
 1030TIP3    H224650   6.093   4.000   7.196
 1031TIP3   OH224651   4.706   5.131   1.973
 1031TIP3    H124652   4.764   5.081   2.031
 1031TIP3    H224653   4.635   5.160   2.030
 1032TIP3   OH224654   1.518   5.188   7.307
 1032TIP3    H124655   1.507   5.127   7.380
 1032TIP3    H224656   1.428   5.206   7.277
 1033TIP3   OH224657   1.469   5.364   6.343
 1033TIP3    H124658   1.555   5.326   6.360
 1033TIP3    H224659   1.483   5.459   6.349
 1034TIP3   OH224660   4.157   1.785   1.763
 1034TIP3    H124661   4.208   1.705   1.781
 1034TIP3    H224662   4.074   1.771   1.808
 1035TIP3   OH224663   3.468   3.918   0.412
 1035TIP3    H124664   3.469   3.958   0.325
 1035TIP3    H224665   3.391   3.861   0.411
 1036TIP3   OH224666   5.716   0.899   0.932
 1036TIP3    H124667   5.756   0.907   1.019
 1036TIP3    H224668   5.767   0.957   0.876
 1037TIP3   OH224669   5.239   3.991   8.197
 1037TIP3    H124670   5.324   3.961   8.166
 1037TIP3    H224671   5.177   3.960   8.130
 1038TIP3   OH224672   3.862   6.543   6.764
 1038TIP3    H124673   3.831   6.560   6.853
 1038TIP3    H224674   3.940   6.489   6.776
 1039TIP3   OH224675   1.803   2.406   2.606
 1039TIP3    H124676   1.732   2.375   2.662
 1039TIP3    H224677   1.790   2.359   2.523
 1040TIP3   OH224678   6.855   4.520   1.679
 1040TIP3    H124679   6.854   4.425   1.682
 1040TIP3    H224680   0.090   4.544   1.695
 1041TIP3   OH224681   4.194   0.843   8.116
 1041TIP3    H124682   4.149   0.898   8.180
 1041TIP3    H224683   4.128   0.826   8.049
 1042TIP3   OH224684   1.473   6.169   1.328
 1042TIP3    H124685   1.510   6.158   1.416
 1042TIP3    H224686   1.379   6.181   1.343
 1043TIP3   OH224687   3.598   3.787   6.840
 1043TIP3    H124688   3.583   3.876   6.808
 1043TIP3    H224689   3.649   3.799   6.920
 1044TIP3   OH224690   3.152   3.034   1.110
 1044TIP3    H124691   3.212   2.983   1.056
 1044TIP3    H224692   3.160   2.995   1.197
 1045TIP3   OH224693   1.693   0.416   8.346
 1045TIP3    H124694   1.670   0.334   8.387
 1045TIP3    H224695   1.614   0.469   8.350
 1046TIP3   OH224696   5.288   4.002   0.700
 1046TIP3    H124697   5.292   4.098   0.707
 1046TIP3    H224698   5.338   3.982   0.621
 1047TIP3   OH224699   4.706   5.199   7.799
 1047TIP3    H124700   4.664   5.130   7.748
 1047TIP3    H224701   4.709   5.274   7.740
 1048TIP3   OH224702   6.066   4.716   2.271
 1048TIP3    H124703   6.028   4.628   2.264
 1048TIP3    H224704   6.018   4.757   2.343
 1049TIP3   OH224705   5.912   0.737   7.708
 1049TIP3    H124706   5.874   0.670   7.651
 1049TIP3    H224707   5.836   0.773   7.755
 1050TIP3   OH224708   2.546   0.698   1.868
 1050TIP3    H124709   2.628   0.655   1.893
 1050TIP3    H224710   2.481   0.664   1.930
 1051TIP3   OH224711   4.844   3.954   1.553
 1051TIP3    H124712   4.852   3.935   1.646
 1051TIP3    H224713   4.889   4.038   1.542
 1052TIP3   OH224714   4.601   2.871   0.593
 1052TIP3    H124715   4.674   2.819   0.560
 1052TIP3    H224716   4.638   2.919   0.667
 1053TIP3   OH224717   3.061   4.107   8.587
 1053TIP3    H124718   3.110   4.049   8.645
 1053TIP3    H224719   3.057   4.060   8.504
 1054TIP3   OH224720   4.602   0.418   0.869
 1054TIP3    H124721   4.554   0.454   0.944
 1054TIP3    H224722   4.675   0.370   0.909
 1055TIP3   OH224723   4.614   4.216   6.696
 1055TIP3    H124724   4.648   4.256   6.776
 1055TIP3    H224725   4.550   4.152   6.727
 1056TIP3   OH224726   3.574   4.034   6.761
 1056TIP3    H124727   3.597   4.105   6.700
 1056TIP3    H224728   3.606   4.064   6.846
 1057TIP3   OH224729   4.471   4.925   0.724
 1057TIP3    H124730   4.459   4.860   0.655
 1057TIP3    H224731   4.562   4.952   0.716
 1058TIP3   OH224732   3.326   4.010   8.169
 1058TIP3    H124733   3.285   3.925   8.152
 1058TIP3    H224734   3.411   3.989   8.208
 1059TIP3   OH224735   4.650   3.206   1.013
 1059TIP3    H124736   4.648   3.165   1.099
 1059TIP3    H224737   4.595   3.284   1.022
 1060TIP3   OH224738   4.894   0.678   7.654
 1060TIP3    H124739   4.927   0.737   7.722
 1060TIP3    H224740   4.838   0.617   7.701
 1061TIP3   OH224741   3.124   5.695   1.718
 1061TIP3    H124742   3.117   5.600   1.706
 1061TIP3    H224743   3.201   5.707   1.773
 1062TIP3   OH224744   2.721   1.791   1.200
 1062TIP3    H124745   2.797   1.809   1.145
 1062TIP3    H224746   2.646   1.798   1.140
 1063TIP3   OH224747   3.317   6.821   8.374
 1063TIP3    H124748   3.261   6.802   8.300
 1063TIP3    H224749   3.372   6.744   8.384
 1064TIP3   OH224750   4.158   5.080   1.412
 1064TIP3    H124751   4.104   5.156   1.389
 1064TIP3    H224752   4.177   5.092   1.505
 1065TIP3   OH224753   2.404   0.285   7.438
 1065TIP3    H124754   2.442   0.353   7.382
 1065TIP3    H224755   2.351   0.332   7.501
 1066TIP3   OH224756   3.314   0.482   7.535
 1066TIP3    H124757   3.348   0.424   7.603
 1066TIP3    H224758   3.282   0.559   7.582
 1067TIP3   OH224759   3.406   2.484   1.623
 1067TIP3    H124760   3.397   2.409   1.563
 1067TIP3    H224761   3.365   2.454   1.704
 1068TIP3   OH224762   6.811   2.924   7.461
 1068TIP3    H124763   0.011   2.870   7.516
 1068TIP3    H224764   0.003   2.933   7.379
 1069TIP3   OH224765   3.873   3.161   7.260
 1069TIP3    H124766   3.944   3.144   7.321
 1069TIP3    H224767   3.916   3.197   7.182
 1070TIP3   OH224768   4.151   4.139   6.327
 1070TIP3    H124769   4.225   4.094   6.286
 1070TIP3    H224770   4.101   4.069   6.369
 1071TIP3   OH224771   4.858   2.748   1.314
 1071TIP3    H124772   4.788   2.776   1.373
 1071TIP3    H224773   4.852   2.653   1.312
 1072TIP3   OH224774   0.106   0.404   1.541
 1072TIP3    H124775   0.028   0.459   1.538
 1072TIP3    H224776   0.072   0.315   1.551
 1073TIP3   OH224777   3.693   6.794   2.478
 1073TIP3    H124778   3.708   6.763   2.388
 1073TIP3    H224779   3.604   6.829   2.476
 1074TIP3   OH224780   4.352   0.537   7.800
 1074TIP3    H124781   4.260   0.519   7.780
 1074TIP3    H224782   4.351   0.622   7.844
 1075TIP3   OH224783   5.516   5.018   7.880
 1075TIP3    H124784   5.542   5.012   7.972
 1075TIP3    H224785   5.420   5.020   7.883
 1076TIP3   OH224786   6.547   1.472   0.344
 1076TIP3    H124787   6.499   1.390   0.356
 1076TIP3    H224788   6.607   1.455   0.271
 1077TIP3   OH224789   5.375   6.551   7.819
 1077TIP3    H124790   5.429   6.540   7.740
 1077TIP3    H224791   5.433   6.595   7.881
 1078TIP3   OH224792   0.361   2.620   0.461
 1078TIP3    H124793   0.449   2.647   0.435
 1078TIP3    H224794   0.346   2.537   0.415
 1079TIP3   OH224795   3.066   1.465   0.631
 1079TIP3    H124796   2.999   1.399   0.651
 1079TIP3    H224797   3.121   1.467   0.709
 1080TIP3   OH224798   2.953   4.623   7.461
 1080TIP3    H124799   2.895   4.685   7.417
 1080TIP3    H224800   2.896   4.573   7.519
 1081TIP3   OH224801   2.476   2.221   8.016
 1081TIP3    H124802   2.458   2.275   8.093
 1081TIP3    H224803   2.562   2.183   8.033
 1082TIP3   OH224804   0.941   5.412   8.295
 1082TIP3    H124805   0.891   5.397   8.376
 1082TIP3    H224806   1.005   5.341   8.294
 1083TIP3   OH224807   3.203   5.717   7.351
 1083TIP3    H124808   3.206   5.622   7.335
 1083TIP3    H224809   3.170   5.724   7.441
 1084TIP3   OH224810   1.468   3.081   7.952
 1084TIP3    H124811   1.510   3.126   7.878
 1084TIP3    H224812   1.379   3.063   7.922
 1085TIP3   OH224813   5.905   2.547   7.381
 1085TIP3    H124814   5.814   2.553   7.352
 1085TIP3    H224815   5.935   2.461   7.349
 1086TIP3   OH224816   5.442   1.420   1.343
 1086TIP3    H124817   5.424   1.344   1.397
 1086TIP3    H224818   5.371   1.421   1.278
 1087TIP3   OH224819   4.944   5.244   0.196
 1087TIP3    H124820   5.039   5.250   0.192
 1087TIP3    H224821   4.914   5.271   0.109
 1088TIP3   OH224822   5.722   6.700   0.114
 1088TIP3    H124823   5.729   6.766   0.046
 1088TIP3    H224824   5.774   6.626   0.081
 1089TIP3   OH224825   5.689   0.331   0.010
 1089TIP3    H124826   5.738   0.259   8.684
 1089TIP3    H224827   5.740   0.409   8.701
 1090TIP3   OH224828   4.711   5.592   0.751
 1090TIP3    H124829   4.661   5.654   0.698
 1090TIP3    H224830   4.651   5.566   0.821
 1091TIP3   OH224831   4.187   4.527   0.855
 1091TIP3    H124832   4.183   4.598   0.919
 1091TIP3    H224833   4.258   4.552   0.796
 1092TIP3   OH224834   2.759   1.816   0.869
 1092TIP3    H124835   2.684   1.826   0.811
 1092TIP3    H224836   2.825   1.877   0.835
 1093TIP3   OH224837   5.615   2.062   7.096
 1093TIP3    H124838   5.522   2.045   7.082
 1093TIP3    H224839   5.659   1.981   7.071
 1094TIP3   OH224840   3.657   5.084   0.994
 1094TIP3    H124841   3.614   5.163   1.026
 1094TIP3    H224842   3.736   5.077   1.047
 1095TIP3   OH224843   3.587   3.864   8.576
 1095TIP3    H124844   3.660   3.922   8.599
 1095TIP3    H224845   3.630   3.783   8.548
 1096TIP3   OH224846   2.859   0.136   8.487
 1096TIP3    H124847   2.844   0.172   8.399
 1096TIP3    H224848   2.866   0.042   8.473
 1097TIP3   OH224849   0.395   2.538   6.491
 1097TIP3    H124850   0.359   2.567   6.408
 1097TIP3    H224851   0.356   2.596   6.556
 1098TIP3   OH224852   4.314   2.064   1.022
 1098TIP3    H124853   4.326   2.096   1.111
 1098TIP3    H224854   4.265   2.134   0.978
 1099TIP3   OH224855   6.100   3.130   0.828
 1099TIP3    H124856   6.180   3.090   0.862
 1099TIP3    H224857   6.120   3.147   0.736
 1100TIP3   OH224858   6.629   1.547   7.813
 1100TIP3    H124859   6.585   1.525   7.731
 1100TIP3    H224860   6.677   1.627   7.794
 1101TIP3   OH224861   6.035   3.065   1.345
 1101TIP3    H124862   6.030   3.123   1.268
 1101TIP3    H224863   6.011   2.979   1.311
 1102TIP3   OH224864   1.952   0.591   1.823
 1102TIP3    H124865   2.012   0.651   1.868
 1102TIP3    H224866   1.866   0.611   1.861
 1103TIP3   OH224867   3.014   5.067   7.483
 1103TIP3    H124868   2.945   5.056   7.549
 1103TIP3    H224869   3.063   4.984   7.486
 1104TIP3   OH224870   2.300   2.775   8.520
 1104TIP3    H124871   2.337   2.697   8.479
 1104TIP3    H224872   2.374   2.834   8.531
 1105TIP3   OH224873   3.168   5.687   0.831
 1105TIP3    H124874   3.077   5.658   0.825
 1105TIP3    H224875   3.183   5.733   0.748
 1106TIP3   OH224876   0.234   2.959   8.065
 1106TIP3    H124877   0.305   2.921   8.117
 1106TIP3    H224878   0.276   3.032   8.019
 1107TIP3   OH224879   4.697   0.325   1.487
 1107TIP3    H124880   4.662   0.407   1.521
 1107TIP3    H224881   4.707   0.269   1.564
 1108TIP3   OH224882   0.964   6.681   1.725
 1108TIP3    H124883   0.992   6.772   1.732
 1108TIP3    H224884   0.935   6.672   1.634
 1109TIP3   OH224885   3.261   5.859   7.954
 1109TIP3    H124886   3.304   5.852   7.869
 1109TIP3    H224887   3.204   5.782   7.958
 1110TIP3   OH224888   1.376   3.016   1.502
 1110TIP3    H124889   1.372   3.110   1.521
 1110TIP3    H224890   1.460   2.987   1.537
 1111TIP3   OH224891   4.297   4.008   0.967
 1111TIP3    H124892   4.375   4.037   1.015
 1111TIP3    H224893   4.271   4.085   0.916
 1112TIP3   OH224894   1.379   3.088   0.771
 1112TIP3    H124895   1.387   3.017   0.708
 1112TIP3    H224896   1.456   3.143   0.756
 1113TIP3   OH224897   6.378   1.678   0.254
 1113TIP3    H124898   6.351   1.642   0.170
 1113TIP3    H224899   6.441   1.614   0.288
 1114TIP3   OH224900   6.748   3.776   0.387
 1114TIP3    H124901   6.753   3.837   0.460
 1114TIP3    H224902   6.655   3.760   0.374
 1115TIP3   OH224903   1.115   0.027   0.070
 1115TIP3    H124904   1.039   0.044   0.015
 1115TIP3    H224905   1.181   6.848   0.011
 1116TIP3   OH224906   0.871   2.781   7.997
 1116TIP3    H124907   0.893   2.841   8.068
 1116TIP3    H224908   0.954   2.767   7.951
 1117TIP3   OH224909   6.841   4.737   2.129
 1117TIP3    H124910   6.760   4.773   2.093
 1117TIP3    H224911   6.843   4.767   2.220
 1118TIP3   OH224912   4.962   4.986   8.435
 1118TIP3    H124913   4.953   4.915   8.498
 1118TIP3    H224914   5.041   5.032   8.462
 1119TIP3   OH224915   6.062   5.218   7.096
 1119TIP3    H124916   6.145   5.256   7.124
 1119TIP3    H224917   6.083   5.127   7.074
 1120TIP3   OH224918   5.419   4.580   1.606
 1120TIP3    H124919   5.438   4.487   1.619
 1120TIP3    H224920   5.329   4.581   1.573
 1121TIP3   OH224921   4.297   2.049   8.661
 1121TIP3    H124922   4.336   1.978   8.712
 1121TIP3    H224923   4.247   2.006   8.592
 1122TIP3   OH224924   1.693   6.682   2.482
 1122TIP3    H124925   1.681   6.673   2.576
 1122TIP3    H224926   1.614   6.726   2.452
 1123TIP3   OH224927   0.675   5.762   8.032
 1123TIP3    H124928   0.767   5.783   8.050
 1123TIP3    H224929   0.666   5.772   7.938
 1124TIP3   OH224930   0.889   5.695   2.353
 1124TIP3    H124931   0.806   5.742   2.346
 1124TIP3    H224932   0.910   5.672   2.263
 1125TIP3   OH224933   0.055   2.176   7.961
 1125TIP3    H124934   0.134   2.128   7.985
 1125TIP3    H224935   0.024   2.213   8.044
 1126TIP3   OH224936   4.002   3.479   7.176
 1126TIP3    H124937   3.974   3.570   7.165
 1126TIP3    H224938   3.935   3.427   7.133
 1127TIP3   OH224939   1.227   4.445   1.937
 1127TIP3    H124940   1.151   4.484   1.980
 1127TIP3    H224941   1.279   4.520   1.907
 1128TIP3   OH224942   2.915   6.294   1.437
 1128TIP3    H124943   2.936   6.360   1.504
 1128TIP3    H224944   2.933   6.339   1.354
 1129TIP3   OH224945   1.066   6.442   0.051
 1129TIP3    H124946   0.979   6.476   0.071
 1129TIP3    H224947   1.078   6.461   8.671
 1130TIP3   OH224948   1.278   0.484   0.488
 1130TIP3    H124949   1.214   0.423   0.450
 1130TIP3    H224950   1.246   0.570   0.461
 1131TIP3   OH224951   4.318   3.491   0.854
 1131TIP3    H124952   4.247   3.548   0.827
 1131TIP3    H224953   4.275   3.416   0.895
 1132TIP3   OH224954   6.674   0.131   7.724
 1132TIP3    H124955   6.713   0.187   7.791
 1132TIP3    H224956   6.657   0.048   7.769
 1133TIP3   OH224957   5.965   1.009   5.881
 1133TIP3    H124958   5.897   1.051   5.829
 1133TIP3    H224959   5.938   0.917   5.886
 1134TIP3   OH224960   5.987   4.961   7.561
 1134TIP3    H124961   6.052   5.007   7.615
 1134TIP3    H224962   5.960   5.026   7.497
 1135TIP3   OH224963   4.012   6.416   1.751
 1135TIP3    H124964   4.000   6.410   1.656
 1135TIP3    H224965   4.105   6.398   1.764
 1136TIP3   OH224966   6.795   1.212   1.705
 1136TIP3    H124967   6.742   1.252   1.636
 1136TIP3    H224968   6.732   1.175   1.766
 1137TIP3   OH224969   0.820   2.416   8.077
 1137TIP3    H124970   0.819   2.367   7.995
 1137TIP3    H224971   0.848   2.504   8.052
 1138TIP3   OH224972   1.125   3.219   8.113
 1138TIP3    H124973   1.118   3.195   8.206
 1138TIP3    H224974   1.165   3.142   8.072
 1139TIP3   OH224975   2.090   5.814   0.049
 1139TIP3    H124976   2.049   5.853   0.126
 1139TIP3    H224977   2.036   5.738   0.028
 1140TIP3   OH224978   6.663   5.409   6.829
 1140TIP3    H124979   6.710   5.490   6.849
 1140TIP3    H224980   6.577   5.438   6.799
 1141TIP3   OH224981   2.476   5.259   6.202
 1141TIP3    H124982   2.382   5.247   6.189
 1141TIP3    H224983   2.484   5.347   6.238
 1142TIP3   OH224984   0.910   6.544   0.475
 1142TIP3    H124985   0.990   6.520   0.429
 1142TIP3    H224986   0.858   6.591   0.410
 1143TIP3   OH224987   3.904   5.263   7.655
 1143TIP3    H124988   3.945   5.248   7.740
 1143TIP3    H224989   3.950   5.339   7.619
 1144TIP3   OH224990   4.866   3.186   7.135
 1144TIP3    H124991   4.821   3.158   7.215
 1144TIP3    H224992   4.927   3.115   7.116
 1145TIP3   OH224993   0.969   3.209   1.414
 1145TIP3    H124994   0.932   3.178   1.496
 1145TIP3    H224995   0.982   3.129   1.362
 1146TIP3   OH224996   1.726   1.990   7.233
 1146TIP3    H124997   1.775   1.938   7.168
 1146TIP3    H224998   1.654   2.028   7.183
 1147TIP3   OH224999   5.487   3.359   7.765
 1147TIP3    H125000   5.525   3.329   7.848
 1147TIP3    H225001   5.403   3.314   7.760
 1148TIP3   OH225002   1.714   2.636   7.050
 1148TIP3    H125003   1.730   2.672   6.963
 1148TIP3    H225004   1.755   2.550   7.047
 1149TIP3   OH225005   6.640   2.770   1.818
 1149TIP3    H125006   6.564   2.744   1.765
 1149TIP3    H225007   6.613   2.753   1.908
 1150TIP3   OH225008   3.499   3.431   6.641
 1150TIP3    H125009   3.466   3.463   6.557
 1150TIP3    H225010   3.420   3.420   6.695
 1151TIP3   OH225011   0.237   0.038   7.942
 1151TIP3    H125012   0.239   6.850   8.027
 1151TIP3    H225013   0.146   0.064   7.931
 1152TIP3   OH225014   2.513   0.596   1.154
 1152TIP3    H125015   2.418   0.604   1.150
 1152TIP3    H225016   2.528   0.513   1.199
 1153TIP3   OH225017   5.709   2.746   1.482
 1153TIP3    H125018   5.790   2.780   1.520
 1153TIP3    H225019   5.646   2.748   1.554
 1154TIP3   OH225020   1.584   0.522   8.007
 1154TIP3    H125021   1.507   0.532   7.952
 1154TIP3    H225022   1.604   0.611   8.037
 1155TIP3   OH225023   4.743   1.526   2.159
 1155TIP3    H125024   4.822   1.518   2.104
 1155TIP3    H225025   4.718   1.436   2.178
 1156TIP3   OH225026   5.814   4.215   0.744
 1156TIP3    H125027   5.734   4.164   0.756
 1156TIP3    H225028   5.783   4.305   0.734
 1157TIP3   OH225029   1.580   0.622   2.650
 1157TIP3    H125030   1.648   0.651   2.589
 1157TIP3    H225031   1.627   0.596   2.729
 1158TIP3   OH225032   1.913   1.244   2.123
 1158TIP3    H125033   1.897   1.163   2.172
 1158TIP3    H225034   1.988   1.284   2.167
 1159TIP3   OH225035   6.069   0.498   7.807
 1159TIP3    H125036   6.058   0.404   7.796
 1159TIP3    H225037   6.111   0.527   7.726
 1160TIP3   OH225038   5.550   1.717   7.733
 1160TIP3    H125039   5.463   1.703   7.769
 1160TIP3    H225040   5.591   1.780   7.793
 1161TIP3   OH225041   6.724   3.032   1.567
 1161TIP3    H125042   6.634   3.063   1.571
 1161TIP3    H225043   6.743   3.025   1.473
 1162TIP3   OH225044   6.528   6.172   1.199
 1162TIP3    H125045   6.609   6.223   1.194
 1162TIP3    H225046   6.505   6.157   1.107
 1163TIP3   OH225047   4.675   1.604   7.463
 1163TIP3    H125048   4.594   1.641   7.500
 1163TIP3    H225049   4.699   1.665   7.393
 1164TIP3   OH225050   2.347   5.391   8.292
 1164TIP3    H125051   2.389   5.322   8.344
 1164TIP3    H225052   2.411   5.413   8.225
 1165TIP3   OH225053   4.343   6.293   7.393
 1165TIP3    H125054   4.274   6.228   7.377
 1165TIP3    H225055   4.397   6.290   7.314
 1166TIP3   OH225056   5.914   4.553   8.418
 1166TIP3    H125057   5.992   4.508   8.386
 1166TIP3    H225058   5.845   4.487   8.412
 1167TIP3   OH225059   2.827   3.353   8.132
 1167TIP3    H125060   2.879   3.306   8.067
 1167TIP3    H225061   2.767   3.406   8.080
 1168TIP3   OH225062   2.468   2.405   0.902
 1168TIP3    H125063   2.463   2.310   0.892
 1168TIP3    H225064   2.555   2.421   0.938
 1169TIP3   OH225065   4.809   0.904   1.469
 1169TIP3    H125066   4.879   0.880   1.529
 1169TIP3    H225067   4.728   0.885   1.516
 1170TIP3   OH225068   1.120   4.265   7.223
 1170TIP3    H125069   1.139   4.347   7.178
 1170TIP3    H225070   1.030   4.244   7.199
 1171TIP3   OH225071   3.424   2.851   1.662
 1171TIP3    H125072   3.423   2.844   1.758
 1171TIP3    H225073   3.460   2.938   1.645
 1172TIP3   OH225074   0.445   2.740   8.046
 1172TIP3    H125075   0.362   2.695   8.058
 1172TIP3    H225076   0.464   2.732   7.953
 1173TIP3   OH225077   3.111   6.648   1.065
 1173TIP3    H125078   3.046   6.579   1.078
 1173TIP3    H225079   3.110   6.698   1.146
 1174TIP3   OH225080   2.226   4.326   7.168
 1174TIP3    H125081   2.265   4.249   7.209
 1174TIP3    H225082   2.294   4.393   7.173
 1175TIP3   OH225083   3.327   3.800   1.749
 1175TIP3    H125084   3.371   3.884   1.761
 1175TIP3    H225085   3.290   3.779   1.835
 1176TIP3   OH225086   0.075   0.182   1.253
 1176TIP3    H125087   0.091   0.111   1.316
 1176TIP3    H225088   0.021   0.142   1.185
 1177TIP3   OH225089   3.337   6.587   7.943
 1177TIP3    H125090   3.276   6.628   7.883
 1177TIP3    H225091   3.410   6.558   7.888
 1178TIP3   OH225092   4.775   2.922   8.455
 1178TIP3    H125093   4.821   2.843   8.482
 1178TIP3    H225094   4.844   2.987   8.442
 1179TIP3   OH225095   2.322   6.379   8.651
 1179TIP3    H125096   2.292   6.349   8.565
 1179TIP3    H225097   2.273   6.324   8.713
 1180TIP3   OH225098   1.240   0.678   8.064
 1180TIP3    H125099   1.286   0.700   8.145
 1180TIP3    H225100   1.242   0.759   8.013
 1181TIP3   OH225101   4.005   1.539   1.283
 1181TIP3    H125102   3.920   1.496   1.288
 1181TIP3    H225103   3.994   1.608   1.217
 1182TIP3   OH225104   4.120   2.965   7.303
 1182TIP3    H125105   4.197   2.908   7.309
 1182TIP3    H225106   4.054   2.912   7.259
 1183TIP3   OH225107   2.184   4.484   8.238
 1183TIP3    H125108   2.132   4.448   8.310
 1183TIP3    H225109   2.218   4.406   8.193
 1184TIP3   OH225110   4.906   3.805   0.238
 1184TIP3    H125111   4.848   3.869   0.280
 1184TIP3    H225112   4.982   3.856   0.210
 1185TIP3   OH225113   2.033   3.234   1.562
 1185TIP3    H125114   2.089   3.157   1.568
 1185TIP3    H225115   2.042   3.264   1.472
 1186TIP3   OH225116   4.571   1.660   0.108
 1186TIP3    H125117   4.521   1.596   0.158
 1186TIP3    H225118   4.652   1.614   0.085
 1187TIP3   OH225119   1.053   1.430   6.789
 1187TIP3    H125120   1.062   1.504   6.728
 1187TIP3    H225121   1.008   1.468   6.865
 1188TIP3   OH225122   1.130   5.154   1.191
 1188TIP3    H125123   1.156   5.246   1.199
 1188TIP3    H225124   1.061   5.154   1.124
 1189TIP3   OH225125   5.360   1.396   1.890
 1189TIP3    H125126   5.383   1.428   1.977
 1189TIP3    H225127   5.267   1.416   1.881
 1190TIP3   OH225128   5.953   3.550   7.723
 1190TIP3    H125129   5.983   3.605   7.796
 1190TIP3    H225130   5.872   3.592   7.694
 1191TIP3   OH225131   3.182   3.210   7.685
 1191TIP3    H125132   3.171   3.143   7.618
 1191TIP3    H225133   3.188   3.162   7.767
 1192TIP3   OH225134   1.449   1.303   0.664
 1192TIP3    H125135   1.397   1.378   0.633
 1192TIP3    H225136   1.508   1.341   0.729
 1193TIP3   OH225137   6.552   3.570   1.220
 1193TIP3    H125138   6.642   3.599   1.235
 1193TIP3    H225139   6.505   3.650   1.196
 1194TIP3   OH225140   2.725   6.527   1.184
 1194TIP3    H125141   2.632   6.516   1.203
 1194TIP3    H225142   2.738   6.622   1.184
 1195TIP3   OH225143   3.586   6.703   1.570
 1195TIP3    H125144   3.528   6.631   1.595
 1195TIP3    H225145   3.618   6.679   1.483
 1196TIP3   OH225146   5.008   2.865   8.216
 1196TIP3    H125147   5.007   2.938   8.277
 1196TIP3    H225148   5.070   2.891   8.148
 1197TIP3   OH225149   5.574   3.563   0.335
 1197TIP3    H125150   5.505   3.531   0.393
 1197TIP3    H225151   5.653   3.520   0.366
 1198TIP3   OH225152   0.096   4.058   0.724
 1198TIP3    H125153   0.146   4.109   0.787
 1198TIP3    H225154   0.141   3.973   0.720
 1199TIP3   OH225155   4.573   2.167   8.005
 1199TIP3    H125156   4.589   2.252   8.046
 1199TIP3    H225157   4.631   2.106   8.051
 1200TIP3   OH225158   6.288   4.933   0.326
 1200TIP3    H125159   6.198   4.947   0.297
 1200TIP3    H225160   6.326   5.021   0.330
 1201TIP3   OH225161   3.304   3.630   7.208
 1201TIP3    H125162   3.219   3.662   7.237
 1201TIP3    H225163   3.349   3.707   7.174
 1202TIP3   OH225164   2.023   4.596   0.193
 1202TIP3    H125165   2.103   4.546   0.212
 1202TIP3    H225166   1.973   4.540   0.134
 1203TIP3   OH225167   6.609   3.340   7.481
 1203TIP3    H125168   6.600   3.304   7.569
 1203TIP3    H225169   6.612   3.435   7.494
 1204TIP3   OH225170   5.795   3.005   7.031
 1204TIP3    H125171   5.715   3.008   7.084
 1204TIP3    H225172   5.771   3.047   6.949
 1205TIP3   OH225173   0.216   6.199   1.011
 1205TIP3    H125174   0.200   6.153   1.094
 1205TIP3    H225175   0.207   6.292   1.033
 1206TIP3   OH225176   3.399   4.723   7.079
 1206TIP3    H125177   3.413   4.629   7.089
 1206TIP3    H225178   3.305   4.735   7.092
 1207TIP3   OH225179   0.116   4.905   7.564
 1207TIP3    H125180   0.132   4.814   7.539
 1207TIP3    H225181   0.203   4.938   7.587
 1208TIP3   OH225182   6.059   4.671   0.208
 1208TIP3    H125183   6.011   4.618   0.272
 1208TIP3    H225184   5.995   4.692   0.140
 1209TIP3   OH225185   0.428   1.238   1.370
 1209TIP3    H125186   0.334   1.242   1.350
 1209TIP3    H225187   0.471   1.243   1.285
 1210TIP3   OH225188   2.207   0.661   7.031
 1210TIP3    H125189   2.224   0.682   6.939
 1210TIP3    H225190   2.112   0.660   7.038
 1211TIP3   OH225191   5.524   4.585   1.876
 1211TIP3    H125192   5.590   4.524   1.844
 1211TIP3    H225193   5.488   4.625   1.796
 1212TIP3   OH225194   4.525   0.475   1.123
 1212TIP3    H125195   4.525   0.398   1.180
 1212TIP3    H225196   4.615   0.505   1.125
 1213TIP3   OH225197   5.179   5.733   7.269
 1213TIP3    H125198   5.095   5.742   7.224
 1213TIP3    H225199   5.183   5.810   7.327
 1214TIP3   OH225200   6.721   5.066   1.956
 1214TIP3    H125201   6.682   5.139   2.005
 1214TIP3    H225202   6.695   4.988   2.005
 1215TIP3   OH225203   5.305   0.579   7.406
 1215TIP3    H125204   5.351   0.495   7.397
 1215TIP3    H225205   5.374   0.643   7.419
 1216TIP3   OH225206   1.384   1.604   8.070
 1216TIP3    H125207   1.308   1.546   8.066
 1216TIP3    H225208   1.407   1.607   8.163
 1217TIP3   OH225209   3.480   2.224   8.624
 1217TIP3    H125210   3.499   2.275   8.546
 1217TIP3    H225211   3.565   2.197   8.657
 1218TIP3   OH225212   4.329   0.400   2.725
 1218TIP3    H125213   4.311   0.374   2.634
 1218TIP3    H225214   4.244   0.393   2.769
 1219TIP3   OH225215   6.725   0.257   1.034
 1219TIP3    H125216   6.778   0.329   1.067
 1219TIP3    H225217   6.652   0.299   0.990
 1220TIP3   OH225218   2.400   4.820   6.485
 1220TIP3    H125219   2.355   4.870   6.553
 1220TIP3    H225220   2.489   4.855   6.484
 1221TIP3   OH225221   6.772   6.257   1.109
 1221TIP3    H125222   6.828   6.180   1.108
 1221TIP3    H225223   6.762   6.281   1.017
 1222TIP3   OH225224   3.440   6.353   0.295
 1222TIP3    H125225   3.373   6.344   0.362
 1222TIP3    H225226   3.430   6.443   0.263
 1223TIP3   OH225227   5.981   6.091   0.720
 1223TIP3    H125228   5.979   5.996   0.726
 1223TIP3    H225229   6.049   6.119   0.782
 1224TIP3   OH225230   2.854   5.861   7.456
 1224TIP3    H125231   2.820   5.787   7.505
 1224TIP3    H225232   2.776   5.906   7.424
 1225TIP3   OH225233   2.177   0.737   7.824
 1225TIP3    H125234   2.273   0.739   7.826
 1225TIP3    H225235   2.156   0.643   7.828
 1226TIP3   OH225236   2.321   1.603   0.646
 1226TIP3    H125237   2.245   1.639   0.692
 1226TIP3    H225238   2.385   1.674   0.646
 1227TIP3   OH225239   6.605   2.838   0.132
 1227TIP3    H125240   6.672   2.857   0.067
 1227TIP3    H225241   6.552   2.769   0.093
 1228TIP3   OH225242   1.448   0.435   0.709
 1228TIP3    H125243   1.408   0.469   0.629
 1228TIP3    H225244   1.538   0.468   0.705
 1229TIP3   OH225245   1.653   3.823   2.092
 1229TIP3    H125246   1.727   3.872   2.129
 1229TIP3    H225247   1.576   3.860   2.134
 1230TIP3   OH225248   4.316   5.182   1.180
 1230TIP3    H125249   4.242   5.140   1.225
 1230TIP3    H225250   4.390   5.171   1.240
 1231TIP3   OH225251   3.574   4.208   8.205
 1231TIP3    H125252   3.664   4.239   8.222
 1231TIP3    H225253   3.532   4.282   8.160
 1232TIP3   OH225254   4.937   1.278   2.028
 1232TIP3    H125255   4.975   1.197   2.063
 1232TIP3    H225256   4.843   1.267   2.040
 1233TIP3   OH225257   1.949   5.628   8.602
 1233TIP3    H125258   1.902   5.660   8.524
 1233TIP3    H225259   2.040   5.623   8.574
 1234TIP3   OH225260   1.991   6.168   8.030
 1234TIP3    H125261   1.905   6.132   8.009
 1234TIP3    H225262   1.992   6.175   8.125
 1235TIP3   OH225263   5.711   1.020   1.532
 1235TIP3    H125264   5.741   0.943   1.579
 1235TIP3    H225265   5.621   1.034   1.563
 1236TIP3   OH225266   5.927   3.080   8.556
 1236TIP3    H125267   5.976   3.083   8.474
 1236TIP3    H225268   5.893   3.169   8.567
 1237TIP3   OH225269   1.137   1.495   0.311
 1237TIP3    H125270   1.085   1.536   0.241
 1237TIP3    H225271   1.222   1.478   0.270
 1238TIP3   OH225272   2.688   3.866   6.221
 1238TIP3    H125273   2.745   3.807   6.171
 1238TIP3    H225274   2.604   3.862   6.175
 1239TIP3   OH225275   4.127   2.903   8.253
 1239TIP3    H125276   4.136   2.979   8.310
 1239TIP3    H225277   4.213   2.891   8.214
 1240TIP3   OH225278   5.058   5.670   1.204
 1240TIP3    H125279   4.970   5.667   1.166
 1240TIP3    H225280   5.089   5.579   1.197
 1241TIP3   OH225281   4.516   4.141   7.482
 1241TIP3    H125282   4.489   4.173   7.396
 1241TIP3    H225283   4.582   4.074   7.462
 1242TIP3   OH225284   5.955   2.774   7.906
 1242TIP3    H125285   6.016   2.712   7.945
 1242TIP3    H225286   5.876   2.723   7.889
 1243TIP3   OH225287   1.406   0.144   1.376
 1243TIP3    H125288   1.365   0.164   1.292
 1243TIP3    H225289   1.470   0.076   1.355
 1244TIP3   OH225290   2.122   3.002   6.374
 1244TIP3    H125291   2.172   3.002   6.456
 1244TIP3    H225292   2.120   3.093   6.346
 1245TIP3   OH225293   3.064   5.694   8.213
 1245TIP3    H125294   3.117   5.647   8.149
 1245TIP3    H225295   3.111   5.683   8.296
 1246TIP3   OH225296   5.149   5.648   0.195
 1246TIP3    H125297   5.153   5.646   0.100
 1246TIP3    H225298   5.075   5.592   0.218
 1247TIP3   OH225299   0.347   4.718   1.780
 1247TIP3    H125300   0.310   4.635   1.811
 1247TIP3    H225301   0.327   4.781   1.849
 1248TIP3   OH225302   5.911   1.870   1.139
 1248TIP3    H125303   5.889   1.840   1.051
 1248TIP3    H225304   5.902   1.793   1.194
 1249TIP3   OH225305   4.986   5.211   0.820
 1249TIP3    H125306   5.022   5.291   0.859
 1249TIP3    H225307   4.895   5.234   0.799
 1250TIP3   OH225308   5.757   4.049   0.397
 1250TIP3    H125309   5.831   4.061   0.457
 1250TIP3    H225310   5.776   4.108   0.324
 1251TIP3   OH225311   5.853   5.882   8.066
 1251TIP3    H125312   5.897   5.886   7.981
 1251TIP3    H225313   5.922   5.856   8.127
 1252TIP3   OH225314   4.676   0.987   8.644
 1252TIP3    H125315   4.634   0.949   0.008
 1252TIP3    H225316   4.757   0.936   8.633
 1253TIP3   OH225317   3.043   0.290   8.632
 1253TIP3    H125318   2.993   0.280   8.713
 1253TIP3    H225319   3.003   0.228   8.571
 1254TIP3   OH225320   5.495   4.598   0.203
 1254TIP3    H125321   5.472   4.623   0.113
 1254TIP3    H225322   5.589   4.617   0.209
 1255TIP3   OH225323   1.836   5.684   6.513
 1255TIP3    H125324   1.929   5.674   6.494
 1255TIP3    H225325   1.818   5.620   6.582
 1256TIP3   OH225326   0.316   0.491   6.661
 1256TIP3    H125327   0.272   0.560   6.710
 1256TIP3    H225328   0.385   0.536   6.612
 1257TIP3   OH225329   4.747   3.386   0.248
 1257TIP3    H125330   4.828   3.436   0.243
 1257TIP3    H225331   4.727   3.362   0.158
 1258TIP3   OH225332   0.565   4.411   7.378
 1258TIP3    H125333   0.539   4.356   7.304
 1258TIP3    H225334   0.623   4.477   7.339
 1259TIP3   OH225335   4.205   3.962   1.303
 1259TIP3    H125336   4.268   3.910   1.352
 1259TIP3    H225337   4.197   4.044   1.353
 1260TIP3   OH225338   3.925   5.782   0.032
 1260TIP3    H125339   3.948   5.760   8.655
 1260TIP3    H225340   3.963   5.711   0.084
 1261TIP3   OH225341   5.537   2.270   1.483
 1261TIP3    H125342   5.466   2.252   1.545
 1261TIP3    H225343   5.540   2.192   1.427
 1262TIP3   OH225344   1.322   2.651   0.180
 1262TIP3    H125345   1.312   2.558   0.161
 1262TIP3    H225346   1.379   2.684   0.110
 1263TIP3   OH225347   4.826   3.666   7.312
 1263TIP3    H125348   4.777   3.653   7.393
 1263TIP3    H225349   4.792   3.599   7.253
 1264TIP3   OH225350   4.986   6.752   7.260
 1264TIP3    H125351   4.964   6.822   7.322
 1264TIP3    H225352   4.922   6.683   7.278
 1265TIP3   OH225353   1.125   6.409   6.920
 1265TIP3    H125354   1.094   6.405   6.830
 1265TIP3    H225355   1.151   6.500   6.933
 1266TIP3   OH225356   4.687   0.734   1.852
 1266TIP3    H125357   4.634   0.803   1.892
 1266TIP3    H225358   4.678   0.749   1.758
 1267TIP3   OH225359   6.097   6.657   8.469
 1267TIP3    H125360   6.102   6.751   8.454
 1267TIP3    H225361   6.161   6.619   8.408
 1268TIP3   OH225362   6.126   6.047   8.037
 1268TIP3    H125363   6.065   6.025   7.966
 1268TIP3    H225364   6.100   5.990   8.109
 1269TIP3   OH225365   5.940   4.572   0.571
 1269TIP3    H125366   5.865   4.543   0.623
 1269TIP3    H225367   5.973   4.492   0.530
 1270TIP3   OH225368   3.114   1.605   1.074
 1270TIP3    H125369   3.160   1.657   1.140
 1270TIP3    H225370   3.100   1.520   1.116
 1271TIP3   OH225371   6.852   3.164   8.691
 1271TIP3    H125372   6.843   3.214   8.610
 1271TIP3    H225373   6.763   3.139   0.000
 1272TIP3   OH225374   6.322   2.313   7.521
 1272TIP3    H125375   6.353   2.394   7.481
 1272TIP3    H225376   6.283   2.263   7.449
 1273TIP3   OH225377   3.105   2.398   8.220
 1273TIP3    H125378   3.081   2.458   8.292
 1273TIP3    H225379   3.098   2.311   8.259
 1274TIP3   OH225380   1.945   5.543   7.447
 1274TIP3    H125381   1.903   5.627   7.430
 1274TIP3    H225382   1.897   5.480   7.393
 1275TIP3   OH225383   4.921   1.674   7.645
 1275TIP3    H125384   4.939   1.592   7.599
 1275TIP3    H225385   4.974   1.670   7.725
 1276TIP3   OH225386   4.086   6.432   1.137
 1276TIP3    H125387   4.045   6.416   1.052
 1276TIP3    H225388   4.123   6.348   1.162
 1277TIP3   OH225389   3.192   2.972   0.829
 1277TIP3    H125390   3.225   3.059   0.807
 1277TIP3    H225391   3.267   2.926   0.865
 1278TIP3   OH225392   6.035   5.983   8.280
 1278TIP3    H125393   6.128   5.993   8.302
 1278TIP3    H225394   6.000   5.928   8.349
 1279TIP3   OH225395   5.248   6.286   0.037
 1279TIP3    H125396   5.197   6.234   0.100
 1279TIP3    H225397   5.255   6.231   8.673
 1280TIP3   OH225398   0.390   2.008   7.794
 1280TIP3    H125399   0.401   2.068   7.869
 1280TIP3    H225400   0.386   1.921   7.834
 1281TIP3   OH225401   0.010   4.485   2.029
 1281TIP3    H125402   0.000   4.580   2.034
 1281TIP3    H225403   6.792   4.451   2.078
 1282TIP3   OH225404   0.372   0.727   0.702
 1282TIP3    H125405   0.342   0.637   0.694
 1282TIP3    H225406   0.371   0.761   0.612
 1283TIP3   OH225407   0.595   2.567   0.324
 1283TIP3    H125408   0.629   2.483   0.293
 1283TIP3    H225409   0.652   2.633   0.284
 1284TIP3   OH225410   5.419   0.434   0.121
 1284TIP3    H125411   5.352   0.377   0.084
 1284TIP3    H225412   5.492   0.428   0.058
 1285TIP3   OH225413   2.598   6.427   8.301
 1285TIP3    H125414   2.654   6.469   8.236
 1285TIP3    H225415   2.643   6.345   8.322
 1286TIP3   OH225416   1.055   2.499   6.133
 1286TIP3    H125417   1.125   2.528   6.075
 1286TIP3    H225418   1.071   2.546   6.215
 1287TIP3   OH225419   2.697   2.425   1.102
 1287TIP3    H125420   2.683   2.520   1.105
 1287TIP3    H225421   2.763   2.413   1.034
 1288TIP3   OH225422   5.674   1.055   1.978
 1288TIP3    H125423   5.623   1.112   2.035
 1288TIP3    H225424   5.759   1.099   1.971
 1289TIP3   OH225425   2.656   3.550   0.045
 1289TIP3    H125426   2.632   3.550   0.138
 1289TIP3    H225427   2.697   3.465   0.031
 1290TIP3   OH225428   4.098   6.660   7.830
 1290TIP3    H125429   4.009   6.626   7.842
 1290TIP3    H225430   4.103   6.685   7.738
 1291TIP3   OH225431   4.272   1.590   6.301
 1291TIP3    H125432   4.243   1.542   6.379
 1291TIP3    H225433   4.200   1.651   6.283
 1292TIP3   OH225434   3.701   4.545   8.052
 1292TIP3    H125435   3.699   4.639   8.071
 1292TIP3    H225436   3.762   4.509   8.117
 1293TIP3   OH225437   4.672   0.500   0.489
 1293TIP3    H125438   4.699   0.536   0.404
 1293TIP3    H225439   4.694   0.407   0.483
 1294TIP3   OH225440   5.958   5.251   8.313
 1294TIP3    H125441   5.897   5.314   8.353
 1294TIP3    H225442   5.964   5.278   8.221
 1295TIP3   OH225443   1.420   5.197   1.762
 1295TIP3    H125444   1.362   5.170   1.833
 1295TIP3    H225445   1.375   5.272   1.722
 1296TIP3   OH225446   2.229   3.832   7.565
 1296TIP3    H125447   2.184   3.859   7.485
 1296TIP3    H225448   2.249   3.739   7.550
 1297TIP3   OH225449   1.811   1.623   7.171
 1297TIP3    H125450   1.740   1.580   7.124
 1297TIP3    H225451   1.832   1.700   7.118
 1298TIP3   OH225452   1.198   3.003   7.947
 1298TIP3    H125453   1.114   3.010   7.901
 1298TIP3    H225454   1.213   2.909   7.956
 1299TIP3   OH225455   3.065   4.837   1.012
 1299TIP3    H125456   3.014   4.829   0.932
 1299TIP3    H225457   3.119   4.914   0.999
 1300TIP3   OH225458   1.036   0.727   0.534
 1300TIP3    H125459   1.112   0.781   0.559
 1300TIP3    H225460   1.022   0.747   0.442
 1301TIP3   OH225461   3.731   1.197   6.790
 1301TIP3    H125462   3.705   1.109   6.818
 1301TIP3    H225463   3.802   1.182   6.727
 1302TIP3   OH225464   1.650   5.787   1.180
 1302TIP3    H125465   1.561   5.809   1.207
 1302TIP3    H225466   1.643   5.701   1.140
 1303TIP3   OH225467   5.990   6.816   0.031
 1303TIP3    H125468   6.063   6.784   0.085
 1303TIP3    H225469   5.946   6.736   0.002
 1304TIP3   OH225470   0.504   6.280   0.602
 1304TIP3    H125471   0.431   6.309   0.656
 1304TIP3    H225472   0.572   6.345   0.618
 1305TIP3   OH225473   1.767   4.775   1.849
 1305TIP3    H125474   1.709   4.721   1.902
 1305TIP3    H225475   1.734   4.865   1.860
 1306TIP3   OH225476   0.616   6.610   2.209
 1306TIP3    H125477   0.552   6.634   2.276
 1306TIP3    H225478   0.701   6.629   2.250
 1307TIP3   OH225479   2.931   4.425   6.693
 1307TIP3    H125480   3.020   4.404   6.663
 1307TIP3    H225481   2.876   4.412   6.615
 1308TIP3   OH225482   3.305   1.334   1.985
 1308TIP3    H125483   3.278   1.367   1.900
 1308TIP3    H225484   3.257   1.387   2.048
 1309TIP3   OH225485   4.671   3.877   8.692
 1309TIP3    H125486   4.717   3.915   0.053
 1309TIP3    H225487   4.606   3.942   8.668
 1310TIP3   OH225488   5.320   1.761   7.911
 1310TIP3    H125489   5.309   1.854   7.928
 1310TIP3    H225490   5.362   1.727   7.990
 1311TIP3   OH225491   5.368   4.361   1.005
 1311TIP3    H125492   5.350   4.349   0.911
 1311TIP3    H225493   5.359   4.274   1.043
 1312TIP3   OH225494   0.076   2.135   0.365
 1312TIP3    H125495   6.841   2.109   0.360
 1312TIP3    H225496   0.080   2.219   0.319
 1313TIP3   OH225497   1.951   5.360   6.154
 1313TIP3    H125498   1.861   5.379   6.179
 1313TIP3    H225499   1.966   5.270   6.185
 1314TIP3   OH225500   0.789   5.652   7.335
 1314TIP3    H125501   0.832   5.725   7.380
 1314TIP3    H225502   0.695   5.671   7.342
 1315TIP3   OH225503   0.785   3.680   7.990
 1315TIP3    H125504   0.878   3.687   8.013
 1315TIP3    H225505   0.780   3.717   7.902
 1316TIP3   OH225506   5.603   6.690   7.976
 1316TIP3    H125507   5.684   6.721   8.017
 1316TIP3    H225508   5.582   6.609   8.021
 1317TIP3   OH225509   1.970   6.245   1.775
 1317TIP3    H125510   1.980   6.180   1.844
 1317TIP3    H225511   1.978   6.195   1.694
 1318TIP3   OH225512   0.182   6.523   1.069
 1318TIP3    H125513   0.164   6.604   1.021
 1318TIP3    H225514   0.137   6.534   1.152
 1319TIP3   OH225515   1.360   1.670   6.722
 1319TIP3    H125516   1.387   1.757   6.693
 1319TIP3    H225517   1.265   1.670   6.710
 1320TIP3   OH225518   6.045   2.324   2.005
 1320TIP3    H125519   6.039   2.419   1.997
 1320TIP3    H225520   6.117   2.309   2.066
 1321TIP3   OH225521   0.882   4.163   7.452
 1321TIP3    H125522   0.888   4.255   7.475
 1321TIP3    H225523   0.827   4.160   7.374
 1322TIP3   OH225524   0.166   4.349   8.034
 1322TIP3    H125525   0.100   4.408   8.070
 1322TIP3    H225526   0.158   4.269   8.087
 1323TIP3   OH225527   1.818   2.967   1.859
 1323TIP3    H125528   1.784   2.910   1.790
 1323TIP3    H225529   1.782   2.930   1.940
 1324TIP3   OH225530   3.294   6.296   2.137
 1324TIP3    H125531   3.383   6.329   2.142
 1324TIP3    H225532   3.302   6.214   2.089
 1325TIP3   OH225533   6.052   1.149   6.794
 1325TIP3    H125534   6.125   1.169   6.852
 1325TIP3    H225535   6.093   1.120   6.713
 1326TIP3   OH225536   3.653   5.162   0.083
 1326TIP3    H125537   3.723   5.183   0.146
 1326TIP3    H225538   3.592   5.235   0.089
 1327TIP3   OH225539   1.309   1.606   2.152
 1327TIP3    H125540   1.279   1.518   2.177
 1327TIP3    H225541   1.250   1.665   2.200
 1328TIP3   OH225542   2.795   5.267   2.020
 1328TIP3    H125543   2.834   5.184   2.048
 1328TIP3    H225544   2.802   5.323   2.098
 1329TIP3   OH225545   4.968   0.904   0.998
 1329TIP3    H125546   4.911   0.829   1.015
 1329TIP3    H225547   5.019   0.879   0.921
 1330TIP3   OH225548   3.173   2.531   7.450
 1330TIP3    H125549   3.132   2.476   7.516
 1330TIP3    H225550   3.123   2.515   7.370
 1331TIP3   OH225551   4.014   4.339   8.641
 1331TIP3    H125552   3.924   4.353   8.615
 1331TIP3    H225553   4.048   4.275   8.578
 1332TIP3   OH225554   6.120   1.565   1.977
 1332TIP3    H125555   6.177   1.538   2.049
 1332TIP3    H225556   6.033   1.533   2.002
 1333TIP3   OH225557   1.584   2.527   1.343
 1333TIP3    H125558   1.557   2.575   1.421
 1333TIP3    H225559   1.503   2.488   1.309
 1334TIP3   OH225560   3.535   4.509   7.250
 1334TIP3    H125561   3.623   4.486   7.220
 1334TIP3    H225562   3.548   4.580   7.313
 1335TIP3   OH225563   5.538   0.193   0.235
 1335TIP3    H125564   5.493   0.278   0.231
 1335TIP3    H225565   5.572   0.179   0.147
 1336TIP3   OH225566   3.435   6.640   0.310
 1336TIP3    H125567   3.500   6.655   0.241
 1336TIP3    H225568   3.417   6.727   0.344
 1337TIP3   OH225569   5.353   3.979   7.644
 1337TIP3    H125570   5.357   3.915   7.714
 1337TIP3    H225571   5.406   4.053   7.676
 1338TIP3   OH225572   6.504   4.005   1.746
 1338TIP3    H125573   6.518   4.099   1.737
 1338TIP3    H225574   6.420   3.997   1.791
 1339TIP3   OH225575   3.952   0.158   1.066
 1339TIP3    H125576   3.932   0.071   1.031
 1339TIP3    H225577   3.866   0.196   1.086
 1340TIP3   OH225578   1.041   0.209   8.051
 1340TIP3    H125579   1.104   0.136   8.053
 1340TIP3    H225580   1.063   0.256   7.971
 1341TIP3   OH225581   6.821   5.686   6.390
 1341TIP3    H125582   6.848   5.597   6.370
 1341TIP3    H225583   0.035   5.721   6.445
 1342TIP3   OH225584   1.142   2.466   2.109
 1342TIP3    H125585   1.142   2.525   2.184
 1342TIP3    H225586   1.154   2.379   2.147
 1343TIP3   OH225587   3.289   2.334   7.661
 1343TIP3    H125588   3.255   2.385   7.734
 1343TIP3    H225589   3.246   2.249   7.668
 1344TIP3   OH225590   6.207   2.567   1.682
 1344TIP3    H125591   6.266   2.632   1.718
 1344TIP3    H225592   6.120   2.596   1.709
 1345TIP3   OH225593   2.473   1.574   7.420
 1345TIP3    H125594   2.560   1.538   7.398
 1345TIP3    H225595   2.421   1.559   7.341
 1346TIP3   OH225596   0.534   0.585   7.534
 1346TIP3    H125597   0.547   0.663   7.480
 1346TIP3    H225598   0.622   0.560   7.563
 1347TIP3   OH225599   1.305   3.076   7.019
 1347TIP3    H125600   1.353   3.016   7.077
 1347TIP3    H225601   1.372   3.113   6.962
 1348TIP3   OH225602   4.524   4.410   0.987
 1348TIP3    H125603   4.446   4.425   1.039
 1348TIP3    H225604   4.580   4.485   1.005
 1349TIP3   OH225605   4.651   1.188   1.080
 1349TIP3    H125606   4.665   1.111   1.135
 1349TIP3    H225607   4.638   1.260   1.142
 1350TIP3   OH225608   2.466   6.534   1.687
 1350TIP3    H125609   2.388   6.478   1.677
 1350TIP3    H225610   2.509   6.530   1.602
 1351TIP3   OH225611   2.232   0.016   0.678
 1351TIP3    H125612   2.296   0.058   0.621
 1351TIP3    H225613   2.255   0.046   0.766
 1352TIP3   OH225614   2.256   1.708   6.638
 1352TIP3    H125615   2.222   1.777   6.694
 1352TIP3    H225616   2.287   1.753   6.559
 1353TIP3   OH225617   2.582   5.637   8.319
 1353TIP3    H125618   2.568   5.596   8.234
 1353TIP3    H225619   2.614   5.725   8.299
 1354TIP3   OH225620   2.129   2.094   7.306
 1354TIP3    H125621   2.207   2.081   7.252
 1354TIP3    H225622   2.142   2.179   7.347
 1355TIP3   OH225623   1.212   3.320   7.849
 1355TIP3    H125624   1.155   3.397   7.852
 1355TIP3    H225625   1.214   3.289   7.939
 1356TIP3   OH225626   1.897   6.442   1.080
 1356TIP3    H125627   1.831   6.386   1.121
 1356TIP3    H225628   1.892   6.524   1.129
 1357TIP3   OH225629   5.299   2.082   6.513
 1357TIP3    H125630   5.361   2.093   6.441
 1357TIP3    H225631   5.323   1.999   6.553
 1358TIP3   OH225632   6.063   3.383   2.004
 1358TIP3    H125633   6.132   3.375   2.069
 1358TIP3    H225634   5.994   3.433   2.048
 1359TIP3   OH225635   5.198   0.232   0.108
 1359TIP3    H125636   5.186   0.159   0.047
 1359TIP3    H225637   5.199   0.191   0.195
 1360TIP3   OH225638   3.488   4.406   6.911
 1360TIP3    H125639   3.574   4.370   6.934
 1360TIP3    H225640   3.428   4.365   6.972
 1361TIP3   OH225641   2.450   6.803   1.739
 1361TIP3    H125642   2.520   6.836   1.683
 1361TIP3    H225643   2.460   6.707   1.735
 1362TIP3   OH225644   5.052   6.696   0.937
 1362TIP3    H125645   5.015   6.747   1.009
 1362TIP3    H225646   5.146   6.695   0.954
 1363TIP3   OH225647   5.815   5.040   1.316
 1363TIP3    H125648   5.741   5.030   1.377
 1363TIP3    H225649   5.834   4.951   1.287
 1364TIP3   OH225650   6.348   2.530   8.533
 1364TIP3    H125651   6.309   2.443   8.522
 1364TIP3    H225652   6.381   2.552   8.446
 1365TIP3   OH225653   6.051   6.314   0.333
 1365TIP3    H125654   6.055   6.406   0.356
 1365TIP3    H225655   6.111   6.305   0.259
 1366TIP3   OH225656   0.472   5.710   1.765
 1366TIP3    H125657   0.520   5.791   1.744
 1366TIP3    H225658   0.447   5.721   1.857
 1367TIP3   OH225659   5.954   3.317   6.889
 1367TIP3    H125660   5.868   3.294   6.923
 1367TIP3    H225661   5.948   3.301   6.795
 1368TIP3   OH225662   1.020   0.851   0.021
 1368TIP3    H125663   0.974   0.816   0.098
 1368TIP3    H225664   1.104   0.805   0.020
 1369TIP3   OH225665   3.262   3.051   1.416
 1369TIP3    H125666   3.313   2.970   1.410
 1369TIP3    H225667   3.303   3.098   1.489
 1370TIP3   OH225668   5.007   6.678   8.202
 1370TIP3    H125669   4.928   6.679   8.148
 1370TIP3    H225670   4.981   6.722   8.283
 1371TIP3   OH225671   5.013   1.842   6.631
 1371TIP3    H125672   5.054   1.911   6.579
 1371TIP3    H225673   5.081   1.813   6.691
 1372TIP3   OH225674   6.743   0.874   8.685
 1372TIP3    H125675   6.722   0.931   0.045
 1372TIP3    H225676   6.839   0.864   8.688
 1373TIP3   OH225677   0.743   1.182   0.957
 1373TIP3    H125678   0.712   1.092   0.962
 1373TIP3    H225679   0.722   1.210   0.869
 1374TIP3   OH225680   6.204   2.749   2.219
 1374TIP3    H125681   6.270   2.813   2.247
 1374TIP3    H225682   6.203   2.684   2.289
 1375TIP3   OH225683   1.329   4.636   7.421
 1375TIP3    H125684   1.373   4.666   7.342
 1375TIP3    H225685   1.236   4.633   7.397
 1376TIP3   OH225686   4.237   6.229   1.237
 1376TIP3    H125687   4.238   6.139   1.204
 1376TIP3    H225688   4.267   6.222   1.328
 1377TIP3   OH225689   0.983   5.821   1.788
 1377TIP3    H125690   0.998   5.827   1.883
 1377TIP3    H225691   0.892   5.846   1.776
 1378TIP3   OH225692   5.508   6.260   7.178
 1378TIP3    H125693   5.564   6.261   7.101
 1378TIP3    H225694   5.418   6.263   7.144
 1379TIP3   OH225695   0.494   5.278   0.017
 1379TIP3    H125696   0.497   5.185   0.040
 1379TIP3    H225697   0.421   5.313   0.066
 1380TIP3   OH225698   6.430   1.183   0.028
 1380TIP3    H125699   6.335   1.176   0.037
 1380TIP3    H225700   6.449   1.139   8.658
 1381TIP3   OH225701   0.876   2.245   1.118
 1381TIP3    H125702   0.816   2.316   1.141
 1381TIP3    H225703   0.852   2.221   1.028
 1382TIP3   OH225704   6.616   3.964   7.404
 1382TIP3    H125705   6.597   3.874   7.430
 1382TIP3    H225706   6.688   3.956   7.341
 1383TIP3   OH225707   1.301   3.616   0.183
 1383TIP3    H125708   1.359   3.559   0.233
 1383TIP3    H225709   1.213   3.594   0.214
 1384TIP3   OH225710   2.489   2.085   7.774
 1384TIP3    H125711   2.459   2.172   7.800
 1384TIP3    H225712   2.442   2.024   7.832
 1385TIP3   OH225713   3.206   0.777   8.451
 1385TIP3    H125714   3.168   0.689   8.449
 1385TIP3    H225715   3.166   0.819   8.527
 1386TIP3   OH225716   6.367   3.450   7.257
 1386TIP3    H125717   6.443   3.392   7.252
 1386TIP3    H225718   6.295   3.398   7.220
 1387TIP3   OH225719   3.066   1.680   8.435
 1387TIP3    H125720   3.156   1.677   8.466
 1387TIP3    H225721   3.033   1.591   8.445
 1388TIP3   OH225722   0.832   4.491   6.996
 1388TIP3    H125723   0.787   4.425   7.049
 1388TIP3    H225724   0.832   4.454   6.907
 1389TIP3   OH225725   5.023   1.868   0.506
 1389TIP3    H125726   4.992   1.787   0.545
 1389TIP3    H225727   5.065   1.915   0.578
 1390TIP3   OH225728   3.719   2.272   2.622
 1390TIP3    H125729   3.723   2.179   2.602
 1390TIP3    H225730   3.808   2.295   2.648
 1391TIP3   OH225731   2.447   0.456   1.587
 1391TIP3    H125732   2.384   0.421   1.523
 1391TIP3    H225733   2.421   0.547   1.599
 1392TIP3   OH225734   2.080   0.452   7.798
 1392TIP3    H125735   2.068   0.371   7.847
 1392TIP3    H225736   2.010   0.510   7.828
 1393TIP3   OH225737   3.664   1.705   2.005
 1393TIP3    H125738   3.656   1.752   2.088
 1393TIP3    H225739   3.615   1.624   2.018
 1394TIP3   OH225740   2.852   6.118   8.272
 1394TIP3    H125741   2.890   6.200   8.305
 1394TIP3    H225742   2.894   6.106   8.186
 1395TIP3   OH225743   6.828   0.309   6.977
 1395TIP3    H125744   6.826   0.221   7.015
 1395TIP3    H225745   0.039   0.305   6.910
 1396TIP3   OH225746   4.159   4.201   7.468
 1396TIP3    H125747   4.234   4.260   7.479
 1396TIP3    H225748   4.114   4.205   7.553
 1397TIP3   OH225749   0.115   2.065   6.391
 1397TIP3    H125750   0.169   2.134   6.353
 1397TIP3    H225751   0.067   2.029   6.317
 1398TIP3   OH225752   0.894   5.904   8.501
 1398TIP3    H125753   0.962   5.862   8.553
 1398TIP3    H225754   0.818   5.846   8.509
 1399TIP3   OH225755   3.525   2.347   0.243
 1399TIP3    H125756   3.432   2.368   0.249
 1399TIP3    H225757   3.567   2.431   0.226
 1400TIP3   OH225758   4.608   0.729   7.509
 1400TIP3    H125759   4.624   0.676   7.587
 1400TIP3    H225760   4.692   0.772   7.491
 1401TIP3   OH225761   3.056   5.216   2.224
 1401TIP3    H125762   3.124   5.266   2.270
 1401TIP3    H225763   3.050   5.259   2.138
 1402TIP3   OH225764   1.016   6.061   0.482
 1402TIP3    H125765   0.931   6.094   0.512
 1402TIP3    H225766   1.080   6.104   0.540
 1403TIP3   OH225767   4.612   2.494   0.802
 1403TIP3    H125768   4.648   2.580   0.822
 1403TIP3    H225769   4.593   2.455   0.887
 1404TIP3   OH225770   1.654   5.627   0.797
 1404TIP3    H125771   1.595   5.553   0.782
 1404TIP3    H225772   1.596   5.703   0.807
 1405TIP3   OH225773   6.306   2.882   6.589
 1405TIP3    H125774   6.250   2.959   6.578
 1405TIP3    H225775   6.328   2.855   6.500
 1406TIP3   OH225776   4.755   5.657   2.494
 1406TIP3    H125777   4.712   5.743   2.491
 1406TIP3    H225778   4.844   5.677   2.525
 1407TIP3   OH225779   0.305   4.829   1.522
 1407TIP3    H125780   0.267   4.767   1.459
 1407TIP3    H225781   0.307   4.781   1.605
 1408TIP3   OH225782   5.508   0.818   0.165
 1408TIP3    H125783   5.551   0.801   0.081
 1408TIP3    H225784   5.512   0.734   0.210
 1409TIP3   OH225785   3.471   5.514   8.433
 1409TIP3    H125786   3.469   5.506   8.338
 1409TIP3    H225787   3.545   5.570   8.452
 1410TIP3   OH225788   0.727   1.587   0.316
 1410TIP3    H125789   0.802   1.613   0.262
 1410TIP3    H225790   0.652   1.631   0.276
 1411TIP3   OH225791   0.344   2.063   0.324
 1411TIP3    H125792   0.350   2.008   0.246
 1411TIP3    H225793   0.250   2.074   0.338
 1412TIP3   OH225794   6.183   3.443   6.771
 1412TIP3    H125795   6.119   3.373   6.782
 1412TIP3    H225796   6.167   3.477   6.683
 1413TIP3   OH225797   2.265   4.986   8.362
 1413TIP3    H125798   2.354   5.014   8.379
 1413TIP3    H225799   2.234   5.043   8.292
 1414TIP3   OH225800   5.838   2.274   0.636
 1414TIP3    H125801   5.783   2.203   0.671
 1414TIP3    H225802   5.859   2.327   0.713
 1415TIP3   OH225803   3.854   0.834   1.982
 1415TIP3    H125804   3.942   0.871   1.992
 1415TIP3    H225805   3.839   0.787   2.064
 1416TIP3   OH225806   6.392   3.091   7.091
 1416TIP3    H125807   6.361   3.136   7.012
 1416TIP3    H225808   6.460   3.148   7.127
 1417TIP3   OH225809   0.241   4.026   6.822
 1417TIP3    H125810   0.264   4.069   6.740
 1417TIP3    H225811   0.151   4.055   6.839
 1418TIP3   OH225812   1.918   3.229   7.912
 1418TIP3    H125813   1.888   3.220   7.822
 1418TIP3    H225814   1.925   3.323   7.927
 1419TIP3   OH225815   1.094   3.968   7.439
 1419TIP3    H125816   1.175   3.998   7.480
 1419TIP3    H225817   1.042   4.048   7.428
 1420TIP3   OH225818   3.041   0.472   6.866
 1420TIP3    H125819   2.972   0.444   6.925
 1420TIP3    H225820   2.999   0.535   6.807
 1421TIP3   OH225821   0.792   4.879   0.766
 1421TIP3    H125822   0.877   4.911   0.734
 1421TIP3    H225823   0.799   4.784   0.761
 1422TIP3   OH225824   4.331   3.357   1.839
 1422TIP3    H125825   4.316   3.452   1.838
 1422TIP3    H225826   4.398   3.345   1.906
 1423TIP3   OH225827   6.349   4.428   0.644
 1423TIP3    H125828   6.272   4.391   0.688
 1423TIP3    H225829   6.405   4.459   0.715
 1424TIP3   OH225830   0.930   0.516   7.348
 1424TIP3    H125831   0.902   0.592   7.297
 1424TIP3    H225832   0.884   0.442   7.308
 1425TIP3   OH225833   3.728   6.157   6.554
 1425TIP3    H125834   3.762   6.068   6.546
 1425TIP3    H225835   3.741   6.179   6.647
 1426TIP3   OH225836   6.390   5.279   1.926
 1426TIP3    H125837   6.474   5.234   1.918
 1426TIP3    H225838   6.412   5.364   1.964
 1427TIP3   OH225839   1.875   2.335   8.182
 1427TIP3    H125840   1.859   2.429   8.193
 1427TIP3    H225841   1.970   2.326   8.194
 1428TIP3   OH225842   4.665   1.332   1.301
 1428TIP3    H125843   4.635   1.288   1.380
 1428TIP3    H225844   4.600   1.400   1.285
 1429TIP3   OH225845   0.360   1.818   6.918
 1429TIP3    H125846   0.359   1.882   6.846
 1429TIP3    H225847   0.291   1.848   6.978
 1430TIP3   OH225848   0.581   0.374   8.244
 1430TIP3    H125849   0.671   0.371   8.211
 1430TIP3    H225850   0.529   0.328   8.179
 1431TIP3   OH225851   0.371   3.214   6.437
 1431TIP3    H125852   0.460   3.229   6.471
 1431TIP3    H225853   0.384   3.176   6.350
 1432TIP3   OH225854   6.380   2.770   1.768
 1432TIP3    H125855   6.384   2.745   1.860
 1432TIP3    H225856   6.305   2.830   1.762
 1433TIP3   OH225857   5.506   2.153   6.298
 1433TIP3    H125858   5.538   2.243   6.309
 1433TIP3    H225859   5.566   2.114   6.235
 1434TIP3   OH225860   5.876   5.257   8.639
 1434TIP3    H125861   5.937   5.320   8.677
 1434TIP3    H225862   5.929   5.179   8.623
 1435TIP3   OH225863   2.904   6.140   7.552
 1435TIP3    H125864   2.889   6.046   7.559
 1435TIP3    H225865   2.971   6.158   7.617
 1436TIP3   OH225866   3.430   4.100   1.782
 1436TIP3    H125867   3.440   4.189   1.750
 1436TIP3    H225868   3.369   4.107   1.855
 1437TIP3   OH225869   1.665   0.475   1.642
 1437TIP3    H125870   1.643   0.417   1.715
 1437TIP3    H225871   1.667   0.416   1.566
 1438TIP3   OH225872   1.067   3.251   6.927
 1438TIP3    H125873   0.992   3.303   6.898
 1438TIP3    H225874   1.103   3.214   6.846
 1439TIP3   OH225875   3.881   5.149   2.241
 1439TIP3    H125876   3.789   5.159   2.265
 1439TIP3    H225877   3.923   5.119   2.322
 1440TIP3   OH225878   2.337   4.174   6.333
 1440TIP3    H125879   2.294   4.231   6.397
 1440TIP3    H225880   2.299   4.199   6.249
 1441TIP3   OH225881   0.202   0.294   6.847
 1441TIP3    H125882   0.214   0.204   6.817
 1441TIP3    H225883   0.255   0.347   6.788
 1442TIP3   OH225884   3.032   1.464   0.246
 1442TIP3    H125885   2.977   1.433   0.318
 1442TIP3    H225886   3.034   1.559   0.256
 1443TIP3   OH225887   0.064   4.792   7.015
 1443TIP3    H125888   0.157   4.807   7.001
 1443TIP3    H225889   0.035   4.749   6.935
 1444TIP3   OH225890   5.649   5.206   0.107
 1444TIP3    H125891   5.714   5.221   0.038
 1444TIP3    H225892   5.702   5.190   0.186
 1445TIP3   OH225893   4.575   3.612   7.073
 1445TIP3    H125894   4.528   3.596   6.990
 1445TIP3    H225895   4.650   3.553   7.070
 1446TIP3   OH225896   3.079   5.648   7.845
 1446TIP3    H125897   3.091   5.705   7.769
 1446TIP3    H225898   2.992   5.671   7.878
 1447TIP3   OH225899   4.813   3.548   8.258
 1447TIP3    H125900   4.719   3.564   8.252
 1447TIP3    H225901   4.853   3.635   8.250
 1448TIP3   OH225902   5.048   4.489   7.892
 1448TIP3    H125903   5.007   4.565   7.850
 1448TIP3    H225904   5.132   4.522   7.925
 1449TIP3   OH225905   2.602   0.136   6.890
 1449TIP3    H125906   2.567   0.058   6.932
 1449TIP3    H225907   2.609   0.113   6.798
 1450TIP3   OH225908   5.248   0.537   0.315
 1450TIP3    H125909   5.266   0.526   0.222
 1450TIP3    H225910   5.292   0.462   0.357
 1451TIP3   OH225911   5.710   3.760   0.644
 1451TIP3    H125912   5.782   3.810   0.682
 1451TIP3    H225913   5.753   3.693   0.590
 1452TIP3   OH225914   1.576   1.115   6.213
 1452TIP3    H125915   1.561   1.021   6.209
 1452TIP3    H225916   1.640   1.132   6.144
 1453TIP3   OH225917   3.012   1.143   1.935
 1453TIP3    H125918   3.096   1.120   1.974
 1453TIP3    H225919   2.958   1.171   2.009
 1454TIP3   OH225920   2.142   4.698   0.891
 1454TIP3    H125921   2.123   4.606   0.875
 1454TIP3    H225922   2.195   4.725   0.815
 1455TIP3   OH225923   0.683   3.953   7.113
 1455TIP3    H125924   0.767   3.940   7.158
 1455TIP3    H225925   0.706   3.952   7.020
 1456TIP3   OH225926   1.316   2.120   1.616
 1456TIP3    H125927   1.328   2.215   1.626
 1456TIP3    H225928   1.353   2.083   1.696
 1457TIP3   OH225929   0.068   1.279   7.021
 1457TIP3    H125930   0.037   1.237   6.940
 1457TIP3    H225931   0.010   1.246   7.089
 1458TIP3   OH225932   2.694   1.254   6.888
 1458TIP3    H125933   2.773   1.292   6.850
 1458TIP3    H225934   2.624   1.280   6.829
 1459TIP3   OH225935   1.677   1.091   8.067
 1459TIP3    H125936   1.697   1.105   8.160
 1459TIP3    H225937   1.692   1.176   8.027
 1460TIP3   OH225938   4.976   6.062   1.739
 1460TIP3    H125939   5.045   6.070   1.804
 1460TIP3    H225940   4.916   6.135   1.758
 1461TIP3   OH225941   4.013   0.842   1.372
 1461TIP3    H125942   3.954   0.805   1.306
 1461TIP3    H225943   4.000   0.786   1.449
 1462TIP3   OH225944   2.257   2.983   0.746
 1462TIP3    H125945   2.280   2.891   0.728
 1462TIP3    H225946   2.311   3.007   0.821
 1463TIP3   OH225947   6.389   0.160   0.384
 1463TIP3    H125948   6.373   0.174   0.478
 1463TIP3    H225949   6.392   0.065   0.375
 1464TIP3   OH225950   4.220   2.869   8.588
 1464TIP3    H125951   4.148   2.882   8.526
 1464TIP3    H225952   4.198   2.787   8.633
 1465TIP3   OH225953   3.751   4.768   7.665
 1465TIP3    H125954   3.674   4.825   7.679
 1465TIP3    H225955   3.826   4.824   7.685
 1466TIP3   OH225956   6.003   2.770   1.524
 1466TIP3    H125957   6.053   2.708   1.471
 1466TIP3    H225958   6.058   2.849   1.528
 1467TIP3   OH225959   5.145   3.235   7.574
 1467TIP3    H125960   5.129   3.315   7.624
 1467TIP3    H225961   5.058   3.196   7.563
 1468TIP3   OH225962   1.946   1.599   7.984
 1468TIP3    H125963   1.889   1.668   7.948
 1468TIP3    H225964   2.019   1.594   7.922
 1469TIP3   OH225965   0.697   6.042   6.663
 1469TIP3    H125966   0.782   5.999   6.670
 1469TIP3    H225967   0.709   6.127   6.706
 1470TIP3   OH225968   3.438   1.132   1.369
 1470TIP3    H125969   3.398   1.178   1.295
 1470TIP3    H225970   3.399   1.174   1.446
 1471TIP3   OH225971   0.487   2.144   1.341
 1471TIP3    H125972   0.419   2.078   1.327
 1471TIP3    H225973   0.443   2.227   1.327
 1472TIP3   OH225974   0.172   2.193   6.723
 1472TIP3    H125975   0.193   2.287   6.726
 1472TIP3    H225976   0.202   2.159   6.808
 1473TIP3   OH225977   2.286   2.530   1.069
 1473TIP3    H125978   2.362   2.500   1.020
 1473TIP3    H225979   2.310   2.618   1.100
 1474TIP3   OH225980   4.686   0.137   8.052
 1474TIP3    H125981   4.632   0.140   8.131
 1474TIP3    H225982   4.623   0.134   7.980
 1475TIP3   OH225983   0.659   2.464   1.116
 1475TIP3    H125984   0.710   2.527   1.065
 1475TIP3    H225985   0.573   2.506   1.127
 1476TIP3   OH225986   6.737   2.378   0.499
 1476TIP3    H125987   6.653   2.377   0.452
 1476TIP3    H225988   6.800   2.410   0.435
 1477TIP3   OH225989   0.119   5.183   1.547
 1477TIP3    H125990   0.210   5.209   1.534
 1477TIP3    H225991   0.124   5.095   1.586
 1478TIP3   OH225992   4.291   4.948   0.191
 1478TIP3    H125993   4.372   4.898   0.180
 1478TIP3    H225994   4.238   4.895   0.250
 1479TIP3   OH225995   0.177   2.604   7.912
 1479TIP3    H125996   0.253   2.658   7.890
 1479TIP3    H225997   0.142   2.577   7.827
 1480TIP3   OH225998   0.428   5.714   2.059
 1480TIP3    H125999   0.457   5.623   2.049
 1480TIP3    H226000   0.495   5.754   2.114
 1481TIP3   OH226001   3.877   2.863   0.105
 1481TIP3    H126002   3.908   2.812   0.180
 1481TIP3    H226003   3.889   2.954   0.132
 1482TIP3   OH226004   6.713   5.615   1.781
 1482TIP3    H126005   6.755   5.564   1.713
 1482TIP3    H226006   6.723   5.706   1.753
 1483TIP3   OH226007   5.301   2.068   7.301
 1483TIP3    H126008   5.301   1.991   7.245
 1483TIP3    H226009   5.223   2.118   7.274
 1484TIP3   OH226010   4.268   4.687   8.317
 1484TIP3    H126011   4.188   4.740   8.309
 1484TIP3    H226012   4.248   4.607   8.270
 1485TIP3   OH226013   0.840   0.363   7.826
 1485TIP3    H126014   0.884   0.416   7.759
 1485TIP3    H226015   0.757   0.408   7.842
 1486TIP3   OH226016   2.974   3.906   7.425
 1486TIP3    H126017   3.037   3.966   7.465
 1486TIP3    H226018   3.026   3.830   7.399
 1487TIP3   OH226019   0.270   5.584   1.157
 1487TIP3    H126020   0.232   5.649   1.216
 1487TIP3    H226021   0.215   5.506   1.168
 1488TIP3   OH226022   5.848   3.020   8.014
 1488TIP3    H126023   5.769   3.003   7.963
 1488TIP3    H226024   5.910   2.953   7.984
 1489TIP3   OH226025   2.086   2.934   7.797
 1489TIP3    H126026   2.032   2.899   7.868
 1489TIP3    H226027   2.028   2.935   7.721
 1490TIP3   OH226028   1.451   0.511   8.328
 1490TIP3    H126029   1.406   0.461   8.259
 1490TIP3    H226030   1.388   0.512   8.400
 1491TIP3   OH226031   1.687   0.267   0.659
 1491TIP3    H126032   1.777   0.284   0.687
 1491TIP3    H226033   1.677   0.318   0.578
 1492TIP3   OH226034   0.495   0.002   0.831
 1492TIP3    H126035   0.406   6.841   0.861
 1492TIP3    H226036   0.534   6.772   0.816
 1493TIP3   OH226037   1.353   5.774   6.337
 1493TIP3    H126038   1.267   5.755   6.375
 1493TIP3    H226039   1.336   5.836   6.266
 1494TIP3   OH226040   2.225   3.311   6.856
 1494TIP3    H126041   2.267   3.292   6.772
 1494TIP3    H226042   2.268   3.253   6.919
 1495TIP3   OH226043   4.984   3.356   6.704
 1495TIP3    H126044   5.029   3.273   6.693
 1495TIP3    H226045   4.996   3.401   6.620
 1496TIP3   OH226046   6.114   3.827   7.987
 1496TIP3    H126047   6.129   3.884   7.911
 1496TIP3    H226048   6.202   3.802   8.016
 1497TIP3   OH226049   0.889   1.086   6.903
 1497TIP3    H126050   0.859   1.177   6.895
 1497TIP3    H226051   0.855   1.043   6.825
 1498TIP3   OH226052   5.977   3.849   1.078
 1498TIP3    H126053   6.033   3.913   1.120
 1498TIP3    H226054   5.987   3.769   1.130
 1499TIP3   OH226055   6.336   3.918   2.419
 1499TIP3    H126056   6.401   3.854   2.391
 1499TIP3    H226057   6.258   3.897   2.367
 1500TIP3   OH226058   4.959   4.528   7.518
 1500TIP3    H126059   4.993   4.577   7.443
 1500TIP3    H226060   5.036   4.483   7.554
 1501TIP3   OH226061   4.588   1.382   1.853
 1501TIP3    H126062   4.581   1.320   1.926
 1501TIP3    H226063   4.529   1.347   1.787
 1502TIP3   OH226064   0.653   1.678   6.736
 1502TIP3    H126065   0.746   1.697   6.722
 1502TIP3    H226066   0.623   1.750   6.791
 1503TIP3   OH226067   5.413   5.593   0.648
 1503TIP3    H126068   5.346   5.564   0.586
 1503TIP3    H226069   5.423   5.519   0.708
 1504TIP3   OH226070   0.266   4.423   1.529
 1504TIP3    H126071   0.227   4.373   1.601
 1504TIP3    H226072   0.325   4.360   1.487
 1505TIP3   OH226073   3.820   4.268   8.315
 1505TIP3    H126074   3.761   4.249   8.387
 1505TIP3    H226075   3.839   4.362   8.324
 1506TIP3   OH226076   2.079   3.776   1.654
 1506TIP3    H126077   2.098   3.682   1.656
 1506TIP3    H226078   2.015   3.789   1.724
 1507TIP3   OH226079   3.022   5.417   0.315
 1507TIP3    H126080   2.942   5.444   0.270
 1507TIP3    H226081   3.087   5.409   0.246
 1508TIP3   OH226082   4.255   5.538   0.847
 1508TIP3    H126083   4.278   5.453   0.885
 1508TIP3    H226084   4.167   5.525   0.811
 1509TIP3   OH226085   2.492   6.620   6.268
 1509TIP3    H126086   2.417   6.567   6.241
 1509TIP3    H226087   2.490   6.696   6.209
 1510TIP3   OH226088   4.926   2.028   6.956
 1510TIP3    H126089   4.900   2.064   6.871
 1510TIP3    H226090   4.989   2.091   6.990
 1511TIP3   OH226091   2.170   6.553   7.390
 1511TIP3    H126092   2.231   6.605   7.339
 1511TIP3    H226093   2.097   6.612   7.409
 1512TIP3   OH226094   1.262   2.142   7.915
 1512TIP3    H126095   1.258   2.125   7.821
 1512TIP3    H226096   1.354   2.162   7.932
 1513TIP3   OH226097   5.188   1.110   7.765
 1513TIP3    H126098   5.199   1.191   7.815
 1513TIP3    H226099   5.271   1.100   7.718
 1514TIP3   OH226100   6.092   4.952   7.130
 1514TIP3    H126101   6.026   4.883   7.143
 1514TIP3    H226102   6.166   4.907   7.090
 1515TIP3   OH226103   5.708   0.260   1.405
 1515TIP3    H126104   5.752   0.313   1.470
 1515TIP3    H226105   5.657   0.197   1.456
 1516TIP3   OH226106   1.143   5.667   6.491
 1516TIP3    H126107   1.053   5.643   6.470
 1516TIP3    H226108   1.135   5.751   6.538
 1517TIP3   OH226109   2.337   4.792   6.871
 1517TIP3    H126110   2.313   4.699   6.872
 1517TIP3    H226111   2.428   4.793   6.842
 1518TIP3   OH226112   2.573   0.519   0.481
 1518TIP3    H126113   2.541   0.436   0.516
 1518TIP3    H226114   2.532   0.526   0.394
 1519TIP3   OH226115   1.785   1.746   7.566
 1519TIP3    H126116   1.804   1.774   7.477
 1519TIP3    H226117   1.690   1.738   7.569
 1520TIP3   OH226118   2.970   5.349   7.095
 1520TIP3    H126119   2.968   5.257   7.067
 1520TIP3    H226120   2.952   5.345   7.189
 1521TIP3   OH226121   2.698   3.236   2.657
 1521TIP3    H126122   2.628   3.277   2.608
 1521TIP3    H226123   2.776   3.288   2.636
 1522TIP3   OH226124   3.794   2.043   8.331
 1522TIP3    H126125   3.835   2.129   8.326
 1522TIP3    H226126   3.705   2.057   8.298
 1523TIP3   OH226127   3.326   0.209   7.400
 1523TIP3    H126128   3.383   0.250   7.465
 1523TIP3    H226129   3.385   0.182   7.329
 1524TIP3   OH226130   1.751   6.416   7.312
 1524TIP3    H126131   1.702   6.413   7.393
 1524TIP3    H226132   1.792   6.503   7.311
 1525TIP3   OH226133   4.370   4.699   0.976
 1525TIP3    H126134   4.381   4.764   0.906
 1525TIP3    H226135   4.429   4.728   1.045
 1526TIP3   OH226136   5.255   4.361   0.400
 1526TIP3    H126137   5.219   4.288   0.450
 1526TIP3    H226138   5.202   4.437   0.424
 1527TIP3   OH226139   1.971   4.296   7.163
 1527TIP3    H126140   1.946   4.308   7.071
 1527TIP3    H226141   2.066   4.300   7.162
 1528TIP3   OH226142   5.279   4.676   0.356
 1528TIP3    H126143   5.326   4.753   0.389
 1528TIP3    H226144   5.333   4.644   0.284
 1529TIP3   OH226145   5.624   5.474   7.990
 1529TIP3    H126146   5.553   5.468   8.053
 1529TIP3    H226147   5.628   5.388   7.949
 1530TIP3   OH226148   1.281   5.226   0.304
 1530TIP3    H126149   1.256   5.256   0.216
 1530TIP3    H226150   1.289   5.306   0.355
 1531TIP3   OH226151   6.314   6.698   6.216
 1531TIP3    H126152   6.352   6.612   6.233
 1531TIP3    H226153   6.221   6.681   6.202
 1532TIP3   OH226154   0.232   5.166   0.247
 1532TIP3    H126155   0.145   5.136   0.273
 1532TIP3    H226156   0.240   5.139   0.155
 1533TIP3   OH226157   2.690   0.149   2.126
 1533TIP3    H126158   2.660   0.236   2.098
 1533TIP3    H226159   2.615   0.092   2.107
 1534TIP3   OH226160   3.166   1.690   7.893
 1534TIP3    H126161   3.135   1.761   7.950
 1534TIP3    H226162   3.258   1.678   7.917
 1535TIP3   OH226163   5.090   0.339   1.361
 1535TIP3    H126164   5.180   0.305   1.360
 1535TIP3    H226165   5.095   0.415   1.418
 1536TIP3   OH226166   3.762   0.941   8.242
 1536TIP3    H126167   3.667   0.954   8.241
 1536TIP3    H226168   3.781   0.895   8.160
 1537TIP3   OH226169   1.193   6.224   8.008
 1537TIP3    H126170   1.132   6.217   7.935
 1537TIP3    H226171   1.279   6.223   7.967
 1538TIP3   OH226172   3.234   0.358   8.112
 1538TIP3    H126173   3.294   0.378   8.184
 1538TIP3    H226174   3.238   0.263   8.103
 1539TIP3   OH226175   1.778   5.436   8.696
 1539TIP3    H126176   1.812   5.432   0.072
 1539TIP3    H226177   1.840   5.493   8.650
 1540TIP3   OH226178   4.326   6.446   8.201
 1540TIP3    H126179   4.319   6.366   8.253
 1540TIP3    H226180   4.277   6.426   8.121
 1541TIP3   OH226181   6.740   2.110   1.711
 1541TIP3    H126182   6.676   2.058   1.663
 1541TIP3    H226183   6.741   2.072   1.799
 1542TIP3   OH226184   4.005   6.023   1.078
 1542TIP3    H126185   3.955   5.949   1.044
 1542TIP3    H226186   4.029   5.996   1.167
 1543TIP3   OH226187   6.376   6.822   7.734
 1543TIP3    H126188   6.448   6.808   7.672
 1543TIP3    H226189   6.305   6.768   7.700
 1544TIP3   OH226190   2.293   1.589   7.200
 1544TIP3    H126191   2.264   1.667   7.153
 1544TIP3    H226192   2.306   1.523   7.131
 1545TIP3   OH226193   2.809   2.949   7.942
 1545TIP3    H126194   2.869   2.926   8.013
 1545TIP3    H226195   2.728   2.974   7.986
 1546TIP3   OH226196   4.587   4.984   0.363
 1546TIP3    H126197   4.679   4.991   0.388
 1546TIP3    H226198   4.561   5.073   0.338
 1547TIP3   OH226199   4.935   5.477   7.627
 1547TIP3    H126200   4.983   5.397   7.650
 1547TIP3    H226201   4.998   5.548   7.645
 1548TIP3   OH226202   6.424   3.727   0.143
 1548TIP3    H126203   6.403   3.742   0.051
 1548TIP3    H226204   6.517   3.701   0.142
 1549TIP3   OH226205   0.400   0.369   7.823
 1549TIP3    H126206   0.339   0.341   7.754
 1549TIP3    H226207   0.407   0.294   7.881
 1550TIP3   OH226208   2.979   3.598   0.414
 1550TIP3    H126209   2.947   3.681   0.378
 1550TIP3    H226210   2.921   3.532   0.377
 1551TIP3   OH226211   1.917   1.222   6.697
 1551TIP3    H126212   1.952   1.169   6.625
 1551TIP3    H226213   1.861   1.162   6.746
 1552TIP3   OH226214   5.671   0.784   8.244
 1552TIP3    H126215   5.750   0.797   8.192
 1552TIP3    H226216   5.698   0.725   8.315
 1553TIP3   OH226217   1.223   6.093   2.229
 1553TIP3    H126218   1.273   6.060   2.153
 1553TIP3    H226219   1.143   6.041   2.228
 1554TIP3   OH226220   3.367   4.161   8.401
 1554TIP3    H126221   3.292   4.158   8.341
 1554TIP3    H226222   3.443   4.154   8.344
 1555TIP3   OH226223   1.127   3.129   8.389
 1555TIP3    H126224   1.199   3.097   8.335
 1555TIP3    H226225   1.098   3.052   8.437
 1556TIP3   OH226226   5.195   6.255   6.857
 1556TIP3    H126227   5.100   6.245   6.854
 1556TIP3    H226228   5.212   6.334   6.805
 1557TIP3   OH226229   1.820   1.031   7.376
 1557TIP3    H126230   1.845   1.123   7.373
 1557TIP3    H226231   1.727   1.031   7.352
 1558TIP3   OH226232   1.349   1.970   0.624
 1558TIP3    H126233   1.417   1.906   0.601
 1558TIP3    H226234   1.329   2.014   0.542
 1559TIP3   OH226235   2.721   4.508   1.410
 1559TIP3    H126236   2.715   4.574   1.479
 1559TIP3    H226237   2.773   4.438   1.448
 1560TIP3   OH226238   2.916   0.871   1.937
 1560TIP3    H126239   2.828   0.855   1.972
 1560TIP3    H226240   2.922   0.967   1.932
 1561TIP3   OH226241   6.075   2.371   7.285
 1561TIP3    H126242   6.078   2.288   7.332
 1561TIP3    H226243   6.161   2.378   7.243
 1562TIP3   OH226244   1.102   1.579   8.266
 1562TIP3    H126245   1.007   1.585   8.278
 1562TIP3    H226246   1.113   1.518   8.193
 1563TIP3   OH226247   4.857   2.197   1.658
 1563TIP3    H126248   4.781   2.183   1.601
 1563TIP3    H226249   4.820   2.198   1.746
 1564TIP3   OH226250   4.892   6.132   1.242
 1564TIP3    H126251   4.928   6.197   1.181
 1564TIP3    H226252   4.940   6.147   1.324
 1565TIP3   OH226253   0.036   0.064   0.664
 1565TIP3    H126254   6.840   6.842   0.679
 1565TIP3    H226255   0.099   0.066   0.736
 1566TIP3   OH226256   2.502   6.748   8.385
 1566TIP3    H126257   2.460   6.804   8.450
 1566TIP3    H226258   2.561   6.693   8.436
 1567TIP3   OH226259   4.755   0.686   7.958
 1567TIP3    H126260   4.826   0.632   7.994
 1567TIP3    H226261   4.679   0.664   8.012
 1568TIP3   OH226262   0.126   5.496   0.273
 1568TIP3    H126263   0.141   5.481   0.366
 1568TIP3    H226264   0.054   5.437   0.250
 1569TIP3   OH226265   2.097   1.844   0.400
 1569TIP3    H126266   2.009   1.839   0.362
 1569TIP3    H226267   2.087   1.808   0.488
 1570TIP3   OH226268   4.882   2.669   8.564
 1570TIP3    H126269   4.974   2.684   8.545
 1570TIP3    H226270   4.881   2.637   8.655
 1571TIP3   OH226271   4.211   5.646   1.996
 1571TIP3    H126272   4.281   5.594   2.035
 1571TIP3    H226273   4.207   5.726   2.050
 1572TIP3   OH226274   6.167   1.660   7.531
 1572TIP3    H126275   6.249   1.637   7.574
 1572TIP3    H226276   6.156   1.754   7.548
 1573TIP3   OH226277   2.871   1.537   0.951
 1573TIP3    H126278   2.936   1.599   0.981
 1573TIP3    H226279   2.793   1.590   0.934
 1574TIP3   OH226280   2.736   2.764   7.124
 1574TIP3    H126281   2.728   2.805   7.038
 1574TIP3    H226282   2.653   2.717   7.136
 1575TIP3   OH226283   1.662   6.101   6.286
 1575TIP3    H126284   1.623   6.099   6.198
 1575TIP3    H226285   1.734   6.164   6.278
 1576TIP3   OH226286   1.603   3.294   1.848
 1576TIP3    H126287   1.659   3.278   1.772
 1576TIP3    H226288   1.660   3.278   1.923
 1577TIP3   OH226289   0.057   3.321   1.724
 1577TIP3    H126290   0.047   3.328   1.819
 1577TIP3    H226291   0.119   3.250   1.711
 1578TIP3   OH226292   3.246   1.401   2.517
 1578TIP3    H126293   3.314   1.397   2.451
 1578TIP3    H226294   3.188   1.328   2.497
 1579TIP3   OH226295   0.017   4.994   8.623
 1579TIP3    H126296   0.041   4.998   8.531
 1579TIP3    H226297   0.094   5.027   8.670
 1580TIP3   OH226298   3.127   0.328   1.237
 1580TIP3    H126299   3.093   0.392   1.174
 1580TIP3    H226300   3.144   0.250   1.185
 1581TIP3   OH226301   6.027   6.316   6.988
 1581TIP3    H126302   5.997   6.332   6.899
 1581TIP3    H226303   6.041   6.403   7.025
 1582TIP3   OH226304   5.391   1.350   6.784
 1582TIP3    H126305   5.304   1.355   6.747
 1582TIP3    H226306   5.401   1.259   6.812
 1583TIP3   OH226307   4.613   6.292   7.502
 1583TIP3    H126308   4.646   6.316   7.416
 1583TIP3    H226309   4.518   6.298   7.493
 1584TIP3   OH226310   0.133   0.544   5.919
 1584TIP3    H126311   0.170   0.630   5.895
 1584TIP3    H226312   0.087   0.560   6.002
 1585TIP3   OH226313   6.474   0.836   2.097
 1585TIP3    H126314   6.469   0.926   2.128
 1585TIP3    H226315   6.406   0.830   2.030
 1586TIP3   OH226316   3.377   1.711   1.766
 1586TIP3    H126317   3.353   1.749   1.851
 1586TIP3    H226318   3.353   1.619   1.773
 1587TIP3   OH226319   6.621   6.484   7.719
 1587TIP3    H126320   6.639   6.562   7.772
 1587TIP3    H226321   6.705   6.462   7.680
 1588TIP3   OH226322   1.973   3.470   0.474
 1588TIP3    H126323   1.893   3.520   0.459
 1588TIP3    H226324   1.971   3.401   0.408
 1589TIP3   OH226325   4.198   5.290   6.789
 1589TIP3    H126326   4.159   5.377   6.794
 1589TIP3    H226327   4.210   5.275   6.695
 1590TIP3   OH226328   0.030   0.803   7.793
 1590TIP3    H126329   0.118   0.835   7.778
 1590TIP3    H226330   0.036   0.708   7.780
 1591TIP3   OH226331   1.631   6.843   8.018
 1591TIP3    H126332   1.697   6.852   8.086
 1591TIP3    H226333   1.673   6.789   7.951
 1592TIP3   OH226334   0.616   1.919   6.845
 1592TIP3    H126335   0.524   1.935   6.864
 1592TIP3    H226336   0.663   1.974   6.908
 1593TIP3   OH226337   5.176   2.177   0.892
 1593TIP3    H126338   5.141   2.264   0.877
 1593TIP3    H226339   5.186   2.170   0.987
 1594TIP3   OH226340   4.153   0.717   6.499
 1594TIP3    H126341   4.131   0.629   6.469
 1594TIP3    H226342   4.069   0.762   6.508
 1595TIP3   OH226343   3.437   6.557   8.429
 1595TIP3    H126344   3.520   6.521   8.462
 1595TIP3    H226345   3.370   6.503   8.470
 1596TIP3   OH226346   6.258   5.739   7.827
 1596TIP3    H126347   6.182   5.716   7.773
 1596TIP3    H226348   6.287   5.823   7.792
 1597TIP3   OH226349   6.175   6.046   0.398
 1597TIP3    H126350   6.202   6.106   0.468
 1597TIP3    H226351   6.089   6.079   0.370
 1598TIP3   OH226352   5.009   4.599   8.287
 1598TIP3    H126353   5.017   4.693   8.269
 1598TIP3    H226354   5.093   4.562   8.261
 1599TIP3   OH226355   3.735   2.810   2.101
 1599TIP3    H126356   3.672   2.738   2.100
 1599TIP3    H226357   3.817   2.770   2.132
 1600TIP3   OH226358   1.579   0.499   0.151
 1600TIP3    H126359   1.583   0.406   0.128
 1600TIP3    H226360   1.565   0.544   0.067
 1601TIP3   OH226361   4.628   2.427   6.902
 1601TIP3    H126362   4.690   2.419   6.975
 1601TIP3    H226363   4.669   2.380   6.830
 1602TIP3   OH226364   2.633   3.214   7.552
 1602TIP3    H126365   2.663   3.136   7.505
 1602TIP3    H226366   2.712   3.251   7.590
 1603TIP3   OH226367   6.054   5.624   1.444
 1603TIP3    H126368   5.986   5.678   1.484
 1603TIP3    H226369   6.017   5.596   1.360
 1604TIP3   OH226370   6.525   1.665   7.506
 1604TIP3    H126371   6.469   1.630   7.575
 1604TIP3    H226372   6.518   1.760   7.515
 1605TIP3   OH226373   3.817   0.734   0.606
 1605TIP3    H126374   3.869   0.680   0.666
 1605TIP3    H226375   3.737   0.684   0.593
 1606TIP3   OH226376   5.642   2.522   7.338
 1606TIP3    H126377   5.645   2.435   7.298
 1606TIP3    H226378   5.567   2.565   7.297
 1607TIP3   OH226379   1.371   0.197   0.796
 1607TIP3    H126380   1.281   0.211   0.826
 1607TIP3    H226381   1.394   0.277   0.749
 1608TIP3   OH226382   5.734   1.904   8.700
 1608TIP3    H126383   5.763   1.987   0.025
 1608TIP3    H226384   5.781   1.899   8.616
 1609TIP3   OH226385   5.767   5.620   1.381
 1609TIP3    H126386   5.762   5.680   1.306
 1609TIP3    H226387   5.719   5.543   1.354
 1610TIP3   OH226388   4.780   6.269   0.943
 1610TIP3    H126389   4.845   6.212   0.902
 1610TIP3    H226390   4.832   6.333   0.991
 1611TIP3   OH226391   3.889   0.311   8.297
 1611TIP3    H126392   3.866   0.241   8.357
 1611TIP3    H226393   3.957   0.361   8.343
 1612TIP3   OH226394   2.678   0.426   8.331
 1612TIP3    H126395   2.730   0.365   8.279
 1612TIP3    H226396   2.604   0.374   8.362
 1613TIP3   OH226397   1.532   5.662   0.311
 1613TIP3    H126398   1.460   5.647   0.251
 1613TIP3    H226399   1.611   5.644   0.260
 1614TIP3   OH226400   6.145   0.602   0.631
 1614TIP3    H126401   6.167   0.564   0.546
 1614TIP3    H226402   6.229   0.610   0.676
 1615TIP3   OH226403   4.337   3.582   8.615
 1615TIP3    H126404   4.254   3.544   8.643
 1615TIP3    H226405   4.347   3.661   8.668
 1616TIP3   OH226406   2.905   6.852   8.073
 1616TIP3    H126407   2.861   0.018   7.991
 1616TIP3    H226408   2.889   6.758   8.084
 1617TIP3   OH226409   2.847   4.629   8.095
 1617TIP3    H126410   2.788   4.594   8.162
 1617TIP3    H226411   2.895   4.699   8.139
 1618TIP3   OH226412   0.103   0.452   8.364
 1618TIP3    H126413   0.188   0.409   8.357
 1618TIP3    H226414   0.121   0.544   8.345
 1619TIP3   OH226415   1.711   0.693   1.287
 1619TIP3    H126416   1.648   0.720   1.219
 1619TIP3    H226417   1.660   0.692   1.367
 1620TIP3   OH226418   1.723   6.117   8.112
 1620TIP3    H126419   1.630   6.138   8.098
 1620TIP3    H226420   1.739   6.138   8.204
 1621TIP3   OH226421   0.605   3.570   7.433
 1621TIP3    H126422   0.555   3.519   7.369
 1621TIP3    H226423   0.543   3.638   7.461
 1622TIP3   OH226424   4.052   5.556   0.148
 1622TIP3    H126425   4.143   5.582   0.132
 1622TIP3    H226426   4.055   5.506   0.229
 1623TIP3   OH226427   0.703   3.707   1.667
 1623TIP3    H126428   0.717   3.676   1.577
 1623TIP3    H226429   0.790   3.728   1.699
 1624TIP3   OH226430   5.640   6.669   2.039
 1624TIP3    H126431   5.601   6.674   1.951
 1624TIP3    H226432   5.571   6.699   2.098
 1625TIP3   OH226433   4.780   3.350   8.654
 1625TIP3    H126434   4.740   3.435   8.636
 1625TIP3    H226435   4.738   3.290   8.592
 1626TIP3   OH226436   1.019   6.183   8.662
 1626TIP3    H126437   1.057   6.255   8.712
 1626TIP3    H226438   0.951   6.147   0.005
 1627TIP3   OH226439   3.711   2.967   6.465
 1627TIP3    H126440   3.642   2.910   6.499
 1627TIP3    H226441   3.665   3.044   6.433
 1628TIP3   OH226442   2.525   3.048   8.026
 1628TIP3    H126443   2.530   3.137   7.992
 1628TIP3    H226444   2.487   2.997   7.954
 1629TIP3   OH226445   0.464   6.743   8.454
 1629TIP3    H126446   0.415   6.740   8.537
 1629TIP3    H226447   0.482   6.836   8.441
 1630TIP3   OH226448   5.244   1.661   8.684
 1630TIP3    H126449   5.282   1.706   0.047
 1630TIP3    H226450   5.313   1.665   8.618
 1631TIP3   OH226451   2.558   4.840   0.127
 1631TIP3    H126452   2.506   4.890   0.191
 1631TIP3    H226453   2.583   4.760   0.174
 1632TIP3   OH226454   1.113   4.473   6.679
 1632TIP3    H126455   1.104   4.439   6.590
 1632TIP3    H226456   1.124   4.568   6.668
 1633TIP3   OH226457   0.738   2.768   7.568
 1633TIP3    H126458   0.804   2.836   7.578
 1633TIP3    H226459   0.779   2.703   7.511
 1634TIP3   OH226460   6.538   5.016   6.446
 1634TIP3    H126461   6.629   5.010   6.474
 1634TIP3    H226462   6.504   5.093   6.492
 1635TIP3   OH226463   5.221   4.931   8.275
 1635TIP3    H126464   5.126   4.944   8.272
 1635TIP3    H226465   5.248   4.980   8.353
 1636TIP3   OH226466   2.571   6.113   0.222
 1636TIP3    H126467   2.534   6.031   0.190
 1636TIP3    H226468   2.497   6.174   0.222
 1637TIP3   OH226469   6.209   2.103   7.296
 1637TIP3    H126470   6.169   2.028   7.340
 1637TIP3    H226471   6.279   2.066   7.243
 1638TIP3   OH226472   1.482   1.734   0.613
 1638TIP3    H126473   1.555   1.672   0.609
 1638TIP3    H226474   1.407   1.681   0.639
 1639TIP3   OH226475   2.685   6.242   7.711
 1639TIP3    H126476   2.606   6.208   7.669
 1639TIP3    H226477   2.756   6.219   7.650
 1640TIP3   OH226478   2.269   3.568   8.586
 1640TIP3    H126479   2.292   3.608   8.669
 1640TIP3    H226480   2.194   3.618   8.554
 1641TIP3   OH226481   6.381   5.190   0.353
 1641TIP3    H126482   6.300   5.238   0.368
 1641TIP3    H226483   6.448   5.242   0.396
 1642TIP3   OH226484   2.189   1.160   0.872
 1642TIP3    H126485   2.130   1.185   0.943
 1642TIP3    H226486   2.178   1.229   0.806
 1643TIP3   OH226487   3.183   0.659   0.802
 1643TIP3    H126488   3.262   0.706   0.827
 1643TIP3    H226489   3.145   0.711   0.731
 1644TIP3   OH226490   0.056   2.587   1.464
 1644TIP3    H126491   0.004   2.507   1.457
 1644TIP3    H226492   0.051   2.611   1.556
 1645TIP3   OH226493   6.594   3.803   1.910
 1645TIP3    H126494   6.593   3.845   1.824
 1645TIP3    H226495   6.517   3.837   1.954
 1646TIP3   OH226496   5.321   1.443   2.166
 1646TIP3    H126497   5.284   1.523   2.204
 1646TIP3    H226498   5.287   1.372   2.220
 1647TIP3   OH226499   2.459   5.886   2.000
 1647TIP3    H126500   2.396   5.956   2.015
 1647TIP3    H226501   2.545   5.927   2.009
 1648TIP3   OH226502   3.112   0.514   8.446
 1648TIP3    H126503   3.088   0.450   8.513
 1648TIP3    H226504   3.201   0.491   8.420
 1649TIP3   OH226505   6.179   3.422   1.354
 1649TIP3    H126506   6.129   3.369   1.416
 1649TIP3    H226507   6.251   3.366   1.327
 1650TIP3   OH226508   3.930   0.009   7.934
 1650TIP3    H126509   4.015   6.830   7.960
 1650TIP3    H226510   3.880   0.013   8.016
 1651TIP3   OH226511   1.087   5.689   2.680
 1651TIP3    H126512   1.165   5.740   2.704
 1651TIP3    H226513   1.051   5.736   2.605
 1652TIP3   OH226514   4.294   0.255   7.868
 1652TIP3    H126515   4.230   0.225   7.804
 1652TIP3    H226516   4.327   0.337   7.831
 1653TIP3   OH226517   6.406   6.320   7.653
 1653TIP3    H126518   6.478   6.379   7.674
 1653TIP3    H226519   6.369   6.295   7.738
 1654TIP3   OH226520   0.415   5.446   8.285
 1654TIP3    H126521   0.484   5.490   8.236
 1654TIP3    H226522   0.462   5.391   8.348
 1655TIP3   OH226523   4.917   1.419   1.192
 1655TIP3    H126524   4.883   1.509   1.200
 1655TIP3    H226525   4.842   1.364   1.216
 1656TIP3   OH226526   3.811   5.047   7.518
 1656TIP3    H126527   3.832   5.127   7.565
 1656TIP3    H226528   3.770   5.078   7.437
 1657TIP3   OH226529   3.475   4.895   1.628
 1657TIP3    H126530   3.474   4.820   1.570
 1657TIP3    H226531   3.452   4.859   1.714
 1658TIP3   OH226532   0.512   5.505   8.561
 1658TIP3    H126533   0.501   5.451   8.639
 1658TIP3    H226534   0.570   5.454   8.505
 1659TIP3   OH226535   6.353   2.600   7.464
 1659TIP3    H126536   6.422   2.666   7.457
 1659TIP3    H226537   6.291   2.623   7.396
 1660TIP3   OH226538   2.187   3.256   1.082
 1660TIP3    H126539   2.265   3.201   1.069
 1660TIP3    H226540   2.119   3.214   1.031
 1661TIP3   OH226541   1.113   1.167   1.918
 1661TIP3    H126542   1.078   1.251   1.888
 1661TIP3    H226543   1.047   1.103   1.892
 1662TIP3   OH226544   4.244   1.266   0.874
 1662TIP3    H126545   4.293   1.216   0.939
 1662TIP3    H226546   4.294   1.346   0.863
 1663TIP3   OH226547   3.685   0.146   0.360
 1663TIP3    H126548   3.686   0.091   0.282
 1663TIP3    H226549   3.608   0.116   0.409
 1664TIP3   OH226550   4.084   5.582   7.618
 1664TIP3    H126551   4.078   5.546   7.529
 1664TIP3    H226552   4.022   5.655   7.618
 1665TIP3   OH226553   6.426   3.509   2.120
 1665TIP3    H126554   6.480   3.571   2.169
 1665TIP3    H226555   6.368   3.564   2.067
 1666TIP3   OH226556   2.610   2.299   0.462
 1666TIP3    H126557   2.541   2.319   0.525
 1666TIP3    H226558   2.689   2.291   0.515
 1667TIP3   OH226559   3.271   2.023   1.580
 1667TIP3    H126560   3.185   2.055   1.607
 1667TIP3    H226561   3.259   1.929   1.570
 1668TIP3   OH226562   6.264   1.284   7.494
 1668TIP3    H126563   6.216   1.300   7.575
 1668TIP3    H226564   6.356   1.297   7.517
 1669TIP3   OH226565   5.872   2.501   0.457
 1669TIP3    H126566   5.857   2.480   0.549
 1669TIP3    H226567   5.784   2.520   0.423
 1670TIP3   OH226568   0.479   1.994   8.660
 1670TIP3    H126569   0.523   2.071   8.695
 1670TIP3    H226570   0.550   1.939   8.626
 1671TIP3   OH226571   5.613   6.387   6.645
 1671TIP3    H126572   5.561   6.333   6.586
 1671TIP3    H226573   5.691   6.410   6.595
 1672TIP3   OH226574   6.777   4.343   1.011
 1672TIP3    H126575   6.831   4.270   1.041
 1672TIP3    H226576   6.700   4.301   0.973
 1673TIP3   OH226577   0.690   0.725   8.261
 1673TIP3    H126578   0.708   0.689   8.174
 1673TIP3    H226579   0.770   0.709   8.311
 1674TIP3   OH226580   5.652   3.317   8.074
 1674TIP3    H126581   5.732   3.311   8.022
 1674TIP3    H226582   5.674   3.278   8.158
 1675TIP3   OH226583   3.825   6.778   0.968
 1675TIP3    H126584   3.752   6.731   0.928
 1675TIP3    H226585   3.901   6.724   0.949
 1676TIP3   OH226586   0.096   0.537   2.105
 1676TIP3    H126587   0.025   0.503   2.160
 1676TIP3    H226588   0.174   0.489   2.133
 1677TIP3   OH226589   0.057   6.526   8.385
 1677TIP3    H126590   0.048   6.540   8.479
 1677TIP3    H226591   0.132   6.467   8.377
 1678TIP3   OH226592   3.265   1.137   0.119
 1678TIP3    H126593   3.272   1.052   0.163
 1678TIP3    H226594   3.291   1.200   0.186
 1679TIP3   OH226595   6.769   2.895   0.541
 1679TIP3    H126596   6.690   2.937   0.573
 1679TIP3    H226597   6.738   2.814   0.500
 1680TIP3   OH226598   2.499   0.110   6.598
 1680TIP3    H126599   2.565   0.134   6.534
 1680TIP3    H226600   2.480   0.018   6.579
 1681TIP3   OH226601   0.315   6.663   7.786
 1681TIP3    H126602   0.407   6.655   7.761
 1681TIP3    H226603   0.306   6.754   7.815
 1682TIP3   OH226604   6.751   0.889   7.547
 1682TIP3    H126605   6.795   0.819   7.500
 1682TIP3    H226606   6.807   0.908   7.622
 1683TIP3   OH226607   0.156   1.866   7.072
 1683TIP3    H126608   0.071   1.822   7.067
 1683TIP3    H226609   0.185   1.853   7.163
 1684TIP3   OH226610   1.248   6.612   6.305
 1684TIP3    H126611   1.327   6.569   6.271
 1684TIP3    H226612   1.176   6.571   6.256
 1685TIP3   OH226613   2.959   2.331   6.870
 1685TIP3    H126614   2.880   2.378   6.897
 1685TIP3    H226615   3.024   2.353   6.937
 1686TIP3   OH226616   1.358   6.061   0.556
 1686TIP3    H126617   1.309   5.985   0.589
 1686TIP3    H226618   1.390   6.034   0.471
 1687TIP3   OH226619   4.909   0.570   1.494
 1687TIP3    H126620   4.974   0.614   1.439
 1687TIP3    H226621   4.960   0.523   1.559
 1688TIP3   OH226622   6.745   0.442   0.054
 1688TIP3    H126623   6.695   0.517   0.022
 1688TIP3    H226624   6.788   0.407   8.689
 1689TIP3   OH226625   1.507   4.455   1.510
 1689TIP3    H126626   1.490   4.402   1.432
 1689TIP3    H226627   1.451   4.416   1.577
 1690TIP3   OH226628   2.489   3.849   1.758
 1690TIP3    H126629   2.577   3.812   1.768
 1690TIP3    H226630   2.487   3.921   1.821
 1691TIP3   OH226631   6.424   5.522   6.728
 1691TIP3    H126632   6.347   5.561   6.770
 1691TIP3    H226633   6.438   5.577   6.651
 1692TIP3   OH226634   2.140   0.814   1.566
 1692TIP3    H126635   2.128   0.813   1.472
 1692TIP3    H226636   2.086   0.886   1.597
 1693TIP3   OH226637   5.214   6.516   6.657
 1693TIP3    H126638   5.274   6.511   6.582
 1693TIP3    H226639   5.272   6.533   6.732
 1694TIP3   OH226640   5.814   3.126   0.739
 1694TIP3    H126641   5.802   3.220   0.725
 1694TIP3    H226642   5.902   3.119   0.776
 1695TIP3   OH226643   2.695   6.128   0.919
 1695TIP3    H126644   2.615   6.173   0.894
 1695TIP3    H226645   2.666   6.043   0.952
 1696TIP3   OH226646   3.316   1.051   8.588
 1696TIP3    H126647   3.382   1.112   8.556
 1696TIP3    H226648   3.293   1.085   8.675
 1697TIP3   OH226649   2.449   6.395   1.191
 1697TIP3    H126650   2.484   6.322   1.243
 1697TIP3    H226651   2.478   6.376   1.102
 1698TIP3   OH226652   4.858   1.356   0.864
 1698TIP3    H126653   4.829   1.318   0.947
 1698TIP3    H226654   4.817   1.442   0.861
 1699TIP3   OH226655   5.894   2.620   1.231
 1699TIP3    H126656   5.960   2.630   1.163
 1699TIP3    H226657   5.943   2.627   1.313
 1700TIP3   OH226658   4.290   0.479   1.805
 1700TIP3    H126659   4.336   0.398   1.782
 1700TIP3    H226660   4.202   0.467   1.771
 1701TIP3   OH226661   1.575   5.624   6.374
 1701TIP3    H126662   1.514   5.697   6.376
 1701TIP3    H226663   1.639   5.645   6.442
 1702TIP3   OH226664   4.216   5.884   7.448
 1702TIP3    H126665   4.310   5.899   7.434
 1702TIP3    H226666   4.211   5.836   7.531
 1703TIP3   OH226667   1.054   1.255   6.564
 1703TIP3    H126668   1.045   1.290   6.653
 1703TIP3    H226669   1.125   1.305   6.525
 1704TIP3   OH226670   5.634   5.416   7.573
 1704TIP3    H126671   5.590   5.498   7.595
 1704TIP3    H226672   5.618   5.359   7.649
 1705TIP3   OH226673   2.560   4.997   7.722
 1705TIP3    H126674   2.535   5.002   7.630
 1705TIP3    H226675   2.479   4.974   7.767
 1706TIP3   OH226676   1.449   0.955   0.132
 1706TIP3    H126677   1.496   0.976   0.213
 1706TIP3    H226678   1.518   0.944   0.066
 1707TIP3   OH226679   4.683   6.743   8.358
 1707TIP3    H126680   4.627   6.672   8.388
 1707TIP3    H226681   4.768   6.726   8.400
 1708TIP3   OH226682   4.123   0.461   7.230
 1708TIP3    H126683   4.113   0.512   7.311
 1708TIP3    H226684   4.067   0.506   7.167
 1709TIP3   OH226685   4.401   6.097   7.700
 1709TIP3    H126686   4.460   6.172   7.698
 1709TIP3    H226687   4.458   6.022   7.710
 1710TIP3   OH226688   2.814   2.522   1.407
 1710TIP3    H126689   2.766   2.584   1.463
 1710TIP3    H226690   2.746   2.478   1.356
 1711TIP3   OH226691   0.509   4.591   7.082
 1711TIP3    H126692   0.503   4.507   7.037
 1711TIP3    H226693   0.476   4.655   7.020
 1712TIP3   OH226694   6.415   1.998   0.263
 1712TIP3    H126695   6.416   1.931   0.195
 1712TIP3    H226696   6.332   1.984   0.309
 1713TIP3   OH226697   5.836   5.047   2.586
 1713TIP3    H126698   5.894   5.104   2.635
 1713TIP3    H226699   5.850   5.070   2.494
 1714TIP3   OH226700   3.204   4.814   8.053
 1714TIP3    H126701   3.193   4.752   7.981
 1714TIP3    H226702   3.231   4.896   8.011
 1715TIP3   OH226703   2.244   1.370   8.702
 1715TIP3    H126704   2.220   1.457   0.019
 1715TIP3    H226705   2.270   1.382   8.611
 1716TIP3   OH226706   1.716   1.574   1.599
 1716TIP3    H126707   1.639   1.543   1.551
 1716TIP3    H226708   1.726   1.665   1.573
 1717TIP3   OH226709   4.051   5.826   7.231
 1717TIP3    H126710   4.086   5.758   7.173
 1717TIP3    H226711   4.113   5.831   7.303
 1718TIP3   OH226712   0.628   2.236   8.515
 1718TIP3    H126713   0.639   2.218   8.422
 1718TIP3    H226714   0.711   2.210   8.555
 1719TIP3   OH226715   6.226   5.215   2.169
 1719TIP3    H126716   6.270   5.186   2.249
 1719TIP3    H226717   6.296   5.244   2.111
 1720TIP3   OH226718   0.160   2.496   0.666
 1720TIP3    H126719   0.103   2.472   0.594
 1720TIP3    H226720   0.230   2.547   0.626
 1721TIP3   OH226721   5.705   6.255   7.351
 1721TIP3    H126722   5.616   6.255   7.314
 1721TIP3    H226723   5.747   6.179   7.312
 1722TIP3   OH226724   2.534   5.906   1.080
 1722TIP3    H126725   2.470   5.911   1.008
 1722TIP3    H226726   2.532   5.814   1.107
 1723TIP3   OH226727   3.213   6.717   1.341
 1723TIP3    H126728   3.300   6.756   1.350
 1723TIP3    H226729   3.225   6.625   1.363
 1724TIP3   OH226730   5.005   5.430   2.527
 1724TIP3    H126731   4.986   5.506   2.471
 1724TIP3    H226732   5.099   5.436   2.545
 1725TIP3   OH226733   2.747   5.902   2.473
 1725TIP3    H126734   2.835   5.905   2.509
 1725TIP3    H226735   2.703   5.978   2.510
 1726TIP3   OH226736   5.329   6.642   8.665
 1726TIP3    H126737   5.415   6.610   8.637
 1726TIP3    H226738   5.321   6.612   0.042
 1727TIP3   OH226739   3.998   5.057   1.104
 1727TIP3    H126740   4.022   5.125   1.168
 1727TIP3    H226741   4.059   5.070   1.032
 1728TIP3   OH226742   6.218   4.545   6.818
 1728TIP3    H126743   6.304   4.550   6.777
 1728TIP3    H226744   6.158   4.586   6.755
 1729TIP3   OH226745   5.855   2.397   7.102
 1729TIP3    H126746   5.940   2.359   7.123
 1729TIP3    H226747   5.793   2.351   7.159
 1730TIP3   OH226748   3.186   0.758   6.661
 1730TIP3    H126749   3.117   0.697   6.689
 1730TIP3    H226750   3.173   0.767   6.566
 1731TIP3   OH226751   0.918   0.683   8.442
 1731TIP3    H126752   0.954   0.626   8.374
 1731TIP3    H226753   0.961   0.767   8.426
 1732TIP3   OH226754   4.370   3.866   7.532
 1732TIP3    H126755   4.400   3.945   7.575
 1732TIP3    H226756   4.434   3.851   7.462
 1733TIP3   OH226757   1.964   0.915   8.337
 1733TIP3    H126758   2.036   0.920   8.400
 1733TIP3    H226759   2.006   0.921   8.252
 1734TIP3   OH226760   2.997   1.790   0.260
 1734TIP3    H126761   2.988   1.769   0.167
 1734TIP3    H226762   3.091   1.798   0.274
 1735TIP3   OH226763   3.308   5.450   7.685
 1735TIP3    H126764   3.298   5.459   7.590
 1735TIP3    H226765   3.349   5.533   7.712
 1736TIP3   OH226766   4.915   4.105   8.385
 1736TIP3    H126767   4.948   4.191   8.411
 1736TIP3    H226768   4.892   4.115   8.292
 1737TIP3   OH226769   1.141   1.073   6.362
 1737TIP3    H126770   1.079   1.109   6.426
 1737TIP3    H226771   1.108   1.104   6.278
 1738TIP3   OH226772   3.119   2.879   7.931
 1738TIP3    H126773   3.066   2.867   7.852
 1738TIP3    H226774   3.172   2.956   7.912
 1739TIP3   OH226775   4.331   2.813   0.588
 1739TIP3    H126776   4.424   2.837   0.587
 1739TIP3    H226777   4.331   2.719   0.568
 1740TIP3   OH226778   2.976   6.392   1.155
 1740TIP3    H126779   2.983   6.308   1.110
 1740TIP3    H226780   2.884   6.416   1.148
 1741TIP3   OH226781   3.301   2.744   8.081
 1741TIP3    H126782   3.250   2.773   8.156
 1741TIP3    H226783   3.252   2.773   8.005
 1742TIP3   OH226784   6.246   1.296   7.765
 1742TIP3    H126785   6.289   1.214   7.738
 1742TIP3    H226786   6.202   1.273   7.847
 1743TIP3   OH226787   3.061   3.224   7.039
 1743TIP3    H126788   2.986   3.280   7.020
 1743TIP3    H226789   3.095   3.200   6.953
 1744TIP3   OH226790   2.501   3.704   7.866
 1744TIP3    H126791   2.510   3.777   7.805
 1744TIP3    H226792   2.468   3.743   7.947
 1745TIP3   OH226793   0.554   0.965   0.016
 1745TIP3    H126794   0.637   1.004   8.703
 1745TIP3    H226795   0.494   0.984   8.657
 1746TIP3   OH226796   6.756   5.896   1.738
 1746TIP3    H126797   6.824   5.930   1.680
 1746TIP3    H226798   6.763   5.948   1.818
 1747TIP3   OH226799   0.326   4.173   7.375
 1747TIP3    H126800   0.314   4.097   7.432
 1747TIP3    H226801   0.351   4.136   7.290
 1748TIP3   OH226802   3.658   3.872   7.091
 1748TIP3    H126803   3.655   3.962   7.058
 1748TIP3    H226804   3.591   3.869   7.158
 1749TIP3   OH226805   5.132   0.435   7.693
 1749TIP3    H126806   5.110   0.355   7.645
 1749TIP3    H226807   5.048   0.467   7.726
 1750TIP3   OH226808   0.988   0.260   0.367
 1750TIP3    H126809   1.003   0.325   0.299
 1750TIP3    H226810   0.932   0.305   0.431
 1751TIP3   OH226811   6.182   5.447   1.642
 1751TIP3    H126812   6.254   5.400   1.599
 1751TIP3    H226813   6.139   5.494   1.571
 1752TIP3   OH226814   3.992   4.506   6.860
 1752TIP3    H126815   3.998   4.545   6.948
 1752TIP3    H226816   4.058   4.552   6.808
 1753TIP3   OH226817   3.443   1.028   0.980
 1753TIP3    H126818   3.505   0.966   0.941
 1753TIP3    H226819   3.422   1.088   0.908
 1754TIP3   OH226820   0.766   3.332   7.538
 1754TIP3    H126821   0.697   3.286   7.491
 1754TIP3    H226822   0.730   3.349   7.625
 1755TIP3   OH226823   2.953   0.579   2.166
 1755TIP3    H126824   3.023   0.562   2.103
 1755TIP3    H226825   2.937   0.494   2.207
 1756TIP3   OH226826   6.057   6.277   8.288
 1756TIP3    H126827   6.104   6.194   8.283
 1756TIP3    H226828   5.965   6.253   8.303
 1757TIP3   OH226829   0.049   6.723   7.775
 1757TIP3    H126830   0.029   6.735   7.682
 1757TIP3    H226831   0.144   6.718   7.778
 1758TIP3   OH226832   3.786   5.643   1.915
 1758TIP3    H126833   3.773   5.561   1.867
 1758TIP3    H226834   3.734   5.633   1.994
 1759TIP3   OH226835   0.745   3.063   0.857
 1759TIP3    H126836   0.698   3.064   0.940
 1759TIP3    H226837   0.837   3.067   0.881
 1760TIP3   OH226838   6.823   1.690   1.150
 1760TIP3    H126839   6.733   1.722   1.153
 1760TIP3    H226840   6.835   1.658   1.061
 1761TIP3   OH226841   2.160   5.670   7.362
 1761TIP3    H126842   2.202   5.625   7.289
 1761TIP3    H226843   2.078   5.622   7.376
 1762TIP3   OH226844   1.476   2.106   0.114
 1762TIP3    H126845   1.530   2.184   0.103
 1762TIP3    H226846   1.510   2.044   0.049
 1763TIP3   OH226847   6.296   2.993   1.447
 1763TIP3    H126848   6.289   2.913   1.394
 1763TIP3    H226849   6.217   3.043   1.427
 1764TIP3   OH226850   0.274   1.362   2.091
 1764TIP3    H126851   0.268   1.302   2.016
 1764TIP3    H226852   0.341   1.426   2.066
 1765TIP3   OH226853   2.381   3.996   8.552
 1765TIP3    H126854   2.433   4.073   8.573
 1765TIP3    H226855   2.444   3.934   8.516
 1766TIP3   OH226856   0.627   3.547   2.055
 1766TIP3    H126857   0.715   3.575   2.080
 1766TIP3    H226858   0.642   3.481   1.987
 1767TIP3   OH226859   0.098   0.757   1.308
 1767TIP3    H126860   0.045   0.803   1.243
 1767TIP3    H226861   0.113   0.822   1.377
 1768TIP3   OH226862   6.734   5.015   8.110
 1768TIP3    H126863   6.701   5.091   8.158
 1768TIP3    H226864   6.713   5.034   8.018
 1769TIP3   OH226865   4.868   5.750   7.860
 1769TIP3    H126866   4.782   5.717   7.831
 1769TIP3    H226867   4.911   5.779   7.780
 1770TIP3   OH226868   0.014   1.208   7.948
 1770TIP3    H126869   6.805   1.219   7.879
 1770TIP3    H226870   6.842   1.267   8.018
 1771TIP3   OH226871   0.792   4.744   1.331
 1771TIP3    H126872   0.748   4.804   1.390
 1771TIP3    H226873   0.871   4.791   1.303
 1772TIP3   OH226874   3.875   6.363   7.546
 1772TIP3    H126875   3.864   6.449   7.587
 1772TIP3    H226876   3.919   6.381   7.463
 1773TIP3   OH226877   2.463   3.236   7.336
 1773TIP3    H126878   2.528   3.237   7.407
 1773TIP3    H226879   2.439   3.144   7.327
 1774TIP3   OH226880   5.998   2.781   6.148
 1774TIP3    H126881   6.031   2.704   6.102
 1774TIP3    H226882   6.053   2.853   6.118
 1775TIP3   OH226883   0.002   6.846   8.139
 1775TIP3    H126884   6.826   6.757   8.150
 1775TIP3    H226885   6.800   0.043   8.192
 1776TIP3   OH226886   0.487   2.396   7.940
 1776TIP3    H126887   0.438   2.451   8.001
 1776TIP3    H226888   0.555   2.454   7.904
 1777TIP3   OH226889   3.665   5.827   0.329
 1777TIP3    H126890   3.628   5.915   0.332
 1777TIP3    H226891   3.748   5.834   0.376
 1778TIP3   OH226892   4.107   0.126   1.946
 1778TIP3    H126893   4.060   0.071   2.008
 1778TIP3    H226894   4.082   0.216   1.970
 1779TIP3   OH226895   0.602   1.560   8.654
 1779TIP3    H126896   0.616   1.594   8.566
 1779TIP3    H226897   0.651   1.621   8.710
 1780TIP3   OH226898   3.775   2.104   1.321
 1780TIP3    H126899   3.693   2.106   1.272
 1780TIP3    H226900   3.843   2.097   1.254
 1781TIP3   OH226901   1.575   0.508   6.842
 1781TIP3    H126902   1.501   0.558   6.807
 1781TIP3    H226903   1.627   0.572   6.891
 1782TIP3   OH226904   3.812   4.809   0.969
 1782TIP3    H126905   3.903   4.800   0.940
 1782TIP3    H226906   3.805   4.899   1.002
 1783TIP3   OH226907   3.441   0.464   0.938
 1783TIP3    H126908   3.357   0.456   0.982
 1783TIP3    H226909   3.452   0.380   0.893
 1784TIP3   OH226910   6.360   5.536   8.572
 1784TIP3    H126911   6.399   5.615   8.608
 1784TIP3    H226912   6.362   5.473   8.645
 1785TIP3   OH226913   3.000   1.611   1.830
 1785TIP3    H126914   3.072   1.548   1.825
 1785TIP3    H226915   2.945   1.579   1.901
 1786TIP3   OH226916   1.649   1.568   1.220
 1786TIP3    H126917   1.740   1.566   1.247
 1786TIP3    H226918   1.605   1.506   1.277
 1787TIP3   OH226919   2.897   4.927   6.289
 1787TIP3    H126920   2.876   4.842   6.329
 1787TIP3    H226921   2.947   4.904   6.211
 1788TIP3   OH226922   5.834   3.286   0.198
 1788TIP3    H126923   5.752   3.256   0.237
 1788TIP3    H226924   5.807   3.345   0.128
 1789TIP3   OH226925   4.983   5.211   7.249
 1789TIP3    H126926   5.043   5.212   7.174
 1789TIP3    H226927   5.039   5.233   7.324
 1790TIP3   OH226928   4.649   6.476   8.700
 1790TIP3    H126929   4.699   6.542   8.653
 1790TIP3    H226930   4.557   6.503   8.688
 1791TIP3   OH226931   1.459   6.411   1.742
 1791TIP3    H126932   1.455   6.327   1.787
 1791TIP3    H226933   1.370   6.424   1.709
 1792TIP3   OH226934   1.386   0.438   7.612
 1792TIP3    H126935   1.304   0.388   7.608
 1792TIP3    H226936   1.441   0.399   7.545
 1793TIP3   OH226937   2.012   0.849   7.266
 1793TIP3    H126938   1.983   0.813   7.182
 1793TIP3    H226939   1.931   0.871   7.312
 1794TIP3   OH226940   3.250   0.723   7.606
 1794TIP3    H126941   3.221   0.725   7.514
 1794TIP3    H226942   3.293   0.807   7.620
 1795TIP3   OH226943   3.915   1.789   0.492
 1795TIP3    H126944   3.980   1.836   0.544
 1795TIP3    H226945   3.870   1.856   0.441
 1796TIP3   OH226946   6.191   2.866   0.649
 1796TIP3    H126947   6.221   2.900   0.733
 1796TIP3    H226948   6.099   2.844   0.663
 1797TIP3   OH226949   1.175   4.324   1.095
 1797TIP3    H126950   1.103   4.384   1.115
 1797TIP3    H226951   1.253   4.380   1.092
 1798TIP3   OH226952   5.152   6.094   8.163
 1798TIP3    H126953   5.215   6.027   8.137
 1798TIP3    H226954   5.067   6.057   8.141
 1799TIP3   OH226955   2.773   1.948   7.687
 1799TIP3    H126956   2.737   1.915   7.605
 1799TIP3    H226957   2.716   1.910   7.755
 1800TIP3   OH226958   2.464   1.580   2.463
 1800TIP3    H126959   2.476   1.486   2.453
 1800TIP3    H226960   2.373   1.596   2.439
 1801TIP3   OH226961   3.864   0.854   7.649
 1801TIP3    H126962   3.843   0.848   7.556
 1801TIP3    H226963   3.853   0.946   7.671
 1802TIP3   OH226964   1.640   3.866   1.317
 1802TIP3    H126965   1.599   3.862   1.403
 1802TIP3    H226966   1.655   3.775   1.293
 1803TIP3   OH226967   2.947   4.288   0.982
 1803TIP3    H126968   3.009   4.351   0.945
 1803TIP3    H226969   2.978   4.273   1.071
 1804TIP3   OH226970   2.410   3.591   0.662
 1804TIP3    H126971   2.358   3.663   0.698
 1804TIP3    H226972   2.386   3.515   0.715
 1805TIP3   OH226973   5.046   3.593   1.900
 1805TIP3    H126974   5.128   3.642   1.904
 1805TIP3    H226975   5.057   3.524   1.965
 1806TIP3   OH226976   2.966   4.805   7.798
 1806TIP3    H126977   2.905   4.770   7.862
 1806TIP3    H226978   3.035   4.739   7.793
 1807TIP3   OH226979   6.598   4.408   7.923
 1807TIP3    H126980   6.685   4.377   7.899
 1807TIP3    H226981   6.556   4.332   7.964
 1808TIP3   OH226982   4.390   4.330   1.243
 1808TIP3    H126983   4.325   4.295   1.303
 1808TIP3    H226984   4.365   4.422   1.230
 1809TIP3   OH226985   4.012   4.023   1.065
 1809TIP3    H126986   4.101   3.989   1.070
 1809TIP3    H226987   4.014   4.102   1.120
 1810TIP3   OH226988   4.531   6.543   1.553
 1810TIP3    H126989   4.566   6.459   1.582
 1810TIP3    H226990   4.582   6.564   1.475
 1811TIP3   OH226991   1.153   2.396   1.483
 1811TIP3    H126992   1.231   2.341   1.488
 1811TIP3    H226993   1.186   2.485   1.495
 1812TIP3   OH226994   4.906   3.088   8.713
 1812TIP3    H126995   4.860   3.171   8.703
 1812TIP3    H226996   4.972   3.088   8.644
 1813TIP3   OH226997   2.765   6.794   1.153
 1813TIP3    H126998   2.765   0.007   1.220
 1813TIP3    H226999   2.717   6.832   1.080
 1814TIP3   OH227000   1.591   0.007   1.685
 1814TIP3    H127001   1.642   6.842   1.606
 1814TIP3    H227002   1.570   6.778   1.723
 1815TIP3   OH227003   0.535   6.039   1.257
 1815TIP3    H127004   0.563   6.108   1.197
 1815TIP3    H227005   0.584   5.962   1.229
 1816TIP3   OH227006   4.485   2.410   8.180
 1816TIP3    H127007   4.474   2.356   8.258
 1816TIP3    H227008   4.459   2.498   8.207
 1817TIP3   OH227009   1.961   4.594   7.098
 1817TIP3    H127010   2.048   4.559   7.081
 1817TIP3    H227011   1.970   4.643   7.180
 1818TIP3   OH227012   2.598   3.847   8.452
 1818TIP3    H127013   2.638   3.924   8.412
 1818TIP3    H227014   2.670   3.804   8.498
 1819TIP3   OH227015   5.040   2.351   1.143
 1819TIP3    H127016   5.077   2.372   1.229
 1819TIP3    H227017   4.957   2.400   1.140
 1820TIP3   OH227018   4.308   4.579   1.237
 1820TIP3    H127019   4.259   4.623   1.168
 1820TIP3    H227020   4.383   4.637   1.254
 1821TIP3   OH227021   2.074   3.219   7.396
 1821TIP3    H127022   2.037   3.132   7.380
 1821TIP3    H227023   2.125   3.209   7.477
 1822TIP3   OH227024   0.927   3.024   7.822
 1822TIP3    H127025   0.833   3.015   7.838
 1822TIP3    H227026   0.942   2.980   7.739
 1823TIP3   OH227027   0.608   6.140   6.971
 1823TIP3    H127028   0.543   6.188   6.919
 1823TIP3    H227029   0.556   6.086   7.030
 1824TIP3   OH227030   3.432   5.961   7.348
 1824TIP3    H127031   3.349   5.943   7.393
 1824TIP3    H227032   3.434   5.899   7.276
 1825TIP3   OH227033   1.198   1.164   8.077
 1825TIP3    H127034   1.225   1.126   8.160
 1825TIP3    H227035   1.264   1.135   8.014
 1826TIP3   OH227036   4.539   3.501   2.167
 1826TIP3    H127037   4.540   3.410   2.139
 1826TIP3    H227038   4.622   3.512   2.213
 1827TIP3   OH227039   4.794   4.937   1.148
 1827TIP3    H127040   4.713   4.980   1.120
 1827TIP3    H227041   4.816   4.980   1.230
 1828TIP3   OH227042   1.020   6.398   2.184
 1828TIP3    H127043   1.060   6.456   2.118
 1828TIP3    H227044   1.007   6.315   2.138
 1829TIP3   OH227045   1.978   4.338   8.333
 1829TIP3    H127046   2.037   4.265   8.354
 1829TIP3    H227047   1.895   4.295   8.310
 1830TIP3   OH227048   2.705   0.348   0.113
 1830TIP3    H127049   2.708   0.420   0.051
 1830TIP3    H227050   2.693   0.270   0.059
 1831TIP3   OH227051   3.869   3.496   8.007
 1831TIP3    H127052   3.907   3.433   8.068
 1831TIP3    H227053   3.902   3.468   7.921
 1832TIP3   OH227054   6.406   4.481   7.110
 1832TIP3    H127055   6.466   4.417   7.072
 1832TIP3    H227056   6.359   4.432   7.178
 1833TIP3   OH227057   4.025   4.762   0.535
 1833TIP3    H127058   4.031   4.821   0.609
 1833TIP3    H227059   4.050   4.676   0.570
 1834TIP3   OH227060   6.040   0.152   7.728
 1834TIP3    H127061   5.969   0.091   7.745
 1834TIP3    H227062   6.089   0.112   7.656
 1835TIP3   OH227063   0.622   5.721   0.169
 1835TIP3    H127064   0.672   5.774   0.230
 1835TIP3    H227065   0.625   5.769   0.086
 1836TIP3   OH227066   0.243   1.548   7.432
 1836TIP3    H127067   0.170   1.608   7.449
 1836TIP3    H227068   0.203   1.461   7.430
 1837TIP3   OH227069   4.887   5.839   7.356
 1837TIP3    H127070   4.899   5.880   7.270
 1837TIP3    H227071   4.814   5.778   7.343
 1838TIP3   OH227072   2.099   2.673   0.492
 1838TIP3    H127073   2.008   2.677   0.462
 1838TIP3    H227074   2.093   2.642   0.582
 1839TIP3   OH227075   0.508   0.140   7.217
 1839TIP3    H127076   0.478   0.223   7.180
 1839TIP3    H227077   0.547   0.094   7.143
 1840TIP3   OH227078   4.064   5.274   0.568
 1840TIP3    H127079   4.152   5.237   0.580
 1840TIP3    H227080   4.006   5.198   0.576
 1841TIP3   OH227081   5.276   6.092   1.848
 1841TIP3    H127082   5.223   6.069   1.924
 1841TIP3    H227083   5.361   6.117   1.885
 1842TIP3   OH227084   3.789   3.457   6.468
 1842TIP3    H127085   3.710   3.409   6.494
 1842TIP3    H227086   3.819   3.499   6.548
 1843TIP3   OH227087   2.009   4.557   6.136
 1843TIP3    H127088   1.942   4.574   6.069
 1843TIP3    H227089   1.995   4.465   6.160
 1844TIP3   OH227090   4.285   1.523   1.267
 1844TIP3    H127091   4.189   1.517   1.265
 1844TIP3    H227092   4.309   1.553   1.180
 1845TIP3   OH227093   6.668   3.539   1.944
 1845TIP3    H127094   6.585   3.494   1.926
 1845TIP3    H227095   6.648   3.632   1.934
 1846TIP3   OH227096   4.158   6.684   1.835
 1846TIP3    H127097   4.176   6.659   1.745
 1846TIP3    H227098   4.242   6.718   1.867
 1847TIP3   OH227099   0.988   4.865   1.762
 1847TIP3    H127100   0.931   4.926   1.809
 1847TIP3    H227101   0.997   4.790   1.821
 1848TIP3   OH227102   4.944   6.850   0.443
 1848TIP3    H127103   4.953   0.003   0.348
 1848TIP3    H227104   4.960   6.758   0.460
 1849TIP3   OH227105   1.628   5.396   7.953
 1849TIP3    H127106   1.715   5.416   7.918
 1849TIP3    H227107   1.568   5.411   7.880
 1850TIP3   OH227108   3.271   5.400   7.005
 1850TIP3    H127109   3.332   5.333   7.037
 1850TIP3    H227110   3.187   5.377   7.046
 1851TIP3   OH227111   3.933   1.812   1.925
 1851TIP3    H127112   3.922   1.907   1.933
 1851TIP3    H227113   3.844   1.777   1.937
 1852TIP3   OH227114   0.275   3.703   6.054
 1852TIP3    H127115   0.317   3.637   6.109
 1852TIP3    H227116   0.334   3.778   6.058
 1853TIP3   OH227117   3.982   5.105   8.354
 1853TIP3    H127118   4.071   5.139   8.367
 1853TIP3    H227119   3.955   5.075   8.441
 1854TIP3   OH227120   1.317   5.617   0.653
 1854TIP3    H127121   1.282   5.703   0.677
 1854TIP3    H227122   1.353   5.583   0.735
 1855TIP3   OH227123   0.033   6.438   7.640
 1855TIP3    H127124   0.061   6.502   7.574
 1855TIP3    H227125   0.085   6.459   7.717
 1856TIP3   OH227126   2.857   2.908   6.656
 1856TIP3    H127127   2.939   2.937   6.695
 1856TIP3    H227128   2.883   2.851   6.584
 1857TIP3   OH227129   1.141   4.423   1.460
 1857TIP3    H127130   1.146   4.517   1.477
 1857TIP3    H227131   1.205   4.384   1.520
 1858TIP3   OH227132   0.166   2.840   1.942
 1858TIP3    H127133   0.125   2.899   1.879
 1858TIP3    H227134   0.237   2.890   1.980
 1859TIP3   OH227135   4.384   5.583   0.429
 1859TIP3    H127136   4.368   5.676   0.441
 1859TIP3    H227137   4.333   5.560   0.352
 1860TIP3   OH227138   0.720   1.994   1.535
 1860TIP3    H127139   0.744   1.965   1.447
 1860TIP3    H227140   0.705   2.089   1.526
 1861TIP3   OH227141   2.511   4.073   1.228
 1861TIP3    H127142   2.521   4.168   1.237
 1861TIP3    H227143   2.589   4.045   1.179
 1862TIP3   OH227144   4.402   2.072   1.289
 1862TIP3    H127145   4.411   2.153   1.340
 1862TIP3    H227146   4.352   2.014   1.346
 1863TIP3   OH227147   0.908   1.065   7.186
 1863TIP3    H127148   1.000   1.071   7.162
 1863TIP3    H227149   0.861   1.074   7.103
 1864TIP3   OH227150   6.548   2.756   8.083
 1864TIP3    H127151   6.640   2.770   8.061
 1864TIP3    H227152   6.499   2.798   8.012
 1865TIP3   OH227153   6.307   2.642   1.987
 1865TIP3    H127154   6.274   2.686   2.066
 1865TIP3    H227155   6.294   2.549   2.005
 1866TIP3   OH227156   3.541   0.984   7.937
 1866TIP3    H127157   3.596   0.910   7.964
 1866TIP3    H227158   3.593   1.031   7.872
 1867TIP3   OH227159   2.141   6.178   7.544
 1867TIP3    H127160   2.129   6.136   7.629
 1867TIP3    H227161   2.077   6.249   7.542
 1868TIP3   OH227162   1.254   5.575   0.953
 1868TIP3    H127163   1.278   5.540   1.039
 1868TIP3    H227164   1.164   5.605   0.964
 1869TIP3   OH227165   3.487   6.348   8.081
 1869TIP3    H127166   3.465   6.256   8.071
 1869TIP3    H227167   3.582   6.349   8.095
 1870TIP3   OH227168   6.133   5.034   0.573
 1870TIP3    H127169   6.168   5.017   0.485
 1870TIP3    H227170   6.159   5.124   0.592
 1871TIP3   OH227171   5.412   2.226   0.602
 1871TIP3    H127172   5.424   2.280   0.524
 1871TIP3    H227173   5.345   2.163   0.578
 1872TIP3   OH227174   6.425   1.511   1.648
 1872TIP3    H127175   6.514   1.544   1.664
 1872TIP3    H227176   6.404   1.542   1.560
 1873TIP3   OH227177   3.325   4.054   7.000
 1873TIP3    H127178   3.298   4.109   6.926
 1873TIP3    H227179   3.388   4.108   7.048
 1874TIP3   OH227180   3.206   5.096   8.223
 1874TIP3    H127181   3.284   5.147   8.244
 1874TIP3    H227182   3.155   5.154   8.165
 1875TIP3   OH227183   6.829   3.293   7.739
 1875TIP3    H127184   6.797   3.235   7.809
 1875TIP3    H227185   0.065   3.272   7.731
 1876TIP3   OH227186   4.698   0.037   0.091
 1876TIP3    H127187   4.778   0.087   0.103
 1876TIP3    H227188   4.633   0.101   0.062
 1877TIP3   OH227189   3.070   4.775   6.142
 1877TIP3    H127190   3.004   4.729   6.089
 1877TIP3    H227191   3.085   4.717   6.217
 1878TIP3   OH227192   6.630   1.786   6.104
 1878TIP3    H127193   6.698   1.840   6.145
 1878TIP3    H227194   6.678   1.723   6.051
 1879TIP3   OH227195   6.264   6.273   7.925
 1879TIP3    H127196   6.228   6.210   7.987
 1879TIP3    H227197   6.352   6.292   7.958
 1880TIP3   OH227198   2.205   3.418   7.219
 1880TIP3    H127199   2.246   3.478   7.280
 1880TIP3    H227200   2.183   3.341   7.271
 1881TIP3   OH227201   3.303   1.076   0.557
 1881TIP3    H127202   3.246   1.099   0.484
 1881TIP3    H227203   3.380   1.037   0.517
 1882TIP3   OH227204   6.733   2.804   8.569
 1882TIP3    H127205   6.659   2.754   8.603
 1882TIP3    H227206   6.694   2.864   8.505
 1883TIP3   OH227207   6.386   1.676   6.988
 1883TIP3    H127208   6.452   1.647   7.050
 1883TIP3    H227209   6.306   1.682   7.039
 1884TIP3   OH227210   6.483   1.215   0.703
 1884TIP3    H127211   6.389   1.215   0.718
 1884TIP3    H227212   6.521   1.222   0.791
 1885TIP3   OH227213   4.474   4.214   7.232
 1885TIP3    H127214   4.533   4.247   7.164
 1885TIP3    H227215   4.462   4.122   7.210
 1886TIP3   OH227216   4.342   0.350   7.052
 1886TIP3    H127217   4.329   0.443   7.071
 1886TIP3    H227218   4.435   0.342   7.030
 1887TIP3   OH227219   2.246   5.038   6.329
 1887TIP3    H127220   2.265   5.044   6.236
 1887TIP3    H227221   2.196   4.957   6.339
 1888TIP3   OH227222   2.596   6.624   6.515
 1888TIP3    H127223   2.680   6.656   6.481
 1888TIP3    H227224   2.543   6.609   6.437
 1889TIP3   OH227225   4.407   2.292   2.133
 1889TIP3    H127226   4.483   2.268   2.186
 1889TIP3    H227227   4.357   2.352   2.188
 1890TIP3   OH227228   5.707   3.066   0.990
 1890TIP3    H127229   5.698   3.157   1.021
 1890TIP3    H227230   5.728   3.075   0.897
 1891TIP3   OH227231   5.238   3.958   6.763
 1891TIP3    H127232   5.192   4.031   6.720
 1891TIP3    H227233   5.278   3.910   6.690
 1892TIP3   OH227234   5.783   1.273   0.001
 1892TIP3    H127235   5.777   1.193   0.053
 1892TIP3    H227236   5.777   1.243   8.624
 1893TIP3   OH227237   5.390   3.608   2.171
 1893TIP3    H127238   5.483   3.612   2.194
 1893TIP3    H227239   5.345   3.653   2.242
 1894TIP3   OH227240   1.144   3.618   0.748
 1894TIP3    H127241   1.153   3.587   0.839
 1894TIP3    H227242   1.134   3.713   0.757
 1895TIP3   OH227243   2.133   0.926   2.153
 1895TIP3    H127244   2.188   0.989   2.199
 1895TIP3    H227245   2.046   0.965   2.155
 1896TIP3   OH227246   3.479   0.405   0.514
 1896TIP3    H127247   3.529   0.475   0.471
 1896TIP3    H227248   3.418   0.374   0.447
 1897TIP3   OH227249   5.220   0.760   0.465
 1897TIP3    H127250   5.207   0.708   0.544
 1897TIP3    H227251   5.218   0.696   0.394
 1898TIP3   OH227252   6.059   0.708   8.634
 1898TIP3    H127253   6.069   0.679   0.011
 1898TIP3    H227254   5.966   0.694   8.614
 1899TIP3   OH227255   4.351   4.021   0.128
 1899TIP3    H127256   4.399   4.059   0.202
 1899TIP3    H227257   4.404   4.044   0.051
 1900TIP3   OH227258   6.132   3.710   6.843
 1900TIP3    H127259   6.093   3.671   6.765
 1900TIP3    H227260   6.215   3.662   6.855
 1901TIP3   OH227261   3.409   3.536   6.171
 1901TIP3    H127262   3.395   3.537   6.266
 1901TIP3    H227263   3.504   3.536   6.161
 1902TIP3   OH227264   1.143   0.553   1.159
 1902TIP3    H127265   1.063   0.511   1.127
 1902TIP3    H227266   1.147   0.636   1.112
 1903TIP3   OH227267   0.678   5.008   7.379
 1903TIP3    H127268   0.642   4.926   7.345
 1903TIP3    H227269   0.772   5.000   7.367
 1904TIP3   OH227270   1.342   4.316   6.702
 1904TIP3    H127271   1.266   4.367   6.675
 1904TIP3    H227272   1.416   4.376   6.692
 1905TIP3   OH227273   2.498   0.629   7.510
 1905TIP3    H127274   2.406   0.631   7.484
 1905TIP3    H227275   2.546   0.634   7.427
 1906TIP3   OH227276   1.656   4.295   0.177
 1906TIP3    H127277   1.684   4.318   0.089
 1906TIP3    H227278   1.698   4.359   0.234
 1907TIP3   OH227279   4.099   2.507   7.698
 1907TIP3    H127280   4.194   2.502   7.693
 1907TIP3    H227281   4.068   2.440   7.637
 1908TIP3   OH227282   0.066   6.804   0.259
 1908TIP3    H127283   0.147   6.787   0.212
 1908TIP3    H227284   0.021   0.014   0.206
 1909TIP3   OH227285   3.567   0.892   1.268
 1909TIP3    H127286   3.530   0.940   1.342
 1909TIP3    H227287   3.662   0.895   1.283
 1910TIP3   OH227288   4.083   2.006   1.344
 1910TIP3    H127289   4.110   1.939   1.282
 1910TIP3    H227290   4.103   2.089   1.300
 1911TIP3   OH227291   1.594   3.406   7.332
 1911TIP3    H127292   1.602   3.312   7.352
 1911TIP3    H227293   1.547   3.408   7.249
 1912TIP3   OH227294   2.639   1.846   8.392
 1912TIP3    H127295   2.605   1.913   8.333
 1912TIP3    H227296   2.705   1.891   8.445
 1913TIP3   OH227297   6.633   4.753   1.211
 1913TIP3    H127298   6.621   4.709   1.295
 1913TIP3    H227299   6.668   4.685   1.153
 1914TIP3   OH227300   6.715   5.822   1.338
 1914TIP3    H127301   6.632   5.775   1.347
 1914TIP3    H227302   6.781   5.756   1.358
 1915TIP3   OH227303   0.491   1.359   0.194
 1915TIP3    H127304   0.472   1.428   0.258
 1915TIP3    H227305   0.484   1.402   0.109
 1916TIP3   OH227306   5.127   5.185   7.024
 1916TIP3    H127307   5.056   5.157   6.967
 1916TIP3    H227308   5.192   5.115   7.018
 1917TIP3   OH227309   5.751   4.963   2.250
 1917TIP3    H127310   5.684   5.031   2.245
 1917TIP3    H227311   5.709   4.886   2.211
 1918TIP3   OH227312   3.440   5.685   7.693
 1918TIP3    H127313   3.445   5.780   7.703
 1918TIP3    H227314   3.531   5.657   7.685
 1919TIP3   OH227315   1.604   2.037   7.723
 1919TIP3    H127316   1.591   2.056   7.816
 1919TIP3    H227317   1.564   1.952   7.710
 1920TIP3   OH227318   1.093   0.009   2.123
 1920TIP3    H127319   1.140   0.043   2.047
 1920TIP3    H227320   1.154   6.802   2.162
 1921TIP3   OH227321   0.925   0.142   1.461
 1921TIP3    H127322   0.921   0.197   1.539
 1921TIP3    H227323   0.863   0.181   1.400
 1922TIP3   OH227324   0.272   3.148   0.035
 1922TIP3    H127325   0.268   3.197   0.117
 1922TIP3    H227326   0.180   3.134   0.010
 1923TIP3   OH227327   4.683   2.803   1.543
 1923TIP3    H127328   4.593   2.770   1.533
 1923TIP3    H227329   4.674   2.879   1.601
 1924TIP3   OH227330   5.945   0.960   6.263
 1924TIP3    H127331   5.957   0.927   6.353
 1924TIP3    H227332   5.921   0.883   6.212
 1925TIP3   OH227333   4.853   4.998   2.157
 1925TIP3    H127334   4.850   4.902   2.159
 1925TIP3    H227335   4.908   5.022   2.231
 1926TIP3   OH227336   1.896   2.719   1.167
 1926TIP3    H127337   1.953   2.771   1.224
 1926TIP3    H227338   1.897   2.631   1.205
 1927TIP3   OH227339   1.678   3.169   7.394
 1927TIP3    H127340   1.694   3.098   7.332
 1927TIP3    H227341   1.635   3.127   7.468
 1928TIP3   OH227342   2.160   6.372   0.958
 1928TIP3    H127343   2.132   6.297   0.905
 1928TIP3    H227344   2.079   6.405   0.997
 1929TIP3   OH227345   4.527   4.275   1.611
 1929TIP3    H127346   4.621   4.267   1.629
 1929TIP3    H227347   4.506   4.366   1.634
 1930TIP3   OH227348   1.570   1.231   0.026
 1930TIP3    H127349   1.616   1.148   0.029
 1930TIP3    H227350   1.493   1.219   0.081
 1931TIP3   OH227351   0.696   0.175   0.901
 1931TIP3    H127352   0.654   0.096   0.868
 1931TIP3    H227353   0.684   0.240   0.832
 1932TIP3   OH227354   2.285   4.517   6.913
 1932TIP3    H127355   2.262   4.496   7.003
 1932TIP3    H227356   2.289   4.433   6.868
 1933TIP3   OH227357   2.946   5.126   8.570
 1933TIP3    H127358   2.876   5.083   8.619
 1933TIP3    H227359   2.942   5.217   8.598
 1934TIP3   OH227360   3.765   5.132   0.355
 1934TIP3    H127361   3.744   5.214   0.400
 1934TIP3    H227362   3.741   5.064   0.418
 1935TIP3   OH227363   0.557   2.859   6.859
 1935TIP3    H127364   0.621   2.887   6.794
 1935TIP3    H227365   0.588   2.898   6.941
 1936TIP3   OH227366   1.411   5.943   1.031
 1936TIP3    H127367   1.322   5.935   0.998
 1936TIP3    H227368   1.401   5.947   1.126
 1937TIP3   OH227369   3.770   2.196   7.419
 1937TIP3    H127370   3.799   2.282   7.390
 1937TIP3    H227371   3.698   2.214   7.479
 1938TIP3   OH227372   3.291   5.930   1.438
 1938TIP3    H127373   3.319   5.950   1.527
 1938TIP3    H227374   3.345   5.986   1.382
 1939TIP3   OH227375   0.272   5.156   2.512
 1939TIP3    H127376   0.367   5.150   2.525
 1939TIP3    H227377   0.261   5.224   2.445
 1940TIP3   OH227378   1.115   6.036   7.039
 1940TIP3    H127379   1.024   6.022   7.012
 1940TIP3    H227380   1.115   6.122   7.081
 1941TIP3   OH227381   0.127   2.963   1.708
 1941TIP3    H127382   0.116   2.911   1.628
 1941TIP3    H227383   0.037   2.984   1.735
 1942TIP3   OH227384   3.568   5.635   2.100
 1942TIP3    H127385   3.491   5.597   2.142
 1942TIP3    H227386   3.535   5.712   2.053
 1943TIP3   OH227387   1.081   6.228   0.736
 1943TIP3    H127388   1.156   6.169   0.734
 1943TIP3    H227389   1.106   6.297   0.797
 1944TIP3   OH227390   5.772   2.251   7.651
 1944TIP3    H127391   5.708   2.202   7.600
 1944TIP3    H227392   5.722   2.288   7.724
 1945TIP3   OH227393   6.635   2.220   2.140
 1945TIP3    H127394   6.553   2.173   2.153
 1945TIP3    H227395   6.703   2.160   2.171
 1946TIP3   OH227396   5.481   1.848   1.525
 1946TIP3    H127397   5.469   1.937   1.558
 1946TIP3    H227398   5.460   1.791   1.599
 1947TIP3   OH227399   0.480   2.509   7.578
 1947TIP3    H127400   0.575   2.518   7.581
 1947TIP3    H227401   0.456   2.541   7.492
 1948TIP3   OH227402   3.732   1.825   1.350
 1948TIP3    H127403   3.733   1.731   1.368
 1948TIP3    H227404   3.694   1.833   1.263
 1949TIP3   OH227405   6.021   1.875   8.588
 1949TIP3    H127406   6.083   1.891   8.659
 1949TIP3    H227407   6.004   1.962   8.551
 1950TIP3   OH227408   5.164   0.645   1.478
 1950TIP3    H127409   5.221   0.613   1.548
 1950TIP3    H227410   5.204   0.727   1.450
 1951TIP3   OH227411   6.280   0.111   1.108
 1951TIP3    H127412   6.206   0.168   1.129
 1951TIP3    H227413   6.356   0.152   1.149
 1952TIP3   OH227414   0.611   2.914   1.080
 1952TIP3    H127415   0.616   2.951   1.169
 1952TIP3    H227416   0.524   2.875   1.075
 1953TIP3   OH227417   4.697   3.405   1.924
 1953TIP3    H127418   4.633   3.337   1.946
 1953TIP3    H227419   4.745   3.420   2.006
 1954TIP3   OH227420   4.798   5.309   8.704
 1954TIP3    H127421   4.718   5.284   8.657
 1954TIP3    H227422   4.770   5.378   0.050
 1955TIP3   OH227423   4.478   6.239   1.622
 1955TIP3    H127424   4.533   6.170   1.660
 1955TIP3    H227425   4.512   6.251   1.533
 1956TIP3   OH227426   5.965   2.597   8.579
 1956TIP3    H127427   5.978   2.545   8.499
 1956TIP3    H227428   5.968   2.533   8.650
 1957TIP3   OH227429   4.656   4.355   1.350
 1957TIP3    H127430   4.572   4.325   1.315
 1957TIP3    H227431   4.638   4.372   1.442
 1958TIP3   OH227432   5.763   1.213   5.862
 1958TIP3    H127433   5.759   1.308   5.848
 1958TIP3    H227434   5.761   1.203   5.957
 1959TIP3   OH227435   1.140   0.518   0.745
 1959TIP3    H127436   1.197   0.486   0.675
 1959TIP3    H227437   1.199   0.565   0.804
 1960TIP3   OH227438   5.798   1.693   0.545
 1960TIP3    H127439   5.739   1.761   0.513
 1960TIP3    H227440   5.740   1.622   0.574
 1961TIP3   OH227441   3.602   2.991   1.170
 1961TIP3    H127442   3.594   3.049   1.094
 1961TIP3    H227443   3.512   2.975   1.198
 1962TIP3   OH227444   2.132   4.766   8.418
 1962TIP3    H127445   2.133   4.701   8.348
 1962TIP3    H227446   2.194   4.833   8.390
 1963TIP3   OH227447   0.568   6.849   7.005
 1963TIP3    H127448   0.480   6.849   6.967
 1963TIP3    H227449   0.627   6.841   6.930
 1964TIP3   OH227450   4.293   1.899   6.827
 1964TIP3    H127451   4.260   1.827   6.774
 1964TIP3    H227452   4.231   1.971   6.812
 1965TIP3   OH227453   6.463   6.697   6.588
 1965TIP3    H127454   6.431   6.774   6.541
 1965TIP3    H227455   6.487   6.729   6.675
 1966TIP3   OH227456   2.044   4.464   1.790
 1966TIP3    H127457   2.070   4.422   1.872
 1966TIP3    H227458   2.106   4.537   1.780
 1967TIP3   OH227459   1.160   4.385   6.437
 1967TIP3    H127460   1.254   4.403   6.447
 1967TIP3    H227461   1.150   4.357   6.346
 1968TIP3   OH227462   2.431   0.968   8.181
 1968TIP3    H127463   2.490   0.907   8.225
 1968TIP3    H227464   2.351   0.917   8.167
 1969TIP3   OH227465   4.752   5.297   2.429
 1969TIP3    H127466   4.736   5.255   2.513
 1969TIP3    H227467   4.815   5.366   2.448
 1970TIP3   OH227468   2.979   2.020   0.665
 1970TIP3    H127469   3.065   2.044   0.630
 1970TIP3    H227470   2.984   1.924   0.675
 1971TIP3   OH227471   0.460   2.891   8.273
 1971TIP3    H127472   0.467   2.816   8.213
 1971TIP3    H227473   0.507   2.961   8.229
 1972TIP3   OH227474   1.279   3.407   1.761
 1972TIP3    H127475   1.289   3.330   1.817
 1972TIP3    H227476   1.337   3.473   1.800
 1973TIP3   OH227477   6.538   1.115   7.859
 1973TIP3    H127478   6.466   1.058   7.831
 1973TIP3    H227479   6.599   1.056   7.904
 1974TIP3   OH227480   2.613   2.154   0.857
 1974TIP3    H127481   2.586   2.080   0.804
 1974TIP3    H227482   2.651   2.115   0.936
 1975TIP3   OH227483   6.441   4.153   7.508
 1975TIP3    H127484   6.478   4.239   7.487
 1975TIP3    H227485   6.512   4.091   7.488
 1976TIP3   OH227486   6.369   3.243   1.290
 1976TIP3    H127487   6.461   3.263   1.307
 1976TIP3    H227488   6.362   3.148   1.300
 1977TIP3   OH227489   4.991   1.004   0.427
 1977TIP3    H127490   5.047   0.978   0.500
 1977TIP3    H227491   4.909   0.956   0.440
 1978TIP3   OH227492   0.401   4.797   7.849
 1978TIP3    H127493   0.446   4.775   7.767
 1978TIP3    H227494   0.315   4.756   7.841
 1979TIP3   OH227495   1.103   5.378   7.074
 1979TIP3    H127496   1.086   5.311   7.007
 1979TIP3    H227497   1.026   5.377   7.130
 1980TIP3   OH227498   5.814   1.017   6.915
 1980TIP3    H127499   5.885   1.074   6.885
 1980TIP3    H227500   5.792   1.050   7.003
 1981TIP3   OH227501   4.277   5.492   1.191
 1981TIP3    H127502   4.182   5.498   1.180
 1981TIP3    H227503   4.301   5.414   1.141
 1982TIP3   OH227504   3.480   6.771   1.834
 1982TIP3    H127505   3.439   6.685   1.831
 1982TIP3    H227506   3.487   6.798   1.743
 1983TIP3   OH227507   4.177   1.170   2.338
 1983TIP3    H127508   4.087   1.196   2.317
 1983TIP3    H227509   4.195   1.211   2.423
 1984TIP3   OH227510   1.629   6.473   6.861
 1984TIP3    H127511   1.704   6.414   6.849
 1984TIP3    H227512   1.606   6.501   6.772
 1985TIP3   OH227513   5.164   6.481   8.033
 1985TIP3    H127514   5.233   6.436   8.082
 1985TIP3    H227515   5.140   6.555   8.088
 1986TIP3   OH227516   2.183   5.298   1.110
 1986TIP3    H127517   2.185   5.203   1.101
 1986TIP3    H227518   2.233   5.315   1.190
 1987TIP3   OH227519   2.224   1.960   1.943
 1987TIP3    H127520   2.282   2.037   1.950
 1987TIP3    H227521   2.183   1.953   2.029
 1988TIP3   OH227522   4.218   5.642   1.508
 1988TIP3    H127523   4.306   5.678   1.491
 1988TIP3    H227524   4.227   5.598   1.593
 1989TIP3   OH227525   1.190   6.467   1.708
 1989TIP3    H127526   1.120   6.528   1.732
 1989TIP3    H227527   1.165   6.436   1.621
 1990TIP3   OH227528   0.803   4.368   1.010
 1990TIP3    H127529   0.730   4.396   1.065
 1990TIP3    H227530   0.853   4.307   1.065
 1991TIP3   OH227531   5.186   3.122   0.960
 1991TIP3    H127532   5.272   3.162   0.944
 1991TIP3    H227533   5.134   3.193   0.998
 1992TIP3   OH227534   2.398   4.925   1.625
 1992TIP3    H127535   2.416   4.927   1.719
 1992TIP3    H227536   2.454   4.856   1.591
 1993TIP3   OH227537   6.661   2.117   0.661
 1993TIP3    H127538   6.576   2.159   0.673
 1993TIP3    H227539   6.712   2.180   0.609
 1994TIP3   OH227540   0.257   5.607   7.128
 1994TIP3    H127541   0.254   5.689   7.077
 1994TIP3    H227542   0.166   5.580   7.133
 1995TIP3   OH227543   6.547   0.770   0.311
 1995TIP3    H127544   6.516   0.829   0.242
 1995TIP3    H227545   6.510   0.685   0.287
 1996TIP3   OH227546   4.742   1.497   8.656
 1996TIP3    H127547   4.828   1.517   8.619
 1996TIP3    H227548   4.741   1.401   8.662
 1997TIP3   OH227549   3.745   4.451   8.569
 1997TIP3    H127550   3.712   4.489   8.651
 1997TIP3    H227551   3.691   4.372   8.557
 1998TIP3   OH227552   1.282   6.203   7.206
 1998TIP3    H127553   1.354   6.257   7.176
 1998TIP3    H227554   1.212   6.265   7.226
 1999TIP3   OH227555   2.355   2.055   1.697
 1999TIP3    H127556   2.266   2.036   1.726
 1999TIP3    H227557   2.352   2.146   1.668
 2000TIP3   OH227558   3.324   5.650   1.512
 2000TIP3    H127559   3.305   5.738   1.481
 2000TIP3    H227560   3.268   5.639   1.589
 2001TIP3   OH227561   2.905   3.318   7.569
 2001TIP3    H127562   2.996   3.347   7.576
 2001TIP3    H227563   2.902   3.238   7.622
 2002TIP3   OH227564   1.902   0.008   6.976
 2002TIP3    H127565   1.899   0.049   7.063
 2002TIP3    H227566   1.875   0.077   6.916
 2003TIP3   OH227567   0.219   0.663   8.160
 2003TIP3    H127568   0.309   0.673   8.192
 2003TIP3    H227569   0.229   0.651   8.065
 2004TIP3   OH227570   1.066   3.357   0.055
 2004TIP3    H127571   1.043   3.421   0.122
 2004TIP3    H227572   1.125   3.296   0.100
 2005TIP3   OH227573   2.047   5.210   2.061
 2005TIP3    H127574   2.008   5.190   2.146
 2005TIP3    H227575   2.110   5.139   2.046
 2006TIP3   OH227576   1.830   1.499   8.202
 2006TIP3    H127577   1.878   1.525   8.124
 2006TIP3    H227578   1.898   1.470   8.263
 2007TIP3   OH227579   2.846   6.509   0.095
 2007TIP3    H127580   2.752   6.493   0.107
 2007TIP3    H227581   2.873   6.443   0.032
 2008TIP3   OH227582   5.842   2.157   8.427
 2008TIP3    H127583   5.757   2.177   8.466
 2008TIP3    H227584   5.825   2.151   8.333
 2009TIP3   OH227585   3.302   6.371   1.162
 2009TIP3    H127586   3.236   6.407   1.222
 2009TIP3    H227587   3.354   6.447   1.135
 2010TIP3   OH227588   1.884   3.888   8.312
 2010TIP3    H127589   1.874   3.944   8.235
 2010TIP3    H227590   1.798   3.889   8.353
 2011TIP3   OH227591   5.039   2.834   7.559
 2011TIP3    H127592   5.000   2.812   7.644
 2011TIP3    H227593   5.003   2.921   7.538
 2012TIP3   OH227594   5.070   3.351   8.652
 2012TIP3    H127595   4.983   3.377   8.681
 2012TIP3    H227596   5.104   3.427   8.605
 2013TIP3   OH227597   3.970   6.769   2.471
 2013TIP3    H127598   3.876   6.786   2.480
 2013TIP3    H227599   4.008   6.801   2.552
 2014TIP3   OH227600   1.409   3.969   2.129
 2014TIP3    H127601   1.356   4.043   2.157
 2014TIP3    H227602   1.348   3.895   2.129
 2015TIP3   OH227603   6.766   5.071   7.838
 2015TIP3    H127604   6.675   5.099   7.830
 2015TIP3    H227605   6.771   4.991   7.786
 2016TIP3   OH227606   1.479   2.937   7.172
 2016TIP3    H127607   1.569   2.922   7.202
 2016TIP3    H227608   1.431   2.860   7.201
 2017TIP3   OH227609   4.011   5.644   1.734
 2017TIP3    H127610   4.029   5.550   1.730
 2017TIP3    H227611   3.954   5.655   1.810
 2018TIP3   OH227612   2.652   6.577   7.262
 2018TIP3    H127613   2.654   6.504   7.200
 2018TIP3    H227614   2.576   6.561   7.317
 2019TIP3   OH227615   3.095   1.433   7.310
 2019TIP3    H127616   3.188   1.420   7.332
 2019TIP3    H227617   3.048   1.382   7.376
 2020TIP3   OH227618   5.318   2.003   1.080
 2020TIP3    H127619   5.272   2.043   1.154
 2020TIP3    H227620   5.390   1.954   1.120
 2021TIP3   OH227621   2.952   1.142   8.354
 2021TIP3    H127622   2.934   1.062   8.403
 2021TIP3    H227623   2.874   1.156   8.300
 2022TIP3   OH227624   4.465   3.707   7.306
 2022TIP3    H127625   4.372   3.691   7.291
 2022TIP3    H227626   4.504   3.705   7.219
 2023TIP3   OH227627   4.282   1.545   1.887
 2023TIP3    H127628   4.341   1.522   1.960
 2023TIP3    H227629   4.323   1.505   1.810
 2024TIP3   OH227630   5.964   0.366   6.547
 2024TIP3    H127631   5.977   0.284   6.500
 2024TIP3    H227632   5.988   0.434   6.484
 2025TIP3   OH227633   2.641   5.980   6.822
 2025TIP3    H127634   2.716   5.925   6.799
 2025TIP3    H227635   2.571   5.918   6.840
 2026TIP3   OH227636   1.151   3.509   1.008
 2026TIP3    H127637   1.114   3.423   0.991
 2026TIP3    H227638   1.107   3.539   1.087
 2027TIP3   OH227639   3.216   6.356   0.479
 2027TIP3    H127640   3.151   6.415   0.442
 2027TIP3    H227641   3.192   6.349   0.572
 2028TIP3   OH227642   4.842   0.946   7.974
 2028TIP3    H127643   4.825   0.855   7.950
 2028TIP3    H227644   4.755   0.984   7.985
 2029TIP3   OH227645   5.001   4.392   7.023
 2029TIP3    H127646   5.054   4.386   6.943
 2029TIP3    H227647   4.911   4.383   6.992
 2030TIP3   OH227648   5.461   1.182   8.349
 2030TIP3    H127649   5.366   1.173   8.346
 2030TIP3    H227650   5.481   1.244   8.278
 2031TIP3   OH227651   4.051   3.158   1.258
 2031TIP3    H127652   3.983   3.198   1.311
 2031TIP3    H227653   4.129   3.211   1.274
 2032TIP3   OH227654   3.682   3.843   1.537
 2032TIP3    H127655   3.687   3.878   1.626
 2032TIP3    H227656   3.772   3.815   1.517
 2033TIP3   OH227657   0.688   6.039   7.452
 2033TIP3    H127658   0.671   6.128   7.484
 2033TIP3    H227659   0.741   6.051   7.374
 2034TIP3   OH227660   1.645   0.003   0.113
 2034TIP3    H127661   1.654   6.764   0.109
 2034TIP3    H227662   1.619   0.022   0.203
 2035TIP3   OH227663   1.236   0.429   6.829
 2035TIP3    H127664   1.206   0.519   6.844
 2035TIP3    H227665   1.326   0.428   6.860
 2036TIP3   OH227666   2.572   2.015   0.399
 2036TIP3    H127667   2.575   1.974   0.486
 2036TIP3    H227668   2.542   2.104   0.416
 2037TIP3   OH227669   5.736   1.526   0.953
 2037TIP3    H127670   5.725   1.619   0.971
 2037TIP3    H227671   5.722   1.484   1.038
 2038TIP3   OH227672   3.252   3.347   8.014
 2038TIP3    H127673   3.200   3.269   8.034
 2038TIP3    H227674   3.187   3.418   8.007
 2039TIP3   OH227675   3.866   5.963   7.802
 2039TIP3    H127676   3.946   5.984   7.849
 2039TIP3    H227677   3.867   6.021   7.725
 2040TIP3   OH227678   4.709   4.397   6.360
 2040TIP3    H127679   4.666   4.482   6.370
 2040TIP3    H227680   4.791   4.406   6.409
 2041TIP3   OH227681   6.437   1.426   6.836
 2041TIP3    H127682   6.418   1.427   6.742
 2041TIP3    H227683   6.531   1.443   6.841
 2042TIP3   OH227684   2.540   6.692   7.874
 2042TIP3    H127685   2.534   6.639   7.954
 2042TIP3    H227686   2.624   6.667   7.836
 2043TIP3   OH227687   1.259   2.433   7.147
 2043TIP3    H127688   1.341   2.402   7.109
 2043TIP3    H227689   1.258   2.397   7.236
 2044TIP3   OH227690   4.787   6.093   8.451
 2044TIP3    H127691   4.713   6.148   8.475
 2044TIP3    H227692   4.761   6.051   8.369
 2045TIP3   OH227693   0.761   5.206   1.550
 2045TIP3    H127694   0.785   5.113   1.540
 2045TIP3    H227695   0.779   5.244   1.464
 2046TIP3   OH227696   0.734   1.111   1.703
 2046TIP3    H127697   0.650   1.124   1.748
 2046TIP3    H227698   0.796   1.093   1.773
 2047TIP3   OH227699   6.471   6.298   1.548
 2047TIP3    H127700   6.475   6.387   1.514
 2047TIP3    H227701   6.393   6.260   1.507
 2048TIP3   OH227702   4.249   6.576   7.416
 2048TIP3    H127703   4.292   6.604   7.335
 2048TIP3    H227704   4.295   6.496   7.442
 2049TIP3   OH227705   5.024   3.489   7.404
 2049TIP3    H127706   5.065   3.534   7.478
 2049TIP3    H227707   4.970   3.556   7.362
 2050TIP3   OH227708   3.611   1.287   7.467
 2050TIP3    H127709   3.683   1.245   7.420
 2050TIP3    H227710   3.533   1.241   7.436
 2051TIP3   OH227711   4.278   2.251   6.833
 2051TIP3    H127712   4.208   2.217   6.777
 2051TIP3    H227713   4.277   2.193   6.910
 2052TIP3   OH227714   4.471   5.224   6.514
 2052TIP3    H127715   4.532   5.284   6.555
 2052TIP3    H227716   4.510   5.204   6.429
 2053TIP3   OH227717   0.284   4.693   0.727
 2053TIP3    H127718   0.270   4.751   0.651
 2053TIP3    H227719   0.233   4.733   0.797
 2054TIP3   OH227720   4.344   3.214   6.565
 2054TIP3    H127721   4.337   3.128   6.524
 2054TIP3    H227722   4.384   3.269   6.497
 2055TIP3   OH227723   6.296   6.426   0.184
 2055TIP3    H127724   6.375   6.480   0.182
 2055TIP3    H227725   6.312   6.359   0.118
 2056TIP3   OH227726   6.813   5.639   6.912
 2056TIP3    H127727   0.021   5.612   6.847
 2056TIP3    H227728   6.851   5.715   6.955
 2057TIP3   OH227729   6.537   3.852   0.976
 2057TIP3    H127730   6.541   3.947   0.962
 2057TIP3    H227731   6.573   3.814   0.896
 2058TIP3   OH227732   3.584   3.151   2.032
 2058TIP3    H127733   3.498   3.153   1.990
 2058TIP3    H227734   3.644   3.188   1.966
 2059TIP3   OH227735   5.969   2.409   0.063
 2059TIP3    H127736   5.993   2.451   0.145
 2059TIP3    H227737   5.876   2.388   0.073
 2060TIP3   OH227738   4.048   3.210   2.446
 2060TIP3    H127739   3.999   3.292   2.454
 2060TIP3    H227740   4.140   3.236   2.452
 2061TIP3   OH227741   5.026   2.590   7.279
 2061TIP3    H127742   5.119   2.603   7.301
 2061TIP3    H227743   5.011   2.496   7.293
 2062TIP3   OH227744   0.422   3.554   8.388
 2062TIP3    H127745   0.470   3.498   8.449
 2062TIP3    H227746   0.489   3.610   8.349
 2063TIP3   OH227747   6.711   1.561   8.547
 2063TIP3    H127748   6.625   1.526   8.523
 2063TIP3    H227749   6.763   1.483   8.570
 2064TIP3   OH227750   3.131   0.308   1.678
 2064TIP3    H127751   3.225   0.308   1.692
 2064TIP3    H227752   3.112   0.392   1.638
 2065TIP3   OH227753   5.831   5.718   7.692
 2065TIP3    H127754   5.738   5.706   7.712
 2065TIP3    H227755   5.832   5.742   7.599
 2066TIP3   OH227756   2.865   1.319   7.788
 2066TIP3    H127757   2.906   1.405   7.801
 2066TIP3    H227758   2.880   1.272   7.870
 2067TIP3   OH227759   2.725   1.061   0.058
 2067TIP3    H127760   2.690   1.059   8.683
 2067TIP3    H227761   2.757   1.151   0.069
 2068TIP3   OH227762   1.581   1.095   7.285
 2068TIP3    H127763   1.598   1.038   7.209
 2068TIP3    H227764   1.514   1.156   7.255
 2069TIP3   OH227765   6.224   1.040   0.202
 2069TIP3    H127766   6.280   1.056   0.278
 2069TIP3    H227767   6.257   0.959   0.164
 2070TIP3   OH227768   6.647   3.477   0.367
 2070TIP3    H127769   6.733   3.515   0.386
 2070TIP3    H227770   6.664   3.384   0.356
 2071TIP3   OH227771   6.655   4.755   0.105
 2071TIP3    H127772   6.677   4.839   0.063
 2071TIP3    H227773   6.703   4.690   0.053
 2072TIP3   OH227774   5.419   1.598   6.929
 2072TIP3    H127775   5.482   1.662   6.895
 2072TIP3    H227776   5.430   1.521   6.873
 2073TIP3   OH227777   3.394   4.271   8.671
 2073TIP3    H127778   3.346   4.207   8.619
 2073TIP3    H227779   3.391   4.351   8.619
 2074TIP3   OH227780   4.570   2.133   8.337
 2074TIP3    H127781   4.630   2.126   8.263
 2074TIP3    H227782   4.497   2.075   8.314
 2075TIP3   OH227783   0.887   4.628   0.869
 2075TIP3    H127784   0.864   4.542   0.905
 2075TIP3    H227785   0.980   4.638   0.887
 2076TIP3   OH227786   6.150   5.776   1.029
 2076TIP3    H127787   6.243   5.794   1.017
 2076TIP3    H227788   6.146   5.719   1.106
 2077TIP3   OH227789   3.787   2.452   1.992
 2077TIP3    H127790   3.702   2.490   2.014
 2077TIP3    H227791   3.841   2.527   1.968
 2078TIP3   OH227792   3.993   2.916   0.469
 2078TIP3    H127793   3.899   2.900   0.477
 2078TIP3    H227794   4.018   2.873   0.387
 2079TIP3   OH227795   2.957   3.978   8.279
 2079TIP3    H127796   3.002   4.061   8.262
 2079TIP3    H227797   2.879   4.003   8.329
 2080TIP3   OH227798   6.259   1.878   6.419
 2080TIP3    H127799   6.290   1.939   6.485
 2080TIP3    H227800   6.323   1.807   6.418
 2081TIP3   OH227801   3.694   4.692   1.195
 2081TIP3    H127802   3.689   4.765   1.257
 2081TIP3    H227803   3.745   4.726   1.121
 2082TIP3   OH227804   4.587   1.760   7.180
 2082TIP3    H127805   4.572   1.770   7.086
 2082TIP3    H227806   4.674   1.798   7.195
 2083TIP3   OH227807   2.406   3.065   0.984
 2083TIP3    H127808   2.362   2.993   1.030
 2083TIP3    H227809   2.499   3.045   0.990
 2084TIP3   OH227810   1.435   3.289   8.150
 2084TIP3    H127811   1.363   3.258   8.205
 2084TIP3    H227812   1.457   3.214   8.095
 2085TIP3   OH227813   3.551   0.966   0.214
 2085TIP3    H127814   3.564   1.046   0.265
 2085TIP3    H227815   3.624   0.910   0.239
 2086TIP3   OH227816   3.310   1.661   8.562
 2086TIP3    H127817   3.249   1.732   8.577
 2086TIP3    H227818   3.395   1.704   8.552
 2087TIP3   OH227819   6.736   0.826   1.907
 2087TIP3    H127820   6.670   0.764   1.938
 2087TIP3    H227821   6.813   0.772   1.890
 2088TIP3   OH227822   5.851   3.314   1.264
 2088TIP3    H127823   5.769   3.321   1.216
 2088TIP3    H227824   5.919   3.334   1.199
 2089TIP3   OH227825   4.761   2.333   1.378
 2089TIP3    H127826   4.681   2.293   1.412
 2089TIP3    H227827   4.751   2.330   1.283
 2090TIP3   OH227828   3.699   4.126   0.329
 2090TIP3    H127829   3.763   4.197   0.327
 2090TIP3    H227830   3.699   4.096   0.420
 2091TIP3   OH227831   2.276   4.728   0.408
 2091TIP3    H127832   2.219   4.749   0.334
 2091TIP3    H227833   2.343   4.670   0.371
 2092TIP3   OH227834   6.629   3.456   0.689
 2092TIP3    H127835   6.670   3.421   0.609
 2092TIP3    H227836   6.536   3.434   0.680
 2093TIP3   OH227837   1.343   3.003   8.226
 2093TIP3    H127838   1.367   2.927   8.279
 2093TIP3    H227839   1.381   2.985   8.140
 2094TIP3   OH227840   1.793   1.721   6.350
 2094TIP3    H127841   1.722   1.785   6.362
 2094TIP3    H227842   1.853   1.738   6.423
 2095TIP3   OH227843   1.566   3.185   0.273
 2095TIP3    H127844   1.541   3.110   0.219
 2095TIP3    H227845   1.502   3.187   0.344
 2096TIP3   OH227846   0.475   0.531   1.164
 2096TIP3    H127847   0.436   0.482   1.237
 2096TIP3    H227848   0.483   0.621   1.197
 2097TIP3   OH227849   3.742   3.013   1.438
 2097TIP3    H127850   3.704   3.027   1.351
 2097TIP3    H227851   3.794   2.933   1.429
 2098TIP3   OH227852   2.460   4.974   0.961
 2098TIP3    H127853   2.483   4.959   1.053
 2098TIP3    H227854   2.526   4.925   0.912
 2099TIP3   OH227855   5.755   0.268   7.669
 2099TIP3    H127856   5.704   0.308   7.598
 2099TIP3    H227857   5.836   0.319   7.672
 2100TIP3   OH227858   3.410   1.730   1.501
 2100TIP3    H127859   3.390   1.720   1.594
 2100TIP3    H227860   3.503   1.755   1.499
 2101TIP3   OH227861   1.225   0.776   1.391
 2101TIP3    H127862   1.260   0.854   1.350
 2101TIP3    H227863   1.273   0.704   1.350
 2102TIP3   OH227864   5.467   6.654   1.844
 2102TIP3    H127865   5.493   6.613   1.762
 2102TIP3    H227866   5.382   6.615   1.864
 2103TIP3   OH227867   2.344   4.118   7.321
 2103TIP3    H127868   2.361   4.030   7.288
 2103TIP3    H227869   2.412   4.132   7.388
 2104TIP3   OH227870   1.472   4.903   2.373
 2104TIP3    H127871   1.557   4.936   2.402
 2104TIP3    H227872   1.480   4.897   2.278
 2105TIP3   OH227873   5.554   3.127   0.625
 2105TIP3    H127874   5.649   3.132   0.637
 2105TIP3    H227875   5.540   3.040   0.586
 2106TIP3   OH227876   3.799   6.255   8.098
 2106TIP3    H127877   3.886   6.216   8.097
 2106TIP3    H227878   3.744   6.192   8.143
 2107TIP3   OH227879   5.251   2.011   1.354
 2107TIP3    H127880   5.311   1.991   1.426
 2107TIP3    H227881   5.164   2.006   1.393
 2108TIP3   OH227882   6.544   1.320   7.584
 2108TIP3    H127883   6.510   1.272   7.659
 2108TIP3    H227884   6.615   1.265   7.550
 2109TIP3   OH227885   5.836   3.123   7.452
 2109TIP3    H127886   5.841   3.029   7.438
 2109TIP3    H227887   5.908   3.143   7.512
 2110TIP3   OH227888   4.570   1.592   0.640
 2110TIP3    H127889   4.491   1.616   0.592
 2110TIP3    H227890   4.607   1.676   0.667
 2111TIP3   OH227891   4.959   5.556   8.058
 2111TIP3    H127892   5.051   5.580   8.043
 2111TIP3    H227893   4.910   5.613   7.998
 2112TIP3   OH227894   0.369   5.002   7.537
 2112TIP3    H127895   0.392   4.954   7.458
 2112TIP3    H227896   0.452   5.039   7.567
 2113TIP3   OH227897   1.596   1.643   8.283
 2113TIP3    H127898   1.579   1.716   8.223
 2113TIP3    H227899   1.691   1.630   8.278
 2114TIP3   OH227900   5.242   6.823   8.199
 2114TIP3    H127901   5.231   0.061   8.186
 2114TIP3    H227902   5.153   6.788   8.197
 2115TIP3   OH227903   1.490   0.655   7.127
 2115TIP3    H127904   1.565   0.712   7.109
 2115TIP3    H227905   1.529   0.570   7.148
 2116TIP3   OH227906   0.510   0.001   1.836
 2116TIP3    H127907   0.572   6.801   1.790
 2116TIP3    H227908   0.549   0.016   1.922
 2117TIP3   OH227909   0.306   5.828   0.611
 2117TIP3    H127910   0.246   5.870   0.672
 2117TIP3    H227911   0.380   5.888   0.605
 2118TIP3   OH227912   2.787   4.039   7.918
 2118TIP3    H127913   2.825   4.077   7.839
 2118TIP3    H227914   2.795   4.108   7.984
 2119TIP3   OH227915   5.881   5.306   1.526
 2119TIP3    H127916   5.922   5.223   1.549
 2119TIP3    H227917   5.947   5.372   1.544
 2120TIP3   OH227918   5.803   5.233   0.558
 2120TIP3    H127919   5.808   5.299   0.626
 2120TIP3    H227920   5.795   5.150   0.605
 2121TIP3   OH227921   2.498   1.049   0.228
 2121TIP3    H127922   2.581   1.048   0.181
 2121TIP3    H227923   2.498   0.969   0.280
 2122TIP3   OH227924   0.381   3.176   7.541
 2122TIP3    H127925   0.304   3.188   7.596
 2122TIP3    H227926   0.369   3.238   7.469
 2123TIP3   OH227927   0.604   5.492   0.482
 2123TIP3    H127928   0.683   5.444   0.509
 2123TIP3    H227929   0.623   5.523   0.394
 2124TIP3   OH227930   6.782   0.434   8.094
 2124TIP3    H127931   6.707   0.492   8.081
 2124TIP3    H227932   6.852   0.493   8.122
 2125TIP3   OH227933   0.272   2.106   2.134
 2125TIP3    H127934   0.208   2.055   2.084
 2125TIP3    H227935   0.356   2.068   2.110
 2126TIP3   OH227936   4.160   3.799   2.151
 2126TIP3    H127937   4.207   3.877   2.121
 2126TIP3    H227938   4.111   3.829   2.228
 2127TIP3   OH227939   4.482   0.659   8.550
 2127TIP3    H127940   4.463   0.699   8.465
 2127TIP3    H227941   4.571   0.625   8.540
 2128TIP3   OH227942   6.228   1.591   8.709
 2128TIP3    H127943   6.144   1.555   8.680
 2128TIP3    H227944   6.288   1.516   8.707
 2129TIP3   OH227945   0.988   0.097   1.792
 2129TIP3    H127946   1.077   0.117   1.821
 2129TIP3    H227947   0.940   0.078   1.872
 2130TIP3   OH227948   4.700   4.406   7.821
 2130TIP3    H127949   4.618   4.356   7.825
 2130TIP3    H227950   4.767   4.339   7.805
 2131TIP3   OH227951   1.493   6.758   1.314
 2131TIP3    H127952   1.563   6.800   1.264
 2131TIP3    H227953   1.532   6.677   1.347
 2132TIP3   OH227954   5.222   6.281   7.795
 2132TIP3    H127955   5.225   6.217   7.866
 2132TIP3    H227956   5.298   6.337   7.809
 2133TIP3   OH227957   3.221   2.008   0.350
 2133TIP3    H127958   3.245   1.924   0.313
 2133TIP3    H227959   3.286   2.069   0.316
 2134TIP3   OH227960   2.148   1.365   6.793
 2134TIP3    H127961   2.061   1.349   6.758
 2134TIP3    H227962   2.202   1.296   6.754
 2135TIP3   OH227963   4.646   2.961   0.033
 2135TIP3    H127964   4.610   3.024   8.684
 2135TIP3    H227965   4.739   2.956   0.011
 2136TIP3   OH227966   3.809   5.035   8.610
 2136TIP3    H127967   3.753   5.090   8.664
 2136TIP3    H227968   3.846   4.971   8.671
 2137TIP3   OH227969   4.410   0.120   1.037
 2137TIP3    H127970   4.425   0.136   1.130
 2137TIP3    H227971   4.357   0.040   1.035
 2138TIP3   OH227972   1.256   4.763   0.022
 2138TIP3    H127973   1.175   4.790   0.065
 2138TIP3    H227974   1.303   4.845   0.005
 2139TIP3   OH227975   4.995   2.406   8.200
 2139TIP3    H127976   4.968   2.356   8.277
 2139TIP3    H227977   4.967   2.496   8.219
 2140TIP3   OH227978   5.850   4.226   0.178
 2140TIP3    H127979   5.821   4.157   0.118
 2140TIP3    H227980   5.945   4.226   0.172
 2141TIP3   OH227981   6.697   4.125   8.075
 2141TIP3    H127982   6.769   4.129   8.138
 2141TIP3    H227983   6.635   4.192   8.105
 2142TIP3   OH227984   3.559   1.316   7.126
 2142TIP3    H127985   3.549   1.294   7.033
 2142TIP3    H227986   3.471   1.306   7.162
 2143TIP3   OH227987   1.931   5.101   0.745
 2143TIP3    H127988   1.963   5.016   0.714
 2143TIP3    H227989   1.837   5.090   0.755
 2144TIP3   OH227990   6.265   3.549   0.846
 2144TIP3    H127991   6.275   3.624   0.787
 2144TIP3    H227992   6.298   3.475   0.795
 2145TIP3   OH227993   4.153   2.813   1.595
 2145TIP3    H127994   4.122   2.850   1.512
 2145TIP3    H227995   4.076   2.811   1.651
 2146TIP3   OH227996   6.383   2.522   6.889
 2146TIP3    H127997   6.395   2.606   6.933
 2146TIP3    H227998   6.443   2.525   6.815
 2147TIP3   OH227999   6.483   0.111   6.993
 2147TIP3    H128000   6.413   0.160   6.949
 2147TIP3    H228001   6.561   0.129   6.941
 2148TIP3   OH228002   4.345   5.850   0.459
 2148TIP3    H128003   4.385   5.928   0.423
 2148TIP3    H228004   4.259   5.878   0.489
 2149TIP3   OH228005   0.170   2.766   7.570
 2149TIP3    H128006   0.159   2.672   7.585
 2149TIP3    H228007   0.259   2.784   7.600
 2150TIP3   OH228008   5.703   0.756   6.862
 2150TIP3    H128009   5.734   0.844   6.884
 2150TIP3    H228010   5.779   0.713   6.822
 2151TIP3   OH228011   1.332   6.234   8.706
 2151TIP3    H128012   1.347   6.236   0.087
 2151TIP3    H228013   1.415   6.202   8.670
 2152TIP3   OH228014   1.376   5.475   0.429
 2152TIP3    H128015   1.419   5.531   0.365
 2152TIP3    H228016   1.356   5.533   0.503
 2153TIP3   OH228017   3.372   6.210   7.712
 2153TIP3    H128018   3.436   6.230   7.780
 2153TIP3    H228019   3.293   6.256   7.740
 2154TIP3   OH228020   6.145   5.500   0.892
 2154TIP3    H128021   6.189   5.497   0.807
 2154TIP3    H228022   6.052   5.492   0.871
 2155TIP3   OH228023   0.426   2.572   7.324
 2155TIP3    H128024   0.331   2.569   7.335
 2155TIP3    H228025   0.439   2.599   7.233
 2156TIP3   OH228026   4.251   3.449   7.476
 2156TIP3    H128027   4.240   3.354   7.478
 2156TIP3    H228028   4.325   3.465   7.534
 2157TIP3   OH228029   1.860   0.611   7.860
 2157TIP3    H128030   1.839   0.704   7.852
 2157TIP3    H228031   1.789   0.566   7.815
 2158TIP3   OH228032   6.647   0.506   2.497
 2158TIP3    H128033   6.619   0.575   2.557
 2158TIP3    H228034   6.570   0.488   2.443
 2159TIP3   OH228035   2.031   3.681   8.452
 2159TIP3    H128036   1.972   3.730   8.394
 2159TIP3    H228037   2.020   3.723   8.537
 2160TIP3   OH228038   1.951   4.005   0.758
 2160TIP3    H128039   1.970   3.916   0.787
 2160TIP3    H228040   1.868   3.997   0.710
 2161TIP3   OH228041   0.648   4.506   1.227
 2161TIP3    H128042   0.691   4.591   1.237
 2161TIP3    H228043   0.578   4.522   1.163
 2162TIP3   OH228044   1.474   5.434   1.375
 2162TIP3    H128045   1.444   5.440   1.466
 2162TIP3    H228046   1.517   5.518   1.359
 2163TIP3   OH228047   4.329   2.506   0.771
 2163TIP3    H128048   4.424   2.517   0.768
 2163TIP3    H228049   4.301   2.566   0.840
 2164TIP3   OH228050   2.447   5.016   0.649
 2164TIP3    H128051   2.490   4.944   0.695
 2164TIP3    H228052   2.423   5.077   0.718
 2165TIP3   OH228053   1.504   2.083   6.859
 2165TIP3    H128054   1.453   2.038   6.791
 2165TIP3    H228055   1.585   2.108   6.815
 2166TIP3   OH228056   4.996   0.411   2.540
 2166TIP3    H128057   4.924   0.354   2.566
 2166TIP3    H228058   4.999   0.405   2.445
 2167TIP3   OH228059   5.429   4.122   0.088
 2167TIP3    H128060   5.420   4.038   0.133
 2167TIP3    H228061   5.486   4.174   0.145
 2168TIP3   OH228062   5.759   1.517   6.433
 2168TIP3    H128063   5.777   1.610   6.416
 2168TIP3    H228064   5.673   1.502   6.395
 2169TIP3   OH228065   2.391   5.938   0.515
 2169TIP3    H128066   2.371   6.000   0.446
 2169TIP3    H228067   2.472   5.970   0.554
 2170TIP3   OH228068   1.246   4.638   0.609
 2170TIP3    H128069   1.219   4.644   0.517
 2170TIP3    H228070   1.206   4.713   0.651
 2171TIP3   OH228071   0.431   4.776   8.393
 2171TIP3    H128072   0.482   4.850   8.425
 2171TIP3    H228073   0.375   4.814   8.325
 2172TIP3   OH228074   1.590   5.659   1.472
 2172TIP3    H128075   1.685   5.645   1.475
 2172TIP3    H228076   1.573   5.722   1.542
 2173TIP3   OH228077   3.596   4.294   6.650
 2173TIP3    H128078   3.666   4.346   6.611
 2173TIP3    H228079   3.574   4.339   6.731
 2174TIP3   OH228080   5.174   3.897   7.181
 2174TIP3    H128081   5.222   3.905   7.264
 2174TIP3    H228082   5.236   3.858   7.120
 2175TIP3   OH228083   3.862   1.236   1.388
 2175TIP3    H128084   3.870   1.225   1.294
 2175TIP3    H228085   3.882   1.149   1.424
 2176TIP3   OH228086   1.921   0.406   2.062
 2176TIP3    H128087   1.877   0.342   2.118
 2176TIP3    H228088   1.880   0.490   2.084
 2177TIP3   OH228089   4.180   1.053   1.305
 2177TIP3    H128090   4.118   0.995   1.348
 2177TIP3    H228091   4.137   1.078   1.223
 2178TIP3   OH228092   0.223   0.253   7.664
 2178TIP3    H128093   0.152   0.240   7.727
 2178TIP3    H228094   0.183   0.237   7.579
 2179TIP3   OH228095   5.720   5.127   8.125
 2179TIP3    H128096   5.790   5.064   8.141
 2179TIP3    H228097   5.762   5.198   8.077
 2180TIP3   OH228098   6.017   2.060   0.537
 2180TIP3    H128099   6.004   1.988   0.598
 2180TIP3    H228100   5.940   2.115   0.548
 2181TIP3   OH228101   3.970   0.553   0.365
 2181TIP3    H128102   4.038   0.544   0.431
 2181TIP3    H228103   4.012   0.600   0.293
 2182TIP3   OH228104   2.102   0.405   8.476
 2182TIP3    H128105   2.100   0.499   8.458
 2182TIP3    H228106   2.044   0.393   8.551
 2183TIP3   OH228107   4.529   6.662   7.589
 2183TIP3    H128108   4.553   6.594   7.652
 2183TIP3    H228109   4.594   6.731   7.603
 2184TIP3   OH228110   3.187   0.826   7.346
 2184TIP3    H128111   3.202   0.787   7.260
 2184TIP3    H228112   3.095   0.850   7.346
 2185TIP3   OH228113   6.558   6.158   2.134
 2185TIP3    H128114   6.584   6.250   2.124
 2185TIP3    H228115   6.605   6.128   2.211
 2186TIP3   OH228116   5.839   4.590   1.966
 2186TIP3    H128117   5.879   4.591   2.052
 2186TIP3    H228118   5.781   4.666   1.965
 2187TIP3   OH228119   2.660   6.076   6.561
 2187TIP3    H128120   2.671   6.067   6.655
 2187TIP3    H228121   2.567   6.058   6.546
 2188TIP3   OH228122   1.330   5.021   8.711
 2188TIP3    H128123   1.254   5.078   8.695
 2188TIP3    H228124   1.396   5.052   8.650
 2189TIP3   OH228125   2.904   3.874   0.718
 2189TIP3    H128126   2.882   3.945   0.657
 2189TIP3    H228127   2.835   3.879   0.785
 2190TIP3   OH228128   2.984   3.207   0.513
 2190TIP3    H128129   2.990   3.297   0.480
 2190TIP3    H228130   2.971   3.217   0.608
 2191TIP3   OH228131   4.506   6.289   0.148
 2191TIP3    H128132   4.570   6.346   0.105
 2191TIP3    H228133   4.441   6.349   0.184
 2192TIP3   OH228134   0.411   4.184   7.638
 2192TIP3    H128135   0.439   4.248   7.704
 2192TIP3    H228136   0.408   4.233   7.556
 2193TIP3   OH228137   5.391   2.348   0.327
 2193TIP3    H128138   5.333   2.418   0.356
 2193TIP3    H228139   5.332   2.274   0.309
 2194TIP3   OH228140   4.047   0.037   2.231
 2194TIP3    H128141   4.081   0.125   2.247
 2194TIP3    H228142   4.031   0.001   2.318
 2195TIP3   OH228143   5.187   0.384   6.925
 2195TIP3    H128144   5.093   0.389   6.912
 2195TIP3    H228145   5.224   0.428   6.848
 2196TIP3   OH228146   6.368   3.210   7.660
 2196TIP3    H128147   6.439   3.151   7.634
 2196TIP3    H228148   6.295   3.187   7.601
 2197TIP3   OH228149   6.382   3.612   7.532
 2197TIP3    H128150   6.317   3.543   7.522
 2197TIP3    H228151   6.397   3.644   7.443
 2198TIP3   OH228152   4.501   3.157   7.610
 2198TIP3    H128153   4.419   3.169   7.561
 2198TIP3    H228154   4.569   3.171   7.544
 2199TIP3   OH228155   4.816   5.365   7.082
 2199TIP3    H128156   4.860   5.337   7.162
 2199TIP3    H228157   4.814   5.286   7.027
 2200TIP3   OH228158   5.188   1.083   1.322
 2200TIP3    H128159   5.178   1.175   1.298
 2200TIP3    H228160   5.106   1.042   1.297
 2201TIP3   OH228161   0.837   6.373   8.224
 2201TIP3    H128162   0.815   6.314   8.297
 2201TIP3    H228163   0.886   6.319   8.163
 2202TIP3   OH228164   6.802   3.732   2.116
 2202TIP3    H128165   0.016   3.689   2.067
 2202TIP3    H228166   6.735   3.750   2.050
 2203TIP3   OH228167   6.553   5.202   2.135
 2203TIP3    H128168   6.576   5.287   2.172
 2203TIP3    H228169   6.596   5.138   2.192
 2204TIP3   OH228170   2.531   4.045   1.920
 2204TIP3    H128171   2.504   4.136   1.906
 2204TIP3    H228172   2.565   4.044   2.010
 2205TIP3   OH228173   5.437   1.683   0.378
 2205TIP3    H128174   5.357   1.645   0.343
 2205TIP3    H228175   5.492   1.698   0.302
 2206TIP3   OH228176   6.457   2.414   8.099
 2206TIP3    H128177   6.539   2.462   8.111
 2206TIP3    H228178   6.408   2.466   8.035
 2207TIP3   OH228179   0.372   6.626   7.192
 2207TIP3    H128180   0.366   6.700   7.132
 2207TIP3    H228181   0.405   6.664   7.274
 2208TIP3   OH228182   0.280   2.788   0.666
 2208TIP3    H128183   0.310   2.740   0.589
 2208TIP3    H228184   0.351   2.779   0.729
 2209TIP3   OH228185   0.743   5.256   7.517
 2209TIP3    H128186   0.726   5.165   7.492
 2209TIP3    H228187   0.661   5.287   7.554
 2210TIP3   OH228188   4.890   0.841   0.047
 2210TIP3    H128189   4.958   0.869   0.107
 2210TIP3    H228190   4.852   0.763   0.087
 2211TIP3   OH228191   0.957   5.939   6.666
 2211TIP3    H128192   1.012   5.874   6.709
 2211TIP3    H228193   0.998   5.952   6.580
 2212TIP3   OH228194   1.698   0.829   0.110
 2212TIP3    H128195   1.729   0.846   0.199
 2212TIP3    H228196   1.757   0.881   0.055
 2213TIP3   OH228197   2.515   6.680   1.316
 2213TIP3    H128198   2.537   6.772   1.303
 2213TIP3    H228199   2.424   6.681   1.346
 2214TIP3   OH228200   2.794   1.634   0.024
 2214TIP3    H128201   2.764   1.579   0.097
 2214TIP3    H228202   2.745   1.601   8.662
 2215TIP3   OH228203   5.178   2.450   0.086
 2215TIP3    H128204   5.127   2.380   0.045
 2215TIP3    H228205   5.204   2.506   0.014
 2216TIP3   OH228206   0.116   2.638   8.378
 2216TIP3    H128207   0.020   2.646   8.384
 2216TIP3    H228208   0.143   2.608   8.465
 2217TIP3   OH228209   5.509   4.625   8.441
 2217TIP3    H128210   5.479   4.642   8.530
 2217TIP3    H228211   5.546   4.709   8.412
 2218TIP3   OH228212   6.508   6.010   7.790
 2218TIP3    H128213   6.476   5.961   7.714
 2218TIP3    H228214   6.587   6.054   7.759
 2219TIP3   OH228215   0.878   5.031   8.275
 2219TIP3    H128216   0.939   5.045   8.203
 2219TIP3    H228217   0.870   5.116   8.318
 2220TIP3   OH228218   2.236   1.682   1.351
 2220TIP3    H128219   2.267   1.750   1.410
 2220TIP3    H228220   2.295   1.608   1.365
 2221TIP3   OH228221   5.537   2.104   7.527
 2221TIP3    H128222   5.492   2.081   7.609
 2221TIP3    H228223   5.550   2.021   7.482
 2222TIP3   OH228224   3.683   2.305   8.163
 2222TIP3    H128225   3.732   2.272   8.088
 2222TIP3    H228226   3.626   2.232   8.189
 2223TIP3   OH228227   3.817   3.167   2.236
 2223TIP3    H128228   3.807   3.253   2.197
 2223TIP3    H228229   3.875   3.181   2.311
 2224TIP3   OH228230   0.871   1.715   7.955
 2224TIP3    H128231   0.944   1.765   7.921
 2224TIP3    H228232   0.900   1.624   7.950
 2225TIP3   OH228233   0.923   2.157   7.293
 2225TIP3    H128234   0.973   2.205   7.227
 2225TIP3    H228235   0.960   2.069   7.294
 2226TIP3   OH228236   2.427   5.292   7.809
 2226TIP3    H128237   2.396   5.362   7.867
 2226TIP3    H228238   2.353   5.232   7.803
 2227TIP3   OH228239   5.860   3.336   8.579
 2227TIP3    H128240   5.819   3.375   8.656
 2227TIP3    H228241   5.947   3.376   8.576
 2228TIP3   OH228242   6.625   5.243   8.602
 2228TIP3    H128243   6.600   5.151   8.587
 2228TIP3    H228244   6.551   5.281   8.649
 2229TIP3   OH228245   3.731   4.366   7.838
 2229TIP3    H128246   3.755   4.305   7.908
 2229TIP3    H228247   3.714   4.449   7.884
 2230TIP3   OH228248   0.946   1.338   0.387
 2230TIP3    H128249   0.868   1.365   0.436
 2230TIP3    H228250   1.001   1.417   0.385
 2231TIP3   OH228251   5.453   1.053   7.940
 2231TIP3    H128252   5.443   1.055   7.845
 2231TIP3    H228253   5.395   0.983   7.969
 2232TIP3   OH228254   5.088   5.460   0.859
 2232TIP3    H128255   5.139   5.528   0.815
 2232TIP3    H228256   5.021   5.508   0.908
 2233TIP3   OH228257   1.060   2.210   7.051
 2233TIP3    H128258   1.114   2.283   7.021
 2233TIP3    H228259   1.049   2.155   6.973
 2234TIP3   OH228260   6.119   3.103   7.570
 2234TIP3    H128261   6.155   3.078   7.485
 2234TIP3    H228262   6.129   3.024   7.624
 2235TIP3   OH228263   1.928   3.751   7.863
 2235TIP3    H128264   1.995   3.747   7.931
 2235TIP3    H228265   1.849   3.717   7.904
 2236TIP3   OH228266   4.735   2.207   7.136
 2236TIP3    H128267   4.799   2.273   7.110
 2236TIP3    H228268   4.735   2.209   7.231
 2237TIP3   OH228269   2.939   4.919   0.521
 2237TIP3    H128270   2.915   4.998   0.472
 2237TIP3    H228271   2.974   4.860   0.454
 2238TIP3   OH228272   5.054   6.844   8.433
 2238TIP3    H128273   5.067   0.066   8.379
 2238TIP3    H228274   5.082   0.014   8.521
 2239TIP3   OH228275   2.507   2.610   7.102
 2239TIP3    H128276   2.488   2.540   7.041
 2239TIP3    H228277   2.435   2.608   7.165
 2240TIP3   OH228278   6.422   2.199   1.803
 2240TIP3    H128279   6.402   2.109   1.825
 2240TIP3    H228280   6.446   2.240   1.886
 2241TIP3   OH228281   0.753   5.257   0.790
 2241TIP3    H128282   0.790   5.276   0.876
 2241TIP3    H228283   0.677   5.201   0.808
 2242TIP3   OH228284   3.928   6.280   8.367
 2242TIP3    H128285   3.956   6.285   8.459
 2242TIP3    H228286   3.987   6.216   8.328
 2243TIP3   OH228287   1.931   5.887   0.277
 2243TIP3    H128288   1.938   5.919   0.367
 2243TIP3    H228289   1.845   5.845   0.274
 2244TIP3   OH228290   5.999   3.944   6.889
 2244TIP3    H128291   6.055   3.958   6.965
 2244TIP3    H228292   6.038   3.869   6.844
 2245TIP3   OH228293   3.188   5.630   8.476
 2245TIP3    H128294   3.269   5.581   8.466
 2245TIP3    H228295   3.135   5.578   8.537
 2246TIP3   OH228296   0.118   6.481   2.516
 2246TIP3    H128297   0.156   6.434   2.590
 2246TIP3    H228298   0.191   6.530   2.478
 2247TIP3   OH228299   6.542   1.913   1.921
 2247TIP3    H128300   6.632   1.944   1.936
 2247TIP3    H228301   6.490   1.960   1.986
 2248TIP3   OH228302   0.109   2.908   1.413
 2248TIP3    H128303   0.093   2.815   1.399
 2248TIP3    H228304   0.063   2.951   1.340
 2249TIP3   OH228305   2.229   5.847   6.713
 2249TIP3    H128306   2.196   5.760   6.691
 2249TIP3    H228307   2.151   5.901   6.720
 2250TIP3   OH228308   3.545   4.766   8.529
 2250TIP3    H128309   3.575   4.730   8.612
 2250TIP3    H228310   3.625   4.789   8.482
 2251TIP3   OH228311   0.986   6.200   6.729
 2251TIP3    H128312   0.982   6.213   6.823
 2251TIP3    H228313   0.985   6.105   6.718
 2252TIP3   OH228314   6.254   3.650   8.532
 2252TIP3    H128315   6.334   3.619   8.489
 2252TIP3    H228316   6.203   3.689   8.461
 2253TIP3   OH228317   0.250   6.440   1.626
 2253TIP3    H128318   0.310   6.397   1.566
 2253TIP3    H228319   0.199   6.368   1.664
 2254TIP3   OH228320   6.614   3.115   0.107
 2254TIP3    H128321   6.590   3.048   0.171
 2254TIP3    H228322   6.531   3.155   0.081
 2255TIP3   OH228323   1.866   3.073   0.551
 2255TIP3    H128324   1.962   3.071   0.559
 2255TIP3    H228325   1.848   3.029   0.468
 2256TIP3   OH228326   2.826   3.378   0.307
 2256TIP3    H128327   2.740   3.419   0.308
 2256TIP3    H228328   2.809   3.285   0.324
 2257TIP3   OH228329   4.059   4.430   0.560
 2257TIP3    H128330   4.143   4.475   0.560
 2257TIP3    H228331   4.082   4.337   0.560
 2258TIP3   OH228332   3.743   1.377   8.092
 2258TIP3    H128333   3.817   1.436   8.105
 2258TIP3    H228334   3.773   1.294   8.129
 2259TIP3   OH228335   5.542   4.880   0.398
 2259TIP3    H128336   5.601   4.818   0.356
 2259TIP3    H228337   5.492   4.918   0.326
 2260TIP3   OH228338   3.774   0.962   1.746
 2260TIP3    H128339   3.812   1.041   1.783
 2260TIP3    H228340   3.798   0.892   1.807
 2261TIP3   OH228341   0.635   5.540   7.021
 2261TIP3    H128342   0.576   5.584   6.961
 2261TIP3    H228343   0.695   5.491   6.964
 2262TIP3   OH228344   5.046   0.416   1.697
 2262TIP3    H128345   5.012   0.327   1.690
 2262TIP3    H228346   5.132   0.406   1.738
 2263TIP3   OH228347   6.696   4.894   6.828
 2263TIP3    H128348   6.715   4.987   6.841
 2263TIP3    H228349   6.743   4.871   6.748
 2264TIP3   OH228350   3.555   6.357   2.191
 2264TIP3    H128351   3.578   6.362   2.284
 2264TIP3    H228352   3.570   6.265   2.167
 2265TIP3   OH228353   1.304   4.317   7.754
 2265TIP3    H128354   1.272   4.306   7.664
 2265TIP3    H228355   1.387   4.363   7.745
 2266TIP3   OH228356   1.434   1.800   1.401
 2266TIP3    H128357   1.397   1.719   1.438
 2266TIP3    H228358   1.518   1.810   1.446
 2267TIP3   OH228359   0.725   5.955   6.260
 2267TIP3    H128360   0.788   6.027   6.267
 2267TIP3    H228361   0.711   5.945   6.166
 2268TIP3   OH228362   4.879   6.453   8.362
 2268TIP3    H128363   4.971   6.462   8.338
 2268TIP3    H228364   4.868   6.509   8.439
 2269TIP3   OH228365   4.172   5.977   0.829
 2269TIP3    H128366   4.187   5.899   0.883
 2269TIP3    H228367   4.077   5.992   0.835
 2270TIP3   OH228368   1.794   2.097   1.475
 2270TIP3    H128369   1.736   2.157   1.429
 2270TIP3    H228370   1.785   2.121   1.567
 2271TIP3   OH228371   3.039   4.559   1.356
 2271TIP3    H128372   2.986   4.638   1.359
 2271TIP3    H228373   3.017   4.512   1.437
 2272TIP3   OH228374   4.196   2.327   6.164
 2272TIP3    H128375   4.170   2.419   6.168
 2272TIP3    H228376   4.291   2.329   6.149
 2273TIP3   OH228377   6.670   3.786   8.078
 2273TIP3    H128378   6.700   3.696   8.073
 2273TIP3    H228379   6.698   3.816   8.165
 2274TIP3   OH228380   5.877   1.366   7.418
 2274TIP3    H128381   5.818   1.420   7.365
 2274TIP3    H228382   5.963   1.380   7.379
 2275TIP3   OH228383   2.287   3.948   2.211
 2275TIP3    H128384   2.382   3.952   2.210
 2275TIP3    H228385   2.266   3.860   2.242
 2276TIP3   OH228386   2.380   4.514   1.449
 2276TIP3    H128387   2.288   4.529   1.467
 2276TIP3    H228388   2.419   4.493   1.534
 2277TIP3   OH228389   4.117   5.182   0.884
 2277TIP3    H128390   4.064   5.256   0.856
 2277TIP3    H228391   4.207   5.213   0.880
 2278TIP3   OH228392   0.090   2.256   1.211
 2278TIP3    H128393   0.043   2.240   1.293
 2278TIP3    H228394   0.159   2.317   1.235
 2279TIP3   OH228395   0.919   6.490   7.472
 2279TIP3    H128396   0.832   6.464   7.443
 2279TIP3    H228397   0.966   6.510   7.391
 2280TIP3   OH228398   2.977   5.188   1.276
 2280TIP3    H128399   2.964   5.273   1.319
 2280TIP3    H228400   2.895   5.172   1.229
 2281TIP3   OH228401   4.225   2.408   1.753
 2281TIP3    H128402   4.279   2.487   1.747
 2281TIP3    H228403   4.162   2.418   1.681
 2282TIP3   OH228404   1.300   4.098   6.499
 2282TIP3    H128405   1.238   4.157   6.542
 2282TIP3    H228406   1.253   4.015   6.491
 2283TIP3   OH228407   4.407   5.858   1.166
 2283TIP3    H128408   4.435   5.948   1.148
 2283TIP3    H228409   4.334   5.844   1.106
 2284TIP3   OH228410   6.069   2.153   8.589
 2284TIP3    H128411   6.148   2.188   8.549
 2284TIP3    H228412   5.998   2.179   8.530
 2285TIP3   OH228413   1.106   6.137   8.401
 2285TIP3    H128414   1.062   6.116   8.483
 2285TIP3    H228415   1.162   6.212   8.422
 2286TIP3   OH228416   1.252   0.064   1.886
 2286TIP3    H128417   1.245   0.063   1.790
 2286TIP3    H228418   1.346   0.054   1.903
 2287TIP3   OH228419   5.662   1.734   8.306
 2287TIP3    H128420   5.735   1.714   8.366
 2287TIP3    H228421   5.681   1.822   8.274
 2288TIP3   OH228422   0.810   4.845   7.941
 2288TIP3    H128423   0.904   4.834   7.932
 2288TIP3    H228424   0.779   4.866   7.853
 2289TIP3   OH228425   5.635   4.005   0.796
 2289TIP3    H128426   5.638   3.912   0.774
 2289TIP3    H228427   5.589   4.045   0.722
 2290TIP3   OH228428   0.118   5.822   7.632
 2290TIP3    H128429   0.091   5.748   7.688
 2290TIP3    H228430   0.053   5.890   7.650
 2291TIP3   OH228431   6.680   2.343   7.485
 2291TIP3    H128432   6.743   2.335   7.557
 2291TIP3    H228433   6.657   2.253   7.463
 2292TIP3   OH228434   6.434   1.341   7.107
 2292TIP3    H128435   6.450   1.403   7.177
 2292TIP3    H228436   6.443   1.392   7.026
 2293TIP3   OH228437   6.493   6.189   0.035
 2293TIP3    H128438   6.572   6.193   0.088
 2293TIP3    H228439   6.475   6.096   0.025
 2294TIP3   OH228440   6.823   5.603   0.828
 2294TIP3    H128441   6.801   5.597   0.921
 2294TIP3    H228442   0.046   5.550   0.819
 2295TIP3   OH228443   4.654   3.458   0.618
 2295TIP3    H128444   4.641   3.498   0.703
 2295TIP3    H228445   4.749   3.443   0.613
 2296TIP3   OH228446   4.590   3.431   7.348
 2296TIP3    H128447   4.562   3.523   7.349
 2296TIP3    H228448   4.523   3.386   7.297
 2297TIP3   OH228449   3.880   6.811   1.276
 2297TIP3    H128450   3.868   6.812   1.181
 2297TIP3    H228451   3.813   6.750   1.308
 2298TIP3   OH228452   6.183   5.181   8.012
 2298TIP3    H128453   6.208   5.208   7.923
 2298TIP3    H228454   6.187   5.085   8.010
 2299TIP3   OH228455   1.643   0.269   6.946
 2299TIP3    H128456   1.617   0.350   6.902
 2299TIP3    H228457   1.725   0.244   6.903
 2300TIP3   OH228458   2.049   3.605   0.141
 2300TIP3    H128459   2.025   3.647   0.059
 2300TIP3    H228460   2.035   3.672   0.208
 2301TIP3   OH228461   6.212   1.716   1.771
 2301TIP3    H128462   6.286   1.676   1.725
 2301TIP3    H228463   6.204   1.665   1.851
 2302TIP3   OH228464   4.385   2.559   6.987
 2302TIP3    H128465   4.459   2.513   6.946
 2302TIP3    H228466   4.360   2.504   7.061
 2303TIP3   OH228467   4.986   5.338   1.546
 2303TIP3    H128468   4.934   5.359   1.468
 2303TIP3    H228469   5.060   5.287   1.512
 2304TIP3   OH228470   1.912   3.393   6.871
 2304TIP3    H128471   1.953   3.347   6.797
 2304TIP3    H228472   1.852   3.454   6.829
 2305TIP3   OH228473   5.029   5.214   2.030
 2305TIP3    H128474   5.061   5.265   2.104
 2305TIP3    H228475   4.943   5.182   2.058
 2306TIP3   OH228476   1.507   6.238   0.952
 2306TIP3    H128477   1.477   6.149   0.966
 2306TIP3    H228478   1.430   6.285   0.919
 2307TIP3   OH228479   5.468   0.817   8.575
 2307TIP3    H128480   5.437   0.840   8.487
 2307TIP3    H228481   5.426   0.734   8.595
 2308TIP3   OH228482   5.244   4.415   8.553
 2308TIP3    H128483   5.222   4.333   8.597
 2308TIP3    H228484   5.276   4.472   8.622
 2309TIP3   OH228485   5.728   0.550   1.807
 2309TIP3    H128486   5.705   0.585   1.893
 2309TIP3    H228487   5.721   0.625   1.748
 2310TIP3   OH228488   2.139   3.046   0.511
 2310TIP3    H128489   2.179   3.039   0.598
 2310TIP3    H228490   2.184   2.979   0.459
 2311TIP3   OH228491   1.698   3.188   8.367
 2311TIP3    H128492   1.706   3.283   8.369
 2311TIP3    H228493   1.707   3.165   8.274
 2312TIP3   OH228494   4.917   3.786   7.700
 2312TIP3    H128495   4.846   3.785   7.635
 2312TIP3    H228496   4.924   3.695   7.728
 2313TIP3   OH228497   0.256   1.809   7.313
 2313TIP3    H128498   0.298   1.725   7.332
 2313TIP3    H228499   0.229   1.843   7.398
 2314TIP3   OH228500   1.368   3.986   7.452
 2314TIP3    H128501   1.457   4.021   7.448
 2314TIP3    H228502   1.363   3.927   7.377
 2315TIP3   OH228503   6.194   0.467   0.380
 2315TIP3    H128504   6.120   0.409   0.365
 2315TIP3    H228505   6.270   0.408   0.387
 2316TIP3   OH228506   6.754   1.749   0.273
 2316TIP3    H128507   6.726   1.785   0.189
 2316TIP3    H228508   6.698   1.791   0.338
 2317TIP3   OH228509   1.937   5.495   0.740
 2317TIP3    H128510   2.003   5.540   0.792
 2317TIP3    H228511   1.875   5.461   0.803
 2318TIP3   OH228512   3.721   5.333   0.541
 2318TIP3    H128513   3.722   5.427   0.521
 2318TIP3    H228514   3.633   5.317   0.577
 2319TIP3   OH228515   5.393   3.793   8.646
 2319TIP3    H128516   5.451   3.845   8.589
 2319TIP3    H228517   5.308   3.835   8.638
 2320TIP3   OH228518   3.290   0.946   6.804
 2320TIP3    H128519   3.377   0.928   6.769
 2320TIP3    H228520   3.232   0.887   6.755
 2321TIP3   OH228521   5.048   5.956   8.419
 2321TIP3    H128522   4.955   5.975   8.412
 2321TIP3    H228523   5.084   5.978   8.333
 2322TIP3   OH228524   0.212   3.401   0.961
 2322TIP3    H128525   0.183   3.349   1.036
 2322TIP3    H228526   0.280   3.347   0.920
 2323TIP3   OH228527   6.008   3.134   0.366
 2323TIP3    H128528   5.958   3.074   0.421
 2323TIP3    H228529   5.944   3.168   0.303
 2324TIP3   OH228530   5.731   1.135   1.285
 2324TIP3    H128531   5.737   1.106   1.375
 2324TIP3    H228532   5.678   1.068   1.241
 2325TIP3   OH228533   1.197   1.031   0.204
 2325TIP3    H128534   1.223   1.085   0.279
 2325TIP3    H228535   1.277   0.986   0.178
 2326TIP3   OH228536   3.888   4.963   0.167
 2326TIP3    H128537   3.851   5.028   0.227
 2326TIP3    H228538   3.962   4.926   0.215
 2327TIP3   OH228539   5.155   6.351   8.334
 2327TIP3    H128540   5.214   6.291   8.288
 2327TIP3    H228541   5.199   6.435   8.330
 2328TIP3   OH228542   2.264   2.864   1.075
 2328TIP3    H128543   2.172   2.884   1.054
 2328TIP3    H228544   2.261   2.831   1.165
 2329TIP3   OH228545   2.387   5.444   0.096
 2329TIP3    H128546   2.468   5.453   0.046
 2329TIP3    H228547   2.395   5.509   0.167
 2330TIP3   OH228548   2.914   1.635   7.421
 2330TIP3    H128549   2.948   1.566   7.478
 2330TIP3    H228550   2.950   1.615   7.335
 2331TIP3   OH228551   1.341   1.044   7.092
 2331TIP3    H128552   1.287   0.981   7.139
 2331TIP3    H228553   1.326   1.025   6.999
 2332TIP3   OH228554   2.057   4.107   2.180
 2332TIP3    H128555   2.018   4.175   2.236
 2332TIP3    H228556   2.143   4.091   2.218
 2333TIP3   OH228557   4.526   2.835   7.737
 2333TIP3    H128558   4.507   2.840   7.643
 2333TIP3    H228559   4.454   2.783   7.773
 2334TIP3   OH228560   6.030   5.031   0.263
 2334TIP3    H128561   6.032   5.003   0.172
 2334TIP3    H228562   5.949   4.993   0.298
 2335TIP3   OH228563   2.409   6.704   7.353
 2335TIP3    H128564   2.441   6.747   7.433
 2335TIP3    H228565   2.427   6.766   7.283
 2336TIP3   OH228566   2.742   4.525   6.886
 2336TIP3    H128567   2.723   4.438   6.921
 2336TIP3    H228568   2.793   4.509   6.807
 2337TIP3   OH228569   2.059   3.472   7.558
 2337TIP3    H128570   2.128   3.503   7.617
 2337TIP3    H228571   2.008   3.551   7.538
 2338TIP3   OH228572   4.530   3.900   0.824
 2338TIP3    H128573   4.437   3.924   0.821
 2338TIP3    H228574   4.534   3.815   0.781
 2339TIP3   OH228575   6.010   3.519   1.032
 2339TIP3    H128576   6.050   3.433   1.050
 2339TIP3    H228577   6.061   3.580   1.084
 2340TIP3   OH228578   0.814   4.353   6.460
 2340TIP3    H128579   0.745   4.415   6.435
 2340TIP3    H228580   0.894   4.390   6.423
 2341TIP3   OH228581   4.841   1.537   1.476
 2341TIP3    H128582   4.883   1.451   1.474
 2341TIP3    H228583   4.899   1.591   1.529
 2342TIP3   OH228584   1.963   4.207   1.184
 2342TIP3    H128585   1.915   4.247   1.256
 2342TIP3    H228586   2.055   4.224   1.203
 2343TIP3   OH228587   1.393   5.826   1.279
 2343TIP3    H128588   1.388   5.765   1.353
 2343TIP3    H228589   1.302   5.841   1.254
 2344TIP3   OH228590   2.947   2.349   0.997
 2344TIP3    H128591   2.990   2.392   1.071
 2344TIP3    H228592   3.019   2.313   0.946
 2345TIP3   OH228593   0.493   0.331   6.794
 2345TIP3    H128594   0.427   0.372   6.738
 2345TIP3    H228595   0.546   0.279   6.733
 2346TIP3   OH228596   5.168   4.743   7.031
 2346TIP3    H128597   5.219   4.699   6.963
 2346TIP3    H228598   5.213   4.827   7.044
 2347TIP3   OH228599   0.334   2.060   7.226
 2347TIP3    H128600   0.260   2.121   7.231
 2347TIP3    H228601   0.300   1.978   7.261
 2348TIP3   OH228602   5.935   1.716   8.395
 2348TIP3    H128603   5.956   1.780   8.463
 2348TIP3    H228604   5.986   1.639   8.417
 2349TIP3   OH228605   5.729   0.262   1.862
 2349TIP3    H128606   5.753   0.354   1.847
 2349TIP3    H228607   5.812   0.217   1.875
 2350TIP3   OH228608   0.849   6.093   7.252
 2350TIP3    H128609   0.891   6.178   7.238
 2350TIP3    H228610   0.810   6.071   7.167
 2351TIP3   OH228611   1.642   0.399   6.233
 2351TIP3    H128612   1.734   0.427   6.231
 2351TIP3    H228613   1.644   0.315   6.279
 2352TIP3   OH228614   4.710   5.534   6.791
 2352TIP3    H128615   4.617   5.517   6.778
 2352TIP3    H228616   4.752   5.449   6.773
 2353TIP3   OH228617   3.216   4.672   7.829
 2353TIP3    H128618   3.266   4.674   7.747
 2353TIP3    H228619   3.208   4.579   7.850
 2354TIP3   OH228620   5.964   6.065   2.256
 2354TIP3    H128621   5.994   5.981   2.221
 2354TIP3    H228622   6.022   6.082   2.330
 2355TIP3   OH228623   4.959   5.691   7.020
 2355TIP3    H128624   4.998   5.606   7.001
 2355TIP3    H228625   4.867   5.671   7.040
 2356TIP3   OH228626   0.582   2.319   6.499
 2356TIP3    H128627   0.515   2.383   6.474
 2356TIP3    H228628   0.603   2.341   6.589
 2357TIP3   OH228629   2.343   1.937   1.446
 2357TIP3    H128630   2.422   1.952   1.394
 2357TIP3    H228631   2.365   1.972   1.532
 2358TIP3   OH228632   2.154   6.384   7.975
 2358TIP3    H128633   2.225   6.372   8.037
 2358TIP3    H228634   2.093   6.313   7.994
 2359TIP3   OH228635   0.401   5.102   6.219
 2359TIP3    H128636   0.330   5.068   6.164
 2359TIP3    H228637   0.369   5.188   6.248
 2360TIP3   OH228638   5.026   5.737   7.608
 2360TIP3    H128639   5.120   5.753   7.602
 2360TIP3    H228640   4.993   5.752   7.519
 2361TIP3   OH228641   4.777   2.069   8.507
 2361TIP3    H128642   4.806   1.980   8.483
 2361TIP3    H228643   4.699   2.083   8.454
 2362TIP3   OH228644   3.014   5.495   7.602
 2362TIP3    H128645   2.946   5.563   7.609
 2362TIP3    H228646   3.071   5.510   7.678
 2363TIP3   OH228647   3.974   0.244   7.799
 2363TIP3    H128648   3.982   0.151   7.819
 2363TIP3    H228649   3.887   0.268   7.833
 2364TIP3   OH228650   5.869   0.580   7.952
 2364TIP3    H128651   5.804   0.615   7.892
 2364TIP3    H228652   5.951   0.582   7.902
 2365TIP3   OH228653   4.422   1.646   8.263
 2365TIP3    H128654   4.444   1.606   8.347
 2365TIP3    H228655   4.505   1.651   8.216
 2366TIP3   OH228656   1.803   6.405   8.198
 2366TIP3    H128657   1.829   6.487   8.156
 2366TIP3    H228658   1.709   6.399   8.181
 2367TIP3   OH228659   1.912   4.868   0.106
 2367TIP3    H128660   1.920   4.837   0.016
 2367TIP3    H228661   1.954   4.799   0.158
 2368TIP3   OH228662   1.036   4.713   6.907
 2368TIP3    H128663   1.077   4.717   6.821
 2368TIP3    H228664   0.942   4.710   6.888
 2369TIP3   OH228665   6.751   3.975   0.578
 2369TIP3    H128666   6.824   4.016   0.624
 2369TIP3    H228667   6.749   4.019   0.493
 2370TIP3   OH228668   1.913   2.451   1.202
 2370TIP3    H128669   1.965   2.371   1.197
 2370TIP3    H228670   1.831   2.429   1.157
 2371TIP3   OH228671   3.304   4.053   7.883
 2371TIP3    H128672   3.332   4.040   7.973
 2371TIP3    H228673   3.275   4.145   7.880
 2372TIP3   OH228674   5.658   4.980   1.650
 2372TIP3    H128675   5.730   4.956   1.709
 2372TIP3    H228676   5.633   5.068   1.679
 2373TIP3   OH228677   5.388   5.336   0.779
 2373TIP3    H128678   5.424   5.248   0.765
 2373TIP3    H228679   5.330   5.325   0.855
 2374TIP3   OH228680   4.215   0.849   6.889
 2374TIP3    H128681   4.273   0.893   6.950
 2374TIP3    H228682   4.274   0.797   6.833
 2375TIP3   OH228683   6.323   2.526   6.082
 2375TIP3    H128684   6.375   2.594   6.038
 2375TIP3    H228685   6.388   2.472   6.126
 2376TIP3   OH228686   4.087   0.621   8.272
 2376TIP3    H128687   4.117   0.704   8.236
 2376TIP3    H228688   4.033   0.582   8.203
 2377TIP3   OH228689   5.487   0.416   0.784
 2377TIP3    H128690   5.447   0.330   0.774
 2377TIP3    H228691   5.492   0.430   0.879
 2378TIP3   OH228692   5.653   5.247   7.849
 2378TIP3    H128693   5.711   5.216   7.780
 2378TIP3    H228694   5.582   5.182   7.851
 2379TIP3   OH228695   2.722   3.138   0.383
 2379TIP3    H128696   2.631   3.126   0.359
 2379TIP3    H228697   2.739   3.069   0.447
 2380TIP3   OH228698   4.089   2.834   0.711
 2380TIP3    H128699   4.050   2.850   0.625
 2380TIP3    H228700   4.174   2.793   0.691
 2381TIP3   OH228701   0.843   6.582   7.734
 2381TIP3    H128702   0.752   6.596   7.708
 2381TIP3    H228703   0.888   6.559   7.652
 2382TIP3   OH228704   3.639   0.942   8.501
 2382TIP3    H128705   3.693   0.905   8.570
 2382TIP3    H228706   3.701   0.981   8.439
 2383TIP3   OH228707   6.499   6.378   8.026
 2383TIP3    H128708   6.586   6.410   8.049
 2383TIP3    H228709   6.451   6.457   8.001
 2384TIP3   OH228710   0.968   2.737   0.077
 2384TIP3    H128711   1.027   2.666   0.052
 2384TIP3    H228712   0.964   2.793   8.712
 2385TIP3   OH228713   2.775   2.548   6.905
 2385TIP3    H128714   2.736   2.626   6.943
 2385TIP3    H228715   2.700   2.495   6.878
 2386TIP3   OH228716   2.812   1.908   7.147
 2386TIP3    H128717   2.724   1.888   7.180
 2386TIP3    H228718   2.803   1.996   7.108
 2387TIP3   OH228719   1.511   6.038   7.476
 2387TIP3    H128720   1.460   6.078   7.547
 2387TIP3    H228721   1.447   5.988   7.426
 2388TIP3   OH228722   3.995   3.792   1.292
 2388TIP3    H128723   3.981   3.755   1.380
 2388TIP3    H228724   4.057   3.863   1.306
 2389TIP3   OH228725   1.986   1.262   0.544
 2389TIP3    H128726   1.965   1.169   0.535
 2389TIP3    H228727   1.934   1.291   0.619
 2390TIP3   OH228728   1.807   0.653   2.494
 2390TIP3    H128729   1.779   0.586   2.432
 2390TIP3    H228730   1.880   0.697   2.451
 2391TIP3   OH228731   5.740   3.365   0.678
 2391TIP3    H128732   5.794   3.429   0.723
 2391TIP3    H228733   5.651   3.401   0.683
 2392TIP3   OH228734   4.895   4.711   6.967
 2392TIP3    H128735   4.862   4.793   7.004
 2392TIP3    H228736   4.984   4.704   7.002
 2393TIP3   OH228737   5.755   3.723   7.747
 2393TIP3    H128738   5.675   3.676   7.725
 2393TIP3    H228739   5.762   3.791   7.680
 2394TIP3   OH228740   6.481   6.711   8.600
 2394TIP3    H128741   6.482   6.723   8.505
 2394TIP3    H228742   6.423   6.636   8.614
 2395TIP3   OH228743   6.741   3.903   7.170
 2395TIP3    H128744   6.704   3.815   7.173
 2395TIP3    H228745   6.824   3.892   7.124
 2396TIP3   OH228746   5.472   3.846   0.533
 2396TIP3    H128747   5.562   3.821   0.554
 2396TIP3    H228748   5.476   3.871   0.441
 2397TIP3   OH228749   2.034   1.689   1.630
 2397TIP3    H128750   1.953   1.647   1.603
 2397TIP3    H228751   2.049   1.756   1.564
 2398TIP3   OH228752   4.006   2.636   0.285
 2398TIP3    H128753   4.100   2.650   0.274
 2398TIP3    H228754   3.992   2.546   0.256
 2399TIP3   OH228755   3.111   6.267   7.732
 2399TIP3    H128756   3.085   6.353   7.699
 2399TIP3    H228757   3.102   6.274   7.827
 2400TIP3   OH228758   4.497   0.067   7.861
 2400TIP3    H128759   4.446   6.846   7.840
 2400TIP3    H228760   4.431   0.133   7.885
 2401TIP3   OH228761   3.716   5.465   1.724
 2401TIP3    H128762   3.684   5.439   1.637
 2401TIP3    H228763   3.802   5.423   1.732
 2402TIP3   OH228764   6.028   3.833   8.655
 2402TIP3    H128765   6.014   3.798   8.567
 2402TIP3    H228766   5.985   3.770   8.713
 2403TIP3   OH228767   1.045   1.109   7.469
 2403TIP3    H128768   0.971   1.162   7.500
 2403TIP3    H228769   1.006   1.047   7.408
 2404TIP3   OH228770   1.344   4.758   8.081
 2404TIP3    H128771   1.403   4.742   8.154
 2404TIP3    H228772   1.400   4.750   8.003
 2405TIP3   OH228773   2.073   1.450   6.451
 2405TIP3    H128774   2.026   1.369   6.432
 2405TIP3    H228775   2.163   1.422   6.468
 2406TIP3   OH228776   0.167   0.169   8.286
 2406TIP3    H128777   0.147   0.115   8.210
 2406TIP3    H228778   0.257   0.146   8.310
 2407TIP3   OH228779   4.207   0.811   1.058
 2407TIP3    H128780   4.191   0.826   0.965
 2407TIP3    H228781   4.258   0.888   1.086
 2408TIP3   OH228782   1.576   0.039   7.605
 2408TIP3    H128783   1.657   0.076   7.641
 2408TIP3    H228784   1.516   0.035   7.680
 2409TIP3   OH228785   3.099   6.547   0.289
 2409TIP3    H128786   3.181   6.591   0.312
 2409TIP3    H228787   3.035   6.617   0.282
 2410TIP3   OH228788   1.775   1.340   7.975
 2410TIP3    H128789   1.843   1.383   7.923
 2410TIP3    H228790   1.779   1.384   8.060
 2411TIP3   OH228791   4.245   4.834   7.850
 2411TIP3    H128792   4.340   4.826   7.838
 2411TIP3    H228793   4.212   4.746   7.837
 2412TIP3   OH228794   3.104   3.865   7.034
 2412TIP3    H128795   3.101   3.956   7.064
 2412TIP3    H228796   3.177   3.863   6.972
 2413TIP3   OH228797   6.445   3.517   8.377
 2413TIP3    H128798   6.430   3.424   8.396
 2413TIP3    H228799   6.425   3.526   8.284
 2414TIP3   OH228800   1.499   4.531   6.697
 2414TIP3    H128801   1.444   4.597   6.654
 2414TIP3    H228802   1.584   4.574   6.707
 2415TIP3   OH228803   1.323   4.508   8.632
 2415TIP3    H128804   1.302   4.584   8.687
 2415TIP3    H228805   1.291   4.532   8.545
 2416TIP3   OH228806   1.533   2.260   2.043
 2416TIP3    H128807   1.474   2.201   1.997
 2416TIP3    H228808   1.584   2.203   2.101
 2417TIP3   OH228809   6.176   1.401   0.335
 2417TIP3    H128810   6.097   1.454   0.339
 2417TIP3    H228811   6.191   1.373   0.426
 2418TIP3   OH228812   2.530   4.842   6.207
 2418TIP3    H128813   2.593   4.778   6.240
 2418TIP3    H228814   2.445   4.798   6.215
 2419TIP3   OH228815   0.755   0.774   7.684
 2419TIP3    H128816   0.787   0.864   7.686
 2419TIP3    H228817   0.821   0.725   7.735
 2420TIP3   OH228818   3.663   4.201   8.533
 2420TIP3    H128819   3.685   4.142   8.605
 2420TIP3    H228820   3.568   4.212   8.539
 2421TIP3   OH228821   3.681   3.459   7.306
 2421TIP3    H128822   3.619   3.517   7.350
 2421TIP3    H228823   3.651   3.458   7.215
 2422TIP3   OH228824   5.652   0.918   7.249
 2422TIP3    H128825   5.576   0.972   7.270
 2422TIP3    H228826   5.726   0.979   7.246
 2423TIP3   OH228827   2.382   3.999   1.000
 2423TIP3    H128828   2.310   4.056   0.972
 2423TIP3    H228829   2.426   4.051   1.068
 2424TIP3   OH228830   5.305   6.066   1.394
 2424TIP3    H128831   5.218   6.036   1.421
 2424TIP3    H228832   5.357   6.064   1.474
 2425TIP3   OH228833   2.663   5.735   8.705
 2425TIP3    H128834   2.658   5.647   8.667
 2425TIP3    H228835   2.573   5.768   8.701
 2426TIP3   OH228836   5.384   4.927   7.236
 2426TIP3    H128837   5.362   4.975   7.316
 2426TIP3    H228838   5.394   4.995   7.169
 2427TIP3   OH228839   5.116   2.267   6.957
 2427TIP3    H128840   5.050   2.306   6.900
 2427TIP3    H228841   5.145   2.189   6.909
 2428TIP3   OH228842   6.089   3.707   0.629
 2428TIP3    H128843   6.095   3.613   0.611
 2428TIP3    H228844   6.019   3.715   0.694
 2429TIP3   OH228845   2.196   2.359   8.524
 2429TIP3    H128846   2.292   2.364   8.523
 2429TIP3    H228847   2.175   2.321   8.609
 2430TIP3   OH228848   4.648   5.621   0.342
 2430TIP3    H128849   4.555   5.606   0.356
 2430TIP3    H228850   4.679   5.663   0.422
 2431TIP3   OH228851   6.248   5.954   1.337
 2431TIP3    H128852   6.304   6.031   1.346
 2431TIP3    H228853   6.294   5.886   1.386
 2432TIP3   OH228854   6.804   2.765   7.880
 2432TIP3    H128855   0.028   2.713   7.884
 2432TIP3    H228856   6.825   2.846   7.927
 2433TIP3   OH228857   6.157   1.107   6.036
 2433TIP3    H128858   6.098   1.079   5.966
 2433TIP3    H228859   6.190   1.026   6.074
 2434TIP3   OH228860   0.177   2.286   8.456
 2434TIP3    H128861   0.163   2.359   8.517
 2434TIP3    H228862   0.153   2.209   8.507
 2435TIP3   OH228863   1.764   2.145   1.771
 2435TIP3    H128864   1.794   2.156   1.861
 2435TIP3    H228865   1.709   2.066   1.774
 2436TIP3   OH228866   2.303   3.552   7.714
 2436TIP3    H128867   2.250   3.504   7.778
 2436TIP3    H228868   2.375   3.589   7.766
 2437TIP3   OH228869   5.909   1.975   6.790
 2437TIP3    H128870   5.962   2.026   6.729
 2437TIP3    H228871   5.819   1.991   6.764
 2438TIP3   OH228872   4.806   4.952   7.070
 2438TIP3    H128873   4.828   5.035   7.027
 2438TIP3    H228874   4.733   4.974   7.128
 2439TIP3   OH228875   5.203   2.526   7.530
 2439TIP3    H128876   5.182   2.515   7.623
 2439TIP3    H228877   5.278   2.468   7.515
 2440TIP3   OH228878   4.045   3.769   0.258
 2440TIP3    H128879   3.977   3.703   0.247
 2440TIP3    H228880   3.997   3.851   0.272
 2441TIP3   OH228881   1.668   5.424   8.275
 2441TIP3    H128882   1.631   5.374   8.202
 2441TIP3    H228883   1.690   5.358   8.340
 2442TIP3   OH228884   6.278   2.195   0.657
 2442TIP3    H128885   6.204   2.165   0.604
 2442TIP3    H228886   6.319   2.263   0.604
 2443TIP3   OH228887   4.301   0.353   0.961
 2443TIP3    H128888   4.332   0.262   0.958
 2443TIP3    H228889   4.371   0.400   1.006
 2444TIP3   OH228890   4.069   4.863   8.269
 2444TIP3    H128891   4.097   4.929   8.205
 2444TIP3    H228892   3.979   4.887   8.290
 2445TIP3   OH228893   5.873   4.359   1.844
 2445TIP3    H128894   5.783   4.351   1.812
 2445TIP3    H228895   5.874   4.442   1.892
 2446TIP3   OH228896   6.678   6.364   0.867
 2446TIP3    H128897   6.675   6.352   0.772
 2446TIP3    H228898   6.613   6.432   0.885
 2447TIP3   OH228899   2.254   4.518   1.142
 2447TIP3    H128900   2.347   4.535   1.124
 2447TIP3    H228901   2.217   4.500   1.056
 2448TIP3   OH228902   3.022   4.242   7.091
 2448TIP3    H128903   2.994   4.192   7.168
 2448TIP3    H228904   2.968   4.209   7.020
 2449TIP3   OH228905   5.572   4.163   0.574
 2449TIP3    H128906   5.506   4.226   0.545
 2449TIP3    H228907   5.609   4.128   0.493
 2450TIP3   OH228908   2.615   0.843   8.359
 2450TIP3    H128909   2.693   0.789   8.346
 2450TIP3    H228910   2.629   0.886   8.443
 2451TIP3   OH228911   3.029   3.184   0.896
 2451TIP3    H128912   3.106   3.231   0.929
 2451TIP3    H228913   3.020   3.109   0.954
 2452TIP3   OH228914   4.463   4.030   6.540
 2452TIP3    H128915   4.398   4.006   6.475
 2452TIP3    H228916   4.467   3.955   6.599
 2453TIP3   OH228917   4.945   6.463   7.400
 2453TIP3    H128918   4.939   6.379   7.355
 2453TIP3    H228919   4.858   6.501   7.390
 2454TIP3   OH228920   3.936   2.149   1.096
 2454TIP3    H128921   4.029   2.161   1.115
 2454TIP3    H228922   3.934   2.081   1.029
 2455TIP3   OH228923   5.498   0.200   8.316
 2455TIP3    H128924   5.484   0.202   8.222
 2455TIP3    H228925   5.496   0.107   8.339
 2456TIP3   OH228926   6.419   3.822   1.264
 2456TIP3    H128927   6.508   3.854   1.254
 2456TIP3    H228928   6.384   3.870   1.339
 2457TIP3   OH228929   5.827   0.895   1.173
 2457TIP3    H128930   5.791   0.940   1.250
 2457TIP3    H228931   5.921   0.889   1.191
 2458TIP3   OH228932   2.046   4.165   6.399
 2458TIP3    H128933   2.088   4.235   6.448
 2458TIP3    H228934   2.050   4.089   6.458
 2459TIP3   OH228935   5.388   0.118   0.681
 2459TIP3    H128936   5.402   0.042   0.625
 2459TIP3    H228937   5.326   0.089   0.747
 2460TIP3   OH228938   0.244   3.443   6.690
 2460TIP3    H128939   0.192   3.522   6.676
 2460TIP3    H228940   0.195   3.393   6.755
 2461TIP3   OH228941   5.896   6.480   8.075
 2461TIP3    H128942   5.990   6.483   8.093
 2461TIP3    H228943   5.855   6.506   8.157
 2462TIP3   OH228944   1.736   4.452   2.578
 2462TIP3    H128945   1.646   4.466   2.549
 2462TIP3    H228946   1.789   4.503   2.517
 2463TIP3   OH228947   0.831   5.579   8.700
 2463TIP3    H128948   0.914   5.627   8.700
 2463TIP3    H228949   0.848   5.501   0.040
 2464TIP3   OH228950   0.087   1.451   7.746
 2464TIP3    H128951   0.104   1.545   7.736
 2464TIP3    H228952   6.851   1.441   7.722
 2465TIP3   OH228953   1.105   5.656   7.070
 2465TIP3    H128954   1.091   5.561   7.064
 2465TIP3    H228955   1.184   5.672   7.018
 2466TIP3   OH228956   1.891   6.103   1.179
 2466TIP3    H128957   1.811   6.156   1.176
 2466TIP3    H228958   1.866   6.026   1.230
 2467TIP3   OH228959   2.409   6.168   7.648
 2467TIP3    H128960   2.404   6.258   7.682
 2467TIP3    H228961   2.337   6.162   7.585
 2468TIP3   OH228962   0.055   1.747   0.824
 2468TIP3    H128963   6.832   1.798   0.811
 2468TIP3    H228964   0.024   1.656   0.832
 2469TIP3   OH228965   6.195   6.820   7.036
 2469TIP3    H128966   6.183   0.050   7.076
 2469TIP3    H228967   6.206   6.839   6.943
 2470TIP3   OH228968   6.115   6.835   7.518
 2470TIP3    H128969   6.021   6.822   7.502
 2470TIP3    H228970   6.152   6.747   7.520
 2471TIP3   OH228971   2.225   4.959   8.634
 2471TIP3    H128972   2.217   4.973   8.540
 2471TIP3    H228973   2.252   5.044   8.669
 2472TIP3   OH228974   3.313   6.705   0.010
 2472TIP3    H128975   3.299   6.794   0.042
 2472TIP3    H228976   3.404   6.686   0.030
 2473TIP3   OH228977   3.668   3.334   1.730
 2473TIP3    H128978   3.691   3.398   1.662
 2473TIP3    H228979   3.687   3.379   1.812
 2474TIP3   OH228980   0.862   6.758   8.590
 2474TIP3    H128981   0.806   6.835   8.602
 2474TIP3    H228982   0.857   6.712   8.674
 2475TIP3   OH228983   0.607   5.590   1.206
 2475TIP3    H128984   0.615   5.582   1.301
 2475TIP3    H228985   0.515   5.568   1.189
 2476TIP3   OH228986   5.821   2.163   1.067
 2476TIP3    H128987   5.916   2.172   1.074
 2476TIP3    H228988   5.806   2.070   1.050
 2477TIP3   OH228989   3.576   5.423   6.828
 2477TIP3    H128990   3.613   5.348   6.782
 2477TIP3    H228991   3.571   5.493   6.762
 2478TIP3   OH228992   5.889   2.136   8.154
 2478TIP3    H128993   5.875   2.047   8.124
 2478TIP3    H228994   5.826   2.189   8.104
 2479TIP3   OH228995   6.288   6.503   1.195
 2479TIP3    H128996   6.205   6.551   1.196
 2479TIP3    H228997   6.323   6.516   1.283
 2480TIP3   OH228998   3.030   3.455   0.657
 2480TIP3    H128999   2.957   3.459   0.718
 2480TIP3    H229000   3.027   3.539   0.611
 2481TIP3   OH229001   4.115   4.689   6.712
 2481TIP3    H129002   4.181   4.742   6.757
 2481TIP3    H229003   4.040   4.748   6.702
 2482TIP3   OH229004   1.465   3.424   8.539
 2482TIP3    H129005   1.510   3.354   8.492
 2482TIP3    H229006   1.406   3.379   8.599
 2483TIP3   OH229007   4.029   3.091   0.183
 2483TIP3    H129008   4.046   3.154   0.253
 2483TIP3    H229009   4.116   3.057   0.161
 2484TIP3   OH229010   2.413   5.249   0.451
 2484TIP3    H129011   2.428   5.336   0.487
 2484TIP3    H229012   2.462   5.191   0.509
 2485TIP3   OH229013   0.358   2.434   2.094
 2485TIP3    H129014   0.443   2.468   2.065
 2485TIP3    H229015   0.363   2.340   2.076
 2486TIP3   OH229016   4.424   6.600   6.556
 2486TIP3    H129017   4.376   6.683   6.561
 2486TIP3    H229018   4.360   6.537   6.522
 2487TIP3   OH229019   1.679   2.381   1.093
 2487TIP3    H129020   1.624   2.344   1.162
 2487TIP3    H229021   1.658   2.329   1.015
 2488TIP3   OH229022   5.668   1.291   6.907
 2488TIP3    H129023   5.663   1.296   7.003
 2488TIP3    H229024   5.595   1.234   6.883
 2489TIP3   OH229025   1.040   0.563   8.230
 2489TIP3    H129026   1.099   0.607   8.170
 2489TIP3    H229027   0.965   0.538   8.175
 2490TIP3   OH229028   4.772   5.549   0.109
 2490TIP3    H129029   4.772   5.632   0.061
 2490TIP3    H229030   4.725   5.568   0.190
 2491TIP3   OH229031   4.225   5.588   2.500
 2491TIP3    H129032   4.156   5.546   2.551
 2491TIP3    H229033   4.244   5.527   2.429
 2492TIP3   OH229034   3.247   4.579   6.828
 2492TIP3    H129035   3.222   4.668   6.854
 2492TIP3    H229036   3.238   4.528   6.908
 2493TIP3   OH229037   0.879   0.514   0.794
 2493TIP3    H129038   0.877   0.488   0.886
 2493TIP3    H229039   0.972   0.526   0.774
 2494TIP3   OH229040   4.718   0.545   8.485
 2494TIP3    H129041   4.701   0.491   8.408
 2494TIP3    H229042   4.798   0.593   8.463
 2495TIP3   OH229043   1.686   0.757   8.128
 2495TIP3    H129044   1.724   0.806   8.055
 2495TIP3    H229045   1.756   0.699   8.157
 2496TIP3   OH229046   4.949   2.857   1.638
 2496TIP3    H129047   4.951   2.826   1.728
 2496TIP3    H229048   4.875   2.811   1.598
 2497TIP3   OH229049   4.647   2.581   0.018
 2497TIP3    H129050   4.723   2.623   0.060
 2497TIP3    H229051   4.610   2.525   0.086
 2498TIP3   OH229052   2.165   2.309   7.521
 2498TIP3    H129053   2.220   2.332   7.595
 2498TIP3    H229054   2.076   2.331   7.550
 2499TIP3   OH229055   4.903   1.102   6.600
 2499TIP3    H129056   4.909   1.142   6.687
 2499TIP3    H229057   4.991   1.111   6.564
 2500TIP3   OH229058   1.854   0.428   7.473
 2500TIP3    H129059   1.890   0.495   7.530
 2500TIP3    H229060   1.927   0.404   7.415
 2501TIP3   OH229061   6.006   0.811   1.825
 2501TIP3    H129062   6.014   0.716   1.833
 2501TIP3    H229063   6.096   0.843   1.822
 2502TIP3   OH229064   2.427   2.944   7.316
 2502TIP3    H129065   2.428   2.893   7.397
 2502TIP3    H229066   2.336   2.941   7.287
 2503TIP3   OH229067   4.730   2.713   6.612
 2503TIP3    H129068   4.666   2.758   6.558
 2503TIP3    H229069   4.804   2.773   6.617
 2504TIP3   OH229070   0.050   0.938   1.083
 2504TIP3    H129071   6.825   0.990   1.083
 2504TIP3    H229072   0.108   0.986   1.025
 2505TIP3   OH229073   3.566   4.281   1.148
 2505TIP3    H129074   3.489   4.285   1.091
 2505TIP3    H229075   3.634   4.242   1.093
 2506TIP3   OH229076   1.329   5.938   7.279
 2506TIP3    H129077   1.246   5.911   7.240
 2506TIP3    H229078   1.333   6.033   7.263
 2507TIP3   OH229079   1.277   1.321   8.669
 2507TIP3    H129080   1.339   1.298   8.600
 2507TIP3    H229081   1.205   1.259   8.659
 2508TIP3   OH229082   6.388   4.014   0.673
 2508TIP3    H129083   6.458   3.951   0.658
 2508TIP3    H229084   6.317   3.986   0.615
 2509TIP3   OH229085   0.113   4.025   1.356
 2509TIP3    H129086   0.027   4.040   1.318
 2509TIP3    H229087   0.170   4.090   1.313
 2510TIP3   OH229088   0.528   4.356   7.832
 2510TIP3    H129089   0.621   4.336   7.839
 2510TIP3    H229090   0.509   4.413   7.906
 2511TIP3   OH229091   5.711   1.159   8.459
 2511TIP3    H129092   5.632   1.156   8.405
 2511TIP3    H229093   5.770   1.095   8.419
 2512TIP3   OH229094   1.612   3.838   0.311
 2512TIP3    H129095   1.681   3.903   0.300
 2512TIP3    H229096   1.554   3.852   0.236
 2513TIP3   OH229097   6.073   4.313   7.474
 2513TIP3    H129098   6.098   4.221   7.460
 2513TIP3    H229099   5.982   4.317   7.445
 2514TIP3   OH229100   5.740   3.843   0.210
 2514TIP3    H129101   5.645   3.844   0.204
 2514TIP3    H229102   5.759   3.894   0.289
 2515TIP3   OH229103   2.282   4.627   7.829
 2515TIP3    H129104   2.314   4.708   7.868
 2515TIP3    H229105   2.199   4.611   7.872
 2516TIP3   OH229106   4.074   1.032   0.566
 2516TIP3    H129107   4.134   1.106   0.575
 2516TIP3    H229108   4.037   1.041   0.479
 2517TIP3   OH229109   3.819   4.515   0.670
 2517TIP3    H129110   3.770   4.444   0.712
 2517TIP3    H229111   3.900   4.473   0.640
 2518TIP3   OH229112   2.102   3.407   8.325
 2518TIP3    H129113   2.111   3.387   8.418
 2518TIP3    H229114   2.103   3.503   8.321
 2519TIP3   OH229115   0.871   5.410   7.287
 2519TIP3    H129116   0.847   5.366   7.369
 2519TIP3    H229117   0.836   5.499   7.296
 2520TIP3   OH229118   5.605   3.586   8.063
 2520TIP3    H129119   5.618   3.493   8.041
 2520TIP3    H229120   5.693   3.619   8.081
 2521TIP3   OH229121   2.177   5.609   8.355
 2521TIP3    H129122   2.221   5.540   8.306
 2521TIP3    H229123   2.228   5.616   8.436
 2522TIP3   OH229124   4.065   1.206   0.106
 2522TIP3    H129125   4.154   1.205   0.141
 2522TIP3    H229126   4.076   1.224   0.012
 2523TIP3   OH229127   5.988   4.988   0.002
 2523TIP3    H129128   5.916   4.974   8.653
 2523TIP3    H229129   6.067   4.969   8.665
 2524TIP3   OH229130   6.458   0.408   1.672
 2524TIP3    H129131   6.409   0.414   1.753
 2524TIP3    H229132   6.466   0.498   1.641
 2525TIP3   OH229133   5.103   0.105   1.089
 2525TIP3    H129134   5.090   0.199   1.094
 2525TIP3    H229135   5.198   0.093   1.099
 2526TIP3   OH229136   5.633   3.338   7.394
 2526TIP3    H129137   5.544   3.317   7.421
 2526TIP3    H229138   5.686   3.266   7.428
 2527TIP3   OH229139   2.733   2.304   7.209
 2527TIP3    H129140   2.654   2.356   7.226
 2527TIP3    H229141   2.705   2.242   7.141
 2528TIP3   OH229142   2.975   3.277   7.900
 2528TIP3    H129143   2.943   3.217   7.832
 2528TIP3    H229144   2.969   3.363   7.860
 2529TIP3   OH229145   2.223   2.370   2.546
 2529TIP3    H129146   2.236   2.312   2.621
 2529TIP3    H229147   2.262   2.453   2.573
 2530TIP3   OH229148   0.279   6.060   8.461
 2530TIP3    H129149   0.261   6.020   8.546
 2530TIP3    H229150   0.237   6.001   8.398
 2531TIP3   OH229151   6.027   1.277   8.330
 2531TIP3    H129152   6.123   1.274   8.327
 2531TIP3    H229153   6.000   1.185   8.329
 2532TIP3   OH229154   3.514   3.556   1.228
 2532TIP3    H129155   3.579   3.598   1.171
 2532TIP3    H229156   3.444   3.621   1.237
 2533TIP3   OH229157   1.502   6.744   6.886
 2533TIP3    H129158   1.537   6.824   6.847
 2533TIP3    H229159   1.575   6.708   6.936
 2534TIP3   OH229160   5.934   2.805   0.753
 2534TIP3    H129161   5.878   2.727   0.746
 2534TIP3    H229162   5.935   2.825   0.846
 2535TIP3   OH229163   2.140   0.307   0.335
 2535TIP3    H129164   2.233   0.293   0.354
 2535TIP3    H229165   2.140   0.349   0.249
 2536TIP3   OH229166   1.795   0.838   7.607
 2536TIP3    H129167   1.792   0.869   7.697
 2536TIP3    H229168   1.805   0.917   7.554
 2537TIP3   OH229169   4.145   0.489   1.555
 2537TIP3    H129170   4.183   0.461   1.472
 2537TIP3    H229171   4.086   0.561   1.532
 2538TIP3   OH229172   5.778   0.047   7.219
 2538TIP3    H129173   5.785   0.045   7.123
 2538TIP3    H229174   5.812   6.819   7.247
 2539TIP3   OH229175   0.278   6.301   7.516
 2539TIP3    H129176   0.278   6.361   7.442
 2539TIP3    H229177   0.327   6.346   7.585
 2540TIP3   OH229178   5.696   0.857   7.828
 2540TIP3    H129179   5.662   0.794   7.892
 2540TIP3    H229180   5.627   0.865   7.763
 2541TIP3   OH229181   0.561   4.771   8.055
 2541TIP3    H129182   0.504   4.777   7.979
 2541TIP3    H229183   0.649   4.788   8.021
 2542TIP3   OH229184   5.339   0.574   8.587
 2542TIP3    H129185   5.286   0.604   8.661
 2542TIP3    H229186   5.307   0.486   8.568
 2543TIP3   OH229187   4.984   1.174   8.093
 2543TIP3    H129188   4.975   1.173   8.188
 2543TIP3    H229189   4.923   1.106   8.062
 2544TIP3   OH229190   5.653   5.612   0.451
 2544TIP3    H129191   5.720   5.673   0.481
 2544TIP3    H229192   5.588   5.611   0.522
 2545TIP3   OH229193   2.820   2.262   8.155
 2545TIP3    H129194   2.865   2.227   8.232
 2545TIP3    H229195   2.771   2.188   8.120
 2546TIP3   OH229196   2.408   2.293   1.561
 2546TIP3    H129197   2.445   2.275   1.475
 2546TIP3    H229198   2.432   2.384   1.578
 2547TIP3   OH229199   6.396   2.885   7.880
 2547TIP3    H129200   6.336   2.885   7.806
 2547TIP3    H229201   6.398   2.976   7.910
 2548TIP3   OH229202   4.802   6.713   8.632
 2548TIP3    H129203   4.873   6.656   8.661
 2548TIP3    H229204   4.772   6.756   8.712
 2549TIP3   OH229205   4.493   3.289   8.148
 2549TIP3    H129206   4.566   3.234   8.179
 2549TIP3    H229207   4.489   3.272   8.054
 2550TIP3   OH229208   0.882   3.662   2.169
 2550TIP3    H129209   0.898   3.624   2.255
 2550TIP3    H229210   0.965   3.653   2.122
 2551TIP3   OH229211   5.733   6.482   0.438
 2551TIP3    H129212   5.789   6.532   0.379
 2551TIP3    H229213   5.765   6.503   0.526
 2552TIP3   OH229214   4.398   1.042   7.055
 2552TIP3    H129215   4.362   1.110   7.112
 2552TIP3    H229216   4.486   1.026   7.089
 2553TIP3   OH229217   2.685   5.727   0.515
 2553TIP3    H129218   2.648   5.766   0.435
 2553TIP3    H229219   2.702   5.636   0.492
 2554TIP3   OH229220   0.133   4.998   6.719
 2554TIP3    H129221   0.127   4.903   6.722
 2554TIP3    H229222   0.225   5.017   6.735
 2555TIP3   OH229223   3.739   5.193   7.275
 2555TIP3    H129224   3.760   5.277   7.236
 2555TIP3    H229225   3.645   5.184   7.263
 2556TIP3   OH229226   2.599   1.595   7.067
 2556TIP3    H129227   2.533   1.648   7.111
 2556TIP3    H229228   2.577   1.602   6.974
 2557TIP3   OH229229   4.269   3.315   1.275
 2557TIP3    H129230   4.344   3.347   1.325
 2557TIP3    H229231   4.219   3.394   1.253
 2558TIP3   OH229232   4.173   4.234   8.142
 2558TIP3    H129233   4.149   4.161   8.200
 2558TIP3    H229234   4.130   4.310   8.181
 2559TIP3   OH229235   1.129   4.287   8.257
 2559TIP3    H129236   1.165   4.270   8.170
 2559TIP3    H229237   1.157   4.376   8.277
 2560TIP3   OH229238   6.719   2.602   7.328
 2560TIP3    H129239   6.752   2.692   7.332
 2560TIP3    H229240   6.673   2.590   7.411
 2561TIP3   OH229241   4.939   1.204   0.249
 2561TIP3    H129242   5.019   1.255   0.235
 2561TIP3    H229243   4.965   1.135   0.311
 2562TIP3   OH229244   0.772   0.041   8.349
 2562TIP3    H129245   0.798   6.808   8.369
 2562TIP3    H229246   0.794   0.091   8.427
 2563TIP3   OH229247   0.703   1.995   0.308
 2563TIP3    H129248   0.619   1.990   0.353
 2563TIP3    H229249   0.768   1.980   0.377
 2564TIP3   OH229250   5.795   1.605   7.311
 2564TIP3    H129251   5.710   1.617   7.354
 2564TIP3    H229252   5.839   1.689   7.324
 2565TIP3   OH229253   4.475   4.126   1.882
 2565TIP3    H129254   4.465   4.220   1.890
 2565TIP3    H229255   4.570   4.111   1.882
 2566TIP3   OH229256   0.729   1.149   0.678
 2566TIP3    H129257   0.686   1.069   0.648
 2566TIP3    H229258   0.690   1.219   0.626
 2567TIP3   OH229259   5.106   4.157   0.535
 2567TIP3    H129260   5.037   4.200   0.484
 2567TIP3    H229261   5.063   4.129   0.615
 2568TIP3   OH229262   5.840   1.815   0.893
 2568TIP3    H129263   5.919   1.806   0.840
 2568TIP3    H229264   5.773   1.843   0.831
 2569TIP3   OH229265   2.894   0.195   2.443
 2569TIP3    H129266   2.843   0.263   2.399
 2569TIP3    H229267   2.841   0.171   2.519
 2570TIP3   OH229268   2.028   1.481   8.536
 2570TIP3    H129269   2.107   1.526   8.505
 2570TIP3    H229270   2.039   1.390   8.507
 2571TIP3   OH229271   3.368   2.311   8.067
 2571TIP3    H129272   3.369   2.397   8.108
 2571TIP3    H229273   3.444   2.312   8.008
 2572TIP3   OH229274   2.723   2.030   8.072
 2572TIP3    H129275   2.684   1.958   8.023
 2572TIP3    H229276   2.818   2.015   8.066
 2573TIP3   OH229277   2.356   2.994   7.763
 2573TIP3    H129278   2.374   2.947   7.682
 2573TIP3    H229279   2.260   2.994   7.770
 2574TIP3   OH229280   3.751   4.480   6.472
 2574TIP3    H129281   3.738   4.539   6.397
 2574TIP3    H229282   3.770   4.395   6.432
 2575TIP3   OH229283   1.408   1.441   1.011
 2575TIP3    H129284   1.354   1.362   1.001
 2575TIP3    H229285   1.379   1.479   1.094
 2576TIP3   OH229286   3.531   2.001   7.565
 2576TIP3    H129287   3.469   1.951   7.618
 2576TIP3    H229288   3.600   1.938   7.543
 2577TIP3   OH229289   3.918   3.785   7.194
 2577TIP3    H129290   3.934   3.842   7.269
 2577TIP3    H229291   3.825   3.795   7.175
 2578TIP3   OH229292   0.367   5.302   0.458
 2578TIP3    H129293   0.368   5.396   0.439
 2578TIP3    H229294   0.316   5.264   0.386
 2579TIP3   OH229295   5.502   6.174   8.584
 2579TIP3    H129296   5.451   6.115   8.529
 2579TIP3    H229297   5.470   6.157   8.673
 2580TIP3   OH229298   5.617   6.576   1.041
 2580TIP3    H129299   5.696   6.555   1.090
 2580TIP3    H229300   5.574   6.491   1.028
 2581TIP3   OH229301   0.930   2.123   0.727
 2581TIP3    H129302   1.017   2.129   0.765
 2581TIP3    H229303   0.895   2.040   0.761
 2582TIP3   OH229304   2.303   3.821   0.778
 2582TIP3    H129305   2.297   3.892   0.843
 2582TIP3    H229306   2.214   3.786   0.773
 2583TIP3   OH229307   4.538   3.243   7.866
 2583TIP3    H129308   4.516   3.234   7.773
 2583TIP3    H229309   4.633   3.234   7.869
 2584TIP3   OH229310   5.695   6.362   7.927
 2584TIP3    H129311   5.647   6.306   7.988
 2584TIP3    H229312   5.765   6.401   7.980
 2585TIP3   OH229313   3.527   0.313   2.480
 2585TIP3    H129314   3.535   0.331   2.386
 2585TIP3    H229315   3.439   0.343   2.502
 2586TIP3   OH229316   0.701   4.185   1.986
 2586TIP3    H129317   0.705   4.091   2.001
 2586TIP3    H229318   0.782   4.205   1.938
 2587TIP3   OH229319   6.303   2.249   0.156
 2587TIP3    H129320   6.321   2.163   0.194
 2587TIP3    H229321   6.389   2.287   0.142
 2588TIP3   OH229322   4.461   1.115   8.546
 2588TIP3    H129323   4.410   1.043   8.509
 2588TIP3    H229324   4.525   1.073   8.603
 2589TIP3   OH229325   6.233   4.198   6.612
 2589TIP3    H129326   6.232   4.223   6.705
 2589TIP3    H229327   6.178   4.263   6.570
 2590TIP3   OH229328   6.088   2.278   1.053
 2590TIP3    H129329   6.168   2.225   1.055
 2590TIP3    H229330   6.105   2.347   0.989
 2591TIP3   OH229331   0.091   3.634   0.141
 2591TIP3    H129332   0.073   3.720   0.102
 2591TIP3    H229333   0.116   3.579   0.067
 2592TIP3   OH229334   0.749   5.290   7.839
 2592TIP3    H129335   0.710   5.327   7.760
 2592TIP3    H229336   0.840   5.274   7.817
 2593TIP3   OH229337   5.909   5.540   7.110
 2593TIP3    H129338   5.998   5.556   7.143
 2593TIP3    H229339   5.888   5.452   7.141
 2594TIP3   OH229340   4.836   6.737   0.785
 2594TIP3    H129341   4.847   6.663   0.726
 2594TIP3    H229342   4.893   6.716   0.860
 2595TIP3   OH229343   5.217   0.703   8.289
 2595TIP3    H129344   5.295   0.757   8.302
 2595TIP3    H229345   5.159   0.726   8.362
 2596TIP3   OH229346   5.691   5.406   0.854
 2596TIP3    H129347   5.600   5.393   0.827
 2596TIP3    H229348   5.717   5.323   0.893
 2597TIP3   OH229349   6.792   4.720   7.930
 2597TIP3    H129350   6.747   4.784   7.875
 2597TIP3    H229351   6.726   4.691   7.992
 2598TIP3   OH229352   4.165   1.874   7.067
 2598TIP3    H129353   4.199   1.852   6.980
 2598TIP3    H229354   4.222   1.946   7.097
 2599TIP3   OH229355   6.021   6.615   1.650
 2599TIP3    H129356   5.981   6.606   1.736
 2599TIP3    H229357   6.115   6.618   1.667
 2600TIP3   OH229358   2.301   1.158   8.326
 2600TIP3    H129359   2.315   1.134   8.417
 2600TIP3    H229360   2.352   1.094   8.276
 2601TIP3   OH229361   2.778   5.794   1.757
 2601TIP3    H129362   2.833   5.846   1.699
 2601TIP3    H229363   2.735   5.858   1.814
 2602TIP3   OH229364   5.395   3.757   6.548
 2602TIP3    H129365   5.489   3.773   6.534
 2602TIP3    H229366   5.390   3.666   6.574
 2603TIP3   OH229367   2.579   0.276   7.808
 2603TIP3    H129368   2.618   0.335   7.873
 2603TIP3    H229369   2.651   0.254   7.750
 2604TIP3   OH229370   6.095   5.757   0.112
 2604TIP3    H129371   6.069   5.746   0.020
 2604TIP3    H229372   6.128   5.847   0.117
 2605TIP3   OH229373   0.188   6.661   1.757
 2605TIP3    H129374   0.240   6.592   1.716
 2605TIP3    H229375   0.170   6.628   1.845
 2606TIP3   OH229376   1.426   2.416   8.268
 2606TIP3    H129377   1.393   2.326   8.261
 2606TIP3    H229378   1.358   2.470   8.228
 2607TIP3   OH229379   1.115   4.703   1.540
 2607TIP3    H129380   1.176   4.763   1.498
 2607TIP3    H229381   1.123   4.722   1.634
 2608TIP3   OH229382   6.185   5.273   7.509
 2608TIP3    H129383   6.190   5.202   7.445
 2608TIP3    H229384   6.094   5.302   7.506
 2609TIP3   OH229385   2.927   6.352   0.496
 2609TIP3    H129386   2.936   6.329   0.588
 2609TIP3    H229387   2.873   6.282   0.459
 2610TIP3   OH229388   4.366   1.278   1.361
 2610TIP3    H129389   4.334   1.368   1.359
 2610TIP3    H229390   4.301   1.228   1.312
 2611TIP3   OH229391   6.277   2.798   6.979
 2611TIP3    H129392   6.282   2.879   6.928
 2611TIP3    H229393   6.184   2.788   6.998
 2612TIP3   OH229394   0.476   3.912   6.900
 2612TIP3    H129395   0.539   3.966   6.854
 2612TIP3    H229396   0.392   3.958   6.890
 2613TIP3   OH229397   0.290   6.793   8.682
 2613TIP3    H129398   0.302   6.731   0.041
 2613TIP3    H229399   0.202   6.776   8.650
 2614TIP3   OH229400   0.389   2.658   1.186
 2614TIP3    H129401   0.377   2.577   1.137
 2614TIP3    H229402   0.331   2.650   1.262
 2615TIP3   OH229403   4.883   4.175   7.847
 2615TIP3    H129404   4.949   4.234   7.882
 2615TIP3    H229405   4.865   4.207   7.759
 2616TIP3   OH229406   5.931   2.409   8.396
 2616TIP3    H129407   5.904   2.329   8.441
 2616TIP3    H229408   6.000   2.381   8.336
 2617TIP3   OH229409   5.874   3.684   7.383
 2617TIP3    H129410   5.921   3.613   7.340
 2617TIP3    H229411   5.782   3.657   7.379
 2618TIP3   OH229412   0.643   4.663   0.954
 2618TIP3    H129413   0.729   4.648   0.913
 2618TIP3    H229414   0.639   4.757   0.967
 2619TIP3   OH229415   3.520   2.838   7.332
 2619TIP3    H129416   3.537   2.902   7.402
 2619TIP3    H229417   3.496   2.758   7.378
 2620TIP3   OH229418   1.942   1.873   7.357
 2620TIP3    H129419   2.000   1.948   7.363
 2620TIP3    H229420   1.864   1.906   7.312
 2621TIP3   OH229421   2.045   6.714   8.609
 2621TIP3    H129422   2.073   6.692   8.520
 2621TIP3    H229423   1.963   6.667   8.620
 2622TIP3   OH229424   2.139   6.716   8.337
 2622TIP3    H129425   2.208   6.650   8.330
 2622TIP3    H229426   2.179   6.796   8.303
 2623TIP3   OH229427   4.411   0.014   7.464
 2623TIP3    H129428   4.431   6.778   7.476
 2623TIP3    H229429   4.484   0.047   7.412
 2624TIP3   OH229430   1.884   3.809   1.016
 2624TIP3    H129431   1.846   3.888   1.054
 2624TIP3    H229432   1.922   3.761   1.090
 2625TIP3   OH229433   4.002   2.540   0.647
 2625TIP3    H129434   4.091   2.552   0.614
 2625TIP3    H229435   4.014   2.504   0.735
 2626TIP3   OH229436   0.082   1.270   0.935
 2626TIP3    H129437   0.067   1.291   0.843
 2626TIP3    H229438   0.131   1.188   0.933
 2627TIP3   OH229439   0.933   4.807   7.541
 2627TIP3    H129440   1.013   4.834   7.586
 2627TIP3    H229441   0.862   4.846   7.592
 2628TIP3   OH229442   4.932   1.947   1.440
 2628TIP3    H129443   4.893   1.898   1.512
 2628TIP3    H229444   4.879   2.027   1.433
 2629TIP3   OH229445   5.172   1.758   6.870
 2629TIP3    H129446   5.242   1.704   6.906
 2629TIP3    H229447   5.091   1.714   6.897
 2630TIP3   OH229448   5.152   3.579   7.792
 2630TIP3    H129449   5.164   3.620   7.706
 2630TIP3    H229450   5.172   3.649   7.854
 2631TIP3   OH229451   4.437   2.170   7.762
 2631TIP3    H129452   4.353   2.149   7.802
 2631TIP3    H229453   4.498   2.175   7.835
 2632TIP3   OH229454   6.469   4.794   0.544
 2632TIP3    H129455   6.417   4.715   0.529
 2632TIP3    H229456   6.441   4.826   0.630
 2633TIP3   OH229457   2.762   5.083   0.889
 2633TIP3    H129458   2.783   5.005   0.837
 2633TIP3    H229459   2.846   5.129   0.897
 2634TIP3   OH229460   1.830   4.646   6.710
 2634TIP3    H129461   1.768   4.718   6.695
 2634TIP3    H229462   1.881   4.641   6.629
 2635TIP3   OH229463   6.771   0.970   2.152
 2635TIP3    H129464   6.688   0.994   2.194
 2635TIP3    H229465   6.745   0.916   2.077
 2636TIP3   OH229466   5.442   2.340   1.740
 2636TIP3    H129467   5.431   2.434   1.723
 2636TIP3    H229468   5.494   2.336   1.820
 2637TIP3   OH229469   5.375   4.889   0.807
 2637TIP3    H129470   5.406   4.932   0.887
 2637TIP3    H229471   5.282   4.913   0.801
 2638TIP3   OH229472   3.869   0.568   1.031
 2638TIP3    H129473   3.795   0.522   1.070
 2638TIP3    H229474   3.938   0.562   1.097
 2639TIP3   OH229475   2.809   1.817   6.820
 2639TIP3    H129476   2.715   1.836   6.810
 2639TIP3    H229477   2.851   1.903   6.819
 2640TIP3   OH229478   0.379   6.155   0.291
 2640TIP3    H129479   0.403   6.100   0.366
 2640TIP3    H229480   0.297   6.196   0.317
 2641TIP3   OH229481   1.773   5.292   7.307
 2641TIP3    H129482   1.780   5.326   7.218
 2641TIP3    H229483   1.683   5.261   7.315
 2642TIP3   OH229484   1.103   5.428   0.675
 2642TIP3    H129485   1.162   5.494   0.638
 2642TIP3    H229486   1.161   5.371   0.726
 2643TIP3   OH229487   4.020   0.527   1.232
 2643TIP3    H129488   4.091   0.581   1.199
 2643TIP3    H229489   4.063   0.456   1.278
 2644TIP3   OH229490   6.231   0.791   0.864
 2644TIP3    H129491   6.324   0.788   0.890
 2644TIP3    H229492   6.186   0.744   0.934
 2645TIP3   OH229493   6.351   1.567   1.355
 2645TIP3    H129494   6.372   1.497   1.293
 2645TIP3    H229495   6.264   1.597   1.329
 2646TIP3   OH229496   6.260   5.359   6.509
 2646TIP3    H129497   6.297   5.400   6.431
 2646TIP3    H229498   6.302   5.403   6.582
 2647TIP3   OH229499   2.499   6.064   8.419
 2647TIP3    H129500   2.455   6.002   8.477
 2647TIP3    H229501   2.567   6.103   8.473
 2648TIP3   OH229502   4.571   1.342   8.115
 2648TIP3    H129503   4.663   1.339   8.143
 2648TIP3    H229504   4.523   1.365   8.195
 2649TIP3   OH229505   1.282   3.986   1.717
 2649TIP3    H129506   1.220   4.058   1.723
 2649TIP3    H229507   1.257   3.926   1.787
 2650TIP3   OH229508   3.868   3.599   0.533
 2650TIP3    H129509   3.952   3.556   0.552
 2650TIP3    H229510   3.803   3.530   0.544
 2651TIP3   OH229511   2.990   6.745   0.732
 2651TIP3    H129512   2.982   6.827   0.781
 2651TIP3    H229513   2.911   6.696   0.753
 2652TIP3   OH229514   6.660   5.755   7.865
 2652TIP3    H129515   6.622   5.828   7.817
 2652TIP3    H229516   6.595   5.685   7.858
 2653TIP3   OH229517   2.458   6.618   8.134
 2653TIP3    H129518   2.464   6.676   8.210
 2653TIP3    H229519   2.470   6.530   8.169
 2654TIP3   OH229520   6.783   6.762   1.810
 2654TIP3    H129521   0.007   6.732   1.768
 2654TIP3    H229522   6.720   6.772   1.739
 2655TIP3   OH229523   2.884   5.684   8.457
 2655TIP3    H129524   2.892   5.741   8.534
 2655TIP3    H229525   2.911   5.739   8.384
 2656TIP3   OH229526   1.058   0.442   2.079
 2656TIP3    H129527   1.108   0.514   2.120
 2656TIP3    H229528   0.970   0.451   2.114
 2657TIP3   OH229529   3.804   2.189   0.255
 2657TIP3    H129530   3.850   2.105   0.242
 2657TIP3    H229531   3.717   2.174   0.219
 2658TIP3   OH229532   3.781   1.161   2.665
 2658TIP3    H129533   3.827   1.191   2.587
 2658TIP3    H229534   3.715   1.229   2.681
 2659TIP3   OH229535   2.200   6.179   0.521
 2659TIP3    H129536   2.142   6.252   0.504
 2659TIP3    H229537   2.145   6.114   0.565
 2660TIP3   OH229538   0.604   4.994   7.031
 2660TIP3    H129539   0.695   4.991   7.001
 2660TIP3    H229540   0.602   5.066   7.094
 2661TIP3   OH229541   4.635   3.511   7.906
 2661TIP3    H129542   4.600   3.557   7.982
 2661TIP3    H229543   4.592   3.426   7.908
 2662TIP3   OH229544   5.662   3.917   2.298
 2662TIP3    H129545   5.755   3.939   2.291
 2662TIP3    H229546   5.617   3.983   2.246
 2663TIP3   OH229547   4.326   3.763   6.498
 2663TIP3    H129548   4.406   3.756   6.550
 2663TIP3    H229549   4.272   3.827   6.544
 2664TIP3   OH229550   2.806   4.867   8.574
 2664TIP3    H129551   2.807   4.840   8.666
 2664TIP3    H229552   2.871   4.811   8.531
 2665TIP3   OH229553   2.099   2.270   0.643
 2665TIP3    H129554   2.179   2.221   0.659
 2665TIP3    H229555   2.031   2.203   0.631
 2666TIP3   OH229556   1.152   2.978   1.673
 2666TIP3    H129557   1.061   3.007   1.670
 2666TIP3    H229558   1.185   2.992   1.584
 2667TIP3   OH229559   5.949   0.309   1.574
 2667TIP3    H129560   5.964   0.299   1.668
 2667TIP3    H229561   5.959   0.221   1.538
 2668TIP3   OH229562   0.409   6.057   0.858
 2668TIP3    H129563   0.338   6.066   0.922
 2668TIP3    H229564   0.401   6.134   0.802
 2669TIP3   OH229565   4.523   2.096   6.267
 2669TIP3    H129566   4.612   2.059   6.276
 2669TIP3    H229567   4.473   2.051   6.335
 2670TIP3   OH229568   5.122   4.984   0.729
 2670TIP3    H129569   5.099   5.077   0.734
 2670TIP3    H229570   5.084   4.946   0.808
 2671TIP3   OH229571   4.989   0.155   1.691
 2671TIP3    H129572   4.985   0.153   1.595
 2671TIP3    H229573   5.051   0.086   1.714
 2672TIP3   OH229574   0.846   5.375   0.559
 2672TIP3    H129575   0.799   5.338   0.634
 2672TIP3    H229576   0.935   5.388   0.592
 2673TIP3   OH229577   5.118   4.241   8.115
 2673TIP3    H129578   5.201   4.194   8.106
 2673TIP3    H229579   5.141   4.319   8.166
 2674TIP3   OH229580   4.723   3.043   0.405
 2674TIP3    H129581   4.702   3.020   0.495
 2674TIP3    H229582   4.639   3.073   0.368
 2675TIP3   OH229583   2.892   3.622   7.769
 2675TIP3    H129584   2.882   3.686   7.699
 2675TIP3    H229585   2.817   3.563   7.760
 2676TIP3   OH229586   2.374   0.046   8.576
 2676TIP3    H129587   2.287   0.075   8.605
 2676TIP3    H229588   2.392   6.825   8.629
 2677TIP3   OH229589   0.780   0.176   8.577
 2677TIP3    H129590   0.773   0.270   8.558
 2677TIP3    H229591   0.706   0.158   8.635
 2678TIP3   OH229592   6.598   2.424   1.277
 2678TIP3    H129593   6.573   2.429   1.369
 2678TIP3    H229594   6.599   2.330   1.258
 2679TIP3   OH229595   3.270   5.004   0.421
 2679TIP3    H129596   3.361   5.002   0.451
 2679TIP3    H229597   3.219   4.997   0.501
 2680TIP3   OH229598   3.924   3.294   6.958
 2680TIP3    H129599   3.829   3.306   6.955
 2680TIP3    H229600   3.958   3.356   6.894
 2681TIP3   OH229601   4.081   1.404   2.622
 2681TIP3    H129602   4.025   1.369   2.553
 2681TIP3    H229603   4.171   1.387   2.592
 2682TIP3   OH229604   0.653   6.179   0.261
 2682TIP3    H129605   0.558   6.185   0.244
 2682TIP3    H229606   0.688   6.141   0.180
 2683TIP3   OH229607   2.137   1.431   0.801
 2683TIP3    H129608   2.134   1.498   0.870
 2683TIP3    H229609   2.047   1.397   0.796
 2684TIP3   OH229610   4.115   6.145   7.670
 2684TIP3    H129611   4.110   6.215   7.604
 2684TIP3    H229612   4.207   6.122   7.673
 2685TIP3   OH229613   3.259   4.096   0.672
 2685TIP3    H129614   3.250   4.094   0.768
 2685TIP3    H229615   3.307   4.017   0.651
 2686TIP3   OH229616   6.250   5.269   1.073
 2686TIP3    H129617   6.181   5.235   1.017
 2686TIP3    H229618   6.331   5.242   1.030
 2687TIP3   OH229619   6.141   1.700   7.106
 2687TIP3    H129620   6.087   1.771   7.141
 2687TIP3    H229621   6.136   1.631   7.172
 2688TIP3   OH229622   1.845   2.942   0.790
 2688TIP3    H129623   1.857   3.021   0.738
 2688TIP3    H229624   1.773   2.962   0.850
 2689TIP3   OH229625   1.806   2.158   8.461
 2689TIP3    H129626   1.801   2.254   8.459
 2689TIP3    H229627   1.900   2.139   8.453
 2690TIP3   OH229628   0.436   0.792   1.489
 2690TIP3    H129629   0.398   0.880   1.483
 2690TIP3    H229630   0.365   0.738   1.522
 2691TIP3   OH229631   3.101   1.925   1.859
 2691TIP3    H129632   3.076   1.990   1.793
 2691TIP3    H229633   3.064   1.843   1.827
 2692TIP3   OH229634   1.191   2.548   8.153
 2692TIP3    H129635   1.162   2.529   8.064
 2692TIP3    H229636   1.110   2.574   8.198
 2693TIP3   OH229637   3.130   0.542   1.077
 2693TIP3    H129638   3.113   0.550   0.983
 2693TIP3    H229639   3.191   0.613   1.096
 2694TIP3   OH229640   3.778   5.042   7.980
 2694TIP3    H129641   3.772   5.136   7.963
 2694TIP3    H229642   3.872   5.023   7.975
 2695TIP3   OH229643   3.485   5.673   8.126
 2695TIP3    H129644   3.455   5.728   8.199
 2695TIP3    H229645   3.486   5.732   8.051
 2696TIP3   OH229646   6.713   4.100   1.201
 2696TIP3    H129647   6.638   4.129   1.149
 2696TIP3    H229648   6.680   4.096   1.290
 2697TIP3   OH229649   6.305   6.043   8.318
 2697TIP3    H129650   6.347   5.998   8.245
 2697TIP3    H229651   6.371   6.045   8.387
 2698TIP3   OH229652   4.455   2.820   1.292
 2698TIP3    H129653   4.439   2.778   1.377
 2698TIP3    H229654   4.370   2.819   1.248
 2699TIP3   OH229655   2.963   4.908   8.171
 2699TIP3    H129656   3.048   4.893   8.130
 2699TIP3    H229657   2.954   5.004   8.173
 2700TIP3   OH229658   5.285   0.828   6.811
 2700TIP3    H129659   5.289   0.862   6.900
 2700TIP3    H229660   5.303   0.903   6.755
 2701TIP3   OH229661   5.462   4.814   6.791
 2701TIP3    H129662   5.492   4.843   6.705
 2701TIP3    H229663   5.422   4.728   6.775
 2702TIP3   OH229664   2.766   6.375   6.703
 2702TIP3    H129665   2.690   6.430   6.681
 2702TIP3    H229666   2.783   6.326   6.622
 2703TIP3   OH229667   3.099   0.487   0.562
 2703TIP3    H129668   3.161   0.512   0.631
 2703TIP3    H229669   3.013   0.500   0.603
 2704TIP3   OH229670   3.907   0.646   6.766
 2704TIP3    H129671   3.907   0.716   6.700
 2704TIP3    H229672   3.837   0.587   6.738
 2705TIP3   OH229673   6.023   2.306   0.329
 2705TIP3    H129674   6.087   2.266   0.388
 2705TIP3    H229675   5.971   2.363   0.386
 2706TIP3   OH229676   1.111   3.715   7.185
 2706TIP3    H129677   1.105   3.778   7.114
 2706TIP3    H229678   1.023   3.711   7.222
 2707TIP3   OH229679   2.009   2.932   1.606
 2707TIP3    H129680   1.962   3.000   1.654
 2707TIP3    H229681   1.982   2.943   1.515
 2708TIP3   OH229682   4.652   5.542   7.405
 2708TIP3    H129683   4.677   5.453   7.429
 2708TIP3    H229684   4.557   5.538   7.393
 2709TIP3   OH229685   3.788   6.254   7.043
 2709TIP3    H129686   3.820   6.185   7.102
 2709TIP3    H229687   3.808   6.222   6.955
 2710TIP3   OH229688   1.751   2.760   6.808
 2710TIP3    H129689   1.658   2.761   6.785
 2710TIP3    H229690   1.789   2.692   6.752
 2711TIP3   OH229691   3.785   0.848   0.322
 2711TIP3    H129692   3.816   0.795   0.395
 2711TIP3    H229693   3.827   0.933   0.335
 2712TIP3   OH229694   0.794   0.811   1.539
 2712TIP3    H129695   0.714   0.864   1.541
 2712TIP3    H229696   0.865   0.875   1.544
 2713TIP3   OH229697   1.028   6.608   2.371
 2713TIP3    H129698   1.117   6.582   2.397
 2713TIP3    H229699   1.001   6.542   2.307
 2714TIP3   OH229700   6.840   3.919   7.623
 2714TIP3    H129701   6.782   3.896   7.695
 2714TIP3    H229702   6.786   3.976   7.567
 2715TIP3   OH229703   3.028   5.871   1.319
 2715TIP3    H129704   3.039   5.876   1.224
 2715TIP3    H229705   3.116   5.887   1.355
 2716TIP3   OH229706   5.590   3.298   1.126
 2716TIP3    H129707   5.551   3.337   1.205
 2716TIP3    H229708   5.515   3.277   1.070
 2717TIP3   OH229709   0.835   1.958   8.223
 2717TIP3    H129710   0.751   1.915   8.205
 2717TIP3    H229711   0.898   1.913   8.167
 2718TIP3   OH229712   3.834   0.919   2.244
 2718TIP3    H129713   3.875   0.832   2.239
 2718TIP3    H229714   3.794   0.922   2.330
 2719TIP3   OH229715   4.148   2.875   1.311
 2719TIP3    H129716   4.053   2.887   1.311
 2719TIP3    H229717   4.183   2.960   1.336
 2720TIP3   OH229718   1.637   1.261   1.089
 2720TIP3    H129719   1.698   1.233   1.157
 2720TIP3    H229720   1.572   1.313   1.137
 2721TIP3   OH229721   5.427   1.708   8.179
 2721TIP3    H129722   5.353   1.717   8.239
 2721TIP3    H229723   5.504   1.734   8.230
 2722TIP3   OH229724   4.089   4.790   0.271
 2722TIP3    H129725   4.137   4.713   0.240
 2722TIP3    H229726   4.064   4.768   0.361
 2723TIP3   OH229727   5.266   2.513   6.663
 2723TIP3    H129728   5.284   2.423   6.687
 2723TIP3    H229729   5.246   2.510   6.569
 2724TIP3   OH229730   2.625   2.591   1.820
 2724TIP3    H129731   2.534   2.577   1.792
 2724TIP3    H229732   2.657   2.503   1.841
 2725TIP3   OH229733   0.431   6.132   8.702
 2725TIP3    H129734   0.367   6.200   0.008
 2725TIP3    H229735   0.453   6.146   8.610
 2726TIP3   OH229736   0.253   5.044   0.935
 2726TIP3    H129737   0.207   4.969   0.973
 2726TIP3    H229738   0.311   5.006   0.870
 2727TIP3   OH229739   4.167   0.087   6.902
 2727TIP3    H129740   4.098   0.041   6.855
 2727TIP3    H229741   4.200   0.151   6.839
 2728TIP3   OH229742   3.432   2.629   7.456
 2728TIP3    H129743   3.471   2.561   7.402
 2728TIP3    H229744   3.342   2.600   7.470
 2729TIP3   OH229745   6.817   3.265   0.292
 2729TIP3    H129746   6.791   3.212   0.216
 2729TIP3    H229747   0.011   3.206   0.347
 2730TIP3   OH229748   0.070   0.981   1.589
 2730TIP3    H129749   0.164   0.983   1.610
 2730TIP3    H229750   0.032   1.050   1.643
 2731TIP3   OH229751   6.165   4.052   7.463
 2731TIP3    H129752   6.258   4.062   7.485
 2731TIP3    H229753   6.162   3.985   7.395
 2732TIP3   OH229754   2.043   6.380   0.432
 2732TIP3    H129755   2.087   6.464   0.443
 2732TIP3    H229756   1.984   6.393   0.358
 2733TIP3   OH229757   1.833   0.017   8.233
 2733TIP3    H129758   1.926   0.001   8.245
 2733TIP3    H229759   1.792   6.840   8.313
 2734TIP3   OH229760   4.785   1.660   1.235
 2734TIP3    H129761   4.734   1.740   1.238
 2734TIP3    H229762   4.773   1.620   1.321
 2735TIP3   OH229763   5.856   4.711   7.602
 2735TIP3    H129764   5.887   4.796   7.571
 2735TIP3    H229765   5.765   4.727   7.627
 2736TIP3   OH229766   6.588   5.760   6.812
 2736TIP3    H129767   6.614   5.732   6.724
 2736TIP3    H229768   6.664   5.740   6.867
 2737TIP3   OH229769   6.206   0.526   8.056
 2737TIP3    H129770   6.132   0.501   8.000
 2737TIP3    H229771   6.251   0.444   8.075
 2738TIP3   OH229772   4.745   5.906   2.385
 2738TIP3    H129773   4.656   5.940   2.397
 2738TIP3    H229774   4.772   5.938   2.299
 2739TIP3   OH229775   5.764   1.245   7.631
 2739TIP3    H129776   5.800   1.157   7.621
 2739TIP3    H229777   5.817   1.299   7.572
 2740TIP3   OH229778   4.959   1.387   7.268
 2740TIP3    H129779   4.992   1.427   7.187
 2740TIP3    H229780   4.870   1.359   7.246
 2741TIP3   OH229781   1.001   5.301   7.587
 2741TIP3    H129782   0.910   5.278   7.571
 2741TIP3    H229783   0.996   5.377   7.645
 2742TIP3   OH229784   6.632   3.675   8.475
 2742TIP3    H129785   6.549   3.651   8.434
 2742TIP3    H229786   6.655   3.759   8.436
 2743TIP3   OH229787   0.882   2.952   7.168
 2743TIP3    H129788   0.874   2.857   7.154
 2743TIP3    H229789   0.800   2.988   7.135
 2744TIP3   OH229790   2.216   5.733   0.543
 2744TIP3    H129791   2.267   5.695   0.614
 2744TIP3    H229792   2.257   5.818   0.526
 2745TIP3   OH229793   3.881   0.835   1.134
 2745TIP3    H129794   3.867   0.769   1.067
 2745TIP3    H229795   3.965   0.875   1.112
 2746TIP3   OH229796   5.628   4.775   2.039
 2746TIP3    H129797   5.566   4.706   2.013
 2746TIP3    H229798   5.573   4.842   2.078
 2747TIP3   OH229799   4.843   5.361   2.751
 2747TIP3    H129800   4.897   5.366   2.672
 2747TIP3    H229801   4.804   5.273   2.748
 2748TIP3   OH229802   3.855   1.156   7.545
 2748TIP3    H129803   3.887   1.128   7.459
 2748TIP3    H229804   3.914   1.227   7.570
 2749TIP3   OH229805   0.720   2.275   7.424
 2749TIP3    H129806   0.794   2.222   7.394
 2749TIP3    H229807   0.667   2.214   7.476
 2750TIP3   OH229808   1.330   3.645   8.467
 2750TIP3    H129809   1.296   3.696   8.541
 2750TIP3    H229810   1.389   3.581   8.507
 2751TIP3   OH229811   0.575   1.866   8.188
 2751TIP3    H129812   0.561   1.847   8.096
 2751TIP3    H229813   0.499   1.918   8.214
 2752TIP3   OH229814   6.129   1.515   7.304
 2752TIP3    H129815   6.196   1.456   7.338
 2752TIP3    H229816   6.098   1.562   7.382
 2753TIP3   OH229817   6.178   6.620   7.667
 2753TIP3    H129818   6.199   6.573   7.587
 2753TIP3    H229819   6.110   6.567   7.710
 2754TIP3   OH229820   2.141   5.656   1.347
 2754TIP3    H129821   2.135   5.694   1.259
 2754TIP3    H229822   2.235   5.656   1.366
 2755TIP3   OH229823   3.659   6.642   2.245
 2755TIP3    H129824   3.564   6.650   2.245
 2755TIP3    H229825   3.676   6.554   2.211
 2756TIP3   OH229826   5.869   0.498   1.121
 2756TIP3    H129827   5.880   0.434   1.192
 2756TIP3    H229828   5.774   0.502   1.107
 2757TIP3   OH229829   1.335   1.314   6.884
 2757TIP3    H129830   1.351   1.224   6.853
 2757TIP3    H229831   1.244   1.332   6.859
 2758TIP3   OH229832   4.923   3.558   6.876
 2758TIP3    H129833   4.873   3.615   6.817
 2758TIP3    H229834   4.938   3.478   6.825
 2759TIP3   OH229835   6.623   0.590   7.946
 2759TIP3    H129836   6.607   0.639   7.865
 2759TIP3    H229837   6.558   0.520   7.946
 2760TIP3   OH229838   3.790   6.679   7.805
 2760TIP3    H129839   3.810   6.763   7.846
 2760TIP3    H229840   3.775   6.619   7.878
 2761TIP3   OH229841   5.841   4.438   8.099
 2761TIP3    H129842   5.785   4.449   8.176
 2761TIP3    H229843   5.832   4.520   8.051
 2762TIP3   OH229844   2.746   4.511   0.903
 2762TIP3    H129845   2.691   4.567   0.848
 2762TIP3    H229846   2.743   4.553   0.989
 2763TIP3   OH229847   2.018   2.320   1.644
 2763TIP3    H129848   1.949   2.341   1.581
 2763TIP3    H229849   2.047   2.232   1.619
 2764TIP3   OH229850   0.150   5.868   8.328
 2764TIP3    H129851   0.176   5.798   8.387
 2764TIP3    H229852   0.089   5.827   8.267
 2765TIP3   OH229853   3.629   1.328   1.564
 2765TIP3    H129854   3.645   1.419   1.537
 2765TIP3    H229855   3.707   1.281   1.535
 2766TIP3   OH229856   3.162   3.247   8.699
 2766TIP3    H129857   3.098   3.318   8.711
 2766TIP3    H229858   3.110   3.167   8.700
 2767TIP3   OH229859   2.490   1.243   6.706
 2767TIP3    H129860   2.408   1.200   6.681
 2767TIP3    H229861   2.558   1.181   6.682
 2768TIP3   OH229862   3.712   6.020   8.314
 2768TIP3    H129863   3.625   5.985   8.292
 2768TIP3    H229864   3.694   6.089   8.378
 2769TIP3   OH229865   0.057   2.813   0.252
 2769TIP3    H129866   6.825   2.848   0.243
 2769TIP3    H229867   0.094   2.818   0.163
 2770TIP3   OH229868   1.448   5.036   7.783
 2770TIP3    H129869   1.502   5.113   7.765
 2770TIP3    H229870   1.477   5.005   7.869
 2771TIP3   OH229871   5.141   1.740   7.263
 2771TIP3    H129872   5.111   1.649   7.254
 2771TIP3    H229873   5.156   1.751   7.357
 2772TIP3   OH229874   3.027   1.892   7.739
 2772TIP3    H129875   3.010   1.802   7.764
 2772TIP3    H229876   2.942   1.927   7.714
 2773TIP3   OH229877   3.921   5.467   8.232
 2773TIP3    H129878   3.867   5.442   8.307
 2773TIP3    H229879   4.008   5.484   8.270
 2774TIP3   OH229880   2.523   0.367   1.311
 2774TIP3    H129881   2.602   0.327   1.347
 2774TIP3    H229882   2.454   0.345   1.374
 2775TIP3   OH229883   5.917   1.015   8.311
 2775TIP3    H129884   5.908   0.966   8.229
 2775TIP3    H229885   5.986   0.970   8.359
 2776TIP3   OH229886   2.941   2.064   6.790
 2776TIP3    H129887   2.964   2.156   6.800
 2776TIP3    H229888   3.025   2.021   6.772
 2777TIP3   OH229889   3.014   1.746   1.593
 2777TIP3    H129890   2.974   1.689   1.528
 2777TIP3    H229891   3.015   1.695   1.674
 2778TIP3   OH229892   6.475   5.969   6.535
 2778TIP3    H129893   6.565   5.981   6.504
 2778TIP3    H229894   6.436   5.910   6.471
 2779TIP3   OH229895   5.877   0.069   0.585
 2779TIP3    H129896   5.820   0.118   0.645
 2779TIP3    H229897   5.842   0.087   0.498
 2780TIP3   OH229898   3.661   1.543   7.254
 2780TIP3    H129899   3.635   1.454   7.233
 2780TIP3    H229900   3.640   1.594   7.175
 2781TIP3   OH229901   4.571   0.902   0.189
 2781TIP3    H129902   4.599   0.983   0.233
 2781TIP3    H229903   4.481   0.889   0.218
 2782TIP3   OH229904   2.379   2.626   7.426
 2782TIP3    H129905   2.338   2.653   7.344
 2782TIP3    H229906   2.335   2.677   7.494
 2783TIP3   OH229907   3.350   6.699   6.874
 2783TIP3    H129908   3.327   6.773   6.930
 2783TIP3    H229909   3.400   6.640   6.931
 2784TIP3   OH229910   0.352   0.401   1.366
 2784TIP3    H129911   0.390   0.354   1.439
 2784TIP3    H229912   0.261   0.373   1.364
 2785TIP3   OH229913   1.161   4.149   1.408
 2785TIP3    H129914   1.149   4.119   1.498
 2785TIP3    H229915   1.135   4.241   1.410
 2786TIP3   OH229916   6.197   1.354   0.611
 2786TIP3    H129917   6.280   1.401   0.612
 2786TIP3    H229918   6.146   1.394   0.682
 2787TIP3   OH229919   1.817   2.470   8.477
 2787TIP3    H129920   1.844   2.491   8.567
 2787TIP3    H229921   1.898   2.476   8.426
 2788TIP3   OH229922   5.887   6.723   2.349
 2788TIP3    H129923   5.900   6.751   2.258
 2788TIP3    H229924   5.803   6.761   2.374
 2789TIP3   OH229925   5.570   1.419   7.710
 2789TIP3    H129926   5.634   1.358   7.674
 2789TIP3    H229927   5.620   1.498   7.729
 2790TIP3   OH229928   3.269   2.038   0.974
 2790TIP3    H129929   3.359   2.010   0.964
 2790TIP3    H229930   3.217   1.960   0.956
 2791TIP3   OH229931   0.585   0.823   6.979
 2791TIP3    H129932   0.622   0.876   6.908
 2791TIP3    H229933   0.531   0.757   6.935
 2792TIP3   OH229934   6.081   5.421   6.156
 2792TIP3    H129935   6.059   5.497   6.102
 2792TIP3    H229936   6.170   5.438   6.186
 2793TIP3   OH229937   1.997   5.884   2.025
 2793TIP3    H129938   2.004   5.978   2.038
 2793TIP3    H229939   1.906   5.863   2.046
 2794TIP3   OH229940   5.090   3.714   0.893
 2794TIP3    H129941   5.150   3.755   0.955
 2794TIP3    H229942   5.097   3.768   0.814
 2795TIP3   OH229943   0.402   3.890   1.269
 2795TIP3    H129944   0.347   3.845   1.333
 2795TIP3    H229945   0.490   3.855   1.284
 2796TIP3   OH229946   4.515   3.174   6.260
 2796TIP3    H129947   4.533   3.242   6.325
 2796TIP3    H229948   4.591   3.176   6.202
 2797TIP3   OH229949   4.071   4.402   1.538
 2797TIP3    H129950   4.101   4.325   1.489
 2797TIP3    H229951   3.989   4.428   1.496
 2798TIP3   OH229952   1.726   1.554   6.653
 2798TIP3    H129953   1.746   1.506   6.573
 2798TIP3    H229954   1.666   1.496   6.701
 2799TIP3   OH229955   4.853   1.125   8.340
 2799TIP3    H129956   4.787   1.192   8.356
 2799TIP3    H229957   4.805   1.042   8.344
 2800TIP3   OH229958   6.176   6.209   2.418
 2800TIP3    H129959   6.245   6.228   2.482
 2800TIP3    H229960   6.197   6.265   2.343
 2801TIP3   OH229961   5.935   1.292   6.257
 2801TIP3    H129962   5.860   1.256   6.209
 2801TIP3    H229963   5.935   1.385   6.235
 2802TIP3   OH229964   5.564   0.688   7.997
 2802TIP3    H129965   5.567   0.725   8.085
 2802TIP3    H229966   5.574   0.594   8.011
 2803TIP3   OH229967   5.883   2.823   1.014
 2803TIP3    H129968   5.801   2.773   1.012
 2803TIP3    H229969   5.860   2.905   1.059
 2804TIP3   OH229970   5.332   0.088   1.241
 2804TIP3    H129971   5.353   0.140   1.319
 2804TIP3    H229972   5.296   0.007   1.276
 2805TIP3   OH229973   3.637   2.494   0.826
 2805TIP3    H129974   3.554   2.540   0.841
 2805TIP3    H229975   3.622   2.443   0.746
 2806TIP3   OH229976   2.050   4.118   8.052
 2806TIP3    H129977   1.966   4.094   8.091
 2806TIP3    H229978   2.026   4.159   7.969
 2807TIP3   OH229979   4.733   3.660   0.424
 2807TIP3    H129980   4.768   3.713   0.353
 2807TIP3    H229981   4.805   3.653   0.486
 2808TIP3   OH229982   0.077   1.960   8.704
 2808TIP3    H129983   0.084   1.876   0.037
 2808TIP3    H229984   0.114   2.024   0.051
 2809TIP3   OH229985   1.690   5.525   6.723
 2809TIP3    H129986   1.734   5.440   6.722
 2809TIP3    H229987   1.624   5.517   6.792
 2810TIP3   OH229988   5.521   0.183   1.713
 2810TIP3    H129989   5.584   0.220   1.774
 2810TIP3    H229990   5.560   0.102   1.683
 2811TIP3   OH229991   4.471   4.765   1.471
 2811TIP3    H129992   4.481   4.824   1.546
 2811TIP3    H229993   4.433   4.820   1.402
 2812TIP3   OH229994   5.286   0.549   6.742
 2812TIP3    H129995   5.271   0.584   6.654
 2812TIP3    H229996   5.281   0.625   6.800
 2813TIP3   OH229997   0.832   6.032   0.060
 2813TIP3    H129998   0.845   5.942   0.089
 2813TIP3    H229999   0.762   6.026   8.709
 2814TIP3   OH230000   1.357   5.787   7.632
 2814TIP3    H130001   1.288   5.754   7.690
 2814TIP3    H230002   1.328   5.763   7.544
 2815TIP3   OH230003   3.169   4.605   1.132
 2815TIP3    H130004   3.130   4.602   1.220
 2815TIP3    H230005   3.126   4.679   1.089
 2816TIP3   OH230006   6.839   3.631   0.867
 2816TIP3    H130007   6.844   3.682   0.948
 2816TIP3    H230008   0.063   3.654   0.820
 2817TIP3   OH230009   1.643   3.568   1.373
 2817TIP3    H130010   1.637   3.473   1.374
 2817TIP3    H230011   1.579   3.597   1.439
 2818TIP3   OH230012   1.291   2.225   5.999
 2818TIP3    H130013   1.218   2.232   6.060
 2818TIP3    H230014   1.283   2.136   5.963
 2819TIP3   OH230015   2.342   2.129   7.081
 2819TIP3    H130016   2.365   2.041   7.053
 2819TIP3    H230017   2.262   2.150   7.033
 2820TIP3   OH230018   6.072   0.692   1.065
 2820TIP3    H130019   6.002   0.646   1.111
 2820TIP3    H230020   6.102   0.759   1.126
 2821TIP3   OH230021   4.966   4.208   1.530
 2821TIP3    H130022   4.926   4.263   1.597
 2821TIP3    H230023   5.042   4.259   1.501
 2822TIP3   OH230024   6.787   6.198   0.112
 2822TIP3    H130025   6.820   6.218   0.024
 2822TIP3    H230026   6.856   6.145   0.152
 2823TIP3   OH230027   0.908   5.526   7.746
 2823TIP3    H130028   0.905   5.509   7.841
 2823TIP3    H230029   0.832   5.582   7.729
 2824TIP3   OH230030   2.098   6.235   0.048
 2824TIP3    H130031   2.027   6.293   0.075
 2824TIP3    H230032   2.054   6.156   0.016
 2825TIP3   OH230033   3.663   4.302   0.762
 2825TIP3    H130034   3.583   4.350   0.785
 2825TIP3    H230035   3.638   4.250   0.686
 2826TIP3   OH230036   4.187   2.172   1.944
 2826TIP3    H130037   4.181   2.243   1.881
 2826TIP3    H230038   4.113   2.186   2.003
 2827TIP3   OH230039   5.504   0.524   1.570
 2827TIP3    H130040   5.555   0.487   1.642
 2827TIP3    H230041   5.480   0.612   1.600
 2828TIP3   OH230042   3.464   4.675   1.426
 2828TIP3    H130043   3.473   4.592   1.381
 2828TIP3    H230044   3.546   4.722   1.407
 2829TIP3   OH230045   6.817   2.956   8.095
 2829TIP3    H130046   6.797   2.936   8.186
 2829TIP3    H230047   0.053   2.934   8.086
 2830TIP3   OH230048   4.189   1.420   2.208
 2830TIP3    H130049   4.274   1.404   2.167
 2830TIP3    H230050   4.208   1.419   2.302
 2831TIP3   OH230051   5.734   1.667   1.751
 2831TIP3    H130052   5.806   1.629   1.700
 2831TIP3    H230053   5.765   1.754   1.776
 2832TIP3   OH230054   4.002   4.465   8.156
 2832TIP3    H130055   4.029   4.531   8.092
 2832TIP3    H230056   3.976   4.515   8.233
 2833TIP3   OH230057   5.069   3.466   1.550
 2833TIP3    H130058   5.025   3.417   1.619
 2833TIP3    H230059   5.014   3.543   1.535
 2834TIP3   OH230060   3.291   3.847   8.539
 2834TIP3    H130061   3.387   3.846   8.544
 2834TIP3    H230062   3.272   3.822   8.448
 2835TIP3   OH230063   1.020   3.406   2.188
 2835TIP3    H130064   1.075   3.479   2.158
 2835TIP3    H230065   1.002   3.356   2.108
 2836TIP3   OH230066   2.343   4.508   6.237
 2836TIP3    H130067   2.319   4.439   6.176
 2836TIP3    H230068   2.438   4.515   6.230
 2837TIP3   OH230069   5.644   1.365   0.759
 2837TIP3    H130070   5.671   1.412   0.838
 2837TIP3    H230071   5.657   1.428   0.688
 2838TIP3   OH230072   6.825   3.500   1.552
 2838TIP3    H130073   6.846   3.441   1.624
 2838TIP3    H230074   6.749   3.461   1.509
 2839TIP3   OH230075   1.064   3.928   7.026
 2839TIP3    H130076   1.134   3.992   7.036
 2839TIP3    H230077   1.004   3.947   7.099
 2840TIP3   OH230078   2.498   3.936   7.147
 2840TIP3    H130079   2.489   4.017   7.097
 2840TIP3    H230080   2.578   3.895   7.112
 2841TIP3   OH230081   4.279   0.081   0.591
 2841TIP3    H130082   4.353   0.113   0.641
 2841TIP3    H230083   4.310   0.079   0.500
 2842TIP3   OH230084   6.073   4.720   0.879
 2842TIP3    H130085   6.093   4.809   0.853
 2842TIP3    H230086   6.117   4.665   0.814
 2843TIP3   OH230087   3.102   1.049   6.375
 2843TIP3    H130088   3.102   1.110   6.449
 2843TIP3    H230089   3.149   0.972   6.407
 2844TIP3   OH230090   4.829   0.419   1.196
 2844TIP3    H130091   4.914   0.378   1.180
 2844TIP3    H230092   4.830   0.442   1.289
 2845TIP3   OH230093   2.237   0.566   0.896
 2845TIP3    H130094   2.172   0.579   0.827
 2845TIP3    H230095   2.321   0.574   0.851
 2846TIP3   OH230096   4.860   5.156   8.029
 2846TIP3    H130097   4.826   5.067   8.026
 2846TIP3    H230098   4.828   5.197   7.948
 2847TIP3   OH230099   0.900   4.733   6.519
 2847TIP3    H130100   0.987   4.753   6.484
 2847TIP3    H230101   0.862   4.818   6.539
 2848TIP3   OH230102   0.859   3.395   1.053
 2848TIP3    H130103   0.791   3.415   0.989
 2848TIP3    H230104   0.848   3.302   1.071
 2849TIP3   OH230105   4.212   2.505   8.162
 2849TIP3    H130106   4.209   2.425   8.213
 2849TIP3    H230107   4.285   2.554   8.198
 2850TIP3   OH230108   2.093   0.382   7.306
 2850TIP3    H130109   2.109   0.288   7.315
 2850TIP3    H230110   2.152   0.422   7.370
 2851TIP3   OH230111   0.989   1.120   7.885
 2851TIP3    H130112   1.058   1.119   7.951
 2851TIP3    H230113   1.031   1.156   7.806
 2852TIP3   OH230114   2.457   0.067   8.058
 2852TIP3    H130115   2.456   6.831   8.036
 2852TIP3    H230116   2.482   0.111   7.977
 2853TIP3   OH230117   4.072   0.643   7.442
 2853TIP3    H130118   4.166   0.654   7.432
 2853TIP3    H230119   4.038   0.731   7.451
 2854TIP3   OH230120   4.565   0.119   8.296
 2854TIP3    H130121   4.474   0.092   8.282
 2854TIP3    H230122   4.612   0.036   8.310
 2855TIP3   OH230123   2.794   1.500   1.573
 2855TIP3    H130124   2.792   1.572   1.637
 2855TIP3    H230125   2.779   1.421   1.625
 2856TIP3   OH230126   5.700   5.012   0.677
 2856TIP3    H130127   5.770   4.964   0.632
 2856TIP3    H230128   5.633   4.947   0.695
 2857TIP3   OH230129   4.077   0.419   8.492
 2857TIP3    H130130   4.030   0.456   8.566
 2857TIP3    H230131   4.087   0.492   8.431
 2858TIP3   OH230132   5.441   3.054   1.324
 2858TIP3    H130133   5.471   2.966   1.305
 2858TIP3    H230134   5.349   3.055   1.296
 2859TIP3   OH230135   2.437   1.520   8.100
 2859TIP3    H130136   2.503   1.451   8.100
 2859TIP3    H230137   2.450   1.566   8.017
 2860TIP3   OH230138   4.266   1.590   0.086
 2860TIP3    H130139   4.316   1.509   0.090
 2860TIP3    H230140   4.330   1.659   0.101
 2861TIP3   OH230141   1.507   4.412   0.929
 2861TIP3    H130142   1.517   4.319   0.950
 2861TIP3    H230143   1.449   4.413   0.853
 2862TIP3   OH230144   0.686   0.705   0.679
 2862TIP3    H130145   0.759   0.652   0.712
 2862TIP3    H230146   0.611   0.677   0.732
 2863TIP3   OH230147   2.278   2.640   7.725
 2863TIP3    H130148   2.374   2.636   7.732
 2863TIP3    H230149   2.247   2.591   7.801
 2864TIP3   OH230150   3.004   5.148   6.866
 2864TIP3    H130151   3.087   5.109   6.893
 2864TIP3    H230152   3.021   5.242   6.862
 2865TIP3   OH230153   4.342   0.795   7.891
 2865TIP3    H130154   4.335   0.823   7.982
 2865TIP3    H230155   4.262   0.827   7.850
 2866TIP3   OH230156   3.746   3.139   0.060
 2866TIP3    H130157   3.701   3.091   8.704
 2866TIP3    H230158   3.839   3.137   0.035
 2867TIP3   OH230159   2.253   2.842   7.529
 2867TIP3    H130160   2.207   2.794   7.597
 2867TIP3    H230161   2.191   2.846   7.456
 2868TIP3   OH230162   2.289   3.273   0.741
 2868TIP3    H130163   2.278   3.178   0.749
 2868TIP3    H230164   2.351   3.295   0.810
 2869TIP3   OH230165   5.596   1.346   1.755
 2869TIP3    H130166   5.520   1.367   1.811
 2869TIP3    H230167   5.582   1.255   1.729
 2870TIP3   OH230168   6.674   4.401   1.477
 2870TIP3    H130169   6.695   4.434   1.390
 2870TIP3    H230170   6.735   4.448   1.535
 2871TIP3   OH230171   2.274   5.332   0.838
 2871TIP3    H130172   2.352   5.280   0.858
 2871TIP3    H230173   2.228   5.341   0.921
 2872TIP3   OH230174   4.199   0.126   7.621
 2872TIP3    H130175   4.144   0.054   7.590
 2872TIP3    H230176   4.288   0.100   7.598
 2873TIP3   OH230177   0.349   0.442   2.218
 2873TIP3    H130178   0.425   0.391   2.189
 2873TIP3    H230179   0.353   0.439   2.313
 2874TIP3   OH230180   1.359   6.665   0.295
 2874TIP3    H130181   1.386   6.627   0.379
 2874TIP3    H230182   1.386   6.756   0.300
 2875TIP3   OH230183   3.103   4.528   0.041
 2875TIP3    H130184   3.172   4.485   0.093
 2875TIP3    H230185   3.022   4.484   0.068
 2876TIP3   OH230186   3.939   3.327   8.221
 2876TIP3    H130187   3.921   3.318   8.315
 2876TIP3    H230188   4.034   3.337   8.216
 2877TIP3   OH230189   5.439   3.206   0.894
 2877TIP3    H130190   5.478   3.184   0.809
 2877TIP3    H230191   5.445   3.302   0.899
 2878TIP3   OH230192   3.580   5.734   8.519
 2878TIP3    H130193   3.588   5.794   8.593
 2878TIP3    H230194   3.671   5.712   8.496
 2879TIP3   OH230195   1.821   4.052   6.870
 2879TIP3    H130196   1.766   4.127   6.895
 2879TIP3    H230197   1.911   4.083   6.881
 2880TIP3   OH230198   0.708   2.619   7.876
 2880TIP3    H130199   0.728   2.622   7.783
 2880TIP3    H230200   0.770   2.680   7.916
 2881TIP3   OH230201   2.808   4.099   0.568
 2881TIP3    H130202   2.879   4.161   0.582
 2881TIP3    H230203   2.787   4.107   0.475
 2882TIP3   OH230204   1.196   0.653   7.573
 2882TIP3    H130205   1.251   0.579   7.549
 2882TIP3    H230206   1.237   0.728   7.532
 2883TIP3   OH230207   5.290   3.697   1.930
 2883TIP3    H130208   5.328   3.659   2.009
 2883TIP3    H230209   5.300   3.791   1.942
 2884TIP3   OH230210   6.829   1.979   6.155
 2884TIP3    H130211   6.759   2.025   6.202
 2884TIP3    H230212   6.835   2.023   6.071
 2885TIP3   OH230213   1.648   3.756   7.848
 2885TIP3    H130214   1.628   3.786   7.937
 2885TIP3    H230215   1.573   3.702   7.824
 2886TIP3   OH230216   5.624   2.224   8.028
 2886TIP3    H130217   5.613   2.130   8.014
 2886TIP3    H230218   5.539   2.254   8.058
 2887TIP3   OH230219   1.164   0.893   6.569
 2887TIP3    H130220   1.165   0.811   6.520
 2887TIP3    H230221   1.121   0.956   6.511
 2888TIP3   OH230222   3.404   5.856   8.302
 2888TIP3    H130223   3.451   5.839   8.384
 2888TIP3    H230224   3.319   5.891   8.331
 2889TIP3   OH230225   5.412   6.758   0.487
 2889TIP3    H130226   5.453   6.689   0.538
 2889TIP3    H230227   5.452   6.751   0.400
 2890TIP3   OH230228   2.747   5.191   2.309
 2890TIP3    H130229   2.656   5.162   2.295
 2890TIP3    H230230   2.795   5.109   2.322
 2891TIP3   OH230231   0.894   5.191   1.848
 2891TIP3    H130232   0.917   5.262   1.909
 2891TIP3    H230233   0.849   5.127   1.902
 2892TIP3   OH230234   1.422   6.034   6.989
 2892TIP3    H130235   1.466   6.097   7.046
 2892TIP3    H230236   1.329   6.048   7.005
 2893TIP3   OH230237   5.816   6.052   7.578
 2893TIP3    H130238   5.721   6.050   7.583
 2893TIP3    H230239   5.840   5.973   7.530
 2894TIP3   OH230240   5.172   2.015   0.695
 2894TIP3    H130241   5.256   1.976   0.670
 2894TIP3    H230242   5.196   2.089   0.750
 2895TIP3   OH230243   6.446   3.249   7.915
 2895TIP3    H130244   6.368   3.226   7.966
 2895TIP3    H230245   6.422   3.230   7.824
 2896TIP3   OH230246   1.537   6.009   7.847
 2896TIP3    H130247   1.527   5.971   7.934
 2896TIP3    H230248   1.497   5.944   7.788
 2897TIP3   OH230249   5.059   5.145   1.093
 2897TIP3    H130250   5.110   5.198   1.033
 2897TIP3    H230251   4.975   5.132   1.049
 2898TIP3   OH230252   5.382   6.538   6.444
 2898TIP3    H130253   5.396   6.448   6.413
 2898TIP3    H230254   5.451   6.589   6.402
 2899TIP3   OH230255   4.207   1.367   6.960
 2899TIP3    H130256   4.232   1.378   6.868
 2899TIP3    H230257   4.148   1.292   6.961
 2900TIP3   OH230258   4.561   0.537   1.615
 2900TIP3    H130259   4.468   0.515   1.625
 2900TIP3    H230260   4.601   0.508   1.697
 2901TIP3   OH230261   4.618   2.369   8.569
 2901TIP3    H130262   4.621   2.442   8.632
 2901TIP3    H230263   4.540   2.386   8.516
 2902TIP3   OH230264   3.735   3.148   7.821
 2902TIP3    H130265   3.691   3.188   7.895
 2902TIP3    H230266   3.687   3.066   7.806
 2903TIP3   OH230267   2.838   4.804   2.086
 2903TIP3    H130268   2.784   4.725   2.091
 2903TIP3    H230269   2.824   4.848   2.170
 2904TIP3   OH230270   1.796   4.000   2.227
 2904TIP3    H130271   1.774   4.038   2.312
 2904TIP3    H230272   1.891   4.009   2.220
 2905TIP3   OH230273   0.811   6.607   6.864
 2905TIP3    H130274   0.759   6.685   6.842
 2905TIP3    H230275   0.877   6.639   6.925
 2906TIP3   OH230276   5.870   2.365   7.966
 2906TIP3    H130277   5.835   2.453   7.951
 2906TIP3    H230278   5.792   2.309   7.969
 2907TIP3   OH230279   0.185   4.416   7.428
 2907TIP3    H130280   0.143   4.349   7.482
 2907TIP3    H230281   0.269   4.378   7.403
 2908TIP3   OH230282   5.547   0.418   7.948
 2908TIP3    H130283   5.501   0.345   7.988
 2908TIP3    H230284   5.504   0.431   7.864
 2909TIP3   OH230285   1.074   2.182   6.206
 2909TIP3    H130286   1.031   2.268   6.211
 2909TIP3    H230287   1.004   2.119   6.220
 2910TIP3   OH230288   0.270   3.032   7.320
 2910TIP3    H130289   0.282   3.124   7.296
 2910TIP3    H230290   0.329   3.019   7.395
 2911TIP3   OH230291   1.617   0.718   1.553
 2911TIP3    H130292   1.629   0.632   1.595
 2911TIP3    H230293   1.603   0.778   1.626
 2912TIP3   OH230294   1.324   3.229   1.160
 2912TIP3    H130295   1.357   3.249   1.248
 2912TIP3    H230296   1.400   3.241   1.103
 2913TIP3   OH230297   1.669   6.317   2.494
 2913TIP3    H130298   1.758   6.286   2.473
 2913TIP3    H230299   1.678   6.359   2.579
 2914TIP3   OH230300   1.965   0.996   1.699
 2914TIP3    H130301   2.012   1.069   1.741
 2914TIP3    H230302   1.920   0.952   1.770
 2915TIP3   OH230303   4.371   0.632   7.103
 2915TIP3    H130304   4.467   0.642   7.103
 2915TIP3    H230305   4.347   0.637   7.195
 2916TIP3   OH230306   3.554   4.957   7.705
 2916TIP3    H130307   3.466   4.930   7.729
 2916TIP3    H230308   3.542   5.037   7.655
 2917TIP3   OH230309   4.849   4.213   0.554
 2917TIP3    H130310   4.837   4.269   0.631
 2917TIP3    H230311   4.828   4.125   0.585
 2918TIP3   OH230312   2.017   1.004   7.786
 2918TIP3    H130313   2.052   1.084   7.826
 2918TIP3    H230314   2.087   0.939   7.798
 2919TIP3   OH230315   3.577   3.940   8.064
 2919TIP3    H130316   3.663   3.952   8.022
 2919TIP3    H230317   3.541   4.028   8.071
 2920TIP3   OH230318   4.196   0.093   7.278
 2920TIP3    H130319   4.219   0.004   7.253
 2920TIP3    H230320   4.224   0.101   7.370
 2921TIP3   OH230321   6.111   5.049   8.374
 2921TIP3    H130322   6.179   5.072   8.438
 2921TIP3    H230323   6.062   5.131   8.363
 2922TIP3   OH230324   3.902   6.202   0.264
 2922TIP3    H130325   3.901   6.218   0.358
 2922TIP3    H230326   3.971   6.136   0.251
 2923TIP3   OH230327   0.190   3.969   8.402
 2923TIP3    H130328   0.138   4.016   8.466
 2923TIP3    H230329   0.209   3.885   8.444
 2924TIP3   OH230330   5.615   6.248   0.291
 2924TIP3    H130331   5.606   6.163   0.333
 2924TIP3    H230332   5.660   6.302   0.356
 2925TIP3   OH230333   3.234   3.768   1.462
 2925TIP3    H130334   3.245   3.856   1.500
 2925TIP3    H230335   3.139   3.754   1.460
 2926TIP3   OH230336   1.664   4.259   6.964
 2926TIP3    H130337   1.578   4.284   6.932
 2926TIP3    H230338   1.722   4.331   6.938
 2927TIP3   OH230339   6.621   0.798   0.626
 2927TIP3    H130340   6.713   0.820   0.614
 2927TIP3    H230341   6.576   0.844   0.555
 2928TIP3   OH230342   3.785   5.582   0.766
 2928TIP3    H130343   3.719   5.515   0.782
 2928TIP3    H230344   3.736   5.665   0.766
 2929TIP3   OH230345   6.647   5.104   1.708
 2929TIP3    H130346   6.701   5.054   1.646
 2929TIP3    H230347   6.690   5.093   1.792
 2930TIP3   OH230348   4.692   1.659   8.148
 2930TIP3    H130349   4.670   1.663   8.055
 2930TIP3    H230350   4.743   1.578   8.157
 2931TIP3   OH230351   0.106   2.313   2.213
 2931TIP3    H130352   0.179   2.371   2.194
 2931TIP3    H230353   0.146   2.226   2.224
 2932TIP3   OH230354   5.920   2.616   2.224
 2932TIP3    H130355   5.953   2.647   2.309
 2932TIP3    H230356   5.996   2.621   2.166
 2933TIP3   OH230357   1.267   0.382   8.193
 2933TIP3    H130358   1.245   0.367   8.101
 2933TIP3    H230359   1.183   0.376   8.239
 2934TIP3   OH230360   1.116   1.877   8.363
 2934TIP3    H130361   1.148   1.793   8.329
 2934TIP3    H230362   1.105   1.931   8.286
 2935TIP3   OH230363   2.379   2.209   1.997
 2935TIP3    H130364   2.408   2.269   2.065
 2935TIP3    H230365   2.327   2.263   1.937
 2936TIP3   OH230366   5.340   5.411   6.825
 2936TIP3    H130367   5.294   5.345   6.773
 2936TIP3    H230368   5.369   5.476   6.760
 2937TIP3   OH230369   2.250   1.635   1.070
 2937TIP3    H130370   2.205   1.689   1.135
 2937TIP3    H230371   2.315   1.586   1.120
 2938TIP3   OH230372   4.784   0.809   0.463
 2938TIP3    H130373   4.759   0.780   0.375
 2938TIP3    H230374   4.852   0.748   0.490
 2939TIP3   OH230375   6.198   0.203   7.182
 2939TIP3    H130376   6.220   0.226   7.092
 2939TIP3    H230377   6.130   0.265   7.208
 2940TIP3   OH230378   1.330   3.288   1.519
 2940TIP3    H130379   1.259   3.334   1.475
 2940TIP3    H230380   1.319   3.309   1.612
 2941TIP3   OH230381   6.522   2.192   1.530
 2941TIP3    H130382   6.482   2.171   1.615
 2941TIP3    H230383   6.538   2.106   1.490
 2942TIP3   OH230384   5.509   4.186   7.715
 2942TIP3    H130385   5.598   4.170   7.747
 2942TIP3    H230386   5.520   4.244   7.640
 2943TIP3   OH230387   3.635   6.230   7.803
 2943TIP3    H130388   3.659   6.176   7.879
 2943TIP3    H230389   3.700   6.208   7.736
 2944TIP3   OH230390   2.075   2.068   1.704
 2944TIP3    H130391   2.051   2.015   1.780
 2944TIP3    H230392   2.031   2.026   1.630
 2945TIP3   OH230393   2.361   1.845   7.502
 2945TIP3    H130394   2.437   1.824   7.556
 2945TIP3    H230395   2.336   1.762   7.462
 2946TIP3   OH230396   4.995   4.249   0.150
 2946TIP3    H130397   4.905   4.265   0.179
 2946TIP3    H230398   5.041   4.331   0.167
 2947TIP3   OH230399   3.927   5.589   0.449
 2947TIP3    H130400   4.001   5.582   0.510
 2947TIP3    H230401   3.921   5.682   0.429
 2948TIP3   OH230402   5.228   5.873   1.128
 2948TIP3    H130403   5.164   5.803   1.142
 2948TIP3    H230404   5.301   5.852   1.186
 2949TIP3   OH230405   5.072   1.462   8.568
 2949TIP3    H130406   5.133   1.397   8.603
 2949TIP3    H230407   5.091   1.542   8.617
 2950TIP3   OH230408   2.603   5.888   0.747
 2950TIP3    H130409   2.586   5.814   0.805
 2950TIP3    H230410   2.637   5.847   0.667
 2951TIP3   OH230411   2.479   1.812   1.016
 2951TIP3    H130412   2.500   1.814   0.923
 2951TIP3    H230413   2.412   1.745   1.026
 2952TIP3   OH230414   5.719   6.353   2.757
 2952TIP3    H130415   5.662   6.403   2.699
 2952TIP3    H230416   5.791   6.325   2.701
 2953TIP3   OH230417   0.995   5.782   7.543
 2953TIP3    H130418   1.052   5.705   7.545
 2953TIP3    H230419   1.010   5.820   7.457
 2954TIP3   OH230420   2.476   3.053   0.313
 2954TIP3    H130421   2.430   2.976   0.346
 2954TIP3    H230422   2.449   3.124   0.371
 2955TIP3   OH230423   4.932   5.970   7.104
 2955TIP3    H130424   4.873   5.929   7.040
 2955TIP3    H230425   4.907   6.062   7.105
 2956TIP3   OH230426   5.279   1.125   1.862
 2956TIP3    H130427   5.273   1.083   1.947
 2956TIP3    H230428   5.301   1.216   1.881
 2957TIP3   OH230429   0.846   5.837   0.791
 2957TIP3    H130430   0.757   5.805   0.802
 2957TIP3    H230431   0.837   5.932   0.788
 2958TIP3   OH230432   0.896   5.592   2.100
 2958TIP3    H130433   0.925   5.502   2.083
 2958TIP3    H230434   0.847   5.617   2.022
 2959TIP3   OH230435   4.454   2.974   8.467
 2959TIP3    H130436   4.516   2.903   8.485
 2959TIP3    H230437   4.371   2.941   8.500
 2960TIP3   OH230438   0.745   4.748   6.863
 2960TIP3    H130439   0.782   4.667   6.829
 2960TIP3    H230440   0.677   4.772   6.800
 2961TIP3   OH230441   2.571   6.229   6.864
 2961TIP3    H130442   2.481   6.242   6.834
 2961TIP3    H230443   2.599   6.149   6.821
 2962TIP3   OH230444   6.305   1.440   0.911
 2962TIP3    H130445   6.290   1.518   0.857
 2962TIP3    H230446   6.396   1.447   0.939
 2963TIP3   OH230447   3.865   2.454   7.375
 2963TIP3    H130448   3.837   2.476   7.286
 2963TIP3    H230449   3.869   2.538   7.420
 2964TIP3   OH230450   1.849   2.627   7.588
 2964TIP3    H130451   1.893   2.617   7.672
 2964TIP3    H230452   1.801   2.545   7.575
 2965TIP3   OH230453   0.369   3.393   0.523
 2965TIP3    H130454   0.394   3.302   0.540
 2965TIP3    H230455   0.313   3.388   0.446
 2966TIP3   OH230456   5.141   5.622   6.717
 2966TIP3    H130457   5.222   5.595   6.674
 2966TIP3    H230458   5.121   5.550   6.777
 2967TIP3   OH230459   1.383   4.312   0.402
 2967TIP3    H130460   1.289   4.305   0.389
 2967TIP3    H230461   1.416   4.351   0.321
 2968TIP3   OH230462   3.674   3.332   1.173
 2968TIP3    H130463   3.635   3.411   1.211
 2968TIP3    H230464   3.768   3.341   1.191
 2969TIP3   OH230465   0.626   0.231   1.165
 2969TIP3    H130466   0.678   0.268   1.237
 2969TIP3    H230467   0.670   0.262   1.086
 2970TIP3   OH230468   6.852   2.227   8.226
 2970TIP3    H130469   6.814   2.141   8.243
 2970TIP3    H230470   0.043   2.249   8.306
 2971TIP3   OH230471   2.318   4.625   7.184
 2971TIP3    H130472   2.316   4.602   7.277
 2971TIP3    H230473   2.400   4.673   7.173
 2972TIP3   OH230474   0.493   2.518   1.777
 2972TIP3    H130475   0.498   2.610   1.751
 2972TIP3    H230476   0.513   2.518   1.870
 2973TIP3   OH230477   2.376   3.672   6.418
 2973TIP3    H130478   2.314   3.614   6.462
 2973TIP3    H230479   2.323   3.746   6.390
 2974TIP3   OH230480   2.972   3.628   0.955
 2974TIP3    H130481   2.941   3.539   0.942
 2974TIP3    H230482   3.067   3.621   0.954
 2975TIP3   OH230483   6.305   4.693   8.045
 2975TIP3    H130484   6.300   4.760   7.977
 2975TIP3    H230485   6.320   4.611   7.996
 2976TIP3   OH230486   0.811   1.067   8.655
 2976TIP3    H130487   0.891   1.016   8.640
 2976TIP3    H230488   0.839   1.141   8.709
 2977TIP3   OH230489   0.349   3.032   1.031
 2977TIP3    H130490   0.360   3.053   1.124
 2977TIP3    H230491   0.404   3.096   0.985
 2978TIP3   OH230492   5.764   2.682   6.215
 2978TIP3    H130493   5.774   2.600   6.166
 2978TIP3    H230494   5.838   2.736   6.186
 2979TIP3   OH230495   2.965   0.142   0.886
 2979TIP3    H130496   3.038   0.118   0.944
 2979TIP3    H230497   2.921   0.214   0.931
 2980TIP3   OH230498   6.701   3.035   6.919
 2980TIP3    H130499   6.736   3.051   6.831
 2980TIP3    H230500   6.611   3.007   6.904
 2981TIP3   OH230501   4.709   4.648   7.926
 2981TIP3    H130502   4.677   4.568   7.883
 2981TIP3    H230503   4.732   4.619   8.014
 2982TIP3   OH230504   0.656   6.401   8.626
 2982TIP3    H130505   0.721   6.333   8.608
 2982TIP3    H230506   0.637   6.439   8.540
 2983TIP3   OH230507   0.470   1.495   7.153
 2983TIP3    H130508   0.512   1.578   7.130
 2983TIP3    H230509   0.382   1.502   7.117
 2984TIP3   OH230510   1.198   6.698   6.936
 2984TIP3    H130511   1.287   6.716   6.906
 2984TIP3    H230512   1.183   6.763   7.004
 2985TIP3   OH230513   4.138   0.257   0.136
 2985TIP3    H130514   4.221   0.301   0.119
 2985TIP3    H230515   4.127   0.263   0.231
 2986TIP3   OH230516   5.550   0.817   1.941
 2986TIP3    H130517   5.589   0.764   2.010
 2986TIP3    H230518   5.581   0.906   1.957
 2987TIP3   OH230519   5.886   1.474   2.084
 2987TIP3    H130520   5.902   1.468   2.178
 2987TIP3    H230521   5.795   1.504   2.077
 2988TIP3   OH230522   3.233   1.024   1.631
 2988TIP3    H130523   3.147   1.067   1.629
 2988TIP3    H230524   3.288   1.083   1.682
 2989TIP3   OH230525   4.922   4.924   7.629
 2989TIP3    H130526   4.956   4.862   7.564
 2989TIP3    H230527   4.904   4.870   7.706
 2990TIP3   OH230528   0.628   3.144   0.158
 2990TIP3    H130529   0.696   3.138   0.226
 2990TIP3    H230530   0.593   3.233   0.168
 2991TIP3   OH230531   5.799   1.903   7.673
 2991TIP3    H130532   5.833   1.972   7.730
 2991TIP3    H230533   5.787   1.828   7.732
 2992TIP3   OH230534   6.303   5.042   1.423
 2992TIP3    H130535   6.344   5.038   1.509
 2992TIP3    H230536   6.246   5.118   1.426
 2993TIP3   OH230537   0.371   6.425   0.027
 2993TIP3    H130538   0.355   6.502   0.081
 2993TIP3    H230539   0.466   6.416   0.026
 2994TIP3   OH230540   5.508   4.301   0.295
 2994TIP3    H130541   5.413   4.314   0.302
 2994TIP3    H230542   5.542   4.386   0.266
 2995TIP3   OH230543   1.263   5.790   8.071
 2995TIP3    H130544   1.238   5.828   8.155
 2995TIP3    H230545   1.356   5.810   8.062
 2996TIP3   OH230546   6.429   1.122   7.271
 2996TIP3    H130547   6.344   1.126   7.313
 2996TIP3    H230548   6.427   1.192   7.204
 2997TIP3   OH230549   2.904   4.803   0.797
 2997TIP3    H130550   2.918   4.841   0.710
 2997TIP3    H230551   2.809   4.789   0.802
 2998TIP3   OH230552   3.417   6.757   6.051
 2998TIP3    H130553   3.358   6.699   6.003
 2998TIP3    H230554   3.464   6.699   6.111
 2999TIP3   OH230555   2.783   1.300   0.441
 2999TIP3    H130556   2.729   1.326   0.515
 2999TIP3    H230557   2.789   1.205   0.446
 3000TIP3   OH230558   3.454   3.380   7.825
 3000TIP3    H130559   3.501   3.463   7.834
 3000TIP3    H230560   3.387   3.383   7.894
 3001TIP3   OH230561   1.479   6.022   8.562
 3001TIP3    H130562   1.435   5.985   8.486
 3001TIP3    H230563   1.497   5.946   8.619
 3002TIP3   OH230564   2.515   1.273   7.429
 3002TIP3    H130565   2.567   1.338   7.382
 3002TIP3    H230566   2.553   1.272   7.517
 3003TIP3   OH230567   5.661   4.560   7.337
 3003TIP3    H130568   5.659   4.655   7.347
 3003TIP3    H230569   5.723   4.545   7.265
 3004TIP3   OH230570   5.134   2.653   8.450
 3004TIP3    H130571   5.144   2.746   8.431
 3004TIP3    H230572   5.203   2.633   8.514
 3005TIP3   OH230573   1.667   1.837   1.535
 3005TIP3    H130574   1.651   1.880   1.619
 3005TIP3    H230575   1.726   1.896   1.488
 3006TIP3   OH230576   6.166   0.991   1.668
 3006TIP3    H130577   6.169   1.022   1.758
 3006TIP3    H230578   6.105   1.050   1.624
 3007TIP3   OH230579   1.673   1.065   1.649
 3007TIP3    H130580   1.627   1.001   1.703
 3007TIP3    H230581   1.730   1.112   1.710
 3008TIP3   OH230582   3.316   4.531   1.635
 3008TIP3    H130583   3.251   4.602   1.634
 3008TIP3    H230584   3.381   4.557   1.570
 3009TIP3   OH230585   6.160   4.765   1.453
 3009TIP3    H130586   6.160   4.856   1.422
 3009TIP3    H230587   6.085   4.725   1.410
 3010TIP3   OH230588   5.123   2.138   1.649
 3010TIP3    H130589   5.029   2.127   1.635
 3010TIP3    H230590   5.132   2.225   1.688
 3011TIP3   OH230591   4.782   4.739   0.539
 3011TIP3    H130592   4.718   4.725   0.468
 3011TIP3    H230593   4.741   4.805   0.595
 3012TIP3   OH230594   2.225   4.252   1.187
 3012TIP3    H130595   2.312   4.225   1.157
 3012TIP3    H230596   2.234   4.346   1.204
 3013TIP3   OH230597   4.901   6.740   1.202
 3013TIP3    H130598   4.827   6.764   1.147
 3013TIP3    H230599   4.931   6.823   1.240
 3014TIP3   OH230600   4.062   5.820   2.427
 3014TIP3    H130601   4.134   5.760   2.443
 3014TIP3    H230602   4.094   5.879   2.359
 3015TIP3   OH230603   2.268   4.923   7.971
 3015TIP3    H130604   2.322   4.885   8.040
 3015TIP3    H230605   2.270   5.017   7.988
 3016TIP3   OH230606   3.344   0.831   0.124
 3016TIP3    H130607   3.420   0.882   0.151
 3016TIP3    H230608   3.370   0.792   0.040
 3017TIP3   OH230609   2.963   0.188   7.212
 3017TIP3    H130610   2.964   0.194   7.307
 3017TIP3    H230611   3.020   0.259   7.183
 3018TIP3   OH230612   1.048   3.740   8.157
 3018TIP3    H130613   1.078   3.682   8.086
 3018TIP3    H230614   1.029   3.681   8.230
 3019TIP3   OH230615   4.040   6.108   8.134
 3019TIP3    H130616   4.115   6.081   8.081
 3019TIP3    H230617   4.023   6.034   8.192
 3020TIP3   OH230618   0.053   0.668   7.440
 3020TIP3    H130619   0.125   0.660   7.503
 3020TIP3    H230620   0.000   0.590   7.454
 3021TIP3   OH230621   3.585   1.852   0.267
 3021TIP3    H130622   3.555   1.936   0.234
 3021TIP3    H230623   3.507   1.796   0.264
 3022TIP3   OH230624   2.990   3.060   0.276
 3022TIP3    H130625   2.906   3.092   0.242
 3022TIP3    H230626   3.000   3.104   0.360
 3023TIP3   OH230627   0.702   0.550   0.094
 3023TIP3    H130628   0.635   0.511   0.150
 3023TIP3    H230629   0.765   0.479   0.079
 3024TIP3   OH230630   1.229   3.853   8.318
 3024TIP3    H130631   1.276   3.807   8.388
 3024TIP3    H230632   1.180   3.785   8.272
 3025TIP3   OH230633   4.791   1.610   0.905
 3025TIP3    H130634   4.713   1.656   0.872
 3025TIP3    H230635   4.822   1.665   0.977
 3026TIP3   OH230636   2.728   6.685   8.603
 3026TIP3    H130637   2.773   6.711   8.523
 3026TIP3    H230638   2.789   6.626   8.647
 3027TIP3   OH230639   5.454   5.545   8.640
 3027TIP3    H130640   5.383   5.609   8.640
 3027TIP3    H230641   5.517   5.578   8.704
 3028TIP3   OH230642   4.889   2.452   7.024
 3028TIP3    H130643   4.971   2.499   7.040
 3028TIP3    H230644   4.888   2.438   6.929
 3029TIP3   OH230645   6.707   6.171   7.701
 3029TIP3    H130646   6.689   6.225   7.778
 3029TIP3    H230647   6.799   6.186   7.682
 3030TIP3   OH230648   1.094   5.717   8.614
 3030TIP3    H130649   1.127   5.795   8.659
 3030TIP3    H230650   1.173   5.674   8.580
 3031TIP3   OH230651   6.826   1.914   8.238
 3031TIP3    H130652   0.063   1.914   8.219
 3031TIP3    H230653   6.804   1.822   8.254
 3032TIP3   OH230654   1.380   2.057   1.346
 3032TIP3    H130655   1.387   1.961   1.343
 3032TIP3    H230656   1.343   2.075   1.432
 3033TIP3   OH230657   5.660   1.368   7.183
 3033TIP3    H130658   5.710   1.442   7.218
 3033TIP3    H230659   5.569   1.393   7.194
 3034TIP3   OH230660   1.214   3.184   6.709
 3034TIP3    H130661   1.204   3.094   6.676
 3034TIP3    H230662   1.296   3.183   6.757
 3035TIP3   OH230663   0.981   3.214   7.254
 3035TIP3    H130664   0.898   3.167   7.262
 3035TIP3    H230665   1.023   3.201   7.339
 3036TIP3   OH230666   5.549   6.055   6.601
 3036TIP3    H130667   5.631   6.082   6.643
 3036TIP3    H230668   5.534   5.966   6.633
 3037TIP3   OH230669   6.720   6.688   0.700
 3037TIP3    H130670   6.625   6.697   0.700
 3037TIP3    H230671   6.742   6.661   0.611
 3038TIP3   OH230672   6.111   5.817   0.526
 3038TIP3    H130673   6.132   5.905   0.494
 3038TIP3    H230674   6.106   5.827   0.621
 3039TIP3   OH230675   1.937   4.856   0.983
 3039TIP3    H130676   1.987   4.935   0.963
 3039TIP3    H230677   1.994   4.784   0.958
 3040TIP3   OH230678   6.409   2.946   8.387
 3040TIP3    H130679   6.369   2.936   8.300
 3040TIP3    H230680   6.342   2.913   8.447
 3041TIP3   OH230681   1.445   0.766   8.241
 3041TIP3    H130682   1.528   0.765   8.194
 3041TIP3    H230683   1.447   0.686   8.295
 3042TIP3   OH230684   4.124   3.441   0.569
 3042TIP3    H130685   4.202   3.491   0.544
 3042TIP3    H230686   4.098   3.395   0.489
 3043TIP3   OH230687   0.848   5.005   6.925
 3043TIP3    H130688   0.919   5.054   6.883
 3043TIP3    H230689   0.842   4.924   6.875
 3044TIP3   OH230690   1.215   3.438   7.199
 3044TIP3    H130691   1.130   3.404   7.225
 3044TIP3    H230692   1.222   3.522   7.244
 3045TIP3   OH230693   4.084   4.833   1.307
 3045TIP3    H130694   4.116   4.921   1.285
 3045TIP3    H230695   4.110   4.821   1.398
 3046TIP3   OH230696   6.222   5.343   0.581
 3046TIP3    H130697   6.227   5.420   0.637
 3046TIP3    H230698   6.184   5.376   0.499
 3047TIP3   OH230699   6.071   0.912   7.385
 3047TIP3    H130700   6.108   0.854   7.452
 3047TIP3    H230701   6.041   0.853   7.316
 3048TIP3   OH230702   2.634   0.051   0.936
 3048TIP3    H130703   2.661   0.004   0.857
 3048TIP3    H230704   2.542   0.071   0.921
 3049TIP3   OH230705   3.283   4.376   7.533
 3049TIP3    H130706   3.228   4.357   7.609
 3049TIP3    H230707   3.373   4.359   7.563
 3050TIP3   OH230708   3.351   3.728   6.926
 3050TIP3    H130709   3.432   3.712   6.878
 3050TIP3    H230710   3.301   3.647   6.918
 3051TIP3   OH230711   1.132   6.462   0.364
 3051TIP3    H130712   1.201   6.411   0.407
 3051TIP3    H230713   1.140   6.440   0.271
 3052TIP3   OH230714   4.683   6.538   1.319
 3052TIP3    H130715   4.736   6.614   1.294
 3052TIP3    H230716   4.630   6.519   1.241
 3053TIP3   OH230717   5.696   2.535   8.267
 3053TIP3    H130718   5.731   2.619   8.236
 3053TIP3    H230719   5.774   2.486   8.294
 3054TIP3   OH230720   6.707   0.941   7.972
 3054TIP3    H130721   6.771   0.880   7.936
 3054TIP3    H230722   6.759   1.012   8.008
 3055TIP3   OH230723   1.128   4.681   1.006
 3055TIP3    H130724   1.063   4.724   1.061
 3055TIP3    H230725   1.212   4.714   1.039
 3056TIP3   OH230726   0.711   3.742   8.258
 3056TIP3    H130727   0.782   3.765   8.318
 3056TIP3    H230728   0.730   3.791   8.178
 3057TIP3   OH230729   0.891   5.754   6.375
 3057TIP3    H130730   0.834   5.808   6.322
 3057TIP3    H230731   0.948   5.816   6.420
 3058TIP3   OH230732   4.669   4.343   8.481
 3058TIP3    H130733   4.764   4.350   8.473
 3058TIP3    H230734   4.643   4.425   8.523
 3059TIP3   OH230735   2.238   5.142   7.753
 3059TIP3    H130736   2.145   5.160   7.735
 3059TIP3    H230737   2.276   5.124   7.667
 3060TIP3   OH230738   4.100   2.793   7.678
 3060TIP3    H130739   4.054   2.811   7.760
 3060TIP3    H230740   4.110   2.697   7.677
 3061TIP3   OH230741   4.225   4.130   1.740
 3061TIP3    H130742   4.304   4.123   1.794
 3061TIP3    H230743   4.165   4.066   1.777
 3062TIP3   OH230744   6.021   2.327   7.611
 3062TIP3    H130745   6.055   2.256   7.557
 3062TIP3    H230746   5.927   2.308   7.620
 3063TIP3   OH230747   2.886   3.977   0.059
 3063TIP3    H130748   2.928   3.891   0.060
 3063TIP3    H230749   2.949   4.036   0.099
 3064TIP3   OH230750   3.706   0.532   0.344
 3064TIP3    H130751   3.722   0.485   0.262
 3064TIP3    H230752   3.791   0.572   0.365
 3065TIP3   OH230753   5.169   1.826   0.272
 3065TIP3    H130754   5.122   1.858   0.350
 3065TIP3    H230755   5.149   1.733   0.268
 3066TIP3   OH230756   5.402   5.852   0.886
 3066TIP3    H130757   5.354   5.854   0.969
 3066TIP3    H230758   5.471   5.787   0.901
 3067TIP3   OH230759   5.599   4.799   7.684
 3067TIP3    H130760   5.576   4.882   7.726
 3067TIP3    H230761   5.572   4.811   7.593
 3068TIP3   OH230762   5.368   2.731   0.164
 3068TIP3    H130763   5.317   2.813   0.171
 3068TIP3    H230764   5.459   2.760   0.160
 3069TIP3   OH230765   2.687   4.995   8.160
 3069TIP3    H130766   2.677   5.051   8.237
 3069TIP3    H230767   2.771   4.950   8.173
 3070TIP3   OH230768   1.679   5.245   1.087
 3070TIP3    H130769   1.751   5.275   1.033
 3070TIP3    H230770   1.696   5.151   1.099
 3071TIP3   OH230771   6.535   6.581   0.926
 3071TIP3    H130772   6.485   6.661   0.937
 3071TIP3    H230773   6.627   6.609   0.933
 3072TIP3   OH230774   0.815   5.368   6.908
 3072TIP3    H130775   0.774   5.295   6.955
 3072TIP3    H230776   0.899   5.333   6.878
 3073TIP3   OH230777   4.124   3.835   7.640
 3073TIP3    H130778   4.196   3.857   7.581
 3073TIP3    H230779   4.079   3.762   7.597
 3074TIP3   OH230780   4.195   0.752   0.518
 3074TIP3    H130781   4.241   0.825   0.560
 3074TIP3    H230782   4.173   0.693   0.589
 3075TIP3   OH230783   4.831   0.678   1.048
 3075TIP3    H130784   4.739   0.704   1.054
 3075TIP3    H230785   4.839   0.607   1.112
 3076TIP3   OH230786   0.235   3.648   1.366
 3076TIP3    H130787   0.313   3.620   1.413
 3076TIP3    H230788   0.261   3.648   1.274
 3077TIP3   OH230789   3.957   5.338   8.672
 3077TIP3    H130790   3.937   5.389   0.037
 3077TIP3    H230791   4.014   5.268   8.704
 3078TIP3   OH230792   6.821   2.510   0.015
 3078TIP3    H130793   6.771   2.536   8.652
 3078TIP3    H230794   6.758   2.462   0.070
 3079TIP3   OH230795   3.199   1.273   7.645
 3079TIP3    H130796   3.129   1.220   7.606
 3079TIP3    H230797   3.180   1.362   7.614
 3080TIP3   OH230798   0.233   1.067   6.825
 3080TIP3    H130799   0.174   1.120   6.771
 3080TIP3    H230800   0.275   1.008   6.762
 3081TIP3   OH230801   6.128   1.175   7.292
 3081TIP3    H130802   6.149   1.237   7.362
 3081TIP3    H230803   6.095   1.098   7.337
 3082TIP3   OH230804   3.778   6.120   7.567
 3082TIP3    H130805   3.699   6.138   7.516
 3082TIP3    H230806   3.834   6.196   7.552
 3083TIP3   OH230807   1.964   5.529   7.070
 3083TIP3    H130808   1.950   5.555   6.979
 3083TIP3    H230809   2.059   5.530   7.080
 3084TIP3   OH230810   2.836   5.304   7.712
 3084TIP3    H130811   2.842   5.209   7.701
 3084TIP3    H230812   2.768   5.331   7.650
 3085TIP3   OH230813   2.184   0.677   8.709
 3085TIP3    H130814   2.135   0.616   0.051
 3085TIP3    H230815   2.275   0.651   0.006
 3086TIP3   OH230816   4.862   2.307   8.426
 3086TIP3    H130817   4.852   2.219   8.463
 3086TIP3    H230818   4.776   2.348   8.435
 3087TIP3   OH230819   3.849   6.183   1.240
 3087TIP3    H130820   3.888   6.149   1.159
 3087TIP3    H230821   3.893   6.135   1.310
 3088TIP3   OH230822   2.812   2.519   0.747
 3088TIP3    H130823   2.903   2.544   0.762
 3088TIP3    H230824   2.818   2.431   0.709
 3089TIP3   OH230825   1.781   5.756   7.432
 3089TIP3    H130826   1.692   5.722   7.441
 3089TIP3    H230827   1.770   5.851   7.431
 3090TIP3   OH230828   1.075   0.488   0.245
 3090TIP3    H130829   1.058   0.558   0.183
 3090TIP3    H230830   1.124   0.422   0.195
 3091TIP3   OH230831   3.856   5.193   0.734
 3091TIP3    H130832   3.773   5.154   0.761
 3091TIP3    H230833   3.830   5.276   0.693
 3092TIP3   OH230834   0.690   2.752   0.092
 3092TIP3    H130835   0.785   2.758   0.108
 3092TIP3    H230836   0.683   2.730   8.713
 3093TIP3   OH230837   4.595   6.584   1.849
 3093TIP3    H130838   4.552   6.572   1.765
 3093TIP3    H230839   4.537   6.640   1.899
 3094TIP3   OH230840   3.908   6.335   8.666
 3094TIP3    H130841   4.001   6.327   8.688
 3094TIP3    H230842   3.873   6.247   8.676
 3095TIP3   OH230843   4.921   1.621   0.203
 3095TIP3    H130844   5.006   1.577   0.207
 3095TIP3    H230845   4.869   1.580   0.273
 3096TIP3   OH230846   1.887   2.156   1.052
 3096TIP3    H130847   1.902   2.089   0.986
 3096TIP3    H230848   1.794   2.147   1.075
 3097TIP3   OH230849   4.840   5.275   1.281
 3097TIP3    H130850   4.904   5.270   1.210
 3097TIP3    H230851   4.789   5.354   1.262
 3098TIP3   OH230852   3.163   0.091   8.082
 3098TIP3    H130853   3.071   0.073   8.100
 3098TIP3    H230854   3.208   0.009   8.105
 3099TIP3   OH230855   2.486   3.281   8.629
 3099TIP3    H130856   2.576   3.273   8.661
 3099TIP3    H230857   2.432   3.268   8.707
 3100TIP3   OH230858   3.879   2.306   1.779
 3100TIP3    H130859   3.842   2.349   1.856
 3100TIP3    H230860   3.810   2.310   1.714
 3101TIP3   OH230861   4.505   1.777   1.570
 3101TIP3    H130862   4.495   1.804   1.662
 3101TIP3    H230863   4.447   1.836   1.521
 3102TIP3   OH230864   2.033   5.955   0.886
 3102TIP3    H130865   2.000   6.020   0.824
 3102TIP3    H230866   2.038   6.002   0.970
 3103TIP3   OH230867   4.894   0.382   7.854
 3103TIP3    H130868   4.802   0.400   7.876
 3103TIP3    H230869   4.921   0.316   7.918
 3104TIP3   OH230870   3.774   4.218   0.993
 3104TIP3    H130871   3.741   4.222   0.903
 3104TIP3    H230872   3.833   4.293   1.000
 3105TIP3   OH230873   5.497   0.345   7.436
 3105TIP3    H130874   5.525   0.361   7.346
 3105TIP3    H230875   5.471   0.253   7.437
 3106TIP3   OH230876   0.337   5.569   0.544
 3106TIP3    H130877   0.433   5.565   0.539
 3106TIP3    H230878   0.318   5.662   0.557
 3107TIP3   OH230879   0.835   6.334   0.643
 3107TIP3    H130880   0.911   6.305   0.692
 3107TIP3    H230881   0.860   6.419   0.606
 3108TIP3   OH230882   5.838   1.142   7.185
 3108TIP3    H130883   5.924   1.183   7.197
 3108TIP3    H230884   5.776   1.214   7.196
 3109TIP3   OH230885   0.805   3.980   8.096
 3109TIP3    H130886   0.884   3.975   8.149
 3109TIP3    H230887   0.833   3.953   8.008
 3110TIP3   OH230888   0.802   1.041   7.705
 3110TIP3    H130889   0.845   1.057   7.789
 3110TIP3    H230890   0.752   1.121   7.689
 3111TIP3   OH230891   6.767   0.227   7.322
 3111TIP3    H130892   6.812   0.207   7.404
 3111TIP3    H230893   6.711   0.150   7.306
 3112TIP3   OH230894   2.913   0.835   7.403
 3112TIP3    H130895   2.868   0.790   7.474
 3112TIP3    H230896   2.851   0.833   7.330
 3113TIP3   OH230897   0.369   3.667   6.969
 3113TIP3    H130898   0.448   3.613   6.966
 3113TIP3    H230899   0.400   3.756   6.951
 3114TIP3   OH230900   5.625   4.859   7.357
 3114TIP3    H130901   5.611   4.889   7.268
 3114TIP3    H230902   5.630   4.939   7.409
 3115TIP3   OH230903   6.014   5.442   0.066
 3115TIP3    H130904   6.047   5.487   8.702
 3115TIP3    H230905   5.963   5.508   0.113
 3116TIP3   OH230906   5.304   0.857   1.394
 3116TIP3    H130907   5.259   0.930   1.352
 3116TIP3    H230908   5.396   0.871   1.374
 3117TIP3   OH230909   3.116   2.602   7.806
 3117TIP3    H130910   3.073   2.685   7.789
 3117TIP3    H230911   3.210   2.621   7.801
 3118TIP3   OH230912   5.764   4.437   6.569
 3118TIP3    H130913   5.757   4.420   6.475
 3118TIP3    H230914   5.793   4.528   6.575
 3119TIP3   OH230915   6.135   1.137   7.944
 3119TIP3    H130916   6.162   1.090   8.023
 3119TIP3    H230917   6.053   1.095   7.918
 3120TIP3   OH230918   6.626   0.419   0.327
 3120TIP3    H130919   6.581   0.342   0.293
 3120TIP3    H230920   6.655   0.467   0.249
 3121TIP3   OH230921   3.498   2.260   7.491
 3121TIP3    H130922   3.509   2.173   7.530
 3121TIP3    H230923   3.455   2.311   7.560
 3122TIP3   OH230924   3.366   1.539   2.255
 3122TIP3    H130925   3.290   1.528   2.197
 3122TIP3    H230926   3.373   1.633   2.269
 3123TIP3   OH230927   3.004   0.767   0.578
 3123TIP3    H130928   3.047   0.785   0.495
 3123TIP3    H230929   2.913   0.793   0.564
 3124TIP3   OH230930   5.301   6.196   1.151
 3124TIP3    H130931   5.372   6.136   1.129
 3124TIP3    H230932   5.276   6.173   1.240
 3125TIP3   OH230933   2.574   5.657   0.875
 3125TIP3    H130934   2.609   5.594   0.938
 3125TIP3    H230935   2.503   5.610   0.831
 3126TIP3   OH230936   3.485   3.989   7.680
 3126TIP3    H130937   3.433   4.007   7.758
 3126TIP3    H230938   3.539   3.913   7.703
 3127TIP3   OH230939   3.809   4.382   1.320
 3127TIP3    H130940   3.736   4.373   1.259
 3127TIP3    H230941   3.822   4.476   1.328
 3128TIP3   OH230942   1.083   1.851   0.722
 3128TIP3    H130943   1.078   1.838   0.817
 3128TIP3    H230944   1.177   1.858   0.705
 3129TIP3   OH230945   5.542   1.884   7.346
 3129TIP3    H130946   5.512   1.873   7.256
 3129TIP3    H230947   5.542   1.795   7.382
 3130TIP3   OH230948   0.207   3.792   0.802
 3130TIP3    H130949   0.219   3.818   0.710
 3130TIP3    H230950   0.247   3.706   0.808
 3131TIP3   OH230951   0.701   0.642   6.233
 3131TIP3    H130952   0.650   0.564   6.214
 3131TIP3    H230953   0.637   0.707   6.261
 3132TIP3   OH230954   3.971   6.793   6.752
 3132TIP3    H130955   3.932   6.707   6.771
 3132TIP3    H230956   3.897   6.853   6.754
 3133TIP3   OH230957   5.999   0.377   0.902
 3133TIP3    H130958   5.962   0.434   0.970
 3133TIP3    H230959   5.943   0.393   0.826
 3134TIP3   OH230960   0.285   0.522   0.460
 3134TIP3    H130961   0.264   0.487   0.547
 3134TIP3    H230962   0.206   0.568   0.433
 3135TIP3   OH230963   5.157   0.657   0.042
 3135TIP3    H130964   5.158   0.734   0.099
 3135TIP3    H230965   5.065   0.639   0.027
 3136TIP3   OH230966   2.852   5.514   8.245
 3136TIP3    H130967   2.905   5.565   8.183
 3136TIP3    H230968   2.849   5.569   8.323
 3137TIP3   OH230969   5.901   3.846   1.856
 3137TIP3    H130970   5.871   3.928   1.816
 3137TIP3    H230971   5.983   3.869   1.899
 3138TIP3   OH230972   4.705   6.468   2.081
 3138TIP3    H130973   4.789   6.440   2.043
 3138TIP3    H230974   4.662   6.517   2.011
 3139TIP3   OH230975   2.117   4.003   0.501
 3139TIP3    H130976   2.197   4.019   0.551
 3139TIP3    H230977   2.046   4.012   0.564
 3140TIP3   OH230978   0.002   0.578   0.649
 3140TIP3    H130979   0.020   0.609   0.738
 3140TIP3    H230980   6.812   0.496   0.662
 3141TIP3   OH230981   2.164   0.729   1.963
 3141TIP3    H130982   2.113   0.778   2.027
 3141TIP3    H230983   2.238   0.694   2.013
 3142TIP3   OH230984   5.061   1.535   2.033
 3142TIP3    H130985   5.041   1.441   2.040
 3142TIP3    H230986   5.081   1.561   2.123
 3143TIP3   OH230987   0.609   5.141   0.495
 3143TIP3    H130988   0.666   5.179   0.562
 3143TIP3    H230989   0.554   5.213   0.466
 3144TIP3   OH230990   0.705   6.362   6.790
 3144TIP3    H130991   0.695   6.311   6.870
 3144TIP3    H230992   0.751   6.441   6.817
 3145TIP3   OH230993   3.531   0.146   8.409
 3145TIP3    H130994   3.450   0.094   8.404
 3145TIP3    H230995   3.503   0.236   8.391
 3146TIP3   OH230996   0.003   5.086   7.070
 3146TIP3    H130997   0.031   5.140   6.995
 3146TIP3    H230998   0.046   5.002   7.056
 3147TIP3   OH230999   4.474   2.326   1.393
 3147TIP3    H131000   4.469   2.386   1.318
 3147TIP3    H231001   4.476   2.384   1.470
 3148TIP3   OH231002   6.299   4.314   7.318
 3148TIP3    H131003   6.329   4.237   7.366
 3148TIP3    H231004   6.229   4.350   7.373
 3149TIP3   OH231005   5.987   2.026   7.496
 3149TIP3    H131006   5.974   1.998   7.406
 3149TIP3    H231007   5.919   1.981   7.546
 3150TIP3   OH231008   3.842   0.543   1.891
 3150TIP3    H131009   3.785   0.559   1.967
 3150TIP3    H231010   3.922   0.508   1.929
 3151TIP3   OH231011   1.242   2.933   8.562
 3151TIP3    H131012   1.321   2.926   8.508
 3151TIP3    H231013   1.184   2.864   8.530
 3152TIP3   OH231014   6.701   4.622   7.417
 3152TIP3    H131015   6.758   4.610   7.493
 3152TIP3    H231016   6.613   4.631   7.454
 3153TIP3   OH231017   0.667   3.459   0.773
 3153TIP3    H131018   0.670   3.389   0.707
 3153TIP3    H231019   0.733   3.523   0.743
 3154TIP3   OH231020   2.351   2.717   0.736
 3154TIP3    H131021   2.286   2.652   0.762
 3154TIP3    H231022   2.428   2.697   0.790
 3155TIP3   OH231023   6.626   5.226   7.599
 3155TIP3    H131024   6.607   5.139   7.562
 3155TIP3    H231025   6.708   5.252   7.558
 3156TIP3   OH231026   6.857   2.728   0.769
 3156TIP3    H131027   0.008   2.804   0.712
 3156TIP3    H231028   0.017   2.653   0.712
 3157TIP3   OH231029   4.849   4.633   1.595
 3157TIP3    H131030   4.917   4.590   1.647
 3157TIP3    H231031   4.897   4.684   1.530
 3158TIP3   OH231032   1.218   4.622   7.121
 3158TIP3    H131033   1.297   4.584   7.082
 3158TIP3    H231034   1.153   4.619   7.052
 3159TIP3   OH231035   1.549   5.497   6.972
 3159TIP3    H131036   1.558   5.403   6.981
 3159TIP3    H231037   1.569   5.532   7.058
 3160TIP3   OH231038   6.454   1.207   1.682
 3160TIP3    H131039   6.499   1.155   1.748
 3160TIP3    H231040   6.404   1.271   1.732
 3161TIP3   OH231041   0.151   2.555   7.360
 3161TIP3    H131042   0.099   2.505   7.296
 3161TIP3    H231043   0.095   2.628   7.384
 3162TIP3   OH231044   3.135   5.867   6.942
 3162TIP3    H131045   3.110   5.824   6.860
 3162TIP3    H231046   3.066   5.843   7.004
 3163TIP3   OH231047   0.395   2.764   8.508
 3163TIP3    H131048   0.388   2.783   8.415
 3163TIP3    H231049   0.344   2.684   8.521
 3164TIP3   OH231050   5.039   1.345   1.573
 3164TIP3    H131051   4.989   1.352   1.654
 3164TIP3    H231052   5.053   1.251   1.561
 3165TIP3   OH231053   6.047   6.521   1.372
 3165TIP3    H131054   6.045   6.432   1.407
 3165TIP3    H231055   6.061   6.576   1.449
 3166TIP3   OH231056   6.339   4.448   6.139
 3166TIP3    H131057   6.376   4.363   6.117
 3166TIP3    H231058   6.281   4.430   6.213
 3167TIP3   OH231059   4.966   2.080   0.151
 3167TIP3    H131060   4.985   1.997   0.107
 3167TIP3    H231061   4.913   2.055   0.227
 3168TIP3   OH231062   2.643   2.124   1.582
 3168TIP3    H131063   2.634   2.037   1.542
 3168TIP3    H231064   2.561   2.169   1.561
 3169TIP3   OH231065   1.673   1.148   0.642
 3169TIP3    H131066   1.600   1.186   0.692
 3169TIP3    H231067   1.681   1.204   0.565
 3170TIP3   OH231068   1.259   2.433   0.697
 3170TIP3    H131069   1.312   2.493   0.750
 3170TIP3    H231070   1.250   2.355   0.752
 3171TIP3   OH231071   6.514   6.072   0.926
 3171TIP3    H131072   6.545   6.154   0.888
 3171TIP3    H231073   6.593   6.019   0.938
 3172TIP3   OH231074   1.096   2.572   1.075
 3172TIP3    H131075   1.012   2.600   1.038
 3172TIP3    H231076   1.155   2.646   1.061
 3173TIP3   OH231077   1.189   5.774   6.736
 3173TIP3    H131078   1.122   5.705   6.742
 3173TIP3    H231079   1.253   5.751   6.804
 3174TIP3   OH231080   1.426   3.072   0.017
 3174TIP3    H131081   1.352   3.016   8.704
 3174TIP3    H231082   1.496   3.049   8.670
 3175TIP3   OH231083   4.770   0.293   0.327
 3175TIP3    H131084   4.846   0.282   0.385
 3175TIP3    H231085   4.709   0.224   0.355
 3176TIP3   OH231086   5.877   1.041   7.904
 3176TIP3    H131087   5.822   1.114   7.934
 3176TIP3    H231088   5.814   0.972   7.883
 3177TIP3   OH231089   6.142   2.458   6.701
 3177TIP3    H131090   6.206   2.415   6.644
 3177TIP3    H231091   6.190   2.531   6.739
 3178TIP3   OH231092   5.087   6.172   7.573
 3178TIP3    H131093   5.149   6.210   7.511
 3178TIP3    H231094   5.112   6.210   7.657
 3179TIP3   OH231095   2.971   1.175   8.003
 3179TIP3    H131096   2.935   1.105   8.056
 3179TIP3    H231097   3.036   1.132   7.947
 3180TIP3   OH231098   2.775   4.763   7.253
 3180TIP3    H131099   2.722   4.706   7.198
 3180TIP3    H231100   2.738   4.851   7.240
 3181TIP3   OH231101   5.724   1.808   7.048
 3181TIP3    H131102   5.678   1.787   6.966
 3181TIP3    H231103   5.769   1.727   7.072
 3182TIP3   OH231104   6.448   5.419   1.261
 3182TIP3    H131105   6.377   5.375   1.308
 3182TIP3    H231106   6.432   5.399   1.169
 3183TIP3   OH231107   2.435   3.723   1.051
 3183TIP3    H131108   2.470   3.695   0.966
 3183TIP3    H231109   2.433   3.818   1.046
 3184TIP3   OH231110   1.912   0.577   8.138
 3184TIP3    H131111   1.908   0.577   8.042
 3184TIP3    H231112   1.916   0.484   8.161
 3185TIP3   OH231113   3.215   5.260   8.543
 3185TIP3    H131114   3.203   5.292   8.454
 3185TIP3    H231115   3.200   5.166   8.537
 3186TIP3   OH231116   4.095   0.187   0.396
 3186TIP3    H131117   4.108   0.119   0.462
 3186TIP3    H231118   4.014   0.231   0.423
 3187TIP3   OH231119   6.141   0.060   8.068
 3187TIP3    H131120   6.104   0.012   7.994
 3187TIP3    H231121   6.125   0.152   8.047
 3188TIP3   OH231122   0.762   2.101   0.048
 3188TIP3    H131123   0.839   2.069   0.001
 3188TIP3    H231124   0.741   2.031   0.109
 3189TIP3   OH231125   2.853   3.492   2.462
 3189TIP3    H131126   2.802   3.453   2.391
 3189TIP3    H231127   2.937   3.447   2.460
 3190TIP3   OH231128   5.721   3.931   6.844
 3190TIP3    H131129   5.814   3.911   6.855
 3190TIP3    H231130   5.719   4.026   6.830
 3191TIP3   OH231131   5.749   1.023   0.429
 3191TIP3    H131132   5.668   1.060   0.463
 3191TIP3    H231133   5.783   0.970   0.502
 3192TIP3   OH231134   3.603   1.447   6.767
 3192TIP3    H131135   3.681   1.499   6.788
 3192TIP3    H231136   3.632   1.356   6.776
 3193TIP3   OH231137   4.812   5.590   6.350
 3193TIP3    H131138   4.751   5.663   6.346
 3193TIP3    H231139   4.895   5.628   6.320
 3194TIP3   OH231140   6.803   1.308   8.508
 3194TIP3    H131141   6.726   1.250   8.509
 3194TIP3    H231142   0.019   1.252   8.533
 3195TIP3   OH231143   4.124   3.104   0.769
 3195TIP3    H131144   4.103   3.012   0.753
 3195TIP3    H231145   4.039   3.147   0.774
 3196TIP3   OH231146   0.907   2.017   0.480
 3196TIP3    H131147   0.898   1.984   0.569
 3196TIP3    H231148   0.990   2.065   0.480
 3197TIP3   OH231149   1.516   1.964   8.414
 3197TIP3    H131150   1.553   2.038   8.463
 3197TIP3    H231151   1.527   1.889   8.472
 3198TIP3   OH231152   6.764   1.925   7.964
 3198TIP3    H131153   6.834   1.987   7.946
 3198TIP3    H231154   6.777   1.899   8.055
 3199TIP3   OH231155   0.131   2.034   0.636
 3199TIP3    H131156   0.171   1.952   0.609
 3199TIP3    H231157   0.111   2.079   0.553
 3200TIP3   OH231158   3.970   4.655   7.089
 3200TIP3    H131159   3.908   4.599   7.137
 3200TIP3    H231160   4.022   4.697   7.157
 3201TIP3   OH231161   0.015   4.785   2.394
 3201TIP3    H131162   6.835   4.706   2.435
 3201TIP3    H231163   6.845   4.856   2.452
 3202TIP3   OH231164   2.532   4.174   7.022
 3202TIP3    H131165   2.603   4.230   7.052
 3202TIP3    H231166   2.509   4.209   6.936
 3203TIP3   OH231167   5.022   0.383   8.591
 3203TIP3    H131168   5.044   0.405   8.681
 3203TIP3    H231169   4.931   0.411   8.581
 3204TIP3   OH231170   1.540   6.595   6.625
 3204TIP3    H131171   1.445   6.590   6.619
 3204TIP3    H231172   1.557   6.659   6.694
 3205TIP3   OH231173   2.648   0.060   0.399
 3205TIP3    H131174   2.739   0.059   0.430
 3205TIP3    H231175   2.649   0.007   0.320
 3206TIP3   OH231176   4.270   2.328   0.024
 3206TIP3    H131177   4.236   2.282   0.102
 3206TIP3    H231178   4.315   2.260   8.688
 3207TIP3   OH231179   1.398   4.759   1.036
 3207TIP3    H131180   1.455   4.773   0.960
 3207TIP3    H231181   1.455   4.777   1.111
 3208TIP3   OH231182   6.424   1.885   5.967
 3208TIP3    H131183   6.364   1.810   5.967
 3208TIP3    H231184   6.503   1.853   6.010
 3209TIP3   OH231185   4.161   6.246   8.713
 3209TIP3    H131186   4.228   6.217   8.651
 3209TIP3    H231187   4.211   6.281   0.073
 3210TIP3   OH231188   5.781   2.077   2.526
 3210TIP3    H131189   5.770   2.144   2.459
 3210TIP3    H231190   5.702   2.082   2.580
 3211TIP3   OH231191   3.281   2.036   0.629
 3211TIP3    H131192   3.253   2.025   0.538
 3211TIP3    H231193   3.297   1.947   0.659
 3212TIP3   OH231194   4.621   4.979   7.605
 3212TIP3    H131195   4.712   4.959   7.581
 3212TIP3    H231196   4.569   4.927   7.544
 3213TIP3   OH231197   6.614   3.130   2.434
 3213TIP3    H131198   6.645   3.062   2.374
 3213TIP3    H231199   6.693   3.175   2.462
 3214TIP3   OH231200   1.682   6.371   0.347
 3214TIP3    H131201   1.694   6.446   0.406
 3214TIP3    H231202   1.667   6.297   0.405
 3215TIP3   OH231203   0.417   6.363   2.325
 3215TIP3    H131204   0.384   6.435   2.379
 3215TIP3    H231205   0.469   6.310   2.385
 3216TIP3   OH231206   0.567   0.838   1.272
 3216TIP3    H131207   0.537   0.845   1.362
 3216TIP3    H231208   0.509   0.896   1.223
 3217TIP3   OH231209   5.004   6.298   1.446
 3217TIP3    H131210   5.085   6.250   1.464
 3217TIP3    H231211   5.021   6.387   1.476
 3218TIP3   OH231212   4.930   5.491   0.335
 3218TIP3    H131213   4.878   5.526   0.263
 3218TIP3    H231214   4.937   5.398   0.316
 3219TIP3   OH231215   4.656   3.443   1.649
 3219TIP3    H131216   4.661   3.405   1.736
 3219TIP3    H231217   4.605   3.524   1.662
 3220TIP3   OH231218   1.089   3.098   1.120
 3220TIP3    H131219   1.168   3.151   1.128
 3220TIP3    H231220   1.080   3.082   1.026
 3221TIP3   OH231221   4.922   0.540   8.113
 3221TIP3    H131222   4.917   0.587   8.196
 3221TIP3    H231223   5.016   0.526   8.100
 3222TIP3   OH231224   3.525   6.088   0.319
 3222TIP3    H131225   3.568   6.109   0.402
 3222TIP3    H231226   3.497   6.173   0.285
 3223TIP3   OH231227   1.069   0.275   8.410
 3223TIP3    H131228   1.101   0.202   8.357
 3223TIP3    H231229   0.976   0.281   8.390
 3224TIP3   OH231230   4.650   0.009   1.966
 3224TIP3    H131231   4.561   6.835   1.951
 3224TIP3    H231232   4.674   6.827   2.050
 3225TIP3   OH231233   4.185   0.115   8.537
 3225TIP3    H131234   4.127   0.179   8.497
 3225TIP3    H231235   4.273   0.153   8.528
 3226TIP3   OH231236   3.023   6.286   0.233
 3226TIP3    H131237   3.042   6.275   0.326
 3226TIP3    H231238   3.027   6.380   0.218
 3227TIP3   OH231239   5.396   6.338   6.144
 3227TIP3    H131240   5.301   6.344   6.148
 3227TIP3    H231241   5.425   6.428   6.130
 3228TIP3   OH231242   5.472   6.520   7.242
 3228TIP3    H131243   5.531   6.559   7.177
 3228TIP3    H231244   5.493   6.427   7.240
 3229TIP3   OH231245   6.199   4.661   0.636
 3229TIP3    H131246   6.259   4.590   0.612
 3229TIP3    H231247   6.116   4.637   0.594
 3230TIP3   OH231248   5.792   3.491   1.481
 3230TIP3    H131249   5.845   3.437   1.422
 3230TIP3    H231250   5.856   3.527   1.543
 3231TIP3   OH231251   6.416   6.261   7.321
 3231TIP3    H131252   6.337   6.212   7.341
 3231TIP3    H231253   6.440   6.303   7.403
 3232TIP3   OH231254   6.146   3.338   7.121
 3232TIP3    H131255   6.073   3.286   7.154
 3232TIP3    H231256   6.131   3.345   7.027
 3233TIP3   OH231257   6.595   4.075   6.327
 3233TIP3    H131258   6.690   4.066   6.338
 3233TIP3    H231259   6.562   3.986   6.341
 3234TIP3   OH231260   2.817   3.735   8.583
 3234TIP3    H131261   2.800   3.651   8.625
 3234TIP3    H231262   2.906   3.729   8.551
 3235TIP3   OH231263   3.579   5.783   0.714
 3235TIP3    H131264   3.523   5.807   0.788
 3235TIP3    H231265   3.526   5.723   0.662
 3236TIP3   OH231266   1.551   2.559   8.466
 3236TIP3    H131267   1.644   2.541   8.461
 3236TIP3    H231268   1.512   2.507   8.396
 3237TIP3   OH231269   1.533   2.367   8.018
 3237TIP3    H131270   1.610   2.310   8.020
 3237TIP3    H231271   1.521   2.395   8.109
 3238TIP3   OH231272   0.410   2.334   0.354
 3238TIP3    H131273   0.379   2.251   0.319
 3238TIP3    H231274   0.505   2.327   0.355
 3239TIP3   OH231275   1.038   5.481   1.442
 3239TIP3    H131276   1.114   5.537   1.459
 3239TIP3    H231277   1.049   5.407   1.500
 3240TIP3   OH231278   5.776   4.539   7.099
 3240TIP3    H131279   5.869   4.555   7.085
 3240TIP3    H231280   5.742   4.515   7.013
 3241TIP3   OH231281   1.136   2.235   0.462
 3241TIP3    H131282   1.173   2.278   0.539
 3241TIP3    H231283   1.212   2.212   0.409
 3242TIP3   OH231284   2.785   2.362   7.533
 3242TIP3    H131285   2.794   2.421   7.457
 3242TIP3    H231286   2.858   2.386   7.590
 3243TIP3   OH231287   0.201   0.622   6.378
 3243TIP3    H131288   0.149   0.647   6.301
 3243TIP3    H231289   0.169   0.535   6.401
 3244TIP3   OH231290   6.696   1.075   1.135
 3244TIP3    H131291   6.605   1.106   1.134
 3244TIP3    H231292   6.725   1.089   1.225
 3245TIP3   OH231293   6.557   6.486   0.096
 3245TIP3    H131294   6.529   6.406   0.052
 3245TIP3    H231295   6.591   6.541   0.026
 3246TIP3   OH231296   1.582   4.712   7.916
 3246TIP3    H131297   1.663   4.663   7.901
 3246TIP3    H231298   1.600   4.800   7.882
 3247TIP3   OH231299   0.601   3.380   1.266
 3247TIP3    H131300   0.669   3.316   1.249
 3247TIP3    H231301   0.571   3.407   1.179
 3248TIP3   OH231302   0.053   2.535   0.352
 3248TIP3    H131303   0.069   2.628   0.336
 3248TIP3    H231304   0.119   2.489   0.299
 3249TIP3   OH231305   5.943   5.964   7.820
 3249TIP3    H131306   5.892   6.020   7.761
 3249TIP3    H231307   5.952   5.881   7.772
 3250TIP3   OH231308   1.677   5.304   7.599
 3250TIP3    H131309   1.755   5.279   7.650
 3250TIP3    H231310   1.710   5.316   7.510
 3251TIP3   OH231311   3.277   1.580   0.493
 3251TIP3    H131312   3.229   1.513   0.542
 3251TIP3    H231313   3.293   1.649   0.557
 3252TIP3   OH231314   1.170   4.603   8.224
 3252TIP3    H131315   1.083   4.638   8.205
 3252TIP3    H231316   1.229   4.654   8.167
 3253TIP3   OH231317   4.708   5.888   6.974
 3253TIP3    H131318   4.674   5.977   6.981
 3253TIP3    H231319   4.631   5.832   6.986
 3254TIP3   OH231320   0.585   3.442   6.972
 3254TIP3    H131321   0.671   3.444   7.015
 3254TIP3    H231322   0.527   3.403   7.037
 3255TIP3   OH231323   3.312   1.056   7.433
 3255TIP3    H131324   3.279   1.038   7.521
 3255TIP3    H231325   3.302   0.973   7.387
 3256TIP3   OH231326   3.181   4.400   6.604
 3256TIP3    H131327   3.165   4.448   6.523
 3256TIP3    H231328   3.191   4.468   6.671
 3257TIP3   OH231329   6.772   4.559   8.652
 3257TIP3    H131330   0.001   4.517   8.638
 3257TIP3    H231331   6.740   4.578   8.564
 3258TIP3   OH231332   2.820   6.694   1.933
 3258TIP3    H131333   2.741   6.642   1.917
 3258TIP3    H231334   2.844   6.727   1.847
 3259TIP3   OH231335   3.067   5.419   2.560
 3259TIP3    H131336   3.087   5.381   2.474
 3259TIP3    H231337   3.151   5.452   2.591
 3260TIP3   OH231338   5.747   1.296   7.939
 3260TIP3    H131339   5.767   1.388   7.957
 3260TIP3    H231340   5.764   1.287   7.845
 3261TIP3   OH231341   4.322   1.701   7.264
 3261TIP3    H131342   4.412   1.708   7.234
 3261TIP3    H231343   4.274   1.764   7.211
 3262TIP3   OH231344   3.177   0.160   7.821
 3262TIP3    H131345   3.189   0.137   7.913
 3262TIP3    H231346   3.107   0.225   7.821
 3263TIP3   OH231347   1.092   4.353   2.265
 3263TIP3    H131348   1.054   4.416   2.204
 3263TIP3    H231349   1.022   4.337   2.329
 3264TIP3   OH231350   6.152   4.021   0.817
 3264TIP3    H131351   6.168   3.939   0.863
 3264TIP3    H231352   6.237   4.045   0.780
 3265TIP3   OH231353   6.811   6.616   0.447
 3265TIP3    H131354   6.764   6.557   0.388
 3265TIP3    H231355   6.835   6.690   0.391
 3266TIP3   OH231356   0.991   6.344   7.833
 3266TIP3    H131357   1.016   6.435   7.815
 3266TIP3    H231358   0.916   6.328   7.776
 3267TIP3   OH231359   2.604   3.781   0.558
 3267TIP3    H131360   2.535   3.724   0.592
 3267TIP3    H231361   2.588   3.785   0.464
 3268TIP3   OH231362   1.552   0.269   1.822
 3268TIP3    H131363   1.553   0.187   1.773
 3268TIP3    H231364   1.624   0.260   1.885
 3269TIP3   OH231365   4.750   0.389   8.272
 3269TIP3    H131366   4.711   0.319   8.220
 3269TIP3    H231367   4.825   0.418   8.221
 3270TIP3   OH231368   1.101   1.005   1.134
 3270TIP3    H131369   1.127   1.038   1.220
 3270TIP3    H231370   1.005   0.998   1.139
 3271TIP3   OH231371   2.198   1.637   2.407
 3271TIP3    H131372   2.187   1.728   2.435
 3271TIP3    H231373   2.116   1.616   2.363
 3272TIP3   OH231374   4.563   5.327   7.610
 3272TIP3    H131375   4.468   5.326   7.602
 3272TIP3    H231376   4.594   5.263   7.546
 3273TIP3   OH231377   1.672   6.336   7.659
 3273TIP3    H131378   1.604   6.272   7.678
 3273TIP3    H231379   1.623   6.415   7.632
 3274TIP3   OH231380   3.580   5.699   1.644
 3274TIP3    H131381   3.609   5.649   1.720
 3274TIP3    H231382   3.501   5.654   1.615
 3275TIP3   OH231383   2.565   1.963   6.803
 3275TIP3    H131384   2.501   1.948   6.733
 3275TIP3    H231385   2.575   2.058   6.807
 3276TIP3   OH231386   3.810   6.669   0.290
 3276TIP3    H131387   3.789   6.575   0.285
 3276TIP3    H231388   3.756   6.709   0.222
 3277TIP3   OH231389   5.122   2.486   1.377
 3277TIP3    H131390   5.065   2.522   1.445
 3277TIP3    H231391   5.189   2.438   1.426
 3278TIP3   OH231392   1.405   4.558   0.264
 3278TIP3    H131393   1.455   4.610   0.327
 3278TIP3    H231394   1.440   4.583   0.179
 3279TIP3   OH231395   5.089   0.624   7.246
 3279TIP3    H131396   5.156   0.628   7.314
 3279TIP3    H231397   5.137   0.597   7.167
 3280TIP3   OH231398   6.844   0.305   0.770
 3280TIP3    H131399   6.806   0.260   0.845
 3280TIP3    H231400   0.012   0.235   0.709
 3281TIP3   OH231401   0.921   5.940   7.783
 3281TIP3    H131402   0.947   5.892   7.861
 3281TIP3    H231403   0.942   5.881   7.710
 3282TIP3   OH231404   0.482   2.782   1.743
 3282TIP3    H131405   0.565   2.829   1.756
 3282TIP3    H231406   0.416   2.840   1.782
 3283TIP3   OH231407   5.588   5.181   0.389
 3283TIP3    H131408   5.558   5.096   0.421
 3283TIP3    H231409   5.656   5.208   0.452
 3284TIP3   OH231410   3.732   6.070   0.528
 3284TIP3    H131411   3.769   6.158   0.538
 3284TIP3    H231412   3.807   6.016   0.502
 3285TIP3   OH231413   0.168   1.160   7.594
 3285TIP3    H131414   0.192   1.090   7.654
 3285TIP3    H231415   0.218   1.235   7.623
 3286TIP3   OH231416   6.197   1.767   2.418
 3286TIP3    H131417   6.184   1.812   2.501
 3286TIP3    H231418   6.242   1.831   2.363
 3287TIP3   OH231419   0.787   5.374   1.335
 3287TIP3    H131420   0.874   5.408   1.357
 3287TIP3    H231421   0.726   5.438   1.371
 3288TIP3   OH231422   4.823   6.579   1.699
 3288TIP3    H131423   4.803   6.646   1.634
 3288TIP3    H231424   4.749   6.582   1.760
 3289TIP3   OH231425   2.254   1.103   0.133
 3289TIP3    H131426   2.338   1.098   0.178
 3289TIP3    H231427   2.236   1.197   0.125
 3290TIP3   OH231428   6.383   0.912   1.494
 3290TIP3    H131429   6.334   0.947   1.569
 3290TIP3    H231430   6.371   0.818   1.500
 3291TIP3   OH231431   4.489   5.713   1.939
 3291TIP3    H131432   4.478   5.797   1.985
 3291TIP3    H231433   4.513   5.738   1.850
 3292TIP3   OH231434   4.345   3.813   1.503
 3292TIP3    H131435   4.258   3.812   1.543
 3292TIP3    H231436   4.397   3.754   1.557
 3293TIP3   OH231437   3.968   4.346   6.367
 3293TIP3    H131438   4.025   4.275   6.335
 3293TIP3    H231439   4.027   4.404   6.415
 3294TIP3   OH231440   3.788   2.207   7.937
 3294TIP3    H131441   3.824   2.148   7.871
 3294TIP3    H231442   3.815   2.295   7.909
 3295TIP3   OH231443   3.585   0.377   7.065
 3295TIP3    H131444   3.594   0.341   6.977
 3295TIP3    H231445   3.641   0.454   7.066
 3296TIP3   OH231446   4.168   0.878   2.595
 3296TIP3    H131447   4.105   0.813   2.625
 3296TIP3    H231448   4.134   0.961   2.627
 3297TIP3   OH231449   0.498   1.387   7.987
 3297TIP3    H131450   0.565   1.321   8.001
 3297TIP3    H231451   0.468   1.409   8.076
 3298TIP3   OH231452   6.236   6.133   0.849
 3298TIP3    H131453   6.204   6.112   0.936
 3298TIP3    H231454   6.316   6.183   0.864
 3299TIP3   OH231455   1.404   2.783   8.407
 3299TIP3    H131456   1.340   2.718   8.436
 3299TIP3    H231457   1.489   2.742   8.426
 3300TIP3   OH231458   5.500   2.757   1.971
 3300TIP3    H131459   5.449   2.681   2.001
 3300TIP3    H231460   5.571   2.764   2.034
 3301TIP3   OH231461   2.690   4.917   6.555
 3301TIP3    H131462   2.719   4.873   6.475
 3301TIP3    H231463   2.677   5.008   6.529
 3302TIP3   OH231464   2.895   3.101   1.659
 3302TIP3    H131465   2.931   3.074   1.575
 3302TIP3    H231466   2.960   3.072   1.723
 3303TIP3   OH231467   1.900   1.000   6.512
 3303TIP3    H131468   1.971   0.943   6.542
 3303TIP3    H231469   1.820   0.956   6.541
 3304TIP3   OH231470   3.649   0.906   0.794
 3304TIP3    H131471   3.595   0.947   0.726
 3304TIP3    H231472   3.698   0.838   0.749
 3305TIP3   OH231473   0.599   6.100   8.121
 3305TIP3    H131474   0.539   6.105   8.046
 3305TIP3    H231475   0.685   6.120   8.085
 3306TIP3   OH231476   3.160   2.749   1.221
 3306TIP3    H131477   3.090   2.758   1.285
 3306TIP3    H231478   3.240   2.762   1.272
 3307TIP3   OH231479   2.610   4.995   7.007
 3307TIP3    H131480   2.684   5.003   6.946
 3307TIP3    H231481   2.641   5.038   7.087
 3308TIP3   OH231482   2.916   0.889   8.437
 3308TIP3    H131483   2.923   0.819   8.372
 3308TIP3    H231484   2.901   0.845   8.520
 3309TIP3   OH231485   5.319   2.847   6.967
 3309TIP3    H131486   5.326   2.939   6.942
 3309TIP3    H231487   5.253   2.811   6.908
 3310TIP3   OH231488   3.232   4.983   7.843
 3310TIP3    H131489   3.179   5.057   7.815
 3310TIP3    H231490   3.179   4.906   7.822
 3311TIP3   OH231491   3.232   6.776   7.650
 3311TIP3    H131492   3.228   0.012   7.626
 3311TIP3    H231493   3.197   6.772   7.739
 3312TIP3   OH231494   5.614   5.252   1.517
 3312TIP3    H131495   5.706   5.273   1.533
 3312TIP3    H231496   5.568   5.286   1.594
 3313TIP3   OH231497   1.599   4.182   8.041
 3313TIP3    H131498   1.554   4.266   8.029
 3313TIP3    H231499   1.542   4.118   7.999
 3314TIP3   OH231500   1.980   2.680   6.336
 3314TIP3    H131501   2.071   2.686   6.364
 3314TIP3    H231502   1.976   2.599   6.284
 3315TIP3   OH231503   0.786   3.987   0.996
 3315TIP3    H131504   0.791   4.071   1.041
 3315TIP3    H231505   0.876   3.955   0.994
 3316TIP3   OH231506   1.279   0.333   1.736
 3316TIP3    H131507   1.338   0.282   1.791
 3316TIP3    H231508   1.335   0.364   1.665
 3317TIP3   OH231509   6.569   3.232   7.237
 3317TIP3    H131510   6.659   3.252   7.211
 3317TIP3    H231511   6.564   3.260   7.329
 3318TIP3   OH231512   3.314   0.210   6.856
 3318TIP3    H131513   3.407   0.229   6.851
 3318TIP3    H231514   3.307   0.138   6.918
 3319TIP3   OH231515   5.677   3.800   6.607
 3319TIP3    H131516   5.685   3.842   6.693
 3319TIP3    H231517   5.669   3.707   6.627
 3320TIP3   OH231518   1.791   3.982   8.040
 3320TIP3    H131519   1.741   4.056   8.005
 3320TIP3    H231520   1.725   3.915   8.058
 3321TIP3   OH231521   0.935   5.214   1.011
 3321TIP3    H131522   0.900   5.303   1.016
 3321TIP3    H231523   1.000   5.217   0.941
 3322TIP3   OH231524   5.226   0.704   7.670
 3322TIP3    H131525   5.169   0.634   7.636
 3322TIP3    H231526   5.172   0.749   7.734
 3323TIP3   OH231527   5.587   0.009   7.725
 3323TIP3    H131528   5.611   0.100   7.739
 3323TIP3    H231529   5.599   6.824   7.810
 3324TIP3   OH231530   5.693   6.559   7.423
 3324TIP3    H131531   5.700   6.464   7.427
 3324TIP3    H231532   5.750   6.585   7.350
 3325TIP3   OH231533   6.315   2.853   6.300
 3325TIP3    H131534   6.287   2.934   6.257
 3325TIP3    H231535   6.396   2.829   6.255
 3326TIP3   OH231536   2.587   3.892   0.803
 3326TIP3    H131537   2.624   3.857   0.721
 3326TIP3    H231538   2.496   3.862   0.802
 3327TIP3   OH231539   3.725   5.892   6.507
 3327TIP3    H131540   3.794   5.886   6.442
 3327TIP3    H231541   3.665   5.820   6.486
 3328TIP3   OH231542   1.254   1.476   0.567
 3328TIP3    H131543   1.218   1.562   0.548
 3328TIP3    H231544   1.205   1.444   0.642
 3329TIP3   OH231545   0.737   5.837   1.233
 3329TIP3    H131546   0.800   5.811   1.300
 3329TIP3    H231547   0.682   5.759   1.220
 3330TIP3   OH231548   5.203   4.570   1.083
 3330TIP3    H131549   5.123   4.528   1.115
 3330TIP3    H231550   5.265   4.499   1.072
 3331TIP3   OH231551   3.309   4.161   7.345
 3331TIP3    H131552   3.279   4.239   7.392
 3331TIP3    H231553   3.359   4.196   7.271
 3332TIP3   OH231554   1.368   6.545   7.283
 3332TIP3    H131555   1.333   6.626   7.246
 3332TIP3    H231556   1.394   6.493   7.207
 3333TIP3   OH231557   1.838   5.021   7.178
 3333TIP3    H131558   1.848   5.114   7.160
 3333TIP3    H231559   1.837   4.980   7.092
 3334TIP3   OH231560   6.624   4.669   1.764
 3334TIP3    H131561   6.692   4.612   1.727
 3334TIP3    H231562   6.601   4.629   1.848
 3335TIP3   OH231563   0.357   1.394   1.023
 3335TIP3    H131564   0.395   1.348   0.948
 3335TIP3    H231565   0.272   1.352   1.036
 3336TIP3   OH231566   6.697   6.385   6.974
 3336TIP3    H131567   6.608   6.352   6.962
 3336TIP3    H231568   6.701   6.407   7.067
 3337TIP3   OH231569   1.545   0.239   0.045
 3337TIP3    H131570   1.482   0.237   8.686
 3337TIP3    H231571   1.564   0.147   0.063
 3338TIP3   OH231572   5.072   4.860   1.490
 3338TIP3    H131573   5.083   4.927   1.558
 3338TIP3    H231574   5.055   4.910   1.410
 3339TIP3   OH231575   0.961   2.294   0.220
 3339TIP3    H131576   0.965   2.201   0.240
 3339TIP3    H231577   0.997   2.337   0.298
 3340TIP3   OH231578   1.977   1.784   1.079
 3340TIP3    H131579   2.013   1.872   1.086
 3340TIP3    H231580   1.882   1.797   1.076
 3341TIP3   OH231581   6.689   1.408   8.259
 3341TIP3    H131582   6.597   1.434   8.270
 3341TIP3    H231583   6.720   1.392   8.348
 3342TIP3   OH231584   2.515   1.978   8.708
 3342TIP3    H131585   2.464   1.897   8.701
 3342TIP3    H231586   2.471   2.028   0.063
 3343TIP3   OH231587   6.291   0.653   1.552
 3343TIP3    H131588   6.338   0.588   1.501
 3343TIP3    H231589   6.200   0.624   1.551
 3344TIP3   OH231590   3.764   4.842   0.455
 3344TIP3    H131591   3.851   4.805   0.470
 3344TIP3    H231592   3.707   4.797   0.517
 3345TIP3   OH231593   4.718   3.094   0.706
 3345TIP3    H131594   4.664   3.107   0.784
 3345TIP3    H231595   4.805   3.124   0.733
 3346TIP3   OH231596   1.609   1.333   8.268
 3346TIP3    H131597   1.618   1.424   8.240
 3346TIP3    H231598   1.699   1.303   8.283
 3347TIP3   OH231599   2.554   1.414   0.737
 3347TIP3    H131600   2.524   1.416   0.828
 3347TIP3    H231601   2.473   1.407   0.686
 3348TIP3   OH231602   0.006   5.386   8.606
 3348TIP3    H131603   0.004   5.450   8.534
 3348TIP3    H231604   6.789   5.328   8.588
 3349TIP3   OH231605   6.106   4.790   7.372
 3349TIP3    H131606   6.051   4.776   7.295
 3349TIP3    H231607   6.048   4.834   7.435
 3350TIP3   OH231608   4.027   5.363   6.246
 3350TIP3    H131609   4.069   5.279   6.228
 3350TIP3    H231610   4.089   5.428   6.214
 3351TIP3   OH231611   0.712   5.221   7.166
 3351TIP3    H131612   0.626   5.251   7.194
 3351TIP3    H231613   0.771   5.294   7.185
 3352TIP3   OH231614   3.371   5.589   0.022
 3352TIP3    H131615   3.317   5.667   0.029
 3352TIP3    H231616   3.437   5.611   8.670
 3353TIP3   OH231617   4.400   3.655   0.399
 3353TIP3    H131618   4.427   3.747   0.394
 3353TIP3    H231619   4.381   3.631   0.308
 3354TIP3   OH231620   5.480   2.990   7.501
 3354TIP3    H131621   5.564   2.965   7.537
 3354TIP3    H231622   5.434   2.908   7.486
 3355TIP3   OH231623   0.278   2.163   6.972
 3355TIP3    H131624   0.346   2.223   7.003
 3355TIP3    H231625   0.276   2.093   7.037
 3356TIP3   OH231626   0.220   3.024   0.769
 3356TIP3    H131627   0.215   3.018   0.865
 3356TIP3    H231628   0.226   2.933   0.740
 3357TIP3   OH231629   3.932   5.858   0.432
 3357TIP3    H131630   3.944   5.876   0.339
 3357TIP3    H231631   4.008   5.898   0.475
 3358TIP3   OH231632   5.175   2.728   0.826
 3358TIP3    H131633   5.131   2.744   0.743
 3358TIP3    H231634   5.253   2.784   0.824
 3359TIP3   OH231635   6.026   3.006   8.296
 3359TIP3    H131636   6.097   2.942   8.305
 3359TIP3    H231637   5.969   2.969   8.228
 3360TIP3   OH231638   3.060   6.743   1.782
 3360TIP3    H131639   3.132   6.787   1.827
 3360TIP3    H231640   3.077   6.758   1.689
 3361TIP3   OH231641   4.603   1.178   0.227
 3361TIP3    H131642   4.653   1.220   0.297
 3361TIP3    H231643   4.609   1.238   0.153
 3362TIP3   OH231644   6.346   3.388   0.642
 3362TIP3    H131645   6.343   3.441   0.562
 3362TIP3    H231646   6.303   3.306   0.617
 3363TIP3   OH231647   0.298   0.928   0.476
 3363TIP3    H131648   0.388   0.945   0.505
 3363TIP3    H231649   0.285   0.989   0.403
 3364TIP3   OH231650   5.255   3.560   8.437
 3364TIP3    H131651   5.329   3.620   8.445
 3364TIP3    H231652   5.184   3.604   8.485
 3365TIP3   OH231653   3.890   5.972   6.922
 3365TIP3    H131654   3.923   6.028   6.852
 3365TIP3    H231655   3.904   5.883   6.890
 3366TIP3   OH231656   0.685   2.204   0.557
 3366TIP3    H131657   0.766   2.158   0.577
 3366TIP3    H231658   0.616   2.146   0.589
 3367TIP3   OH231659   6.542   1.360   7.979
 3367TIP3    H131660   6.560   1.272   7.945
 3367TIP3    H231661   6.603   1.417   7.933
 3368TIP3   OH231662   4.017   4.501   0.133
 3368TIP3    H131663   4.034   4.445   0.057
 3368TIP3    H231664   4.015   4.590   0.098
 3369TIP3   OH231665   6.320   1.464   2.126
 3369TIP3    H131666   6.339   1.439   2.035
 3369TIP3    H231667   6.331   1.383   2.175
 3370TIP3   OH231668   1.916   0.295   1.629
 3370TIP3    H131669   1.824   0.293   1.603
 3370TIP3    H231670   1.947   0.381   1.601
 3371TIP3   OH231671   0.320   1.526   8.274
 3371TIP3    H131672   0.285   1.441   8.298
 3371TIP3    H231673   0.245   1.586   8.282
 3372TIP3   OH231674   1.724   1.454   6.408
 3372TIP3    H131675   1.794   1.396   6.378
 3372TIP3    H231676   1.751   1.541   6.377
 3373TIP3   OH231677   1.385   5.312   7.626
 3373TIP3    H131678   1.335   5.311   7.545
 3373TIP3    H231679   1.468   5.271   7.604
 3374TIP3   OH231680   2.775   1.902   8.693
 3374TIP3    H131681   2.759   1.811   0.002
 3374TIP3    H231682   2.690   1.945   8.704
 3375TIP3   OH231683   3.970   5.819   7.582
 3375TIP3    H131684   3.913   5.856   7.650
 3375TIP3    H231685   4.027   5.891   7.556
 3376TIP3   OH231686   6.743   2.443   2.328
 3376TIP3    H131687   6.830   2.405   2.325
 3376TIP3    H231688   6.757   2.532   2.361
 3377TIP3   OH231689   5.734   6.641   1.448
 3377TIP3    H131690   5.704   6.597   1.369
 3377TIP3    H231691   5.775   6.722   1.416
 3378TIP3   OH231692   2.399   2.989   1.637
 3378TIP3    H131693   2.463   3.060   1.635
 3378TIP3    H231694   2.389   2.967   1.729
 3379TIP3   OH231695   3.659   1.291   0.654
 3379TIP3    H131696   3.672   1.342   0.574
 3379TIP3    H231697   3.747   1.282   0.690
 3380TIP3   OH231698   2.115   1.753   0.812
 3380TIP3    H131699   2.097   1.780   0.902
 3380TIP3    H231700   2.187   1.810   0.784
 3381TIP3   OH231701   3.547   2.937   8.136
 3381TIP3    H131702   3.519   2.868   8.075
 3381TIP3    H231703   3.630   2.968   8.100
 3382TIP3   OH231704   4.601   3.219   8.492
 3382TIP3    H131705   4.521   3.271   8.499
 3382TIP3    H231706   4.569   3.129   8.478
 3383TIP3   OH231707   4.847   4.096   1.289
 3383TIP3    H131708   4.921   4.098   1.349
 3383TIP3    H231709   4.792   4.169   1.316
 3384TIP3   OH231710   4.446   1.322   7.589
 3384TIP3    H131711   4.502   1.337   7.513
 3384TIP3    H231712   4.476   1.385   7.654
 3385TIP3   OH231713   5.957   1.456   0.819
 3385TIP3    H131714   6.014   1.450   0.896
 3385TIP3    H231715   5.868   1.458   0.856
 3386TIP3   OH231716   4.492   2.152   0.646
 3386TIP3    H131717   4.561   2.163   0.581
 3386TIP3    H231718   4.538   2.130   0.727
 3387TIP3   OH231719   4.320   4.648   0.254
 3387TIP3    H131720   4.371   4.659   0.174
 3387TIP3    H231721   4.324   4.554   0.272
 3388TIP3   OH231722   5.816   0.579   0.150
 3388TIP3    H131723   5.727   0.563   0.184
 3388TIP3    H231724   5.803   0.624   0.067
 3389TIP3   OH231725   5.959   6.836   1.265
 3389TIP3    H131726   5.903   0.012   1.195
 3389TIP3    H231727   6.011   6.767   1.224
 3390TIP3   OH231728   2.393   2.522   1.692
 3390TIP3    H131729   2.317   2.477   1.730
 3390TIP3    H231730   2.358   2.606   1.662
 3391TIP3   OH231731   1.091   2.891   0.507
 3391TIP3    H131732   1.030   2.864   0.438
 3391TIP3    H231733   1.167   2.834   0.495
 3392TIP3   OH231734   3.845   6.834   0.526
 3392TIP3    H131735   3.827   6.797   0.440
 3392TIP3    H231736   3.780   0.046   0.538
 3393TIP3   OH231737   2.254   0.166   6.753
 3393TIP3    H131738   2.222   0.156   6.843
 3393TIP3    H231739   2.330   0.109   6.747
 3394TIP3   OH231740   1.242   1.970   0.041
 3394TIP3    H131741   1.216   1.959   0.133
 3394TIP3    H231742   1.323   2.019   0.045
 3395TIP3   OH231743   3.608   0.182   0.637
 3395TIP3    H131744   3.537   0.207   0.696
 3395TIP3    H231745   3.624   0.260   0.583
 3396TIP3   OH231746   1.193   2.918   6.619
 3396TIP3    H131747   1.108   2.878   6.602
 3396TIP3    H231748   1.256   2.845   6.614
 3397TIP3   OH231749   6.450   5.564   7.894
 3397TIP3    H131750   6.366   5.606   7.873
 3397TIP3    H231751   6.446   5.480   7.848
 3398TIP3   OH231752   0.785   4.227   7.863
 3398TIP3    H131753   0.859   4.285   7.845
 3398TIP3    H231754   0.815   4.140   7.836
 3399TIP3   OH231755   0.367   3.532   7.715
 3399TIP3    H131756   0.344   3.541   7.623
 3399TIP3    H231757   0.307   3.590   7.761
 3400TIP3   OH231758   5.835   2.374   6.138
 3400TIP3    H131759   5.910   2.400   6.085
 3400TIP3    H231760   5.873   2.346   6.221
 3401TIP3   OH231761   0.084   1.697   0.092
 3401TIP3    H131762   0.080   1.605   0.066
 3401TIP3    H231763   0.013   1.708   0.154
 3402TIP3   OH231764   1.908   5.113   6.261
 3402TIP3    H131765   1.934   5.021   6.261
 3402TIP3    H231766   1.813   5.112   6.261
 3403TIP3   OH231767   3.569   5.813   1.390
 3403TIP3    H131768   3.657   5.801   1.353
 3403TIP3    H231769   3.578   5.790   1.482
 3404TIP3   OH231770   1.508   2.046   7.996
 3404TIP3    H131771   1.585   2.042   8.054
 3404TIP3    H231772   1.487   1.954   7.979
 3405TIP3   OH231773   6.364   5.516   2.092
 3405TIP3    H131774   6.457   5.509   2.111
 3405TIP3    H231775   6.339   5.602   2.126
 3406TIP3   OH231776   3.518   2.089   7.863
 3406TIP3    H131777   3.605   2.087   7.904
 3406TIP3    H231778   3.500   2.182   7.850
 3407TIP3   OH231779   2.945   3.199   7.310
 3407TIP3    H131780   3.024   3.205   7.257
 3407TIP3    H231781   2.973   3.222   7.399
 3408TIP3   OH231782   3.762   2.544   1.080
 3408TIP3    H131783   3.776   2.636   1.103
 3408TIP3    H231784   3.712   2.547   0.999
 3409TIP3   OH231785   2.267   2.698   1.297
 3409TIP3    H131786   2.219   2.752   1.360
 3409TIP3    H231787   2.245   2.608   1.322
 3410TIP3   OH231788   1.777   4.487   8.459
 3410TIP3    H131789   1.721   4.411   8.476
 3410TIP3    H231790   1.859   4.448   8.427
 3411TIP3   OH231791   1.048   0.195   7.294
 3411TIP3    H131792   1.032   0.116   7.344
 3411TIP3    H231793   1.139   0.217   7.311
 3412TIP3   OH231794   0.594   0.742   7.246
 3412TIP3    H131795   0.559   0.781   7.166
 3412TIP3    H231796   0.571   0.804   7.315
 3413TIP3   OH231797   3.538   0.806   7.422
 3413TIP3    H131798   3.560   0.715   7.400
 3413TIP3    H231799   3.527   0.806   7.517
 3414TIP3   OH231800   6.040   1.483   8.507
 3414TIP3    H131801   6.040   1.432   8.588
 3414TIP3    H231802   6.049   1.418   8.438
 3415TIP3   OH231803   4.962   5.923   8.071
 3415TIP3    H131804   4.878   5.919   8.025
 3415TIP3    H231805   5.011   5.847   8.038
 3416TIP3   OH231806   3.626   1.432   7.847
 3416TIP3    H131807   3.656   1.406   7.933
 3416TIP3    H231808   3.553   1.372   7.828
 3417TIP3   OH231809   1.297   5.966   1.997
 3417TIP3    H131810   1.205   5.974   1.974
 3417TIP3    H231811   1.310   5.872   2.012
 3418TIP3   OH231812   4.244   0.250   6.669
 3418TIP3    H131813   4.226   0.284   6.582
 3418TIP3    H231814   4.253   0.328   6.724
 3419TIP3   OH231815   4.255   4.390   6.749
 3419TIP3    H131816   4.214   4.429   6.672
 3419TIP3    H231817   4.242   4.296   6.739
 3420TIP3   OH231818   2.829   6.055   1.355
 3420TIP3    H131819   2.858   6.139   1.388
 3420TIP3    H231820   2.909   6.004   1.343
 3421TIP3   OH231821   5.793   4.197   6.684
 3421TIP3    H131822   5.782   4.189   6.589
 3421TIP3    H231823   5.802   4.291   6.700
 3422TIP3   OH231824   3.341   0.325   0.286
 3422TIP3    H131825   3.264   0.370   0.252
 3422TIP3    H231826   3.404   0.326   0.213
 3423TIP3   OH231827   4.718   3.959   0.400
 3423TIP3    H131828   4.628   3.988   0.386
 3423TIP3    H231829   4.723   3.943   0.495
 3424TIP3   OH231830   6.762   4.221   1.913
 3424TIP3    H131831   6.814   4.291   1.952
 3424TIP3    H231832   6.827   4.162   1.875
 3425TIP3   OH231833   0.811   1.558   0.581
 3425TIP3    H131834   0.751   1.610   0.635
 3425TIP3    H231835   0.783   1.576   0.491
 3426TIP3   OH231836   5.545   5.612   2.361
 3426TIP3    H131837   5.632   5.626   2.397
 3426TIP3    H231838   5.541   5.518   2.345
 3427TIP3   OH231839   0.439   1.835   1.982
 3427TIP3    H131840   0.482   1.920   1.974
 3427TIP3    H231841   0.347   1.853   1.967
 3428TIP3   OH231842   5.333   6.462   1.210
 3428TIP3    H131843   5.324   6.373   1.177
 3428TIP3    H231844   5.405   6.458   1.273
 3429TIP3   OH231845   1.874   2.421   6.968
 3429TIP3    H131846   1.889   2.366   7.045
 3429TIP3    H231847   1.910   2.371   6.895
 3430TIP3   OH231848   5.698   5.755   1.606
 3430TIP3    H131849   5.646   5.834   1.593
 3430TIP3    H231850   5.707   5.717   1.518
 3431TIP3   OH231851   5.604   2.279   8.343
 3431TIP3    H131852   5.640   2.351   8.292
 3431TIP3    H231853   5.530   2.316   8.391
 3432TIP3   OH231854   0.145   1.151   0.179
 3432TIP3    H131855   0.157   1.073   0.125
 3432TIP3    H231856   0.219   1.149   0.240
 3433TIP3   OH231857   5.598   3.624   7.442
 3433TIP3    H131858   5.541   3.637   7.519
 3433TIP3    H231859   5.610   3.530   7.437
 3434TIP3   OH231860   6.626   3.473   2.395
 3434TIP3    H131861   6.609   3.388   2.435
 3434TIP3    H231862   6.668   3.452   2.312
 3435TIP3   OH231863   5.905   0.824   8.117
 3435TIP3    H131864   5.930   0.737   8.085
 3435TIP3    H231865   5.887   0.875   8.038
 3436TIP3   OH231866   0.426   4.044   7.156
 3436TIP3    H131867   0.514   4.008   7.152
 3436TIP3    H231868   0.368   3.968   7.150
 3437TIP3   OH231869   0.133   0.204   2.372
 3437TIP3    H131870   0.088   0.198   2.456
 3437TIP3    H231871   0.225   0.182   2.392
 3438TIP3   OH231872   6.105   0.940   8.491
 3438TIP3    H131873   6.082   0.999   8.563
 3438TIP3    H231874   6.120   0.856   8.534
 3439TIP3   OH231875   3.110   0.482   7.343
 3439TIP3    H131876   3.170   0.506   7.413
 3439TIP3    H231877   3.166   0.473   7.266
 3440TIP3   OH231878   1.643   0.413   7.178
 3440TIP3    H131879   1.656   0.386   7.087
 3440TIP3    H231880   1.730   0.437   7.209
 3441TIP3   OH231881   3.879   1.424   6.988
 3441TIP3    H131882   3.843   1.340   6.960
 3441TIP3    H231883   3.862   1.483   6.914
 3442TIP3   OH231884   1.486   2.072   7.141
 3442TIP3    H131885   1.404   2.067   7.190
 3442TIP3    H231886   1.459   2.060   7.050
 3443TIP3   OH231887   6.095   5.374   2.360
 3443TIP3    H131888   6.130   5.310   2.298
 3443TIP3    H231889   6.089   5.455   2.310
 3444TIP3   OH231890   0.005   3.660   6.689
 3444TIP3    H131891   6.839   3.643   6.781
 3444TIP3    H231892   6.798   3.726   6.661
 3445TIP3   OH231893   5.569   5.197   1.809
 3445TIP3    H131894   5.585   5.240   1.893
 3445TIP3    H231895   5.482   5.159   1.818
 3446TIP3   OH231896   5.854   4.786   2.442
 3446TIP3    H131897   5.828   4.876   2.427
 3446TIP3    H231898   5.799   4.757   2.515
 3447TIP3   OH231899   2.867   1.633   7.142
 3447TIP3    H131900   2.773   1.629   7.121
 3447TIP3    H231901   2.898   1.711   7.097
 3448TIP3   OH231902   2.339   2.027   0.218
 3448TIP3    H131903   2.403   2.077   0.269
 3448TIP3    H231904   2.320   1.950   0.271
 3449TIP3   OH231905   3.054   5.099   1.730
 3449TIP3    H131906   2.985   5.166   1.735
 3449TIP3    H231907   3.052   5.056   1.816
 3450TIP3   OH231908   3.222   6.679   8.163
 3450TIP3    H131909   3.139   6.640   8.135
 3450TIP3    H231910   3.288   6.637   8.108
 3451TIP3   OH231911   3.946   3.344   7.766
 3451TIP3    H131912   3.898   3.262   7.778
 3451TIP3    H231913   3.979   3.340   7.677
 3452TIP3   OH231914   6.275   1.828   1.198
 3452TIP3    H131915   6.212   1.756   1.206
 3452TIP3    H231916   6.238   1.898   1.254
 3453TIP3   OH231917   5.237   6.356   7.381
 3453TIP3    H131918   5.151   6.393   7.400
 3453TIP3    H231919   5.244   6.357   7.286
 3454TIP3   OH231920   4.766   2.197   7.396
 3454TIP3    H131921   4.765   2.103   7.412
 3454TIP3    H231922   4.855   2.225   7.421
 3455TIP3   OH231923   4.373   2.471   1.179
 3455TIP3    H131924   4.311   2.528   1.225
 3455TIP3    H231925   4.432   2.531   1.133
 3456TIP3   OH231926   0.855   3.667   0.615
 3456TIP3    H131927   0.950   3.680   0.617
 3456TIP3    H231928   0.821   3.736   0.673
 3457TIP3   OH231929   0.171   4.748   7.321
 3457TIP3    H131930   0.244   4.690   7.300
 3457TIP3    H231931   0.209   4.836   7.319
 3458TIP3   OH231932   5.284   3.649   0.538
 3458TIP3    H131933   5.326   3.733   0.554
 3458TIP3    H231934   5.194   3.661   0.566
 3459TIP3   OH231935   3.733   5.790   7.277
 3459TIP3    H131936   3.787   5.869   7.279
 3459TIP3    H231937   3.672   5.803   7.204
 3460TIP3   OH231938   1.468   1.547   7.272
 3460TIP3    H131939   1.433   1.482   7.211
 3460TIP3    H231940   1.435   1.631   7.240
 3461TIP3   OH231941   4.008   4.026   1.914
 3461TIP3    H131942   3.952   4.084   1.863
 3461TIP3    H231943   4.016   4.068   1.999
 3462TIP3   OH231944   0.656   4.994   1.765
 3462TIP3    H131945   0.692   4.989   1.854
 3462TIP3    H231946   0.668   5.086   1.740
 3463TIP3   OH231947   2.001   6.570   0.815
 3463TIP3    H131948   1.936   6.547   0.881
 3463TIP3    H231949   1.953   6.622   0.751
 3464TIP3   OH231950   4.022   4.038   0.322
 3464TIP3    H131951   3.970   4.012   0.398
 3464TIP3    H231952   4.074   4.112   0.353
 3465TIP3   OH231953   1.854   1.161   8.320
 3465TIP3    H131954   1.905   1.217   8.379
 3465TIP3    H231955   1.905   1.081   8.312
 3466TIP3   OH231956   6.364   1.058   7.657
 3466TIP3    H131957   6.420   1.031   7.584
 3466TIP3    H231958   6.296   0.991   7.661
 3467TIP3   OH231959   1.752   3.181   2.143
 3467TIP3    H131960   1.835   3.217   2.114
 3467TIP3    H231961   1.774   3.093   2.175
 3468TIP3   OH231962   3.394   1.267   1.125
 3468TIP3    H131963   3.437   1.329   1.066
 3468TIP3    H231964   3.417   1.180   1.090
 3469TIP3   OH231965   2.078   1.256   7.891
 3469TIP3    H131966   2.102   1.260   7.983
 3469TIP3    H231967   2.094   1.344   7.857
 3470TIP3   OH231968   1.303   0.314   1.149
 3470TIP3    H131969   1.364   0.356   1.088
 3470TIP3    H231970   1.244   0.384   1.176
 3471TIP3   OH231971   6.255   5.921   7.596
 3471TIP3    H131972   6.242   6.010   7.564
 3471TIP3    H231973   6.207   5.866   7.534
 3472TIP3   OH231974   1.493   5.839   1.661
 3472TIP3    H131975   1.431   5.911   1.661
 3472TIP3    H231976   1.505   5.817   1.754
 3473TIP3   OH231977   0.410   1.542   0.418
 3473TIP3    H131978   0.315   1.532   0.411
 3473TIP3    H231979   0.422   1.628   0.458
 3474TIP3   OH231980   4.267   6.818   6.624
 3474TIP3    H131981   4.301   0.046   6.594
 3474TIP3    H231982   4.175   6.835   6.645
 3475TIP3   OH231983   4.458   6.017   1.974
 3475TIP3    H131984   4.485   6.055   2.058
 3475TIP3    H231985   4.383   6.071   1.946
 3476TIP3   OH231986   1.076   3.934   0.981
 3476TIP3    H131987   1.125   4.015   0.987
 3476TIP3    H231988   1.063   3.907   1.072
 3477TIP3   OH231989   2.239   2.489   7.974
 3477TIP3    H131990   2.317   2.437   7.994
 3477TIP3    H231991   2.182   2.428   7.928
 3478TIP3   OH231992   1.292   6.650   8.344
 3478TIP3    H131993   1.248   6.725   8.303
 3478TIP3    H231994   1.284   6.580   8.279
 3479TIP3   OH231995   6.528   5.619   8.143
 3479TIP3    H131996   6.509   5.562   8.068
 3479TIP3    H231997   6.469   5.693   8.132
 3480TIP3   OH231998   0.832   4.953   1.976
 3480TIP3    H131999   0.803   4.999   2.055
 3480TIP3    H232000   0.887   4.882   2.009
 3481TIP3   OH232001   3.700   1.490   1.312
 3481TIP3    H132002   3.617   1.514   1.272
 3481TIP3    H232003   3.709   1.397   1.294
 3482TIP3   OH232004   2.182   1.616   0.073
 3482TIP3    H132005   2.214   1.620   0.163
 3482TIP3    H232006   2.087   1.606   0.081
 3483TIP3   OH232007   4.982   0.578   0.464
 3483TIP3    H132008   5.039   0.546   0.534
 3483TIP3    H232009   5.028   0.556   0.383
 3484TIP3   OH232010   6.809   3.357   8.480
 3484TIP3    H132011   6.851   3.373   8.396
 3484TIP3    H232012   6.724   3.319   8.458
 3485TIP3   OH232013   5.219   3.677   8.167
 3485TIP3    H132014   5.126   3.680   8.148
 3485TIP3    H232015   5.245   3.769   8.171
 3486TIP3   OH232016   1.255   2.077   1.097
 3486TIP3    H132017   1.226   2.166   1.117
 3486TIP3    H232018   1.306   2.051   1.174
 3487TIP3   OH232019   1.838   3.283   7.633
 3487TIP3    H132020   1.813   3.243   7.549
 3487TIP3    H232021   1.903   3.348   7.609
 3488TIP3   OH232022   0.175   6.290   0.481
 3488TIP3    H132023   0.188   6.297   0.576
 3488TIP3    H232024   0.103   6.228   0.470
 3489TIP3   OH232025   4.023   6.584   6.192
 3489TIP3    H132026   4.022   6.491   6.170
 3489TIP3    H232027   4.056   6.587   6.282
 3490TIP3   OH232028   5.991   0.153   8.339
 3490TIP3    H132029   5.939   0.171   8.261
 3490TIP3    H232030   5.971   0.225   8.399
 3491TIP3   OH232031   0.222   6.831   1.403
 3491TIP3    H132032   0.267   6.850   1.486
 3491TIP3    H232033   0.290   6.843   1.336
 3492TIP3   OH232034   1.307   5.518   1.668
 3492TIP3    H132035   1.241   5.516   1.738
 3492TIP3    H232036   1.311   5.610   1.642
 3493TIP3   OH232037   0.440   3.730   1.914
 3493TIP3    H132038   0.497   3.783   1.859
 3493TIP3    H232039   0.498   3.692   1.980
 3494TIP3   OH232040   2.052   4.628   7.953
 3494TIP3    H132041   2.082   4.583   8.032
 3494TIP3    H232042   1.957   4.636   7.965
 3495TIP3   OH232043   5.728   0.702   8.619
 3495TIP3    H132044   5.775   0.693   8.537
 3495TIP3    H232045   5.646   0.747   8.596
 3496TIP3   OH232046   5.946   0.727   0.789
 3496TIP3    H132047   6.026   0.696   0.747
 3496TIP3    H232048   5.965   0.723   0.883
 3497TIP3   OH232049   2.462   4.301   0.982
 3497TIP3    H132050   2.414   4.266   0.907
 3497TIP3    H232051   2.450   4.396   0.977
 3498TIP3   OH232052   5.506   0.874   0.678
 3498TIP3    H132053   5.574   0.870   0.746
 3498TIP3    H232054   5.520   0.795   0.626
 3499TIP3   OH232055   4.681   5.587   7.143
 3499TIP3    H132056   4.688   5.593   7.239
 3499TIP3    H232057   4.739   5.514   7.120
 3500TIP3   OH232058   1.394   4.894   1.853
 3500TIP3    H132059   1.483   4.928   1.848
 3500TIP3    H232060   1.338   4.971   1.846
 3501TIP3   OH232061   4.487   5.437   7.850
 3501TIP3    H132062   4.519   5.393   7.771
 3501TIP3    H232063   4.515   5.528   7.840
 3502TIP3   OH232064   4.937   5.617   0.580
 3502TIP3    H132065   4.918   5.553   0.511
 3502TIP3    H232066   4.873   5.597   0.648
 3503TIP3   OH232067   3.552   3.712   6.562
 3503TIP3    H132068   3.554   3.780   6.495
 3503TIP3    H232069   3.498   3.749   6.632
 3504TIP3   OH232070   0.836   2.821   8.412
 3504TIP3    H132071   0.846   2.884   8.484
 3504TIP3    H232072   0.799   2.743   8.454
 3505TIP3   OH232073   0.712   4.874   8.441
 3505TIP3    H132074   0.753   4.922   8.369
 3505TIP3    H232075   0.779   4.812   8.470
 3506TIP3   OH232076   5.992   6.406   7.283
 3506TIP3    H132077   5.956   6.349   7.215
 3506TIP3    H232078   5.971   6.361   7.365
 3507TIP3   OH232079   5.017   3.131   0.744
 3507TIP3    H132080   5.074   3.102   0.815
 3507TIP3    H232081   5.060   3.209   0.710
 3508TIP3   OH232082   4.533   1.907   7.591
 3508TIP3    H132083   4.459   1.846   7.589
 3508TIP3    H232084   4.534   1.939   7.682
 3509TIP3   OH232085   5.576   6.333   0.802
 3509TIP3    H132086   5.560   6.389   0.726
 3509TIP3    H232087   5.510   6.264   0.796
 3510TIP3   OH232088   1.970   6.020   8.629
 3510TIP3    H132089   2.020   5.944   8.657
 3510TIP3    H232090   1.886   5.984   8.600
 3511TIP3   OH232091   5.416   6.139   7.950
 3511TIP3    H132092   5.474   6.165   7.878
 3511TIP3    H232093   5.428   6.045   7.959
 3512TIP3   OH232094   1.551   4.157   1.049
 3512TIP3    H132095   1.590   4.196   1.127
 3512TIP3    H232096   1.623   4.108   1.008
 3513TIP3   OH232097   2.683   2.623   7.402
 3513TIP3    H132098   2.587   2.617   7.406
 3513TIP3    H232099   2.702   2.715   7.418
 3514TIP3   OH232100   1.530   5.604   7.432
 3514TIP3    H132101   1.435   5.618   7.440
 3514TIP3    H232102   1.546   5.522   7.477
 3515TIP3   OH232103   6.504   3.771   7.031
 3515TIP3    H132104   6.565   3.703   7.002
 3515TIP3    H232105   6.532   3.849   6.983
 3516TIP3   OH232106   4.286   5.467   8.545
 3516TIP3    H132107   4.243   5.400   8.599
 3516TIP3    H232108   4.379   5.449   8.553
 3517TIP3   OH232109   5.799   2.335   1.569
 3517TIP3    H132110   5.852   2.339   1.489
 3517TIP3    H232111   5.714   2.302   1.539
 3518TIP3   OH232112   4.263   0.241   1.452
 3518TIP3    H132113   4.230   0.219   1.365
 3518TIP3    H232114   4.198   0.204   1.512
 3519TIP3   OH232115   0.852   0.474   0.507
 3519TIP3    H132116   0.887   0.505   0.590
 3519TIP3    H232117   0.841   0.553   0.454
 3520TIP3   OH232118   4.827   3.225   8.036
 3520TIP3    H132119   4.831   3.131   8.053
 3520TIP3    H232120   4.845   3.266   8.120
 3521TIP3   OH232121   5.258   2.140   2.591
 3521TIP3    H132122   5.341   2.175   2.624
 3521TIP3    H232123   5.246   2.058   2.640
 3522TIP3   OH232124   2.457   2.960   0.036
 3522TIP3    H132125   2.372   2.931   0.070
 3522TIP3    H232126   2.485   3.027   0.098
 3523TIP3   OH232127   4.246   2.435   2.301
 3523TIP3    H132128   4.161   2.451   2.260
 3523TIP3    H232129   4.227   2.432   2.395
 3524TIP3   OH232130   1.558   6.507   8.414
 3524TIP3    H132131   1.479   6.559   8.424
 3524TIP3    H232132   1.527   6.416   8.407
 3525TIP3   OH232133   1.090   3.533   8.000
 3525TIP3    H132134   1.074   3.453   8.051
 3525TIP3    H232135   1.038   3.521   7.920
 3526TIP3   OH232136   5.741   2.380   0.921
 3526TIP3    H132137   5.773   2.308   0.975
 3526TIP3    H232138   5.650   2.357   0.902
 3527TIP3   OH232139   3.328   0.731   7.973
 3527TIP3    H132140   3.361   0.730   8.063
 3527TIP3    H232141   3.257   0.796   7.974
 3528TIP3   OH232142   6.314   1.717   8.404
 3528TIP3    H132143   6.230   1.718   8.450
 3528TIP3    H232144   6.379   1.724   8.474
 3529TIP3   OH232145   1.522   6.500   0.716
 3529TIP3    H132146   1.550   6.554   0.643
 3529TIP3    H232147   1.537   6.410   0.686
 3530TIP3   OH232148   1.569   5.120   6.602
 3530TIP3    H132149   1.587   5.030   6.629
 3530TIP3    H232150   1.642   5.171   6.637
 3531TIP3   OH232151   0.877   2.427   6.439
 3531TIP3    H132152   0.888   2.478   6.519
 3531TIP3    H232153   0.786   2.397   6.442
 3532TIP3   OH232154   3.453   6.138   0.805
 3532TIP3    H132155   3.393   6.133   0.880
 3532TIP3    H232156   3.506   6.059   0.812
 3533TIP3   OH232157   4.801   3.656   0.914
 3533TIP3    H132158   4.809   3.572   0.959
 3533TIP3    H232159   4.890   3.688   0.907
 3534TIP3   OH232160   2.032   4.437   0.842
 3534TIP3    H132161   1.941   4.450   0.867
 3534TIP3    H232162   2.030   4.423   0.748
 3535TIP3   OH232163   3.457   2.095   0.195
 3535TIP3    H132164   3.485   2.175   0.240
 3535TIP3    H232165   3.443   2.122   0.104
 3536TIP3   OH232166   0.776   3.194   8.220
 3536TIP3    H132167   0.784   3.252   8.296
 3536TIP3    H232168   0.791   3.251   8.144
 3537TIP3   OH232169   1.902   4.225   7.842
 3537TIP3    H132170   1.842   4.163   7.800
 3537TIP3    H232171   1.952   4.263   7.770
 3538TIP3   OH232172   1.216   6.303   1.029
 3538TIP3    H132173   1.290   6.363   1.035
 3538TIP3    H232174   1.146   6.356   0.992
 3539TIP3   OH232175   2.664   3.798   1.202
 3539TIP3    H132176   2.705   3.787   1.116
 3539TIP3    H232177   2.738   3.814   1.262
 3540TIP3   OH232178   3.887   2.322   8.382
 3540TIP3    H132179   3.922   2.411   8.374
 3540TIP3    H232180   3.793   2.331   8.365
 3541TIP3   OH232181   5.266   4.558   0.796
 3541TIP3    H132182   5.358   4.572   0.819
 3541TIP3    H232183   5.218   4.573   0.877
 3542TIP3   OH232184   1.757   2.784   8.517
 3542TIP3    H132185   1.773   2.718   8.585
 3542TIP3    H232186   1.812   2.756   8.444
 3543TIP3   OH232187   1.921   0.098   0.399
 3543TIP3    H132188   1.929   0.142   0.483
 3543TIP3    H232189   1.915   0.168   0.335
 3544TIP3   OH232190   4.778   6.119   7.650
 3544TIP3    H132191   4.736   6.166   7.578
 3544TIP3    H232192   4.872   6.135   7.637
 3545TIP3   OH232193   0.040   5.086   0.495
 3545TIP3    H132194   0.021   5.101   0.402
 3545TIP3    H232195   6.844   5.010   0.518
 3546TIP3   OH232196   0.173   1.107   1.991
 3546TIP3    H132197   0.251   1.065   2.025
 3546TIP3    H232198   0.100   1.054   2.023
 3547TIP3   OH232199   4.850   5.098   0.428
 3547TIP3    H132200   4.889   5.143   0.352
 3547TIP3    H232201   4.919   5.038   0.458
 3548TIP3   OH232202   1.577   6.517   8.107
 3548TIP3    H132203   1.523   6.450   8.065
 3548TIP3    H232204   1.583   6.587   8.041
 3549TIP3   OH232205   4.137   5.144   0.076
 3549TIP3    H132206   4.198   5.079   0.111
 3549TIP3    H232207   4.087   5.173   0.152
 3550TIP3   OH232208   1.913   2.083   0.559
 3550TIP3    H132209   1.939   1.992   0.574
 3550TIP3    H232210   1.849   2.078   0.488
 3551TIP3   OH232211   1.606   6.527   1.340
 3551TIP3    H132212   1.618   6.469   1.265
 3551TIP3    H232213   1.615   6.469   1.416
 3552TIP3   OH232214   2.694   5.794   1.420
 3552TIP3    H132215   2.743   5.719   1.388
 3552TIP3    H232216   2.745   5.870   1.391
 3553TIP3   OH232217   5.591   6.542   8.592
 3553TIP3    H132218   5.644   6.618   8.572
 3553TIP3    H232219   5.575   6.501   8.507
 3554TIP3   OH232220   0.692   6.121   0.824
 3554TIP3    H132221   0.717   6.181   0.753
 3554TIP3    H232222   0.607   6.086   0.796
 3555TIP3   OH232223   5.866   4.646   1.072
 3555TIP3    H132224   5.941   4.694   1.036
 3555TIP3    H232225   5.790   4.697   1.044
 3556TIP3   OH232226   0.630   2.064   7.196
 3556TIP3    H132227   0.544   2.047   7.236
 3556TIP3    H232228   0.677   2.116   7.261
 3557TIP3   OH232229   2.477   3.436   0.920
 3557TIP3    H132230   2.391   3.473   0.937
 3557TIP3    H232231   2.522   3.438   1.004
 3558TIP3   OH232232   6.510   0.195   0.686
 3558TIP3    H132233   6.589   0.194   0.632
 3558TIP3    H232234   6.480   0.285   0.683
 3559TIP3   OH232235   6.450   0.848   0.065
 3559TIP3    H132236   6.490   0.824   8.695
 3559TIP3    H232237   6.441   0.766   0.112
 3560TIP3   OH232238   1.865   3.373   1.042
 3560TIP3    H132239   1.881   3.467   1.040
 3560TIP3    H232240   1.867   3.346   0.950
 3561TIP3   OH232241   3.066   1.395   8.474
 3561TIP3    H132242   3.058   1.374   8.567
 3561TIP3    H232243   3.032   1.318   8.429
 3562TIP3   OH232244   1.888   1.292   7.312
 3562TIP3    H132245   1.834   1.354   7.360
 3562TIP3    H232246   1.830   1.257   7.244
 3563TIP3   OH232247   5.140   2.963   7.981
 3563TIP3    H132248   5.197   3.008   8.044
 3563TIP3    H232249   5.176   2.986   7.895
 3564TIP3   OH232250   5.502   3.841   8.094
 3564TIP3    H132251   5.530   3.753   8.068
 3564TIP3    H232252   5.572   3.872   8.152
 3565TIP3   OH232253   1.909   1.029   0.188
 3565TIP3    H132254   1.947   1.029   0.276
 3565TIP3    H232255   1.909   1.122   0.163
 3566TIP3   OH232256   2.048   5.552   0.261
 3566TIP3    H132257   2.073   5.622   0.322
 3566TIP3    H232258   2.095   5.475   0.291
 3567TIP3   OH232259   0.044   3.593   8.040
 3567TIP3    H132260   0.133   3.629   8.043
 3567TIP3    H232261   0.015   3.594   8.131
 3568TIP3   OH232262   6.818   5.599   7.205
 3568TIP3    H132263   6.748   5.537   7.186
 3568TIP3    H232264   6.825   5.599   7.300
 3569TIP3   OH232265   5.217   5.030   1.295
 3569TIP3    H132266   5.173   4.955   1.256
 3569TIP3    H232267   5.168   5.106   1.263
 3570TIP3   OH232268   3.204   3.757   8.150
 3570TIP3    H132269   3.192   3.712   8.067
 3570TIP3    H232270   3.235   3.689   8.210
 3571TIP3   OH232271   5.014   6.471   2.243
 3571TIP3    H132272   5.100   6.509   2.256
 3571TIP3    H232273   4.958   6.515   2.307
 3572TIP3   OH232274   5.243   0.117   7.942
 3572TIP3    H132275   5.229   0.069   7.861
 3572TIP3    H232276   5.157   0.153   7.964
 3573TIP3   OH232277   0.453   4.363   0.342
 3573TIP3    H132278   0.472   4.439   0.397
 3573TIP3    H232279   0.532   4.351   0.290
 3574TIP3   OH232280   4.381   3.932   0.452
 3574TIP3    H132281   4.315   3.987   0.494
 3574TIP3    H232282   4.426   3.991   0.391
 3575TIP3   OH232283   0.607   5.195   1.229
 3575TIP3    H132284   0.634   5.107   1.258
 3575TIP3    H232285   0.684   5.250   1.246
 3576TIP3   OH232286   6.339   0.765   7.363
 3576TIP3    H132287   6.315   0.729   7.449
 3576TIP3    H232288   6.401   0.835   7.383
 3577TIP3   OH232289   2.285   5.894   1.313
 3577TIP3    H132290   2.330   5.812   1.329
 3577TIP3    H232291   2.304   5.915   1.221
 3578TIP3   OH232292   0.910   6.705   1.450
 3578TIP3    H132293   0.972   6.694   1.378
 3578TIP3    H232294   0.910   6.799   1.467
 3579TIP3   OH232295   4.106   5.599   7.080
 3579TIP3    H132296   4.118   5.591   6.985
 3579TIP3    H232297   4.021   5.560   7.097
 3580TIP3   OH232298   4.900   0.391   0.846
 3580TIP3    H132299   4.983   0.362   0.809
 3580TIP3    H232300   4.876   0.322   0.908
 3581TIP3   OH232301   1.889   2.738   8.284
 3581TIP3    H132302   1.957   2.805   8.292
 3581TIP3    H232303   1.934   2.656   8.301
 3582TIP3   OH232304   0.557   2.461   0.781
 3582TIP3    H132305   0.504   2.457   0.702
 3582TIP3    H232306   0.503   2.509   0.844
 3583TIP3   OH232307   0.006   0.539   1.854
 3583TIP3    H132308   0.041   0.559   1.941
 3583TIP3    H232309   0.049   0.457   1.829
 3584TIP3   OH232310   5.904   4.862   0.607
 3584TIP3    H132311   5.988   4.908   0.605
 3584TIP3    H232312   5.928   4.769   0.597
 3585TIP3   OH232313   1.059   5.856   7.279
 3585TIP3    H132314   1.065   5.800   7.201
 3585TIP3    H232315   1.005   5.930   7.251
 3586TIP3   OH232316   5.779   4.066   1.752
 3586TIP3    H132317   5.696   4.068   1.799
 3586TIP3    H232318   5.775   4.142   1.693
 3587TIP3   OH232319   5.915   3.849   0.808
 3587TIP3    H132320   5.966   3.920   0.768
 3587TIP3    H232321   5.941   3.848   0.899
 3588TIP3   OH232322   1.953   2.558   7.260
 3588TIP3    H132323   1.912   2.603   7.186
 3588TIP3    H232324   1.957   2.625   7.329
 3589TIP3   OH232325   0.418   3.925   7.684
 3589TIP3    H132326   0.415   4.019   7.663
 3589TIP3    H232327   0.466   3.921   7.767
 3590TIP3   OH232328   6.737   3.024   1.864
 3590TIP3    H132329   6.688   3.064   1.792
 3590TIP3    H232330   6.707   2.934   1.866
 3591TIP3   OH232331   6.134   4.429   6.486
 3591TIP3    H132332   6.100   4.491   6.550
 3591TIP3    H232333   6.068   4.428   6.416
 3592TIP3   OH232334   3.836   6.459   1.230
 3592TIP3    H132335   3.812   6.366   1.225
 3592TIP3    H232336   3.925   6.463   1.197
 3593TIP3   OH232337   2.834   2.254   0.665
 3593TIP3    H132338   2.756   2.217   0.707
 3593TIP3    H232339   2.898   2.183   0.668
 3594TIP3   OH232340   3.692   3.720   0.767
 3594TIP3    H132341   3.749   3.653   0.804
 3594TIP3    H232342   3.731   3.803   0.796
 3595TIP3   OH232343   5.706   5.684   1.960
 3595TIP3    H132344   5.671   5.605   2.001
 3595TIP3    H232345   5.662   5.756   2.006
 3596TIP3   OH232346   2.570   2.343   1.322
 3596TIP3    H132347   2.479   2.373   1.316
 3596TIP3    H232348   2.603   2.346   1.233
 3597TIP3   OH232349   5.883   1.865   0.224
 3597TIP3    H132350   5.839   1.888   0.143
 3597TIP3    H232351   5.821   1.890   0.293
 3598TIP3   OH232352   3.582   1.840   2.226
 3598TIP3    H132353   3.664   1.847   2.275
 3598TIP3    H232354   3.529   1.913   2.256
 3599TIP3   OH232355   1.187   5.703   1.945
 3599TIP3    H132356   1.131   5.776   1.969
 3599TIP3    H232357   1.130   5.646   1.892
 3600TIP3   OH232358   6.360   3.257   1.015
 3600TIP3    H132359   6.372   3.260   1.110
 3600TIP3    H232360   6.316   3.339   0.993
 3601TIP3   OH232361   6.134   2.315   8.192
 3601TIP3    H132362   6.203   2.331   8.128
 3601TIP3    H232363   6.078   2.249   8.152
 3602TIP3   OH232364   0.107   2.558   2.030
 3602TIP3    H132365   0.126   2.646   1.999
 3602TIP3    H232366   0.193   2.524   2.058
 3603TIP3   OH232367   2.902   0.743   8.050
 3603TIP3    H132368   2.835   0.802   8.083
 3603TIP3    H232369   2.985   0.789   8.065
 3604TIP3   OH232370   5.352   4.149   7.951
 3604TIP3    H132371   5.420   4.115   7.892
 3604TIP3    H232372   5.401   4.200   8.016
 3605TIP3   OH232373   2.879   4.377   0.117
 3605TIP3    H132374   2.933   4.307   0.154
 3605TIP3    H232375   2.882   4.362   0.022
 3606TIP3   OH232376   6.238   3.611   6.438
 3606TIP3    H132377   6.195   3.690   6.469
 3606TIP3    H232378   6.166   3.550   6.419
 3607TIP3   OH232379   6.416   3.681   6.734
 3607TIP3    H132380   6.433   3.749   6.798
 3607TIP3    H232381   6.409   3.728   6.650
 3608TIP3   OH232382   1.086   2.573   0.526
 3608TIP3    H132383   0.997   2.549   0.552
 3608TIP3    H232384   1.142   2.520   0.582
 3609TIP3   OH232385   3.598   6.131   1.131
 3609TIP3    H132386   3.676   6.146   1.184
 3609TIP3    H232387   3.607   6.192   1.057
 3610TIP3   OH232388   2.039   3.417   0.750
 3610TIP3    H132389   2.119   3.378   0.786
 3610TIP3    H232390   2.060   3.436   0.658
 3611TIP3   OH232391   5.391   0.731   1.740
 3611TIP3    H132392   5.399   0.809   1.685
 3611TIP3    H232393   5.445   0.751   1.817
 3612TIP3   OH232394   0.173   0.970   7.095
 3612TIP3    H132395   0.087   0.996   7.127
 3612TIP3    H232396   0.176   1.001   7.005
 3613TIP3   OH232397   6.283   6.825   0.840
 3613TIP3    H132398   6.260   0.009   0.924
 3613TIP3    H232399   6.230   0.016   0.776
 3614TIP3   OH232400   0.534   3.920   7.956
 3614TIP3    H132401   0.607   3.932   8.017
 3614TIP3    H232402   0.456   3.923   8.011
 3615TIP3   OH232403   3.453   1.259   2.330
 3615TIP3    H132404   3.459   1.350   2.300
 3615TIP3    H232405   3.541   1.237   2.359
 3616TIP3   OH232406   3.341   5.690   1.878
 3616TIP3    H132407   3.315   5.639   1.956
 3616TIP3    H232408   3.394   5.761   1.913
 3617TIP3   OH232409   1.531   0.841   0.763
 3617TIP3    H132410   1.530   0.923   0.813
 3617TIP3    H232411   1.486   0.863   0.681
 3618TIP3   OH232412   4.069   5.759   1.294
 3618TIP3    H132413   3.987   5.720   1.325
 3618TIP3    H232414   4.138   5.715   1.344
 3619TIP3   OH232415   5.321   5.125   8.100
 3619TIP3    H132416   5.237   5.148   8.061
 3619TIP3    H232417   5.305   5.043   8.147
 3620TIP3   OH232418   6.456   2.994   0.479
 3620TIP3    H132419   6.404   2.997   0.398
 3620TIP3    H232420   6.454   2.902   0.505
 3621TIP3   OH232421   5.704   6.304   8.686
 3621TIP3    H132422   5.670   6.393   8.675
 3621TIP3    H232423   5.631   6.248   8.660
 3622TIP3   OH232424   2.378   5.192   8.712
 3622TIP3    H132425   2.402   5.280   0.027
 3622TIP3    H232426   2.461   5.145   8.709
 3623TIP3   OH232427   5.328   4.276   7.494
 3623TIP3    H132428   5.280   4.345   7.541
 3623TIP3    H232429   5.336   4.206   7.558
 3624TIP3   OH232430   2.854   3.476   1.248
 3624TIP3    H132431   2.774   3.488   1.197
 3624TIP3    H232432   2.884   3.564   1.267
 3625TIP3   OH232433   2.837   0.419   0.719
 3625TIP3    H132434   2.854   0.422   0.814
 3625TIP3    H232435   2.872   0.335   0.691
 3626TIP3   OH232436   6.361   2.176   5.903
 3626TIP3    H132437   6.389   2.087   5.924
 3626TIP3    H232438   6.440   2.219   5.871
 3627TIP3   OH232439   0.314   4.502   8.257
 3627TIP3    H132440   0.325   4.584   8.305
 3627TIP3    H232441   0.369   4.512   8.179
 3628TIP3   OH232442   1.150   3.974   7.786
 3628TIP3    H132443   1.240   3.947   7.769
 3628TIP3    H232444   1.154   4.069   7.788
 3629TIP3   OH232445   4.707   3.874   1.095
 3629TIP3    H132446   4.713   3.800   1.035
 3629TIP3    H232447   4.615   3.900   1.092
 3630TIP3   OH232448   5.940   4.465   2.247
 3630TIP3    H132449   5.855   4.434   2.279
 3630TIP3    H232450   5.966   4.399   2.182
 3631TIP3   OH232451   1.674   5.006   0.009
 3631TIP3    H132452   1.635   5.076   0.062
 3631TIP3    H232453   1.719   4.950   0.072
 3632TIP3   OH232454   1.526   5.802   8.702
 3632TIP3    H132455   1.488   5.799   0.076
 3632TIP3    H232456   1.605   5.748   8.708
 3633TIP3   OH232457   2.048   6.375   2.280
 3633TIP3    H132458   1.993   6.335   2.348
 3633TIP3    H232459   1.989   6.435   2.234
 3634TIP3   OH232460   5.448   4.855   8.642
 3634TIP3    H132461   5.502   4.903   8.579
 3634TIP3    H232462   5.428   4.919   8.710
 3635TIP3   OH232463   4.880   4.567   1.278
 3635TIP3    H132464   4.803   4.523   1.314
 3635TIP3    H232465   4.927   4.600   1.355
 3636TIP3   OH232466   1.724   3.957   6.640
 3636TIP3    H132467   1.769   4.001   6.712
 3636TIP3    H232468   1.781   3.882   6.620
 3637TIP3   OH232469   3.525   4.287   7.654
 3637TIP3    H132470   3.601   4.322   7.700
 3637TIP3    H232471   3.548   4.196   7.635
 3638TIP3   OH232472   3.468   4.960   8.304
 3638TIP3    H132473   3.431   4.962   8.215
 3638TIP3    H232474   3.536   5.028   8.302
 3639TIP3   OH232475   0.040   3.216   7.473
 3639TIP3    H132476   6.838   3.259   7.534
 3639TIP3    H232477   0.026   3.122   7.487
 3640TIP3   OH232478   1.840   6.464   1.856
 3640TIP3    H132479   1.916   6.515   1.885
 3640TIP3    H232480   1.877   6.398   1.797
 3641TIP3   OH232481   3.083   2.486   1.638
 3641TIP3    H132482   3.087   2.581   1.636
 3641TIP3    H232483   3.139   2.461   1.712
 3642TIP3   OH232484   4.792   4.219   7.602
 3642TIP3    H132485   4.863   4.165   7.565
 3642TIP3    H232486   4.714   4.193   7.553
 3643TIP3   OH232487   4.299   5.538   1.735
 3643TIP3    H132488   4.276   5.564   1.824
 3643TIP3    H232489   4.394   5.550   1.730
 3644TIP3   OH232490   0.885   0.690   7.159
 3644TIP3    H132491   0.887   0.728   7.072
 3644TIP3    H232492   0.803   0.723   7.198
 3645TIP3   OH232493   2.561   1.338   7.715
 3645TIP3    H132494   2.515   1.256   7.734
 3645TIP3    H232495   2.652   1.320   7.737
 3646TIP3   OH232496   1.310   1.055   8.301
 3646TIP3    H132497   1.340   0.969   8.275
 3646TIP3    H232498   1.341   1.066   8.391
 3647TIP3   OH232499   6.756   2.163   7.120
 3647TIP3    H132500   6.844   2.181   7.153
 3647TIP3    H232501   6.706   2.243   7.141
 3648TIP3   OH232502   6.479   5.307   7.817
 3648TIP3    H132503   6.518   5.289   7.732
 3648TIP3    H232504   6.408   5.244   7.826
 3649TIP3   OH232505   6.322   4.653   0.306
 3649TIP3    H132506   6.231   4.662   0.277
 3649TIP3    H232507   6.350   4.743   0.324
 3650TIP3   OH232508   0.948   4.736   8.218
 3650TIP3    H132509   0.947   4.810   8.279
 3650TIP3    H232510   0.885   4.760   8.150
 3651TIP3   OH232511   6.786   5.733   8.196
 3651TIP3    H132512   6.765   5.718   8.288
 3651TIP3    H232513   6.703   5.722   8.150
 3652TIP3   OH232514   2.198   0.787   8.475
 3652TIP3    H132515   2.232   0.757   8.559
 3652TIP3    H232516   2.243   0.735   8.409
 3653TIP3   OH232517   1.459   0.057   0.390
 3653TIP3    H132518   1.472   0.043   0.484
 3653TIP3    H232519   1.468   0.152   0.379
 3654TIP3   OH232520   6.154   6.578   8.063
 3654TIP3    H132521   6.106   6.645   8.014
 3654TIP3    H232522   6.245   6.590   8.037
 3655TIP3   OH232523   3.896   1.636   8.459
 3655TIP3    H132524   3.943   1.609   8.538
 3655TIP3    H232525   3.826   1.571   8.450
 3656TIP3   OH232526   2.757   0.123   1.805
 3656TIP3    H132527   2.743   0.215   1.786
 3656TIP3    H232528   2.744   0.079   1.721
 3657TIP3   OH232529   1.977   0.025   0.949
 3657TIP3    H132530   1.906   0.055   1.005
 3657TIP3    H232531   2.038   6.837   1.009
 3658TIP3   OH232532   2.975   1.734   0.678
 3658TIP3    H132533   2.888   1.702   0.700
 3658TIP3    H232534   3.008   1.672   0.613
 3659TIP3   OH232535   0.422   4.230   8.343
 3659TIP3    H132536   0.376   4.304   8.305
 3659TIP3    H232537   0.444   4.173   8.269
 3660TIP3   OH232538   3.110   1.205   2.348
 3660TIP3    H132539   3.174   1.158   2.295
 3660TIP3    H232540   3.025   1.182   2.310
 3661TIP3   OH232541   6.814   4.967   6.503
 3661TIP3    H132542   0.018   5.011   6.563
 3661TIP3    H232543   6.845   4.876   6.500
 3662TIP3   OH232544   4.193   2.708   7.327
 3662TIP3    H132545   4.204   2.615   7.307
 3662TIP3    H232546   4.101   2.716   7.352
 3663TIP3   OH232547   3.739   3.619   8.253
 3663TIP3    H132548   3.778   3.555   8.193
 3663TIP3    H232549   3.653   3.637   8.216
 3664TIP3   OH232550   2.287   6.607   1.108
 3664TIP3    H132551   2.352   6.554   1.153
 3664TIP3    H232552   2.252   6.550   1.040
 3665TIP3   OH232553   5.148   4.598   1.536
 3665TIP3    H132554   5.129   4.689   1.513
 3665TIP3    H232555   5.140   4.596   1.631
 3666TIP3   OH232556   1.297   1.570   7.697
 3666TIP3    H132557   1.301   1.489   7.748
 3666TIP3    H232558   1.247   1.547   7.619
 3667TIP3   OH232559   1.450   0.669   2.330
 3667TIP3    H132560   1.405   0.624   2.259
 3667TIP3    H232561   1.531   0.619   2.342
 3668TIP3   OH232562   1.463   2.704   6.961
 3668TIP3    H132563   1.503   2.791   6.960
 3668TIP3    H232564   1.537   2.644   6.973
 3669TIP3   OH232565   0.618   1.787   7.918
 3669TIP3    H132566   0.707   1.769   7.948
 3669TIP3    H232567   0.629   1.830   7.833
 3670TIP3   OH232568   1.895   2.375   0.269
 3670TIP3    H132569   1.961   2.405   0.206
 3670TIP3    H232570   1.923   2.287   0.294
 3671TIP3   OH232571   5.444   1.007   1.022
 3671TIP3    H132572   5.525   0.988   0.976
 3671TIP3    H232573   5.428   1.099   1.004
 3672TIP3   OH232574   5.379   1.022   7.313
 3672TIP3    H132575   5.430   1.075   7.374
 3672TIP3    H232576   5.290   1.056   7.320
 3673TIP3   OH232577   4.789   5.033   1.425
 3673TIP3    H132578   4.818   5.119   1.395
 3673TIP3    H232579   4.774   5.043   1.519
 3674TIP3   OH232580   0.218   0.981   0.836
 3674TIP3    H132581   0.311   0.966   0.854
 3674TIP3    H232582   0.206   0.953   0.745
 3675TIP3   OH232583   2.484   3.782   0.311
 3675TIP3    H132584   2.511   3.786   0.219
 3675TIP3    H232585   2.388   3.777   0.308
 3676TIP3   OH232586   3.006   2.953   8.416
 3676TIP3    H132587   3.024   3.045   8.397
 3676TIP3    H232588   2.977   2.916   8.332
 3677TIP3   OH232589   0.714   1.872   8.510
 3677TIP3    H132590   0.763   1.928   8.450
 3677TIP3    H232591   0.755   1.786   8.501
 3678TIP3   OH232592   5.597   2.534   0.382
 3678TIP3    H132593   5.573   2.626   0.377
 3678TIP3    H232594   5.514   2.487   0.370
 3679TIP3   OH232595   4.490   0.282   1.315
 3679TIP3    H132596   4.415   0.298   1.371
 3679TIP3    H232597   4.566   0.293   1.373
 3680TIP3   OH232598   1.420   3.847   0.525
 3680TIP3    H132599   1.472   3.848   0.445
 3680TIP3    H232600   1.382   3.935   0.530
 3681TIP3   OH232601   6.656   1.099   0.178
 3681TIP3    H132602   6.630   1.079   0.268
 3681TIP3    H232603   6.574   1.121   0.134
 3682TIP3   OH232604   0.659   5.466   0.204
 3682TIP3    H132605   0.656   5.545   0.149
 3682TIP3    H232606   0.629   5.396   0.145
 3683TIP3   OH232607   1.711   4.472   0.403
 3683TIP3    H132608   1.655   4.434   0.470
 3683TIP3    H232609   1.719   4.564   0.428
 3684TIP3   OH232610   4.478   4.143   0.338
 3684TIP3    H132611   4.568   4.174   0.337
 3684TIP3    H232612   4.425   4.223   0.337
 3685TIP3   OH232613   1.420   4.642   1.803
 3685TIP3    H132614   1.383   4.725   1.833
 3685TIP3    H232615   1.488   4.622   1.867
 3686TIP3   OH232616   3.169   3.172   2.124
 3686TIP3    H132617   3.110   3.140   2.192
 3686TIP3    H232618   3.215   3.094   2.093
 3687TIP3   OH232619   0.436   3.126   0.551
 3687TIP3    H132620   0.423   3.075   0.471
 3687TIP3    H232621   0.395   3.073   0.620
 3688TIP3   OH232622   3.870   1.203   8.237
 3688TIP3    H132623   3.837   1.119   8.268
 3688TIP3    H232624   3.949   1.181   8.187
 3689TIP3   OH232625   4.410   5.201   1.927
 3689TIP3    H132626   4.455   5.284   1.946
 3689TIP3    H232627   4.334   5.201   1.986
 3690TIP3   OH232628   6.724   5.094   2.324
 3690TIP3    H132629   6.785   5.052   2.384
 3690TIP3    H232630   6.761   5.181   2.309
 3691TIP3   OH232631   3.721   4.152   1.443
 3691TIP3    H132632   3.804   4.117   1.478
 3691TIP3    H232633   3.745   4.238   1.410
 3692TIP3   OH232634   6.830   0.494   7.768
 3692TIP3    H132635   6.777   0.473   7.692
 3692TIP3    H232636   6.773   0.477   7.843
 3693TIP3   OH232637   0.532   2.214   7.607
 3693TIP3    H132638   0.478   2.142   7.641
 3693TIP3    H232639   0.471   2.288   7.602
 3694TIP3   OH232640   1.861   6.196   6.492
 3694TIP3    H132641   1.803   6.271   6.486
 3694TIP3    H232642   1.804   6.120   6.478
 3695TIP3   OH232643   5.271   2.609   1.150
 3695TIP3    H132644   5.194   2.571   1.193
 3695TIP3    H232645   5.306   2.539   1.095
 3696TIP3   OH232646   2.766   4.624   1.166
 3696TIP3    H132647   2.764   4.584   1.253
 3696TIP3    H232648   2.791   4.715   1.181
 3697TIP3   OH232649   2.007   1.852   7.685
 3697TIP3    H132650   2.079   1.849   7.623
 3697TIP3    H232651   1.932   1.818   7.637
 3698TIP3   OH232652   2.728   6.817   7.601
 3698TIP3    H132653   2.748   0.045   7.561
 3698TIP3    H232654   2.633   6.818   7.611
 3699TIP3   OH232655   3.241   6.456   8.604
 3699TIP3    H132656   3.196   6.506   8.536
 3699TIP3    H232657   3.234   6.511   8.683
 3700TIP3   OH232658   4.279   5.071   7.188
 3700TIP3    H132659   4.370   5.097   7.200
 3700TIP3    H232660   4.284   4.980   7.158
 3701TIP3   OH232661   3.568   3.106   1.639
 3701TIP3    H132662   3.638   3.091   1.576
 3701TIP3    H232663   3.578   3.198   1.665
 3702TIP3   OH232664   5.114   0.402   1.065
 3702TIP3    H132665   5.096   0.469   0.998
 3702TIP3    H232666   5.184   0.440   1.118
 3703TIP3   OH232667   1.576   4.002   7.102
 3703TIP3    H132668   1.626   4.069   7.055
 3703TIP3    H232669   1.485   4.030   7.095
 3704TIP3   OH232670   6.433   2.288   7.764
 3704TIP3    H132671   6.458   2.380   7.760
 3704TIP3    H232672   6.387   2.272   7.682
 3705TIP3   OH232673   4.216   3.307   1.009
 3705TIP3    H132674   4.159   3.231   0.995
 3705TIP3    H232675   4.237   3.306   1.102
 3706TIP3   OH232676   2.857   0.487   6.345
 3706TIP3    H132677   2.818   0.569   6.312
 3706TIP3    H232678   2.802   0.418   6.308
 3707TIP3   OH232679   4.473   5.758   1.415
 3707TIP3    H132680   4.412   5.809   1.362
 3707TIP3    H232681   4.541   5.731   1.353
 3708TIP3   OH232682   1.914   4.311   7.421
 3708TIP3    H132683   1.824   4.281   7.438
 3708TIP3    H232684   1.926   4.299   7.327
 3709TIP3   OH232685   5.508   2.019   8.261
 3709TIP3    H132686   5.533   2.112   8.263
 3709TIP3    H232687   5.499   1.995   8.353
 3710TIP3   OH232688   6.580   4.242   0.698
 3710TIP3    H132689   6.536   4.159   0.717
 3710TIP3    H232690   6.518   4.309   0.728
 3711TIP3   OH232691   4.575   2.125   6.959
 3711TIP3    H132692   4.635   2.138   7.032
 3711TIP3    H232693   4.533   2.210   6.946
 3712TIP3   OH232694   5.950   5.802   1.900
 3712TIP3    H132695   5.987   5.807   1.989
 3712TIP3    H232696   5.861   5.768   1.913
 3713TIP3   OH232697   6.257   6.411   2.232
 3713TIP3    H132698   6.335   6.462   2.252
 3713TIP3    H232699   6.258   6.403   2.136
 3714TIP3   OH232700   3.605   5.779   7.029
 3714TIP3    H132701   3.541   5.708   7.024
 3714TIP3    H232702   3.658   5.770   6.951
 3715TIP3   OH232703   1.117   3.910   1.290
 3715TIP3    H132704   1.131   4.005   1.297
 3715TIP3    H232705   1.203   3.876   1.265
 3716TIP3   OH232706   0.690   2.833   0.521
 3716TIP3    H132707   0.707   2.739   0.521
 3716TIP3    H232708   0.755   2.869   0.461
 3717TIP3   OH232709   6.833   4.914   1.276
 3717TIP3    H132710   6.805   5.005   1.273
 3717TIP3    H232711   6.755   4.865   1.248
 3718TIP3   OH232712   6.571   0.219   1.498
 3718TIP3    H132713   6.523   0.281   1.553
 3718TIP3    H232714   6.502   0.167   1.456
 3719TIP3   OH232715   2.085   6.034   6.481
 3719TIP3    H132716   2.077   5.976   6.406
 3719TIP3    H232717   2.017   6.100   6.469
 3720TIP3   OH232718   3.929   5.013   7.196
 3720TIP3    H132719   3.858   5.065   7.235
 3720TIP3    H232720   3.927   4.930   7.244
 3721TIP3   OH232721   6.096   2.303   6.904
 3721TIP3    H132722   6.055   2.341   6.826
 3721TIP3    H232723   6.184   2.341   6.905
 3722TIP3   OH232724   0.199   3.700   8.487
 3722TIP3    H132725   0.276   3.661   8.445
 3722TIP3    H232726   0.164   3.631   8.544
 3723TIP3   OH232727   1.976   3.798   8.681
 3723TIP3    H132728   2.071   3.813   8.684
 3723TIP3    H232729   1.939   3.885   8.695
 3724TIP3   OH232730   0.276   5.638   8.460
 3724TIP3    H132731   0.347   5.577   8.482
 3724TIP3    H232732   0.270   5.696   8.536
 3725TIP3   OH232733   0.770   1.974   1.810
 3725TIP3    H132734   0.779   2.066   1.836
 3725TIP3    H232735   0.733   1.978   1.722
 3726TIP3   OH232736   4.406   2.667   2.346
 3726TIP3    H132737   4.469   2.630   2.408
 3726TIP3    H232738   4.350   2.593   2.322
 3727TIP3   OH232739   2.752   0.461   7.949
 3727TIP3    H132740   2.814   0.522   7.990
 3727TIP3    H232741   2.671   0.512   7.941
 3728TIP3   OH232742   6.320   4.303   0.381
 3728TIP3    H132743   6.378   4.358   0.327
 3728TIP3    H232744   6.356   4.311   0.470
 3729TIP3   OH232745   6.237   2.103   1.389
 3729TIP3    H132746   6.229   2.186   1.436
 3729TIP3    H232747   6.146   2.076   1.373
 3730TIP3   OH232748   4.528   1.914   7.874
 3730TIP3    H132749   4.444   1.915   7.920
 3730TIP3    H232750   4.577   1.988   7.910
 3731TIP3   OH232751   2.460   2.346   7.221
 3731TIP3    H132752   2.375   2.382   7.246
 3731TIP3    H232753   2.440   2.260   7.185
 3732TIP3   OH232754   3.690   6.136   0.059
 3732TIP3    H132755   3.742   6.151   0.138
 3732TIP3    H232756   3.651   6.050   0.072
 3733TIP3   OH232757   2.411   2.394   0.631
 3733TIP3    H132758   2.430   2.410   0.724
 3733TIP3    H232759   2.324   2.431   0.618
 3734TIP3   OH232760   6.185   5.885   8.509
 3734TIP3    H132761   6.115   5.927   8.559
 3734TIP3    H232762   6.264   5.904   8.560
 3735TIP3   OH232763   1.674   3.448   8.015
 3735TIP3    H132764   1.636   3.459   8.103
 3735TIP3    H232765   1.768   3.453   8.030
 3736TIP3   OH232766   1.152   1.275   0.735
 3736TIP3    H132767   1.223   1.214   0.751
 3736TIP3    H232768   1.090   1.226   0.680
 3737TIP3   OH232769   5.458   1.075   8.655
 3737TIP3    H132770   5.472   0.981   8.640
 3737TIP3    H232771   5.496   1.118   8.579
 3738TIP3   OH232772   3.373   2.525   2.371
 3738TIP3    H132773   3.414   2.545   2.455
 3738TIP3    H232774   3.383   2.430   2.362
 3739TIP3   OH232775   3.023   1.158   6.619
 3739TIP3    H132776   2.937   1.116   6.621
 3739TIP3    H232777   3.005   1.251   6.626
 3740TIP3   OH232778   0.585   2.997   7.434
 3740TIP3    H132779   0.602   2.938   7.508
 3740TIP3    H232780   0.503   3.040   7.456
 3741TIP3   OH232781   3.960   3.767   8.139
 3741TIP3    H132782   3.893   3.753   8.206
 3741TIP3    H232783   3.953   3.690   8.082
 3742TIP3   OH232784   0.357   5.614   6.858
 3742TIP3    H132785   0.335   5.673   6.930
 3742TIP3    H232786   0.274   5.596   6.815
 3743TIP3   OH232787   3.590   1.718   8.441
 3743TIP3    H132788   3.640   1.641   8.466
 3743TIP3    H232789   3.520   1.684   8.385
 3744TIP3   OH232790   2.836   1.036   7.017
 3744TIP3    H132791   2.848   0.960   6.961
 3744TIP3    H232792   2.806   1.105   6.958
 3745TIP3   OH232793   4.868   0.824   7.407
 3745TIP3    H132794   4.919   0.870   7.474
 3745TIP3    H232795   4.872   0.732   7.433
 3746TIP3   OH232796   2.058   1.207   8.520
 3746TIP3    H132797   2.055   1.225   8.614
 3746TIP3    H232798   2.145   1.168   8.506
 3747TIP3   OH232799   2.367   1.124   7.695
 3747TIP3    H132800   2.415   1.061   7.641
 3747TIP3    H232801   2.324   1.182   7.632
 3748TIP3   OH232802   0.846   4.527   6.732
 3748TIP3    H132803   0.808   4.531   6.644
 3748TIP3    H232804   0.939   4.513   6.717
 3749TIP3   OH232805   4.099   4.317   7.224
 3749TIP3    H132806   4.091   4.409   7.251
 3749TIP3    H232807   4.108   4.269   7.307
 3750TIP3   OH232808   4.315   6.230   8.393
 3750TIP3    H132809   4.380   6.213   8.460
 3750TIP3    H232810   4.259   6.152   8.392
 3751TIP3   OH232811   0.919   5.355   0.150
 3751TIP3    H132812   0.879   5.268   0.149
 3751TIP3    H232813   0.866   5.405   0.212
 3752TIP3   OH232814   4.599   5.740   8.171
 3752TIP3    H132815   4.505   5.750   8.160
 3752TIP3    H232816   4.631   5.829   8.186
 3753TIP3   OH232817   2.398   0.296   6.999
 3753TIP3    H132818   2.476   0.243   6.979
 3753TIP3    H232819   2.325   0.234   6.997
 3754TIP3   OH232820   2.032   3.597   1.172
 3754TIP3    H132821   2.123   3.565   1.168
 3754TIP3    H232822   2.014   3.604   1.266
 3755TIP3   OH232823   1.834   0.134   6.142
 3755TIP3    H132824   1.857   0.045   6.168
 3755TIP3    H232825   1.739   0.131   6.127
 3756TIP3   OH232826   3.609   6.466   7.293
 3756TIP3    H132827   3.680   6.482   7.355
 3756TIP3    H232828   3.567   6.387   7.324
 3757TIP3   OH232829   3.602   3.086   0.680
 3757TIP3    H132830   3.599   3.169   0.633
 3757TIP3    H232831   3.578   3.021   0.614
 3758TIP3   OH232832   5.925   5.277   7.973
 3758TIP3    H132833   6.016   5.249   7.986
 3758TIP3    H232834   5.918   5.291   7.879
 3759TIP3   OH232835   1.752   3.464   8.440
 3759TIP3    H132836   1.838   3.505   8.427
 3759TIP3    H232837   1.730   3.482   8.531
 3760TIP3   OH232838   1.485   4.489   6.149
 3760TIP3    H132839   1.406   4.531   6.114
 3760TIP3    H232840   1.545   4.485   6.074
 3761TIP3   OH232841   3.940   5.862   2.059
 3761TIP3    H132842   3.905   5.778   2.028
 3761TIP3    H232843   4.012   5.837   2.116
 3762TIP3   OH232844   6.657   4.803   8.271
 3762TIP3    H132845   6.650   4.735   8.204
 3762TIP3    H232846   6.670   4.884   8.222
 3763TIP3   OH232847   2.156   3.949   7.779
 3763TIP3    H132848   2.172   3.879   7.715
 3763TIP3    H232849   2.069   3.930   7.814
 3764TIP3   OH232850   2.256   1.337   0.548
 3764TIP3    H132851   2.256   1.412   0.608
 3764TIP3    H232852   2.164   1.319   0.531
 3765TIP3   OH232853   0.242   1.941   0.955
 3765TIP3    H132854   0.168   1.880   0.945
 3765TIP3    H232855   0.207   2.026   0.927
 3766TIP3   OH232856   1.049   0.620   6.534
 3766TIP3    H132857   0.999   0.563   6.593
 3766TIP3    H232858   0.983   0.668   6.485
 3767TIP3   OH232859   1.521   5.474   8.630
 3767TIP3    H132860   1.485   5.386   8.637
 3767TIP3    H232861   1.616   5.461   8.631
 3768TIP3   OH232862   5.684   3.278   8.337
 3768TIP3    H132863   5.625   3.330   8.392
 3768TIP3    H232864   5.759   3.259   8.393
 3769TIP3   OH232865   2.738   0.428   6.993
 3769TIP3    H132866   2.720   0.498   6.929
 3769TIP3    H232867   2.795   0.470   7.057
 3770TIP3   OH232868   0.372   3.931   8.190
 3770TIP3    H132869   0.333   3.965   8.271
 3770TIP3    H232870   0.315   3.859   8.165
 3771TIP3   OH232871   4.901   0.100   6.832
 3771TIP3    H132872   4.883   0.108   6.926
 3771TIP3    H232873   4.815   0.089   6.792
 3772TIP3   OH232874   4.094   3.485   6.810
 3772TIP3    H132875   4.139   3.545   6.870
 3772TIP3    H232876   4.077   3.538   6.732
 3773TIP3   OH232877   1.698   2.016   8.647
 3773TIP3    H132878   1.727   2.068   8.573
 3773TIP3    H232879   1.774   2.013   8.706
 3774TIP3   OH232880   6.393   5.252   7.195
 3774TIP3    H132881   6.336   5.209   7.259
 3774TIP3    H232882   6.459   5.186   7.175
 3775TIP3   OH232883   1.102   5.069   8.534
 3775TIP3    H132884   1.109   4.978   8.505
 3775TIP3    H232885   1.141   5.120   8.463
 3776TIP3   OH232886   6.246   3.991   8.650
 3776TIP3    H132887   6.171   3.935   8.630
 3776TIP3    H232888   6.236   4.013   0.028
 3777TIP3   OH232889   4.761   6.011   0.179
 3777TIP3    H132890   4.684   6.010   0.122
 3777TIP3    H232891   4.831   6.046   0.124
 3778TIP3   OH232892   4.045   4.408   7.767
 3778TIP3    H132893   3.983   4.437   7.699
 3778TIP3    H232894   4.028   4.315   7.776
 3779TIP3   OH232895   0.336   1.069   1.634
 3779TIP3    H132896   0.384   1.079   1.716
 3779TIP3    H232897   0.323   1.159   1.603
 3780TIP3   OH232898   5.371   3.107   6.862
 3780TIP3    H132899   5.460   3.087   6.833
 3780TIP3    H232900   5.354   3.195   6.830
 3781TIP3   OH232901   3.213   4.077   1.947
 3781TIP3    H132902   3.151   4.102   1.879
 3781TIP3    H232903   3.189   3.988   1.970
 3782TIP3   OH232904   4.268   3.075   1.486
 3782TIP3    H132905   4.359   3.097   1.509
 3782TIP3    H232906   4.218   3.154   1.507
 3783TIP3   OH232907   6.599   4.178   8.466
 3783TIP3    H132908   6.553   4.208   8.545
 3783TIP3    H232909   6.680   4.228   8.465
 3784TIP3   OH232910   0.698   3.800   0.801
 3784TIP3    H132911   0.733   3.876   0.847
 3784TIP3    H232912   0.622   3.773   0.853
 3785TIP3   OH232913   6.336   2.444   7.181
 3785TIP3    H132914   6.279   2.511   7.220
 3785TIP3    H232915   6.339   2.467   7.088
 3786TIP3   OH232916   3.940   5.589   2.276
 3786TIP3    H132917   4.004   5.518   2.265
 3786TIP3    H232918   3.984   5.652   2.333
 3787TIP3   OH232919   5.381   5.404   8.143
 3787TIP3    H132920   5.366   5.310   8.131
 3787TIP3    H232921   5.321   5.429   8.213
 3788TIP3   OH232922   3.743   6.383   2.386
 3788TIP3    H132923   3.705   6.452   2.441
 3788TIP3    H232924   3.793   6.329   2.448
 3789TIP3   OH232925   6.746   4.868   0.558
 3789TIP3    H132926   6.668   4.860   0.503
 3789TIP3    H232927   6.766   4.778   0.584
 3790TIP3   OH232928   0.761   6.725   0.693
 3790TIP3    H132929   0.805   6.782   0.757
 3790TIP3    H232930   0.828   6.661   0.667
 3791TIP3   OH232931   0.158   5.333   6.975
 3791TIP3    H132932   0.169   5.349   6.881
 3791TIP3    H232933   0.091   5.396   7.003
 3792TIP3   OH232934   6.687   6.540   7.197
 3792TIP3    H132935   6.734   6.585   7.268
 3792TIP3    H232936   6.634   6.609   7.157
 3793TIP3   OH232937   5.229   0.871   0.740
 3793TIP3    H132938   5.311   0.854   0.693
 3793TIP3    H232939   5.222   0.966   0.743
 3794TIP3   OH232940   4.365   0.811   8.339
 3794TIP3    H132941   4.353   0.894   8.294
 3794TIP3    H232942   4.320   0.747   8.284
 3795TIP3   OH232943   4.940   2.744   0.680
 3795TIP3    H132944   4.939   2.701   0.594
 3795TIP3    H232945   4.853   2.729   0.715
 3796TIP3   OH232946   5.580   2.663   6.410
 3796TIP3    H132947   5.643   2.678   6.338
 3796TIP3    H232948   5.515   2.732   6.399
 3797TIP3   OH232949   0.588   1.048   1.482
 3797TIP3    H132950   0.640   1.075   1.557
 3797TIP3    H232951   0.540   1.126   1.457
 3798TIP3   OH232952   1.324   5.819   2.676
 3798TIP3    H132953   1.416   5.799   2.692
 3798TIP3    H232954   1.322   5.855   2.587
 3799TIP3   OH232955   1.917   3.156   8.504
 3799TIP3    H132956   1.952   3.087   8.447
 3799TIP3    H232957   1.836   3.183   8.462
 3800TIP3   OH232958   3.250   4.257   6.826
 3800TIP3    H132959   3.276   4.260   6.733
 3800TIP3    H232960   3.232   4.348   6.849
 3801TIP3   OH232961   5.790   6.223   8.417
 3801TIP3    H132962   5.748   6.149   8.460
 3801TIP3    H232963   5.850   6.258   8.483
 3802TIP3   OH232964   0.077   4.208   7.582
 3802TIP3    H132965   0.050   4.229   7.671
 3802TIP3    H232966   0.131   4.129   7.591
 3803TIP3   OH232967   0.338   4.134   1.220
 3803TIP3    H132968   0.392   4.167   1.292
 3803TIP3    H232969   0.350   4.040   1.222
 3804TIP3   OH232970   2.419   5.190   6.503
 3804TIP3    H132971   2.380   5.276   6.487
 3804TIP3    H232972   2.378   5.132   6.438
 3805TIP3   OH232973   5.327   0.032   1.982
 3805TIP3    H132974   5.370   6.849   2.058
 3805TIP3    H232975   5.396   0.039   1.916
 3806TIP3   OH232976   1.000   3.897   0.235
 3806TIP3    H132977   0.933   3.898   0.303
 3806TIP3    H232978   0.963   3.949   0.164
 3807TIP3   OH232979   1.943   5.733   8.361
 3807TIP3    H132980   2.030   5.694   8.361
 3807TIP3    H232981   1.937   5.777   8.277
 3808TIP3   OH232982   2.606   0.291   7.195
 3808TIP3    H132983   2.647   0.330   7.272
 3808TIP3    H232984   2.601   0.361   7.131
 3809TIP3   OH232985   4.130   6.358   8.042
 3809TIP3    H132986   4.076   6.304   8.100
 3809TIP3    H232987   4.093   6.344   7.955
 3810TIP3   OH232988   1.830   0.633   2.172
 3810TIP3    H132989   1.765   0.584   2.224
 3810TIP3    H232990   1.779   0.672   2.101
 3811TIP3   OH232991   1.498   3.445   0.303
 3811TIP3    H132992   1.452   3.424   0.384
 3811TIP3    H232993   1.558   3.372   0.289
 3812TIP3   OH232994   6.233   0.741   8.218
 3812TIP3    H132995   6.207   0.696   8.299
 3812TIP3    H232996   6.237   0.672   8.152
 3813TIP3   OH232997   3.994   0.355   2.044
 3813TIP3    H132998   4.056   0.362   2.117
 3813TIP3    H232999   3.916   0.315   2.083
 3814TIP3   OH233000   4.072   4.025   0.750
 3814TIP3    H133001   4.051   3.943   0.796
 3814TIP3    H233002   4.079   4.090   0.820
 3815TIP3   OH233003   1.940   1.294   0.037
 3815TIP3    H133004   1.981   1.320   0.119
 3815TIP3    H233005   1.939   1.374   8.697
 3816TIP3   OH233006   3.470   2.946   0.179
 3816TIP3    H133007   3.530   2.895   0.124
 3816TIP3    H233008   3.450   3.023   0.127
 3817TIP3   OH233009   6.464   3.537   1.485
 3817TIP3    H133010   6.520   3.529   1.407
 3817TIP3    H233011   6.402   3.465   1.477
 3818TIP3   OH233012   0.833   5.895   0.307
 3818TIP3    H133013   0.847   5.989   0.318
 3818TIP3    H233014   0.873   5.855   0.384
 3819TIP3   OH233015   6.746   6.020   1.997
 3819TIP3    H133016   6.719   5.946   2.052
 3819TIP3    H233017   6.690   6.092   2.025
 3820TIP3   OH233018   5.558   2.062   1.827
 3820TIP3    H133019   5.497   2.012   1.880
 3820TIP3    H233020   5.549   2.152   1.857
 3821TIP3   OH233021   6.660   5.698   2.131
 3821TIP3    H133022   6.728   5.746   2.178
 3821TIP3    H233023   6.647   5.618   2.183
 3822TIP3   OH233024   5.993   0.521   6.972
 3822TIP3    H133025   6.006   0.558   6.885
 3822TIP3    H233026   5.956   0.434   6.956
 3823TIP3   OH233027   4.106   6.325   0.696
 3823TIP3    H133028   4.145   6.402   0.656
 3823TIP3    H233029   4.085   6.353   0.785
 3824TIP3   OH233030   0.611   4.748   7.289
 3824TIP3    H133031   0.570   4.748   7.203
 3824TIP3    H233032   0.696   4.706   7.276
 3825TIP3   OH233033   0.258   0.494   0.763
 3825TIP3    H133034   0.322   0.452   0.820
 3825TIP3    H233035   0.185   0.432   0.758
 3826TIP3   OH233036   5.077   6.712   7.789
 3826TIP3    H133037   5.119   6.780   7.736
 3826TIP3    H233038   4.994   6.751   7.817
 3827TIP3   OH233039   3.043   6.520   7.625
 3827TIP3    H133040   3.042   6.570   7.706
 3827TIP3    H233041   3.018   6.583   7.557
 3828TIP3   OH233042   4.298   1.070   8.266
 3828TIP3    H133043   4.343   1.100   8.187
 3828TIP3    H233044   4.289   1.148   8.320
 3829TIP3   OH233045   4.362   5.692   7.569
 3829TIP3    H133046   4.380   5.666   7.478
 3829TIP3    H233047   4.276   5.653   7.587
 3830TIP3   OH233048   1.204   2.790   0.883
 3830TIP3    H133049   1.220   2.809   0.791
 3830TIP3    H233050   1.263   2.848   0.931
 3831TIP3   OH233051   3.967   1.717   1.526
 3831TIP3    H133052   4.022   1.655   1.478
 3831TIP3    H233053   3.928   1.666   1.597
 3832TIP3   OH233054   0.378   3.440   6.190
 3832TIP3    H133055   0.324   3.371   6.151
 3832TIP3    H233056   0.463   3.433   6.146
 3833TIP3   OH233057   0.508   0.662   6.566
 3833TIP3    H133058   0.531   0.569   6.555
 3833TIP3    H233059   0.556   0.707   6.497
 3834TIP3   OH233060   3.597   6.190   8.486
 3834TIP3    H133061   3.627   6.207   8.575
 3834TIP3    H233062   3.506   6.161   8.495
 3835TIP3   OH233063   0.487   2.022   0.613
 3835TIP3    H133064   0.420   1.980   0.560
 3835TIP3    H233065   0.492   1.968   0.692
 3836TIP3   OH233066   2.845   3.387   6.982
 3836TIP3    H133067   2.908   3.458   6.994
 3836TIP3    H233068   2.779   3.402   7.049
 3837TIP3   OH233069   5.475   0.224   7.068
 3837TIP3    H133070   5.509   0.312   7.054
 3837TIP3    H233071   5.545   0.178   7.114
 3838TIP3   OH233072   2.843   5.561   0.137
 3838TIP3    H133073   2.763   5.545   0.187
 3838TIP3    H233074   2.846   5.656   0.126
 3839TIP3   OH233075   0.440   4.166   1.473
 3839TIP3    H133076   0.384   4.135   1.544
 3839TIP3    H233077   0.520   4.114   1.481
 3840TIP3   OH233078   5.311   2.241   6.723
 3840TIP3    H133079   5.268   2.192   6.653
 3840TIP3    H233080   5.334   2.175   6.788
 3841TIP3   OH233081   2.358   6.023   6.529
 3841TIP3    H133082   2.282   6.059   6.484
 3841TIP3    H233083   2.322   5.975   6.604
 3842TIP3   OH233084   4.508   5.548   2.400
 3842TIP3    H133085   4.595   5.572   2.432
 3842TIP3    H233086   4.476   5.484   2.463
 3843TIP3   OH233087   2.959   1.013   1.232
 3843TIP3    H133088   2.942   1.049   1.145
 3843TIP3    H233089   2.941   0.920   1.224
 3844TIP3   OH233090   4.565   5.904   8.660
 3844TIP3    H133091   4.638   5.843   8.650
 3844TIP3    H233092   4.534   5.918   8.570
 3845TIP3   OH233093   3.355   0.232   0.778
 3845TIP3    H133094   3.278   0.268   0.734
 3845TIP3    H233095   3.324   0.153   0.821
 3846TIP3   OH233096   2.292   5.326   5.920
 3846TIP3    H133097   2.345   5.398   5.954
 3846TIP3    H233098   2.219   5.319   5.982
 3847TIP3   OH233099   5.914   4.676   1.352
 3847TIP3    H133100   5.905   4.683   1.257
 3847TIP3    H233101   5.827   4.698   1.386
 3848TIP3   OH233102   4.006   2.958   1.036
 3848TIP3    H133103   3.955   2.996   0.964
 3848TIP3    H233104   4.028   3.033   1.091
 3849TIP3   OH233105   4.943   4.460   6.480
 3849TIP3    H133106   4.994   4.388   6.516
 3849TIP3    H233107   4.931   4.521   6.553
 3850TIP3   OH233108   4.659   6.821   6.756
 3850TIP3    H133109   4.604   6.744   6.742
 3850TIP3    H233110   4.598   0.038   6.753
 3851TIP3   OH233111   6.019   4.277   2.069
 3851TIP3    H133112   5.956   4.257   1.999
 3851TIP3    H233113   6.088   4.212   2.059
 3852TIP3   OH233114   6.211   6.167   7.496
 3852TIP3    H133115   6.268   6.212   7.559
 3852TIP3    H233116   6.126   6.210   7.505
 3853TIP3   OH233117   6.126   4.427   8.314
 3853TIP3    H133118   6.159   4.373   8.386
 3853TIP3    H233119   6.109   4.364   8.243
 3854TIP3   OH233120   2.973   2.446   7.244
 3854TIP3    H133121   2.884   2.424   7.216
 3854TIP3    H233122   3.030   2.405   7.179
 3855TIP3   OH233123   4.329   6.849   8.296
 3855TIP3    H133124   4.313   6.816   8.384
 3855TIP3    H233125   4.254   6.818   8.245
 3856TIP3   OH233126   4.305   6.522   0.807
 3856TIP3    H133127   4.391   6.563   0.791
 3856TIP3    H233128   4.248   6.558   0.739
 3857TIP3   OH233129   1.506   4.402   7.220
 3857TIP3    H133130   1.465   4.419   7.135
 3857TIP3    H233131   1.594   4.439   7.211
 3858TIP3   OH233132   1.169   6.673   1.322
 3858TIP3    H133133   1.259   6.680   1.351
 3858TIP3    H233134   1.153   6.753   1.271
 3859TIP3   OH233135   2.308   2.390   1.310
 3859TIP3    H133136   2.262   2.404   1.227
 3859TIP3    H233137   2.251   2.331   1.359
 3860TIP3   OH233138   1.793   5.957   0.654
 3860TIP3    H133139   1.796   5.936   0.747
 3860TIP3    H233140   1.745   5.884   0.614
 3861TIP3   OH233141   1.035   3.988   2.047
 3861TIP3    H133142   1.070   3.911   2.003
 3861TIP3    H233143   0.955   3.957   2.090
 3862TIP3   OH233144   5.229   3.170   0.418
 3862TIP3    H133145   5.244   3.189   0.325
 3862TIP3    H233146   5.137   3.194   0.432
 3863TIP3   OH233147   1.158   1.296   8.385
 3863TIP3    H133148   1.230   1.233   8.382
 3863TIP3    H233149   1.199   1.377   8.416
 3864TIP3   OH233150   3.514   4.414   0.340
 3864TIP3    H133151   3.577   4.342   0.332
 3864TIP3    H233152   3.546   4.480   0.278
 3865TIP3   OH233153   5.697   6.778   8.527
 3865TIP3    H133154   5.737   0.007   8.514
 3865TIP3    H233155   5.626   6.775   8.464
 3866TIP3   OH233156   6.147   6.072   1.092
 3866TIP3    H133157   6.167   6.048   1.183
 3866TIP3    H233158   6.127   5.989   1.049
 3867TIP3   OH233159   5.701   3.277   2.086
 3867TIP3    H133160   5.764   3.211   2.114
 3867TIP3    H233161   5.747   3.360   2.095
 3868TIP3   OH233162   2.267   2.711   7.179
 3868TIP3    H133163   2.299   2.761   7.104
 3868TIP3    H233164   2.188   2.757   7.207
 3869TIP3   OH233165   0.796   4.276   0.582
 3869TIP3    H133166   0.715   4.282   0.633
 3869TIP3    H233167   0.863   4.312   0.640
 3870TIP3   OH233168   0.594   3.470   1.730
 3870TIP3    H133169   0.660   3.424   1.781
 3870TIP3    H233170   0.630   3.558   1.718
 3871TIP3   OH233171   0.480   2.930   0.117
 3871TIP3    H133172   0.543   2.860   0.133
 3871TIP3    H233173   0.527   3.010   0.139
 3872TIP3   OH233174   4.147   5.275   7.834
 3872TIP3    H133175   4.167   5.356   7.881
 3872TIP3    H233176   4.204   5.278   7.757
 3873TIP3   OH233177   2.382   0.178   0.874
 3873TIP3    H133178   2.303   0.219   0.907
 3873TIP3    H233179   2.423   0.245   0.819
 3874TIP3   OH233180   5.854   3.928   7.539
 3874TIP3    H133181   5.933   3.936   7.593
 3874TIP3    H233182   5.872   3.852   7.483
 3875TIP3   OH233183   1.492   2.561   0.817
 3875TIP3    H133184   1.525   2.472   0.822
 3875TIP3    H233185   1.566   2.613   0.787
 3876TIP3   OH233186   1.159   2.430   6.574
 3876TIP3    H133187   1.196   2.464   6.492
 3876TIP3    H233188   1.081   2.483   6.589
 3877TIP3   OH233189   5.436   5.336   7.262
 3877TIP3    H133190   5.484   5.409   7.300
 3877TIP3    H233191   5.379   5.305   7.332
 3878TIP3   OH233192   3.863   5.533   6.959
 3878TIP3    H133193   3.828   5.582   6.884
 3878TIP3    H233194   3.818   5.569   7.035
 3879TIP3   OH233195   0.685   4.001   1.471
 3879TIP3    H133196   0.673   3.950   1.390
 3879TIP3    H233197   0.757   3.957   1.516
 3880TIP3   OH233198   1.220   2.054   7.240
 3880TIP3    H133199   1.236   1.969   7.199
 3880TIP3    H233200   1.168   2.103   7.176
 3881TIP3   OH233201   1.748   2.080   7.495
 3881TIP3    H133202   1.679   2.066   7.560
 3881TIP3    H233203   1.710   2.049   7.413
 3882TIP3   OH233204   6.354   4.487   7.847
 3882TIP3    H133205   6.435   4.451   7.883
 3882TIP3    H233206   6.320   4.418   7.790
 3883TIP3   OH233207   1.993   5.112   7.389
 3883TIP3    H133208   2.048   5.152   7.321
 3883TIP3    H233209   1.920   5.074   7.342
 3884TIP3   OH233210   2.410   6.415   7.739
 3884TIP3    H133211   2.480   6.440   7.798
 3884TIP3    H233212   2.333   6.461   7.772
 3885TIP3   OH233213   0.542   0.069   0.016
 3885TIP3    H133214   0.503   0.140   0.068
 3885TIP3    H233215   0.468   0.026   8.688
 3886TIP3   OH233216   1.129   1.239   1.570
 3886TIP3    H133217   1.204   1.248   1.628
 3886TIP3    H233218   1.123   1.325   1.527
 3887TIP3   OH233219   2.983   4.205   1.254
 3887TIP3    H133220   2.980   4.115   1.286
 3887TIP3    H233221   2.941   4.256   1.323
 3888TIP3   OH233222   0.992   0.649   1.447
 3888TIP3    H133223   0.916   0.705   1.430
 3888TIP3    H233224   1.067   0.706   1.430
 3889TIP3   OH233225   1.587   3.311   7.779
 3889TIP3    H133226   1.592   3.355   7.863
 3889TIP3    H233227   1.669   3.333   7.735
 3890TIP3   OH233228   3.958   0.582   0.771
 3890TIP3    H133229   3.911   0.572   0.854
 3890TIP3    H233230   4.009   0.501   0.763
 3891TIP3   OH233231   4.967   3.245   7.808
 3891TIP3    H133232   4.931   3.171   7.758
 3891TIP3    H233233   4.921   3.242   7.892
 3892TIP3   OH233234   1.118   5.319   1.989
 3892TIP3    H133235   1.047   5.331   2.052
 3892TIP3    H233236   1.101   5.385   1.922
 3893TIP3   OH233237   5.622   5.085   7.506
 3893TIP3    H133238   5.617   5.175   7.472
 3893TIP3    H233239   5.531   5.058   7.513
 3894TIP3   OH233240   4.772   2.665   0.444
 3894TIP3    H133241   4.856   2.688   0.405
 3894TIP3    H233242   4.723   2.623   0.373
 3895TIP3   OH233243   5.355   2.542   2.068
 3895TIP3    H133244   5.269   2.571   2.099
 3895TIP3    H233245   5.347   2.447   2.059
 3896TIP3   OH233246   1.870   1.826   0.246
 3896TIP3    H133247   1.844   1.737   0.221
 3896TIP3    H233248   1.913   1.861   0.168
 3897TIP3   OH233249   5.153   3.393   0.706
 3897TIP3    H133250   5.221   3.451   0.672
 3897TIP3    H233251   5.167   3.393   0.801
 3898TIP3   OH233252   1.302   1.050   6.778
 3898TIP3    H133253   1.257   1.013   6.702
 3898TIP3    H233254   1.391   1.015   6.772
 3899TIP3   OH233255   3.733   2.595   0.502
 3899TIP3    H133256   3.827   2.582   0.515
 3899TIP3    H233257   3.693   2.511   0.524
 3900TIP3   OH233258   2.278   6.208   2.158
 3900TIP3    H133259   2.195   6.247   2.187
 3900TIP3    H233260   2.322   6.279   2.112
 3901TIP3   OH233261   1.373   5.137   0.590
 3901TIP3    H133262   1.359   5.043   0.578
 3901TIP3    H233263   1.359   5.175   0.504
 3902TIP3   OH233264   3.889   3.384   8.492
 3902TIP3    H133265   3.868   3.393   8.585
 3902TIP3    H233266   3.804   3.395   8.448
 3903TIP3   OH233267   1.665   2.061   2.221
 3903TIP3    H133268   1.744   2.037   2.173
 3903TIP3    H233269   1.598   2.000   2.189
 3904TIP3   OH233270   1.106   2.394   7.900
 3904TIP3    H133271   1.139   2.310   7.931
 3904TIP3    H233272   1.081   2.378   7.809
 3905TIP3   OH233273   4.998   6.541   8.680
 3905TIP3    H133274   5.077   6.590   8.654
 3905TIP3    H233275   5.011   6.454   8.642
 3906TIP3   OH233276   4.090   5.985   0.220
 3906TIP3    H133277   4.129   6.066   0.189
 3906TIP3    H233278   4.152   5.917   0.193
 3907TIP3   OH233279   2.377   6.296   0.288
 3907TIP3    H133280   2.331   6.377   0.307
 3907TIP3    H233281   2.358   6.240   0.364
 3908TIP3   OH233282   3.890   6.236   2.560
 3908TIP3    H133283   3.836   6.158   2.576
 3908TIP3    H233284   3.980   6.203   2.563
 3909TIP3   OH233285   3.083   1.118   0.370
 3909TIP3    H133286   3.064   1.051   0.304
 3909TIP3    H233287   2.997   1.147   0.400
 3910TIP3   OH233288   3.985   5.601   8.528
 3910TIP3    H133289   4.052   5.565   8.470
 3910TIP3    H233290   3.953   5.525   8.577
 3911TIP3   OH233291   1.000   4.087   0.509
 3911TIP3    H133292   0.932   4.020   0.513
 3911TIP3    H233293   0.954   4.169   0.530
 3912TIP3   OH233294   5.720   2.966   0.020
 3912TIP3    H133295   5.790   3.029   0.007
 3912TIP3    H233296   5.739   2.895   8.671
 3913TIP3   OH233297   2.707   6.198   8.552
 3913TIP3    H133298   2.640   6.260   8.581
 3913TIP3    H233299   2.790   6.237   8.583
 3914TIP3   OH233300   0.953   2.680   0.812
 3914TIP3    H133301   1.048   2.664   0.809
 3914TIP3    H233302   0.942   2.764   0.768
 3915TIP3   OH233303   3.476   3.606   1.590
 3915TIP3    H133304   3.412   3.670   1.619
 3915TIP3    H233305   3.426   3.542   1.540
 3916TIP3   OH233306   2.198   5.481   1.732
 3916TIP3    H133307   2.207   5.460   1.825
 3916TIP3    H233308   2.273   5.536   1.712
 3917TIP3   OH233309   0.456   0.317   0.086
 3917TIP3    H133310   0.412   0.372   0.021
 3917TIP3    H233311   0.396   0.316   0.161
 3918TIP3   OH233312   4.501   2.340   6.173
 3918TIP3    H133313   4.511   2.249   6.204
 3918TIP3    H233314   4.590   2.374   6.169
 3919TIP3   OH233315   5.470   5.397   0.212
 3919TIP3    H133316   5.522   5.338   0.157
 3919TIP3    H233317   5.466   5.353   0.297
 3920TIP3   OH233318   1.513   3.666   0.701
 3920TIP3    H133319   1.450   3.731   0.669
 3920TIP3    H233320   1.499   3.665   0.796
 3921TIP3   OH233321   2.266   2.862   0.360
 3921TIP3    H133322   2.229   2.792   0.413
 3921TIP3    H233323   2.248   2.835   0.270
 3922TIP3   OH233324   5.864   0.755   6.096
 3922TIP3    H133325   5.768   0.761   6.095
 3922TIP3    H233326   5.883   0.671   6.055
 3923TIP3   OH233327   0.931   5.734   0.528
 3923TIP3    H133328   0.953   5.647   0.559
 3923TIP3    H233329   0.896   5.780   0.604
 3924TIP3   OH233330   0.080   5.255   7.734
 3924TIP3    H133331   0.005   5.207   7.768
 3924TIP3    H233332   0.156   5.203   7.760
 3925TIP3   OH233333   5.225   4.800   7.709
 3925TIP3    H133334   5.233   4.783   7.802
 3925TIP3    H233335   5.133   4.825   7.696
 3926TIP3   OH233336   0.407   0.016   0.327
 3926TIP3    H133337   0.498   0.036   0.304
 3926TIP3    H233338   0.403   0.026   0.423
 3927TIP3   OH233339   3.692   5.115   8.269
 3927TIP3    H133340   3.757   5.176   8.304
 3927TIP3    H233341   3.712   5.110   8.176
 3928TIP3   OH233342   0.532   3.460   1.007
 3928TIP3    H133343   0.579   3.432   0.928
 3928TIP3    H233344   0.460   3.515   0.974
 3929TIP3   OH233345   3.847   3.969   7.965
 3929TIP3    H133346   3.850   4.062   7.988
 3929TIP3    H233347   3.910   3.928   8.025
 3930TIP3   OH233348   6.550   4.777   1.523
 3930TIP3    H133349   6.562   4.754   1.615
 3930TIP3    H233350   6.467   4.825   1.521
 3931TIP3   OH233351   6.012   1.145   1.122
 3931TIP3    H133352   6.058   1.071   1.162
 3931TIP3    H233353   6.001   1.119   1.030
 3932TIP3   OH233354   2.706   3.545   7.952
 3932TIP3    H133355   2.778   3.607   7.940
 3932TIP3    H233356   2.627   3.598   7.941
 3933TIP3   OH233357   5.122   6.584   7.074
 3933TIP3    H133358   5.065   6.599   6.998
 3933TIP3    H233359   5.063   6.588   7.149
 3934TIP3   OH233360   2.870   1.365   7.057
 3934TIP3    H133361   2.779   1.340   7.045
 3934TIP3    H233362   2.867   1.450   7.101
 3935TIP3   OH233363   4.504   2.653   8.507
 3935TIP3    H133364   4.590   2.633   8.544
 3935TIP3    H233365   4.442   2.606   8.563
 3936TIP3   OH233366   6.178   4.973   0.819
 3936TIP3    H133367   6.268   5.000   0.831
 3936TIP3    H233368   6.163   4.977   0.725
 3937TIP3   OH233369   0.783   4.505   7.986
 3937TIP3    H133370   0.864   4.472   7.947
 3937TIP3    H233371   0.738   4.549   7.914
 3938TIP3   OH233372   2.894   5.762   0.948
 3938TIP3    H133373   2.841   5.817   0.891
 3938TIP3    H233374   2.872   5.672   0.921
 3939TIP3   OH233375   1.356   5.684   6.951
 3939TIP3    H133376   1.432   5.719   6.997
 3939TIP3    H233377   1.378   5.592   6.934
 3940TIP3   OH233378   6.447   2.562   7.744
 3940TIP3    H133379   6.513   2.630   7.730
 3940TIP3    H233380   6.386   2.572   7.670
 3941TIP3   OH233381   3.427   0.301   1.798
 3941TIP3    H133382   3.498   0.316   1.736
 3941TIP3    H233383   3.455   0.346   1.878
 3942TIP3   OH233384   0.798   3.944   7.562
 3942TIP3    H133385   0.703   3.956   7.550
 3942TIP3    H233386   0.837   4.017   7.515
 3943TIP3   OH233387   6.635   1.913   7.146
 3943TIP3    H133388   6.712   1.963   7.121
 3943TIP3    H233389   6.661   1.822   7.138
 3944TIP3   OH233390   1.832   0.243   1.169
 3944TIP3    H133391   1.826   0.315   1.231
 3944TIP3    H233392   1.812   0.282   1.084
 3945TIP3   OH233393   6.040   6.580   6.966
 3945TIP3    H133394   6.087   6.662   6.981
 3945TIP3    H233395   6.033   6.575   6.870
 3946TIP3   OH233396   2.831   0.234   8.218
 3946TIP3    H133397   2.862   0.319   8.185
 3946TIP3    H233398   2.850   0.173   8.147
 3947TIP3   OH233399   1.987   6.003   6.733
 3947TIP3    H133400   2.003   6.040   6.647
 3947TIP3    H233401   1.910   5.947   6.722
 3948TIP3   OH233402   2.941   1.385   6.734
 3948TIP3    H133403   2.926   1.469   6.691
 3948TIP3    H233404   3.002   1.405   6.805
 3949TIP3   OH233405   2.631   6.510   1.884
 3949TIP3    H133406   2.672   6.424   1.872
 3949TIP3    H233407   2.552   6.507   1.829
 3950TIP3   OH233408   3.786   4.051   0.037
 3950TIP3    H133409   3.795   4.056   0.132
 3950TIP3    H233410   3.875   4.057   0.004
 3951TIP3   OH233411   3.233   0.038   7.050
 3951TIP3    H133412   3.285   0.043   7.130
 3951TIP3    H233413   3.155   6.846   7.075
 3952TIP3   OH233414   3.977   0.537   8.703
 3952TIP3    H133415   3.936   0.467   0.042
 3952TIP3    H233416   4.002   0.603   0.054
 3953TIP3   OH233417   4.801   4.325   1.734
 3953TIP3    H133418   4.843   4.380   1.800
 3953TIP3    H233419   4.771   4.248   1.783
 3954TIP3   OH233420   4.815   0.025   7.078
 3954TIP3    H133421   4.893   6.848   7.122
 3954TIP3    H233422   4.766   6.802   7.054
 3955TIP3   OH233423   3.528   2.551   1.353
 3955TIP3    H133424   3.497   2.472   1.396
 3955TIP3    H233425   3.614   2.568   1.392
 3956TIP3   OH233426   5.131   4.301   2.215
 3956TIP3    H133427   5.153   4.393   2.198
 3956TIP3    H233428   5.054   4.305   2.271
 3957TIP3   OH233429   3.555   0.642   7.688
 3957TIP3    H133430   3.589   0.642   7.778
 3957TIP3    H233431   3.460   0.645   7.698
 3958TIP3   OH233432   6.669   4.050   0.254
 3958TIP3    H133433   6.688   4.119   0.318
 3958TIP3    H233434   6.596   4.001   0.293
 3959TIP3   OH233435   5.907   4.050   8.367
 3959TIP3    H133436   5.936   4.114   8.432
 3959TIP3    H233437   5.897   4.100   8.286
 3960TIP3   OH233438   0.900   4.972   1.477
 3960TIP3    H133439   0.964   5.015   1.420
 3960TIP3    H233440   0.949   4.904   1.522
 3961TIP3   OH233441   3.477   5.167   1.525
 3961TIP3    H133442   3.396   5.213   1.504
 3961TIP3    H233443   3.448   5.082   1.559
 3962TIP3   OH233444   6.673   5.323   8.027
 3962TIP3    H133445   6.738   5.393   8.023
 3962TIP3    H233446   6.627   5.329   7.943
 3963TIP3   OH233447   6.569   3.934   6.817
 3963TIP3    H133448   6.620   3.929   6.736
 3963TIP3    H233449   6.525   4.019   6.812
 3964TIP3   OH233450   5.709   5.394   6.500
 3964TIP3    H133451   5.685   5.333   6.429
 3964TIP3    H233452   5.657   5.472   6.483
 3965TIP3   OH233453   3.178   5.393   0.072
 3965TIP3    H133454   3.241   5.465   0.068
 3965TIP3    H233455   3.196   5.340   8.708
 3966TIP3   OH233456   3.333   6.141   8.501
 3966TIP3    H133457   3.293   6.182   8.577
 3966TIP3    H233458   3.289   6.056   8.494
 3967TIP3   OH233459   2.769   2.710   1.102
 3967TIP3    H133460   2.763   2.798   1.139
 3967TIP3    H233461   2.857   2.706   1.064
 3968TIP3   OH233462   5.103   3.924   7.872
 3968TIP3    H133463   5.054   3.857   7.825
 3968TIP3    H233464   5.068   4.007   7.840
 3969TIP3   OH233465   1.564   4.103   6.321
 3969TIP3    H133466   1.578   4.102   6.227
 3969TIP3    H233467   1.469   4.104   6.331
 3970TIP3   OH233468   2.575   4.833   8.424
 3970TIP3    H133469   2.649   4.871   8.472
 3970TIP3    H233470   2.520   4.795   8.492
 3971TIP3   OH233471   3.740   5.981   0.783
 3971TIP3    H133472   3.728   6.012   0.694
 3971TIP3    H233473   3.694   5.897   0.786
 3972TIP3   OH233474   5.351   5.282   7.744
 3972TIP3    H133475   5.306   5.276   7.660
 3972TIP3    H233476   5.298   5.230   7.804
 3973TIP3   OH233477   6.661   0.610   7.176
 3973TIP3    H133478   6.573   0.614   7.213
 3973TIP3    H233479   6.715   0.570   7.244
 3974TIP3   OH233480   5.526   2.299   1.990
 3974TIP3    H133481   5.614   2.335   1.992
 3974TIP3    H233482   5.522   2.240   2.066
 3975TIP3   OH233483   6.407   0.511   1.355
 3975TIP3    H133484   6.501   0.495   1.355
 3975TIP3    H233485   6.388   0.542   1.267
 3976TIP3   OH233486   4.060   0.009   0.797
 3976TIP3    H133487   4.117   0.064   0.743
 3976TIP3    H233488   3.995   6.830   0.736
 3977TIP3   OH233489   0.746   1.037   8.232
 3977TIP3    H133490   0.799   1.116   8.241
 3977TIP3    H233491   0.809   0.965   8.229
 3978TIP3   OH233492   6.679   5.859   8.691
 3978TIP3    H133493   6.725   5.904   8.620
 3978TIP3    H233494   6.738   5.789   0.004
 3979TIP3   OH233495   5.665   6.146   0.636
 3979TIP3    H133496   5.756   6.167   0.659
 3979TIP3    H233497   5.671   6.114   0.545
 3980TIP3   OH233498   0.101   5.353   1.106
 3980TIP3    H133499   0.187   5.312   1.093
 3980TIP3    H233500   0.048   5.286   1.147
 3981TIP3   OH233501   6.811   2.996   7.182
 3981TIP3    H133502   6.789   2.979   7.091
 3981TIP3    H233503   6.809   3.092   7.190
 3982TIP3   OH233504   4.704   0.237   0.619
 3982TIP3    H133505   4.672   0.156   0.580
 3982TIP3    H233506   4.796   0.240   0.596
 3983TIP3   OH233507   1.164   2.942   7.301
 3983TIP3    H133508   1.208   2.867   7.262
 3983TIP3    H233509   1.227   2.976   7.365
 3984TIP3   OH233510   0.390   2.694   7.775
 3984TIP3    H133511   0.425   2.616   7.732
 3984TIP3    H233512   0.423   2.767   7.722
 3985TIP3   OH233513   0.979   0.725   7.846
 3985TIP3    H133514   1.062   0.709   7.802
 3985TIP3    H233515   0.979   0.818   7.867
 3986TIP3   OH233516   1.288   5.209   7.199
 3986TIP3    H133517   1.351   5.191   7.128
 3986TIP3    H233518   1.223   5.267   7.159
 3987TIP3   OH233519   2.752   2.120   1.105
 3987TIP3    H133520   2.833   2.082   1.140
 3987TIP3    H233521   2.774   2.211   1.087
 3988TIP3   OH233522   2.254   4.422   0.169
 3988TIP3    H133523   2.314   4.482   0.125
 3988TIP3    H233524   2.200   4.386   0.098
 3989TIP3   OH233525   2.768   5.428   6.718
 3989TIP3    H133526   2.739   5.508   6.675
 3989TIP3    H233527   2.815   5.380   6.649
 3990TIP3   OH233528   0.870   4.031   0.030
 3990TIP3    H133529   0.831   4.093   0.092
 3990TIP3    H233530   0.800   4.011   8.682
 3991TIP3   OH233531   4.370   3.420   1.523
 3991TIP3    H133532   4.379   3.502   1.572
 3991TIP3    H233533   4.402   3.353   1.583
 3992TIP3   OH233534   2.613   2.612   8.581
 3992TIP3    H133535   2.697   2.657   8.573
 3992TIP3    H233536   2.634   2.519   8.576
 3993TIP3   OH233537   3.025   4.271   0.667
 3993TIP3    H133538   3.042   4.357   0.705
 3993TIP3    H233539   3.110   4.226   0.672
 3994TIP3   OH233540   1.627   4.774   8.542
 3994TIP3    H133541   1.618   4.859   8.584
 3994TIP3    H233542   1.719   4.750   8.555
 3995TIP3   OH233543   4.920   0.889   1.732
 3995TIP3    H133544   4.857   0.946   1.777
 3995TIP3    H233545   4.989   0.948   1.702
 3996TIP3   OH233546   3.064   6.709   8.555
 3996TIP3    H133547   3.150   6.730   8.519
 3996TIP3    H233548   3.082   6.683   8.646
 3997TIP3   OH233549   2.695   4.048   1.009
 3997TIP3    H133550   2.779   4.004   0.999
 3997TIP3    H233551   2.636   3.999   0.951
 3998TIP3   OH233552   6.059   1.562   2.318
 3998TIP3    H133553   6.072   1.488   2.378
 3998TIP3    H233554   6.132   1.622   2.337
 3999TIP3   OH233555   5.705   0.602   2.074
 3999TIP3    H133556   5.630   0.574   2.127
 3999TIP3    H233557   5.779   0.556   2.112
 4000TIP3   OH233558   0.992   5.502   8.028
 4000TIP3    H133559   0.965   5.462   8.111
 4000TIP3    H233560   1.026   5.428   7.977
 4001TIP3   OH233561   1.861   0.281   8.139
 4001TIP3    H133562   1.815   0.342   8.197
 4001TIP3    H233563   1.840   0.195   8.174
 4002TIP3   OH233564   2.571   5.959   7.498
 4002TIP3    H133565   2.546   6.025   7.562
 4002TIP3    H233566   2.492   5.906   7.486
 4003TIP3   OH233567   3.196   3.498   8.434
 4003TIP3    H133568   3.138   3.572   8.416
 4003TIP3    H233569   3.229   3.514   8.522
 4004TIP3   OH233570   1.899   6.413   8.456
 4004TIP3    H133571   1.877   6.427   8.364
 4004TIP3    H233572   1.942   6.327   8.458
 4005TIP3   OH233573   2.973   6.116   1.054
 4005TIP3    H133574   2.885   6.101   1.020
 4005TIP3    H233575   3.012   6.029   1.060
 4006TIP3   OH233576   1.418   4.906   0.243
 4006TIP3    H133577   1.351   4.911   0.310
 4006TIP3    H233578   1.415   4.992   0.200
 4007TIP3   OH233579   2.933   0.243   0.238
 4007TIP3    H133580   2.849   0.269   0.199
 4007TIP3    H233581   2.952   0.313   0.301
 4008TIP3   OH233582   6.525   3.636   7.793
 4008TIP3    H133583   6.493   3.565   7.736
 4008TIP3    H233584   6.559   3.590   7.870
 4009TIP3   OH233585   0.275   3.169   6.124
 4009TIP3    H133586   0.196   3.163   6.177
 4009TIP3    H233587   0.288   3.081   6.088
 4010TIP3   OH233588   6.702   2.461   8.442
 4010TIP3    H133589   6.642   2.404   8.491
 4010TIP3    H233590   6.654   2.483   8.362
 4011TIP3   OH233591   1.684   1.250   7.595
 4011TIP3    H133592   1.696   1.321   7.532
 4011TIP3    H233593   1.758   1.258   7.655
 4012TIP3   OH233594   0.157   4.137   7.107
 4012TIP3    H133595   0.217   4.203   7.070
 4012TIP3    H233596   0.185   4.055   7.067
 4013TIP3   OH233597   2.140   0.259   0.937
 4013TIP3    H133598   2.088   0.339   0.941
 4013TIP3    H233599   2.080   0.190   0.963
 4014TIP3   OH233600   2.938   0.598   7.769
 4014TIP3    H133601   3.028   0.567   7.781
 4014TIP3    H233602   2.915   0.640   7.853
 4015TIP3   OH233603   2.223   1.894   8.636
 4015TIP3    H133604   2.256   1.865   8.551
 4015TIP3    H233605   2.195   1.813   8.679
 4016TIP3   OH233606   4.379   6.355   1.048
 4016TIP3    H133607   4.324   6.417   1.000
 4016TIP3    H233608   4.321   6.315   1.112
 4017TIP3   OH233609   1.882   4.630   1.631
 4017TIP3    H133610   1.924   4.567   1.689
 4017TIP3    H233611   1.847   4.697   1.689
 4018TIP3   OH233612   6.012   6.397   7.813
 4018TIP3    H133613   6.081   6.336   7.834
 4018TIP3    H233614   5.967   6.413   7.896
 4019TIP3   OH233615   0.582   5.026   8.634
 4019TIP3    H133616   0.537   5.071   8.563
 4019TIP3    H233617   0.627   4.953   8.591
 4020TIP3   OH233618   3.837   1.977   7.768
 4020TIP3    H133619   3.766   1.953   7.709
 4020TIP3    H233620   3.913   1.989   7.711
 4021TIP3   OH233621   1.889   4.563   2.380
 4021TIP3    H133622   1.829   4.585   2.309
 4021TIP3    H233623   1.951   4.636   2.383
 4022TIP3   OH233624   4.357   4.466   8.004
 4022TIP3    H133625   4.338   4.379   8.037
 4022TIP3    H233626   4.440   4.490   8.045
 4023TIP3   OH233627   2.410   5.626   0.313
 4023TIP3    H133628   2.325   5.659   0.341
 4023TIP3    H233629   2.447   5.587   0.393
 4024TIP3   OH233630   6.019   0.408   7.528
 4024TIP3    H133631   6.002   0.329   7.477
 4024TIP3    H233632   6.091   0.452   7.481
 4025TIP3   OH233633   0.721   5.842   6.006
 4025TIP3    H133634   0.796   5.785   6.020
 4025TIP3    H233635   0.742   5.890   5.926
 4026TIP3   OH233636   5.191   1.103   8.392
 4026TIP3    H133637   5.126   1.171   8.405
 4026TIP3    H233638   5.166   1.061   8.310
 4027TIP3   OH233639   6.257   2.288   8.443
 4027TIP3    H133640   6.345   2.256   8.464
 4027TIP3    H233641   6.242   2.260   8.353
 4028TIP3   OH233642   2.002   6.187   1.491
 4028TIP3    H133643   1.951   6.160   1.414
 4028TIP3    H233644   1.986   6.281   1.498
 4029TIP3   OH233645   0.186   6.459   7.898
 4029TIP3    H133646   0.240   6.401   7.951
 4029TIP3    H233647   0.249   6.519   7.857
 4030TIP3   OH233648   2.357   5.974   2.298
 4030TIP3    H133649   2.295   5.903   2.276
 4030TIP3    H233650   2.315   6.053   2.266
 4031TIP3   OH233651   5.545   4.252   8.566
 4031TIP3    H133652   5.470   4.234   8.509
 4031TIP3    H233653   5.514   4.235   8.654
 4032TIP3   OH233654   6.047   2.042   7.013
 4032TIP3    H133655   6.054   2.133   6.985
 4032TIP3    H233656   5.997   1.999   6.943
 4033TIP3   OH233657   6.487   1.647   1.945
 4033TIP3    H133658   6.461   1.651   2.037
 4033TIP3    H233659   6.512   1.736   1.922
 4034TIP3   OH233660   6.283   0.058   1.753
 4034TIP3    H133661   6.235   0.140   1.769
 4034TIP3    H233662   6.261   0.002   1.827
 4035TIP3   OH233663   1.862   3.218   0.825
 4035TIP3    H133664   1.779   3.220   0.778
 4035TIP3    H233665   1.928   3.236   0.757
 4036TIP3   OH233666   1.877   4.434   6.899
 4036TIP3    H133667   1.876   4.489   6.821
 4036TIP3    H233668   1.909   4.492   6.969
 4037TIP3   OH233669   0.083   3.586   0.415
 4037TIP3    H133670   0.089   3.578   0.320
 4037TIP3    H233671   0.028   3.662   0.429
 4038TIP3   OH233672   6.578   4.920   0.306
 4038TIP3    H133673   6.519   4.912   0.381
 4038TIP3    H233674   6.570   4.837   0.260
 4039TIP3   OH233675   4.554   3.384   6.452
 4039TIP3    H133676   4.592   3.457   6.500
 4039TIP3    H233677   4.475   3.420   6.411
 4040TIP3   OH233678   4.663   2.132   1.877
 4040TIP3    H133679   4.709   2.128   1.962
 4040TIP3    H233680   4.601   2.204   1.886
 4041TIP3   OH233681   2.917   0.216   1.560
 4041TIP3    H133682   2.846   0.255   1.611
 4041TIP3    H233683   2.997   0.249   1.601
 4042TIP3   OH233684   0.792   3.383   8.010
 4042TIP3    H133685   0.823   3.474   8.010
 4042TIP3    H233686   0.778   3.362   7.918
 4043TIP3   OH233687   3.834   6.645   7.525
 4043TIP3    H133688   3.799   6.709   7.463
 4043TIP3    H233689   3.803   6.676   7.610
 4044TIP3   OH233690   1.699   0.187   8.507
 4044TIP3    H133691   1.669   0.172   8.596
 4044TIP3    H233692   1.675   0.107   8.460
 4045TIP3   OH233693   3.715   5.223   6.709
 4045TIP3    H133694   3.714   5.170   6.789
 4045TIP3    H233695   3.763   5.169   6.645
 4046TIP3   OH233696   2.015   4.996   7.906
 4046TIP3    H133697   2.081   4.939   7.946
 4046TIP3    H233698   2.031   4.988   7.812
 4047TIP3   OH233699   6.431   5.401   0.074
 4047TIP3    H133700   6.428   5.315   0.117
 4047TIP3    H233701   6.433   5.463   0.146
 4048TIP3   OH233702   5.217   5.095   8.535
 4048TIP3    H133703   5.275   5.170   8.550
 4048TIP3    H233704   5.257   5.024   8.586
 4049TIP3   OH233705   6.326   1.100   0.438
 4049TIP3    H133706   6.311   1.034   0.506
 4049TIP3    H233707   6.267   1.172   0.461
 4050TIP3   OH233708   4.758   5.218   0.648
 4050TIP3    H133709   4.701   5.291   0.621
 4050TIP3    H233710   4.790   5.182   0.565
 4051TIP3   OH233711   0.908   6.646   8.252
 4051TIP3    H133712   0.913   6.551   8.248
 4051TIP3    H233713   0.895   6.674   8.162
 4052TIP3   OH233714   2.714   6.824   1.590
 4052TIP3    H133715   2.800   6.783   1.599
 4052TIP3    H233716   2.697   6.824   1.496
 4053TIP3   OH233717   4.642   5.925   0.901
 4053TIP3    H133718   4.622   5.845   0.853
 4053TIP3    H233719   4.733   5.945   0.878
 4054TIP3   OH233720   3.620   3.459   7.011
 4054TIP3    H133721   3.602   3.544   6.971
 4054TIP3    H233722   3.538   3.411   7.002
 4055TIP3   OH233723   4.635   4.649   8.419
 4055TIP3    H133724   4.562   4.651   8.481
 4055TIP3    H233725   4.642   4.739   8.388
 4056TIP3   OH233726   2.379   3.253   8.258
 4056TIP3    H133727   2.293   3.219   8.233
 4056TIP3    H233728   2.436   3.176   8.256
 4057TIP3   OH233729   6.682   3.883   6.569
 4057TIP3    H133730   6.619   3.851   6.505
 4057TIP3    H233731   6.738   3.944   6.521
 4058TIP3   OH233732   1.445   6.156   1.828
 4058TIP3    H133733   1.379   6.105   1.873
 4058TIP3    H233734   1.527   6.108   1.842
 4059TIP3   OH233735   3.610   0.588   0.731
 4059TIP3    H133736   3.668   0.513   0.718
 4059TIP3    H233737   3.578   0.579   0.820
 4060TIP3   OH233738   6.245   6.045   6.306
 4060TIP3    H133739   6.294   6.087   6.236
 4060TIP3    H233740   6.251   5.951   6.287
 4061TIP3   OH233741   6.636   0.690   1.186
 4061TIP3    H133742   6.636   0.759   1.252
 4061TIP3    H233743   6.545   0.684   1.157
 4062TIP3   OH233744   1.754   5.049   8.129
 4062TIP3    H133745   1.715   5.037   8.042
 4062TIP3    H233746   1.822   5.115   8.115
 4063TIP3   OH233747   1.732   6.494   2.274
 4063TIP3    H133748   1.661   6.541   2.231
 4063TIP3    H233749   1.749   6.544   2.354
 4064TIP3   OH233750   3.767   0.522   7.500
 4064TIP3    H133751   3.711   0.508   7.424
 4064TIP3    H233752   3.711   0.566   7.564
 4065TIP3   OH233753   4.216   6.643   1.294
 4065TIP3    H133754   4.213   6.706   1.221
 4065TIP3    H233755   4.162   6.570   1.264
 4066TIP3   OH233756   0.697   6.798   7.347
 4066TIP3    H133757   0.609   6.832   7.334
 4066TIP3    H233758   0.728   6.840   7.427
 4067TIP3   OH233759   6.435   2.139   8.012
 4067TIP3    H133760   6.452   2.224   8.052
 4067TIP3    H233761   6.445   2.153   7.918
 4068TIP3   OH233762   6.041   2.609   1.964
 4068TIP3    H133763   5.988   2.582   1.889
 4068TIP3    H233764   6.131   2.612   1.931
 4069TIP3   OH233765   5.962   3.223   1.806
 4069TIP3    H133766   5.866   3.223   1.812
 4069TIP3    H233767   5.992   3.236   1.896
 4070TIP3   OH233768   2.701   2.880   7.694
 4070TIP3    H133769   2.736   2.932   7.767
 4070TIP3    H233770   2.776   2.869   7.635
 4071TIP3   OH233771   4.174   2.393   2.571
 4071TIP3    H133772   4.159   2.324   2.636
 4071TIP3    H233773   4.107   2.458   2.588
 4072TIP3   OH233774   0.316   2.448   6.761
 4072TIP3    H133775   0.253   2.508   6.720
 4072TIP3    H233776   0.379   2.428   6.692
 4073TIP3   OH233777   1.108   6.699   0.597
 4073TIP3    H133778   1.086   6.606   0.585
 4073TIP3    H233779   1.077   6.741   0.517
 4074TIP3   OH233780   0.207   5.795   0.354
 4074TIP3    H133781   0.175   5.705   0.366
 4074TIP3    H233782   0.251   5.816   0.436
 4075TIP3   OH233783   2.742   1.691   8.107
 4075TIP3    H133784   2.686   1.688   8.185
 4075TIP3    H233785   2.810   1.625   8.125
 4076TIP3   OH233786   0.365   5.163   6.612
 4076TIP3    H133787   0.409   5.147   6.695
 4076TIP3    H233788   0.288   5.214   6.634
 4077TIP3   OH233789   1.096   5.307   7.837
 4077TIP3    H133790   1.160   5.348   7.778
 4077TIP3    H233791   1.101   5.214   7.818
 4078TIP3   OH233792   4.945   4.891   1.906
 4078TIP3    H133793   4.973   4.806   1.939
 4078TIP3    H233794   4.913   4.938   1.983
 4079TIP3   OH233795   0.142   2.598   6.614
 4079TIP3    H133796   0.091   2.609   6.694
 4079TIP3    H233797   0.122   2.676   6.562
 4080TIP3   OH233798   5.281   1.309   8.636
 4080TIP3    H133799   5.312   1.232   8.588
 4080TIP3    H233800   5.337   1.312   0.000
 4081TIP3   OH233801   4.103   1.108   6.847
 4081TIP3    H133802   4.136   1.161   6.774
 4081TIP3    H233803   4.128   1.019   6.825
 4082TIP3   OH233804   4.595   0.052   7.252
 4082TIP3    H133805   4.668   0.102   7.216
 4082TIP3    H233806   4.592   6.829   7.199
 4083TIP3   OH233807   6.140   3.132   6.868
 4083TIP3    H133808   6.150   3.109   6.775
 4083TIP3    H233809   6.048   3.157   6.876
 4084TIP3   OH233810   1.059   4.651   7.358
 4084TIP3    H133811   1.061   4.673   7.265
 4084TIP3    H233812   1.024   4.729   7.401
 4085TIP3   OH233813   1.396   0.807   2.555
 4085TIP3    H133814   1.433   0.742   2.614
 4085TIP3    H233815   1.411   0.771   2.467
 4086TIP3   OH233816   5.266   5.178   1.512
 4086TIP3    H133817   5.258   5.115   1.441
 4086TIP3    H233818   5.223   5.137   1.586
 4087TIP3   OH233819   6.158   2.846   7.708
 4087TIP3    H133820   6.146   2.753   7.691
 4087TIP3    H233821   6.111   2.862   7.790
 4088TIP3   OH233822   1.333   3.727   7.983
 4088TIP3    H133823   1.355   3.663   8.051
 4088TIP3    H233824   1.255   3.691   7.941
 4089TIP3   OH233825   2.126   3.182   8.149
 4089TIP3    H133826   2.073   3.205   8.072
 4089TIP3    H233827   2.110   3.253   8.211
 4090TIP3   OH233828   5.433   0.320   2.440
 4090TIP3    H133829   5.373   0.375   2.491
 4090TIP3    H233830   5.388   0.236   2.434
 4091TIP3   OH233831   6.527   5.204   8.259
 4091TIP3    H133832   6.568   5.262   8.195
 4091TIP3    H233833   6.566   5.229   8.343
 4092TIP3   OH233834   2.692   5.344   7.234
 4092TIP3    H133835   2.688   5.349   7.139
 4092TIP3    H233836   2.757   5.410   7.258
 4093TIP3   OH233837   1.368   0.511   2.115
 4093TIP3    H133838   1.398   0.420   2.110
 4093TIP3    H233839   1.414   0.556   2.045
 4094TIP3   OH233840   3.780   6.247   0.820
 4094TIP3    H133841   3.781   6.154   0.797
 4094TIP3    H233842   3.703   6.281   0.775
 4095TIP3   OH233843   5.131   1.173   7.350
 4095TIP3    H133844   5.089   1.141   7.430
 4095TIP3    H233845   5.078   1.247   7.323
 4096TIP3   OH233846   6.330   0.979   8.128
 4096TIP3    H133847   6.294   0.896   8.158
 4096TIP3    H233848   6.414   0.956   8.089
 4097TIP3   OH233849   4.044   5.302   1.312
 4097TIP3    H133850   4.005   5.363   1.250
 4097TIP3    H233851   4.084   5.357   1.379
 4098TIP3   OH233852   0.855   6.172   8.026
 4098TIP3    H133853   0.912   6.208   7.958
 4098TIP3    H233854   0.900   6.092   8.055
 4099TIP3   OH233855   6.466   2.061   1.237
 4099TIP3    H133856   6.387   2.075   1.288
 4099TIP3    H233857   6.435   2.040   1.149
 4100TIP3   OH233858   3.051   2.457   1.215
 4100TIP3    H133859   3.105   2.536   1.219
 4100TIP3    H233860   2.967   2.484   1.253
 4101TIP3   OH233861   3.162   4.827   7.436
 4101TIP3    H133862   3.075   4.788   7.449
 4101TIP3    H233863   3.222   4.769   7.482
 4102TIP3   OH233864   3.069   3.966   0.411
 4102TIP3    H133865   3.151   3.918   0.400
 4102TIP3    H233866   3.017   3.912   0.470
 4103TIP3   OH233867   2.018   0.024   1.939
 4103TIP3    H133868   2.075   6.847   2.009
 4103TIP3    H233869   1.937   0.047   1.982
 4104TIP3   OH233870   3.867   1.328   2.463
 4104TIP3    H133871   3.816   1.409   2.474
 4104TIP3    H233872   3.815   1.274   2.404
 4105TIP3   OH233873   3.320   5.144   0.182
 4105TIP3    H133874   3.310   5.095   0.264
 4105TIP3    H233875   3.262   5.219   0.192
 4106TIP3   OH233876   1.693   4.597   7.176
 4106TIP3    H133877   1.780   4.602   7.136
 4106TIP3    H233878   1.686   4.678   7.226
 4107TIP3   OH233879   5.574   3.210   0.289
 4107TIP3    H133880   5.539   3.296   0.311
 4107TIP3    H233881   5.502   3.149   0.310
 4108TIP3   OH233882   1.896   0.948   1.984
 4108TIP3    H133883   1.861   0.860   1.970
 4108TIP3    H233884   1.875   0.968   2.075
 4109TIP3   OH233885   4.110   4.603   7.947
 4109TIP3    H133886   4.066   4.554   7.877
 4109TIP3    H233887   4.181   4.545   7.975
 4110TIP3   OH233888   1.715   4.480   7.850
 4110TIP3    H133889   1.762   4.401   7.877
 4110TIP3    H233890   1.663   4.504   7.926
 4111TIP3   OH233891   3.153   1.146   6.891
 4111TIP3    H133892   3.098   1.159   6.814
 4111TIP3    H233893   3.217   1.081   6.864
 4112TIP3   OH233894   6.210   2.990   1.105
 4112TIP3    H133895   6.250   2.960   1.024
 4112TIP3    H233896   6.228   2.919   1.167
 4113TIP3   OH233897   3.359   5.352   0.395
 4113TIP3    H133898   3.417   5.307   0.456
 4113TIP3    H233899   3.289   5.387   0.450
 4114TIP3   OH233900   4.584   2.462   0.257
 4114TIP3    H133901   4.573   2.367   0.247
 4114TIP3    H233902   4.562   2.478   0.349
 4115TIP3   OH233903   3.231   5.391   8.293
 4115TIP3    H133904   3.242   5.328   8.221
 4115TIP3    H233905   3.209   5.473   8.249
 4116TIP3   OH233906   5.171   3.409   0.969
 4116TIP3    H133907   5.225   3.403   1.048
 4116TIP3    H233908   5.152   3.502   0.960
 4117TIP3   OH233909   0.307   0.879   6.090
 4117TIP3    H133910   0.249   0.953   6.071
 4117TIP3    H233911   0.379   0.889   6.028
 4118TIP3   OH233912   0.421   4.901   2.127
 4118TIP3    H133913   0.349   4.948   2.169
 4118TIP3    H233914   0.466   4.857   2.199
 4119TIP3   OH233915   6.618   5.876   0.335
 4119TIP3    H133916   6.604   5.849   0.425
 4119TIP3    H233917   6.698   5.829   0.308
 4120TIP3   OH233918   1.506   4.305   8.632
 4120TIP3    H133919   1.468   4.294   8.545
 4120TIP3    H233920   1.450   4.369   8.675
 4121TIP3   OH233921   1.676   2.736   0.689
 4121TIP3    H133922   1.710   2.718   0.601
 4121TIP3    H233923   1.738   2.798   0.726
 4122TIP3   OH233924   2.331   0.684   8.261
 4122TIP3    H133925   2.337   0.589   8.271
 4122TIP3    H233926   2.361   0.701   8.172
 4123TIP3   OH233927   3.849   2.178   0.525
 4123TIP3    H133928   3.930   2.208   0.568
 4123TIP3    H233929   3.852   2.219   0.438
 4124TIP3   OH233930   2.899   2.453   2.069
 4124TIP3    H133931   2.820   2.497   2.101
 4124TIP3    H233932   2.881   2.435   1.976
 4125TIP3   OH233933   0.192   3.541   7.153
 4125TIP3    H133934   0.248   3.475   7.192
 4125TIP3    H233935   0.243   3.575   7.079
 4126TIP3   OH233936   2.986   3.436   0.085
 4126TIP3    H133937   2.942   3.431   0.170
 4126TIP3    H233938   3.026   3.523   0.083
 4127TIP3   OH233939   6.379   2.618   8.270
 4127TIP3    H133940   6.389   2.526   8.244
 4127TIP3    H233941   6.434   2.667   8.209
 4128TIP3   OH233942   3.129   4.065   0.942
 4128TIP3    H133943   3.079   4.127   0.995
 4128TIP3    H233944   3.073   3.987   0.937
 4129TIP3   OH233945   4.278   0.025   2.406
 4129TIP3    H133946   4.326   0.030   2.323
 4129TIP3    H233947   4.260   0.116   2.428
 4130TIP3   OH233948   3.684   3.526   6.214
 4130TIP3    H133949   3.721   3.496   6.297
 4130TIP3    H233950   3.727   3.611   6.199
 4131TIP3   OH233951   4.764   5.430   0.987
 4131TIP3    H133952   4.694   5.462   1.045
 4131TIP3    H233953   4.801   5.509   0.948
 4132TIP3   OH233954   0.418   1.551   6.866
 4132TIP3    H133955   0.348   1.539   6.931
 4132TIP3    H233956   0.409   1.641   6.836
 4133TIP3   OH233957   1.918   2.117   7.782
 4133TIP3    H133958   1.929   2.022   7.770
 4133TIP3    H233959   1.946   2.155   7.699
 4134TIP3   OH233960   2.170   5.438   1.995
 4134TIP3    H133961   2.136   5.350   2.011
 4134TIP3    H233962   2.096   5.496   2.014
 4135TIP3   OH233963   0.833   6.827   2.256
 4135TIP3    H133964   0.910   6.776   2.230
 4135TIP3    H233965   0.869   0.051   2.292
 4136TIP3   OH233966   5.011   1.390   7.546
 4136TIP3    H133967   5.013   1.415   7.454
 4136TIP3    H233968   5.083   1.439   7.586
 4137TIP3   OH233969   1.911   0.667   8.494
 4137TIP3    H133970   1.922   0.719   8.415
 4137TIP3    H233971   1.963   0.713   8.561
 4138TIP3   OH233972   2.759   2.747   1.614
 4138TIP3    H133973   2.717   2.706   1.690
 4138TIP3    H233974   2.689   2.794   1.570
 4139TIP3   OH233975   3.453   4.632   1.049
 4139TIP3    H133976   3.536   4.619   1.095
 4139TIP3    H233977   3.388   4.640   1.119
 4140TIP3   OH233978   2.584   4.927   7.406
 4140TIP3    H133979   2.562   4.999   7.347
 4140TIP3    H233980   2.680   4.926   7.408
 4141TIP3   OH233981   0.157   2.808   8.706
 4141TIP3    H133982   0.098   2.867   8.660
 4141TIP3    H233983   0.153   2.726   8.656
 4142TIP3   OH233984   5.541   3.551   1.372
 4142TIP3    H133985   5.632   3.549   1.400
 4142TIP3    H233986   5.496   3.600   1.441
 4143TIP3   OH233987   5.142   2.873   1.114
 4143TIP3    H133988   5.185   2.788   1.108
 4143TIP3    H233989   5.155   2.913   1.028
 4144TIP3   OH233990   3.449   3.918   1.194
 4144TIP3    H133991   3.367   3.870   1.188
 4144TIP3    H233992   3.473   3.936   1.103
 4145TIP3   OH233993   4.660   0.142   1.704
 4145TIP3    H133994   4.567   0.166   1.705
 4145TIP3    H233995   4.681   0.124   1.796
 4146TIP3   OH233996   6.463   6.799   1.309
 4146TIP3    H133997   6.399   6.848   1.360
 4146TIP3    H233998   6.482   6.855   1.234
 4147TIP3   OH233999   0.562   0.975   0.965
 4147TIP3    H134000   0.585   0.893   0.921
 4147TIP3    H234001   0.487   0.952   1.020
 4148TIP3   OH234002   2.895   4.321   1.878
 4148TIP3    H134003   2.888   4.415   1.893
 4148TIP3    H234004   2.812   4.296   1.837
 4149TIP3   OH234005   6.292   1.471   8.036
 4149TIP3    H134006   6.331   1.556   8.017
 4149TIP3    H234007   6.364   1.408   8.025
 4150TIP3   OH234008   5.242   1.859   2.671
 4150TIP3    H134009   5.200   1.776   2.652
 4150TIP3    H234010   5.335   1.838   2.681
 4151TIP3   OH234011   2.440   5.913   7.010
 4151TIP3    H134012   2.351   5.943   6.988
 4151TIP3    H234013   2.431   5.819   7.023
 4152TIP3   OH234014   4.514   4.892   2.179
 4152TIP3    H134015   4.519   4.807   2.136
 4152TIP3    H234016   4.602   4.908   2.214
 4153TIP3   OH234017   2.975   5.363   6.533
 4153TIP3    H134018   3.051   5.386   6.587
 4153TIP3    H234019   2.993   5.404   6.448
 4154TIP3   OH234020   4.178   3.680   7.918
 4154TIP3    H134021   4.114   3.716   7.858
 4154TIP3    H234022   4.181   3.587   7.897
 4155TIP3   OH234023   5.944   2.084   7.839
 4155TIP3    H134024   6.029   2.091   7.883
 4155TIP3    H234025   5.942   2.158   7.778
 4156TIP3   OH234026   4.996   4.323   7.284
 4156TIP3    H134027   5.006   4.342   7.191
 4156TIP3    H234028   4.983   4.408   7.325
 4157TIP3   OH234029   1.902   3.989   1.311
 4157TIP3    H134030   1.920   4.058   1.247
 4157TIP3    H234031   1.808   3.974   1.305
 4158TIP3   OH234032   0.602   5.547   0.812
 4158TIP3    H134033   0.525   5.505   0.849
 4158TIP3    H234034   0.594   5.534   0.717
 4159TIP3   OH234035   0.255   5.622   8.001
 4159TIP3    H134036   0.303   5.697   8.036
 4159TIP3    H234037   0.247   5.562   8.076
 4160TIP3   OH234038   2.550   6.577   0.570
 4160TIP3    H134039   2.573   6.500   0.518
 4160TIP3    H234040   2.459   6.561   0.597
 4161TIP3   OH234041   1.520   1.406   1.392
 4161TIP3    H134042   1.444   1.455   1.424
 4161TIP3    H234043   1.513   1.320   1.434
 4162TIP3   OH234044   1.971   4.038   7.158
 4162TIP3    H134045   1.980   4.005   7.248
 4162TIP3    H234046   1.951   4.131   7.169
 4163TIP3   OH234047   5.564   1.236   2.151
 4163TIP3    H134048   5.522   1.196   2.227
 4163TIP3    H234049   5.526   1.324   2.146
 4164TIP3   OH234050   3.203   6.211   0.019
 4164TIP3    H134051   3.225   6.302   8.712
 4164TIP3    H234052   3.169   6.215   0.109
 4165TIP3   OH234053   6.443   0.155   8.502
 4165TIP3    H134054   6.353   0.122   8.497
 4165TIP3    H234055   6.496   0.077   8.518
 4166TIP3   OH234056   6.624   0.641   8.619
 4166TIP3    H134057   6.575   0.643   8.537
 4166TIP3    H234058   6.673   0.724   8.620
 4167TIP3   OH234059   0.845   3.176   0.314
 4167TIP3    H134060   0.900   3.156   0.390
 4167TIP3    H234061   0.876   3.261   0.283
 4168TIP3   OH234062   3.592   5.088   6.963
 4168TIP3    H134063   3.633   5.019   7.015
 4168TIP3    H234064   3.534   5.134   7.024
 4169TIP3   OH234065   1.124   3.393   8.490
 4169TIP3    H134066   1.115   3.310   8.443
 4169TIP3    H234067   1.114   3.370   8.582
 4170TIP3   OH234068   5.600   2.624   1.034
 4170TIP3    H134069   5.514   2.616   0.993
 4170TIP3    H234070   5.649   2.549   1.002
 4171TIP3   OH234071   5.973   5.822   1.639
 4171TIP3    H134072   5.882   5.795   1.626
 4171TIP3    H234073   5.986   5.817   1.734
 4172TIP3   OH234074   6.498   6.771   8.339
 4172TIP3    H134075   6.538   6.712   8.275
 4172TIP3    H234076   6.431   6.817   8.290
 4173TIP3   OH234077   5.071   1.658   7.870
 4173TIP3    H134078   5.054   1.577   7.919
 4173TIP3    H234079   5.166   1.668   7.872
 4174TIP3   OH234080   5.503   1.982   8.552
 4174TIP3    H134081   5.553   1.926   8.612
 4174TIP3    H234082   5.434   2.019   8.607
 4175TIP3   OH234083   3.702   0.273   7.841
 4175TIP3    H134084   3.637   0.238   7.902
 4175TIP3    H234085   3.680   0.233   7.757
 4176TIP3   OH234086   3.580   2.377   0.510
 4176TIP3    H134087   3.497   2.340   0.537
 4176TIP3    H234088   3.571   2.390   0.416
 4177TIP3   OH234089   4.361   4.552   0.635
 4177TIP3    H134090   4.422   4.482   0.660
 4177TIP3    H234091   4.410   4.606   0.573
 4178TIP3   OH234092   6.595   2.509   1.988
 4178TIP3    H134093   6.509   2.468   2.000
 4178TIP3    H234094   6.581   2.601   2.010
 4179TIP3   OH234095   1.248   0.885   7.892
 4179TIP3    H134096   1.321   0.935   7.928
 4179TIP3    H234097   1.236   0.920   7.804
 4180TIP3   OH234098   3.475   6.574   1.107
 4180TIP3    H134099   3.445   6.664   1.094
 4180TIP3    H234100   3.551   6.565   1.049
 4181TIP3   OH234101   4.795   2.667   7.613
 4181TIP3    H134102   4.821   2.677   7.704
 4181TIP3    H234103   4.866   2.708   7.563
 4182TIP3   OH234104   0.389   3.252   0.822
 4182TIP3    H134105   0.345   3.172   0.791
 4182TIP3    H234106   0.459   3.267   0.758
 4183TIP3   OH234107   0.549   4.043   0.443
 4183TIP3    H134108   0.467   4.027   0.395
 4183TIP3    H234109   0.560   4.138   0.440
 4184TIP3   OH234110   2.486   1.770   2.289
 4184TIP3    H134111   2.477   1.718   2.369
 4184TIP3    H234112   2.539   1.715   2.231
 4185TIP3   OH234113   4.102   1.906   0.653
 4185TIP3    H134114   4.141   1.985   0.617
 4185TIP3    H234115   4.169   1.838   0.640
 4186TIP3   OH234116   5.322   2.595   1.661
 4186TIP3    H134117   5.272   2.624   1.585
 4186TIP3    H234118   5.356   2.675   1.701
 4187TIP3   OH234119   2.150   2.186   6.886
 4187TIP3    H134120   2.230   2.217   6.844
 4187TIP3    H234121   2.080   2.212   6.827
 4188TIP3   OH234122   5.437   0.077   7.461
 4188TIP3    H134123   5.478   0.034   7.537
 4188TIP3    H234124   5.419   0.005   7.401
 4189TIP3   OH234125   4.763   2.476   1.798
 4189TIP3    H134126   4.718   2.427   1.729
 4189TIP3    H234127   4.696   2.533   1.836
 4190TIP3   OH234128   5.394   6.259   6.411
 4190TIP3    H134129   5.438   6.247   6.327
 4190TIP3    H234130   5.425   6.186   6.465
 4191TIP3   OH234131   2.753   6.132   0.410
 4191TIP3    H134132   2.697   6.132   0.487
 4191TIP3    H234133   2.699   6.095   0.340
 4192TIP3   OH234134   1.104   6.579   1.970
 4192TIP3    H134135   1.074   6.620   1.889
 4192TIP3    H234136   1.185   6.625   1.992
 4193TIP3   OH234137   6.774   4.928   7.277
 4193TIP3    H134138   6.787   4.987   7.202
 4193TIP3    H234139   6.795   4.982   7.354
 4194TIP3   OH234140   2.151   0.099   7.318
 4194TIP3    H134141   2.121   0.075   7.406
 4194TIP3    H234142   2.171   0.016   7.275
 4195TIP3   OH234143   6.687   1.369   0.150
 4195TIP3    H134144   6.681   1.279   0.182
 4195TIP3    H234145   6.779   1.381   0.128
 4196TIP3   OH234146   1.773   0.914   7.884
 4196TIP3    H134147   1.736   0.970   7.952
 4196TIP3    H234148   1.855   0.956   7.860
 4197TIP3   OH234149   5.166   1.373   1.265
 4197TIP3    H134150   5.088   1.381   1.210
 4197TIP3    H234151   5.148   1.427   1.341
 4198TIP3   OH234152   2.877   4.137   7.301
 4198TIP3    H134153   2.931   4.109   7.374
 4198TIP3    H234154   2.831   4.058   7.272
 4199TIP3   OH234155   5.967   3.157   7.195
 4199TIP3    H134156   5.923   3.092   7.140
 4199TIP3    H234157   5.899   3.186   7.257
 4200TIP3   OH234158   0.979   2.219   7.721
 4200TIP3    H134159   1.005   2.133   7.689
 4200TIP3    H234160   0.910   2.201   7.786
 4201TIP3   OH234161   1.824   1.815   7.899
 4201TIP3    H134162   1.733   1.845   7.896
 4201TIP3    H234163   1.871   1.875   7.841
 4202TIP3   OH234164   3.558   4.063   7.429
 4202TIP3    H134165   3.475   4.072   7.382
 4202TIP3    H234166   3.533   4.026   7.514
 4203TIP3   OH234167   0.049   6.344   8.622
 4203TIP3    H134168   0.122   6.342   8.560
 4203TIP3    H234169   6.828   6.334   8.568
 4204TIP3   OH234170   6.422   5.387   7.473
 4204TIP3    H134171   6.478   5.352   7.542
 4204TIP3    H234172   6.338   5.342   7.485
 4205TIP3   OH234173   4.344   3.269   8.626
 4205TIP3    H134174   4.296   3.351   8.639
 4205TIP3    H234175   4.324   3.217   8.704
 4206TIP3   OH234176   3.387   4.201   0.936
 4206TIP3    H134177   3.388   4.286   0.892
 4206TIP3    H234178   3.305   4.201   0.986
 4207TIP3   OH234179   6.578   5.663   6.526
 4207TIP3    H134180   6.520   5.688   6.454
 4207TIP3    H234181   6.666   5.670   6.489
 4208TIP3   OH234182   4.658   1.668   1.833
 4208TIP3    H134183   4.645   1.693   1.925
 4208TIP3    H234184   4.618   1.581   1.826
 4209TIP3   OH234185   0.574   0.315   2.132
 4209TIP3    H134186   0.542   0.274   2.212
 4209TIP3    H234187   0.568   0.246   2.066
 4210TIP3   OH234188   1.398   4.496   1.145
 4210TIP3    H134189   1.453   4.570   1.171
 4210TIP3    H234190   1.427   4.475   1.056
 4211TIP3   OH234191   3.733   5.079   1.633
 4211TIP3    H134192   3.650   5.111   1.597
 4211TIP3    H234193   3.752   5.138   1.706
 4212TIP3   OH234194   0.939   1.470   7.581
 4212TIP3    H134195   0.890   1.405   7.531
 4212TIP3    H234196   1.025   1.430   7.593
 4213TIP3   OH234197   3.774   5.131   1.366
 4213TIP3    H134198   3.779   5.128   1.462
 4213TIP3    H234199   3.826   5.208   1.342
 4214TIP3   OH234200   3.515   4.344   1.702
 4214TIP3    H134201   3.588   4.377   1.755
 4214TIP3    H234202   3.457   4.419   1.693
 4215TIP3   OH234203   4.761   1.532   0.412
 4215TIP3    H134204   4.750   1.443   0.446
 4215TIP3    H234205   4.700   1.585   0.464
 4216TIP3   OH234206   0.235   2.448   1.683
 4216TIP3    H134207   0.161   2.503   1.706
 4216TIP3    H234208   0.309   2.486   1.731
 4217TIP3   OH234209   0.338   6.403   8.160
 4217TIP3    H134210   0.346   6.387   8.254
 4217TIP3    H234211   0.282   6.332   8.128
 4218TIP3   OH234212   3.154   3.809   2.018
 4218TIP3    H134213   3.103   3.840   2.093
 4218TIP3    H234214   3.094   3.754   1.969
 4219TIP3   OH234215   0.041   4.553   8.153
 4219TIP3    H134216   0.039   4.623   8.088
 4219TIP3    H234217   0.134   4.545   8.177
 4220TIP3   OH234218   0.621   3.018   7.065
 4220TIP3    H134219   0.634   3.112   7.079
 4220TIP3    H234220   0.596   2.985   7.152
 4221TIP3   OH234221   4.108   0.811   0.779
 4221TIP3    H134222   4.053   0.733   0.768
 4221TIP3    H234223   4.072   0.874   0.717
 4222TIP3   OH234224   3.435   6.076   8.125
 4222TIP3    H134225   3.438   5.986   8.095
 4222TIP3    H234226   3.342   6.093   8.140
 4223TIP3   OH234227   3.221   6.830   2.257
 4223TIP3    H134228   3.281   0.042   2.228
 4223TIP3    H234229   3.178   0.008   2.335
 4224TIP3   OH234230   4.672   0.726   7.091
 4224TIP3    H134231   4.659   0.700   7.000
 4224TIP3    H234232   4.716   0.651   7.131
 4225TIP3   OH234233   3.370   6.617   2.182
 4225TIP3    H134234   3.330   6.704   2.179
 4225TIP3    H234235   3.304   6.562   2.224
 4226TIP3   OH234236   0.241   0.960   7.777
 4226TIP3    H134237   0.328   0.927   7.753
 4226TIP3    H234238   0.252   0.993   7.866
 4227TIP3   OH234239   3.774   0.225   2.154
 4227TIP3    H134240   3.742   0.140   2.124
 4227TIP3    H234241   3.703   0.260   2.208
 4228TIP3   OH234242   4.154   2.185   6.441
 4228TIP3    H134243   4.067   2.152   6.463
 4228TIP3    H234244   4.144   2.224   6.354
 4229TIP3   OH234245   0.985   3.483   7.749
 4229TIP3    H134246   0.939   3.459   7.669
 4229TIP3    H234247   1.022   3.569   7.730
 4230TIP3   OH234248   2.940   0.001   2.244
 4230TIP3    H134249   2.936   0.063   2.316
 4230TIP3    H234250   3.017   6.804   2.262
 4231TIP3   OH234251   5.871   4.470   0.302
 4231TIP3    H134252   5.834   4.392   0.260
 4231TIP3    H234253   5.917   4.435   0.379
 4232TIP3   OH234254   2.581   3.657   7.251
 4232TIP3    H134255   2.630   3.729   7.213
 4232TIP3    H234256   2.630   3.579   7.226
 4233TIP3   OH234257   2.617   1.603   8.519
 4233TIP3    H134258   2.626   1.677   8.459
 4233TIP3    H234259   2.557   1.635   8.587
 4234TIP3   OH234260   1.270   3.914   0.247
 4234TIP3    H134261   1.266   3.818   0.247
 4234TIP3    H234262   1.179   3.942   0.244
 4235TIP3   OH234263   0.269   5.059   8.684
 4235TIP3    H134264   0.261   4.964   8.677
 4235TIP3    H234265   0.315   5.086   8.605
 4236TIP3   OH234266   1.506   2.529   0.412
 4236TIP3    H134267   1.439   2.589   0.444
 4236TIP3    H234268   1.518   2.465   0.483
 4237TIP3   OH234269   4.517   0.974   1.855
 4237TIP3    H134270   4.422   0.973   1.862
 4237TIP3    H234271   4.545   1.034   1.924
 4238TIP3   OH234272   2.992   1.913   1.113
 4238TIP3    H134273   3.052   1.967   1.165
 4238TIP3    H234274   3.036   1.901   1.029
 4239TIP3   OH234275   2.838   6.094   0.098
 4239TIP3    H134276   2.756   6.144   0.103
 4239TIP3    H234277   2.889   6.126   0.173
 4240TIP3   OH234278   3.205   3.021   7.508
 4240TIP3    H134279   3.288   2.977   7.529
 4240TIP3    H234280   3.217   3.055   7.420
 4241TIP3   OH234281   6.461   4.844   0.904
 4241TIP3    H134282   6.472   4.750   0.920
 4241TIP3    H234283   6.462   4.883   0.992
 4242TIP3   OH234284   0.161   2.587   6.301
 4242TIP3    H134285   0.216   2.664   6.289
 4242TIP3    H234286   0.073   2.622   6.311
 4243TIP3   OH234287   1.544   4.761   0.791
 4243TIP3    H134288   1.497   4.693   0.744
 4243TIP3    H234289   1.635   4.731   0.792
 4244TIP3   OH234290   1.770   3.216   1.642
 4244TIP3    H134291   1.861   3.246   1.645
 4244TIP3    H234292   1.775   3.131   1.599
 4245TIP3   OH234293   5.705   4.828   0.955
 4245TIP3    H134294   5.645   4.898   0.980
 4245TIP3    H234295   5.686   4.812   0.863
 4246TIP3   OH234296   1.679   2.374   6.154
 4246TIP3    H134297   1.723   2.294   6.126
 4246TIP3    H234298   1.619   2.396   6.083
 4247TIP3   OH234299   3.515   6.225   7.439
 4247TIP3    H134300   3.458   6.241   7.514
 4247TIP3    H234301   3.484   6.141   7.403
 4248TIP3   OH234302   2.327   1.457   8.439
 4248TIP3    H134303   2.417   1.425   8.431
 4248TIP3    H234304   2.334   1.551   8.421
 4249TIP3   OH234305   6.052   4.638   7.782
 4249TIP3    H134306   6.014   4.660   7.697
 4249TIP3    H234307   6.089   4.551   7.769
 4250TIP3   OH234308   5.231   5.604   8.000
 4250TIP3    H134309   5.284   5.542   8.049
 4250TIP3    H234310   5.247   5.583   7.908
 4251TIP3   OH234311   5.367   3.421   8.161
 4251TIP3    H134312   5.311   3.496   8.178
 4251TIP3    H234313   5.451   3.458   8.136
 4252TIP3   OH234314   1.029   5.083   8.070
 4252TIP3    H134315   1.097   5.076   8.004
 4252TIP3    H234316   0.947   5.070   8.022
 4253TIP3   OH234317   5.122   5.467   7.011
 4253TIP3    H134318   5.096   5.382   7.046
 4253TIP3    H234319   5.199   5.449   6.957
 4254TIP3   OH234320   4.855   2.668   2.572
 4254TIP3    H134321   4.914   2.722   2.625
 4254TIP3    H234322   4.897   2.663   2.487
 4255TIP3   OH234323   2.965   0.334   7.859
 4255TIP3    H134324   2.884   0.384   7.859
 4255TIP3    H234325   3.035   0.400   7.861
 4256TIP3   OH234326   3.926   3.284   0.705
 4256TIP3    H134327   3.866   3.281   0.631
 4256TIP3    H234328   4.006   3.322   0.669
 4257TIP3   OH234329   6.767   1.142   7.197
 4257TIP3    H134330   6.703   1.074   7.177
 4257TIP3    H234331   6.741   1.176   7.283
 4258TIP3   OH234332   4.911   6.210   2.291
 4258TIP3    H134333   4.993   6.163   2.302
 4258TIP3    H234334   4.936   6.300   2.275
 4259TIP3   OH234335   1.601   1.522   0.111
 4259TIP3    H134336   1.512   1.555   0.118
 4259TIP3    H234337   1.593   1.442   0.060
 4260TIP3   OH234338   4.150   3.125   8.406
 4260TIP3    H134339   4.169   3.204   8.356
 4260TIP3    H234340   4.177   3.145   8.495
 4261TIP3   OH234341   0.745   2.302   1.397
 4261TIP3    H134342   0.666   2.249   1.403
 4261TIP3    H234343   0.721   2.374   1.338
 4262TIP3   OH234344   4.109   0.942   2.065
 4262TIP3    H134345   4.173   1.009   2.041
 4262TIP3    H234346   4.045   0.988   2.119
 4263TIP3   OH234347   4.519   6.661   0.728
 4263TIP3    H134348   4.612   6.648   0.708
 4263TIP3    H234349   4.509   6.756   0.730
 4264TIP3   OH234350   4.654   5.746   1.203
 4264TIP3    H134351   4.576   5.781   1.161
 4264TIP3    H234352   4.727   5.796   1.165
 4265TIP3   OH234353   3.838   0.824   0.002
 4265TIP3    H134354   3.930   0.798   8.703
 4265TIP3    H234355   3.817   0.796   0.091
 4266TIP3   OH234356   5.995   4.315   7.850
 4266TIP3    H134357   6.007   4.323   7.945
 4266TIP3    H234358   6.082   4.327   7.813
 4267TIP3   OH234359   5.690   0.629   0.887
 4267TIP3    H134360   5.668   0.713   0.926
 4267TIP3    H234361   5.764   0.648   0.829
 4268TIP3   OH234362   4.142   2.711   1.050
 4268TIP3    H134363   4.094   2.794   1.051
 4268TIP3    H234364   4.137   2.680   1.141
 4269TIP3   OH234365   3.799   5.403   0.210
 4269TIP3    H134366   3.714   5.425   0.173
 4269TIP3    H234367   3.809   5.464   0.284
 4270TIP3   OH234368   5.690   2.977   1.697
 4270TIP3    H134369   5.728   3.034   1.763
 4270TIP3    H234370   5.701   3.025   1.614
 4271TIP3   OH234371   4.789   6.797   1.543
 4271TIP3    H134372   4.742   6.856   1.602
 4271TIP3    H234373   4.831   6.855   1.480
 4272TIP3   OH234374   3.075   2.170   1.688
 4272TIP3    H134375   3.110   2.226   1.758
 4272TIP3    H234376   3.026   2.230   1.631
 4273TIP3   OH234377   4.966   1.617   0.629
 4273TIP3    H134378   4.935   1.590   0.715
 4273TIP3    H234379   4.929   1.553   0.568
 4274TIP3   OH234380   3.599   5.498   7.085
 4274TIP3    H134381   3.595   5.463   6.996
 4274TIP3    H234382   3.545   5.439   7.137
 4275TIP3   OH234383   4.942   1.001   1.270
 4275TIP3    H134384   4.930   0.964   1.182
 4275TIP3    H234385   4.876   0.957   1.324
 4276TIP3   OH234386   2.799   6.152   7.082
 4276TIP3    H134387   2.846   6.166   6.999
 4276TIP3    H234388   2.868   6.154   7.148
 4277TIP3   OH234389   4.619   0.697   0.707
 4277TIP3    H134390   4.561   0.753   0.759
 4277TIP3    H234391   4.654   0.754   0.639
 4278TIP3   OH234392   6.838   6.186   8.316
 4278TIP3    H134393   6.827   6.154   8.226
 4278TIP3    H234394   6.756   6.231   8.336
 4279TIP3   OH234395   1.833   5.274   7.031
 4279TIP3    H134396   1.882   5.356   7.034
 4279TIP3    H234397   1.833   5.250   6.938
 4280TIP3   OH234398   1.004   5.327   6.489
 4280TIP3    H134399   1.080   5.347   6.434
 4280TIP3    H234400   1.030   5.355   6.577
 4281TIP3   OH234401   0.809   0.255   8.181
 4281TIP3    H134402   0.896   0.227   8.152
 4281TIP3    H234403   0.777   0.182   8.235
 4282TIP3   OH234404   2.339   6.483   2.019
 4282TIP3    H134405   2.425   6.502   1.980
 4282TIP3    H234406   2.342   6.527   2.104
 4283TIP3   OH234407   6.416   4.511   8.298
 4283TIP3    H134408   6.433   4.524   8.392
 4283TIP3    H234409   6.322   4.524   8.288
 4284TIP3   OH234410   6.252   2.519   6.354
 4284TIP3    H134411   6.228   2.542   6.265
 4284TIP3    H234412   6.333   2.568   6.372
 4285TIP3   OH234413   2.024   6.639   1.685
 4285TIP3    H134414   2.019   6.731   1.659
 4285TIP3    H234415   2.060   6.642   1.774
 4286TIP3   OH234416   2.004   6.400   7.572
 4286TIP3    H134417   2.052   6.446   7.503
 4286TIP3    H234418   1.920   6.445   7.577
 4287TIP3   OH234419   1.822   2.413   1.465
 4287TIP3    H134420   1.887   2.412   1.394
 4287TIP3    H234421   1.746   2.456   1.427
 4288TIP3   OH234422   3.080   5.740   6.681
 4288TIP3    H134423   3.173   5.747   6.658
 4288TIP3    H234424   3.038   5.703   6.604
 4289TIP3   OH234425   2.963   5.237   0.965
 4289TIP3    H134426   3.002   5.218   0.880
 4289TIP3    H234427   3.035   5.228   1.027
 4290TIP3   OH234428   2.499   0.493   0.207
 4290TIP3    H134429   2.408   0.468   0.187
 4290TIP3    H234430   2.552   0.427   0.163
 4291TIP3   OH234431   4.642   1.643   7.847
 4291TIP3    H134432   4.607   1.732   7.842
 4291TIP3    H234433   4.704   1.637   7.774
 4292TIP3   OH234434   6.687   1.596   0.555
 4292TIP3    H134435   6.706   1.678   0.508
 4292TIP3    H234436   6.626   1.549   0.498
 4293TIP3   OH234437   6.384   3.510   8.100
 4293TIP3    H134438   6.467   3.492   8.057
 4293TIP3    H234439   6.319   3.506   8.030
 4294TIP3   OH234440   6.047   0.231   1.239
 4294TIP3    H134441   6.055   0.286   1.317
 4294TIP3    H234442   6.004   0.152   1.270
 4295TIP3   OH234443   3.924   4.450   0.931
 4295TIP3    H134444   3.874   4.517   0.885
 4295TIP3    H234445   4.015   4.464   0.905
 4296TIP3   OH234446   4.504   2.176   0.259
 4296TIP3    H134447   4.566   2.172   0.185
 4296TIP3    H234448   4.517   2.093   0.305
 4297TIP3   OH234449   1.631   5.635   8.132
 4297TIP3    H134450   1.645   5.562   8.192
 4297TIP3    H234451   1.646   5.598   8.045
 4298TIP3   OH234452   6.668   5.810   7.106
 4298TIP3    H134453   6.590   5.757   7.120
 4298TIP3    H234454   6.739   5.759   7.145
 4299TIP3   OH234455   5.514   3.659   0.974
 4299TIP3    H134456   5.449   3.668   1.043
 4299TIP3    H234457   5.596   3.692   1.013
 4300TIP3   OH234458   1.806   5.437   6.369
 4300TIP3    H134459   1.837   5.415   6.457
 4300TIP3    H234460   1.831   5.529   6.356
 4301TIP3   OH234461   6.204   5.906   6.942
 4301TIP3    H134462   6.281   5.962   6.940
 4301TIP3    H234463   6.214   5.848   6.866
 4302TIP3   OH234464   4.243   1.740   6.608
 4302TIP3    H134465   4.219   1.720   6.518
 4302TIP3    H234466   4.257   1.654   6.649
 4303TIP3   OH234467   0.590   5.914   8.666
 4303TIP3    H134468   0.587   5.933   8.572
 4303TIP3    H234469   0.521   5.968   8.704
 4304TIP3   OH234470   3.379   5.727   1.216
 4304TIP3    H134471   3.290   5.741   1.248
 4304TIP3    H234472   3.435   5.745   1.291
 4305TIP3   OH234473   5.144   4.172   8.640
 4305TIP3    H134474   5.095   4.170   0.009
 4305TIP3    H234475   5.169   4.081   8.625
 4306TIP3   OH234476   6.479   0.357   0.935
 4306TIP3    H134477   6.504   0.428   0.877
 4306TIP3    H234478   6.398   0.323   0.897
 4307TIP3   OH234479   6.613   4.349   7.443
 4307TIP3    H134480   6.663   4.284   7.393
 4307TIP3    H234481   6.631   4.432   7.399
 4308TIP3   OH234482   2.096   0.246   7.998
 4308TIP3    H134483   2.006   0.246   8.032
 4308TIP3    H234484   2.144   0.187   8.056
 4309TIP3   OH234485   4.966   5.969   0.356
 4309TIP3    H134486   5.033   5.985   0.290
 4309TIP3    H234487   4.883   5.981   0.310
 4310TIP3   OH234488   1.265   3.918   8.641
 4310TIP3    H134489   1.237   3.988   8.581
 4310TIP3    H234490   1.319   3.963   8.706
 4311TIP3   OH234491   0.469   5.356   7.265
 4311TIP3    H134492   0.476   5.450   7.248
 4311TIP3    H234493   0.488   5.347   7.358
 4312TIP3   OH234494   0.149   5.905   1.559
 4312TIP3    H134495   0.125   5.981   1.505
 4312TIP3    H234496   0.237   5.882   1.530
 4313TIP3   OH234497   0.281   6.396   8.473
 4313TIP3    H134498   0.330   6.314   8.469
 4313TIP3    H234499   0.319   6.443   8.547
 4314TIP3   OH234500   1.211   4.982   0.412
 4314TIP3    H134501   1.116   4.978   0.396
 4314TIP3    H234502   1.236   5.069   0.382
 4315TIP3   OH234503   6.452   5.022   7.858
 4315TIP3    H134504   6.446   5.040   7.952
 4315TIP3    H234505   6.444   4.927   7.851
 4316TIP3   OH234506   5.307   3.367   2.036
 4316TIP3    H134507   5.348   3.441   2.081
 4316TIP3    H234508   5.214   3.374   2.057
 4317TIP3   OH234509   0.774   3.571   0.308
 4317TIP3    H134510   0.782   3.590   0.401
 4317TIP3    H234511   0.752   3.655   0.268
 4318TIP3   OH234512   6.670   1.346   1.511
 4318TIP3    H134513   6.694   1.414   1.448
 4318TIP3    H234514   6.576   1.358   1.524
 4319TIP3   OH234515   6.063   6.720   1.045
 4319TIP3    H134516   6.041   6.793   0.987
 4319TIP3    H234517   6.152   6.696   1.021
 4320TIP3   OH234518   1.860   1.470   6.918
 4320TIP3    H134519   1.870   1.468   6.823
 4320TIP3    H234520   1.889   1.557   6.944
 4321TIP3   OH234521   1.600   2.350   0.140
 4321TIP3    H134522   1.688   2.357   0.179
 4321TIP3    H234523   1.542   2.389   0.205
 4322TIP3   OH234524   5.264   5.851   8.110
 4322TIP3    H134525   5.270   5.780   8.047
 4322TIP3    H234526   5.293   5.812   8.193
 4323TIP3   OH234527   4.225   6.067   7.960
 4323TIP3    H134528   4.292   6.009   7.995
 4323TIP3    H234529   4.240   6.067   7.865
 4324TIP3   OH234530   4.509   6.059   1.374
 4324TIP3    H134531   4.578   6.003   1.407
 4324TIP3    H234532   4.525   6.063   1.279
 4325TIP3   OH234533   5.566   1.634   7.466
 4325TIP3    H134534   5.516   1.553   7.475
 4325TIP3    H234535   5.553   1.680   7.549
 4326TIP3   OH234536   1.235   0.965   7.609
 4326TIP3    H134537   1.314   0.988   7.561
 4326TIP3    H234538   1.164   0.981   7.547
 4327TIP3   OH234539   3.816   1.051   0.944
 4327TIP3    H134540   3.833   0.978   1.003
 4327TIP3    H234541   3.757   1.014   0.877
 4328TIP3   OH234542   1.732   6.448   6.488
 4328TIP3    H134543   1.663   6.515   6.490
 4328TIP3    H234544   1.771   6.457   6.401
 4329TIP3   OH234545   1.313   2.989   7.537
 4329TIP3    H134546   1.282   2.921   7.595
 4329TIP3    H234547   1.407   2.995   7.555
 4330TIP3   OH234548   1.103   3.881   0.689
 4330TIP3    H134549   1.098   3.968   0.650
 4330TIP3    H234550   1.061   3.891   0.775
 4331TIP3   OH234551   5.289   0.588   7.075
 4331TIP3    H134552   5.269   0.519   7.012
 4331TIP3    H234553   5.384   0.584   7.085
 4332TIP3   OH234554   0.127   0.217   8.647
 4332TIP3    H134555   0.192   0.148   8.654
 4332TIP3    H234556   0.113   0.246   0.024
 4333TIP3   OH234557   1.192   4.809   8.426
 4333TIP3    H134558   1.271   4.851   8.461
 4333TIP3    H234559   1.226   4.738   8.371
 4334TIP3   OH234560   3.628   4.880   7.148
 4334TIP3    H134561   3.558   4.817   7.131
 4334TIP3    H234562   3.605   4.920   7.232
 4335TIP3   OH234563   5.473   1.013   1.720
 4335TIP3    H134564   5.544   0.998   1.782
 4335TIP3    H234565   5.404   1.055   1.771
 4336TIP3   OH234566   6.627   3.480   7.990
 4336TIP3    H134567   6.722   3.480   7.990
 4336TIP3    H234568   6.603   3.391   7.961
 4337TIP3   OH234569   5.244   1.720   0.692
 4337TIP3    H134570   5.207   1.719   0.781
 4337TIP3    H234571   5.190   1.658   0.643
 4338TIP3   OH234572   6.770   5.561   1.089
 4338TIP3    H134573   6.771   5.618   1.166
 4338TIP3    H234574   6.813   5.480   1.118
 4339TIP3   OH234575   2.232   4.769   0.096
 4339TIP3    H134576   2.171   4.705   0.061
 4339TIP3    H234577   2.225   4.844   0.037
 4340TIP3   OH234578   5.259   3.012   7.738
 4340TIP3    H134579   5.351   2.984   7.735
 4340TIP3    H234580   5.249   3.067   7.661
 4341TIP3   OH234581   3.065   5.131   0.733
 4341TIP3    H134582   3.125   5.058   0.717
 4341TIP3    H234583   3.058   5.176   0.649
 4342TIP3   OH234584   1.695   6.206   0.559
 4342TIP3    H134585   1.706   6.235   0.650
 4342TIP3    H234586   1.703   6.111   0.562
 4343TIP3   OH234587   0.502   4.067   0.978
 4343TIP3    H134588   0.575   4.117   1.016
 4343TIP3    H234589   0.513   3.978   1.014
 4344TIP3   OH234590   6.142   6.710   6.469
 4344TIP3    H134591   6.133   6.658   6.390
 4344TIP3    H234592   6.112   6.652   6.539
 4345TIP3   OH234593   3.939   2.788   1.778
 4345TIP3    H134594   3.862   2.844   1.788
 4345TIP3    H234595   3.956   2.755   1.866
 4346TIP3   OH234596   4.838   3.279   8.313
 4346TIP3    H134597   4.846   3.373   8.302
 4346TIP3    H234598   4.761   3.267   8.368
 4347TIP3   OH234599   1.283   1.187   1.012
 4347TIP3    H134600   1.247   1.128   1.079
 4347TIP3    H234601   1.249   1.154   0.930
 4348TIP3   OH234602   0.817   0.414   2.200
 4348TIP3    H134603   0.759   0.484   2.230
 4348TIP3    H234604   0.758   0.351   2.158
 4349TIP3   OH234605   6.475   5.979   6.896
 4349TIP3    H134606   6.531   5.926   6.840
 4349TIP3    H234607   6.495   5.949   6.985
 4350TIP3   OH234608   0.258   4.417   1.187
 4350TIP3    H134609   0.285   4.326   1.195
 4350TIP3    H234610   0.320   4.456   1.125
 4351TIP3   OH234611   3.715   3.277   6.764
 4351TIP3    H134612   3.662   3.208   6.804
 4351TIP3    H234613   3.651   3.331   6.717
 4352TIP3   OH234614   6.408   2.025   8.491
 4352TIP3    H134615   6.449   1.940   8.509
 4352TIP3    H234616   6.388   2.022   8.398
 4353TIP3   OH234617   1.671   6.031   0.140
 4353TIP3    H134618   1.654   5.982   0.060
 4353TIP3    H234619   1.710   6.113   0.111
 4354TIP3   OH234620   5.469   5.969   7.647
 4354TIP3    H134621   5.486   6.059   7.620
 4354TIP3    H234622   5.520   5.958   7.727
 4355TIP3   OH234623   6.417   1.710   2.213
 4355TIP3    H134624   6.363   1.789   2.204
 4355TIP3    H234625   6.355   1.638   2.207
 4356TIP3   OH234626   6.463   6.667   7.049
 4356TIP3    H134627   6.511   6.687   6.969
 4356TIP3    H234628   6.426   6.751   7.076
 4357TIP3   OH234629   2.756   4.126   2.067
 4357TIP3    H134630   2.809   4.058   2.025
 4357TIP3    H234631   2.796   4.208   2.038
 4358TIP3   OH234632   2.856   6.309   6.456
 4358TIP3    H134633   2.839   6.258   6.376
 4358TIP3    H234634   2.951   6.304   6.467
 4359TIP3   OH234635   3.647   0.443   1.137
 4359TIP3    H134636   3.665   0.350   1.146
 4359TIP3    H234637   3.585   0.448   1.064
 4360TIP3   OH234638   3.713   1.458   8.547
 4360TIP3    H134639   3.663   1.383   8.513
 4360TIP3    H234640   3.698   1.455   8.641
 4361TIP3   OH234641   6.204   0.822   7.668
 4361TIP3    H134642   6.126   0.788   7.711
 4361TIP3    H234643   6.259   0.746   7.654
 4362TIP3   OH234644   3.876   1.800   8.231
 4362TIP3    H134645   3.886   1.766   8.320
 4362TIP3    H234646   3.855   1.893   8.243
 4363TIP3   OH234647   3.794   3.626   1.134
 4363TIP3    H134648   3.805   3.589   1.046
 4363TIP3    H234649   3.874   3.677   1.148
 4364TIP3   OH234650   6.327   4.769   6.548
 4364TIP3    H134651   6.237   4.778   6.518
 4364TIP3    H234652   6.377   4.827   6.490
 4365TIP3   OH234653   1.936   5.586   2.023
 4365TIP3    H134654   1.860   5.586   2.080
 4365TIP3    H234655   1.956   5.678   2.008
 4366TIP3   OH234656   0.886   3.851   8.467
 4366TIP3    H134657   0.942   3.836   8.543
 4366TIP3    H234658   0.925   3.926   8.422
 4367TIP3   OH234659   4.862   3.859   8.461
 4367TIP3    H134660   4.888   3.951   8.462
 4367TIP3    H234661   4.778   3.858   8.508
 4368TIP3   OH234662   4.587   4.535   1.584
 4368TIP3    H134663   4.550   4.619   1.556
 4368TIP3    H234664   4.670   4.559   1.626
 4369TIP3   OH234665   5.543   2.941   7.142
 4369TIP3    H134666   5.454   2.931   7.109
 4369TIP3    H234667   5.568   2.852   7.168
 4370TIP3   OH234668   4.630   6.084   0.665
 4370TIP3    H134669   4.544   6.113   0.697
 4370TIP3    H234670   4.688   6.092   0.741
 4371TIP3   OH234671   3.592   2.548   2.170
 4371TIP3    H134672   3.525   2.588   2.226
 4371TIP3    H234673   3.658   2.516   2.232
 4372TIP3   OH234674   2.431   0.081   7.223
 4372TIP3    H134675   2.354   0.122   7.262
 4372TIP3    H234676   2.498   0.149   7.225
 4373TIP3   OH234677   2.410   0.025   0.219
 4373TIP3    H134678   2.501   0.007   0.242
 4373TIP3    H234679   2.375   6.797   0.191
 4374TIP3   OH234680   0.427   4.930   6.470
 4374TIP3    H134681   0.429   4.963   6.380
 4374TIP3    H234682   0.415   5.008   6.524
 4375TIP3   OH234683   4.877   6.038   0.847
 4375TIP3    H134684   4.914   5.989   0.774
 4375TIP3    H234685   4.950   6.048   0.909
 4376TIP3   OH234686   5.434   0.880   8.296
 4376TIP3    H134687   5.511   0.827   8.274
 4376TIP3    H234688   5.457   0.968   8.267
 4377TIP3   OH234689   1.557   6.464   0.008
 4377TIP3    H134690   1.570   6.382   8.675
 4377TIP3    H234691   1.463   6.481   0.002
 4378TIP3   OH234692   1.301   1.979   7.523
 4378TIP3    H134693   1.282   2.015   7.436
 4378TIP3    H234694   1.215   1.968   7.564
 4379TIP3   OH234695   2.274   3.450   7.987
 4379TIP3    H134696   2.303   3.368   7.947
 4379TIP3    H234697   2.326   3.457   8.067
 4380TIP3   OH234698   4.578   2.347   1.018
 4380TIP3    H134699   4.507   2.350   1.083
 4380TIP3    H234700   4.644   2.290   1.058
 4381TIP3   OH234701   3.052   1.744   6.957
 4381TIP3    H134702   3.088   1.804   6.892
 4381TIP3    H234703   2.957   1.751   6.946
 4382TIP3   OH234704   6.134   2.887   1.768
 4382TIP3    H134705   6.117   2.898   1.862
 4382TIP3    H234706   6.062   2.932   1.725
 4383TIP3   OH234707   5.479   6.618   6.147
 4383TIP3    H134708   5.522   6.645   6.228
 4383TIP3    H234709   5.478   6.697   6.093
 4384TIP3   OH234710   0.381   5.051   8.408
 4384TIP3    H134711   0.409   5.092   8.326
 4384TIP3    H234712   0.300   5.005   8.387
 4385TIP3   OH234713   4.453   4.787   0.463
 4385TIP3    H134714   4.496   4.863   0.425
 4385TIP3    H234715   4.405   4.748   0.391
 4386TIP3   OH234716   6.457   2.958   6.813
 4386TIP3    H134717   6.442   2.880   6.867
 4386TIP3    H234718   6.392   2.951   6.743
 4387TIP3   OH234719   0.892   1.749   6.984
 4387TIP3    H134720   0.812   1.702   7.007
 4387TIP3    H234721   0.898   1.742   6.889
 4388TIP3   OH234722   5.932   1.156   1.946
 4388TIP3    H134723   5.978   1.078   1.916
 4388TIP3    H234724   5.979   1.183   2.025
 4389TIP3   OH234725   1.825   1.214   1.838
 4389TIP3    H134726   1.913   1.231   1.807
 4389TIP3    H234727   1.834   1.138   1.895
 4390TIP3   OH234728   1.345   1.252   1.794
 4390TIP3    H134729   1.421   1.267   1.851
 4390TIP3    H234730   1.279   1.212   1.851
 4391TIP3   OH234731   1.915   0.752   0.773
 4391TIP3    H134732   1.874   0.784   0.853
 4391TIP3    H234733   2.004   0.786   0.776
 4392TIP3   OH234734   3.692   2.110   0.757
 4392TIP3    H134735   3.715   2.139   0.669
 4392TIP3    H234736   3.764   2.054   0.785
 4393TIP3   OH234737   1.596   3.706   0.022
 4393TIP3    H134738   1.657   3.633   0.017
 4393TIP3    H234739   1.511   3.665   0.035
 4394TIP3   OH234740   3.674   0.157   0.987
 4394TIP3    H134741   3.717   0.226   0.937
 4394TIP3    H234742   3.714   0.076   0.956
 4395TIP3   OH234743   6.696   2.747   1.203
 4395TIP3    H134744   6.668   2.707   1.285
 4395TIP3    H234745   6.688   2.841   1.217
 4396TIP3   OH234746   6.411   2.572   1.108
 4396TIP3    H134747   6.393   2.511   1.036
 4396TIP3    H234748   6.448   2.518   1.177
 4397TIP3   OH234749   0.144   4.850   0.196
 4397TIP3    H134750   0.187   4.826   0.115
 4397TIP3    H234751   0.097   4.771   0.223
 4398TIP3   OH234752   2.142   2.501   0.109
 4398TIP3    H134753   2.202   2.576   0.115
 4398TIP3    H234754   2.200   2.426   0.095
 4399TIP3   OH234755   4.614   5.299   2.170
 4399TIP3    H134756   4.523   5.299   2.201
 4399TIP3    H234757   4.666   5.309   2.250
 4400TIP3   OH234758   6.701   2.988   8.359
 4400TIP3    H134759   6.682   3.052   8.427
 4400TIP3    H234760   6.616   2.952   8.334
 4401TIP3   OH234761   2.198   1.976   1.185
 4401TIP3    H134762   2.205   2.037   1.111
 4401TIP3    H234763   2.284   1.935   1.189
 4402TIP3   OH234764   4.993   6.253   8.550
 4402TIP3    H134765   4.922   6.196   8.521
 4402TIP3    H234766   5.041   6.273   8.470
 4403TIP3   OH234767   4.779   2.041   8.135
 4403TIP3    H134768   4.862   2.058   8.181
 4403TIP3    H234769   4.793   1.959   8.088
 4404TIP3   OH234770   4.785   4.250   0.854
 4404TIP3    H134771   4.807   4.162   0.885
 4404TIP3    H234772   4.698   4.267   0.891
 4405TIP3   OH234773   2.842   3.526   7.375
 4405TIP3    H134774   2.802   3.596   7.426
 4405TIP3    H234775   2.859   3.456   7.438
 4406TIP3   OH234776   5.934   4.100   6.231
 4406TIP3    H134777   5.896   4.038   6.293
 4406TIP3    H234778   6.022   4.116   6.265
 4407TIP3   OH234779   6.746   2.512   1.035
 4407TIP3    H134780   6.685   2.495   1.106
 4407TIP3    H234781   6.817   2.450   1.049
 4408TIP3   OH234782   5.519   1.964   7.994
 4408TIP3    H134783   5.476   1.967   8.079
 4408TIP3    H234784   5.566   1.880   7.993
 4409TIP3   OH234785   4.137   4.778   2.247
 4409TIP3    H134786   4.108   4.776   2.338
 4409TIP3    H234787   4.067   4.735   2.198
 4410TIP3   OH234788   6.772   4.926   1.543
 4410TIP3    H134789   6.822   4.909   1.463
 4410TIP3    H234790   6.686   4.887   1.526
 4411TIP3   OH234791   2.217   6.418   1.602
 4411TIP3    H134792   2.140   6.369   1.631
 4411TIP3    H234793   2.182   6.502   1.572
 4412TIP3   OH234794   6.222   0.372   8.697
 4412TIP3    H134795   6.155   0.355   0.050
 4412TIP3    H234796   6.296   0.316   0.009
 4413TIP3   OH234797   4.078   2.713   7.987
 4413TIP3    H134798   4.001   2.752   8.030
 4413TIP3    H234799   4.117   2.657   8.053
 4414TIP3   OH234800   3.133   5.436   1.983
 4414TIP3    H134801   3.200   5.498   2.012
 4414TIP3    H234802   3.053   5.487   1.979
 4415TIP3   OH234803   0.647   1.647   7.482
 4415TIP3    H134804   0.724   1.614   7.530
 4415TIP3    H234805   0.601   1.568   7.454
 4416TIP3   OH234806   0.777   3.166   1.180
 4416TIP3    H134807   0.728   3.148   1.260
 4416TIP3    H234808   0.864   3.130   1.197
 4417TIP3   OH234809   0.442   0.613   8.278
 4417TIP3    H134810   0.515   0.675   8.280
 4417TIP3    H234811   0.483   0.527   8.287
 4418TIP3   OH234812   6.654   6.306   8.538
 4418TIP3    H134813   6.588   6.284   8.472
 4418TIP3    H234814   6.622   6.266   8.619
 4419TIP3   OH234815   6.161   6.584   7.403
 4419TIP3    H134816   6.248   6.600   7.365
 4419TIP3    H234817   6.126   6.510   7.353
 4420TIP3   OH234818   2.685   4.098   8.341
 4420TIP3    H134819   2.639   4.157   8.401
 4420TIP3    H234820   2.717   4.156   8.272
 4421TIP3   OH234821   3.894   3.434   2.371
 4421TIP3    H134822   3.834   3.429   2.297
 4421TIP3    H234823   3.977   3.465   2.334
 4422TIP3   OH234824   1.626   3.977   8.450
 4422TIP3    H134825   1.652   3.966   8.542
 4422TIP3    H234826   1.589   3.892   8.425
 4423TIP3   OH234827   1.724   1.591   0.630
 4423TIP3    H134828   1.708   1.519   0.691
 4423TIP3    H234829   1.729   1.549   0.544
 4424TIP3   OH234830   1.515   5.886   8.123
 4424TIP3    H134831   1.473   5.924   8.200
 4424TIP3    H234832   1.545   5.800   8.151
 4425TIP3   OH234833   0.423   5.790   8.106
 4425TIP3    H134834   0.447   5.823   8.193
 4425TIP3    H234835   0.506   5.775   8.062
 4426TIP3   OH234836   5.379   6.550   6.886
 4426TIP3    H134837   5.376   6.546   6.982
 4426TIP3    H234838   5.467   6.583   6.866
 4427TIP3   OH234839   0.408   3.570   0.708
 4427TIP3    H134840   0.478   3.520   0.749
 4427TIP3    H234841   0.392   3.526   0.624
 4428TIP3   OH234842   6.484   1.748   8.622
 4428TIP3    H134843   6.518   1.801   8.694
 4428TIP3    H234844   6.496   1.658   8.651
 4429TIP3   OH234845   4.318   5.154   0.588
 4429TIP3    H134846   4.329   5.135   0.495
 4429TIP3    H234847   4.380   5.096   0.632
 4430TIP3   OH234848   0.430   0.025   1.169
 4430TIP3    H134849   0.521   0.044   1.149
 4430TIP3    H234850   0.381   0.094   1.125
 4431TIP3   OH234851   6.616   4.682   7.096
 4431TIP3    H134852   6.580   4.715   7.014
 4431TIP3    H234853   6.545   4.630   7.134
 4432TIP3   OH234854   6.308   3.562   1.887
 4432TIP3    H134855   6.296   3.473   1.853
 4432TIP3    H234856   6.313   3.617   1.809
 4433TIP3   OH234857   5.579   5.612   0.989
 4433TIP3    H134858   5.648   5.666   1.028
 4433TIP3    H234859   5.625   5.538   0.949
 4434TIP3   OH234860   2.507   3.901   7.594
 4434TIP3    H134861   2.512   3.992   7.624
 4434TIP3    H234862   2.414   3.888   7.574
 4435TIP3   OH234863   6.262   6.450   6.342
 4435TIP3    H134864   6.185   6.490   6.301
 4435TIP3    H234865   6.228   6.410   6.422
 4436TIP3   OH234866   0.502   4.920   1.093
 4436TIP3    H134867   0.514   4.889   1.183
 4436TIP3    H234868   0.410   4.902   1.074
 4437TIP3   OH234869   1.014   4.859   1.188
 4437TIP3    H134870   0.940   4.920   1.186
 4437TIP3    H234871   1.091   4.915   1.194
 4438TIP3   OH234872   4.434   5.740   2.637
 4438TIP3    H134873   4.356   5.701   2.597
 4438TIP3    H234874   4.492   5.665   2.652
 4439TIP3   OH234875   6.493   1.876   8.052
 4439TIP3    H134876   6.476   1.967   8.029
 4439TIP3    H234877   6.584   1.861   8.025
 4440TIP3   OH234878   4.306   3.081   0.497
 4440TIP3    H134879   4.325   2.987   0.494
 4440TIP3    H234880   4.272   3.096   0.585
 4441TIP3   OH234881   2.387   0.497   7.175
 4441TIP3    H134882   2.391   0.420   7.118
 4441TIP3    H234883   2.316   0.550   7.139
 4442TIP3   OH234884   2.844   0.410   1.280
 4442TIP3    H134885   2.900   0.440   1.352
 4442TIP3    H234886   2.807   0.491   1.243
 4443TIP3   OH234887   4.913   2.580   0.089
 4443TIP3    H134888   4.907   2.486   0.107
 4443TIP3    H234889   4.949   2.617   0.170
 4444TIP3   OH234890   6.658   3.621   7.503
 4444TIP3    H134891   6.698   3.587   7.583
 4444TIP3    H234892   6.564   3.623   7.522
 4445TIP3   OH234893   4.867   1.329   1.782
 4445TIP3    H134894   4.894   1.312   1.872
 4445TIP3    H234895   4.774   1.352   1.788
 4446TIP3   OH234896   6.346   2.926   0.873
 4446TIP3    H134897   6.417   2.989   0.862
 4446TIP3    H234898   6.390   2.841   0.880
 4447TIP3   OH234899   6.494   6.023   7.215
 4447TIP3    H134900   6.467   6.110   7.241
 4447TIP3    H234901   6.511   5.977   7.297
 4448TIP3   OH234902   0.876   1.407   1.058
 4448TIP3    H134903   0.852   1.322   1.022
 4448TIP3    H234904   0.969   1.400   1.077
 4449TIP3   OH234905   2.846   1.333   1.131
 4449TIP3    H134906   2.940   1.334   1.148
 4449TIP3    H234907   2.829   1.417   1.087
 4450TIP3   OH234908   4.889   5.354   8.236
 4450TIP3    H134909   4.860   5.289   8.172
 4450TIP3    H234910   4.914   5.430   8.184
 4451TIP3   OH234911   1.613   3.302   1.140
 4451TIP3    H134912   1.705   3.289   1.114
 4451TIP3    H234913   1.616   3.298   1.236
 4452TIP3   OH234914   4.988   2.272   8.673
 4452TIP3    H134915   4.958   2.195   0.008
 4452TIP3    H234916   4.916   2.291   8.612
 4453TIP3   OH234917   4.366   0.773   6.675
 4453TIP3    H134918   4.303   0.727   6.620
 4453TIP3    H234919   4.452   0.747   6.640
 4454TIP3   OH234920   0.650   5.583   1.468
 4454TIP3    H134921   0.670   5.517   1.534
 4454TIP3    H234922   0.658   5.667   1.514
 4455TIP3   OH234923   1.303   4.749   7.784
 4455TIP3    H134924   1.381   4.701   7.758
 4455TIP3    H234925   1.286   4.807   7.710
 4456TIP3   OH234926   4.942   3.497   0.591
 4456TIP3    H134927   5.000   3.444   0.646
 4456TIP3    H234928   4.982   3.584   0.590
 4457TIP3   OH234929   4.590   0.681   8.162
 4457TIP3    H134930   4.542   0.603   8.191
 4457TIP3    H234931   4.675   0.673   8.206
 4458TIP3   OH234932   3.490   6.261   1.578
 4458TIP3    H134933   3.418   6.251   1.516
 4458TIP3    H234934   3.479   6.188   1.640
 4459TIP3   OH234935   5.299   1.393   7.118
 4459TIP3    H134936   5.210   1.389   7.082
 4459TIP3    H234937   5.342   1.460   7.064
 4460TIP3   OH234938   2.868   4.319   1.520
 4460TIP3    H134939   2.961   4.320   1.543
 4460TIP3    H234940   2.825   4.365   1.593
 4461TIP3   OH234941   1.046   6.840   7.515
 4461TIP3    H134942   1.104   0.001   7.589
 4461TIP3    H234943   0.959   0.010   7.546
 4462TIP3   OH234944   6.473   3.116   1.623
 4462TIP3    H134945   6.418   3.060   1.568
 4462TIP3    H234946   6.413   3.151   1.689
 4463TIP3   OH234947   5.246   6.335   7.101
 4463TIP3    H134948   5.241   6.306   7.009
 4463TIP3    H234949   5.224   6.428   7.097
 4464TIP3   OH234950   2.258   2.653   8.215
 4464TIP3    H134951   2.267   2.606   8.132
 4464TIP3    H234952   2.248   2.745   8.189
 4465TIP3   OH234953   6.402   6.631   7.944
 4465TIP3    H134954   6.346   6.698   7.904
 4465TIP3    H234955   6.491   6.657   7.921
 4466TIP3   OH234956   6.600   1.132   8.447
 4466TIP3    H134957   6.604   1.037   8.447
 4466TIP3    H234958   6.507   1.153   8.452
 4467TIP3   OH234959   6.820   6.778   1.140
 4467TIP3    H134960   6.810   6.704   1.200
 4467TIP3    H234961   6.731   6.798   1.111
 4468TIP3   OH234962   3.582   1.720   7.062
 4468TIP3    H134963   3.519   1.784   7.095
 4468TIP3    H234964   3.625   1.763   6.988
 4469TIP3   OH234965   6.251   3.696   1.660
 4469TIP3    H134966   6.194   3.759   1.616
 4469TIP3    H234967   6.326   3.686   1.601
 4470TIP3   OH234968   2.340   3.348   1.434
 4470TIP3    H134969   2.423   3.391   1.452
 4470TIP3    H234970   2.281   3.378   1.503
 4471TIP3   OH234971   6.657   3.591   0.099
 4471TIP3    H134972   6.750   3.610   0.087
 4471TIP3    H234973   6.652   3.549   0.185
 4472TIP3   OH234974   0.648   5.266   8.098
 4472TIP3    H134975   0.680   5.255   8.009
 4472TIP3    H234976   0.640   5.361   8.109
 4473TIP3   OH234977   2.233   1.593   0.348
 4473TIP3    H134978   2.189   1.674   0.371
 4473TIP3    H234979   2.284   1.569   0.426
 4474TIP3   OH234980   4.989   4.600   6.730
 4474TIP3    H134981   5.072   4.616   6.776
 4474TIP3    H234982   4.922   4.620   6.794
 4475TIP3   OH234983   3.011   2.907   2.460
 4475TIP3    H134984   2.962   2.867   2.531
 4475TIP3    H234985   3.044   2.833   2.408
 4476TIP3   OH234986   3.712   5.662   7.570
 4476TIP3    H134987   3.785   5.709   7.529
 4476TIP3    H234988   3.723   5.571   7.542
 4477TIP3   OH234989   3.385   0.657   0.537
 4477TIP3    H134990   3.368   0.563   0.543
 4477TIP3    H234991   3.459   0.672   0.595
 4478TIP3   OH234992   4.501   6.736   8.108
 4478TIP3    H134993   4.457   6.685   8.040
 4478TIP3    H234994   4.430   6.771   8.162
 4479TIP3   OH234995   5.327   1.026   0.181
 4479TIP3    H134996   5.381   1.050   0.106
 4479TIP3    H234997   5.367   0.946   0.214
 4480TIP3   OH234998   0.126   1.575   0.385
 4480TIP3    H134999   0.044   1.617   0.356
 4480TIP3    H235000   0.098   1.491   0.422
 4481TIP3   OH235001   4.852   4.942   0.078
 4481TIP3    H135002   4.919   4.874   0.084
 4481TIP3    H235003   4.882   5.011   0.136
 4482TIP3   OH235004   0.450   5.329   6.983
 4482TIP3    H135005   0.509   5.378   7.040
 4482TIP3    H235006   0.372   5.384   6.976
 4483TIP3   OH235007   5.444   3.816   0.207
 4483TIP3    H135008   5.435   3.808   0.112
 4483TIP3    H235009   5.467   3.728   0.237
 4484TIP3   OH235010   6.269   3.212   1.836
 4484TIP3    H135011   6.190   3.186   1.883
 4484TIP3    H235012   6.237   3.248   1.753
 4485TIP3   OH235013   2.749   3.745   7.550
 4485TIP3    H135014   2.662   3.781   7.532
 4485TIP3    H235015   2.810   3.813   7.525
 4486TIP3   OH235016   6.806   6.476   1.539
 4486TIP3    H135017   0.017   6.517   1.593
 4486TIP3    H235018   6.850   6.460   1.455
 4487TIP3   OH235019   0.222   1.497   7.048
 4487TIP3    H135020   0.150   1.556   7.067
 4487TIP3    H235021   0.181   1.411   7.037
 4488TIP3   OH235022   1.926   6.483   1.506
 4488TIP3    H135023   1.838   6.471   1.541
 4488TIP3    H235024   1.972   6.532   1.574
 4489TIP3   OH235025   3.714   4.523   2.595
 4489TIP3    H135026   3.768   4.499   2.520
 4489TIP3    H235027   3.760   4.598   2.634
 4490TIP3   OH235028   0.203   4.835   1.956
 4490TIP3    H135029   0.271   4.857   2.020
 4490TIP3    H235030   0.130   4.802   2.009
 4491TIP3   OH235031   0.296   6.641   0.674
 4491TIP3    H135032   0.287   6.613   0.583
 4491TIP3    H235033   0.228   6.592   0.721
 4492TIP3   OH235034   3.215   3.768   1.195
 4492TIP3    H135035   3.123   3.789   1.212
 4492TIP3    H235036   3.251   3.746   1.281
 4493TIP3   OH235037   5.991   1.060   0.032
 4493TIP3    H135038   6.042   1.052   0.112
 4493TIP3    H235039   5.900   1.049   0.061
 4494TIP3   OH235040   4.717   3.060   1.744
 4494TIP3    H135041   4.734   2.999   1.816
 4494TIP3    H235042   4.788   3.124   1.750
 4495TIP3   OH235043   4.417   5.443   1.439
 4495TIP3    H135044   4.362   5.459   1.362
 4495TIP3    H235045   4.356   5.443   1.512
 4496TIP3   OH235046   0.154   0.057   0.939
 4496TIP3    H135047   0.203   0.133   0.969
 4496TIP3    H235048   0.103   0.029   1.014
 4497TIP3   OH235049   3.682   0.010   0.111
 4497TIP3    H135050   3.666   6.808   0.036
 4497TIP3    H235051   3.698   0.096   0.071
 4498TIP3   OH235052   6.760   6.332   0.609
 4498TIP3    H135053   6.752   6.238   0.592
 4498TIP3    H235054   6.751   6.372   0.522
 4499TIP3   OH235055   5.881   3.574   0.798
 4499TIP3    H135056   5.949   3.533   0.851
 4499TIP3    H235057   5.861   3.655   0.843
 4500TIP3   OH235058   4.599   2.843   7.088
 4500TIP3    H135059   4.638   2.816   7.005
 4500TIP3    H235060   4.668   2.832   7.153
 4501TIP3   OH235061   5.540   3.566   8.392
 4501TIP3    H135062   5.566   3.591   8.303
 4501TIP3    H235063   5.486   3.488   8.380
 4502TIP3   OH235064   5.498   2.668   0.696
 4502TIP3    H135065   5.446   2.664   0.616
 4502TIP3    H235066   5.475   2.753   0.735
 4503TIP3   OH235067   1.490   2.667   1.097
 4503TIP3    H135068   1.568   2.622   1.129
 4503TIP3    H235069   1.463   2.617   1.020
 4504TIP3   OH235070   6.390   6.548   1.433
 4504TIP3    H135071   6.334   6.585   1.501
 4504TIP3    H235072   6.431   6.625   1.391
 4505TIP3   OH235073   5.146   6.582   7.561
 4505TIP3    H135074   5.074   6.543   7.511
 4505TIP3    H235075   5.198   6.629   7.495
 4506TIP3   OH235076   3.609   1.786   1.112
 4506TIP3    H135077   3.558   1.705   1.111
 4506TIP3    H235078   3.556   1.848   1.061
 4507TIP3   OH235079   1.728   4.455   7.592
 4507TIP3    H135080   1.736   4.468   7.687
 4507TIP3    H235081   1.798   4.509   7.555
 4508TIP3   OH235082   6.618   3.770   1.514
 4508TIP3    H135083   6.550   3.834   1.531
 4508TIP3    H235084   6.571   3.686   1.507
 4509TIP3   OH235085   0.179   0.758   6.706
 4509TIP3    H135086   0.150   0.719   6.788
 4509TIP3    H235087   0.099   0.780   6.659
 4510TIP3   OH235088   4.767   3.015   7.798
 4510TIP3    H135089   4.680   2.976   7.785
 4510TIP3    H235090   4.803   2.968   7.873
 4511TIP3   OH235091   0.121   5.319   0.770
 4511TIP3    H135092   0.198   5.268   0.746
 4511TIP3    H235093   0.085   5.275   0.846
 4512TIP3   OH235094   2.841   6.090   7.912
 4512TIP3    H135095   2.908   6.146   7.952
 4512TIP3    H235096   2.787   6.150   7.860
 4513TIP3   OH235097   1.448   6.506   6.169
 4513TIP3    H135098   1.468   6.539   6.082
 4513TIP3    H235099   1.517   6.541   6.225
 4514TIP3   OH235100   5.817   2.150   0.100
 4514TIP3    H135101   5.748   2.187   0.046
 4514TIP3    H235102   5.799   2.182   0.188
 4515TIP3   OH235103   2.451   6.320   0.916
 4515TIP3    H135104   2.371   6.351   0.958
 4515TIP3    H235105   2.428   6.309   0.824
 4516TIP3   OH235106   3.879   4.345   0.333
 4516TIP3    H135107   3.893   4.384   0.247
 4516TIP3    H235108   3.897   4.416   0.395
 4517TIP3   OH235109   4.744   1.006   2.621
 4517TIP3    H135110   4.682   1.007   2.694
 4517TIP3    H235111   4.827   1.036   2.660
 4518TIP3   OH235112   3.491   3.685   8.107
 4518TIP3    H135113   3.528   3.656   8.023
 4518TIP3    H235114   3.509   3.779   8.110
 4519TIP3   OH235115   6.023   3.636   6.592
 4519TIP3    H135116   5.942   3.585   6.601
 4519TIP3    H235117   5.998   3.712   6.539
 4520TIP3   OH235118   5.387   6.322   8.156
 4520TIP3    H135119   5.397   6.242   8.103
 4520TIP3    H235120   5.445   6.308   8.231
 4521TIP3   OH235121   4.779   5.672   2.209
 4521TIP3    H135122   4.767   5.668   2.304
 4521TIP3    H235123   4.818   5.759   2.194
 4522TIP3   OH235124   3.880   5.802   0.999
 4522TIP3    H135125   3.785   5.808   1.009
 4522TIP3    H235126   3.892   5.744   0.924
 4523TIP3   OH235127   5.564   4.552   0.976
 4523TIP3    H135128   5.530   4.463   0.991
 4523TIP3    H235129   5.535   4.601   1.053
 4524TIP3   OH235130   3.124   2.465   0.537
 4524TIP3    H135131   3.103   2.527   0.607
 4524TIP3    H235132   3.180   2.400   0.578
 4525TIP3   OH235133   1.418   2.380   1.673
 4525TIP3    H135134   1.447   2.452   1.617
 4525TIP3    H235135   1.391   2.422   1.754
 4526TIP3   OH235136   4.381   3.643   2.375
 4526TIP3    H135137   4.392   3.573   2.310
 4526TIP3    H235138   4.469   3.678   2.388
 4527TIP3   OH235139   3.307   5.263   8.023
 4527TIP3    H135140   3.397   5.268   7.989
 4527TIP3    H235141   3.255   5.234   7.948
 4528TIP3   OH235142   4.412   1.894   1.797
 4528TIP3    H135143   4.434   1.985   1.818
 4528TIP3    H235144   4.316   1.891   1.798
 4529TIP3   OH235145   1.434   3.858   6.564
 4529TIP3    H135146   1.483   3.826   6.487
 4529TIP3    H235147   1.346   3.822   6.553
 4530TIP3   OH235148   5.305   3.693   1.213
 4530TIP3    H135149   5.302   3.598   1.229
 4530TIP3    H235150   5.260   3.731   1.288
 4531TIP3   OH235151   6.089   2.931   2.025
 4531TIP3    H135152   6.101   2.845   2.066
 4531TIP3    H235153   6.066   2.989   2.098
 4532TIP3   OH235154   6.660   5.443   2.017
 4532TIP3    H135155   6.700   5.510   1.960
 4532TIP3    H235156   6.704   5.454   2.101
 4533TIP3   OH235157   1.639   6.258   8.580
 4533TIP3    H135158   1.589   6.179   8.559
 4533TIP3    H235159   1.718   6.251   8.527
 4534TIP3   OH235160   1.638   5.013   0.718
 4534TIP3    H135161   1.557   5.064   0.717
 4534TIP3    H235162   1.611   4.924   0.741
 4535TIP3   OH235163   3.928   0.867   7.364
 4535TIP3    H135164   3.934   0.912   7.279
 4535TIP3    H235165   3.864   0.798   7.350
 4536TIP3   OH235166   0.485   0.803   6.314
 4536TIP3    H135167   0.429   0.792   6.237
 4536TIP3    H235168   0.504   0.897   6.316
 4537TIP3   OH235169   5.856   6.579   8.349
 4537TIP3    H135170   5.946   6.548   8.361
 4537TIP3    H235171   5.840   6.635   8.425
 4538TIP3   OH235172   3.469   4.093   0.184
 4538TIP3    H135173   3.559   4.099   0.216
 4538TIP3    H235174   3.468   4.148   0.105
 4539TIP3   OH235175   3.369   3.456   7.412
 4539TIP3    H135176   3.420   3.532   7.442
 4539TIP3    H235177   3.351   3.476   7.320
 4540TIP3   OH235178   6.092   1.303   1.375
 4540TIP3    H135179   6.071   1.251   1.298
 4540TIP3    H235180   6.052   1.255   1.448
 4541TIP3   OH235181   2.877   5.504   0.835
 4541TIP3    H135182   2.908   5.521   0.746
 4541TIP3    H235183   2.937   5.440   0.870
 4542TIP3   OH235184   2.597   4.687   1.614
 4542TIP3    H135185   2.668   4.715   1.672
 4542TIP3    H235186   2.560   4.610   1.657
 4543TIP3   OH235187   5.899   5.121   7.359
 4543TIP3    H135188   5.821   5.073   7.334
 4543TIP3    H235189   5.942   5.141   7.275
 4544TIP3   OH235190   6.748   1.653   8.125
 4544TIP3    H135191   6.674   1.609   8.167
 4544TIP3    H235192   6.760   1.604   8.043
 4545TIP3   OH235193   0.165   0.711   7.172
 4545TIP3    H135194   0.139   0.730   7.262
 4545TIP3    H235195   0.166   0.797   7.129
 4546TIP3   OH235196   0.766   5.440   1.000
 4546TIP3    H135197   0.741   5.468   1.088
 4546TIP3    H235198   0.697   5.475   0.943
 4547TIP3   OH235199   2.510   4.666   7.421
 4547TIP3    H135200   2.600   4.635   7.411
 4547TIP3    H235201   2.517   4.761   7.413
 4548TIP3   OH235202   4.510   5.681   6.956
 4548TIP3    H135203   4.487   5.613   6.893
 4548TIP3    H235204   4.556   5.635   7.026
 4549TIP3   OH235205   3.414   3.406   8.287
 4549TIP3    H135206   3.357   3.439   8.356
 4549TIP3    H235207   3.366   3.423   8.206
 4550TIP3   OH235208   6.746   0.080   0.097
 4550TIP3    H135209   6.721   0.168   0.068
 4550TIP3    H235210   6.664   0.038   0.122
 4551TIP3   OH235211   6.597   6.729   7.568
 4551TIP3    H135212   6.579   6.635   7.574
 4551TIP3    H235213   6.675   6.736   7.513
 4552TIP3   OH235214   6.103   2.043   0.272
 4552TIP3    H135215   6.075   2.047   0.364
 4552TIP3    H235216   6.049   1.973   0.234
 4553TIP3   OH235217   6.664   3.328   6.960
 4553TIP3    H135218   6.569   3.319   6.970
 4553TIP3    H235219   6.697   3.239   6.968
 4554TIP3   OH235220   5.831   6.470   1.198
 4554TIP3    H135221   5.917   6.491   1.234
 4554TIP3    H235222   5.818   6.378   1.219
 4555TIP3   OH235223   0.244   5.422   7.563
 4555TIP3    H135224   0.255   5.510   7.598
 4555TIP3    H235225   0.219   5.369   7.639
 4556TIP3   OH235226   5.160   6.812   1.785
 4556TIP3    H135227   5.104   6.742   1.817
 4556TIP3    H235228   5.214   6.837   1.860
 4557TIP3   OH235229   6.040   5.513   1.150
 4557TIP3    H135230   6.105   5.500   1.081
 4557TIP3    H235231   6.010   5.425   1.172
 4558TIP3   OH235232   4.528   1.552   8.527
 4558TIP3    H135233   4.608   1.526   8.573
 4558TIP3    H235234   4.471   1.586   8.595
 4559TIP3   OH235235   4.225   2.115   0.562
 4559TIP3    H135236   4.212   2.193   0.508
 4559TIP3    H235237   4.309   2.129   0.605
 4560TIP3   OH235238   3.185   1.695   2.531
 4560TIP3    H135239   3.209   1.605   2.508
 4560TIP3    H235240   3.219   1.706   2.620
 4561TIP3   OH235241   6.389   3.812   8.035
 4561TIP3    H135242   6.484   3.803   8.042
 4561TIP3    H235243   6.374   3.907   8.036
 4562TIP3   OH235244   3.716   0.774   8.039
 4562TIP3    H135245   3.809   0.785   8.019
 4562TIP3    H235246   3.694   0.687   8.005
 4563TIP3   OH235247   4.425   6.369   0.528
 4563TIP3    H135248   4.518   6.393   0.526
 4563TIP3    H235249   4.413   6.328   0.614
 4564TIP3   OH235250   2.202   5.037   1.071
 4564TIP3    H135251   2.195   4.966   1.134
 4564TIP3    H235252   2.296   5.042   1.051
 4565TIP3   OH235253   6.816   3.644   1.277
 4565TIP3    H135254   6.845   3.726   1.238
 4565TIP3    H235255   0.035   3.612   1.326
 4566TIP3   OH235256   6.377   3.724   7.268
 4566TIP3    H135257   6.406   3.743   7.179
 4566TIP3    H235258   6.384   3.629   7.276
 4567TIP3   OH235259   0.788   3.477   1.483
 4567TIP3    H135260   0.775   3.408   1.548
 4567TIP3    H235261   0.734   3.451   1.409
 4568TIP3   OH235262   4.340   0.407   0.380
 4568TIP3    H135263   4.351   0.456   0.461
 4568TIP3    H235264   4.292   0.328   0.405
 4569TIP3   OH235265   5.127   4.802   1.196
 4569TIP3    H135266   5.045   4.782   1.151
 4569TIP3    H235267   5.191   4.742   1.158
 4570TIP3   OH235268   1.780   5.462   0.523
 4570TIP3    H135269   1.865   5.470   0.565
 4570TIP3    H235270   1.728   5.535   0.558
 4571TIP3   OH235271   2.330   1.274   7.233
 4571TIP3    H135272   2.380   1.256   7.153
 4571TIP3    H235273   2.393   1.267   7.304
 4572TIP3   OH235274   1.611   3.567   6.572
 4572TIP3    H135275   1.678   3.592   6.635
 4572TIP3    H235276   1.612   3.472   6.571
 4573TIP3   OH235277   3.245   4.933   0.703
 4573TIP3    H135278   3.229   4.840   0.687
 4573TIP3    H235279   3.315   4.935   0.768
 4574TIP3   OH235280   5.504   1.771   0.842
 4574TIP3    H135281   5.414   1.749   0.868
 4574TIP3    H235282   5.505   1.866   0.837
 4575TIP3   OH235283   0.568   1.310   8.575
 4575TIP3    H135284   0.563   1.400   8.605
 4575TIP3    H235285   0.661   1.287   8.581
 4576TIP3   OH235286   6.316   3.974   1.514
 4576TIP3    H135287   6.231   3.933   1.532
 4576TIP3    H235288   6.344   4.008   1.600
 4577TIP3   OH235289   1.277   6.353   8.480
 4577TIP3    H135290   1.241   6.439   8.501
 4577TIP3    H235291   1.284   6.309   8.565
 4578TIP3   OH235292   2.684   1.791   7.477
 4578TIP3    H135293   2.756   1.728   7.473
 4578TIP3    H235294   2.671   1.818   7.386
 4579TIP3   OH235295   0.686   3.258   0.585
 4579TIP3    H135296   0.617   3.220   0.531
 4579TIP3    H235297   0.766   3.244   0.535
 4580TIP3   OH235298   4.085   4.652   1.085
 4580TIP3    H135299   4.070   4.710   1.160
 4580TIP3    H235300   4.002   4.605   1.074
 4581TIP3   OH235301   3.628   3.304   8.423
 4581TIP3    H135302   3.609   3.210   8.429
 4581TIP3    H235303   3.548   3.341   8.386
 4582TIP3   OH235304   3.400   4.393   6.365
 4582TIP3    H135305   3.456   4.435   6.299
 4582TIP3    H235306   3.406   4.451   6.441
 4583TIP3   OH235307   0.835   0.597   8.068
 4583TIP3    H135308   0.877   0.613   7.983
 4583TIP3    H235309   0.758   0.545   8.047
 4584TIP3   OH235310   5.841   2.822   8.462
 4584TIP3    H135311   5.872   2.910   8.484
 4584TIP3    H235312   5.919   2.767   8.470
 4585TIP3   OH235313   1.019   6.471   0.952
 4585TIP3    H135314   0.925   6.467   0.971
 4585TIP3    H235315   1.043   6.562   0.966
 4586TIP3   OH235316   3.512   3.002   7.547
 4586TIP3    H135317   3.498   3.088   7.586
 4586TIP3    H235318   3.531   2.944   7.621
 4587TIP3   OH235319   3.899   6.645   0.710
 4587TIP3    H135320   3.914   6.703   0.635
 4587TIP3    H235321   3.806   6.656   0.730
 4588TIP3   OH235322   5.228   1.749   1.018
 4588TIP3    H135323   5.139   1.738   1.052
 4588TIP3    H235324   5.248   1.842   1.035
 4589TIP3   OH235325   4.084   6.656   0.260
 4589TIP3    H135326   4.094   6.733   0.204
 4589TIP3    H235327   3.989   6.645   0.268
 4590TIP3   OH235328   0.028   0.697   0.906
 4590TIP3    H135329   0.114   0.658   0.916
 4590TIP3    H235330   0.029   0.774   0.964
 4591TIP3   OH235331   5.963   0.322   8.058
 4591TIP3    H135332   5.930   0.399   8.012
 4591TIP3    H235333   5.894   0.257   8.050
 4592TIP3   OH235334   1.950   0.418   0.833
 4592TIP3    H135335   1.945   0.438   0.739
 4592TIP3    H235336   1.953   0.504   0.875
 4593TIP3   OH235337   6.229   4.269   7.712
 4593TIP3    H135338   6.183   4.270   7.628
 4593TIP3    H235339   6.273   4.184   7.714
 4594TIP3   OH235340   3.395   3.869   0.698
 4594TIP3    H135341   3.308   3.832   0.714
 4594TIP3    H235342   3.446   3.796   0.662
 4595TIP3   OH235343   2.781   3.287   2.235
 4595TIP3    H135344   2.740   3.202   2.221
 4595TIP3    H235345   2.869   3.267   2.265
 4596TIP3   OH235346   0.893   3.908   7.826
 4596TIP3    H135347   0.853   3.911   7.739
 4596TIP3    H235348   0.986   3.927   7.809
 4597TIP3   OH235349   3.587   1.676   0.801
 4597TIP3    H135350   3.582   1.697   0.707
 4597TIP3    H235351   3.680   1.689   0.823
 4598TIP3   OH235352   1.428   6.272   0.240
 4598TIP3    H135353   1.411   6.298   0.330
 4598TIP3    H235354   1.510   6.316   0.218
 4599TIP3   OH235355   5.725   6.124   8.153
 4599TIP3    H135356   5.794   6.058   8.142
 4599TIP3    H235357   5.742   6.162   8.239
 4600TIP3   OH235358   6.843   0.798   8.309
 4600TIP3    H135359   0.072   0.796   8.352
 4600TIP3    H235360   0.007   0.801   8.215
 4601TIP3   OH235361   0.442   1.873   1.696
 4601TIP3    H135362   0.439   1.963   1.728
 4601TIP3    H235363   0.528   1.840   1.723
 4602TIP3   OH235364   4.498   0.527   0.189
 4602TIP3    H135365   4.431   0.538   0.122
 4602TIP3    H235366   4.450   0.505   0.269
 4603TIP3   OH235367   3.895   2.785   1.375
 4603TIP3    H135368   3.857   2.766   1.289
 4603TIP3    H235369   3.849   2.726   1.435
 4604TIP3   OH235370   0.902   2.485   1.944
 4604TIP3    H135371   0.976   2.469   2.002
 4604TIP3    H235372   0.939   2.481   1.856
 4605TIP3   OH235373   3.207   4.869   1.343
 4605TIP3    H135374   3.265   4.813   1.395
 4605TIP3    H235375   3.119   4.837   1.364
 4606TIP3   OH235376   2.126   3.680   8.068
 4606TIP3    H135377   2.195   3.627   8.027
 4606TIP3    H235378   2.163   3.768   8.071
 4607TIP3   OH235379   6.284   4.891   2.035
 4607TIP3    H135380   6.249   4.806   2.009
 4607TIP3    H235381   6.206   4.944   2.053
 4608TIP3   OH235382   5.476   0.192   0.997
 4608TIP3    H135383   5.501   0.268   1.049
 4608TIP3    H235384   5.416   0.143   1.053
 4609TIP3   OH235385   1.718   6.740   8.433
 4609TIP3    H135386   1.689   6.658   8.393
 4609TIP3    H235387   1.715   6.723   8.527
 4610TIP3   OH235388   4.883   2.139   0.551
 4610TIP3    H135389   4.933   2.070   0.594
 4610TIP3    H235390   4.809   2.094   0.510
 4611TIP3   OH235391   4.976   1.816   0.016
 4611TIP3    H135392   5.064   1.797   8.698
 4611TIP3    H235393   4.951   1.739   0.066
 4612TIP3   OH235394   0.194   1.283   1.798
 4612TIP3    H135395   0.117   1.264   1.746
 4612TIP3    H235396   0.187   1.226   1.874
 4613TIP3   OH235397   4.193   2.597   1.349
 4613TIP3    H135398   4.202   2.693   1.346
 4613TIP3    H235399   4.138   2.580   1.425
 4614TIP3   OH235400   1.260   3.212   0.174
 4614TIP3    H135401   1.290   3.184   0.261
 4614TIP3    H235402   1.331   3.189   0.115
 4615TIP3   OH235403   5.211   0.507   0.654
 4615TIP3    H135404   5.306   0.522   0.656
 4615TIP3    H235405   5.196   0.439   0.719
 4616TIP3   OH235406   5.737   5.144   0.917
 4616TIP3    H135407   5.807   5.110   0.972
 4616TIP3    H235408   5.749   5.100   0.833
 4617TIP3   OH235409   5.149   3.721   7.556
 4617TIP3    H135410   5.071   3.772   7.578
 4617TIP3    H235411   5.191   3.770   7.486
 4618TIP3   OH235412   4.029   2.003   1.659
 4618TIP3    H135413   4.031   2.039   1.747
 4618TIP3    H235414   4.069   1.917   1.667
 4619TIP3   OH235415   3.052   5.090   0.306
 4619TIP3    H135416   3.138   5.063   0.337
 4619TIP3    H235417   3.026   5.162   0.364
 4620TIP3   OH235418   6.229   1.874   0.048
 4620TIP3    H135419   6.190   1.789   0.069
 4620TIP3    H235420   6.312   1.852   0.004
 4621TIP3   OH235421   3.576   1.695   2.482
 4621TIP3    H135422   3.603   1.737   2.400
 4621TIP3    H235423   3.643   1.721   2.545
 4622TIP3   OH235424   2.540   1.923   7.267
 4622TIP3    H135425   2.493   1.920   7.183
 4622TIP3    H235426   2.481   1.970   7.326
 4623TIP3   OH235427   5.127   3.850   1.370
 4623TIP3    H135428   5.052   3.821   1.318
 4623TIP3    H235429   5.111   3.813   1.457
 4624TIP3   OH235430   0.947   2.615   8.284
 4624TIP3    H135431   0.870   2.559   8.273
 4624TIP3    H235432   0.912   2.700   8.311
 4625TIP3   OH235433   0.240   3.325   0.244
 4625TIP3    H135434   0.285   3.409   0.240
 4625TIP3    H235435   0.152   3.346   0.275
 4626TIP3   OH235436   2.599   5.498   8.552
 4626TIP3    H135437   2.635   5.418   8.514
 4626TIP3    H235438   2.592   5.559   8.478
 4627TIP3   OH235439   4.219   5.342   7.100
 4627TIP3    H135440   4.308   5.352   7.064
 4627TIP3    H235441   4.181   5.429   7.093
 4628TIP3   OH235442   0.898   1.309   8.519
 4628TIP3    H135443   0.934   1.382   8.569
 4628TIP3    H235444   0.967   1.243   8.518
 4629TIP3   OH235445   1.459   0.148   7.876
 4629TIP3    H135446   1.515   0.226   7.871
 4629TIP3    H235447   1.498   0.095   7.946
 4630TIP3   OH235448   0.580   5.112   2.035
 4630TIP3    H135449   0.615   5.144   2.118
 4630TIP3    H235450   0.526   5.037   2.058
 4631TIP3   OH235451   1.762   4.407   0.765
 4631TIP3    H135452   1.696   4.407   0.834
 4631TIP3    H235453   1.739   4.480   0.709
 4632TIP3   OH235454   3.464   0.051   1.350
 4632TIP3    H135455   3.534   0.023   1.409
 4632TIP3    H235456   3.446   0.141   1.375
 4633TIP3   OH235457   1.181   6.083   7.745
 4633TIP3    H135458   1.221   6.006   7.785
 4633TIP3    H235459   1.087   6.064   7.744
 4634TIP3   OH235460   0.406   1.651   7.660
 4634TIP3    H135461   0.500   1.650   7.640
 4634TIP3    H235462   0.364   1.675   7.577
 4635TIP3   OH235463   0.325   1.968   6.680
 4635TIP3    H135464   0.285   2.040   6.632
 4635TIP3    H235465   0.373   1.919   6.614
 4636TIP3   OH235466   2.225   1.095   6.661
 4636TIP3    H135467   2.236   1.070   6.753
 4636TIP3    H235468   2.154   1.038   6.630
 4637TIP3   OH235469   0.812   2.494   0.540
 4637TIP3    H135470   0.720   2.499   0.512
 4637TIP3    H235471   0.822   2.404   0.572
 4638TIP3   OH235472   1.077   2.961   1.350
 4638TIP3    H135473   1.162   2.938   1.388
 4638TIP3    H235474   1.099   3.011   1.271
 4639TIP3   OH235475   4.503   6.569   6.806
 4639TIP3    H135476   4.492   6.572   6.711
 4639TIP3    H235477   4.525   6.478   6.825
 4640TIP3   OH235478   1.126   4.573   0.378
 4640TIP3    H135479   1.203   4.586   0.323
 4640TIP3    H235480   1.099   4.483   0.362
 4641TIP3   OH235481   3.777   3.931   1.248
 4641TIP3    H135482   3.843   3.862   1.249
 4641TIP3    H235483   3.790   3.975   1.164
 4642TIP3   OH235484   6.831   0.729   1.560
 4642TIP3    H135485   6.842   0.823   1.570
 4642TIP3    H235486   6.818   0.716   1.466
 4643TIP3   OH235487   5.075   1.367   8.329
 4643TIP3    H135488   5.068   1.417   8.411
 4643TIP3    H235489   5.160   1.392   8.293
 4644TIP3   OH235490   3.677   1.129   2.359
 4644TIP3    H135491   3.656   1.057   2.417
 4644TIP3    H235492   3.722   1.089   2.285
 4645TIP3   OH235493   5.661   1.933   0.429
 4645TIP3    H135494   5.570   1.905   0.438
 4645TIP3    H235495   5.655   2.023   0.397
 4646TIP3   OH235496   4.142   0.433   6.828
 4646TIP3    H135497   4.221   0.486   6.836
 4646TIP3    H235498   4.071   0.494   6.851
 4647TIP3   OH235499   5.160   1.577   1.476
 4647TIP3    H135500   5.116   1.528   1.547
 4647TIP3    H235501   5.253   1.556   1.487
 4648TIP3   OH235502   1.693   0.019   1.127
 4648TIP3    H135503   1.658   0.051   1.044
 4648TIP3    H235504   1.733   0.097   1.167
 4649TIP3   OH235505   2.665   4.544   0.165
 4649TIP3    H135506   2.736   4.480   0.173
 4649TIP3    H235507   2.599   4.514   0.228
 4650TIP3   OH235508   4.721   1.830   0.707
 4650TIP3    H135509   4.694   1.890   0.638
 4650TIP3    H235510   4.794   1.873   0.751
 4651TIP3   OH235511   0.016   1.228   0.432
 4651TIP3    H135512   6.780   1.206   0.438
 4651TIP3    H235513   0.037   1.219   0.339
 4652TIP3   OH235514   4.388   0.224   1.742
 4652TIP3    H135515   4.311   0.190   1.697
 4652TIP3    H235516   4.389   0.179   1.827
 4653TIP3   OH235517   0.805   5.014   1.106
 4653TIP3    H135518   0.729   4.993   1.051
 4653TIP3    H235519   0.834   5.099   1.074
 4654TIP3   OH235520   4.196   4.419   1.776
 4654TIP3    H135521   4.185   4.326   1.797
 4654TIP3    H235522   4.165   4.427   1.685
 4655TIP3   OH235523   3.123   0.359   2.135
 4655TIP3    H135524   3.075   0.320   2.062
 4655TIP3    H235525   3.204   0.308   2.141
 4656TIP3   OH235526   0.181   3.662   1.898
 4656TIP3    H135527   0.204   3.570   1.883
 4656TIP3    H235528   0.266   3.706   1.906
 4657TIP3   OH235529   1.340   0.747   0.432
 4657TIP3    H135530   1.400   0.718   0.363
 4657TIP3    H235531   1.362   0.839   0.446
 4658TIP3   OH235532   5.109   0.847   0.212
 4658TIP3    H135533   5.100   0.845   0.307
 4658TIP3    H235534   5.160   0.927   0.195
 4659TIP3   OH235535   5.621   4.331   1.772
 4659TIP3    H135536   5.537   4.286   1.780
 4659TIP3    H235537   5.633   4.342   1.678
 4660TIP3   OH235538   2.282   6.771   1.478
 4660TIP3    H135539   2.207   6.826   1.454
 4660TIP3    H235540   2.297   6.790   1.570
 4661TIP3   OH235541   3.985   0.715   7.961
 4661TIP3    H135542   4.034   0.716   7.879
 4661TIP3    H235543   3.964   0.623   7.975
 4662TIP3   OH235544   5.471   3.208   2.212
 4662TIP3    H135545   5.407   3.253   2.157
 4662TIP3    H235546   5.556   3.233   2.175
 4663TIP3   OH235547   3.543   3.178   7.212
 4663TIP3    H135548   3.563   3.125   7.135
 4663TIP3    H235549   3.480   3.243   7.181
 4664TIP3   OH235550   0.956   0.492   7.612
 4664TIP3    H135551   0.938   0.514   7.520
 4664TIP3    H235552   1.038   0.538   7.632
 4665TIP3   OH235553   5.330   1.437   8.175
 4665TIP3    H135554   5.394   1.373   8.145
 4665TIP3    H235555   5.376   1.521   8.167
 4666TIP3   OH235556   0.321   3.433   1.782
 4666TIP3    H135557   0.324   3.344   1.819
 4666TIP3    H235558   0.412   3.455   1.765
 4667TIP3   OH235559   2.298   6.813   7.792
 4667TIP3    H135560   2.385   6.778   7.811
 4667TIP3    H235561   2.237   6.745   7.820
 4668TIP3   OH235562   5.024   4.710   8.594
 4668TIP3    H135563   4.947   4.672   8.636
 4668TIP3    H235564   5.011   4.693   8.500
 4669TIP3   OH235565   1.407   1.311   7.159
 4669TIP3    H135566   1.361   1.361   7.091
 4669TIP3    H235567   1.378   1.221   7.147
 4670TIP3   OH235568   0.273   2.204   0.009
 4670TIP3    H135569   0.341   2.270   0.021
 4670TIP3    H235570   0.318   2.129   8.685
 4671TIP3   OH235571   5.453   3.325   8.505
 4671TIP3    H135572   5.445   3.261   8.576
 4671TIP3    H235573   5.374   3.312   8.452
 4672TIP3   OH235574   6.193   4.566   1.111
 4672TIP3    H135575   6.158   4.620   1.040
 4672TIP3    H235576   6.273   4.528   1.075
 4673TIP3   OH235577   4.650   5.482   1.289
 4673TIP3    H135578   4.658   5.575   1.266
 4673TIP3    H235579   4.581   5.480   1.355
 4674TIP3   OH235580   1.020   2.476   1.701
 4674TIP3    H135581   1.058   2.434   1.625
 4674TIP3    H235582   1.094   2.516   1.747
 4675TIP3   OH235583   3.114   2.783   7.610
 4675TIP3    H135584   3.108   2.864   7.560
 4675TIP3    H235585   3.176   2.729   7.561
 4676TIP3   OH235586   3.001   6.817   1.494
 4676TIP3    H135587   3.010   0.055   1.493
 4676TIP3    H235588   3.088   6.784   1.471
 4677TIP3   OH235589   6.839   2.301   1.900
 4677TIP3    H135590   0.062   2.272   1.855
 4677TIP3    H235591   6.768   2.265   1.847
 4678TIP3   OH235592   4.171   0.081   1.674
 4678TIP3    H135593   4.125   0.074   1.758
 4678TIP3    H235594   4.127   0.017   1.617
 4679TIP3   OH235595   2.056   3.169   7.079
 4679TIP3    H135596   2.047   3.111   7.155
 4679TIP3    H235597   2.004   3.127   7.011
 4680TIP3   OH235598   0.724   6.405   7.915
 4680TIP3    H135599   0.793   6.471   7.919
 4680TIP3    H235600   0.748   6.341   7.982
 4681TIP3   OH235601   4.342   2.425   7.633
 4681TIP3    H135602   4.401   2.486   7.589
 4681TIP3    H235603   4.400   2.355   7.665
 4682TIP3   OH235604   6.327   2.363   0.433
 4682TIP3    H135605   6.374   2.368   0.350
 4682TIP3    H235606   6.297   2.452   0.450
 4683TIP3   OH235607   3.271   5.594   0.571
 4683TIP3    H135608   3.365   5.587   0.557
 4683TIP3    H235609   3.252   5.687   0.563
 4684TIP3   OH235610   2.761   5.613   7.195
 4684TIP3    H135611   2.840   5.621   7.143
 4684TIP3    H235612   2.759   5.692   7.249
 4685TIP3   OH235613   0.997   1.094   0.603
 4685TIP3    H135614   1.004   1.060   0.514
 4685TIP3    H235615   0.905   1.118   0.613
 4686TIP3   OH235616   0.474   5.622   7.807
 4686TIP3    H135617   0.420   5.624   7.886
 4686TIP3    H235618   0.414   5.638   7.735
 4687TIP3   OH235619   2.306   6.801   6.449
 4687TIP3    H135620   2.227   6.766   6.408
 4687TIP3    H235621   2.374   6.789   6.383
 4688TIP3   OH235622   1.678   0.503   0.968
 4688TIP3    H135623   1.660   0.510   0.874
 4688TIP3    H235624   1.629   0.574   1.008
 4689TIP3   OH235625   6.660   0.404   1.320
 4689TIP3    H135626   6.742   0.404   1.271
 4689TIP3    H235627   6.667   0.328   1.378
 4690TIP3   OH235628   5.438   5.001   1.045
 4690TIP3    H135629   5.428   4.976   1.137
 4690TIP3    H235630   5.482   5.086   1.047
 4691TIP3   OH235631   1.919   5.932   1.713
 4691TIP3    H135632   1.889   5.841   1.712
 4691TIP3    H235633   1.989   5.935   1.648
 4692TIP3   OH235634   5.741   2.596   7.853
 4692TIP3    H135635   5.716   2.551   7.772
 4692TIP3    H235636   5.669   2.656   7.870
 4693TIP3   OH235637   4.443   0.837   0.861
 4693TIP3    H135638   4.358   0.879   0.863
 4693TIP3    H235639   4.488   0.868   0.940
 4694TIP3   OH235640   4.322   1.185   0.237
 4694TIP3    H135641   4.322   1.275   0.270
 4694TIP3    H235642   4.415   1.161   0.233
 4695TIP3   OH235643   4.926   2.740   0.996
 4695TIP3    H135644   4.980   2.718   0.920
 4695TIP3    H235645   4.966   2.820   1.032
 4696TIP3   OH235646   5.153   4.477   0.175
 4696TIP3    H135647   5.178   4.549   0.118
 4696TIP3    H235648   5.219   4.477   0.245
 4697TIP3   OH235649   6.611   1.930   1.552
 4697TIP3    H135650   6.632   1.909   1.461
 4697TIP3    H235651   6.520   1.902   1.562
 4698TIP3   OH235652   5.000   1.060   7.562
 4698TIP3    H135653   4.928   1.068   7.625
 4698TIP3    H235654   5.079   1.075   7.613
 4699TIP3   OH235655   6.103   3.478   0.457
 4699TIP3    H135656   6.070   3.392   0.429
 4699TIP3    H235657   6.188   3.486   0.413
 4700TIP3   OH235658   2.757   0.504   1.935
 4700TIP3    H135659   2.826   0.520   2.000
 4700TIP3    H235660   2.685   0.467   1.986
 4701TIP3   OH235661   4.377   6.567   7.179
 4701TIP3    H135662   4.406   6.475   7.175
 4701TIP3    H235663   4.343   6.585   7.092
 4702TIP3   OH235664   2.880   2.742   8.513
 4702TIP3    H135665   2.951   2.804   8.496
 4702TIP3    H235666   2.812   2.795   8.554
 4703TIP3   OH235667   0.166   0.302   1.840
 4703TIP3    H135668   0.200   0.223   1.881
 4703TIP3    H235669   0.227   0.320   1.768
 4704TIP3   OH235670   0.302   0.036   1.661
 4704TIP3    H135671   0.238   6.824   1.684
 4704TIP3    H235672   0.381   0.011   1.708
 4705TIP3   OH235673   4.167   1.818   0.289
 4705TIP3    H135674   4.184   1.776   0.373
 4705TIP3    H235675   4.243   1.874   0.274
 4706TIP3   OH235676   3.230   1.725   1.278
 4706TIP3    H135677   3.192   1.813   1.270
 4706TIP3    H235678   3.289   1.731   1.353
 4707TIP3   OH235679   6.298   1.741   7.898
 4707TIP3    H135680   6.359   1.810   7.927
 4707TIP3    H235681   6.227   1.789   7.857
 4708TIP3   OH235682   4.166   4.173   0.542
 4708TIP3    H135683   4.249   4.204   0.578
 4708TIP3    H235684   4.126   4.123   0.612
 4709TIP3   OH235685   6.611   3.915   8.338
 4709TIP3    H135686   6.522   3.923   8.303
 4709TIP3    H235687   6.622   3.993   8.392
 4710TIP3   OH235688   1.785   6.701   0.320
 4710TIP3    H135689   1.851   6.638   0.290
 4710TIP3    H235690   1.834   6.781   0.335
 4711TIP3   OH235691   3.102   1.185   1.397
 4711TIP3    H135692   3.051   1.165   1.475
 4711TIP3    H235693   3.093   1.108   1.342
 4712TIP3   OH235694   6.251   0.334   8.242
 4712TIP3    H135695   6.158   0.323   8.259
 4712TIP3    H235696   6.286   0.373   8.322
 4713TIP3   OH235697   2.835   2.040   0.301
 4713TIP3    H135698   2.746   2.019   0.329
 4713TIP3    H235699   2.879   1.955   0.293
 4714TIP3   OH235700   4.455   5.461   6.780
 4714TIP3    H135701   4.393   5.492   6.714
 4714TIP3    H235702   4.404   5.399   6.833
 4715TIP3   OH235703   0.808   3.264   8.650
 4715TIP3    H135704   0.892   3.307   8.671
 4715TIP3    H235705   0.755   3.275   0.016
 4716TIP3   OH235706   1.703   1.466   0.382
 4716TIP3    H135707   1.654   1.460   0.300
 4716TIP3    H235708   1.792   1.438   0.358
 4717TIP3   OH235709   5.469   2.742   7.834
 4717TIP3    H135710   5.463   2.666   7.776
 4717TIP3    H235711   5.387   2.742   7.883
 4718TIP3   OH235712   5.927   6.640   0.670
 4718TIP3    H135713   5.918   6.619   0.763
 4718TIP3    H235714   5.903   6.733   0.664
 4719TIP3   OH235715   4.851   5.510   1.698
 4719TIP3    H135716   4.886   5.432   1.655
 4719TIP3    H235717   4.903   5.582   1.664
 4720TIP3   OH235718   0.921   3.288   2.430
 4720TIP3    H135719   0.952   3.325   2.347
 4720TIP3    H235720   0.909   3.364   2.487
 4721TIP3   OH235721   5.560   4.742   0.696
 4721TIP3    H135722   5.480   4.785   0.728
 4721TIP3    H235723   5.578   4.783   0.612
 4722TIP3   OH235724   3.785   3.960   0.880
 4722TIP3    H135725   3.831   4.025   0.934
 4722TIP3    H235726   3.694   3.967   0.908
 4723TIP3   OH235727   2.994   5.557   0.600
 4723TIP3    H135728   2.970   5.569   0.509
 4723TIP3    H235729   3.090   5.561   0.600
 4724TIP3   OH235730   2.350   2.918   6.997
 4724TIP3    H135731   2.356   2.998   7.049
 4724TIP3    H235732   2.386   2.942   6.912
 4725TIP3   OH235733   5.923   3.667   7.063
 4725TIP3    H135734   5.983   3.676   6.989
 4725TIP3    H235735   5.978   3.679   7.140
 4726TIP3   OH235736   0.758   4.977   0.346
 4726TIP3    H135737   0.811   4.914   0.395
 4726TIP3    H235738   0.705   5.021   0.413
 4727TIP3   OH235739   4.671   3.637   7.549
 4727TIP3    H135740   4.576   3.641   7.560
 4727TIP3    H235741   4.699   3.566   7.607
 4728TIP3   OH235742   0.141   6.041   0.211
 4728TIP3    H135743   0.235   6.045   0.226
 4728TIP3    H235744   0.120   5.948   0.211
 4729TIP3   OH235745   3.244   2.379   1.409
 4729TIP3    H135746   3.197   2.380   1.325
 4729TIP3    H235747   3.188   2.427   1.469
 4730TIP3   OH235748   0.407   4.549   0.992
 4730TIP3    H135749   0.351   4.577   0.920
 4730TIP3    H235750   0.495   4.574   0.966
 4731TIP3   OH235751   5.609   1.933   1.241
 4731TIP3    H135752   5.591   1.852   1.288
 4731TIP3    H235753   5.703   1.944   1.247
 4732TIP3   OH235754   0.092   1.154   6.589
 4732TIP3    H135755   0.047   1.221   6.538
 4732TIP3    H235756   0.023   1.092   6.613
 4733TIP3   OH235757   2.498   6.848   2.019
 4733TIP3    H135758   2.483   6.832   1.926
 4733TIP3    H235759   2.412   0.014   2.054
 4734TIP3   OH235760   4.398   6.152   8.635
 4734TIP3    H135761   4.443   6.067   8.634
 4734TIP3    H235762   4.456   6.209   8.686
 4735TIP3   OH235763   0.426   6.624   2.004
 4735TIP3    H135764   0.491   6.606   2.072
 4735TIP3    H235765   0.449   6.711   1.972
 4736TIP3   OH235766   5.702   0.084   0.819
 4736TIP3    H135767   5.632   0.126   0.869
 4736TIP3    H235768   5.666   6.855   0.795
 4737TIP3   OH235769   5.103   5.152   7.925
 4737TIP3    H135770   5.025   5.169   7.977
 4737TIP3    H235771   5.075   5.169   7.835
 4738TIP3   OH235772   0.965   0.565   8.693
 4738TIP3    H135773   0.921   0.650   8.685
 4738TIP3    H235774   0.963   0.528   8.605
 4739TIP3   OH235775   4.617   0.406   6.960
 4739TIP3    H135776   4.668   0.375   7.035
 4739TIP3    H235777   4.657   0.490   6.937
 4740TIP3   OH235778   4.447   5.264   0.027
 4740TIP3    H135779   4.503   5.198   8.700
 4740TIP3    H235780   4.490   5.347   0.006
 4741TIP3   OH235781   4.217   3.349   8.256
 4741TIP3    H135782   4.306   3.314   8.255
 4741TIP3    H235783   4.228   3.443   8.266
 4742TIP3   OH235784   1.483   4.452   8.021
 4742TIP3    H135785   1.540   4.474   8.094
 4742TIP3    H235786   1.416   4.521   8.021
 4743TIP3   OH235787   4.002   1.018   8.032
 4743TIP3    H135788   4.080   1.073   8.027
 4743TIP3    H235789   3.945   1.050   7.963
 4744TIP3   OH235790   6.063   2.520   6.028
 4744TIP3    H135791   6.073   2.487   5.939
 4744TIP3    H235792   6.152   2.539   6.057
 4745TIP3   OH235793   1.304   3.432   0.596
 4745TIP3    H135794   1.346   3.442   0.682
 4745TIP3    H235795   1.285   3.522   0.568
 4746TIP3   OH235796   0.608   3.424   0.150
 4746TIP3    H135797   0.545   3.472   0.203
 4746TIP3    H235798   0.693   3.459   0.176
 4747TIP3   OH235799   5.426   3.377   0.490
 4747TIP3    H135800   5.452   3.295   0.531
 4747TIP3    H235801   5.333   3.367   0.473
 4748TIP3   OH235802   6.514   6.249   2.434
 4748TIP3    H135803   6.479   6.250   2.524
 4748TIP3    H235804   6.565   6.168   2.429
 4749TIP3   OH235805   0.066   6.495   0.786
 4749TIP3    H135806   6.847   6.437   0.795
 4749TIP3    H235807   0.029   6.583   0.781
 4750TIP3   OH235808   0.785   4.214   8.461
 4750TIP3    H135809   0.840   4.244   8.534
 4750TIP3    H235810   0.847   4.174   8.400
 4751TIP3   OH235811   2.040   4.404   2.062
 4751TIP3    H135812   2.107   4.411   2.130
 4751TIP3    H235813   1.998   4.490   2.060
 4752TIP3   OH235814   0.275   3.805   7.212
 4752TIP3    H135815   0.270   3.716   7.177
 4752TIP3    H235816   0.243   3.798   7.302
 4753TIP3   OH235817   1.447   0.640   7.792
 4753TIP3    H135818   1.425   0.586   7.716
 4753TIP3    H235819   1.389   0.716   7.786
 4754TIP3   OH235820   3.134   2.298   7.949
 4754TIP3    H135821   3.094   2.313   8.034
 4754TIP3    H235822   3.228   2.304   7.965
 4755TIP3   OH235823   2.087   2.023   8.109
 4755TIP3    H135824   2.056   1.984   8.190
 4755TIP3    H235825   2.092   2.117   8.126
 4756TIP3   OH235826   2.660   5.571   1.646
 4756TIP3    H135827   2.625   5.545   1.731
 4756TIP3    H235828   2.714   5.648   1.664
 4757TIP3   OH235829   4.751   1.088   7.694
 4757TIP3    H135830   4.766   1.013   7.751
 4757TIP3    H235831   4.701   1.150   7.748
 4758TIP3   OH235832   2.973   5.879   7.161
 4758TIP3    H135833   2.894   5.926   7.186
 4758TIP3    H235834   3.037   5.901   7.229
 4759TIP3   OH235835   6.391   0.606   1.087
 4759TIP3    H135836   6.312   0.577   1.042
 4759TIP3    H235837   6.463   0.580   1.029
 4760TIP3   OH235838   3.758   6.797   8.149
 4760TIP3    H135839   3.783   0.005   8.215
 4760TIP3    H235840   3.676   6.760   8.181
 4761TIP3   OH235841   0.796   2.378   6.993
 4761TIP3    H135842   0.747   2.441   7.046
 4761TIP3    H235843   0.887   2.405   7.001
 4762TIP3   OH235844   3.247   4.600   0.650
 4762TIP3    H135845   3.180   4.576   0.713
 4762TIP3    H235846   3.259   4.522   0.596
 4763TIP3   OH235847   2.631   4.740   7.814
 4763TIP3    H135848   2.585   4.824   7.811
 4763TIP3    H235849   2.635   4.718   7.907
 4764TIP3   OH235850   1.598   5.810   0.525
 4764TIP3    H135851   1.582   5.761   0.445
 4764TIP3    H235852   1.524   5.870   0.532
 4765TIP3   OH235853   2.528   3.551   1.443
 4765TIP3    H135854   2.457   3.612   1.423
 4765TIP3    H235855   2.600   3.607   1.472
 4766TIP3   OH235856   2.081   6.578   1.950
 4766TIP3    H135857   2.032   6.593   2.031
 4766TIP3    H235858   2.173   6.575   1.977
 4767TIP3   OH235859   4.455   3.674   0.676
 4767TIP3    H135860   4.426   3.598   0.726
 4767TIP3    H235861   4.411   3.664   0.591
 4768TIP3   OH235862   5.717   3.168   6.827
 4768TIP3    H135863   5.663   3.244   6.803
 4768TIP3    H235864   5.696   3.102   6.761
 4769TIP3   OH235865   0.869   0.479   1.066
 4769TIP3    H135866   0.804   0.549   1.058
 4769TIP3    H235867   0.849   0.437   1.150
 4770TIP3   OH235868   4.565   5.791   0.622
 4770TIP3    H135869   4.480   5.794   0.577
 4770TIP3    H235870   4.586   5.883   0.638
 4771TIP3   OH235871   1.837   1.683   8.539
 4771TIP3    H135872   1.866   1.763   8.495
 4771TIP3    H235873   1.897   1.616   8.508
 4772TIP3   OH235874   1.257   0.718   8.685
 4772TIP3    H135875   1.348   0.687   8.690
 4772TIP3    H235876   1.221   0.675   8.608
 4773TIP3   OH235877   2.028   0.646   2.352
 4773TIP3    H135878   2.086   0.715   2.320
 4773TIP3    H235879   1.988   0.610   2.273
 4774TIP3   OH235880   2.967   5.254   0.513
 4774TIP3    H135881   2.887   5.290   0.551
 4774TIP3    H235882   3.003   5.324   0.459
 4775TIP3   OH235883   5.914   1.380   1.760
 4775TIP3    H135884   5.941   1.320   1.830
 4775TIP3    H235885   5.827   1.350   1.736
 4776TIP3   OH235886   4.038   4.470   2.561
 4776TIP3    H135887   3.969   4.498   2.501
 4776TIP3    H235888   4.108   4.439   2.504
 4777TIP3   OH235889   2.553   0.951   7.592
 4777TIP3    H135890   2.523   0.964   7.502
 4777TIP3    H235891   2.608   0.873   7.588
 4778TIP3   OH235892   3.278   6.497   7.229
 4778TIP3    H135893   3.342   6.545   7.282
 4778TIP3    H235894   3.298   6.523   7.139
 4779TIP3   OH235895   1.380   3.885   1.220
 4779TIP3    H135896   1.466   3.921   1.242
 4779TIP3    H235897   1.398   3.821   1.151
 4780TIP3   OH235898   5.708   0.796   7.508
 4780TIP3    H135899   5.618   0.773   7.531
 4780TIP3    H235900   5.700   0.850   7.429
 4781TIP3   OH235901   6.425   5.824   1.078
 4781TIP3    H135902   6.482   5.900   1.091
 4781TIP3    H235903   6.448   5.765   1.151
 4782TIP3   OH235904   3.477   3.202   1.007
 4782TIP3    H135905   3.533   3.221   1.082
 4782TIP3    H235906   3.527   3.234   0.932
 4783TIP3   OH235907   0.863   3.775   6.226
 4783TIP3    H135908   0.905   3.694   6.255
 4783TIP3    H235909   0.778   3.747   6.191
 4784TIP3   OH235910   2.698   5.461   0.353
 4784TIP3    H135911   2.724   5.386   0.299
 4784TIP3    H235912   2.602   5.461   0.349
 4785TIP3   OH235913   1.086   1.932   1.458
 4785TIP3    H135914   1.043   2.005   1.413
 4785TIP3    H235915   1.123   1.971   1.537
 4786TIP3   OH235916   4.207   1.369   7.299
 4786TIP3    H135917   4.282   1.310   7.293
 4786TIP3    H235918   4.131   1.311   7.305
 4787TIP3   OH235919   0.081   5.445   0.530
 4787TIP3    H135920   0.052   5.401   0.610
 4787TIP3    H235921   0.171   5.472   0.549
 4788TIP3   OH235922   2.847   3.779   0.260
 4788TIP3    H135923   2.869   3.869   0.237
 4788TIP3    H235924   2.775   3.756   0.202
 4789TIP3   OH235925   1.749   3.676   7.378
 4789TIP3    H135926   1.766   3.582   7.370
 4789TIP3    H235927   1.809   3.705   7.447
 4790TIP3   OH235928   3.094   2.029   0.036
 4790TIP3    H135929   3.009   2.055   0.070
 4790TIP3    H235930   3.148   2.108   0.044
 4791TIP3   OH235931   0.430   5.077   6.855
 4791TIP3    H135932   0.415   5.165   6.891
 4791TIP3    H235933   0.509   5.047   6.900
 4792TIP3   OH235934   5.728   6.175   1.441
 4792TIP3    H135935   5.798   6.117   1.411
 4792TIP3    H235936   5.773   6.254   1.471
 4793TIP3   OH235937   5.919   5.489   0.482
 4793TIP3    H135938   5.845   5.505   0.424
 4793TIP3    H235939   5.994   5.528   0.436
 4794TIP3   OH235940   0.406   5.153   8.153
 4794TIP3    H135941   0.484   5.180   8.104
 4794TIP3    H235942   0.346   5.227   8.146
 4795TIP3   OH235943   3.538   0.798   7.140
 4795TIP3    H135944   3.533   0.795   7.236
 4795TIP3    H235945   3.590   0.722   7.116
 4796TIP3   OH235946   3.153   2.012   1.315
 4796TIP3    H135947   3.071   2.021   1.364
 4796TIP3    H235948   3.217   2.061   1.366
 4797TIP3   OH235949   5.505   3.626   7.697
 4797TIP3    H135950   5.433   3.675   7.738
 4797TIP3    H235951   5.496   3.537   7.731
 4798TIP3   OH235952   1.319   1.821   7.093
 4798TIP3    H135953   1.261   1.744   7.088
 4798TIP3    H235954   1.395   1.796   7.041
 4799TIP3   OH235955   2.029   2.926   1.318
 4799TIP3    H135956   2.112   2.972   1.332
 4799TIP3    H235957   1.985   2.977   1.250
 4800TIP3   OH235958   5.746   3.778   8.253
 4800TIP3    H135959   5.802   3.789   8.176
 4800TIP3    H235960   5.736   3.866   8.289
 4801TIP3   OH235961   2.373   5.663   1.163
 4801TIP3    H135962   2.424   5.582   1.156
 4801TIP3    H235963   2.315   5.661   1.087
 4802TIP3   OH235964   1.784   6.042   7.432
 4802TIP3    H135965   1.689   6.047   7.437
 4802TIP3    H235966   1.814   6.086   7.512
 4803TIP3   OH235967   4.296   5.430   0.196
 4803TIP3    H135968   4.340   5.384   0.124
 4803TIP3    H235969   4.215   5.382   0.210
 4804TIP3   OH235970   1.599   4.851   6.676
 4804TIP3    H135971   1.559   4.831   6.760
 4804TIP3    H235972   1.525   4.862   6.616
 4805TIP3   OH235973   1.902   5.707   1.477
 4805TIP3    H135974   1.915   5.681   1.568
 4805TIP3    H235975   1.976   5.669   1.430
 4806TIP3   OH235976   0.466   1.553   1.991
 4806TIP3    H135977   0.460   1.646   1.972
 4806TIP3    H235978   0.525   1.548   2.067
 4807TIP3   OH235979   1.262   2.538   1.859
 4807TIP3    H135980   1.314   2.619   1.859
 4807TIP3    H235981   1.241   2.524   1.951
 4808TIP3   OH235982   2.685   1.445   0.203
 4808TIP3    H135983   2.725   1.393   0.272
 4808TIP3    H235984   2.638   1.514   0.249
 4809TIP3   OH235985   6.793   6.382   8.040
 4809TIP3    H135986   6.789   6.287   8.038
 4809TIP3    H235987   0.001   6.405   7.973
 4810TIP3   OH235988   4.970   6.103   0.054
 4810TIP3    H135989   5.031   6.058   8.709
 4810TIP3    H235990   4.954   6.187   0.012
 4811TIP3   OH235991   1.554   3.647   7.079
 4811TIP3    H135992   1.509   3.679   7.002
 4811TIP3    H235993   1.545   3.552   7.075
 4812TIP3   OH235994   1.880   3.005   6.931
 4812TIP3    H135995   1.795   3.013   6.976
 4812TIP3    H235996   1.877   2.918   6.891
 4813TIP3   OH235997   2.487   6.447   7.463
 4813TIP3    H135998   2.484   6.424   7.556
 4813TIP3    H235999   2.417   6.512   7.452
 4814TIP3   OH236000   0.147   3.471   8.646
 4814TIP3    H136001   0.238   3.444   8.649
 4814TIP3    H236002   0.101   3.396   8.608
 4815TIP3   OH236003   0.012   5.227   7.464
 4815TIP3    H136004   0.068   5.218   7.387
 4815TIP3    H236005   0.073   5.229   7.538
 4816TIP3   OH236006   2.975   1.078   7.530
 4816TIP3    H136007   2.969   1.048   7.621
 4816TIP3    H236008   2.948   1.002   7.479
 4817TIP3   OH236009   3.605   2.628   1.792
 4817TIP3    H136010   3.565   2.689   1.854
 4817TIP3    H236011   3.533   2.599   1.736
 4818TIP3   OH236012   6.142   2.575   1.402
 4818TIP3    H136013   6.092   2.498   1.376
 4818TIP3    H236014   6.203   2.543   1.468
 4819TIP3   OH236015   3.578   6.564   0.078
 4819TIP3    H136016   3.621   6.549   8.708
 4819TIP3    H236017   3.619   6.502   0.138
 4820TIP3   OH236018   3.551   2.670   6.907
 4820TIP3    H136019   3.572   2.682   6.814
 4820TIP3    H236020   3.552   2.576   6.920
 4821TIP3   OH236021   3.711   2.367   1.536
 4821TIP3    H136022   3.643   2.300   1.536
 4821TIP3    H236023   3.756   2.357   1.452
 4822TIP3   OH236024   4.516   0.075   0.792
 4822TIP3    H136025   4.484   0.108   0.876
 4822TIP3    H236026   4.596   0.124   0.777
 4823TIP3   OH236027   1.605   1.296   1.951
 4823TIP3    H136028   1.692   1.255   1.945
 4823TIP3    H236029   1.553   1.235   2.004
 4824TIP3   OH236030   3.217   0.511   7.859
 4824TIP3    H136031   3.243   0.452   7.929
 4824TIP3    H236032   3.271   0.590   7.873
 4825TIP3   OH236033   5.996   2.816   7.009
 4825TIP3    H136034   5.932   2.886   7.016
 4825TIP3    H236035   5.946   2.740   6.978
 4826TIP3   OH236036   6.353   4.564   1.464
 4826TIP3    H136037   6.278   4.622   1.453
 4826TIP3    H236038   6.413   4.612   1.521
 4827TIP3   OH236039   5.501   1.097   0.540
 4827TIP3    H136040   5.500   1.016   0.591
 4827TIP3    H236041   5.418   1.140   0.560
 4828TIP3   OH236042   0.741   2.645   6.835
 4828TIP3    H136043   0.673   2.710   6.817
 4828TIP3    H236044   0.772   2.667   6.923
 4829TIP3   OH236045   6.274   0.326   1.467
 4829TIP3    H136046   6.311   0.349   1.553
 4829TIP3    H236047   6.316   0.387   1.406
 4830TIP3   OH236048   4.528   5.116   1.359
 4830TIP3    H136049   4.602   5.061   1.385
 4830TIP3    H236050   4.552   5.204   1.387
 4831TIP3   OH236051   5.203   2.020   7.941
 4831TIP3    H136052   5.136   1.970   7.895
 4831TIP3    H236053   5.164   2.039   8.026
 4832TIP3   OH236054   0.456   2.673   7.063
 4832TIP3    H136055   0.376   2.723   7.046
 4832TIP3    H236056   0.524   2.719   7.012
 4833TIP3   OH236057   4.133   5.148   7.461
 4833TIP3    H136058   4.098   5.103   7.537
 4833TIP3    H236059   4.135   5.082   7.392
 4834TIP3   OH236060   3.319   0.760   1.102
 4834TIP3    H136061   3.374   0.732   1.175
 4834TIP3    H236062   3.342   0.852   1.089
 4835TIP3   OH236063   0.980   4.363   0.762
 4835TIP3    H136064   1.072   4.370   0.787
 4835TIP3    H236065   0.932   4.366   0.845
 4836TIP3   OH236066   4.789   2.376   2.065
 4836TIP3    H136067   4.737   2.395   1.987
 4836TIP3    H236068   4.778   2.282   2.079
 4837TIP3   OH236069   2.178   1.869   7.898
 4837TIP3    H136070   2.142   1.947   7.940
 4837TIP3    H236071   2.113   1.844   7.833
 4838TIP3   OH236072   3.286   2.053   8.168
 4838TIP3    H136073   3.313   2.088   8.084
 4838TIP3    H236074   3.277   2.129   8.224
 4839TIP3   OH236075   2.630   0.119   8.672
 4839TIP3    H136076   2.691   0.081   8.608
 4839TIP3    H236077   2.544   0.113   8.630
 4840TIP3   OH236078   5.068   6.003   1.493
 4840TIP3    H136079   5.063   6.022   1.587
 4840TIP3    H236080   4.980   5.974   1.470
 4841TIP3   OH236081   0.667   2.951   7.890
 4841TIP3    H136082   0.729   2.892   7.934
 4841TIP3    H236083   0.604   2.974   7.958
 4842TIP3   OH236084   5.291   2.934   7.271
 4842TIP3    H136085   5.361   2.996   7.292
 4842TIP3    H236086   5.275   2.888   7.353
 4843TIP3   OH236087   3.710   3.258   8.056
 4843TIP3    H136088   3.636   3.283   8.111
 4843TIP3    H236089   3.784   3.251   8.116
 4844TIP3   OH236090   1.378   0.241   7.081
 4844TIP3    H136091   1.456   0.231   7.026
 4844TIP3    H236092   1.409   0.285   7.160
 4845TIP3   OH236093   4.940   2.632   1.897
 4845TIP3    H136094   4.873   2.572   1.863
 4845TIP3    H236095   4.965   2.595   1.981
 4846TIP3   OH236096   6.225   5.043   7.720
 4846TIP3    H136097   6.321   5.038   7.713
 4846TIP3    H236098   6.207   5.022   7.812
 4847TIP3   OH236099   0.582   0.906   7.492
 4847TIP3    H136100   0.672   0.936   7.507
 4847TIP3    H236101   0.542   0.905   7.579
 4848TIP3   OH236102   5.478   4.974   2.136
 4848TIP3    H136103   5.385   4.957   2.120
 4848TIP3    H236104   5.482   5.068   2.157
 4849TIP3   OH236105   3.845   2.367   1.267
 4849TIP3    H136106   3.871   2.291   1.215
 4849TIP3    H236107   3.832   2.437   1.203
 4850TIP3   OH236108   3.260   3.325   0.929
 4850TIP3    H136109   3.341   3.282   0.957
 4850TIP3    H236110   3.241   3.388   0.998
 4851TIP3   OH236111   3.167   6.330   0.741
 4851TIP3    H136112   3.077   6.322   0.774
 4851TIP3    H236113   3.221   6.287   0.806
 4852TIP3   OH236114   3.421   1.291   8.478
 4852TIP3    H136115   3.333   1.324   8.462
 4852TIP3    H236116   3.461   1.286   8.391
 4853TIP3   OH236117   4.312   2.521   0.505
 4853TIP3    H136118   4.273   2.448   0.457
 4853TIP3    H236119   4.307   2.495   0.597
 4854TIP3   OH236120   4.860   1.416   8.167
 4854TIP3    H136121   4.917   1.417   8.244
 4854TIP3    H236122   4.899   1.349   8.109
 4855TIP3   OH236123   2.898   1.009   0.908
 4855TIP3    H136124   2.839   1.068   0.861
 4855TIP3    H236125   2.977   1.005   0.854
 4856TIP3   OH236126   0.209   0.243   0.228
 4856TIP3    H136127   0.215   0.158   0.272
 4856TIP3    H236128   0.199   0.307   0.298
 4857TIP3   OH236129   0.571   6.676   7.641
 4857TIP3    H136130   0.605   6.757   7.679
 4857TIP3    H236131   0.535   6.702   7.556
 4858TIP3   OH236132   5.745   0.204   7.923
 4858TIP3    H136133   5.765   0.211   7.830
 4858TIP3    H236134   5.677   0.269   7.939
 4859TIP3   OH236135   6.454   6.781   0.644
 4859TIP3    H136136   6.391   6.776   0.716
 4859TIP3    H236137   6.482   0.016   0.643
 4860TIP3   OH236138   5.821   0.620   6.424
 4860TIP3    H136139   5.873   0.578   6.355
 4860TIP3    H236140   5.883   0.673   6.473
 4861TIP3   OH236141   3.211   0.647   7.119
 4861TIP3    H136142   3.281   0.617   7.061
 4861TIP3    H236143   3.171   0.721   7.073
 4862TIP3   OH236144   2.858   5.326   1.761
 4862TIP3    H136145   2.893   5.414   1.747
 4862TIP3    H236146   2.830   5.326   1.852
 4863TIP3   OH236147   3.763   3.676   8.521
 4863TIP3    H136148   3.758   3.661   8.427
 4863TIP3    H236149   3.754   3.589   8.560
 4864TIP3   OH236150   3.686   1.526   7.605
 4864TIP3    H136151   3.649   1.462   7.544
 4864TIP3    H236152   3.685   1.481   7.690
 4865TIP3   OH236153   5.837   6.097   0.137
 4865TIP3    H136154   5.784   6.167   0.100
 4865TIP3    H236155   5.861   6.129   0.225
 4866TIP3   OH236156   5.619   3.640   2.428
 4866TIP3    H136157   5.646   3.600   2.345
 4866TIP3    H236158   5.627   3.734   2.414
 4867TIP3   OH236159   5.715   2.518   0.056
 4867TIP3    H136160   5.785   2.577   0.081
 4867TIP3    H236161   5.636   2.571   0.059
 4868TIP3   OH236162   3.957   3.084   8.006
 4868TIP3    H136163   3.884   3.120   7.956
 4868TIP3    H236164   3.917   3.040   8.081
 4869TIP3   OH236165   5.585   1.685   0.119
 4869TIP3    H136166   5.648   1.753   0.099
 4869TIP3    H236167   5.619   1.607   0.075
 4870TIP3   OH236168   3.162   4.056   7.543
 4870TIP3    H136169   3.223   4.016   7.605
 4870TIP3    H236170   3.217   4.089   7.472
 4871TIP3   OH236171   3.720   3.501   1.525
 4871TIP3    H136172   3.787   3.569   1.518
 4871TIP3    H236173   3.637   3.549   1.522
 4872TIP3   OH236174   4.945   6.671   6.878
 4872TIP3    H136175   4.926   6.763   6.860
 4872TIP3    H236176   4.891   6.623   6.816
 4873TIP3   OH236177   4.070   0.334   0.836
 4873TIP3    H136178   4.054   0.250   0.878
 4873TIP3    H236179   4.151   0.367   0.875
 4874TIP3   OH236180   2.260   5.158   8.123
 4874TIP3    H136181   2.195   5.171   8.054
 4874TIP3    H236182   2.286   5.247   8.149
 4875TIP3   OH236183   6.640   0.879   1.376
 4875TIP3    H136184   6.656   0.971   1.358
 4875TIP3    H236185   6.553   0.878   1.418
 4876TIP3   OH236186   4.813   1.874   1.701
 4876TIP3    H136187   4.747   1.942   1.715
 4876TIP3    H236188   4.772   1.794   1.731
 4877TIP3   OH236189   6.601   5.224   0.542
 4877TIP3    H136190   6.563   5.192   0.624
 4877TIP3    H236191   6.692   5.196   0.546
 4878TIP3   OH236192   1.111   3.179   7.526
 4878TIP3    H136193   1.194   3.132   7.524
 4878TIP3    H236194   1.097   3.199   7.618
 4879TIP3   OH236195   1.193   3.686   0.470
 4879TIP3    H136196   1.266   3.738   0.438
 4879TIP3    H236197   1.177   3.718   0.559
 4880TIP3   OH236198   3.379   2.859   0.989
 4880TIP3    H136199   3.362   2.773   0.950
 4880TIP3    H236200   3.472   2.875   0.973
 4881TIP3   OH236201   2.125   4.234   0.029
 4881TIP3    H136202   2.099   4.175   8.671
 4881TIP3    H236203   2.154   4.175   0.098
 4882TIP3   OH236204   3.338   3.387   1.398
 4882TIP3    H136205   3.268   3.372   1.335
 4882TIP3    H236206   3.399   3.445   1.352
 4883TIP3   OH236207   0.278   3.300   8.386
 4883TIP3    H136208   0.308   3.292   8.476
 4883TIP3    H236209   0.305   3.388   8.359
 4884TIP3   OH236210   2.032   0.046   1.512
 4884TIP3    H136211   1.942   0.016   1.520
 4884TIP3    H236212   2.036   0.124   1.566
 4885TIP3   OH236213   1.930   5.709   0.948
 4885TIP3    H136214   1.959   5.801   0.950
 4885TIP3    H236215   1.857   5.708   0.886
 4886TIP3   OH236216   0.680   4.221   8.124
 4886TIP3    H136217   0.718   4.134   8.122
 4886TIP3    H236218   0.692   4.256   8.036
 4887TIP3   OH236219   1.918   3.742   7.587
 4887TIP3    H136220   1.992   3.802   7.597
 4887TIP3    H236221   1.883   3.732   7.676
 4888TIP3   OH236222   6.676   1.583   1.755
 4888TIP3    H136223   6.730   1.661   1.768
 4888TIP3    H236224   6.610   1.587   1.824
 4889TIP3   OH236225   4.150   4.676   1.567
 4889TIP3    H136226   4.236   4.684   1.525
 4889TIP3    H236227   4.123   4.586   1.549
 4890TIP3   OH236228   3.519   5.617   0.477
 4890TIP3    H136229   3.496   5.543   0.420
 4890TIP3    H236230   3.549   5.685   0.416
 4891TIP3   OH236231   6.684   4.329   7.065
 4891TIP3    H136232   6.744   4.256   7.050
 4891TIP3    H236233   6.737   4.395   7.109
 4892TIP3   OH236234   4.530   4.748   7.464
 4892TIP3    H136235   4.442   4.712   7.458
 4892TIP3    H236236   4.584   4.675   7.494
 4893TIP3   OH236237   2.195   5.070   0.169
 4893TIP3    H136238   2.256   5.120   0.114
 4893TIP3    H236239   2.143   5.020   0.106
 4894TIP3   OH236240   3.611   0.993   2.086
 4894TIP3    H136241   3.701   0.964   2.100
 4894TIP3    H236242   3.562   0.954   2.159
 4895TIP3   OH236243   5.115   2.095   8.191
 4895TIP3    H136244   5.067   2.177   8.198
 4895TIP3    H236245   5.113   2.057   8.278
 4896TIP3   OH236246   4.222   6.774   1.031
 4896TIP3    H136247   4.160   6.813   0.969
 4896TIP3    H236248   4.238   6.686   0.997
 4897TIP3   OH236249   3.455   0.055   2.473
 4897TIP3    H136250   3.360   0.051   2.478
 4897TIP3    H236251   3.476   0.147   2.491
 4898TIP3   OH236252   6.213   3.002   7.321
 4898TIP3    H136253   6.224   3.047   7.237
 4898TIP3    H236254   6.119   2.988   7.329
 4899TIP3   OH236255   0.275   4.792   8.650
 4899TIP3    H136256   0.273   4.697   8.663
 4899TIP3    H236257   0.300   4.802   8.558
 4900TIP3   OH236258   6.412   0.465   2.356
 4900TIP3    H136259   6.341   0.528   2.358
 4900TIP3    H236260   6.369   0.380   2.343
 4901TIP3   OH236261   0.615   2.536   2.023
 4901TIP3    H136262   0.595   2.617   2.069
 4901TIP3    H236263   0.700   2.552   1.981
 4902TIP3   OH236264   4.319   0.736   1.725
 4902TIP3    H136265   4.313   0.643   1.750
 4902TIP3    H236266   4.341   0.734   1.632
 4903TIP3   OH236267   3.445   1.213   0.789
 4903TIP3    H136268   3.384   1.213   0.715
 4903TIP3    H236269   3.530   1.230   0.750
 4904TIP3   OH236270   1.515   4.062   0.127
 4904TIP3    H136271   1.422   4.050   0.148
 4904TIP3    H236272   1.535   4.151   0.156
 4905TIP3   OH236273   5.018   3.984   0.792
 4905TIP3    H136274   4.986   4.002   0.881
 4905TIP3    H236275   5.111   4.006   0.795
 4906TIP3   OH236276   0.696   6.519   1.442
 4906TIP3    H136277   0.626   6.550   1.385
 4906TIP3    H236278   0.756   6.593   1.449
 4907TIP3   OH236279   2.937   3.079   7.720
 4907TIP3    H136280   2.894   3.041   7.796
 4907TIP3    H236281   2.941   3.007   7.656
 4908TIP3   OH236282   4.756   4.551   8.172
 4908TIP3    H136283   4.850   4.560   8.190
 4908TIP3    H236284   4.719   4.523   8.255
 4909TIP3   OH236285   6.319   5.786   8.097
 4909TIP3    H136286   6.276   5.771   8.013
 4909TIP3    H236287   6.271   5.732   8.159
 4910TIP3   OH236288   2.432   3.800   1.322
 4910TIP3    H136289   2.386   3.759   1.249
 4910TIP3    H236290   2.516   3.826   1.285
 4911TIP3   OH236291   4.725   4.285   0.306
 4911TIP3    H136292   4.777   4.245   0.375
 4911TIP3    H236293   4.754   4.376   0.304
 4912TIP3   OH236294   2.215   4.022   0.238
 4912TIP3    H136295   2.296   4.073   0.243
 4912TIP3    H236296   2.180   4.023   0.327
 4913TIP3   OH236297   0.596   0.109   7.741
 4913TIP3    H136298   0.537   0.131   7.669
 4913TIP3    H236299   0.585   0.179   7.805
 4914TIP3   OH236300   3.833   5.391   7.977
 4914TIP3    H136301   3.884   5.410   8.056
 4914TIP3    H236302   3.852   5.464   7.918
 4915TIP3   OH236303   2.495   4.809   8.146
 4915TIP3    H136304   2.567   4.864   8.115
 4915TIP3    H236305   2.497   4.819   8.241
 4916TIP3   OH236306   6.483   5.246   0.951
 4916TIP3    H136307   6.531   5.328   0.958
 4916TIP3    H236308   6.524   5.200   0.877
 4917TIP3   OH236309   1.991   4.269   6.162
 4917TIP3    H136310   2.018   4.218   6.239
 4917TIP3    H236311   1.898   4.287   6.177
 4918TIP3   OH236312   1.188   5.016   7.844
 4918TIP3    H136313   1.166   4.924   7.830
 4918TIP3    H236314   1.282   5.022   7.830
 4919TIP3   OH236315   1.846   6.294   6.832
 4919TIP3    H136316   1.890   6.230   6.777
 4919TIP3    H236317   1.887   6.285   6.918
 4920TIP3   OH236318   2.988   6.357   8.328
 4920TIP3    H136319   3.081   6.349   8.306
 4920TIP3    H236320   2.954   6.424   8.269
 4921TIP3   OH236321   5.555   0.466   1.055
 4921TIP3    H136322   5.609   0.529   1.007
 4921TIP3    H236323   5.487   0.519   1.097
 4922TIP3   OH236324   1.223   2.326   6.804
 4922TIP3    H136325   1.306   2.369   6.825
 4922TIP3    H236326   1.198   2.364   6.719
 4923TIP3   OH236327   2.834   2.309   2.333
 4923TIP3    H136328   2.840   2.385   2.275
 4923TIP3    H236329   2.885   2.241   2.290
 4924TIP3   OH236330   4.490   4.834   8.291
 4924TIP3    H136331   4.415   4.778   8.268
 4924TIP3    H236332   4.472   4.916   8.246
 4925TIP3   OH236333   6.300   0.161   7.433
 4925TIP3    H136334   6.252   0.155   7.350
 4925TIP3    H236335   6.255   0.100   7.492
 4926TIP3   OH236336   5.876   5.817   7.441
 4926TIP3    H136337   5.961   5.824   7.397
 4926TIP3    H236338   5.812   5.826   7.370
 4927TIP3   OH236339   1.996   2.486   2.387
 4927TIP3    H136340   1.944   2.506   2.465
 4927TIP3    H236341   2.061   2.422   2.418
 4928TIP3   OH236342   1.586   5.242   0.127
 4928TIP3    H136343   1.663   5.299   0.121
 4928TIP3    H236344   1.573   5.228   0.221
 4929TIP3   OH236345   1.611   5.533   1.048
 4929TIP3    H136346   1.617   5.581   0.965
 4929TIP3    H236347   1.565   5.452   1.025
 4930TIP3   OH236348   6.693   4.116   1.496
 4930TIP3    H136349   6.690   4.209   1.478
 4930TIP3    H236350   6.762   4.107   1.562
 4931TIP3   OH236351   6.834   3.178   0.852
 4931TIP3    H136352   0.052   3.139   0.806
 4931TIP3    H236353   6.786   3.104   0.887
 4932TIP3   OH236354   0.320   0.258   1.093
 4932TIP3    H136355   0.398   0.293   1.136
 4932TIP3    H236356   0.253   0.257   1.161
 4933TIP3   OH236357   6.729   3.370   2.147
 4933TIP3    H136358   6.786   3.308   2.102
 4933TIP3    H236359   6.699   3.429   2.078
 4934TIP3   OH236360   4.204   2.420   7.329
 4934TIP3    H136361   4.297   2.397   7.329
 4934TIP3    H236362   4.171   2.386   7.411
 4935TIP3   OH236363   1.117   4.243   6.210
 4935TIP3    H136364   1.101   4.151   6.231
 4935TIP3    H236365   1.164   4.240   6.127
 4936TIP3   OH236366   3.644   0.234   8.690
 4936TIP3    H136367   3.610   0.320   8.712
 4936TIP3    H236368   3.571   0.190   8.645
 4937TIP3   OH236369   3.448   4.983   8.029
 4937TIP3    H136370   3.397   4.997   7.949
 4937TIP3    H236371   3.534   5.020   8.010
 4938TIP3   OH236372   4.308   0.609   1.221
 4938TIP3    H136373   4.379   0.548   1.202
 4938TIP3    H236374   4.300   0.661   1.142
 4939TIP3   OH236375   1.036   6.596   7.242
 4939TIP3    H136376   0.958   6.642   7.211
 4939TIP3    H236377   1.084   6.662   7.292
 4940TIP3   OH236378   0.290   1.449   8.566
 4940TIP3    H136379   0.353   1.377   8.567
 4940TIP3    H236380   0.299   1.487   8.479
 4941TIP3   OH236381   6.378   4.147   1.255
 4941TIP3    H136382   6.401   4.238   1.239
 4941TIP3    H236383   6.368   4.141   1.350
 4942TIP3   OH236384   3.604   6.578   8.228
 4942TIP3    H136385   3.564   6.517   8.167
 4942TIP3    H236386   3.542   6.582   8.302
 4943TIP3   OH236387   2.584   6.392   0.089
 4943TIP3    H136388   2.505   6.402   0.035
 4943TIP3    H236389   2.551   6.386   0.179
 4944TIP3   OH236390   4.038   4.128   8.450
 4944TIP3    H136391   4.016   4.098   8.362
 4944TIP3    H236392   3.999   4.062   8.508
 4945TIP3   OH236393   1.607   1.419   0.831
 4945TIP3    H136394   1.550   1.443   0.904
 4945TIP3    H236395   1.685   1.382   0.873
 4946TIP3   OH236396   0.767   3.905   0.506
 4946TIP3    H136397   0.755   3.833   0.568
 4946TIP3    H236398   0.680   3.941   0.492
 4947TIP3   OH236399   2.436   0.729   7.993
 4947TIP3    H136400   2.505   0.789   7.965
 4947TIP3    H236401   2.465   0.643   7.963
 4948TIP3   OH236402   6.751   2.270   7.749
 4948TIP3    H136403   6.807   2.229   7.815
 4948TIP3    H236404   6.663   2.267   7.786
 4949TIP3   OH236405   1.667   5.904   0.927
 4949TIP3    H136406   1.704   5.869   1.008
 4949TIP3    H236407   1.581   5.939   0.953
 4950TIP3   OH236408   3.494   0.128   7.190
 4950TIP3    H136409   3.532   0.211   7.162
 4950TIP3    H236410   3.554   0.061   7.156
 4951TIP3   OH236411   3.051   4.986   7.194
 4951TIP3    H136412   3.091   5.019   7.275
 4951TIP3    H236413   3.053   4.891   7.205
 4952TIP3   OH236414   0.099   3.310   6.888
 4952TIP3    H136415   0.151   3.254   6.945
 4952TIP3    H236416   0.027   3.340   6.943
 4953TIP3   OH236417   4.197   1.198   7.991
 4953TIP3    H136418   4.206   1.281   7.945
 4953TIP3    H236419   4.280   1.154   7.978
 4954TIP3   OH236420   1.497   4.995   8.053
 4954TIP3    H136421   1.565   5.012   8.119
 4954TIP3    H236422   1.476   4.902   8.063
 4955TIP3   OH236423   6.715   2.958   0.966
 4955TIP3    H136424   6.718   3.006   1.048
 4955TIP3    H236425   6.634   2.987   0.924
 4956TIP3   OH236426   3.214   0.104   1.116
 4956TIP3    H136427   3.245   0.062   1.196
 4956TIP3    H236428   3.234   0.042   1.046
 4957TIP3   OH236429   1.556   1.717   8.545
 4957TIP3    H136430   1.563   1.694   8.452
 4957TIP3    H236431   1.644   1.701   8.579
 4958TIP3   OH236432   4.369   3.221   0.191
 4958TIP3    H136433   4.379   3.232   0.285
 4958TIP3    H236434   4.333   3.133   0.180
 4959TIP3   OH236435   1.677   5.287   1.875
 4959TIP3    H136436   1.636   5.204   1.897
 4959TIP3    H236437   1.704   5.324   1.959
 4960TIP3   OH236438   2.646   5.452   1.375
 4960TIP3    H136439   2.621   5.507   1.449
 4960TIP3    H236440   2.572   5.456   1.316
 4961TIP3   OH236441   2.607   1.011   0.614
 4961TIP3    H136442   2.539   1.038   0.551
 4961TIP3    H236443   2.558   0.977   0.689
 4962TIP3   OH236444   1.729   4.879   1.517
 4962TIP3    H136445   1.709   4.969   1.494
 4962TIP3    H236446   1.814   4.861   1.475
 4963TIP3   OH236447   0.264   0.575   7.900
 4963TIP3    H136448   0.306   0.490   7.906
 4963TIP3    H236449   0.255   0.592   7.806
 4964TIP3   OH236450   3.040   0.195   1.919
 4964TIP3    H136451   3.065   0.252   1.847
 4964TIP3    H236452   3.101   0.121   1.915
 4965TIP3   OH236453   1.766   1.055   8.642
 4965TIP3    H136454   1.821   1.129   8.669
 4965TIP3    H236455   1.819   1.008   8.578
 4966TIP3   OH236456   1.049   3.759   8.705
 4966TIP3    H136457   1.038   3.766   0.086
 4966TIP3    H236458   1.129   3.808   8.686
 4967TIP3   OH236459   5.358   5.419   1.624
 4967TIP3    H136460   5.326   5.331   1.603
 4967TIP3    H236461   5.331   5.473   1.550
 4968TIP3   OH236462   3.067   6.306   7.996
 4968TIP3    H136463   3.106   6.265   8.073
 4968TIP3    H236464   3.020   6.382   8.031
 4969TIP3   OH236465   4.950   6.292   8.079
 4969TIP3    H136466   4.999   6.371   8.105
 4969TIP3    H236467   5.016   6.223   8.078
 4970TIP3   OH236468   5.814   6.334   1.846
 4970TIP3    H136469   5.729   6.321   1.804
 4970TIP3    H236470   5.837   6.247   1.880
 4971TIP3   OH236471   0.118   6.438   6.923
 4971TIP3    H136472   0.081   6.518   6.886
 4971TIP3    H236473   0.042   6.392   6.959
 4972TIP3   OH236474   5.331   2.594   8.637
 4972TIP3    H136475   5.412   2.595   8.585
 4972TIP3    H236476   5.360   2.616   0.012
 4973TIP3   OH236477   2.746   1.688   0.348
 4973TIP3    H136478   2.834   1.722   0.331
 4973TIP3    H236479   2.739   1.686   0.443
 4974TIP3   OH236480   0.816   0.981   1.207
 4974TIP3    H136481   0.780   0.955   1.122
 4974TIP3    H236482   0.739   0.988   1.264
 4975TIP3   OH236483   1.607   4.850   7.255
 4975TIP3    H136484   1.683   4.906   7.240
 4975TIP3    H236485   1.540   4.909   7.290
 4976TIP3   OH236486   2.639   1.358   8.413
 4976TIP3    H136487   2.649   1.446   8.449
 4976TIP3    H236488   2.702   1.305   8.462
 4977TIP3   OH236489   5.557   0.415   6.853
 4977TIP3    H136490   5.538   0.427   6.760
 4977TIP3    H236491   5.635   0.359   6.854
 4978TIP3   OH236492   2.988   2.044   7.988
 4978TIP3    H136493   3.032   2.126   8.010
 4978TIP3    H236494   3.017   2.023   7.900
 4979TIP3   OH236495   1.007   3.595   8.363
 4979TIP3    H136496   1.053   3.523   8.406
 4979TIP3    H236497   0.926   3.605   8.413
 4980TIP3   OH236498   0.049   4.485   7.176
 4980TIP3    H136499   0.086   4.446   7.254
 4980TIP3    H236500   0.091   4.439   7.103
 4981TIP3   OH236501   1.404   0.593   1.262
 4981TIP3    H136502   1.314   0.587   1.232
 4981TIP3    H236503   1.455   0.614   1.183
 4982TIP3   OH236504   2.348   1.424   2.053
 4982TIP3    H136505   2.400   1.344   2.060
 4982TIP3    H236506   2.413   1.495   2.055
 4983TIP3   OH236507   4.022   4.137   2.183
 4983TIP3    H136508   4.064   4.222   2.166
 4983TIP3    H236509   3.931   4.159   2.202
 4984TIP3   OH236510   5.195   1.681   7.543
 4984TIP3    H136511   5.180   1.775   7.546
 4984TIP3    H236512   5.230   1.659   7.629
 4985TIP3   OH236513   0.694   0.250   1.696
 4985TIP3    H136514   0.763   0.197   1.736
 4985TIP3    H236515   0.735   0.336   1.683
 4986TIP3   OH236516   0.606   4.422   0.743
 4986TIP3    H136517   0.522   4.389   0.712
 4986TIP3    H236518   0.585   4.503   0.790
 4987TIP3   OH236519   6.709   3.176   7.969
 4987TIP3    H136520   6.742   3.099   8.014
 4987TIP3    H236521   6.615   3.160   7.960
 4988TIP3   OH236522   5.876   5.294   0.297
 4988TIP3    H136523   5.902   5.203   0.305
 4988TIP3    H236524   5.886   5.330   0.385
 4989TIP3   OH236525   2.220   6.039   0.269
 4989TIP3    H136526   2.147   6.033   0.331
 4989TIP3    H236527   2.196   6.110   0.210
 4990TIP3   OH236528   4.676   5.411   6.513
 4990TIP3    H136529   4.746   5.450   6.461
 4990TIP3    H236530   4.722   5.367   6.585
 4991TIP3   OH236531   5.415   5.717   8.284
 4991TIP3    H136532   5.460   5.796   8.253
 4991TIP3    H236533   5.473   5.646   8.260
 4992TIP3   OH236534   3.611   2.729   6.634
 4992TIP3    H136535   3.608   2.645   6.587
 4992TIP3    H236536   3.527   2.769   6.616
 4993TIP3   OH236537   4.300   1.949   1.523
 4993TIP3    H136538   4.304   2.019   1.588
 4993TIP3    H236539   4.207   1.926   1.519
 4994TIP3   OH236540   5.908   5.359   7.486
 4994TIP3    H136541   5.907   5.284   7.426
 4994TIP3    H236542   5.816   5.384   7.495
 4995TIP3   OH236543   6.663   0.645   2.156
 4995TIP3    H136544   6.688   0.651   2.248
 4995TIP3    H236545   6.586   0.701   2.149
 4996TIP3   OH236546   2.933   5.996   8.527
 4996TIP3    H136547   2.907   6.049   8.451
 4996TIP3    H236548   2.868   6.017   8.594
 4997TIP3   OH236549   3.484   1.451   0.926
 4997TIP3    H136550   3.535   1.524   0.891
 4997TIP3    H236551   3.489   1.383   0.859
 4998TIP3   OH236552   1.983   0.869   8.683
 4998TIP3    H136553   1.953   0.933   0.034
 4998TIP3    H236554   2.040   0.810   0.019
 4999TIP3   OH236555   3.611   4.871   6.274
 4999TIP3    H136556   3.526   4.847   6.238
 4999TIP3    H236557   3.669   4.799   6.249
 5000TIP3   OH236558   0.174   4.325   0.394
 5000TIP3    H136559   0.261   4.337   0.355
 5000TIP3    H236560   0.190   4.313   0.487
 5001TIP3   OH236561   3.207   3.102   8.232
 5001TIP3    H136562   3.210   3.079   8.140
 5001TIP3    H236563   3.261   3.036   8.276
 5002TIP3   OH236564   1.825   4.106   0.990
 5002TIP3    H136565   1.887   4.095   0.919
 5002TIP3    H236566   1.873   4.155   1.057
 5003TIP3   OH236567   5.244   1.183   0.369
 5003TIP3    H136568   5.164   1.132   0.377
 5003TIP3    H236569   5.300   1.132   0.311
 5004TIP3   OH236570   0.353   2.941   6.657
 5004TIP3    H136571   0.373   3.033   6.672
 5004TIP3    H236572   0.411   2.894   6.716
 5005TIP3   OH236573   2.720   1.602   0.630
 5005TIP3    H136574   2.679   1.530   0.678
 5005TIP3    H236575   2.655   1.672   0.632
 5006TIP3   OH236576   6.468   1.458   8.695
 5006TIP3    H136577   6.547   1.441   0.034
 5006TIP3    H236578   6.430   1.372   8.679
 5007TIP3   OH236579   3.631   1.788   0.539
 5007TIP3    H136580   3.722   1.784   0.565
 5007TIP3    H236581   3.633   1.791   0.443
 5008TIP3   OH236582   2.493   4.610   1.048
 5008TIP3    H136583   2.496   4.685   0.989
 5008TIP3    H236584   2.576   4.614   1.096
 5009TIP3   OH236585   5.188   2.028   6.858
 5009TIP3    H136586   5.280   2.006   6.845
 5009TIP3    H236587   5.144   1.943   6.866
 5010TIP3   OH236588   6.085   5.621   0.332
 5010TIP3    H136589   6.103   5.669   0.252
 5010TIP3    H236590   6.085   5.688   0.401
 5011TIP3   OH236591   2.475   4.323   8.364
 5011TIP3    H136592   2.486   4.390   8.297
 5011TIP3    H236593   2.529   4.353   8.437
 5012TIP3   OH236594   1.162   1.443   8.016
 5012TIP3    H136595   1.083   1.450   7.961
 5012TIP3    H236596   1.173   1.349   8.029
 5013TIP3   OH236597   5.626   5.932   7.850
 5013TIP3    H136598   5.601   5.849   7.892
 5013TIP3    H236599   5.678   5.977   7.916
 5014TIP3   OH236600   4.863   3.491   7.752
 5014TIP3    H136601   4.789   3.481   7.812
 5014TIP3    H236602   4.924   3.422   7.777
 5015TIP3   OH236603   3.494   2.188   1.532
 5015TIP3    H136604   3.412   2.142   1.549
 5015TIP3    H236605   3.508   2.179   1.438
 5016TIP3   OH236606   5.763   4.333   6.302
 5016TIP3    H136607   5.804   4.255   6.267
 5016TIP3    H236608   5.809   4.406   6.261
 5017TIP3   OH236609   5.220   4.523   7.568
 5017TIP3    H136610   5.244   4.586   7.635
 5017TIP3    H236611   5.272   4.548   7.491
 5018TIP3   OH236612   1.417   4.037   8.263
 5018TIP3    H136613   1.502   4.004   8.294
 5018TIP3    H236614   1.359   3.961   8.270
 5019TIP3   OH236615   1.943   4.880   1.336
 5019TIP3    H136616   1.914   4.797   1.298
 5019TIP3    H236617   2.038   4.880   1.324
 5020TIP3   OH236618   2.612   4.209   0.711
 5020TIP3    H136619   2.544   4.242   0.652
 5020TIP3    H236620   2.662   4.147   0.658
 5021TIP3   OH236621   3.985   2.578   8.372
 5021TIP3    H136622   3.976   2.645   8.439
 5021TIP3    H236623   4.048   2.613   8.310
 5022TIP3   OH236624   1.262   1.117   1.335
 5022TIP3    H136625   1.346   1.159   1.317
 5022TIP3    H236626   1.218   1.176   1.397
 5023TIP3   OH236627   4.557   0.219   2.259
 5023TIP3    H136628   4.612   0.285   2.218
 5023TIP3    H236629   4.500   0.188   2.188
 5024TIP3   OH236630   5.791   3.472   6.564
 5024TIP3    H136631   5.709   3.445   6.604
 5024TIP3    H236632   5.853   3.402   6.586
 5025TIP3   OH236633   5.699   3.116   1.464
 5025TIP3    H136634   5.745   3.188   1.420
 5025TIP3    H236635   5.609   3.123   1.432
 5026TIP3   OH236636   6.044   0.280   0.184
 5026TIP3    H136637   6.057   0.186   0.196
 5026TIP3    H236638   5.977   0.303   0.248
 5027TIP3   OH236639   5.169   6.419   0.436
 5027TIP3    H136640   5.212   6.385   0.514
 5027TIP3    H236641   5.230   6.402   0.365
 5028TIP3   OH236642   0.501   6.605   1.268
 5028TIP3    H136643   0.478   6.594   1.176
 5028TIP3    H236644   0.428   6.655   1.305
 5029TIP3   OH236645   2.253   1.051   6.939
 5029TIP3    H136646   2.174   1.095   6.969
 5029TIP3    H236647   2.322   1.085   6.995
 5030TIP3   OH236648   4.372   0.158   2.008
 5030TIP3    H136649   4.400   0.070   2.036
 5030TIP3    H236650   4.281   0.147   1.980
 5031TIP3   OH236651   1.596   0.187   0.918
 5031TIP3    H136652   1.654   0.224   0.851
 5031TIP3    H236653   1.508   0.211   0.889
 5032TIP3   OH236654   1.670   2.716   0.227
 5032TIP3    H136655   1.615   2.702   0.150
 5032TIP3    H236656   1.624   2.672   0.298
 5033TIP3   OH236657   2.139   3.879   1.989
 5033TIP3    H136658   2.190   3.960   1.989
 5033TIP3    H236659   2.164   3.834   2.070
 5034TIP3   OH236660   6.844   4.287   8.426
 5034TIP3    H136661   6.803   4.370   8.402
 5034TIP3    H236662   0.070   4.313   8.468
 5035TIP3   OH236663   2.884   6.495   2.092
 5035TIP3    H136664   2.805   6.488   2.146
 5035TIP3    H236665   2.857   6.547   2.017
 5036TIP3   OH236666   1.320   2.179   8.277
 5036TIP3    H136667   1.396   2.123   8.289
 5036TIP3    H236668   1.250   2.119   8.249
 5037TIP3   OH236669   1.333   4.048   6.193
 5037TIP3    H136670   1.259   4.080   6.243
 5037TIP3    H236671   1.306   3.961   6.162
 5038TIP3   OH236672   1.251   4.237   8.010
 5038TIP3    H136673   1.302   4.156   8.009
 5038TIP3    H236674   1.300   4.296   7.952
 5039TIP3   OH236675   6.541   3.820   6.348
 5039TIP3    H136676   6.453   3.840   6.316
 5039TIP3    H236677   6.564   3.737   6.305
 5040TIP3   OH236678   6.072   2.491   0.793
 5040TIP3    H136679   6.101   2.524   0.708
 5040TIP3    H236680   5.978   2.506   0.794
 5041TIP3   OH236681   3.657   2.241   1.017
 5041TIP3    H136682   3.747   2.250   1.050
 5041TIP3    H236683   3.668   2.223   0.924
 5042TIP3   OH236684   1.558   0.663   8.631
 5042TIP3    H136685   1.596   0.714   8.703
 5042TIP3    H236686   1.610   0.687   8.555
 5043TIP3   OH236687   6.853   0.195   7.933
 5043TIP3    H136688   6.845   0.282   7.972
 5043TIP3    H236689   0.002   0.135   8.008
 5044TIP3   OH236690   0.650   5.875   1.562
 5044TIP3    H136691   0.654   5.935   1.636
 5044TIP3    H236692   0.699   5.918   1.492
 5045TIP3   OH236693   5.505   5.704   7.918
 5045TIP3    H136694   5.449   5.665   7.852
 5045TIP3    H236695   5.560   5.632   7.949
 5046TIP3   OH236696   1.988   0.344   6.268
 5046TIP3    H136697   2.075   0.313   6.294
 5046TIP3    H236698   1.941   0.264   6.245
 5047TIP3   OH236699   4.160   4.487   6.516
 5047TIP3    H136700   4.104   4.557   6.549
 5047TIP3    H236701   4.246   4.528   6.505
 5048TIP3   OH236702   2.483   2.857   8.269
 5048TIP3    H136703   2.455   2.913   8.197
 5048TIP3    H236704   2.521   2.917   8.332
 5049TIP3   OH236705   2.875   4.871   1.181
 5049TIP3    H136706   2.891   4.960   1.211
 5049TIP3    H236707   2.947   4.852   1.120
 5050TIP3   OH236708   3.498   0.731   8.265
 5050TIP3    H136709   3.470   0.642   8.283
 5050TIP3    H236710   3.594   0.727   8.265
 5051TIP3   OH236711   2.949   2.704   7.309
 5051TIP3    H136712   2.873   2.719   7.253
 5051TIP3    H236713   2.954   2.609   7.317
 5052TIP3   OH236714   6.014   2.333   1.348
 5052TIP3    H136715   6.038   2.242   1.330
 5052TIP3    H236716   6.001   2.371   1.261
 5053TIP3   OH236717   4.917   0.507   0.153
 5053TIP3    H136718   4.848   0.567   0.181
 5053TIP3    H236719   4.889   0.422   0.186
 5054TIP3   OH236720   0.200   6.458   7.313
 5054TIP3    H136721   0.248   6.515   7.254
 5054TIP3    H236722   0.153   6.517   7.372
 5055TIP3   OH236723   5.831   3.573   0.482
 5055TIP3    H136724   5.919   3.586   0.445
 5055TIP3    H236725   5.831   3.484   0.514
 5056TIP3   OH236726   3.169   3.474   7.613
 5056TIP3    H136727   3.249   3.493   7.565
 5056TIP3    H236728   3.186   3.390   7.656
 5057TIP3   OH236729   3.309   0.847   1.386
 5057TIP3    H136730   3.360   0.918   1.348
 5057TIP3    H236731   3.247   0.891   1.445
 5058TIP3   OH236732   4.471   1.363   7.126
 5058TIP3    H136733   4.550   1.337   7.173
 5058TIP3    H236734   4.497   1.363   7.034
 5059TIP3   OH236735   3.070   1.314   0.029
 5059TIP3    H136736   3.054   1.352   0.115
 5059TIP3    H236737   3.120   1.234   0.048
 5060TIP3   OH236738   4.009   4.567   7.360
 5060TIP3    H136739   4.019   4.661   7.377
 5060TIP3    H236740   3.943   4.538   7.422
 5061TIP3   OH236741   4.404   1.080   7.819
 5061TIP3    H136742   4.337   1.102   7.754
 5061TIP3    H236743   4.428   0.989   7.799
 5062TIP3   OH236744   5.982   4.094   0.575
 5062TIP3    H136745   6.051   4.050   0.624
 5062TIP3    H236746   5.927   4.135   0.642
 5063TIP3   OH236747   2.776   0.805   7.156
 5063TIP3    H136748   2.804   0.893   7.129
 5063TIP3    H236749   2.772   0.755   7.074
 5064TIP3   OH236750   4.642   6.306   8.365
 5064TIP3    H136751   4.726   6.353   8.363
 5064TIP3    H236752   4.578   6.373   8.391
 5065TIP3   OH236753   4.859   4.620   0.994
 5065TIP3    H136754   4.901   4.558   0.935
 5065TIP3    H236755   4.857   4.574   1.079
 5066TIP3   OH236756   1.979   1.515   7.586
 5066TIP3    H136757   1.913   1.584   7.590
 5066TIP3    H236758   2.017   1.523   7.499
 5067TIP3   OH236759   2.243   0.384   0.076
 5067TIP3    H136760   2.232   0.290   0.067
 5067TIP3    H236761   2.302   0.409   0.005
 5068TIP3   OH236762   1.317   1.586   1.231
 5068TIP3    H136763   1.381   1.654   1.210
 5068TIP3    H236764   1.323   1.576   1.326
 5069TIP3   OH236765   4.357   1.500   0.819
 5069TIP3    H136766   4.272   1.529   0.786
 5069TIP3    H236767   4.420   1.552   0.769
 5070TIP3   OH236768   3.130   5.410   1.704
 5070TIP3    H136769   3.124   5.407   1.799
 5070TIP3    H236770   3.126   5.318   1.677
 5071TIP3   OH236771   5.263   2.150   8.600
 5071TIP3    H136772   5.205   2.121   8.529
 5071TIP3    H236773   5.205   2.158   8.676
 5072TIP3   OH236774   0.470   0.124   0.594
 5072TIP3    H136775   0.506   0.212   0.598
 5072TIP3    H236776   0.487   0.086   0.680
 5073TIP3   OH236777   3.580   0.991   0.527
 5073TIP3    H136778   3.597   1.071   0.477
 5073TIP3    H236779   3.631   0.924   0.482
 5074TIP3   OH236780   6.838   1.468   7.355
 5074TIP3    H136781   6.850   1.516   7.273
 5074TIP3    H236782   0.004   1.531   7.423
 5075TIP3   OH236783   6.707   6.551   2.565
 5075TIP3    H136784   6.710   6.633   2.616
 5075TIP3    H236785   6.799   6.527   2.554
 5076TIP3   OH236786   2.347   6.534   7.011
 5076TIP3    H136787   2.322   6.491   6.929
 5076TIP3    H236788   2.350   6.463   7.075
 5077TIP3   OH236789   2.170   5.598   1.006
 5077TIP3    H136790   2.092   5.653   0.996
 5077TIP3    H236791   2.137   5.515   1.041
 5078TIP3   OH236792   6.227   6.486   8.303
 5078TIP3    H136793   6.169   6.411   8.293
 5078TIP3    H236794   6.215   6.536   8.222
 5079TIP3   OH236795   0.477   4.151   8.591
 5079TIP3    H136796   0.520   4.096   8.525
 5079TIP3    H236797   0.397   4.182   8.549
 5080TIP3   OH236798   3.482   5.953   7.676
 5080TIP3    H136799   3.508   5.956   7.584
 5080TIP3    H236800   3.450   6.042   7.694
 5081TIP3   OH236801   4.790   2.026   6.357
 5081TIP3    H136802   4.869   2.076   6.379
 5081TIP3    H236803   4.823   1.940   6.331
 5082TIP3   OH236804   1.971   4.678   2.076
 5082TIP3    H136805   1.890   4.723   2.099
 5082TIP3    H236806   2.035   4.711   2.138
 5083TIP3   OH236807   4.297   0.518   8.701
 5083TIP3    H136808   4.361   0.567   8.650
 5083TIP3    H236809   4.250   0.465   8.636
 5084TIP3   OH236810   0.851   4.337   8.699
 5084TIP3    H136811   0.928   4.307   0.035
 5084TIP3    H236812   0.860   4.432   8.695
 5085TIP3   OH236813   3.483   5.281   8.602
 5085TIP3    H136814   3.489   5.364   8.554
 5085TIP3    H236815   3.389   5.263   8.609
 5086TIP3   OH236816   5.886   6.819   2.083
 5086TIP3    H136817   5.792   6.807   2.070
 5086TIP3    H236818   5.911   0.028   2.018
 5087TIP3   OH236819   2.800   3.179   8.348
 5087TIP3    H136820   2.888   3.198   8.381
 5087TIP3    H236821   2.791   3.234   8.270
 5088TIP3   OH236822   2.297   5.902   0.928
 5088TIP3    H136823   2.307   5.908   0.833
 5088TIP3    H236824   2.210   5.938   0.945
 5089TIP3   OH236825   6.370   3.228   0.139
 5089TIP3    H136826   6.409   3.305   0.097
 5089TIP3    H236827   6.277   3.250   0.146
 5090TIP3   OH236828   4.265   4.080   7.888
 5090TIP3    H136829   4.215   4.128   7.954
 5090TIP3    H236830   4.299   4.003   7.934
 5091TIP3   OH236831   1.481   4.589   7.639
 5091TIP3    H136832   1.434   4.586   7.556
 5091TIP3    H236833   1.570   4.562   7.618
 5092TIP3   OH236834   4.507   0.185   6.783
 5092TIP3    H136835   4.536   0.255   6.842
 5092TIP3    H236836   4.423   0.215   6.749
 5093TIP3   OH236837   0.635   6.704   1.640
 5093TIP3    H136838   0.603   6.774   1.583
 5093TIP3    H236839   0.607   6.623   1.597
 5094TIP3   OH236840   0.995   6.502   6.675
 5094TIP3    H136841   0.933   6.470   6.609
 5094TIP3    H236842   0.939   6.544   6.741
 5095TIP3   OH236843   4.960   3.236   0.454
 5095TIP3    H136844   4.887   3.178   0.434
 5095TIP3    H236845   4.923   3.323   0.454
 5096TIP3   OH236846   3.252   3.314   0.636
 5096TIP3    H136847   3.269   3.321   0.730
 5096TIP3    H236848   3.164   3.351   0.625
 5097TIP3   OH236849   5.119   2.360   2.032
 5097TIP3    H136850   5.076   2.442   2.058
 5097TIP3    H236851   5.136   2.371   1.938
 5098TIP3   OH236852   4.516   1.328   6.871
 5098TIP3    H136853   4.566   1.339   6.790
 5098TIP3    H236854   4.450   1.262   6.849
 5099TIP3   OH236855   3.676   0.020   2.016
 5099TIP3    H136856   3.763   6.854   1.983
 5099TIP3    H236857   3.615   6.832   1.958
 5100TIP3   OH236858   1.757   2.223   7.981
 5100TIP3    H136859   1.812   2.290   8.022
 5100TIP3    H236860   1.817   2.176   7.922
 5101TIP3   OH236861   3.877   5.686   1.472
 5101TIP3    H136862   3.809   5.624   1.497
 5101TIP3    H236863   3.934   5.691   1.548
 5102TIP3   OH236864   0.097   6.237   1.766
 5102TIP3    H136865   0.122   6.160   1.817
 5102TIP3    H236866   0.023   6.275   1.813
 5103TIP3   OH236867   6.200   2.263   6.401
 5103TIP3    H136868   6.252   2.340   6.377
 5103TIP3    H236869   6.265   2.196   6.422
 5104TIP3   OH236870   3.298   6.088   0.570
 5104TIP3    H136871   3.282   6.181   0.554
 5104TIP3    H236872   3.356   6.086   0.646
 5105TIP3   OH236873   0.541   2.907   0.751
 5105TIP3    H136874   0.587   2.984   0.786
 5105TIP3    H236875   0.598   2.875   0.681
 5106TIP3   OH236876   4.670   6.829   1.106
 5106TIP3    H136877   4.645   6.738   1.092
 5106TIP3    H236878   4.607   0.005   1.170
 5107TIP3   OH236879   2.786   5.847   6.450
 5107TIP3    H136880   2.774   5.942   6.456
 5107TIP3    H236881   2.880   5.835   6.442
 5108TIP3   OH236882   4.255   3.679   6.866
 5108TIP3    H136883   4.348   3.656   6.857
 5108TIP3    H236884   4.239   3.742   6.796
 5109TIP3   OH236885   1.522   5.747   8.403
 5109TIP3    H136886   1.551   5.659   8.379
 5109TIP3    H236887   1.463   5.734   8.477
 5110TIP3   OH236888   0.711   3.383   8.420
 5110TIP3    H136889   0.749   3.464   8.454
 5110TIP3    H236890   0.737   3.316   8.483
 5111TIP3   OH236891   6.567   2.875   7.145
 5111TIP3    H136892   6.512   2.949   7.119
 5111TIP3    H236893   6.649   2.916   7.175
 5112TIP3   OH236894   4.371   5.831   7.186
 5112TIP3    H136895   4.418   5.854   7.266
 5112TIP3    H236896   4.364   5.735   7.190
 5113TIP3   OH236897   0.412   1.584   1.262
 5113TIP3    H136898   0.446   1.672   1.242
 5113TIP3    H236899   0.423   1.535   1.181
 5114TIP3   OH236900   4.078   5.616   7.971
 5114TIP3    H136901   3.999   5.640   7.923
 5114TIP3    H236902   4.052   5.616   8.063
 5115TIP3   OH236903   6.685   4.244   0.443
 5115TIP3    H136904   6.699   4.334   0.414
 5115TIP3    H236905   6.645   4.252   0.530
 5116TIP3   OH236906   3.248   6.311   8.272
 5116TIP3    H136907   3.311   6.363   8.221
 5116TIP3    H236908   3.302   6.250   8.322
 5117TIP3   OH236909   5.275   1.166   0.721
 5117TIP3    H136910   5.323   1.178   0.803
 5117TIP3    H236911   5.227   1.248   0.710
 5118TIP3   OH236912   3.379   1.906   7.122
 5118TIP3    H136913   3.346   1.996   7.116
 5118TIP3    H236914   3.306   1.856   7.157
 5119TIP3   OH236915   2.623   1.828   7.896
 5119TIP3    H136916   2.530   1.804   7.893
 5119TIP3    H236917   2.665   1.757   7.945
 5120TIP3   OH236918   5.624   0.459   7.214
 5120TIP3    H136919   5.718   0.444   7.229
 5120TIP3    H236920   5.618   0.553   7.198
 5121TIP3   OH236921   3.898   2.075   1.941
 5121TIP3    H136922   3.925   2.130   2.015
 5121TIP3    H236923   3.873   2.137   1.873
 5122TIP3   OH236924   2.835   4.766   0.136
 5122TIP3    H136925   2.913   4.731   0.178
 5122TIP3    H236926   2.768   4.699   0.150
 5123TIP3   OH236927   3.441   4.528   8.230
 5123TIP3    H136928   3.521   4.565   8.194
 5123TIP3    H236929   3.416   4.459   8.168
 5124TIP3   OH236930   5.789   4.885   6.931
 5124TIP3    H136931   5.838   4.876   6.849
 5124TIP3    H236932   5.701   4.852   6.910
 5125TIP3   OH236933   5.518   4.535   7.748
 5125TIP3    H136934   5.544   4.626   7.736
 5125TIP3    H236935   5.535   4.495   7.663
 5126TIP3   OH236936   2.876   6.680   7.384
 5126TIP3    H136937   2.808   6.624   7.347
 5126TIP3    H236938   2.835   6.722   7.459
 5127TIP3   OH236939   4.630   5.076   8.620
 5127TIP3    H136940   4.676   5.012   8.675
 5127TIP3    H236941   4.663   5.059   8.532
 5128TIP3   OH236942   3.336   3.800   0.154
 5128TIP3    H136943   3.425   3.795   0.119
 5128TIP3    H236944   3.328   3.723   0.210
 5129TIP3   OH236945   5.103   1.121   6.845
 5129TIP3    H136946   5.188   1.137   6.803
 5129TIP3    H236947   5.078   1.206   6.881
 5130TIP3   OH236948   6.597   0.575   6.903
 5130TIP3    H136949   6.623   0.664   6.880
 5130TIP3    H236950   6.623   0.566   6.995
 5131TIP3   OH236951   2.567   5.006   0.417
 5131TIP3    H136952   2.524   5.006   0.502
 5131TIP3    H236953   2.612   4.922   0.412
 5132TIP3   OH236954   0.250   6.181   8.028
 5132TIP3    H136955   0.272   6.137   7.946
 5132TIP3    H236956   0.162   6.152   8.048
 5133TIP3   OH236957   2.575   1.078   8.526
 5133TIP3    H136958   2.525   1.159   8.534
 5133TIP3    H236959   2.509   1.010   8.512
 5134TIP3   OH236960   1.584   1.414   6.832
 5134TIP3    H136961   1.494   1.381   6.841
 5134TIP3    H236962   1.633   1.367   6.900
 5135TIP3   OH236963   1.187   1.317   7.579
 5135TIP3    H136964   1.146   1.243   7.533
 5135TIP3    H236965   1.280   1.296   7.579
 5136TIP3   OH236966   5.281   6.785   1.535
 5136TIP3    H136967   5.230   6.794   1.616
 5136TIP3    H236968   5.223   6.739   1.475
 5137TIP3   OH236969   4.474   6.787   1.297
 5137TIP3    H136970   4.412   6.714   1.296
 5137TIP3    H236971   4.462   6.828   1.383
 5138TIP3   OH236972   0.737   2.252   7.853
 5138TIP3    H136973   0.653   2.224   7.890
 5138TIP3    H236974   0.714   2.306   7.778
 5139TIP3   OH236975   1.936   3.470   8.088
 5139TIP3    H136976   2.002   3.538   8.072
 5139TIP3    H236977   1.976   3.413   8.154
 5140TIP3   OH236978   3.205   5.535   8.056
 5140TIP3    H136979   3.294   5.504   8.039
 5140TIP3    H236980   3.165   5.540   7.969
 5141TIP3   OH236981   4.059   3.432   6.408
 5141TIP3    H136982   4.091   3.359   6.355
 5141TIP3    H236983   3.966   3.413   6.420
 5142TIP3   OH236984   2.262   5.517   7.175
 5142TIP3    H136985   2.329   5.547   7.114
 5142TIP3    H236986   2.269   5.422   7.174
 5143TIP3   OH236987   0.480   4.672   0.371
 5143TIP3    H136988   0.453   4.760   0.396
 5143TIP3    H236989   0.474   4.670   0.276
 5144TIP3   OH236990   3.214   1.093   8.316
 5144TIP3    H136991   3.203   1.080   8.410
 5144TIP3    H236992   3.132   1.135   8.288
 5145TIP3   OH236993   1.824   2.852   2.108
 5145TIP3    H136994   1.889   2.783   2.095
 5145TIP3    H236995   1.754   2.810   2.158
 5146TIP3   OH236996   5.450   5.381   1.103
 5146TIP3    H136997   5.520   5.348   1.158
 5146TIP3    H236998   5.483   5.465   1.069
 5147TIP3   OH236999   6.021   1.050   0.860
 5147TIP3    H137000   5.952   1.081   0.800
 5147TIP3    H237001   6.044   0.964   0.827
 5148TIP3   OH237002   2.883   4.759   6.927
 5148TIP3    H137003   2.847   4.829   6.872
 5148TIP3    H237004   2.821   4.686   6.917
 5149TIP3   OH237005   1.174   0.788   0.990
 5149TIP3    H137006   1.166   0.858   1.055
 5149TIP3    H237007   1.094   0.794   0.938
 5150TIP3   OH237008   1.661   0.924   7.094
 5150TIP3    H137009   1.609   0.911   7.014
 5150TIP3    H237010   1.713   1.002   7.077
 5151TIP3   OH237011   3.727   6.829   7.116
 5151TIP3    H137012   3.805   6.775   7.132
 5151TIP3    H237013   3.714   6.826   7.022
 5152TIP3   OH237014   2.472   2.630   0.107
 5152TIP3    H137015   2.558   2.632   0.149
 5152TIP3    H237016   2.491   2.628   0.013
 5153TIP3   OH237017   4.116   0.910   1.754
 5153TIP3    H137018   4.190   0.853   1.732
 5153TIP3    H237019   4.155   0.994   1.776
 5154TIP3   OH237020   1.419   0.374   2.692
 5154TIP3    H137021   1.431   0.469   2.694
 5154TIP3    H237022   1.503   0.340   2.664
 5155TIP3   OH237023   1.872   5.278   8.343
 5155TIP3    H137024   1.965   5.254   8.343
 5155TIP3    H237025   1.852   5.297   8.251
 5156TIP3   OH237026   4.933   4.091   7.385
 5156TIP3    H137027   5.020   4.067   7.418
 5156TIP3    H237028   4.948   4.172   7.336
 5157TIP3   OH237029   0.249   0.635   1.607
 5157TIP3    H137030   0.163   0.674   1.618
 5157TIP3    H237031   0.232   0.545   1.579
 5158TIP3   OH237032   1.330   1.534   0.126
 5158TIP3    H137033   1.336   1.460   0.065
 5158TIP3    H237034   1.319   1.611   0.070
 5159TIP3   OH237035   5.258   4.071   1.292
 5159TIP3    H137036   5.205   4.003   1.332
 5159TIP3    H237037   5.345   4.058   1.329
 5160TIP3   OH237038   1.970   3.723   1.392
 5160TIP3    H137039   1.994   3.753   1.480
 5160TIP3    H237040   1.934   3.800   1.350
 5161TIP3   OH237041   4.900   0.696   8.342
 5161TIP3    H137042   4.842   0.772   8.343
 5161TIP3    H237043   4.974   0.722   8.397
 5162TIP3   OH237044   1.356   5.504   6.626
 5162TIP3    H137045   1.431   5.513   6.568
 5162TIP3    H237046   1.297   5.576   6.600
 5163TIP3   OH237047   3.965   0.690   1.658
 5163TIP3    H137048   3.983   0.764   1.717
 5163TIP3    H237049   3.926   0.623   1.715
 5164TIP3   OH237050   4.333   5.524   8.044
 5164TIP3    H137051   4.251   5.557   8.006
 5164TIP3    H237052   4.369   5.468   7.975
 5165TIP3   OH237053   3.615   3.025   8.492
 5165TIP3    H137054   3.594   2.944   8.446
 5165TIP3    H237055   3.532   3.054   8.530
 5166TIP3   OH237056   0.588   0.797   0.247
 5166TIP3    H137057   0.618   0.873   0.298
 5166TIP3    H237058   0.534   0.836   0.177
 5167TIP3   OH237059   2.459   5.503   0.545
 5167TIP3    H137060   2.406   5.527   0.621
 5167TIP3    H237061   2.544   5.480   0.582
 5168TIP3   OH237062   5.689   1.451   8.500
 5168TIP3    H137063   5.764   1.462   8.559
 5168TIP3    H237064   5.711   1.374   8.447
 5169TIP3   OH237065   1.324   6.635   7.875
 5169TIP3    H137066   1.319   6.553   7.924
 5169TIP3    H237067   1.417   6.648   7.858
 5170TIP3   OH237068   4.048   3.211   0.428
 5170TIP3    H137069   3.969   3.156   0.436
 5170TIP3    H237070   4.116   3.162   0.474
 5171TIP3   OH237071   0.479   2.235   1.684
 5171TIP3    H137072   0.431   2.314   1.710
 5171TIP3    H237073   0.414   2.182   1.638
 5172TIP3   OH237074   1.980   6.147   8.377
 5172TIP3    H137075   2.072   6.142   8.352
 5172TIP3    H237076   1.972   6.087   8.451
 5173TIP3   OH237077   5.898   2.971   0.548
 5173TIP3    H137078   5.915   2.899   0.609
 5173TIP3    H237079   5.828   3.021   0.590
 5174TIP3   OH237080   4.265   5.208   8.371
 5174TIP3    H137081   4.329   5.246   8.431
 5174TIP3    H237082   4.318   5.168   8.302
 5175TIP3   OH237083   4.153   3.749   0.507
 5175TIP3    H137084   4.097   3.783   0.438
 5175TIP3    H237085   4.242   3.775   0.481
 5176TIP3   OH237086   1.636   2.880   8.200
 5176TIP3    H137087   1.659   2.973   8.203
 5176TIP3    H237088   1.717   2.835   8.226
 5177TIP3   OH237089   1.998   4.848   0.639
 5177TIP3    H137090   1.973   4.772   0.587
 5177TIP3    H237091   2.075   4.884   0.594
 5178TIP3   OH237092   4.321   2.687   7.888
 5178TIP3    H137093   4.349   2.597   7.906
 5178TIP3    H237094   4.225   2.682   7.891
 5179TIP3   OH237095   2.021   5.696   7.991
 5179TIP3    H137096   2.081   5.662   8.057
 5179TIP3    H237097   1.963   5.755   8.040
 5180TIP3   OH237098   0.209   3.777   7.796
 5180TIP3    H137099   0.123   3.810   7.771
 5180TIP3    H237100   0.271   3.830   7.746
 5181TIP3   OH237101   6.710   5.856   0.763
 5181TIP3    H137102   6.618   5.829   0.769
 5181TIP3    H237103   6.759   5.782   0.798
 5182TIP3   OH237104   6.561   1.766   6.381
 5182TIP3    H137105   6.557   1.771   6.286
 5182TIP3    H237106   6.534   1.676   6.401
 5183TIP3   OH237107   4.708   6.386   7.994
 5183TIP3    H137108   4.782   6.342   8.036
 5183TIP3    H237109   4.633   6.328   8.010
 5184TIP3   OH237110   0.098   1.411   0.059
 5184TIP3    H137111   0.153   1.417   8.695
 5184TIP3    H237112   0.138   1.342   0.112
 5185TIP3   OH237113   3.785   4.861   8.402
 5185TIP3    H137114   3.732   4.930   8.362
 5185TIP3    H237115   3.816   4.899   8.485
 5186TIP3   OH237116   4.640   5.214   0.896
 5186TIP3    H137117   4.670   5.214   0.805
 5186TIP3    H237118   4.686   5.288   0.936
 5187TIP3   OH237119   0.154   4.500   8.546
 5187TIP3    H137120   0.215   4.493   8.619
 5187TIP3    H237121   0.208   4.489   8.468
 5188TIP3   OH237122   0.307   4.832   8.159
 5188TIP3    H137123   0.392   4.836   8.115
 5188TIP3    H237124   0.244   4.863   8.094
 5189TIP3   OH237125   5.765   5.742   8.681
 5189TIP3    H137126   5.834   5.698   8.631
 5189TIP3    H237127   5.732   5.673   0.026
 5190TIP3   OH237128   6.223   0.591   8.450
 5190TIP3    H137129   6.316   0.574   8.461
 5190TIP3    H237130   6.200   0.648   8.524
 5191TIP3   OH237131   5.802   2.956   2.025
 5191TIP3    H137132   5.772   2.887   2.083
 5191TIP3    H237133   5.897   2.943   2.018
 5192TIP3   OH237134   5.178   4.361   1.380
 5192TIP3    H137135   5.264   4.319   1.374
 5192TIP3    H237136   5.196   4.454   1.386
 5193TIP3   OH237137   1.957   1.168   1.071
 5193TIP3    H137138   1.873   1.171   1.117
 5193TIP3    H237139   2.016   1.219   1.127
 5194TIP3   OH237140   6.335   4.647   7.365
 5194TIP3    H137141   6.346   4.635   7.270
 5194TIP3    H237142   6.252   4.694   7.374
 5195TIP3   OH237143   6.550   1.743   1.149
 5195TIP3    H137144   6.535   1.760   1.057
 5195TIP3    H237145   6.470   1.772   1.193
 5196TIP3   OH237146   5.793   1.931   1.803
 5196TIP3    H137147   5.703   1.964   1.802
 5196TIP3    H237148   5.848   2.009   1.802
 5197TIP3   OH237149   4.624   1.289   8.417
 5197TIP3    H137150   4.586   1.210   8.457
 5197TIP3    H237151   4.559   1.357   8.432
 5198TIP3   OH237152   0.148   3.763   7.464
 5198TIP3    H137153   0.080   3.813   7.510
 5198TIP3    H237154   0.127   3.672   7.482
 5199TIP3   OH237155   0.144   4.902   7.958
 5199TIP3    H137156   0.096   4.832   7.914
 5199TIP3    H237157   0.076   4.963   7.987
 5200TIP3   OH237158   4.541   0.207   7.614
 5200TIP3    H137159   4.545   0.152   7.692
 5200TIP3    H237160   4.484   0.159   7.554
 5201TIP3   OH237161   2.201   0.467   7.527
 5201TIP3    H137162   2.163   0.554   7.535
 5201TIP3    H237163   2.186   0.426   7.612
 5202TIP3   OH237164   3.746   2.668   7.962
 5202TIP3    H137165   3.705   2.742   7.917
 5202TIP3    H237166   3.802   2.709   8.028
 5203TIP3   OH237167   2.541   0.768   0.163
 5203TIP3    H137168   2.516   0.676   0.165
 5203TIP3    H237169   2.458   0.816   0.166
 5204TIP3   OH237170   0.779   1.288   7.438
 5204TIP3    H137171   0.757   1.267   7.347
 5204TIP3    H237172   0.695   1.286   7.484
 5205TIP3   OH237173   6.106   1.624   1.228
 5205TIP3    H137174   6.089   1.533   1.203
 5205TIP3    H237175   6.032   1.647   1.285
 5206TIP3   OH237176   3.252   2.671   0.069
 5206TIP3    H137177   3.322   2.727   0.101
 5206TIP3    H237178   3.173   2.705   0.112
 5207TIP3   OH237179   6.229   2.521   0.124
 5207TIP3    H137180   6.212   2.533   0.030
 5207TIP3    H237181   6.258   2.430   0.131
 5208TIP3   OH237182   2.552   1.281   0.983
 5208TIP3    H137183   2.645   1.292   1.003
 5208TIP3    H237184   2.528   1.198   1.025
 5209TIP3   OH237185   1.213   5.879   0.680
 5209TIP3    H137186   1.182   5.884   0.770
 5209TIP3    H237187   1.135   5.860   0.628
 5210TIP3   OH237188   6.128   6.609   0.483
 5210TIP3    H137189   6.067   6.613   0.556
 5210TIP3    H237190   6.205   6.565   0.519
 5211TIP3   OH237191   2.763   0.410   2.309
 5211TIP3    H137192   2.681   0.415   2.259
 5211TIP3    H237193   2.767   0.493   2.357
 5212TIP3   OH237194   0.864   0.707   0.276
 5212TIP3    H137195   0.783   0.742   0.314
 5212TIP3    H237196   0.834   0.649   0.205
 5213TIP3   OH237197   1.211   1.328   2.166
 5213TIP3    H137198   1.265   1.249   2.172
 5213TIP3    H237199   1.153   1.312   2.091
 5214TIP3   OH237200   5.158   3.794   1.686
 5214TIP3    H137201   5.213   3.758   1.756
 5214TIP3    H237202   5.068   3.785   1.719
 5215TIP3   OH237203   2.177   1.250   1.259
 5215TIP3    H137204   2.161   1.280   1.349
 5215TIP3    H237205   2.222   1.324   1.217
 5216TIP3   OH237206   1.191   5.259   8.363
 5216TIP3    H137207   1.256   5.192   8.341
 5216TIP3    H237208   1.219   5.337   8.314
 5217TIP3   OH237209   1.185   4.938   6.982
 5217TIP3    H137210   1.151   4.848   6.978
 5217TIP3    H237211   1.126   4.983   7.044
 5218TIP3   OH237212   1.224   0.036   7.725
 5218TIP3    H137213   1.295   0.082   7.770
 5218TIP3    H237214   1.233   6.802   7.753
 5219TIP3   OH237215   5.078   4.055   7.618
 5219TIP3    H137216   5.114   4.137   7.651
 5219TIP3    H237217   5.148   3.991   7.630
 5220TIP3   OH237218   5.331   3.899   7.398
 5220TIP3    H137219   5.353   3.906   7.491
 5220TIP3    H237220   5.416   3.905   7.353
 5221TIP3   OH237221   2.709   0.735   1.504
 5221TIP3    H137222   2.626   0.735   1.553
 5221TIP3    H237223   2.685   0.769   1.417
 5222TIP3   OH237224   0.474   5.645   7.293
 5222TIP3    H137225   0.392   5.608   7.260
 5222TIP3    H237226   0.505   5.701   7.223
 5223TIP3   OH237227   1.489   4.300   8.319
 5223TIP3    H137228   1.583   4.307   8.335
 5223TIP3    H237229   1.473   4.206   8.310
 5224TIP3   OH237230   5.400   4.813   1.353
 5224TIP3    H137231   5.305   4.807   1.365
 5224TIP3    H237232   5.420   4.906   1.366
 5225TIP3   OH237233   6.256   0.339   0.782
 5225TIP3    H137234   6.254   0.246   0.759
 5225TIP3    H237235   6.167   0.358   0.810
 5226TIP3   OH237236   6.665   6.327   1.732
 5226TIP3    H137237   6.705   6.392   1.674
 5226TIP3    H237238   6.602   6.281   1.677
 5227TIP3   OH237239   4.576   2.657   1.105
 5227TIP3    H137240   4.515   2.682   1.035
 5227TIP3    H237241   4.560   2.720   1.175
 5228TIP3   OH237242   0.785   4.969   6.595
 5228TIP3    H137243   0.779   5.062   6.619
 5228TIP3    H237244   0.739   4.923   6.665
 5229TIP3   OH237245   4.791   2.327   7.753
 5229TIP3    H137246   4.741   2.314   7.673
 5229TIP3    H237247   4.777   2.419   7.776
 5230TIP3   OH237248   6.796   1.339   6.089
 5230TIP3    H137249   6.702   1.328   6.102
 5230TIP3    H237250   6.811   1.433   6.103
 5231TIP3   OH237251   5.292   5.143   1.902
 5231TIP3    H137252   5.285   5.056   1.943
 5231TIP3    H237253   5.202   5.175   1.898
 5232TIP3   OH237254   4.740   4.943   0.702
 5232TIP3    H137255   4.778   5.024   0.667
 5232TIP3    H237256   4.802   4.913   0.768
 5233TIP3   OH237257   2.657   5.908   8.289
 5233TIP3    H137258   2.730   5.971   8.286
 5233TIP3    H237259   2.583   5.960   8.320
 5234TIP3   OH237260   3.131   4.845   6.537
 5234TIP3    H137261   3.072   4.919   6.522
 5234TIP3    H237262   3.131   4.833   6.632
 5235TIP3   OH237263   2.738   5.850   0.277
 5235TIP3    H137264   2.827   5.835   0.245
 5235TIP3    H237265   2.703   5.917   0.219
 5236TIP3   OH237266   4.968   3.559   0.177
 5236TIP3    H137267   4.952   3.653   0.188
 5236TIP3    H237268   5.023   3.535   0.252
 5237TIP3   OH237269   0.650   5.940   1.840
 5237TIP3    H137270   0.568   5.976   1.873
 5237TIP3    H237271   0.710   5.943   1.915
 5238TIP3   OH237272   6.636   1.307   0.952
 5238TIP3    H137273   6.709   1.246   0.954
 5238TIP3    H237274   6.571   1.267   1.010
 5239TIP3   OH237275   1.051   6.428   1.457
 5239TIP3    H137276   0.978   6.382   1.416
 5239TIP3    H237277   1.071   6.500   1.398
 5240TIP3   OH237278   0.060   6.401   1.280
 5240TIP3    H137279   0.096   6.335   1.339
 5240TIP3    H237280   6.837   6.360   1.244
 5241TIP3   OH237281   3.411   0.074   0.353
 5241TIP3    H137282   3.400   0.161   0.315
 5241TIP3    H237283   3.325   0.034   0.346
 5242TIP3   OH237284   4.203   5.308   6.511
 5242TIP3    H137285   4.176   5.284   6.422
 5242TIP3    H237286   4.295   5.283   6.516
 5243TIP3   OH237287   6.258   4.768   7.025
 5243TIP3    H137288   6.328   4.784   6.961
 5243TIP3    H237289   6.209   4.694   6.990
 5244TIP3   OH237290   6.193   2.780   8.432
 5244TIP3    H137291   6.159   2.714   8.492
 5244TIP3    H237292   6.254   2.733   8.376
 5245TIP3   OH237293   3.011   2.787   0.998
 5245TIP3    H137294   3.066   2.775   1.075
 5245TIP3    H237295   3.026   2.878   0.971
 5246TIP3   OH237296   4.286   5.865   1.739
 5246TIP3    H137297   4.352   5.874   1.808
 5246TIP3    H237298   4.240   5.784   1.760
 5247TIP3   OH237299   3.117   3.341   1.191
 5247TIP3    H137300   3.100   3.266   1.134
 5247TIP3    H237301   3.030   3.371   1.217
 5248TIP3   OH237302   2.341   1.477   6.525
 5248TIP3    H137303   2.318   1.553   6.579
 5248TIP3    H237304   2.380   1.415   6.587
 5249TIP3   OH237305   3.085   0.995   6.110
 5249TIP3    H137306   3.077   1.007   6.205
 5249TIP3    H237307   3.179   1.000   6.093
 5250TIP3   OH237308   6.472   2.492   2.294
 5250TIP3    H137309   6.477   2.585   2.314
 5250TIP3    H237310   6.561   2.460   2.305
 5251TIP3   OH237311   5.563   5.470   8.395
 5251TIP3    H137312   5.540   5.378   8.383
 5251TIP3    H237313   5.522   5.495   8.478
 5252TIP3   OH237314   6.342   2.370   2.051
 5252TIP3    H137315   6.346   2.279   2.021
 5252TIP3    H237316   6.348   2.364   2.146
 5253TIP3   OH237317   4.026   3.692   8.649
 5253TIP3    H137318   4.037   3.782   8.681
 5253TIP3    H237319   3.946   3.695   8.597
 5254TIP3   OH237320   5.048   2.950   1.357
 5254TIP3    H137321   5.075   2.958   1.266
 5254TIP3    H237322   4.993   2.871   1.360
 5255TIP3   OH237323   1.055   2.532   7.005
 5255TIP3    H137324   1.089   2.567   6.923
 5255TIP3    H237325   1.132   2.497   7.050
 5256TIP3   OH237326   2.271   6.146   8.312
 5256TIP3    H137327   2.290   6.212   8.245
 5256TIP3    H237328   2.355   6.103   8.327
 5257TIP3   OH237329   3.220   4.786   8.709
 5257TIP3    H137330   3.229   4.837   0.077
 5257TIP3    H237331   3.189   4.700   0.024
 5258TIP3   OH237332   4.068   6.540   7.001
 5258TIP3    H137333   4.150   6.590   6.995
 5258TIP3    H237334   4.073   6.477   6.930
 5259TIP3   OH237335   1.115   4.099   6.788
 5259TIP3    H137336   1.055   4.110   6.714
 5259TIP3    H237337   1.141   4.007   6.783
 5260TIP3   OH237338   3.399   0.246   7.686
 5260TIP3    H137339   3.457   0.172   7.706
 5260TIP3    H237340   3.317   0.225   7.730
 5261TIP3   OH237341   5.439   6.468   7.540
 5261TIP3    H137342   5.509   6.514   7.494
 5261TIP3    H237343   5.372   6.453   7.473
 5262TIP3   OH237344   1.804   4.066   0.350
 5262TIP3    H137345   1.790   4.111   0.267
 5262TIP3    H237346   1.769   4.126   0.416
 5263TIP3   OH237347   1.902   1.581   1.337
 5263TIP3    H137348   1.978   1.522   1.337
 5263TIP3    H237349   1.937   1.664   1.305
 5264TIP3   OH237350   2.326   6.479   8.333
 5264TIP3    H137351   2.387   6.537   8.380
 5264TIP3    H237352   2.377   6.400   8.315
 5265TIP3   OH237353   5.553   6.524   1.611
 5265TIP3    H137354   5.508   6.456   1.560
 5265TIP3    H237355   5.622   6.556   1.552
 5266TIP3   OH237356   6.579   3.030   7.574
 5266TIP3    H137357   6.510   2.980   7.530
 5266TIP3    H237358   6.660   2.986   7.549
 5267TIP3   OH237359   2.784   0.993   8.091
 5267TIP3    H137360   2.718   1.010   8.158
 5267TIP3    H237361   2.739   1.010   8.008
 5268TIP3   OH237362   1.734   0.317   7.904
 5268TIP3    H137363   1.793   0.305   7.978
 5268TIP3    H237364   1.682   0.393   7.928
 5269TIP3   OH237365   0.634   4.109   6.728
 5269TIP3    H137366   0.567   4.170   6.697
 5269TIP3    H237367   0.702   4.112   6.661
 5270TIP3   OH237368   2.170   4.093   0.888
 5270TIP3    H137369   2.122   4.161   0.936
 5270TIP3    H237370   2.103   4.050   0.835
 5271TIP3   OH237371   3.635   0.533   7.942
 5271TIP3    H137372   3.629   0.494   8.029
 5271TIP3    H237373   3.653   0.459   7.884
 5272TIP3   OH237374   0.031   3.205   1.990
 5272TIP3    H137375   6.848   3.129   1.947
 5272TIP3    H237376   0.126   3.190   1.981
 5273TIP3   OH237377   3.190   4.443   7.049
 5273TIP3    H137378   3.206   4.484   7.134
 5273TIP3    H237379   3.133   4.369   7.069
 5274TIP3   OH237380   1.040   3.027   0.874
 5274TIP3    H137381   1.066   3.104   0.823
 5274TIP3    H237382   1.109   2.963   0.857
 5275TIP3   OH237383   5.968   1.157   1.588
 5275TIP3    H137384   5.883   1.114   1.583
 5275TIP3    H237385   5.951   1.235   1.641
 5276TIP3   OH237386   6.820   0.495   1.109
 5276TIP3    H137387   0.052   0.522   1.083
 5276TIP3    H237388   6.782   0.573   1.150
 5277TIP3   OH237389   1.091   4.288   0.344
 5277TIP3    H137390   1.070   4.285   0.251
 5277TIP3    H237391   1.075   4.199   0.376
 5278TIP3   OH237392   0.809   2.424   7.627
 5278TIP3    H137393   0.887   2.374   7.651
 5278TIP3    H237394   0.778   2.383   7.547
 5279TIP3   OH237395   6.024   5.060   1.570
 5279TIP3    H137396   5.939   5.023   1.547
 5279TIP3    H237397   6.068   4.991   1.619
 5280TIP3   OH237398   4.882   1.827   7.990
 5280TIP3    H137399   4.850   1.863   7.907
 5280TIP3    H237400   4.941   1.756   7.963
 5281TIP3   OH237401   6.048   1.326   5.889
 5281TIP3    H137402   6.046   1.258   5.955
 5281TIP3    H237403   6.005   1.287   5.813
 5282TIP3   OH237404   5.206   5.545   0.469
 5282TIP3    H137405   5.135   5.585   0.519
 5282TIP3    H237406   5.202   5.587   0.383
 5283TIP3   OH237407   2.092   6.652   8.066
 5283TIP3    H137408   2.083   6.639   8.160
 5283TIP3    H237409   2.134   6.573   8.034
 5284TIP3   OH237410   5.652   2.808   0.216
 5284TIP3    H137411   5.663   2.879   0.152
 5284TIP3    H237412   5.740   2.790   0.248
 5285TIP3   OH237413   6.105   3.262   0.114
 5285TIP3    H137414   6.010   3.256   0.126
 5285TIP3    H237415   6.116   3.319   0.038
 5286TIP3   OH237416   3.113   5.866   1.051
 5286TIP3    H137417   3.034   5.816   1.033
 5286TIP3    H237418   3.165   5.858   0.971
 5287TIP3   OH237419   2.052   1.719   8.347
 5287TIP3    H137420   1.986   1.775   8.308
 5287TIP3    H237421   2.068   1.651   8.282
 5288TIP3   OH237422   5.799   2.786   8.193
 5288TIP3    H137423   5.807   2.809   8.286
 5288TIP3    H237424   5.747   2.857   8.155
 5289TIP3   OH237425   4.191   6.529   0.539
 5289TIP3    H137426   4.278   6.490   0.533
 5289TIP3    H237427   4.166   6.548   0.449
 5290TIP3   OH237428   0.446   6.060   1.967
 5290TIP3    H137429   0.368   6.025   1.924
 5290TIP3    H237430   0.413   6.129   2.024
 5291TIP3   OH237431   0.174   1.211   1.262
 5291TIP3    H137432   0.104   1.187   1.323
 5291TIP3    H237433   0.144   1.294   1.223
 5292TIP3   OH237434   5.003   5.887   0.619
 5292TIP3    H137435   4.990   5.803   0.575
 5292TIP3    H237436   4.991   5.952   0.550
 5293TIP3   OH237437   3.499   1.952   0.892
 5293TIP3    H137438   3.444   1.962   0.815
 5293TIP3    H237439   3.582   1.992   0.867
 5294TIP3   OH237440   6.247   3.091   8.067
 5294TIP3    H137441   6.163   3.131   8.089
 5294TIP3    H237442   6.250   3.011   8.120
 5295TIP3   OH237443   2.810   0.236   7.559
 5295TIP3    H137444   2.795   0.304   7.493
 5295TIP3    H237445   2.898   0.204   7.541
 5296TIP3   OH237446   0.173   5.888   8.654
 5296TIP3    H137447   0.088   5.900   8.697
 5296TIP3    H237448   0.218   5.822   8.707
 5297TIP3   OH237449   2.509   1.053   1.130
 5297TIP3    H137450   2.436   1.054   1.192
 5297TIP3    H237451   2.562   0.978   1.157
 5298TIP3   OH237452   6.755   4.557   8.376
 5298TIP3    H137453   6.695   4.630   8.362
 5298TIP3    H237454   6.812   4.558   8.299
 5299TIP3   OH237455   3.770   1.102   7.116
 5299TIP3    H137456   3.711   1.177   7.129
 5299TIP3    H237457   3.720   1.042   7.061
 5300TIP3   OH237458   6.068   3.243   1.076
 5300TIP3    H137459   6.060   3.224   0.982
 5300TIP3    H237460   6.137   3.185   1.107
 5301TIP3   OH237461   2.284   5.007   6.654
 5301TIP3    H137462   2.310   5.010   6.746
 5301TIP3    H237463   2.319   5.088   6.617
 5302TIP3   OH237464   6.339   4.599   1.814
 5302TIP3    H137465   6.419   4.650   1.815
 5302TIP3    H237466   6.273   4.658   1.779
 5303TIP3   OH237467   2.464   4.193   7.583
 5303TIP3    H137468   2.558   4.204   7.594
 5303TIP3    H237469   2.430   4.282   7.574
 5304TIP3   OH237470   6.046   2.106   6.597
 5304TIP3    H137471   6.011   2.075   6.513
 5304TIP3    H237472   6.123   2.157   6.573
 5305TIP3   OH237473   3.675   1.103   7.746
 5305TIP3    H137474   3.604   1.165   7.729
 5305TIP3    H237475   3.734   1.113   7.672
 5306TIP3   OH237476   6.018   1.874   8.190
 5306TIP3    H137477   5.984   1.828   8.267
 5306TIP3    H237478   6.023   1.807   8.122
 5307TIP3   OH237479   0.550   1.369   0.578
 5307TIP3    H137480   0.541   1.446   0.634
 5307TIP3    H237481   0.535   1.403   0.489
 5308TIP3   OH237482   1.614   2.270   0.494
 5308TIP3    H137483   1.642   2.181   0.474
 5308TIP3    H237484   1.694   2.322   0.491
 5309TIP3   OH237485   4.318   4.334   0.021
 5309TIP3    H137486   4.264   4.368   8.664
 5309TIP3    H237487   4.338   4.244   8.709
 5310TIP3   OH237488   4.803   0.126   0.904
 5310TIP3    H137489   4.768   0.090   0.986
 5310TIP3    H237490   4.799   0.052   0.843
 5311TIP3   OH237491   4.095   1.421   0.496
 5311TIP3    H137492   4.152   1.497   0.500
 5311TIP3    H237493   4.146   1.351   0.537
 5312TIP3   OH237494   3.106   5.222   7.802
 5312TIP3    H137495   3.013   5.234   7.818
 5312TIP3    H237496   3.134   5.303   7.759
 5313TIP3   OH237497   4.099   3.985   0.019
 5313TIP3    H137498   4.081   3.952   0.107
 5313TIP3    H237499   4.187   4.023   0.025
 5314TIP3   OH237500   5.563   0.704   6.372
 5314TIP3    H137501   5.549   0.719   6.465
 5314TIP3    H237502   5.655   0.680   6.364
 5315TIP3   OH237503   1.831   4.280   1.417
 5315TIP3    H137504   1.875   4.248   1.496
 5315TIP3    H237505   1.749   4.232   1.414
 5316TIP3   OH237506   2.227   2.714   1.597
 5316TIP3    H137507   2.194   2.801   1.620
 5316TIP3    H237508   2.149   2.662   1.581
 5317TIP3   OH237509   4.712   2.647   2.159
 5317TIP3    H137510   4.721   2.566   2.109
 5317TIP3    H237511   4.791   2.652   2.213
 5318TIP3   OH237512   3.122   4.823   6.810
 5318TIP3    H137513   3.165   4.892   6.862
 5318TIP3    H237514   3.034   4.817   6.847
 5319TIP3   OH237515   6.371   0.589   0.147
 5319TIP3    H137516   6.364   0.519   0.083
 5319TIP3    H237517   6.284   0.593   0.188
 5320TIP3   OH237518   0.155   2.813   1.060
 5320TIP3    H137519   0.227   2.751   1.075
 5320TIP3    H237520   0.194   2.899   1.075
 5321TIP3   OH237521   0.899   4.170   1.219
 5321TIP3    H137522   0.906   4.118   1.299
 5321TIP3    H237523   0.937   4.255   1.242
 5322TIP3   OH237524   2.160   1.297   7.588
 5322TIP3    H137525   2.137   1.257   7.672
 5322TIP3    H237526   2.150   1.391   7.604
 5323TIP3   OH237527   0.408   6.103   7.808
 5323TIP3    H137528   0.463   6.030   7.778
 5323TIP3    H237529   0.448   6.181   7.769
 5324TIP3   OH237530   4.077   2.009   8.095
 5324TIP3    H137531   4.135   1.938   8.066
 5324TIP3    H237532   3.989   1.972   8.086
 5325TIP3   OH237533   0.759   6.107   0.513
 5325TIP3    H137534   0.744   6.190   0.559
 5325TIP3    H237535   0.730   6.124   0.423
 5326TIP3   OH237536   5.007   6.262   0.607
 5326TIP3    H137537   4.921   6.245   0.568
 5326TIP3    H237538   5.056   6.306   0.538
 5327TIP3   OH237539   0.271   1.572   0.700
 5327TIP3    H137540   0.219   1.493   0.687
 5327TIP3    H237541   0.243   1.605   0.785
 5328TIP3   OH237542   1.628   5.759   7.696
 5328TIP3    H137543   1.539   5.751   7.662
 5328TIP3    H237544   1.650   5.671   7.726
 5329TIP3   OH237545   1.217   1.212   0.403
 5329TIP3    H137546   1.123   1.229   0.404
 5329TIP3    H237547   1.256   1.293   0.436
 5330TIP3   OH237548   6.490   1.619   8.216
 5330TIP3    H137549   6.412   1.623   8.272
 5330TIP3    H237550   6.474   1.686   8.149
 5331TIP3   OH237551   4.912   0.188   0.049
 5331TIP3    H137552   4.970   0.261   0.071
 5331TIP3    H237553   4.948   0.152   8.681
 5332TIP3   OH237554   3.465   4.776   0.527
 5332TIP3    H137555   3.379   4.737   0.539
 5332TIP3    H237556   3.511   4.760   0.609
 5333TIP3   OH237557   5.927   5.934   6.843
 5333TIP3    H137558   5.929   5.840   6.826
 5333TIP3    H237559   5.992   5.947   6.913
 5334TIP3   OH237560   3.494   2.435   7.285
 5334TIP3    H137561   3.483   2.358   7.340
 5334TIP3    H237562   3.458   2.409   7.200
 5335TIP3   OH237563   6.202   1.196   7.030
 5335TIP3    H137564   6.262   1.267   7.054
 5335TIP3    H237565   6.171   1.161   7.114
 5336TIP3   OH237566   3.379   5.440   1.350
 5336TIP3    H137567   3.344   5.491   1.424
 5336TIP3    H237568   3.362   5.494   1.273
 5337TIP3   OH237569   0.528   5.911   7.637
 5337TIP3    H137570   0.476   5.836   7.609
 5337TIP3    H237571   0.574   5.940   7.557
 5338TIP3   OH237572   5.164   4.286   7.767
 5338TIP3    H137573   5.232   4.258   7.828
 5338TIP3    H237574   5.140   4.374   7.797
 5339TIP3   OH237575   5.207   1.239   2.298
 5339TIP3    H137576   5.204   1.173   2.229
 5339TIP3    H237577   5.180   1.193   2.377
 5340TIP3   OH237578   4.677   2.699   6.890
 5340TIP3    H137579   4.693   2.714   6.797
 5340TIP3    H237580   4.702   2.607   6.904
 5341TIP3   OH237581   5.314   0.270   0.430
 5341TIP3    H137582   5.312   0.184   0.387
 5341TIP3    H237583   5.335   0.250   0.521
 5342TIP3   OH237584   5.624   6.690   0.783
 5342TIP3    H137585   5.589   6.618   0.730
 5342TIP3    H237586   5.646   6.650   0.867
 5343TIP3   OH237587   6.162   2.634   7.261
 5343TIP3    H137588   6.072   2.610   7.283
 5343TIP3    H237589   6.153   2.706   7.199
 5344TIP3   OH237590   5.161   3.852   6.442
 5344TIP3    H137591   5.241   3.810   6.474
 5344TIP3    H237592   5.188   3.943   6.425
 5345TIP3   OH237593   2.060   2.146   0.288
 5345TIP3    H137594   2.052   2.093   0.367
 5345TIP3    H237595   2.152   2.173   0.286
 5346TIP3   OH237596   3.779   1.773   7.551
 5346TIP3    H137597   3.861   1.730   7.529
 5346TIP3    H237598   3.718   1.702   7.569
 5347TIP3   OH237599   6.118   6.001   7.291
 5347TIP3    H137600   6.164   6.043   7.364
 5347TIP3    H237601   6.170   5.923   7.272
 5348TIP3   OH237602   4.437   1.105   6.734
 5348TIP3    H137603   4.358   1.146   6.698
 5348TIP3    H237604   4.412   1.014   6.748
 5349TIP3   OH237605   5.563   2.597   8.532
 5349TIP3    H137606   5.583   2.593   8.438
 5349TIP3    H237607   5.636   2.646   8.570
 5350TIP3   OH237608   2.368   1.515   7.665
 5350TIP3    H137609   2.433   1.474   7.721
 5350TIP3    H237610   2.408   1.518   7.578
 5351TIP3   OH237611   0.436   6.007   6.578
 5351TIP3    H137612   0.395   5.992   6.663
 5351TIP3    H237613   0.525   6.036   6.600
 5352TIP3   OH237614   0.073   5.815   1.011
 5352TIP3    H137615   0.152   5.791   0.962
 5352TIP3    H237616   0.012   5.744   0.994
 5353TIP3   OH237617   5.921   0.281   6.824
 5353TIP3    H137618   5.955   0.296   6.736
 5353TIP3    H237619   5.857   0.211   6.814
 5354TIP3   OH237620   2.474   4.513   8.142
 5354TIP3    H137621   2.463   4.608   8.141
 5354TIP3    H237622   2.388   4.478   8.118
 5355TIP3   OH237623   4.982   4.839   8.123
 5355TIP3    H137624   5.036   4.853   8.045
 5355TIP3    H237625   4.908   4.898   8.112
 5356TIP3   OH237626   2.506   1.667   1.572
 5356TIP3    H137627   2.448   1.692   1.643
 5356TIP3    H237628   2.553   1.590   1.604
 5357TIP3   OH237629   5.538   4.566   1.264
 5357TIP3    H137630   5.626   4.602   1.272
 5357TIP3    H237631   5.485   4.619   1.324
 5358TIP3   OH237632   0.413   0.390   7.058
 5358TIP3    H137633   0.337   0.333   7.069
 5358TIP3    H237634   0.425   0.397   6.964
 5359TIP3   OH237635   2.899   5.560   6.932
 5359TIP3    H137636   2.884   5.519   6.847
 5359TIP3    H237637   2.948   5.494   6.982
 5360TIP3   OH237638   5.219   1.938   7.546
 5360TIP3    H137639   5.173   2.007   7.594
 5360TIP3    H237640   5.283   1.984   7.492
 5361TIP3   OH237641   2.183   4.780   1.222
 5361TIP3    H137642   2.222   4.716   1.163
 5361TIP3    H237643   2.185   4.738   1.308
 5362TIP3   OH237644   0.572   4.930   1.411
 5362TIP3    H137645   0.489   4.896   1.444
 5362TIP3    H237646   0.617   4.961   1.489
 5363TIP3   OH237647   4.413   4.195   0.658
 5363TIP3    H137648   4.460   4.115   0.684
 5363TIP3    H237649   4.483   4.260   0.646
 5364TIP3   OH237650   5.926   0.279   7.217
 5364TIP3    H137651   5.903   0.189   7.240
 5364TIP3    H237652   5.883   0.293   7.133
 5365TIP3   OH237653   5.426   1.399   7.382
 5365TIP3    H137654   5.384   1.387   7.297
 5365TIP3    H237655   5.356   1.386   7.446
 5366TIP3   OH237656   2.014   6.573   0.212
 5366TIP3    H137657   2.039   6.584   0.120
 5366TIP3    H237658   2.092   6.535   0.253
 5367TIP3   OH237659   3.549   5.237   7.916
 5367TIP3    H137660   3.536   5.226   7.821
 5367TIP3    H237661   3.632   5.284   7.923
 5368TIP3   OH237662   0.201   4.790   0.487
 5368TIP3    H137663   0.117   4.829   0.463
 5368TIP3    H237664   0.264   4.830   0.428
 5369TIP3   OH237665   1.080   1.520   8.630
 5369TIP3    H137666   1.143   1.451   8.651
 5369TIP3    H237667   1.133   1.594   8.600
 5370TIP3   OH237668   6.487   3.913   0.371
 5370TIP3    H137669   6.418   3.971   0.404
 5370TIP3    H237670   6.441   3.855   0.310
 5371TIP3   OH237671   3.219   5.048   1.116
 5371TIP3    H137672   3.211   5.013   1.205
 5371TIP3    H237673   3.178   5.135   1.121
 5372TIP3   OH237674   5.687   2.268   7.304
 5372TIP3    H137675   5.698   2.220   7.386
 5372TIP3    H237676   5.654   2.202   7.243
 5373TIP3   OH237677   3.867   4.211   8.046
 5373TIP3    H137678   3.942   4.270   8.038
 5373TIP3    H237679   3.839   4.220   8.137
 5374TIP3   OH237680   5.669   4.702   8.123
 5374TIP3    H137681   5.709   4.681   8.038
 5374TIP3    H237682   5.734   4.755   8.168
 5375TIP3   OH237683   6.833   3.657   8.301
 5375TIP3    H137684   6.770   3.639   8.371
 5375TIP3    H237685   0.062   3.655   8.345
 5376TIP3   OH237686   2.654   6.803   0.689
 5376TIP3    H137687   2.668   6.844   0.603
 5376TIP3    H237688   2.601   6.725   0.670
 5377TIP3   OH237689   5.722   2.264   2.333
 5377TIP3    H137690   5.730   2.341   2.276
 5377TIP3    H237691   5.649   2.215   2.295
 5378TIP3   OH237692   2.974   5.663   1.478
 5378TIP3    H137693   3.025   5.677   1.558
 5378TIP3    H237694   2.982   5.746   1.430
 5379TIP3   OH237695   3.304   1.340   0.304
 5379TIP3    H137696   3.213   1.327   0.332
 5379TIP3    H237697   3.298   1.404   0.233
 5380TIP3   OH237698   1.884   3.770   1.910
 5380TIP3    H137699   1.964   3.793   1.956
 5380TIP3    H237700   1.882   3.674   1.912
 5381TIP3   OH237701   5.246   6.607   8.404
 5381TIP3    H137702   5.296   6.627   8.483
 5381TIP3    H237703   5.196   6.687   8.387
 5382TIP3   OH237704   3.027   4.939   1.950
 5382TIP3    H137705   3.100   4.891   1.988
 5382TIP3    H237706   2.949   4.893   1.982
 5383TIP3   OH237707   1.148   4.345   6.933
 5383TIP3    H137708   1.137   4.397   6.853
 5383TIP3    H237709   1.131   4.255   6.905
 5384TIP3   OH237710   5.551   6.827   1.543
 5384TIP3    H137711   5.573   6.734   1.540
 5384TIP3    H237712   5.458   6.831   1.520
 5385TIP3   OH237713   0.560   2.079   1.992
 5385TIP3    H137714   0.600   2.160   1.961
 5385TIP3    H237715   0.634   2.020   2.008
 5386TIP3   OH237716   2.182   4.540   7.436
 5386TIP3    H137717   2.248   4.475   7.456
 5386TIP3    H237718   2.122   4.497   7.375
 5387TIP3   OH237719   4.842   6.826   7.891
 5387TIP3    H137720   4.788   0.034   7.936
 5387TIP3    H237721   4.830   6.746   7.941
 5388TIP3   OH237722   2.896   4.479   7.871
 5388TIP3    H137723   2.981   4.435   7.871
 5388TIP3    H237724   2.889   4.518   7.958
 5389TIP3   OH237725   3.109   3.007   1.824
 5389TIP3    H137726   3.158   3.058   1.760
 5389TIP3    H237727   3.174   2.977   1.887
 5390TIP3   OH237728   2.328   5.607   0.774
 5390TIP3    H137729   2.310   5.677   0.837
 5390TIP3    H237730   2.293   5.528   0.816
 5391TIP3   OH237731   1.230   4.148   2.174
 5391TIP3    H137732   1.199   4.237   2.191
 5391TIP3    H237733   1.172   4.116   2.104
 5392TIP3   OH237734   5.553   5.859   2.151
 5392TIP3    H137735   5.560   5.769   2.183
 5392TIP3    H237736   5.490   5.900   2.210
 5393TIP3   OH237737   4.036   5.295   0.289
 5393TIP3    H137738   3.955   5.343   0.269
 5393TIP3    H237739   4.032   5.279   0.383
 5394TIP3   OH237740   2.114   0.167   8.358
 5394TIP3    H137741   2.088   0.257   8.378
 5394TIP3    H237742   2.070   0.114   8.425
 5395TIP3   OH237743   6.401   6.248   2.693
 5395TIP3    H137744   6.311   6.235   2.725
 5395TIP3    H237745   6.456   6.228   2.769
 5396TIP3   OH237746   6.820   4.239   7.850
 5396TIP3    H137747   0.042   4.260   7.902
 5396TIP3    H237748   6.766   4.187   7.909
 5397TIP3   OH237749   2.312   6.681   0.024
 5397TIP3    H137750   2.227   6.717   8.713
 5397TIP3    H237751   2.307   6.589   8.713
 5398TIP3   OH237752   6.038   4.334   0.466
 5398TIP3    H137753   6.120   4.329   0.417
 5398TIP3    H237754   6.037   4.254   0.519
 5399TIP3   OH237755   2.090   4.607   1.417
 5399TIP3    H137756   2.021   4.562   1.369
 5399TIP3    H237757   2.044   4.650   1.489
 5400TIP3   OH237758   0.427   3.924   6.150
 5400TIP3    H137759   0.349   3.954   6.196
 5400TIP3    H237760   0.491   3.993   6.164
 5401TIP3   OH237761   1.873   1.308   0.836
 5401TIP3    H137762   1.921   1.332   0.915
 5401TIP3    H237763   1.838   1.221   0.855
 5402TIP3   OH237764   3.432   5.017   8.662
 5402TIP3    H137765   3.370   5.060   0.008
 5402TIP3    H237766   3.504   5.079   8.653
 5403TIP3   OH237767   6.286   3.767   7.729
 5403TIP3    H137768   6.323   3.717   7.656
 5403TIP3    H237769   6.359   3.780   7.789
 5404TIP3   OH237770   2.589   3.200   1.635
 5404TIP3    H137771   2.642   3.207   1.555
 5404TIP3    H237772   2.646   3.155   1.697
 5405TIP3   OH237773   2.968   2.530   2.480
 5405TIP3    H137774   2.876   2.506   2.471
 5405TIP3    H237775   3.006   2.462   2.535
 5406TIP3   OH237776   1.299   4.903   1.406
 5406TIP3    H137777   1.345   4.959   1.343
 5406TIP3    H237778   1.368   4.852   1.448
 5407TIP3   OH237779   2.235   0.033   1.102
 5407TIP3    H137780   2.258   6.797   1.110
 5407TIP3    H237781   2.294   0.066   1.034
 5408TIP3   OH237782   3.981   0.445   8.051
 5408TIP3    H137783   4.023   0.385   7.990
 5408TIP3    H237784   3.953   0.390   8.124
 5409TIP3   OH237785   3.671   4.751   0.725
 5409TIP3    H137786   3.735   4.679   0.724
 5409TIP3    H237787   3.701   4.808   0.796
 5410TIP3   OH237788   4.127   0.095   2.680
 5410TIP3    H137789   4.149   0.143   2.601
 5410TIP3    H237790   4.069   0.154   2.728
 5411TIP3   OH237791   4.640   2.123   0.868
 5411TIP3    H137792   4.575   2.185   0.900
 5411TIP3    H237793   4.720   2.145   0.916
 5412TIP3   OH237794   4.067   1.423   8.303
 5412TIP3    H137795   4.054   1.496   8.243
 5412TIP3    H237796   3.988   1.369   8.293
 5413TIP3   OH237797   6.641   0.610   1.716
 5413TIP3    H137798   6.705   0.583   1.782
 5413TIP3    H237799   6.685   0.679   1.666
 5414TIP3   OH237800   0.368   6.642   0.192
 5414TIP3    H137801   0.424   6.712   0.226
 5414TIP3    H237802   0.329   6.604   0.271
 5415TIP3   OH237803   2.946   0.550   7.110
 5415TIP3    H137804   3.038   0.522   7.112
 5415TIP3    H237805   2.949   0.644   7.131
 5416TIP3   OH237806   4.461   4.226   8.353
 5416TIP3    H137807   4.465   4.236   8.258
 5416TIP3    H237808   4.534   4.279   8.385
 5417TIP3   OH237809   6.227   5.057   7.329
 5417TIP3    H137810   6.192   5.015   7.250
 5417TIP3    H237811   6.229   4.987   7.394
 5418TIP3   OH237812   0.745   3.646   7.642
 5418TIP3    H137813   0.760   3.737   7.616
 5418TIP3    H237814   0.699   3.607   7.567
 5419TIP3   OH237815   6.368   3.528   0.344
 5419TIP3    H137816   6.356   3.588   0.271
 5419TIP3    H237817   6.458   3.498   0.338
 5420TIP3   OH237818   2.194   2.165   1.386
 5420TIP3    H137819   2.219   2.099   1.321
 5420TIP3    H237820   2.187   2.115   1.468
 5421TIP3   OH237821   2.735   2.604   0.501
 5421TIP3    H137822   2.647   2.571   0.516
 5421TIP3    H237823   2.785   2.575   0.578
 5422TIP3   OH237824   2.751   4.792   1.821
 5422TIP3    H137825   2.760   4.885   1.803
 5422TIP3    H237826   2.751   4.786   1.917
 5423TIP3   OH237827   0.330   4.416   0.679
 5423TIP3    H137828   0.313   4.510   0.680
 5423TIP3    H237829   0.257   4.377   0.727
 5424TIP3   OH237830   0.108   3.239   6.524
 5424TIP3    H137831   0.193   3.210   6.492
 5424TIP3    H237832   0.120   3.333   6.542
 5425TIP3   OH237833   0.211   4.656   7.585
 5425TIP3    H137834   0.199   4.586   7.520
 5425TIP3    H237835   0.227   4.609   7.668
 5426TIP3   OH237836   5.485   0.704   7.654
 5426TIP3    H137837   5.391   0.700   7.637
 5426TIP3    H237838   5.504   0.626   7.707
 5427TIP3   OH237839   1.172   5.700   7.815
 5427TIP3    H137840   1.088   5.654   7.820
 5427TIP3    H237841   1.204   5.701   7.906
 5428TIP3   OH237842   0.243   4.480   1.871
 5428TIP3    H137843   0.180   4.498   1.941
 5428TIP3    H237844   0.198   4.416   1.815
 5429TIP3   OH237845   2.714   4.243   7.603
 5429TIP3    H137846   2.722   4.336   7.583
 5429TIP3    H237847   2.799   4.219   7.640
 5430TIP3   OH237848   4.116   6.034   0.518
 5430TIP3    H137849   4.124   6.112   0.462
 5430TIP3    H237850   4.129   6.067   0.607
 5431TIP3   OH237851   4.797   3.423   1.427
 5431TIP3    H137852   4.804   3.328   1.418
 5431TIP3    H237853   4.750   3.436   1.509
 5432TIP3   OH237854   0.084   4.964   8.348
 5432TIP3    H137855   0.061   5.052   8.319
 5432TIP3    H237856   0.049   4.906   8.280
 5433TIP3   OH237857   2.213   2.929   8.094
 5433TIP3    H137858   2.248   2.953   8.008
 5433TIP3    H237859   2.171   3.010   8.126
 5434TIP3   OH237860   4.345   0.707   7.383
 5434TIP3    H137861   4.397   0.639   7.427
 5434TIP3    H237862   4.377   0.789   7.421
 5435TIP3   OH237863   0.649   3.427   7.767
 5435TIP3    H137864   0.559   3.456   7.757
 5435TIP3    H237865   0.702   3.500   7.735
 5436TIP3   OH237866   6.836   3.266   7.192
 5436TIP3    H137867   0.040   3.337   7.172
 5436TIP3    H237868   0.002   3.240   7.282
 5437TIP3   OH237869   1.442   4.980   7.028
 5437TIP3    H137870   1.352   4.957   7.008
 5437TIP3    H237871   1.474   4.909   7.083
 5438TIP3   OH237872   1.230   2.610   6.360
 5438TIP3    H137873   1.274   2.618   6.275
 5438TIP3    H237874   1.273   2.675   6.416
 5439TIP3   OH237875   0.233   6.558   0.417
 5439TIP3    H137876   0.232   6.464   0.435
 5439TIP3    H237877   0.140   6.582   0.412
 5440TIP3   OH237878   0.336   0.653   6.966
 5440TIP3    H137879   0.276   0.690   7.030
 5440TIP3    H237880   0.387   0.589   7.014
 5441TIP3   OH237881   6.287   3.932   6.562
 5441TIP3    H137882   6.206   3.881   6.565
 5441TIP3    H237883   6.260   4.022   6.580
 5442TIP3   OH237884   3.296   3.169   1.706
 5442TIP3    H137885   3.326   3.209   1.788
 5442TIP3    H237886   3.372   3.174   1.648
 5443TIP3   OH237887   1.901   5.049   0.296
 5443TIP3    H137888   1.828   5.053   0.357
 5443TIP3    H237889   1.871   4.992   0.225
 5444TIP3   OH237890   2.407   6.025   7.900
 5444TIP3    H137891   2.415   6.072   7.817
 5444TIP3    H237892   2.351   5.950   7.880
 5445TIP3   OH237893   5.212   6.002   8.676
 5445TIP3    H137894   5.224   5.971   0.052
 5445TIP3    H237895   5.170   5.929   8.630
 5446TIP3   OH237896   6.595   0.877   8.384
 5446TIP3    H137897   6.688   0.855   8.377
 5446TIP3    H237898   6.560   0.863   8.296
 5447TIP3   OH237899   3.142   6.012   8.141
 5447TIP3    H137900   3.179   5.965   8.067
 5447TIP3    H237901   3.108   5.943   8.199
 5448TIP3   OH237902   2.157   1.643   2.072
 5448TIP3    H137903   2.165   1.734   2.098
 5448TIP3    H237904   2.240   1.603   2.099
 5449TIP3   OH237905   4.694   0.479   1.906
 5449TIP3    H137906   4.682   0.574   1.901
 5449TIP3    H237907   4.704   0.460   1.999
 5450TIP3   OH237908   0.329   2.798   6.258
 5450TIP3    H137909   0.371   2.869   6.307
 5450TIP3    H237910   0.383   2.788   6.180
 5451TIP3   OH237911   3.346   1.785   0.702
 5451TIP3    H137912   3.431   1.768   0.743
 5451TIP3    H237913   3.282   1.745   0.761
 5452TIP3   OH237914   3.116   1.434   2.161
 5452TIP3    H137915   3.027   1.405   2.141
 5452TIP3    H237916   3.137   1.392   2.245
 5453TIP3   OH237917   3.877   0.235   7.481
 5453TIP3    H137918   3.948   0.204   7.536
 5453TIP3    H237919   3.877   0.330   7.492
 5454TIP3   OH237920   3.644   1.835   8.052
 5454TIP3    H137921   3.706   1.827   7.980
 5454TIP3    H237922   3.686   1.789   8.125
 5455TIP3   OH237923   6.733   1.154   6.880
 5455TIP3    H137924   6.712   1.089   6.947
 5455TIP3    H237925   6.739   1.104   6.799
 5456TIP3   OH237926   2.971   6.165   7.276
 5456TIP3    H137927   2.954   6.160   7.370
 5456TIP3    H237928   3.060   6.200   7.269
 5457TIP3   OH237929   3.794   2.798   1.131
 5457TIP3    H137930   3.720   2.856   1.151
 5457TIP3    H237931   3.852   2.852   1.077
 5458TIP3   OH237932   5.663   4.405   8.337
 5458TIP3    H137933   5.656   4.334   8.402
 5458TIP3    H237934   5.620   4.480   8.379
 5459TIP3   OH237935   5.085   2.239   7.708
 5459TIP3    H137936   5.002   2.218   7.750
 5459TIP3    H237937   5.133   2.290   7.773
 5460TIP3   OH237938   4.513   6.538   8.410
 5460TIP3    H137939   4.455   6.524   8.335
 5460TIP3    H237940   4.454   6.564   8.481
 5461TIP3   OH237941   1.043   1.756   1.269
 5461TIP3    H137942   1.056   1.813   1.344
 5461TIP3    H237943   1.112   1.690   1.276
 5462TIP3   OH237944   1.324   4.392   1.696
 5462TIP3    H137945   1.354   4.480   1.718
 5462TIP3    H237946   1.275   4.364   1.773
 5463TIP3   OH237947   5.660   6.055   1.075
 5463TIP3    H137948   5.671   5.983   1.013
 5463TIP3    H237949   5.703   6.129   1.033
 5464TIP3   OH237950   0.767   1.324   6.928
 5464TIP3    H137951   0.812   1.335   7.012
 5464TIP3    H237952   0.679   1.358   6.944
 5465TIP3   OH237953   4.451   1.912   0.111
 5465TIP3    H137954   4.479   1.827   0.143
 5465TIP3    H237955   4.533   1.959   0.093
 5466TIP3   OH237956   4.263   6.653   1.566
 5466TIP3    H137957   4.351   6.617   1.568
 5466TIP3    H237958   4.243   6.666   1.474
 5467TIP3   OH237959   2.142   6.102   1.076
 5467TIP3    H137960   2.208   6.163   1.108
 5467TIP3    H237961   2.064   6.120   1.128
 5468TIP3   OH237962   4.126   4.857   7.400
 5468TIP3    H137963   4.191   4.832   7.334
 5468TIP3    H237964   4.151   4.806   7.478
 5469TIP3   OH237965   0.043   5.413   1.684
 5469TIP3    H137966   0.055   5.345   1.617
 5469TIP3    H237967   0.099   5.485   1.654
 5470TIP3   OH237968   0.520   4.724   7.549
 5470TIP3    H137969   0.426   4.742   7.545
 5470TIP3    H237970   0.548   4.720   7.457
 5471TIP3   OH237971   2.838   2.813   2.639
 5471TIP3    H137972   2.771   2.865   2.682
 5471TIP3    H237973   2.804   2.723   2.642
 5472TIP3   OH237974   5.980   0.722   7.177
 5472TIP3    H137975   5.962   0.647   7.120
 5472TIP3    H237976   5.896   0.741   7.218
 5473TIP3   OH237977   6.284   5.739   1.492
 5473TIP3    H137978   6.317   5.718   1.579
 5473TIP3    H237979   6.192   5.714   1.494
 5474TIP3   OH237980   1.024   6.539   8.506
 5474TIP3    H137981   0.959   6.479   8.471
 5474TIP3    H237982   0.977   6.622   8.515
 5475TIP3   OH237983   6.077   4.726   8.232
 5475TIP3    H137984   6.051   4.640   8.265
 5475TIP3    H237985   6.127   4.708   8.153
 5476TIP3   OH237986   4.864   1.855   7.143
 5476TIP3    H137987   4.955   1.853   7.172
 5476TIP3    H237988   4.862   1.923   7.075
 5477TIP3   OH237989   4.763   6.223   0.448
 5477TIP3    H137990   4.745   6.146   0.502
 5477TIP3    H237991   4.743   6.194   0.359
 5478TIP3   OH237992   2.646   4.138   8.696
 5478TIP3    H137993   2.701   4.216   8.684
 5478TIP3    H237994   2.709   4.069   0.004
 5479TIP3   OH237995   4.025   2.288   7.532
 5479TIP3    H137996   3.973   2.331   7.465
 5479TIP3    H237997   3.988   2.200   7.540
 5480TIP3   OH237998   1.402   6.533   1.038
 5480TIP3    H137999   1.440   6.562   1.121
 5480TIP3    H238000   1.435   6.594   0.973
 5481TIP3   OH238001   5.619   2.582   7.605
 5481TIP3    H138002   5.642   2.543   7.520
 5481TIP3    H238003   5.566   2.516   7.649
 5482TIP3   OH238004   6.607   5.458   7.102
 5482TIP3    H138005   6.621   5.410   7.020
 5482TIP3    H238006   6.536   5.412   7.145
 5483TIP3   OH238007   2.461   0.891   0.846
 5483TIP3    H138008   2.492   0.802   0.860
 5483TIP3    H238009   2.470   0.933   0.932
 5484TIP3   OH238010   6.415   5.560   0.287
 5484TIP3    H138011   6.432   5.514   0.370
 5484TIP3    H238012   6.450   5.648   0.301
 5485TIP3   OH238013   4.673   2.163   0.025
 5485TIP3    H138014   4.718   2.113   8.670
 5485TIP3    H238015   4.614   2.222   8.691
 5486TIP3   OH238016   1.472   6.366   7.074
 5486TIP3    H138017   1.511   6.418   7.003
 5486TIP3    H238018   1.536   6.297   7.090
 5487TIP3   OH238019   0.117   4.977   1.744
 5487TIP3    H138020   0.067   4.916   1.691
 5487TIP3    H238021   0.155   4.923   1.813
 5488TIP3   OH238022   2.049   4.366   7.661
 5488TIP3    H138023   2.079   4.457   7.665
 5488TIP3    H238024   1.997   4.361   7.581
 5489TIP3   OH238025   2.986   1.145   7.220
 5489TIP3    H138026   2.973   1.100   7.303
 5489TIP3    H238027   2.910   1.121   7.168
 5490TIP3   OH238028   4.289   4.231   7.030
 5490TIP3    H138029   4.381   4.226   7.003
 5490TIP3    H238030   4.292   4.223   7.126
 5491TIP3   OH238031   0.529   3.103   8.101
 5491TIP3    H138032   0.485   3.171   8.050
 5491TIP3    H238033   0.600   3.149   8.146
 5492TIP3   OH238034   5.669   4.778   1.462
 5492TIP3    H138035   5.580   4.749   1.446
 5492TIP3    H238036   5.662   4.840   1.535
 5493TIP3   OH238037   0.870   6.087   1.429
 5493TIP3    H138038   0.813   6.158   1.459
 5493TIP3    H238039   0.936   6.131   1.374
 5494TIP3   OH238040   2.858   5.049   0.119
 5494TIP3    H138041   2.935   5.066   0.174
 5494TIP3    H238042   2.848   4.954   0.119
 5495TIP3   OH238043   0.157   6.141   7.705
 5495TIP3    H138044   0.176   6.215   7.647
 5495TIP3    H238045   0.243   6.104   7.725
 5496TIP3   OH238046   4.548   5.248   7.300
 5496TIP3    H138047   4.634   5.274   7.333
 5496TIP3    H238048   4.558   5.156   7.277
 5497TIP3   OH238049   0.803   6.193   8.500
 5497TIP3    H138050   0.732   6.142   8.460
 5497TIP3    H238051   0.861   6.127   8.538
 5498TIP3   OH238052   1.467   5.984   0.325
 5498TIP3    H138053   1.546   5.948   0.286
 5498TIP3    H238054   1.467   6.076   0.298
 5499TIP3   OH238055   1.795   5.994   7.716
 5499TIP3    H138056   1.738   6.038   7.780
 5499TIP3    H238057   1.756   5.907   7.706
 5500TIP3   OH238058   2.057   2.513   8.339
 5500TIP3    H138059   2.110   2.463   8.401
 5500TIP3    H238060   2.121   2.571   8.296
 5501TIP3   OH238061   5.094   6.084   0.995
 5501TIP3    H138062   5.156   6.150   1.026
 5501TIP3    H238063   5.121   6.003   1.039
 5502TIP3   OH238064   2.147   0.268   6.509
 5502TIP3    H138065   2.217   0.272   6.444
 5502TIP3    H238066   2.187   0.222   6.584
 5503TIP3   OH238067   6.010   1.460   8.067
 5503TIP3    H138068   6.101   1.477   8.045
 5503TIP3    H238069   6.013   1.386   8.128
 5504TIP3   OH238070   4.416   2.761   7.491
 5504TIP3    H138071   4.458   2.678   7.467
 5504TIP3    H238072   4.325   2.751   7.463
 5505TIP3   OH238073   4.719   1.266   0.482
 5505TIP3    H138074   4.665   1.203   0.530
 5505TIP3    H238075   4.808   1.250   0.512
 5506TIP3   OH238076   2.217   6.574   0.659
 5506TIP3    H138077   2.222   6.669   0.666
 5506TIP3    H238078   2.139   6.549   0.709
 5507TIP3   OH238079   3.221   6.626   0.695
 5507TIP3    H138080   3.160   6.699   0.693
 5507TIP3    H238081   3.176   6.559   0.747
 5508TIP3   OH238082   6.187   5.322   7.786
 5508TIP3    H138083   6.184   5.273   7.703
 5508TIP3    H238084   6.128   5.396   7.772
 5509TIP3   OH238085   2.272   5.797   7.743
 5509TIP3    H138086   2.180   5.795   7.715
 5509TIP3    H238087   2.285   5.712   7.786
 5510TIP3   OH238088   6.837   3.576   7.745
 5510TIP3    H138089   6.821   3.608   7.834
 5510TIP3    H238090   6.851   3.482   7.757
 5511TIP3   OH238091   1.556   5.215   6.914
 5511TIP3    H138092   1.644   5.179   6.899
 5511TIP3    H238093   1.502   5.138   6.934
 5512TIP3   OH238094   5.970   1.590   6.232
 5512TIP3    H138095   6.012   1.674   6.215
 5512TIP3    H238096   5.981   1.577   6.327
 5513TIP3   OH238097   0.571   4.363   0.039
 5513TIP3    H138098   0.526   4.316   8.682
 5513TIP3    H238099   0.663   4.364   0.012
 5514TIP3   OH238100   1.331   3.663   1.449
 5514TIP3    H138101   1.327   3.667   1.353
 5514TIP3    H238102   1.277   3.587   1.472
 5515TIP3   OH238103   2.907   5.398   1.405
 5515TIP3    H138104   2.812   5.411   1.405
 5515TIP3    H238105   2.942   5.469   1.458
 5516TIP3   OH238106   3.768   5.389   1.148
 5516TIP3    H138107   3.715   5.364   1.072
 5516TIP3    H238108   3.717   5.360   1.223
 5517TIP3   OH238109   3.349   5.665   6.979
 5517TIP3    H138110   3.336   5.571   6.987
 5517TIP3    H238111   3.276   5.703   7.027
 5518TIP3   OH238112   0.151   5.547   8.252
 5518TIP3    H138113   0.235   5.558   8.298
 5518TIP3    H238114   0.088   5.594   8.306
 5519TIP3   OH238115   6.092   4.210   8.110
 5519TIP3    H138116   6.152   4.147   8.070
 5519TIP3    H238117   6.005   4.176   8.089
 5520TIP3   OH238118   3.831   3.175   7.563
 5520TIP3    H138119   3.919   3.142   7.582
 5520TIP3    H238120   3.782   3.160   7.644
 5521TIP3   OH238121   3.899   1.574   2.159
 5521TIP3    H138122   3.898   1.557   2.253
 5521TIP3    H238123   3.808   1.595   2.138
 5522TIP3   OH238124   0.116   2.823   6.488
 5522TIP3    H138125   0.127   2.854   6.399
 5522TIP3    H238126   0.191   2.860   6.536
 5523TIP3   OH238127   1.185   3.152   1.907
 5523TIP3    H138128   1.190   3.084   1.839
 5523TIP3    H238129   1.100   3.138   1.948
 5524TIP3   OH238130   1.295   6.043   1.626
 5524TIP3    H138131   1.335   6.111   1.680
 5524TIP3    H238132   1.264   6.089   1.548
 5525TIP3   OH238133   3.634   3.599   7.877
 5525TIP3    H138134   3.707   3.546   7.908
 5525TIP3    H238135   3.675   3.669   7.826
 5526TIP3   OH238136   1.440   1.249   7.699
 5526TIP3    H138137   1.522   1.245   7.649
 5526TIP3    H238138   1.458   1.312   7.769
 5527TIP3   OH238139   1.097   1.941   6.978
 5527TIP3    H138140   1.023   1.881   6.988
 5527TIP3    H238141   1.174   1.885   6.987
 5528TIP3   OH238142   2.399   6.548   6.689
 5528TIP3    H138143   2.407   6.601   6.768
 5528TIP3    H238144   2.452   6.593   6.624
 5529TIP3   OH238145   6.637   2.108   7.350
 5529TIP3    H138146   6.604   2.030   7.305
 5529TIP3    H238147   6.715   2.133   7.301
 5530TIP3   OH238148   5.422   5.285   8.612
 5530TIP3    H138149   5.487   5.239   8.665
 5530TIP3    H238150   5.435   5.377   8.632
 5531TIP3   OH238151   3.712   2.046   1.629
 5531TIP3    H138152   3.634   2.088   1.592
 5531TIP3    H238153   3.691   1.952   1.628
 5532TIP3   OH238154   5.923   6.141   7.156
 5532TIP3    H138155   5.998   6.107   7.206
 5532TIP3    H238156   5.962   6.207   7.099
 5533TIP3   OH238157   4.229   2.293   0.915
 5533TIP3    H138158   4.158   2.353   0.936
 5533TIP3    H238159   4.296   2.347   0.874
 5534TIP3   OH238160   5.615   0.611   1.279
 5534TIP3    H138161   5.586   0.541   1.338
 5534TIP3    H238162   5.697   0.641   1.315
 5535TIP3   OH238163   2.398   2.109   8.441
 5535TIP3    H138164   2.392   2.065   8.526
 5535TIP3    H238165   2.355   2.049   8.380
 5536TIP3   OH238166   2.605   5.855   8.038
 5536TIP3    H138167   2.602   5.903   8.120
 5536TIP3    H238168   2.561   5.912   7.974
 5537TIP3   OH238169   4.094   1.304   8.560
 5537TIP3    H138170   4.050   1.376   8.605
 5537TIP3    H238171   4.108   1.335   8.471
 5538TIP3   OH238172   2.951   6.351   8.595
 5538TIP3    H138173   3.021   6.291   8.622
 5538TIP3    H238174   2.960   6.358   8.500
 5539TIP3   OH238175   2.168   4.909   7.070
 5539TIP3    H138176   2.096   4.906   7.008
 5539TIP3    H238177   2.240   4.864   7.025
 5540TIP3   OH238178   6.449   4.795   6.840
 5540TIP3    H138179   6.536   4.833   6.829
 5540TIP3    H238180   6.419   4.778   6.751
 5541TIP3   OH238181   0.367   2.423   1.068
 5541TIP3    H138182   0.293   2.419   1.008
 5541TIP3    H238183   0.425   2.353   1.040
 5542TIP3   OH238184   2.775   5.053   7.270
 5542TIP3    H138185   2.870   5.056   7.265
 5542TIP3    H238186   2.748   5.144   7.268
 5543TIP3   OH238187   1.139   2.690   7.872
 5543TIP3    H138188   1.093   2.607   7.863
 5543TIP3    H238189   1.170   2.710   7.784
 5544TIP3   OH238190   5.632   0.016   2.333
 5544TIP3    H138191   5.562   6.822   2.290
 5544TIP3    H238192   5.635   6.837   2.422
 5545TIP3   OH238193   4.939   4.710   7.781
 5545TIP3    H138194   4.857   4.697   7.828
 5545TIP3    H238195   4.931   4.652   7.704
 5546TIP3   OH238196   6.694   4.870   7.679
 5546TIP3    H138197   6.776   4.884   7.632
 5546TIP3    H238198   6.629   4.856   7.609
 5547TIP3   OH238199   3.300   2.538   8.543
 5547TIP3    H138200   3.292   2.576   8.631
 5547TIP3    H238201   3.214   2.552   8.503
 5548TIP3   OH238202   1.735   6.853   7.375
 5548TIP3    H138203   1.674   0.001   7.448
 5548TIP3    H238204   1.748   0.088   7.349
 5549TIP3   OH238205   2.160   5.389   7.947
 5549TIP3    H138206   2.173   5.473   7.989
 5549TIP3    H238207   2.131   5.411   7.858
 5550TIP3   OH238208   5.830   6.405   1.562
 5550TIP3    H138209   5.878   6.409   1.645
 5550TIP3    H238210   5.825   6.496   1.533
 5551TIP3   OH238211   4.981   5.754   1.652
 5551TIP3    H138212   4.948   5.761   1.742
 5551TIP3    H238213   4.939   5.827   1.606
 5552TIP3   OH238214   5.600   2.977   6.665
 5552TIP3    H138215   5.595   2.891   6.706
 5552TIP3    H238216   5.561   2.964   6.578
 5553TIP3   OH238217   2.342   5.719   1.762
 5553TIP3    H138218   2.253   5.754   1.753
 5553TIP3    H238219   2.387   5.783   1.816
 5554TIP3   OH238220   5.909   4.269   7.086
 5554TIP3    H138221   5.928   4.362   7.100
 5554TIP3    H238222   5.986   4.237   7.038
 5555TIP3   OH238223   3.987   6.411   7.275
 5555TIP3    H138224   3.998   6.340   7.211
 5555TIP3    H238225   4.076   6.428   7.306
 5556TIP3   OH238226   5.210   1.548   0.251
 5556TIP3    H138227   5.182   1.498   0.328
 5556TIP3    H238228   5.248   1.483   0.192
 5557TIP3   OH238229   6.844   1.513   0.948
 5557TIP3    H138230   0.028   1.426   0.952
 5557TIP3    H238231   6.751   1.495   0.934
 5558TIP3   OH238232   6.204   5.338   1.352
 5558TIP3    H138233   6.160   5.423   1.353
 5558TIP3    H238234   6.204   5.311   1.260
 5559TIP3   OH238235   1.773   3.602   0.385
 5559TIP3    H138236   1.695   3.630   0.337
 5559TIP3    H238237   1.835   3.674   0.375
 5560TIP3   OH238238   0.180   0.072   7.237
 5560TIP3    H138239   0.165   0.018   7.315
 5560TIP3    H238240   0.219   0.012   7.174
 5561TIP3   OH238241   2.521   3.489   6.285
 5561TIP3    H138242   2.529   3.558   6.220
 5561TIP3    H238243   2.462   3.525   6.351
 5562TIP3   OH238244   3.402   4.871   0.916
 5562TIP3    H138245   3.422   4.932   0.988
 5562TIP3    H238246   3.434   4.786   0.946
 5563TIP3   OH238247   0.720   2.273   1.860
 5563TIP3    H138248   0.774   2.340   1.901
 5563TIP3    H238249   0.669   2.320   1.794
 5564TIP3   OH238250   3.291   1.211   7.191
 5564TIP3    H138251   3.284   1.172   7.278
 5564TIP3    H238252   3.338   1.146   7.139
 5565TIP3   OH238253   0.649   3.827   0.209
 5565TIP3    H138254   0.627   3.833   0.302
 5565TIP3    H238255   0.623   3.912   0.172
 5566TIP3   OH238256   3.055   1.411   1.636
 5566TIP3    H138257   3.010   1.327   1.642
 5566TIP3    H238258   2.996   1.467   1.586
 5567TIP3   OH238259   4.413   2.739   1.554
 5567TIP3    H138260   4.324   2.773   1.556
 5567TIP3    H238261   4.421   2.685   1.633
 5568TIP3   OH238262   2.159   0.912   8.135
 5568TIP3    H138263   2.169   0.903   8.040
 5568TIP3    H238264   2.153   0.823   8.168
 5569TIP3   OH238265   5.332   6.059   8.388
 5569TIP3    H138266   5.317   6.003   8.312
 5569TIP3    H238267   5.246   6.065   8.431
 5570TIP3   OH238268   4.585   2.598   2.536
 5570TIP3    H138269   4.679   2.577   2.541
 5570TIP3    H238270   4.555   2.594   2.627
 5571TIP3   OH238271   2.354   6.278   6.712
 5571TIP3    H138272   2.382   6.369   6.698
 5571TIP3    H238273   2.348   6.241   6.624
 5572TIP3   OH238274   0.626   1.266   7.188
 5572TIP3    H138275   0.590   1.189   7.233
 5572TIP3    H238276   0.552   1.327   7.183
 5573TIP3   OH238277   2.081   2.086   8.488
 5573TIP3    H138278   2.145   2.149   8.453
 5573TIP3    H238279   2.134   2.019   8.531
 5574TIP3   OH238280   3.644   0.952   6.916
 5574TIP3    H138281   3.600   0.904   6.987
 5574TIP3    H238282   3.614   0.909   6.836
 5575TIP3   OH238283   4.605   0.978   1.307
 5575TIP3    H138284   4.542   0.996   1.376
 5575TIP3    H238285   4.683   0.948   1.353
 5576TIP3   OH238286   3.090   3.974   6.244
 5576TIP3    H138287   3.145   4.026   6.186
 5576TIP3    H238288   3.049   3.909   6.187
 5577TIP3   OH238289   6.503   0.319   7.276
 5577TIP3    H138290   6.452   0.255   7.226
 5577TIP3    H238291   6.592   0.284   7.277
 5578TIP3   OH238292   1.269   6.792   7.182
 5578TIP3    H138293   1.259   6.837   7.266
 5578TIP3    H238294   1.327   6.850   7.131
 5579TIP3   OH238295   2.357   3.197   7.073
 5579TIP3    H138296   2.300   3.259   7.117
 5579TIP3    H238297   2.443   3.210   7.113
 5580TIP3   OH238298   0.975   1.804   1.714
 5580TIP3    H138299   0.986   1.817   1.619
 5580TIP3    H238300   0.915   1.874   1.741
 5581TIP3   OH238301   5.773   3.357   7.818
 5581TIP3    H138302   5.847   3.408   7.785
 5581TIP3    H238303   5.705   3.366   7.751
 5582TIP3   OH238304   4.571   2.868   6.451
 5582TIP3    H138305   4.481   2.901   6.440
 5582TIP3    H238306   4.617   2.938   6.498
 5583TIP3   OH238307   6.182   5.461   7.224
 5583TIP3    H138308   6.250   5.414   7.272
 5583TIP3    H238309   6.210   5.552   7.224
 5584TIP3   OH238310   3.766   2.620   1.561
 5584TIP3    H138311   3.748   2.675   1.638
 5584TIP3    H238312   3.723   2.537   1.581
 5585TIP3   OH238313   1.579   3.718   8.392
 5585TIP3    H138314   1.627   3.638   8.414
 5585TIP3    H238315   1.487   3.694   8.401
 5586TIP3   OH238316   0.045   1.359   0.681
 5586TIP3    H138317   0.066   1.305   0.605
 5586TIP3    H238318   6.842   1.426   0.647
 5587TIP3   OH238319   2.653   6.409   0.371
 5587TIP3    H138320   2.747   6.424   0.370
 5587TIP3    H238321   2.643   6.317   0.345
 5588TIP3   OH238322   2.632   4.166   6.740
 5588TIP3    H138323   2.681   4.187   6.661
 5588TIP3    H238324   2.699   4.147   6.806
 5589TIP3   OH238325   4.494   6.240   8.073
 5589TIP3    H138326   4.399   6.232   8.058
 5589TIP3    H238327   4.503   6.319   8.125
 5590TIP3   OH238328   5.097   0.001   0.701
 5590TIP3    H138329   5.036   6.823   0.636
 5590TIP3    H238330   5.122   6.782   0.753
 5591TIP3   OH238331   6.004   5.269   2.600
 5591TIP3    H138332   6.046   5.340   2.650
 5591TIP3    H238333   6.015   5.294   2.509
 5592TIP3   OH238334   1.534   2.509   7.299
 5592TIP3    H138335   1.615   2.456   7.298
 5592TIP3    H238336   1.499   2.500   7.210
 5593TIP3   OH238337   2.854   3.391   0.849
 5593TIP3    H138338   2.919   3.324   0.868
 5593TIP3    H238339   2.793   3.350   0.787
 5594TIP3   OH238340   5.631   0.245   0.540
 5594TIP3    H138341   5.564   0.205   0.595
 5594TIP3    H238342   5.592   0.246   0.452
 5595TIP3   OH238343   1.916   1.807   0.636
 5595TIP3    H138344   1.863   1.727   0.628
 5595TIP3    H238345   1.978   1.788   0.706
 5596TIP3   OH238346   4.302   4.372   7.637
 5596TIP3    H138347   4.340   4.286   7.658
 5596TIP3    H238348   4.230   4.382   7.700
 5597TIP3   OH238349   2.674   6.796   0.156
 5597TIP3    H138350   2.653   0.012   0.097
 5597TIP3    H238351   2.676   6.719   0.099
 5598TIP3   OH238352   6.127   4.891   7.941
 5598TIP3    H138353   6.079   4.875   8.022
 5598TIP3    H238354   6.126   4.808   7.895
 5599TIP3   OH238355   5.117   3.093   1.592
 5599TIP3    H138356   5.153   3.025   1.535
 5599TIP3    H238357   5.034   3.057   1.623
 5600TIP3   OH238358   1.049   4.731   7.879
 5600TIP3    H138359   1.137   4.739   7.842
 5600TIP3    H238360   1.044   4.641   7.911
 5601TIP3   OH238361   3.560   2.623   0.260
 5601TIP3    H138362   3.640   2.644   0.309
 5601TIP3    H238363   3.489   2.656   0.315
 5602TIP3   OH238364   3.289   3.538   0.229
 5602TIP3    H138365   3.263   3.447   0.238
 5602TIP3    H238366   3.257   3.563   0.142
 5603TIP3   OH238367   5.251   5.034   0.347
 5603TIP3    H138368   5.241   5.122   0.384
 5603TIP3    H238369   5.191   4.980   0.399
 5604TIP3   OH238370   3.545   2.894   7.067
 5604TIP3    H138371   3.547   2.815   7.013
 5604TIP3    H238372   3.522   2.862   7.154
 5605TIP3   OH238373   2.979   2.794   1.413
 5605TIP3    H138374   2.900   2.754   1.450
 5605TIP3    H238375   3.046   2.779   1.480
 5606TIP3   OH238376   0.826   6.561   0.075
 5606TIP3    H138377   0.752   6.529   0.025
 5606TIP3    H238378   0.788   6.595   0.156
 5607TIP3   OH238379   1.336   6.792   8.573
 5607TIP3    H138380   1.348   6.725   8.640
 5607TIP3    H238381   1.322   6.743   8.492
 5608TIP3   OH238382   2.535   2.666   8.092
 5608TIP3    H138383   2.524   2.724   8.167
 5608TIP3    H238384   2.612   2.612   8.114
 5609TIP3   OH238385   3.754   0.895   2.549
 5609TIP3    H138386   3.821   0.828   2.559
 5609TIP3    H238387   3.781   0.965   2.608
 5610TIP3   OH238388   2.169   3.259   8.548
 5610TIP3    H138389   2.083   3.217   8.552
 5610TIP3    H238390   2.175   3.308   8.631
 5611TIP3   OH238391   4.055   3.067   7.654
 5611TIP3    H138392   4.099   2.984   7.638
 5611TIP3    H238393   4.087   3.095   7.740
 5612TIP3   OH238394   0.533   3.913   8.446
 5612TIP3    H138395   0.547   3.907   8.351
 5612TIP3    H238396   0.505   3.825   8.471
 5613TIP3   OH238397   5.804   0.068   0.309
 5613TIP3    H138398   5.724   0.099   0.266
 5613TIP3    H238399   5.839   0.001   0.251
 5614TIP3   OH238400   1.913   6.653   2.144
 5614TIP3    H138401   1.842   6.609   2.191
 5614TIP3    H238402   1.890   6.746   2.148
 5615TIP3   OH238403   0.416   4.273   6.613
 5615TIP3    H138404   0.330   4.233   6.609
 5615TIP3    H238405   0.463   4.239   6.537
 5616TIP3   OH238406   1.393   2.741   8.105
 5616TIP3    H138407   1.313   2.717   8.152
 5616TIP3    H238408   1.448   2.782   8.172
 5617TIP3   OH238409   1.623   6.631   1.826
 5617TIP3    H138410   1.557   6.563   1.807
 5617TIP3    H238411   1.706   6.584   1.823
 5618TIP3   OH238412   1.771   5.871   8.528
 5618TIP3    H138413   1.682   5.876   8.494
 5618TIP3    H238414   1.818   5.819   8.462
 5619TIP3   OH238415   0.655   1.515   7.781
 5619TIP3    H138416   0.594   1.501   7.854
 5619TIP3    H238417   0.715   1.582   7.814
 5620TIP3   OH238418   1.828   3.824   7.054
 5620TIP3    H138419   1.790   3.883   6.990
 5620TIP3    H238420   1.915   3.860   7.072
 5621TIP3   OH238421   6.763   3.828   8.645
 5621TIP3    H138422   6.696   3.887   8.679
 5621TIP3    H238423   6.715   3.771   8.585
 5622TIP3   OH238424   0.879   4.443   8.264
 5622TIP3    H138425   0.929   4.525   8.256
 5622TIP3    H238426   0.926   4.381   8.208
 5623TIP3   OH238427   1.911   4.387   6.577
 5623TIP3    H138428   1.902   4.462   6.518
 5623TIP3    H238429   2.003   4.361   6.568
 5624TIP3   OH238430   3.447   4.364   8.023
 5624TIP3    H138431   3.373   4.339   7.967
 5624TIP3    H238432   3.485   4.440   7.979
 5625TIP3   OH238433   6.615   0.330   6.794
 5625TIP3    H138434   6.673   0.297   6.863
 5625TIP3    H238435   6.590   0.417   6.824
 5626TIP3   OH238436   4.734   6.305   1.500
 5626TIP3    H138437   4.826   6.280   1.505
 5626TIP3    H238438   4.733   6.382   1.442
 5627TIP3   OH238439   0.410   1.089   0.235
 5627TIP3    H138440   0.448   1.176   0.221
 5627TIP3    H238441   0.462   1.032   0.179
 5628TIP3   OH238442   2.196   6.810   2.142
 5628TIP3    H138443   2.227   6.759   2.217
 5628TIP3    H238444   2.148   0.026   2.180
 5629TIP3   OH238445   3.844   3.272   1.416
 5629TIP3    H138446   3.778   3.203   1.423
 5629TIP3    H238447   3.804   3.347   1.460
 5630TIP3   OH238448   0.565   0.194   2.392
 5630TIP3    H138449   0.498   0.246   2.437
 5630TIP3    H238450   0.526   0.108   2.381
 5631TIP3   OH238451   0.769   3.658   1.094
 5631TIP3    H138452   0.811   3.571   1.091
 5631TIP3    H238453   0.705   3.655   1.023
 5632TIP3   OH238454   6.534   4.197   6.868
 5632TIP3    H138455   6.445   4.231   6.881
 5632TIP3    H238456   6.587   4.247   6.930
 5633TIP3   OH238457   1.164   0.879   7.203
 5633TIP3    H138458   1.231   0.830   7.250
 5633TIP3    H238459   1.083   0.830   7.219
 5634TIP3   OH238460   3.270   3.111   7.253
 5634TIP3    H138461   3.263   3.177   7.185
 5634TIP3    H238462   3.364   3.098   7.264
 5635TIP3   OH238463   3.227   6.852   0.869
 5635TIP3    H138464   3.162   6.786   0.894
 5635TIP3    H238465   3.288   6.805   0.813
 5636TIP3   OH238466   1.595   3.011   8.532
 5636TIP3    H138467   1.649   2.932   8.531
 5636TIP3    H238468   1.631   3.065   8.461
 5637TIP3   OH238469   6.543   5.487   0.553
 5637TIP3    H138470   6.605   5.559   0.553
 5637TIP3    H238471   6.592   5.413   0.516
 5638TIP3   OH238472   0.279   3.150   7.027
 5638TIP3    H138473   0.335   3.166   6.951
 5638TIP3    H238474   0.324   3.194   7.099
 5639TIP3   OH238475   2.292   2.127   0.926
 5639TIP3    H138476   2.371   2.120   0.979
 5639TIP3    H238477   2.235   2.185   0.976
 5640TIP3   OH238478   2.075   4.236   6.880
 5640TIP3    H138479   2.022   4.315   6.871
 5640TIP3    H238480   2.146   4.247   6.816
 5641TIP3   OH238481   0.951   2.951   7.550
 5641TIP3    H138482   0.940   3.040   7.518
 5641TIP3    H238483   1.009   2.910   7.486
 5642TIP3   OH238484   1.803   6.443   7.877
 5642TIP3    H138485   1.732   6.405   7.825
 5642TIP3    H238486   1.861   6.368   7.896
 5643TIP3   OH238487   2.462   0.975   7.345
 5643TIP3    H138488   2.372   1.006   7.353
 5643TIP3    H238489   2.465   0.931   7.260
 5644TIP3   OH238490   3.358   2.910   8.338
 5644TIP3    H138491   3.409   2.917   8.257
 5644TIP3    H238492   3.405   2.846   8.391
 5645TIP3   OH238493   1.006   4.377   7.872
 5645TIP3    H138494   1.072   4.337   7.929
 5645TIP3    H238495   1.051   4.390   7.788
 5646TIP3   OH238496   5.274   6.262   1.595
 5646TIP3    H138497   5.215   6.330   1.627
 5646TIP3    H238498   5.261   6.189   1.655
 5647TIP3   OH238499   0.343   3.926   0.000
 5647TIP3    H138500   0.257   3.960   8.693
 5647TIP3    H238501   0.404   3.984   8.668
 5648TIP3   OH238502   2.046   0.823   1.315
 5648TIP3    H138503   2.013   0.770   1.242
 5648TIP3    H238504   1.968   0.860   1.355
 5649TIP3   OH238505   2.994   1.540   8.078
 5649TIP3    H138506   3.036   1.532   8.163
 5649TIP3    H238507   3.064   1.570   8.020
 5650TIP3   OH238508   1.511   2.719   8.686
 5650TIP3    H138509   1.509   2.807   8.651
 5650TIP3    H238510   1.529   2.663   8.611
 5651TIP3   OH238511   1.708   2.071   8.198
 5651TIP3    H138512   1.761   2.146   8.173
 5651TIP3    H238513   1.690   2.085   8.291
 5652TIP3   OH238514   6.735   4.516   0.400
 5652TIP3    H138515   6.786   4.580   0.350
 5652TIP3    H238516   6.752   4.537   0.491
 5653TIP3   OH238517   5.073   1.687   1.231
 5653TIP3    H138518   4.984   1.656   1.242
 5653TIP3    H238519   5.114   1.676   1.316
 5654TIP3   OH238520   4.586   2.492   1.578
 5654TIP3    H138521   4.646   2.545   1.526
 5654TIP3    H238522   4.566   2.545   1.655
 5655TIP3   OH238523   0.544   5.161   2.442
 5655TIP3    H138524   0.611   5.204   2.388
 5655TIP3    H238525   0.584   5.151   2.528
 5656TIP3   OH238526   0.282   5.693   0.903
 5656TIP3    H138527   0.312   5.616   0.855
 5656TIP3    H238528   0.286   5.668   0.995
 5657TIP3   OH238529   3.313   3.366   7.098
 5657TIP3    H138530   3.238   3.331   7.049
 5657TIP3    H238531   3.319   3.457   7.071
 5658TIP3   OH238532   5.898   2.676   0.207
 5658TIP3    H138533   5.943   2.759   0.190
 5658TIP3    H238534   5.946   2.638   0.281
 5659TIP3   OH238535   4.053   1.007   7.096
 5659TIP3    H138536   3.962   1.013   7.066
 5659TIP3    H238537   4.104   1.042   7.023
 5660TIP3   OH238538   2.194   5.192   7.129
 5660TIP3    H138539   2.214   5.219   7.039
 5660TIP3    H238540   2.181   5.098   7.124
 5661TIP3   OH238541   6.235   2.811   8.112
 5661TIP3    H138542   6.249   2.832   8.019
 5661TIP3    H238543   6.249   2.717   8.117
 5662TIP3   OH238544   6.000   5.666   8.579
 5662TIP3    H138545   5.947   5.615   8.518
 5662TIP3    H238546   6.037   5.737   8.526
 5663TIP3   OH238547   2.164   2.289   2.282
 5663TIP3    H138548   2.113   2.336   2.216
 5663TIP3    H238549   2.120   2.204   2.289
 5664TIP3   OH238550   6.624   3.196   0.559
 5664TIP3    H138551   6.712   3.161   0.547
 5664TIP3    H238552   6.572   3.151   0.492
 5665TIP3   OH238553   2.747   4.341   7.132
 5665TIP3    H138554   2.818   4.401   7.112
 5665TIP3    H238555   2.781   4.286   7.203
 5666TIP3   OH238556   6.612   4.937   8.520
 5666TIP3    H138557   6.702   4.947   8.549
 5666TIP3    H238558   6.619   4.903   8.431
 5667TIP3   OH238559   1.043   3.453   7.468
 5667TIP3    H138560   0.975   3.387   7.457
 5667TIP3    H238561   1.123   3.402   7.486
 5668TIP3   OH238562   3.921   6.366   1.490
 5668TIP3    H138563   3.851   6.391   1.429
 5668TIP3    H238564   3.980   6.312   1.437
 5669TIP3   OH238565   3.981   6.713   1.520
 5669TIP3    H138566   4.056   6.657   1.501
 5669TIP3    H238567   3.952   6.745   1.435
 5670TIP3   OH238568   6.123   1.228   2.160
 5670TIP3    H138569   6.194   1.251   2.220
 5670TIP3    H238570   6.167   1.184   2.087
 5671TIP3   OH238571   1.545   0.738   1.042
 5671TIP3    H138572   1.633   0.774   1.026
 5671TIP3    H238573   1.499   0.750   0.959
 5672TIP3   OH238574   5.982   2.146   1.793
 5672TIP3    H138575   6.047   2.178   1.730
 5672TIP3    H238576   5.991   2.204   1.868
 5673TIP3   OH238577   2.038   1.372   0.292
 5673TIP3    H138578   2.031   1.305   0.360
 5673TIP3    H238579   2.108   1.430   0.322
 5674TIP3   OH238580   4.403   1.592   6.957
 5674TIP3    H138581   4.365   1.539   6.887
 5674TIP3    H238582   4.485   1.625   6.921
 5675TIP3   OH238583   5.619   6.159   1.724
 5675TIP3    H138584   5.664   6.170   1.640
 5675TIP3    H238585   5.577   6.073   1.717
 5676TIP3   OH238586   3.283   1.736   0.278
 5676TIP3    H138587   3.294   1.690   0.194
 5676TIP3    H238588   3.274   1.666   0.343
 5677TIP3   OH238589   1.832   5.677   1.748
 5677TIP3    H138590   1.768   5.612   1.718
 5677TIP3    H238591   1.885   5.630   1.812
 5678TIP3   OH238592   1.897   4.691   8.568
 5678TIP3    H138593   1.860   4.625   8.510
 5678TIP3    H238594   1.985   4.708   8.533
 5679TIP3   OH238595   5.787   0.393   0.726
 5679TIP3    H138596   5.728   0.427   0.794
 5679TIP3    H238597   5.729   0.346   0.666
 5680TIP3   OH238598   2.435   0.505   8.585
 5680TIP3    H138599   2.529   0.487   8.596
 5680TIP3    H238600   2.422   0.506   8.490
 5681TIP3   OH238601   3.728   2.870   0.473
 5681TIP3    H138602   3.733   2.779   0.503
 5681TIP3    H238603   3.634   2.887   0.464
 5682TIP3   OH238604   5.955   5.988   1.398
 5682TIP3    H138605   6.043   6.011   1.368
 5682TIP3    H238606   5.970   5.934   1.475
 5683TIP3   OH238607   0.971   5.612   6.754
 5683TIP3    H138608   0.894   5.585   6.804
 5683TIP3    H238609   1.024   5.532   6.748
 5684TIP3   OH238610   5.109   4.835   7.393
 5684TIP3    H138611   5.179   4.829   7.327
 5684TIP3    H238612   5.050   4.763   7.371
 5685TIP3   OH238613   4.399   0.480   8.270
 5685TIP3    H138614   4.313   0.522   8.264
 5685TIP3    H238615   4.390   0.402   8.215
 5686TIP3   OH238616   3.130   4.012   1.514
 5686TIP3    H138617   3.082   4.055   1.584
 5686TIP3    H238618   3.064   3.965   1.464
 5687TIP3   OH238619   6.222   1.733   0.464
 5687TIP3    H138620   6.135   1.697   0.446
 5687TIP3    H238621   6.269   1.722   0.381
 5688TIP3   OH238622   0.899   3.910   7.260
 5688TIP3    H138623   0.963   3.926   7.330
 5688TIP3    H238624   0.864   3.823   7.280
 5689TIP3   OH238625   0.062   3.063   6.293
 5689TIP3    H138626   6.836   3.025   6.265
 5689TIP3    H238627   0.038   3.146   6.334
 5690TIP3   OH238628   6.352   4.075   8.049
 5690TIP3    H138629   6.390   4.137   8.111
 5690TIP3    H238630   6.398   4.091   7.967
 5691TIP3   OH238631   0.470   0.167   8.018
 5691TIP3    H138632   0.535   0.108   8.058
 5691TIP3    H238633   0.392   0.112   8.009
 5692TIP3   OH238634   1.682   0.611   0.709
 5692TIP3    H138635   1.626   0.681   0.675
 5692TIP3    H238636   1.759   0.657   0.743
 5693TIP3   OH238637   5.047   5.644   2.376
 5693TIP3    H138638   5.111   5.683   2.317
 5693TIP3    H238639   5.048   5.699   2.454
 5694TIP3   OH238640   2.031   4.352   0.572
 5694TIP3    H138641   2.079   4.321   0.495
 5694TIP3    H238642   1.953   4.297   0.575
 5695TIP3   OH238643   0.462   5.898   6.326
 5695TIP3    H138644   0.436   5.952   6.401
 5695TIP3    H238645   0.555   5.918   6.313
 5696TIP3   OH238646   6.849   3.043   6.670
 5696TIP3    H138647   0.033   2.967   6.630
 5696TIP3    H238648   0.034   3.118   6.627
 5697TIP3   OH238649   0.691   4.894   7.698
 5697TIP3    H138650   0.629   4.958   7.733
 5697TIP3    H238651   0.644   4.850   7.627
 5698TIP3   OH238652   1.447   1.190   1.541
 5698TIP3    H138653   1.393   1.201   1.619
 5698TIP3    H238654   1.525   1.145   1.573
 5699TIP3   OH238655   5.839   5.534   8.388
 5699TIP3    H138656   5.836   5.540   8.293
 5699TIP3    H238657   5.755   5.496   8.412
 5700TIP3   OH238658   0.766   5.619   1.846
 5700TIP3    H138659   0.696   5.681   1.866
 5700TIP3    H238660   0.724   5.552   1.793
 5701TIP3   OH238661   5.492   6.772   8.337
 5701TIP3    H138662   5.547   6.713   8.285
 5701TIP3    H238663   5.404   6.761   8.300
 5702TIP3   OH238664   2.242   5.409   6.198
 5702TIP3    H138665   2.268   5.487   6.247
 5702TIP3    H238666   2.150   5.422   6.178
 5703TIP3   OH238667   3.248   2.707   0.445
 5703TIP3    H138668   3.211   2.779   0.496
 5703TIP3    H238669   3.226   2.629   0.494
 5704TIP3   OH238670   6.435   2.713   0.509
 5704TIP3    H138671   6.511   2.677   0.464
 5704TIP3    H238672   6.369   2.724   0.440
 5705TIP3   OH238673   3.559   6.504   7.773
 5705TIP3    H138674   3.588   6.416   7.799
 5705TIP3    H238675   3.632   6.561   7.798
 5706TIP3   OH238676   5.644   5.586   7.037
 5706TIP3    H138677   5.720   5.577   7.094
 5706TIP3    H238678   5.661   5.525   6.965
 5707TIP3   OH238679   2.940   0.553   1.574
 5707TIP3    H138680   2.860   0.602   1.557
 5707TIP3    H238681   3.006   0.594   1.518
 5708TIP3   OH238682   3.909   1.186   0.741
 5708TIP3    H138683   3.943   1.129   0.672
 5708TIP3    H238684   3.881   1.126   0.810
 5709TIP3   OH238685   6.170   4.802   1.713
 5709TIP3    H138686   6.115   4.727   1.736
 5709TIP3    H238687   6.194   4.788   1.621
 5710TIP3   OH238688   3.475   5.233   0.607
 5710TIP3    H138689   3.417   5.256   0.680
 5710TIP3    H238690   3.519   5.153   0.636
 5711TIP3   OH238691   0.313   3.681   8.061
 5711TIP3    H138692   0.340   3.728   7.982
 5711TIP3    H238693   0.374   3.607   8.066
 5712TIP3   OH238694   5.257   3.309   0.160
 5712TIP3    H138695   5.311   3.373   0.114
 5712TIP3    H238696   5.172   3.314   0.117
 5713TIP3   OH238697   3.140   4.009   0.132
 5713TIP3    H138698   3.163   4.080   0.192
 5713TIP3    H238699   3.215   3.949   0.137
 5714TIP3   OH238700   4.651   6.172   2.177
 5714TIP3    H138701   4.632   6.254   2.131
 5714TIP3    H238702   4.745   6.175   2.193
 5715TIP3   OH238703   3.353   5.575   0.984
 5715TIP3    H138704   3.290   5.619   0.927
 5715TIP3    H238705   3.371   5.637   1.054
 5716TIP3   OH238706   6.707   0.215   8.229
 5716TIP3    H138707   6.726   0.298   8.184
 5716TIP3    H238708   6.642   0.173   8.173
 5717TIP3   OH238709   1.073   3.969   6.230
 5717TIP3    H138710   0.999   3.917   6.201
 5717TIP3    H238711   1.106   3.924   6.307
 5718TIP3   OH238712   4.038   5.514   0.713
 5718TIP3    H138713   3.950   5.523   0.748
 5718TIP3    H238714   4.031   5.447   0.645
 5719TIP3   OH238715   5.027   3.792   0.583
 5719TIP3    H138716   5.083   3.816   0.509
 5719TIP3    H238717   5.022   3.871   0.636
 5720TIP3   OH238718   1.550   0.012   0.635
 5720TIP3    H138719   1.475   0.027   0.692
 5720TIP3    H238720   1.606   0.089   0.648
 5721TIP3   OH238721   2.297   1.744   8.419
 5721TIP3    H138722   2.205   1.719   8.406
 5721TIP3    H238723   2.325   1.775   8.333
 5722TIP3   OH238724   3.198   1.783   8.175
 5722TIP3    H138725   3.113   1.775   8.219
 5722TIP3    H238726   3.229   1.870   8.199
 5723TIP3   OH238727   1.063   1.917   1.003
 5723TIP3    H138728   1.079   1.847   1.066
 5723TIP3    H238729   1.099   1.995   1.044
 5724TIP3   OH238730   4.690   0.645   1.335
 5724TIP3    H138731   4.758   0.645   1.402
 5724TIP3    H238732   4.614   0.606   1.378
 5725TIP3   OH238733   6.305   4.838   8.385
 5725TIP3    H138734   6.300   4.933   8.391
 5725TIP3    H238735   6.225   4.812   8.338
 5726TIP3   OH238736   4.296   1.167   2.088
 5726TIP3    H138737   4.387   1.153   2.115
 5726TIP3    H238738   4.245   1.157   2.168
 5727TIP3   OH238739   4.028   1.449   0.784
 5727TIP3    H138740   4.080   1.439   0.705
 5727TIP3    H238741   3.994   1.362   0.802
 5728TIP3   OH238742   3.215   1.685   7.205
 5728TIP3    H138743   3.206   1.591   7.221
 5728TIP3    H238744   3.183   1.698   7.116
 5729TIP3   OH238745   2.179   0.126   7.006
 5729TIP3    H138746   2.158   0.043   7.049
 5729TIP3    H238747   2.099   0.178   7.011
 5730TIP3   OH238748   3.413   3.888   7.198
 5730TIP3    H138749   3.395   3.926   7.112
 5730TIP3    H238750   3.381   3.954   7.261
 5731TIP3   OH238751   3.372   0.988   7.069
 5731TIP3    H138752   3.336   0.961   6.984
 5731TIP3    H238753   3.431   0.917   7.094
 5732TIP3   OH238754   4.098   4.989   6.909
 5732TIP3    H138755   4.097   5.027   6.822
 5732TIP3    H238756   4.156   4.913   6.902
 5733TIP3   OH238757   6.567   0.780   8.133
 5733TIP3    H138758   6.584   0.706   8.075
 5733TIP3    H238759   6.586   0.857   8.080
 5734TIP3   OH238760   3.845   6.387   2.049
 5734TIP3    H138761   3.783   6.370   2.121
 5734TIP3    H238762   3.916   6.324   2.064
 5735TIP3   OH238763   6.317   2.413   0.892
 5735TIP3    H138764   6.231   2.419   0.851
 5735TIP3    H238765   6.377   2.450   0.827
 5736TIP3   OH238766   3.019   3.145   2.334
 5736TIP3    H138767   3.033   3.218   2.394
 5736TIP3    H238768   3.015   3.068   2.391
 5737TIP3   OH238769   3.918   1.689   1.058
 5737TIP3    H138770   3.833   1.696   1.103
 5737TIP3    H238771   3.895   1.667   0.968
 5738TIP3   OH238772   4.279   2.970   0.136
 5738TIP3    H138773   4.345   2.908   0.165
 5738TIP3    H238774   4.263   2.948   0.044
 5739TIP3   OH238775   1.441   0.320   0.339
 5739TIP3    H138776   1.402   0.390   0.391
 5739TIP3    H238777   1.422   0.344   0.248
 5740TIP3   OH238778   4.905   2.517   1.545
 5740TIP3    H138779   4.869   2.519   1.633
 5740TIP3    H238780   4.865   2.441   1.504
 5741TIP3   OH238781   1.966   2.001   0.058
 5741TIP3    H138782   1.998   2.007   8.681
 5741TIP3    H238783   2.032   2.047   0.110
 5742TIP3   OH238784   2.246   5.638   8.613
 5742TIP3    H138785   2.271   5.569   8.674
 5742TIP3    H238786   2.207   5.706   8.668
 5743TIP3   OH238787   1.595   3.301   1.409
 5743TIP3    H138788   1.528   3.301   1.476
 5743TIP3    H238789   1.665   3.246   1.444
 5744TIP3   OH238790   2.947   5.986   1.636
 5744TIP3    H138791   2.954   6.077   1.664
 5744TIP3    H238792   3.026   5.944   1.670
 5745TIP3   OH238793   6.477   0.244   1.175
 5745TIP3    H138794   6.534   0.292   1.235
 5745TIP3    H238795   6.479   0.295   1.094
 5746TIP3   OH238796   1.732   5.932   6.539
 5746TIP3    H138797   1.648   5.896   6.567
 5746TIP3    H238798   1.793   5.859   6.545
 5747TIP3   OH238799   2.419   2.412   8.220
 5747TIP3    H138800   2.428   2.508   8.217
 5747TIP3    H238801   2.420   2.391   8.313
 5748TIP3   OH238802   6.617   2.379   7.170
 5748TIP3    H138803   6.656   2.444   7.229
 5748TIP3    H238804   6.531   2.362   7.207
 5749TIP3   OH238805   2.038   3.736   0.803
 5749TIP3    H138806   1.983   3.739   0.882
 5749TIP3    H238807   1.994   3.675   0.745
 5750TIP3   OH238808   6.755   5.161   6.764
 5750TIP3    H138809   6.842   5.157   6.723
 5750TIP3    H238810   6.737   5.255   6.770
 5751TIP3   OH238811   4.684   6.063   8.212
 5751TIP3    H138812   4.648   6.149   8.232
 5751TIP3    H238813   4.700   6.065   8.117
 5752TIP3   OH238814   6.360   4.632   8.576
 5752TIP3    H138815   6.336   4.707   8.521
 5752TIP3    H238816   6.449   4.651   8.604
 5753TIP3   OH238817   0.098   4.029   8.676
 5753TIP3    H138818   0.026   3.969   8.660
 5753TIP3    H238819   0.104   4.035   0.058
 5754TIP3   OH238820   2.160   1.509   7.822
 5754TIP3    H138821   2.229   1.505   7.755
 5754TIP3    H238822   2.206   1.532   7.903
 5755TIP3   OH238823   1.591   4.177   1.485
 5755TIP3    H138824   1.594   4.084   1.462
 5755TIP3    H238825   1.506   4.207   1.452
 5756TIP3   OH238826   3.269   4.395   1.884
 5756TIP3    H138827   3.294   4.446   1.807
 5756TIP3    H238828   3.226   4.458   1.942
 5757TIP3   OH238829   3.672   1.529   0.105
 5757TIP3    H138830   3.659   1.623   0.117
 5757TIP3    H238831   3.642   1.491   0.188
 5758TIP3   OH238832   1.444   4.657   8.371
 5758TIP3    H138833   1.510   4.700   8.425
 5758TIP3    H238834   1.477   4.568   8.360
 5759TIP3   OH238835   1.962   5.157   2.334
 5759TIP3    H138836   1.879   5.147   2.380
 5759TIP3    H238837   2.011   5.222   2.384
 5760TIP3   OH238838   2.799   1.316   8.664
 5760TIP3    H138839   2.750   1.373   0.010
 5760TIP3    H238840   2.890   1.321   8.695
 5761TIP3   OH238841   1.913   4.426   0.023
 5761TIP3    H138842   1.882   4.446   8.648
 5761TIP3    H238843   1.970   4.350   0.012
 5762TIP3   OH238844   1.854   1.837   8.195
 5762TIP3    H138845   1.801   1.916   8.186
 5762TIP3    H238846   1.878   1.813   8.106
 5763TIP3   OH238847   4.593   5.703   7.887
 5763TIP3    H138848   4.595   5.738   7.976
 5763TIP3    H238849   4.590   5.781   7.831
 5764TIP3   OH238850   5.502   5.172   6.674
 5764TIP3    H138851   5.490   5.140   6.585
 5764TIP3    H238852   5.415   5.199   6.702
 5765TIP3   OH238853   4.820   5.697   8.325
 5765TIP3    H138854   4.743   5.678   8.271
 5765TIP3    H238855   4.893   5.692   8.264
 5766TIP3   OH238856   6.824   1.953   7.680
 5766TIP3    H138857   6.847   1.911   7.763
 5766TIP3    H238858   6.743   2.000   7.699
 5767TIP3   OH238859   3.905   3.536   0.911
 5767TIP3    H138860   3.895   3.470   0.842
 5767TIP3    H238861   3.992   3.573   0.896
 5768TIP3   OH238862   1.975   6.153   2.062
 5768TIP3    H138863   1.916   6.224   2.035
 5768TIP3    H238864   1.984   6.165   2.157
 5769TIP3   OH238865   0.544   3.062   8.505
 5769TIP3    H138866   0.618   3.122   8.511
 5769TIP3    H238867   0.538   3.040   8.412
 5770TIP3   OH238868   2.669   4.111   0.316
 5770TIP3    H138869   2.703   4.052   0.248
 5770TIP3    H238870   2.575   4.119   0.296
 5771TIP3   OH238871   3.521   5.453   0.188
 5771TIP3    H138872   3.476   5.413   0.262
 5771TIP3    H238873   3.451   5.496   0.138
 5772TIP3   OH238874   0.489   6.018   0.540
 5772TIP3    H138875   0.577   6.004   0.505
 5772TIP3    H238876   0.491   6.107   0.574
 5773TIP3   OH238877   6.575   3.718   2.286
 5773TIP3    H138878   6.589   3.638   2.336
 5773TIP3    H238879   6.659   3.734   2.243
 5774TIP3   OH238880   6.105   2.366   7.851
 5774TIP3    H138881   6.014   2.355   7.876
 5774TIP3    H238882   6.105   2.352   7.756
 5775TIP3   OH238883   4.788   6.817   2.595
 5775TIP3    H138884   4.700   6.826   2.558
 5775TIP3    H238885   4.820   0.051   2.603
 5776TIP3   OH238886   4.411   0.505   6.783
 5776TIP3    H138887   4.501   0.473   6.788
 5776TIP3    H238888   4.420   0.594   6.748
 5777TIP3   OH238889   1.129   2.337   7.463
 5777TIP3    H138890   1.078   2.338   7.544
 5777TIP3    H238891   1.080   2.280   7.404
 5778TIP3   OH238892   2.841   5.011   7.680
 5778TIP3    H138893   2.748   4.998   7.699
 5778TIP3    H238894   2.884   4.932   7.714
 5779TIP3   OH238895   1.054   5.287   1.657
 5779TIP3    H138896   1.115   5.224   1.620
 5779TIP3    H238897   0.998   5.235   1.715
 5780TIP3   OH238898   5.682   2.790   2.275
 5780TIP3    H138899   5.757   2.735   2.256
 5780TIP3    H238900   5.625   2.736   2.330
 5781TIP3   OH238901   0.943   1.241   8.216
 5781TIP3    H138902   1.028   1.252   8.257
 5781TIP3    H238903   0.887   1.307   8.257
 5782TIP3   OH238904   0.548   2.201   1.056
 5782TIP3    H138905   0.628   2.227   1.010
 5782TIP3    H238906   0.557   2.237   1.144
 5783TIP3   OH238907   2.162   6.823   0.349
 5783TIP3    H138908   2.085   0.002   0.394
 5783TIP3    H238909   2.196   0.040   0.298
 5784TIP3   OH238910   6.578   0.750   7.718
 5784TIP3    H138911   6.669   0.770   7.694
 5784TIP3    H238912   6.527   0.823   7.682
 5785TIP3   OH238913   2.308   2.950   1.887
 5785TIP3    H138914   2.348   2.954   1.974
 5785TIP3    H238915   2.223   2.993   1.898
 5786TIP3   OH238916   0.064   2.486   7.696
 5786TIP3    H138917   6.832   2.522   7.688
 5786TIP3    H238918   0.051   2.403   7.743
 5787TIP3   OH238919   5.038   2.317   7.436
 5787TIP3    H138920   5.101   2.389   7.435
 5787TIP3    H238921   5.038   2.287   7.527
 5788TIP3   OH238922   2.369   0.262   6.299
 5788TIP3    H138923   2.428   0.189   6.282
 5788TIP3    H238924   2.324   0.277   6.216
 5789TIP3   OH238925   4.707   1.251   7.217
 5789TIP3    H138926   4.724   1.253   7.312
 5789TIP3    H238927   4.713   1.158   7.194
 5790TIP3   OH238928   3.844   2.781   0.795
 5790TIP3    H138929   3.832   2.703   0.741
 5790TIP3    H238930   3.933   2.810   0.777
 5791TIP3   OH238931   3.302   2.309   0.652
 5791TIP3    H138932   3.293   2.214   0.662
 5791TIP3    H238933   3.307   2.342   0.742
 5792TIP3   OH238934   5.121   4.235   1.135
 5792TIP3    H138935   5.131   4.292   1.211
 5792TIP3    H238936   5.180   4.162   1.152
 5793TIP3   OH238937   5.060   0.243   8.362
 5793TIP3    H138938   5.096   0.318   8.315
 5793TIP3    H238939   5.020   0.280   8.440
 5794TIP3   OH238940   1.740   4.194   8.256
 5794TIP3    H138941   1.702   4.161   8.175
 5794TIP3    H238942   1.703   4.138   8.324
 5795TIP3   OH238943   2.354   3.603   7.409
 5795TIP3    H138944   2.415   3.628   7.340
 5795TIP3    H238945   2.404   3.543   7.464
 5796TIP3   OH238946   3.479   4.954   7.365
 5796TIP3    H138947   3.390   4.921   7.376
 5796TIP3    H238948   3.468   5.035   7.315
 5797TIP3   OH238949   1.154   4.868   0.706
 5797TIP3    H138950   1.205   4.923   0.766
 5797TIP3    H238951   1.111   4.931   0.648
 5798TIP3   OH238952   0.039   0.598   6.927
 5798TIP3    H138953   0.012   0.507   6.938
 5798TIP3    H238954   0.074   0.624   7.012
 5799TIP3   OH238955   1.907   2.575   0.003
 5799TIP3    H138956   1.853   2.585   0.081
 5799TIP3    H238957   1.996   2.563   0.037
 5800TIP3   OH238958   3.401   4.489   8.511
 5800TIP3    H138959   3.408   4.458   8.420
 5800TIP3    H238960   3.410   4.584   8.505
 5801TIP3   OH238961   4.285   3.448   7.179
 5801TIP3    H138962   4.193   3.465   7.157
 5801TIP3    H238963   4.286   3.448   7.275
 5802TIP3   OH238964   5.790   4.132   7.810
 5802TIP3    H138965   5.859   4.197   7.818
 5802TIP3    H238966   5.824   4.068   7.748
 5803TIP3   OH238967   1.943   3.809   0.348
 5803TIP3    H138968   1.903   3.884   0.303
 5803TIP3    H238969   1.989   3.849   0.422
 5804TIP3   OH238970   1.324   0.197   8.574
 5804TIP3    H138971   1.348   0.104   8.578
 5804TIP3    H238972   1.256   0.202   8.507
 5805TIP3   OH238973   6.172   4.501   0.012
 5805TIP3    H138974   6.151   4.570   0.076
 5805TIP3    H238975   6.234   4.542   8.666
 5806TIP3   OH238976   0.611   5.823   2.224
 5806TIP3    H138977   0.567   5.882   2.285
 5806TIP3    H238978   0.658   5.881   2.163
 5807TIP3   OH238979   6.501   1.574   7.254
 5807TIP3    H138980   6.511   1.600   7.345
 5807TIP3    H238981   6.590   1.578   7.218
 5808TIP3   OH238982   2.534   3.976   6.435
 5808TIP3    H138983   2.491   4.041   6.379
 5808TIP3    H238984   2.584   3.921   6.375
 5809TIP3   OH238985   4.434   2.134   7.471
 5809TIP3    H138986   4.508   2.076   7.487
 5809TIP3    H238987   4.403   2.158   7.559
 5810TIP3   OH238988   0.323   1.181   6.202
 5810TIP3    H138989   0.397   1.130   6.235
 5810TIP3    H238990   0.309   1.248   6.269
 5811TIP3   OH238991   4.260   4.942   2.055
 5811TIP3    H138992   4.355   4.936   2.065
 5811TIP3    H238993   4.225   4.892   2.129
 5812TIP3   OH238994   2.432   5.371   2.100
 5812TIP3    H138995   2.344   5.408   2.094
 5812TIP3    H238996   2.423   5.282   2.069
 5813TIP3   OH238997   0.838   4.245   7.180
 5813TIP3    H138998   0.765   4.229   7.120
 5813TIP3    H238999   0.810   4.321   7.231
 5814TIP3   OH239000   1.052   2.907   6.904
 5814TIP3    H139001   1.020   2.823   6.870
 5814TIP3    H239002   1.134   2.922   6.857
 5815TIP3   OH239003   4.524   5.593   0.959
 5815TIP3    H139004   4.500   5.618   1.048
 5815TIP3    H239005   4.444   5.558   0.921
 5816TIP3   OH239006   5.082   2.470   0.861
 5816TIP3    H139007   5.133   2.543   0.827
 5816TIP3    H239008   5.103   2.466   0.954
 5817TIP3   OH239009   6.628   1.581   1.377
 5817TIP3    H139010   6.534   1.599   1.366
 5817TIP3    H239011   6.668   1.617   1.298
 5818TIP3   OH239012   5.372   4.615   7.359
 5818TIP3    H139013   5.388   4.709   7.348
 5818TIP3    H239014   5.459   4.577   7.369
 5819TIP3   OH239015   6.054   2.901   0.054
 5819TIP3    H139016   6.018   2.989   0.048
 5819TIP3    H239017   6.065   2.873   8.677
 5820TIP3   OH239018   4.932   4.871   0.908
 5820TIP3    H139019   4.902   4.780   0.910
 5820TIP3    H239020   4.937   4.897   1.001
 5821TIP3   OH239021   5.186   3.522   0.315
 5821TIP3    H139022   5.244   3.573   0.371
 5821TIP3    H239023   5.244   3.464   0.266
 5822TIP3   OH239024   3.424   1.509   6.955
 5822TIP3    H139025   3.473   1.562   7.018
 5822TIP3    H239026   3.488   1.485   6.889
 5823TIP3   OH239027   3.335   5.022   2.306
 5823TIP3    H139028   3.375   4.987   2.226
 5823TIP3    H239029   3.360   4.960   2.374
 5824TIP3   OH239030   3.929   6.055   7.165
 5824TIP3    H139031   3.992   5.994   7.204
 5824TIP3    H239032   3.927   6.031   7.073
 5825TIP3   OH239033   6.531   4.764   6.351
 5825TIP3    H139034   6.544   4.845   6.400
 5825TIP3    H239035   6.619   4.732   6.333
 5826TIP3   OH239036   1.350   3.156   0.435
 5826TIP3    H139037   1.302   3.085   0.478
 5826TIP3    H239038   1.312   3.236   0.472
 5827TIP3   OH239039   1.391   2.763   1.369
 5827TIP3    H139040   1.421   2.763   1.278
 5827TIP3    H239041   1.468   2.789   1.420
 5828TIP3   OH239042   6.646   3.309   1.446
 5828TIP3    H139043   6.695   3.247   1.392
 5828TIP3    H239044   6.646   3.270   1.533
 5829TIP3   OH239045   2.896   2.897   7.497
 5829TIP3    H139046   2.947   2.827   7.455
 5829TIP3    H239047   2.843   2.933   7.426
 5830TIP3   OH239048   1.840   2.688   0.450
 5830TIP3    H139049   1.851   2.593   0.443
 5830TIP3    H239050   1.799   2.714   0.367
 5831TIP3   OH239051   4.541   4.965   0.986
 5831TIP3    H139052   4.518   4.960   0.893
 5831TIP3    H239053   4.558   5.058   1.001
 5832TIP3   OH239054   6.618   6.855   7.242
 5832TIP3    H139055   6.565   0.040   7.175
 5832TIP3    H239056   6.696   6.824   7.196
 5833TIP3   OH239057   5.717   0.416   8.245
 5833TIP3    H139058   5.686   0.339   8.292
 5833TIP3    H239059   5.656   0.486   8.268
 5834TIP3   OH239060   6.343   1.550   7.702
 5834TIP3    H139061   6.344   1.606   7.780
 5834TIP3    H239062   6.345   1.461   7.738
 5835TIP3   OH239063   6.839   0.938   0.550
 5835TIP3    H139064   0.058   0.892   0.513
 5835TIP3    H239065   6.851   1.029   0.523
 5836TIP3   OH239066   5.539   0.587   0.565
 5836TIP3    H139067   5.512   0.526   0.634
 5836TIP3    H239068   5.634   0.579   0.562
 5837TIP3   OH239069   4.816   6.218   7.023
 5837TIP3    H139070   4.732   6.175   7.008
 5837TIP3    H239071   4.840   6.255   6.938
 5838TIP3   OH239072   5.901   6.679   7.245
 5838TIP3    H139073   5.937   6.670   7.157
 5838TIP3    H239074   5.960   6.628   7.300
 5839TIP3   OH239075   5.168   5.418   1.205
 5839TIP3    H139076   5.199   5.439   1.293
 5839TIP3    H239077   5.244   5.379   1.162
 5840TIP3   OH239078   1.662   6.139   1.572
 5840TIP3    H139079   1.706   6.075   1.516
 5840TIP3    H239080   1.660   6.098   1.659
 5841TIP3   OH239081   2.715   5.061   1.830
 5841TIP3    H139082   2.648   5.062   1.898
 5841TIP3    H239083   2.715   5.150   1.795
 5842TIP3   OH239084   6.421   4.988   8.123
 5842TIP3    H139085   6.437   5.037   8.204
 5842TIP3    H239086   6.396   4.900   8.153
 5843TIP3   OH239087   5.627   3.665   7.102
 5843TIP3    H139088   5.718   3.673   7.076
 5843TIP3    H239089   5.586   3.611   7.034
 5844TIP3   OH239090   2.114   3.501   1.660
 5844TIP3    H139091   2.027   3.478   1.627
 5844TIP3    H239092   2.113   3.475   1.751
 5845TIP3   OH239093   6.423   5.791   0.512
 5845TIP3    H139094   6.420   5.843   0.593
 5845TIP3    H239095   6.332   5.772   0.492
 5846TIP3   OH239096   0.851   2.686   7.104
 5846TIP3    H139097   0.806   2.626   7.163
 5846TIP3    H239098   0.937   2.646   7.090
 5847TIP3   OH239099   6.752   4.609   0.966
 5847TIP3    H139100   6.787   4.522   0.984
 5847TIP3    H239101   6.662   4.593   0.936
 5848TIP3   OH239102   0.452   6.475   0.987
 5848TIP3    H139103   0.477   6.476   0.895
 5848TIP3    H239104   0.357   6.491   0.985
 5849TIP3   OH239105   0.977   1.975   8.598
 5849TIP3    H139106   0.997   1.976   8.504
 5849TIP3    H239107   1.062   1.970   8.641
 5850TIP3   OH239108   6.834   1.090   8.279
 5850TIP3    H139109   6.760   1.141   8.311
 5850TIP3    H239110   0.024   1.063   8.359
 5851TIP3   OH239111   6.363   1.942   7.092
 5851TIP3    H139112   6.449   1.921   7.128
 5851TIP3    H239113   6.336   1.864   7.045
 5852TIP3   OH239114   5.576   5.127   8.345
 5852TIP3    H139115   5.485   5.149   8.326
 5852TIP3    H239116   5.622   5.138   8.261
 5853TIP3   OH239117   0.293   2.386   1.387
 5853TIP3    H139118   0.298   2.482   1.381
 5853TIP3    H239119   0.277   2.369   1.479
 5854TIP3   OH239120   3.259   1.731   2.002
 5854TIP3    H139121   3.268   1.736   2.097
 5854TIP3    H239122   3.186   1.790   1.983
 5855TIP3   OH239123   1.476   5.295   2.187
 5855TIP3    H139124   1.456   5.216   2.136
 5855TIP3    H239125   1.571   5.302   2.184
 5856TIP3   OH239126   4.022   2.518   1.614
 5856TIP3    H139127   3.944   2.541   1.563
 5856TIP3    H239128   4.006   2.555   1.701
 5857TIP3   OH239129   6.540   2.751   1.489
 5857TIP3    H139130   6.466   2.790   1.443
 5857TIP3    H239131   6.550   2.804   1.568
 5858TIP3   OH239132   0.613   4.515   8.184
 5858TIP3    H139133   0.689   4.493   8.130
 5858TIP3    H239134   0.598   4.608   8.167
 5859TIP3   OH239135   1.292   5.561   8.502
 5859TIP3    H139136   1.296   5.537   8.409
 5859TIP3    H239137   1.371   5.524   8.540
 5860TIP3   OH239138   6.485   5.307   1.628
 5860TIP3    H139139   6.547   5.235   1.617
 5860TIP3    H239140   6.435   5.284   1.706
 5861TIP3   OH239141   0.719   5.425   1.675
 5861TIP3    H139142   0.739   5.342   1.632
 5861TIP3    H239143   0.646   5.404   1.734
 5862TIP3   OH239144   5.260   0.029   0.310
 5862TIP3    H139145   5.260   6.841   0.395
 5862TIP3    H239146   5.310   6.827   0.252
 5863TIP3   OH239147   2.648   5.671   7.604
 5863TIP3    H139148   2.623   5.643   7.692
 5863TIP3    H239149   2.595   5.750   7.588
 5864TIP3   OH239150   4.004   2.256   2.123
 5864TIP3    H139151   3.965   2.341   2.106
 5864TIP3    H239152   3.983   2.237   2.214
 5865TIP3   OH239153   5.734   5.952   8.462
 5865TIP3    H139154   5.680   5.922   8.390
 5865TIP3    H239155   5.725   5.884   8.529
 5866TIP3   OH239156   5.442   0.420   7.696
 5866TIP3    H139157   5.351   0.391   7.690
 5866TIP3    H239158   5.484   0.378   7.620
 5867TIP3   OH239159   3.459   2.366   2.580
 5867TIP3    H139160   3.544   2.327   2.596
 5867TIP3    H239161   3.403   2.292   2.557
 5868TIP3   OH239162   4.344   0.726   1.461
 5868TIP3    H139163   4.320   0.814   1.429
 5868TIP3    H239164   4.341   0.671   1.383
 5869TIP3   OH239165   3.777   5.304   8.465
 5869TIP3    H139166   3.851   5.304   8.526
 5869TIP3    H239167   3.704   5.269   8.516
 5870TIP3   OH239168   5.218   2.579   7.803
 5870TIP3    H139169   5.150   2.645   7.814
 5870TIP3    H239170   5.188   2.506   7.858
 5871TIP3   OH239171   3.781   1.240   1.128
 5871TIP3    H139172   3.793   1.164   1.072
 5871TIP3    H239173   3.716   1.294   1.083
 5872TIP3   OH239174   6.571   3.195   8.526
 5872TIP3    H139175   6.547   3.267   8.585
 5872TIP3    H239176   6.489   3.172   8.482
 5873TIP3   OH239177   3.129   5.471   6.742
 5873TIP3    H139178   3.097   5.559   6.763
 5873TIP3    H239179   3.214   5.465   6.786
 5874TIP3   OH239180   1.737   4.862   7.628
 5874TIP3    H139181   1.743   4.767   7.616
 5874TIP3    H239182   1.825   4.894   7.607
 5875TIP3   OH239183   5.934   0.600   6.698
 5875TIP3    H139184   5.903   0.519   6.657
 5875TIP3    H239185   5.979   0.646   6.627
 5876TIP3   OH239186   2.018   4.916   7.625
 5876TIP3    H139187   2.016   5.010   7.607
 5876TIP3    H239188   2.085   4.882   7.566
 5877TIP3   OH239189   6.284   0.918   0.647
 5877TIP3    H139190   6.232   0.911   0.728
 5877TIP3    H239191   6.249   0.849   0.591
 5878TIP3   OH239192   2.638   5.269   1.632
 5878TIP3    H139193   2.729   5.297   1.629
 5878TIP3    H239194   2.588   5.351   1.625
 5879TIP3   OH239195   2.805   1.025   0.440
 5879TIP3    H139196   2.749   1.001   0.514
 5879TIP3    H239197   2.798   0.951   0.380
 5880TIP3   OH239198   6.263   3.797   0.992
 5880TIP3    H139199   6.264   3.703   0.975
 5880TIP3    H239200   6.348   3.815   1.034
 5881TIP3   OH239201   6.461   2.517   0.701
 5881TIP3    H139202   6.423   2.599   0.668
 5881TIP3    H239203   6.521   2.489   0.632
 5882TIP3   OH239204   4.758   1.271   7.470
 5882TIP3    H139205   4.735   1.205   7.535
 5882TIP3    H239206   4.836   1.314   7.506
 5883TIP3   OH239207   2.767   2.873   0.467
 5883TIP3    H139208   2.768   2.797   0.410
 5883TIP3    H239209   2.676   2.882   0.496
 5884TIP3   OH239210   3.805   6.524   7.016
 5884TIP3    H139211   3.777   6.445   7.063
 5884TIP3    H239212   3.891   6.544   7.053
 5885TIP3   OH239213   4.013   6.504   2.386
 5885TIP3    H139214   3.967   6.559   2.449
 5885TIP3    H239215   3.953   6.433   2.366
 5886TIP3   OH239216   5.137   0.248   0.787
 5886TIP3    H139217   5.136   0.230   0.881
 5886TIP3    H239218   5.101   0.170   0.747
 5887TIP3   OH239219   4.246   1.141   1.813
 5887TIP3    H139220   4.285   1.199   1.747
 5887TIP3    H239221   4.248   1.192   1.894
 5888TIP3   OH239222   5.813   3.895   6.374
 5888TIP3    H139223   5.814   3.813   6.323
 5888TIP3    H239224   5.757   3.877   6.449
 5889TIP3   OH239225   2.438   4.219   0.194
 5889TIP3    H139226   2.385   4.297   0.209
 5889TIP3    H239227   2.481   4.236   0.110
 5890TIP3   OH239228   1.291   2.176   0.823
 5890TIP3    H139229   1.301   2.137   0.910
 5890TIP3    H239230   1.302   2.102   0.763
 5891TIP3   OH239231   6.616   1.078   1.868
 5891TIP3    H139232   6.658   0.993   1.884
 5891TIP3    H239233   6.549   1.084   1.936
 5892TIP3   OH239234   0.023   6.711   8.688
 5892TIP3    H139235   6.829   6.775   0.024
 5892TIP3    H239236   0.023   6.632   0.029
 5893TIP3   OH239237   5.928   2.527   1.744
 5893TIP3    H139238   5.888   2.454   1.696
 5893TIP3    H239239   5.877   2.604   1.719
 5894TIP3   OH239240   4.667   5.479   1.909
 5894TIP3    H139241   4.670   5.390   1.945
 5894TIP3    H239242   4.731   5.479   1.838
 5895TIP3   OH239243   5.432   5.831   1.305
 5895TIP3    H139244   5.527   5.827   1.290
 5895TIP3    H239245   5.418   5.917   1.345
 5896TIP3   OH239246   3.453   4.562   6.622
 5896TIP3    H139247   3.423   4.635   6.569
 5896TIP3    H239248   3.398   4.565   6.700
 5897TIP3   OH239249   6.402   4.979   1.657
 5897TIP3    H139250   6.475   5.025   1.697
 5897TIP3    H239251   6.350   4.947   1.731
 5898TIP3   OH239252   4.322   6.504   8.578
 5898TIP3    H139253   4.286   6.418   8.598
 5898TIP3    H239254   4.251   6.551   8.534
 5899TIP3   OH239255   1.368   3.586   1.158
 5899TIP3    H139256   1.300   3.555   1.098
 5899TIP3    H239257   1.447   3.538   1.134
 5900TIP3   OH239258   6.355   1.604   0.660
 5900TIP3    H139259   6.431   1.651   0.694
 5900TIP3    H239260   6.330   1.653   0.581
 5901TIP3   OH239261   1.953   4.630   7.683
 5901TIP3    H139262   1.947   4.714   7.637
 5901TIP3    H239263   2.019   4.645   7.751
 5902TIP3   OH239264   2.543   4.722   7.059
 5902TIP3    H139265   2.535   4.818   7.057
 5902TIP3    H239266   2.577   4.699   6.973
 5903TIP3   OH239267   5.389   4.739   8.143
 5903TIP3    H139268   5.350   4.822   8.169
 5903TIP3    H239269   5.484   4.753   8.152
 5904TIP3   OH239270   3.475   4.410   1.399
 5904TIP3    H139271   3.465   4.363   1.482
 5904TIP3    H239272   3.485   4.341   1.333
 5905TIP3   OH239273   0.868   1.065   6.629
 5905TIP3    H139274   0.842   1.026   6.546
 5905TIP3    H239275   0.943   1.121   6.607
 5906TIP3   OH239276   5.805   6.259   0.938
 5906TIP3    H139277   5.851   6.219   0.865
 5906TIP3    H239278   5.721   6.287   0.902
 5907TIP3   OH239279   2.404   5.144   7.527
 5907TIP3    H139280   2.469   5.200   7.569
 5907TIP3    H239281   2.436   5.135   7.437
 5908TIP3   OH239282   4.354   0.043   0.307
 5908TIP3    H139283   4.271   0.070   0.268
 5908TIP3    H239284   4.384   6.828   0.251
 5909TIP3   OH239285   1.598   3.185   0.658
 5909TIP3    H139286   1.670   3.158   0.601
 5909TIP3    H239287   1.611   3.279   0.669
 5910TIP3   OH239288   0.698   1.889   7.683
 5910TIP3    H139289   0.613   1.908   7.643
 5910TIP3    H239290   0.749   1.848   7.613
 5911TIP3   OH239291   0.805   1.960   1.239
 5911TIP3    H139292   0.825   2.049   1.210
 5911TIP3    H239293   0.854   1.903   1.180
 5912TIP3   OH239294   3.726   6.511   8.584
 5912TIP3    H139295   3.757   6.549   8.501
 5912TIP3    H239296   3.799   6.458   8.615
 5913TIP3   OH239297   1.372   3.794   7.257
 5913TIP3    H139298   1.279   3.783   7.237
 5913TIP3    H239299   1.417   3.741   7.192
 5914TIP3   OH239300   3.014   2.185   8.381
 5914TIP3    H139301   3.094   2.191   8.434
 5914TIP3    H239302   2.962   2.116   8.422
 5915TIP3   OH239303   4.183   1.568   7.919
 5915TIP3    H139304   4.270   1.539   7.890
 5915TIP3    H239305   4.157   1.633   7.855
 5916TIP3   OH239306   0.096   5.690   1.984
 5916TIP3    H139307   0.138   5.637   2.052
 5916TIP3    H239308   0.004   5.697   2.012
 5917TIP3   OH239309   5.541   6.075   1.993
 5917TIP3    H139310   5.629   6.098   1.963
 5917TIP3    H239311   5.552   5.991   2.036
 5918TIP3   OH239312   5.477   0.544   8.306
 5918TIP3    H139313   5.437   0.499   8.231
 5918TIP3    H239314   5.405   0.562   8.366
 5919TIP3   OH239315   2.752   2.998   7.309
 5919TIP3    H139316   2.815   3.056   7.267
 5919TIP3    H239317   2.697   2.966   7.237
 5920TIP3   OH239318   1.216   5.256   6.345
 5920TIP3    H139319   1.179   5.195   6.281
 5920TIP3    H239320   1.297   5.287   6.304
 5921TIP3   OH239321   4.575   4.418   0.690
 5921TIP3    H139322   4.579   4.427   0.785
 5921TIP3    H239323   4.666   4.424   0.662
 5922TIP3   OH239324   4.827   2.524   1.114
 5922TIP3    H139325   4.880   2.603   1.106
 5922TIP3    H239326   4.737   2.555   1.100
 5923TIP3   OH239327   1.156   6.007   0.960
 5923TIP3    H139328   1.154   6.103   0.960
 5923TIP3    H239329   1.077   5.981   1.007
 5924TIP3   OH239330   2.552   5.751   2.371
 5924TIP3    H139331   2.485   5.817   2.354
 5924TIP3    H239332   2.625   5.800   2.410
 5925TIP3   OH239333   4.172   0.233   1.203
 5925TIP3    H139334   4.088   0.221   1.158
 5925TIP3    H239335   4.227   0.279   1.139
 5926TIP3   OH239336   5.525   2.628   6.990
 5926TIP3    H139337   5.451   2.568   6.999
 5926TIP3    H239338   5.486   2.715   6.984
 5927TIP3   OH239339   5.880   1.015   7.558
 5927TIP3    H139340   5.961   0.995   7.511
 5927TIP3    H239341   5.838   0.930   7.570
 5928TIP3   OH239342   0.769   2.406   0.005
 5928TIP3    H139343   0.859   2.438   0.016
 5928TIP3    H239344   0.764   2.328   0.060
 5929TIP3   OH239345   1.244   4.177   8.486
 5929TIP3    H139346   1.173   4.204   8.428
 5929TIP3    H239347   1.320   4.171   8.429
 5930TIP3   OH239348   4.481   5.109   8.220
 5930TIP3    H139349   4.556   5.085   8.274
 5930TIP3    H239350   4.517   5.165   8.152
 5931TIP3   OH239351   5.335   2.262   8.141
 5931TIP3    H139352   5.333   2.285   8.233
 5931TIP3    H239353   5.270   2.192   8.132
 5932TIP3   OH239354   0.000   1.681   7.544
 5932TIP3    H139355   6.856   1.752   7.608
 5932TIP3    H239356   6.767   1.679   7.510
 5933TIP3   OH239357   3.336   4.373   0.550
 5933TIP3    H139358   3.354   4.279   0.556
 5933TIP3    H239359   3.392   4.403   0.478
 5934TIP3   OH239360   4.684   4.564   7.584
 5934TIP3    H139361   4.777   4.563   7.561
 5934TIP3    H239362   4.669   4.479   7.627
 5935TIP3   OH239363   0.121   1.115   8.540
 5935TIP3    H139364   0.216   1.121   8.527
 5935TIP3    H239365   0.109   1.038   8.594
 5936TIP3   OH239366   1.574   2.281   0.870
 5936TIP3    H139367   1.638   2.220   0.835
 5936TIP3    H239368   1.489   2.239   0.854
 5937TIP3   OH239369   0.636   0.480   7.245
 5937TIP3    H139370   0.637   0.576   7.245
 5937TIP3    H239371   0.555   0.457   7.200
 5938TIP3   OH239372   6.025   1.810   1.597
 5938TIP3    H139373   6.044   1.901   1.618
 5938TIP3    H239374   6.081   1.760   1.655
 5939TIP3   OH239375   3.297   4.915   6.206
 5939TIP3    H139376   3.297   4.994   6.151
 5939TIP3    H239377   3.232   4.858   6.165
 5940TIP3   OH239378   6.802   5.620   8.470
 5940TIP3    H139379   6.779   5.648   8.558
 5940TIP3    H239380   6.728   5.566   8.442
 5941TIP3   OH239381   0.868   1.882   7.239
 5941TIP3    H139382   0.784   1.927   7.230
 5941TIP3    H239383   0.884   1.844   7.152
 5942TIP3   OH239384   3.240   6.190   7.248
 5942TIP3    H139385   3.200   6.174   7.163
 5942TIP3    H239386   3.247   6.285   7.254
 5943TIP3   OH239387   5.521   0.763   6.665
 5943TIP3    H139388   5.575   0.759   6.744
 5943TIP3    H239389   5.431   0.757   6.698
 5944TIP3   OH239390   0.708   4.611   6.377
 5944TIP3    H139391   0.623   4.653   6.390
 5944TIP3    H239392   0.772   4.679   6.400
 5945TIP3   OH239393   2.807   5.306   2.573
 5945TIP3    H139394   2.897   5.333   2.591
 5945TIP3    H239395   2.814   5.250   2.495
 5946TIP3   OH239396   1.915   0.870   6.918
 5946TIP3    H139397   1.948   0.895   6.832
 5946TIP3    H239398   1.845   0.934   6.936
 5947TIP3   OH239399   6.385   6.700   2.146
 5947TIP3    H139400   6.392   6.677   2.239
 5947TIP3    H239401   6.475   6.716   2.119
 5948TIP3   OH239402   0.134   3.249   1.164
 5948TIP3    H139403   0.059   3.193   1.184
 5948TIP3    H239404   0.157   3.289   1.248
 5949TIP3   OH239405   0.495   1.833   6.527
 5949TIP3    H139406   0.552   1.798   6.595
 5949TIP3    H239407   0.433   1.762   6.510
 5950TIP3   OH239408   5.763   4.167   7.423
 5950TIP3    H139409   5.774   4.129   7.336
 5950TIP3    H239410   5.790   4.098   7.484
 5951TIP3   OH239411   6.218   1.124   1.911
 5951TIP3    H139412   6.288   1.104   1.974
 5951TIP3    H239413   6.246   1.207   1.871
 5952TIP3   OH239414   0.939   5.071   7.180
 5952TIP3    H139415   0.945   5.054   7.086
 5952TIP3    H239416   0.855   5.115   7.191
 5953TIP3   OH239417   5.476   5.671   1.766
 5953TIP3    H139418   5.555   5.681   1.714
 5953TIP3    H239419   5.444   5.583   1.744
 5954TIP3   OH239420   3.585   1.437   2.076
 5954TIP3    H139421   3.619   1.351   2.051
 5954TIP3    H239422   3.509   1.451   2.019
 5955TIP3   OH239423   2.601   2.188   2.446
 5955TIP3    H139424   2.670   2.231   2.394
 5955TIP3    H239425   2.645   2.113   2.486
 5956TIP3   OH239426   2.464   1.444   1.790
 5956TIP3    H139427   2.515   1.466   1.868
 5956TIP3    H239428   2.399   1.514   1.783
 5957TIP3   OH239429   0.260   5.415   0.051
 5957TIP3    H139430   0.214   5.419   0.135
 5957TIP3    H239431   0.193   5.389   8.702
 5958TIP3   OH239432   5.281   2.501   6.995
 5958TIP3    H139433   5.236   2.533   6.917
 5958TIP3    H239434   5.266   2.406   6.993
 5959TIP3   OH239435   4.841   2.644   8.261
 5959TIP3    H139436   4.836   2.634   8.356
 5959TIP3    H239437   4.913   2.706   8.248
 5960TIP3   OH239438   0.954   5.829   8.031
 5960TIP3    H139439   0.996   5.744   8.047
 5960TIP3    H239440   0.968   5.878   8.111
 5961TIP3   OH239441   3.471   3.528   0.641
 5961TIP3    H139442   3.456   3.557   0.731
 5961TIP3    H239443   3.395   3.473   0.621
 5962TIP3   OH239444   5.564   1.155   7.465
 5962TIP3    H139445   5.646   1.147   7.514
 5962TIP3    H239446   5.546   1.249   7.464
 5963TIP3   OH239447   0.946   4.125   6.555
 5963TIP3    H139448   0.915   4.205   6.513
 5963TIP3    H239449   0.904   4.055   6.506
 5964TIP3   OH239450   2.734   4.345   0.417
 5964TIP3    H139451   2.823   4.324   0.390
 5964TIP3    H239452   2.684   4.265   0.400
 5965TIP3   OH239453   0.979   1.490   0.787
 5965TIP3    H139454   0.922   1.484   0.710
 5965TIP3    H239455   1.002   1.400   0.807
 5966TIP3   OH239456   2.456   2.328   0.151
 5966TIP3    H139457   2.440   2.422   0.157
 5966TIP3    H239458   2.523   2.311   0.217
 5967TIP3   OH239459   3.156   0.147   2.452
 5967TIP3    H139460   3.061   0.154   2.449
 5967TIP3    H239461   3.187   0.235   2.472
 5968TIP3   OH239462   6.565   2.305   8.611
 5968TIP3    H139463   6.620   2.227   8.604
 5968TIP3    H239464   6.568   2.328   8.704
 5969TIP3   OH239465   3.951   2.223   2.384
 5969TIP3    H139466   3.882   2.179   2.433
 5969TIP3    H239467   4.022   2.235   2.447
 5970TIP3   OH239468   3.042   0.503   6.529
 5970TIP3    H139469   2.975   0.501   6.460
 5970TIP3    H239470   3.007   0.564   6.594
 5971TIP3   OH239471   6.560   0.585   8.349
 5971TIP3    H139472   6.611   0.666   8.345
 5971TIP3    H239473   6.522   0.576   8.261
 5972TIP3   OH239474   0.033   5.217   8.297
 5972TIP3    H139475   0.116   5.226   8.344
 5972TIP3    H239476   0.054   5.238   8.206
 5973TIP3   OH239477   1.124   4.300   0.049
 5973TIP3    H139478   1.133   4.274   8.671
 5973TIP3    H239479   1.171   4.383   0.054
 5974TIP3   OH239480   2.960   5.329   7.376
 5974TIP3    H139481   2.982   5.242   7.410
 5974TIP3    H239482   2.968   5.387   7.452
 5975TIP3   OH239483   5.760   2.070   1.519
 5975TIP3    H139484   5.795   2.122   1.591
 5975TIP3    H239485   5.686   2.023   1.557
 5976TIP3   OH239486   3.533   6.637   6.277
 5976TIP3    H139487   3.564   6.546   6.281
 5976TIP3    H239488   3.614   6.689   6.268
 5977TIP3   OH239489   1.762   3.979   7.702
 5977TIP3    H139490   1.819   3.916   7.657
 5977TIP3    H239491   1.728   3.931   7.777
 5978TIP3   OH239492   4.565   4.009   1.485
 5978TIP3    H139493   4.502   3.942   1.511
 5978TIP3    H239494   4.518   4.091   1.498
 5979TIP3   OH239495   5.448   2.058   0.819
 5979TIP3    H139496   5.448   2.132   0.758
 5979TIP3    H239497   5.372   2.073   0.875
 5980TIP3   OH239498   1.844   6.709   0.661
 5980TIP3    H139499   1.816   6.697   0.570
 5980TIP3    H239500   1.871   6.801   0.666
 5981TIP3   OH239501   2.697   0.315   6.247
 5981TIP3    H139502   2.647   0.270   6.179
 5981TIP3    H239503   2.730   0.244   6.303
 5982TIP3   OH239504   1.965   4.635   0.480
 5982TIP3    H139505   2.003   4.568   0.536
 5982TIP3    H239506   2.003   4.618   0.393
 5983TIP3   OH239507   2.390   4.704   8.594
 5983TIP3    H139508   2.300   4.711   8.560
 5983TIP3    H239509   2.383   4.733   8.685
 5984TIP3   OH239510   3.385   0.313   1.389
 5984TIP3    H139511   3.299   0.312   1.347
 5984TIP3    H239512   3.408   0.406   1.395
 5985TIP3   OH239513   5.295   2.768   7.484
 5985TIP3    H139514   5.224   2.802   7.538
 5985TIP3    H239515   5.277   2.675   7.476
 5986TIP3   OH239516   5.783   2.569   0.739
 5986TIP3    H139517   5.764   2.497   0.800
 5986TIP3    H239518   5.697   2.598   0.708
 5987TIP3   OH239519   2.088   6.030   7.004
 5987TIP3    H139520   2.012   5.982   7.035
 5987TIP3    H239521   2.085   6.021   6.909
 5988TIP3   OH239522   1.439   5.519   7.789
 5988TIP3    H139523   1.353   5.555   7.813
 5988TIP3    H239524   1.417   5.443   7.733
 5989TIP3   OH239525   1.698   4.796   8.213
 5989TIP3    H139526   1.734   4.874   8.171
 5989TIP3    H239527   1.695   4.817   8.306
 5990TIP3   OH239528   4.401   4.693   8.575
 5990TIP3    H139529   4.344   4.757   8.617
 5990TIP3    H239530   4.377   4.696   8.483
 5991TIP3   OH239531   4.559   0.052   2.493
 5991TIP3    H139532   4.558   0.111   2.417
 5991TIP3    H239533   4.477   0.070   2.539
 5992TIP3   OH239534   6.420   2.627   6.605
 5992TIP3    H139535   6.373   2.710   6.616
 5992TIP3    H239536   6.511   2.653   6.589
 5993TIP3   OH239537   0.831   4.012   1.781
 5993TIP3    H139538   0.860   3.921   1.775
 5993TIP3    H239539   0.735   4.006   1.776
 5994TIP3   OH239540   0.781   4.610   0.605
 5994TIP3    H139541   0.705   4.568   0.647
 5994TIP3    H239542   0.851   4.601   0.670
 5995TIP3   OH239543   4.105   1.708   7.554
 5995TIP3    H139544   4.138   1.793   7.526
 5995TIP3    H239545   4.062   1.672   7.476
 5996TIP3   OH239546   1.032   3.485   1.704
 5996TIP3    H139547   1.117   3.451   1.730
 5996TIP3    H239548   1.033   3.484   1.608
 5997TIP3   OH239549   3.488   5.605   7.320
 5997TIP3    H139550   3.550   5.598   7.247
 5997TIP3    H239551   3.538   5.648   7.390
 5998TIP3   OH239552   4.717   1.817   0.293
 5998TIP3    H139553   4.663   1.769   0.231
 5998TIP3    H239554   4.807   1.797   0.267
 5999TIP3   OH239555   3.894   0.838   6.578
 5999TIP3    H139556   3.911   0.932   6.592
 5999TIP3    H239557   3.803   0.833   6.551
 6000TIP3   OH239558   3.984   4.962   7.694
 6000TIP3    H139559   4.004   5.014   7.772
 6000TIP3    H239560   3.904   5.000   7.659
 6001TIP3   OH239561   1.921   4.063   1.607
 6001TIP3    H139562   1.940   3.978   1.647
 6001TIP3    H239563   1.937   4.050   1.514
 6002TIP3   OH239564   3.944   5.890   8.284
 6002TIP3    H139565   3.902   5.809   8.255
 6002TIP3    H239566   3.873   5.954   8.288
 6003TIP3   OH239567   0.281   0.727   8.466
 6003TIP3    H139568   0.297   0.706   8.374
 6003TIP3    H239569   0.366   0.715   8.508
 6004TIP3   OH239570   1.834   6.315   0.115
 6004TIP3    H139571   1.794   6.375   0.052
 6004TIP3    H239572   1.796   6.340   0.199
 6005TIP3   OH239573   5.383   3.249   7.471
 6005TIP3    H139574   5.295   3.269   7.502
 6005TIP3    H239575   5.396   3.156   7.491
 6006TIP3   OH239576   2.099   5.362   1.436
 6006TIP3    H139577   2.095   5.445   1.484
 6006TIP3    H239578   2.029   5.368   1.371
 6007TIP3   OH239579   5.765   1.122   0.729
 6007TIP3    H139580   5.821   1.144   0.654
 6007TIP3    H239581   5.719   1.203   0.749
 6008TIP3   OH239582   2.547   3.312   7.891
 6008TIP3    H139583   2.570   3.288   7.802
 6008TIP3    H239584   2.602   3.388   7.911
 6009TIP3   OH239585   5.348   3.410   1.231
 6009TIP3    H139586   5.416   3.441   1.291
 6009TIP3    H239587   5.289   3.359   1.285
 6010TIP3   OH239588   6.616   0.619   0.860
 6010TIP3    H139589   6.603   0.676   0.783
 6010TIP3    H239590   6.707   0.635   0.886
 6011TIP3   OH239591   4.450   3.982   6.858
 6011TIP3    H139592   4.386   4.034   6.811
 6011TIP3    H239593   4.468   3.907   6.801
 6012TIP3   OH239594   5.057   2.979   7.137
 6012TIP3    H139595   5.143   2.966   7.179
 6012TIP3    H239596   5.076   3.034   7.061
 6013TIP3   OH239597   1.644   3.019   0.942
 6013TIP3    H139598   1.612   3.081   0.877
 6013TIP3    H239599   1.566   2.997   0.994
 6014TIP3   OH239600   2.728   0.729   0.569
 6014TIP3    H139601   2.744   0.726   0.664
 6014TIP3    H239602   2.675   0.652   0.552
 6015TIP3   OH239603   3.901   4.460   6.139
 6015TIP3    H139604   3.978   4.516   6.134
 6015TIP3    H239605   3.915   4.406   6.217
 6016TIP3   OH239606   2.642   0.826   1.230
 6016TIP3    H139607   2.725   0.816   1.182
 6016TIP3    H239608   2.590   0.750   1.205
 6017TIP3   OH239609   0.212   2.070   1.692
 6017TIP3    H139610   0.126   2.093   1.657
 6017TIP3    H239611   0.194   2.030   1.777
 6018TIP3   OH239612   3.016   0.649   1.864
 6018TIP3    H139613   2.937   0.603   1.836
 6018TIP3    H239614   2.985   0.728   1.907
 6019TIP3   OH239615   0.631   3.490   6.140
 6019TIP3    H139616   0.710   3.475   6.191
 6019TIP3    H239617   0.628   3.585   6.127
 6020TIP3   OH239618   0.227   4.958   2.289
 6020TIP3    H139619   0.196   5.026   2.348
 6020TIP3    H239620   0.186   4.878   2.321
 6021TIP3   OH239621   0.448   1.012   7.164
 6021TIP3    H139622   0.365   0.974   7.136
 6021TIP3    H239623   0.513   0.973   7.105
 6022TIP3   OH239624   0.476   3.758   0.958
 6022TIP3    H139625   0.418   3.715   1.022
 6022TIP3    H239626   0.418   3.779   0.885
 6023TIP3   OH239627   6.667   6.682   7.907
 6023TIP3    H139628   6.675   6.691   8.002
 6023TIP3    H239629   6.757   6.682   7.875
 6024TIP3   OH239630   3.125   0.607   1.343
 6024TIP3    H139631   3.196   0.668   1.321
 6024TIP3    H239632   3.131   0.539   1.275
 6025TIP3   OH239633   5.464   4.316   8.157
 6025TIP3    H139634   5.542   4.352   8.199
 6025TIP3    H239635   5.396   4.380   8.174
 6026TIP3   OH239636   2.099   5.476   7.652
 6026TIP3    H139637   2.057   5.526   7.582
 6026TIP3    H239638   2.193   5.481   7.633
 6027TIP3   OH239639   2.630   1.885   1.456
 6027TIP3    H139640   2.575   1.815   1.494
 6027TIP3    H239641   2.650   1.854   1.368
 6028TIP3   OH239642   3.231   6.840   1.967
 6028TIP3    H139643   3.225   6.816   2.060
 6028TIP3    H239644   3.324   6.836   1.947
 6029TIP3   OH239645   0.578   5.041   0.838
 6029TIP3    H139646   0.522   4.988   0.894
 6029TIP3    H239647   0.648   4.981   0.810
 6030TIP3   OH239648   6.814   4.481   1.237
 6030TIP3    H139649   6.775   4.436   1.162
 6030TIP3    H239650   0.052   4.474   1.222
 6031TIP3   OH239651   2.277   6.471   6.252
 6031TIP3    H139652   2.191   6.511   6.237
 6031TIP3    H239653   2.264   6.379   6.232
 6032TIP3   OH239654   1.766   0.671   6.960
 6032TIP3    H139655   1.821   0.739   6.921
 6032TIP3    H239656   1.821   0.630   7.027
 6033TIP3   OH239657   0.047   6.487   0.158
 6033TIP3    H139658   0.073   6.426   0.089
 6033TIP3    H239659   6.838   6.440   0.209
 6034TIP3   OH239660   6.671   5.400   1.419
 6034TIP3    H139661   6.643   5.377   1.508
 6034TIP3    H239662   6.591   5.404   1.368
 6035TIP3   OH239663   5.684   6.054   7.029
 6035TIP3    H139664   5.767   6.056   7.077
 6035TIP3    H239665   5.699   6.109   6.952
 6036TIP3   OH239666   3.787   0.974   1.464
 6036TIP3    H139667   3.863   0.919   1.446
 6036TIP3    H239668   3.770   0.961   1.557
 6037TIP3   OH239669   0.488   3.457   8.035
 6037TIP3    H139670   0.555   3.491   8.093
 6037TIP3    H239671   0.537   3.418   7.962
 6038TIP3   OH239672   1.753   6.309   0.826
 6038TIP3    H139673   1.758   6.392   0.874
 6038TIP3    H239674   1.675   6.266   0.860
 6039TIP3   OH239675   2.341   0.393   8.322
 6039TIP3    H139676   2.262   0.361   8.365
 6039TIP3    H239677   2.383   0.314   8.288
 6040TIP3   OH239678   2.626   5.632   6.549
 6040TIP3    H139679   2.681   5.691   6.498
 6040TIP3    H239680   2.584   5.689   6.614
 6041TIP3   OH239681   2.440   1.700   0.010
 6041TIP3    H139682   2.352   1.661   0.008
 6041TIP3    H239683   2.454   1.723   0.101
 6042TIP3   OH239684   1.803   1.324   1.567
 6042TIP3    H139685   1.802   1.417   1.591
 6042TIP3    H239686   1.751   1.281   1.635
 6043TIP3   OH239687   2.926   3.885   1.044
 6043TIP3    H139688   2.957   3.878   1.134
 6043TIP3    H239689   2.912   3.795   1.016
 6044TIP3   OH239690   0.340   2.667   1.465
 6044TIP3    H139691   0.252   2.630   1.468
 6044TIP3    H239692   0.355   2.703   1.552
 6045TIP3   OH239693   3.383   2.784   1.400
 6045TIP3    H139694   3.410   2.761   1.489
 6045TIP3    H239695   3.422   2.718   1.344
 6046TIP3   OH239696   0.350   3.569   0.223
 6046TIP3    H139697   0.341   3.607   0.135
 6046TIP3    H239698   0.374   3.644   0.278
 6047TIP3   OH239699   3.717   6.413   0.288
 6047TIP3    H139700   3.786   6.348   0.269
 6047TIP3    H239701   3.644   6.361   0.320
 6048TIP3   OH239702   2.995   4.697   8.420
 6048TIP3    H139703   3.083   4.660   8.424
 6048TIP3    H239704   3.008   4.784   8.383
 6049TIP3   OH239705   3.099   0.951   7.783
 6049TIP3    H139706   3.075   0.872   7.832
 6049TIP3    H239707   3.179   0.927   7.736
 6050TIP3   OH239708   1.757   0.057   2.090
 6050TIP3    H139709   1.743   0.137   2.141
 6050TIP3    H239710   1.672   0.038   2.052
 6051TIP3   OH239711   1.625   2.432   7.663
 6051TIP3    H139712   1.576   2.388   7.733
 6051TIP3    H239713   1.590   2.395   7.582
 6052TIP3   OH239714   4.628   3.597   8.624
 6052TIP3    H139715   4.537   3.616   8.600
 6052TIP3    H239716   4.663   3.680   8.656
 6053TIP3   OH239717   5.821   5.456   6.234
 6053TIP3    H139718   5.773   5.374   6.226
 6053TIP3    H239719   5.913   5.430   6.230
 6054TIP3   OH239720   3.433   3.831   2.096
 6054TIP3    H139721   3.465   3.765   2.035
 6054TIP3    H239722   3.338   3.821   2.096
 6055TIP3   OH239723   4.010   1.455   1.917
 6055TIP3    H139724   4.104   1.466   1.904
 6055TIP3    H239725   3.987   1.519   1.983
 6056TIP3   OH239726   6.182   3.430   7.575
 6056TIP3    H139727   6.103   3.459   7.621
 6056TIP3    H239728   6.199   3.342   7.609
 6057TIP3   OH239729   3.382   6.566   7.543
 6057TIP3    H139730   3.443   6.545   7.614
 6057TIP3    H239731   3.319   6.626   7.583
 6058TIP3   OH239732   4.761   4.880   7.365
 6058TIP3    H139733   4.714   4.798   7.376
 6058TIP3    H239734   4.829   4.861   7.300
 6059TIP3   OH239735   0.496   2.375   8.684
 6059TIP3    H139736   0.553   2.327   8.624
 6059TIP3    H239737   0.552   2.443   0.009
 6060TIP3   OH239738   6.570   5.950   8.354
 6060TIP3    H139739   6.568   5.989   8.266
 6060TIP3    H239740   6.653   5.980   8.391
 6061TIP3   OH239741   1.935   6.155   7.235
 6061TIP3    H139742   1.900   6.113   7.313
 6061TIP3    H239743   2.029   6.136   7.237
 6062TIP3   OH239744   4.588   3.991   8.055
 6062TIP3    H139745   4.641   3.962   7.981
 6062TIP3    H239746   4.512   3.932   8.055
 6063TIP3   OH239747   0.253   5.567   1.576
 6063TIP3    H139748   0.316   5.527   1.515
 6063TIP3    H239749   0.307   5.623   1.632
 6064TIP3   OH239750   2.826   0.334   1.000
 6064TIP3    H139751   2.864   0.337   1.088
 6064TIP3    H239752   2.757   0.268   1.006
 6065TIP3   OH239753   3.024   3.573   6.993
 6065TIP3    H139754   3.020   3.567   6.897
 6065TIP3    H239755   3.087   3.643   7.010
 6066TIP3   OH239756   1.865   2.582   6.582
 6066TIP3    H139757   1.895   2.624   6.501
 6066TIP3    H239758   1.771   2.573   6.571
 6067TIP3   OH239759   5.640   0.441   6.549
 6067TIP3    H139760   5.563   0.491   6.522
 6067TIP3    H239761   5.712   0.483   6.502
 6068TIP3   OH239762   3.258   2.200   8.450
 6068TIP3    H139763   3.324   2.260   8.414
 6068TIP3    H239764   3.298   2.167   8.530
 6069TIP3   OH239765   6.511   2.722   0.899
 6069TIP3    H139766   6.479   2.679   0.978
 6069TIP3    H239767   6.520   2.652   0.835
 6070TIP3   OH239768   4.063   4.133   7.712
 6070TIP3    H139769   4.135   4.112   7.772
 6070TIP3    H239770   4.046   4.051   7.666
 6071TIP3   OH239771   4.989   0.920   7.182
 6071TIP3    H139772   4.960   0.848   7.239
 6071TIP3    H239773   5.025   0.985   7.241
 6072TIP3   OH239774   1.298   2.726   7.172
 6072TIP3    H139775   1.294   2.634   7.196
 6072TIP3    H239776   1.367   2.731   7.105
 6073TIP3   OH239777   5.993   6.269   8.594
 6073TIP3    H139778   6.038   6.215   8.658
 6073TIP3    H239779   6.062   6.295   8.532
 6074TIP3   OH239780   6.510   0.947   7.457
 6074TIP3    H139781   6.602   0.926   7.475
 6074TIP3    H239782   6.514   1.027   7.404
 6075TIP3   OH239783   5.017   2.737   0.360
 6075TIP3    H139784   5.110   2.725   0.342
 6075TIP3    H239785   4.993   2.815   0.310
 6076TIP3   OH239786   0.842   0.782   6.433
 6076TIP3    H139787   0.836   0.739   6.348
 6076TIP3    H239788   0.809   0.870   6.418
 6077TIP3   OH239789   6.362   0.583   7.656
 6077TIP3    H139790   6.375   0.498   7.616
 6077TIP3    H239791   6.445   0.602   7.701
 6078TIP3   OH239792   4.072   1.126   1.058
 6078TIP3    H139793   4.118   1.170   0.986
 6078TIP3    H239794   3.985   1.164   1.057
 6079TIP3   OH239795   3.704   0.003   7.412
 6079TIP3    H139796   3.753   0.081   7.437
 6079TIP3    H239797   3.722   6.850   7.318
 6080TIP3   OH239798   5.461   4.313   1.324
 6080TIP3    H139799   5.509   4.250   1.270
 6080TIP3    H239800   5.487   4.399   1.291
 6081TIP3   OH239801   6.804   1.119   1.396
 6081TIP3    H139802   6.803   1.197   1.450
 6081TIP3    H239803   6.837   1.050   1.453
 6082TIP3   OH239804   6.774   2.222   0.994
 6082TIP3    H139805   6.836   2.235   1.065
 6082TIP3    H239806   6.810   2.273   0.922
 6083TIP3   OH239807   0.575   1.643   8.389
 6083TIP3    H139808   0.567   1.717   8.329
 6083TIP3    H239809   0.493   1.594   8.378
 6084TIP3   OH239810   2.929   1.345   7.529
 6084TIP3    H139811   2.949   1.254   7.508
 6084TIP3    H239812   2.891   1.342   7.617
 6085TIP3   OH239813   5.743   4.178   1.245
 6085TIP3    H139814   5.746   4.116   1.172
 6085TIP3    H239815   5.792   4.254   1.214
 6086TIP3   OH239816   0.410   5.000   0.377
 6086TIP3    H139817   0.461   5.074   0.411
 6086TIP3    H239818   0.352   5.040   0.311
 6087TIP3   OH239819   4.399   2.422   7.931
 6087TIP3    H139820   4.417   2.429   8.025
 6087TIP3    H239821   4.386   2.329   7.915
 6088TIP3   OH239822   5.887   1.681   1.395
 6088TIP3    H139823   5.917   1.728   1.473
 6088TIP3    H239824   5.792   1.670   1.409
 6089TIP3   OH239825   0.968   6.745   0.968
 6089TIP3    H139826   1.003   6.792   0.893
 6089TIP3    H239827   1.005   6.790   1.044
 6090TIP3   OH239828   5.642   4.549   6.853
 6090TIP3    H139829   5.583   4.480   6.882
 6090TIP3    H239830   5.665   4.525   6.763
 6091TIP3   OH239831   4.503   4.238   8.095
 6091TIP3    H139832   4.480   4.255   8.003
 6091TIP3    H239833   4.554   4.157   8.093
 6092TIP3   OH239834   5.560   5.736   7.569
 6092TIP3    H139835   5.502   5.730   7.492
 6092TIP3    H239836   5.542   5.823   7.605
 6093TIP3   OH239837   1.701   3.771   2.496
 6093TIP3    H139838   1.629   3.753   2.556
 6093TIP3    H239839   1.659   3.809   2.419
 6094TIP3   OH239840   4.001   6.786   8.628
 6094TIP3    H139841   4.075   6.846   8.623
 6094TIP3    H239842   3.928   6.833   8.588
 6095TIP3   OH239843   0.704   1.018   0.349
 6095TIP3    H139844   0.694   1.056   0.262
 6095TIP3    H239845   0.798   1.022   0.366
 6096TIP3   OH239846   3.833   6.697   1.764
 6096TIP3    H139847   3.741   6.710   1.742
 6096TIP3    H239848   3.880   6.725   1.685
 6097TIP3   OH239849   4.902   1.944   1.127
 6097TIP3    H139850   4.813   1.919   1.152
 6097TIP3    H239851   4.957   1.909   1.198
 6098TIP3   OH239852   5.159   1.381   0.807
 6098TIP3    H139853   5.073   1.354   0.841
 6098TIP3    H239854   5.200   1.428   0.879
 6099TIP3   OH239855   4.684   2.584   7.244
 6099TIP3    H139856   4.774   2.595   7.215
 6099TIP3    H239857   4.633   2.645   7.191
 6100TIP3   OH239858   4.983   5.494   8.517
 6100TIP3    H139859   4.932   5.516   8.439
 6100TIP3    H239860   4.921   5.451   8.575
 6101TIP3   OH239861   6.333   6.446   8.546
 6101TIP3    H139862   6.313   6.470   8.455
 6101TIP3    H239863   6.365   6.356   8.540
 6102TIP3   OH239864   1.915   2.398   6.316
 6102TIP3    H139865   1.837   2.405   6.261
 6102TIP3    H239866   1.890   2.336   6.385
 6103TIP3   OH239867   5.567   3.967   8.495
 6103TIP3    H139868   5.489   4.022   8.494
 6103TIP3    H239869   5.625   4.006   8.430
 6104TIP3   OH239870   3.911   5.273   7.019
 6104TIP3    H139871   3.826   5.230   7.010
 6104TIP3    H239872   3.894   5.363   6.989
 6105TIP3   OH239873   4.852   2.600   7.968
 6105TIP3    H139874   4.765   2.562   7.955
 6105TIP3    H239875   4.863   2.602   8.063
 6106TIP3   OH239876   3.458   3.602   1.904
 6106TIP3    H139877   3.545   3.564   1.910
 6106TIP3    H239878   3.455   3.644   1.818
 6107TIP3   OH239879   3.364   6.001   1.694
 6107TIP3    H139880   3.270   6.010   1.711
 6107TIP3    H239881   3.404   6.002   1.781
 6108TIP3   OH239882   6.487   6.526   1.840
 6108TIP3    H139883   6.559   6.466   1.822
 6108TIP3    H239884   6.509   6.566   1.925
 6109TIP3   OH239885   0.761   1.905   0.800
 6109TIP3    H139886   0.672   1.935   0.814
 6109TIP3    H239887   0.760   1.812   0.825
 6110TIP3   OH239888   3.076   2.865   0.589
 6110TIP3    H139889   3.095   2.915   0.668
 6110TIP3    H239890   2.992   2.899   0.558
 6111TIP3   OH239891   3.370   6.764   7.336
 6111TIP3    H139892   3.435   6.834   7.329
 6111TIP3    H239893   3.401   6.710   7.409
 6112TIP3   OH239894   5.247   6.513   1.922
 6112TIP3    H139895   5.180   6.445   1.925
 6112TIP3    H239896   5.269   6.529   2.014
 6113TIP3   OH239897   6.621   1.898   0.082
 6113TIP3    H139898   6.601   1.976   0.134
 6113TIP3    H239899   6.694   1.924   0.026
 6114TIP3   OH239900   4.770   2.043   7.794
 6114TIP3    H139901   4.767   2.016   7.702
 6114TIP3    H239902   4.756   2.137   7.793
 6115TIP3   OH239903   3.786   3.134   0.399
 6115TIP3    H139904   3.744   3.056   0.434
 6115TIP3    H239905   3.775   3.126   0.304
 6116TIP3   OH239906   5.035   0.863   7.810
 6116TIP3    H139907   5.086   0.942   7.788
 6116TIP3    H239908   4.969   0.894   7.872
 6117TIP3   OH239909   2.706   4.048   1.490
 6117TIP3    H139910   2.752   4.041   1.407
 6117TIP3    H239911   2.759   4.110   1.541
 6118TIP3   OH239912   5.805   5.824   0.537
 6118TIP3    H139913   5.898   5.817   0.515
 6118TIP3    H239914   5.775   5.901   0.489
 6119TIP3   OH239915   1.521   2.806   7.830
 6119TIP3    H139916   1.470   2.809   7.912
 6119TIP3    H239917   1.606   2.773   7.856
 6120TIP3   OH239918   4.402   1.098   1.018
 6120TIP3    H139919   4.401   1.099   1.114
 6120TIP3    H239920   4.487   1.134   0.994
 6121TIP3   OH239921   6.030   1.805   0.672
 6121TIP3    H139922   6.120   1.778   0.689
 6121TIP3    H239923   5.989   1.728   0.634
 6122TIP3   OH239924   5.866   0.621   0.520
 6122TIP3    H139925   5.921   0.563   0.572
 6122TIP3    H239926   5.907   0.707   0.530
 6123TIP3   OH239927   6.602   6.854   1.022
 6123TIP3    H139928   6.513   0.032   1.016
 6123TIP3    H239929   6.658   0.074   1.017
 6124TIP3   OH239930   6.826   5.973   8.483
 6124TIP3    H139931   6.837   6.058   8.441
 6124TIP3    H239932   0.052   5.927   8.467
 6125TIP3   OH239933   4.273   6.013   1.514
 6125TIP3    H139934   4.288   5.989   1.605
 6125TIP3    H239935   4.360   6.035   1.480
 6126TIP3   OH239936   6.640   1.876   0.500
 6126TIP3    H139937   6.549   1.906   0.496
 6126TIP3    H239938   6.684   1.938   0.558
 6127TIP3   OH239939   5.757   1.106   6.126
 6127TIP3    H139940   5.706   1.027   6.107
 6127TIP3    H239941   5.829   1.075   6.181
 6128TIP3   OH239942   6.823   4.211   7.319
 6128TIP3    H139943   0.006   4.238   7.402
 6128TIP3    H239944   0.041   4.191   7.262
 6129TIP3   OH239945   6.668   0.883   7.051
 6129TIP3    H139946   6.649   0.863   6.959
 6129TIP3    H239947   6.665   0.798   7.095
 6130TIP3   OH239948   3.186   5.841   0.597
 6130TIP3    H139949   3.231   5.924   0.605
 6130TIP3    H239950   3.095   5.864   0.576
 6131TIP3   OH239951   5.489   5.045   6.431
 6131TIP3    H139952   5.539   4.963   6.441
 6131TIP3    H239953   5.400   5.016   6.410
 6132TIP3   OH239954   4.873   1.829   8.415
 6132TIP3    H139955   4.871   1.771   8.339
 6132TIP3    H239956   4.809   1.791   8.476
 6133TIP3   OH239957   6.651   3.385   1.015
 6133TIP3    H139958   6.594   3.440   1.069
 6133TIP3    H239959   6.672   3.311   1.071
 6134TIP3   OH239960   0.498   1.957   0.882
 6134TIP3    H139961   0.413   1.920   0.906
 6134TIP3    H239962   0.511   2.028   0.944
 6135TIP3   OH239963   1.282   4.102   0.962
 6135TIP3    H139964   1.369   4.116   0.999
 6135TIP3    H239965   1.236   4.185   0.977
 6136TIP3   OH239966   0.920   2.576   6.657
 6136TIP3    H139967   0.949   2.664   6.633
 6136TIP3    H239968   0.862   2.589   6.731
 6137TIP3   OH239969   0.774   4.604   8.672
 6137TIP3    H139970   0.847   4.655   8.638
 6137TIP3    H239971   0.723   4.667   0.011
 6138TIP3   OH239972   5.261   0.042   8.629
 6138TIP3    H139973   5.333   0.088   8.585
 6138TIP3    H239974   5.298   6.813   8.651
 6139TIP3   OH239975   5.142   1.041   1.633
 6139TIP3    H139976   5.197   1.046   1.555
 6139TIP3    H239977   5.203   1.047   1.706
 6140TIP3   OH239978   2.195   0.393   1.471
 6140TIP3    H139979   2.140   0.461   1.432
 6140TIP3    H239980   2.192   0.321   1.408
 6141TIP3   OH239981   4.568   6.445   7.755
 6141TIP3    H139982   4.602   6.420   7.841
 6141TIP3    H239983   4.612   6.385   7.694
 6142TIP3   OH239984   2.588   6.127   0.624
 6142TIP3    H139985   2.593   6.065   0.697
 6142TIP3    H239986   2.540   6.202   0.660
 6143TIP3   OH239987   2.478   5.128   1.464
 6143TIP3    H139988   2.535   5.165   1.531
 6143TIP3    H239989   2.427   5.060   1.510
 6144TIP3   OH239990   0.383   0.349   2.528
 6144TIP3    H139991   0.407   0.441   2.523
 6144TIP3    H239992   0.327   0.342   2.605
 6145TIP3   OH239993   4.788   1.948   7.537
 6145TIP3    H139994   4.838   1.867   7.552
 6145TIP3    H239995   4.697   1.924   7.556
 6146TIP3   OH239996   3.828   0.123   8.520
 6146TIP3    H139997   3.738   0.106   8.492
 6146TIP3    H239998   3.820   0.194   8.583
 6147TIP3   OH239999   6.447   2.839   7.382
 6147TIP3    H140000   6.508   2.837   7.308
 6147TIP3    H240001   6.366   2.875   7.345
 6148TIP3   OH240002   0.532   0.920   8.364
 6148TIP3    H140003   0.571   0.835   8.344
 6148TIP3    H240004   0.594   0.983   8.329
 6149TIP3   OH240005   6.722   3.094   5.849
 6149TIP3    H140006   6.687   3.084   5.938
 6149TIP3    H240007   6.763   3.181   5.849
 6150TIP3   OH240008   3.468   2.550   8.170
 6150TIP3    H140009   3.423   2.630   8.143
 6150TIP3    H240010   3.561   2.568   8.154
 6151TIP3   OH240011   3.791   0.335   0.811
 6151TIP3    H140012   3.886   0.338   0.823
 6151TIP3    H240013   3.779   0.305   0.720
 6152TIP3   OH240014   6.130   4.250   0.126
 6152TIP3    H140015   6.137   4.332   0.077
 6152TIP3    H240016   6.199   4.255   0.192
 6153TIP3   OH240017   0.668   0.614   2.308
 6153TIP3    H140018   0.637   0.695   2.268
 6153TIP3    H240019   0.601   0.593   2.374
 6154TIP3   OH240020   3.128   4.751   1.664
 6154TIP3    H140021   3.126   4.786   1.753
 6154TIP3    H240022   3.052   4.791   1.621
 6155TIP3   OH240023   1.493   1.650   6.972
 6155TIP3    H140024   1.456   1.652   6.883
 6155TIP3    H240025   1.553   1.575   6.972
 6156TIP3   OH240026   3.524   3.977   0.921
 6156TIP3    H140027   3.472   4.057   0.916
 6156TIP3    H240028   3.494   3.924   0.847
 6157TIP3   OH240029   1.823   6.348   6.232
 6157TIP3    H140030   1.907   6.393   6.223
 6157TIP3    H240031   1.781   6.361   6.147
 6158TIP3   OH240032   4.066   2.066   6.767
 6158TIP3    H140033   4.028   1.978   6.767
 6158TIP3    H240034   4.025   2.110   6.691
 6159TIP3   OH240035   5.931   1.575   7.713
 6159TIP3    H140036   5.988   1.587   7.637
 6159TIP3    H240037   5.931   1.481   7.729
 6160TIP3   OH240038   5.622   3.785   1.233
 6160TIP3    H140039   5.533   3.751   1.244
 6160TIP3    H240040   5.670   3.712   1.193
 6161TIP3   OH240041   1.027   2.482   8.712
 6161TIP3    H140042   1.062   2.458   0.085
 6161TIP3    H240043   1.016   2.398   8.667
 6162TIP3   OH240044   5.014   0.094   6.407
 6162TIP3    H140045   4.998   0.026   6.473
 6162TIP3    H240046   4.934   0.096   6.355
 6163TIP3   OH240047   0.943   4.775   8.542
 6163TIP3    H140048   1.019   4.759   8.485
 6163TIP3    H240049   0.978   4.828   8.614
 6164TIP3   OH240050   2.159   4.106   8.302
 6164TIP3    H140051   2.123   4.104   8.213
 6164TIP3    H240052   2.254   4.106   8.289
 6165TIP3   OH240053   6.580   3.808   0.701
 6165TIP3    H140054   6.615   3.722   0.679
 6165TIP3    H240055   6.651   3.869   0.679
 6166TIP3   OH240056   3.484   6.832   1.060
 6166TIP3    H140057   3.536   0.027   0.998
 6166TIP3    H240058   3.484   0.028   1.140
 6167TIP3   OH240059   2.394   4.003   0.558
 6167TIP3    H140060   2.380   3.989   0.651
 6167TIP3    H240061   2.482   3.970   0.542
 6168TIP3   OH240062   0.947   1.642   0.124
 6168TIP3    H140063   0.988   1.613   0.043
 6168TIP3    H240064   0.959   1.737   0.124
 6169TIP3   OH240065   0.867   5.794   7.098
 6169TIP3    H140066   0.850   5.722   7.158
 6169TIP3    H240067   0.942   5.765   7.046
 6170TIP3   OH240068   6.247   1.827   0.919
 6170TIP3    H140069   6.199   1.769   0.978
 6170TIP3    H240070   6.267   1.904   0.973
 6171TIP3   OH240071   3.088   6.446   2.245
 6171TIP3    H140072   3.141   6.394   2.185
 6171TIP3    H240073   3.010   6.468   2.195
 6172TIP3   OH240074   1.414   4.075   6.803
 6172TIP3    H140075   1.419   4.111   6.892
 6172TIP3    H240076   1.352   4.133   6.758
 6173TIP3   OH240077   3.506   5.271   1.171
 6173TIP3    H140078   3.466   5.185   1.187
 6173TIP3    H240079   3.459   5.330   1.230
 6174TIP3   OH240080   5.856   1.538   0.049
 6174TIP3    H140081   5.853   1.450   0.012
 6174TIP3    H240082   5.943   1.545   0.088
 6175TIP3   OH240083   3.650   3.914   1.793
 6175TIP3    H140084   3.701   3.995   1.803
 6175TIP3    H240085   3.561   3.944   1.775
 6176TIP3   OH240086   5.301   5.871   0.179
 6176TIP3    H140087   5.380   5.817   0.184
 6176TIP3    H240088   5.230   5.813   0.204
 6177TIP3   OH240089   1.644   0.712   0.358
 6177TIP3    H140090   1.728   0.673   0.382
 6177TIP3    H240091   1.611   0.656   0.287
 6178TIP3   OH240092   5.303   0.881   7.071
 6178TIP3    H140093   5.356   0.802   7.079
 6178TIP3    H240094   5.308   0.922   7.158
 6179TIP3   OH240095   5.320   2.703   0.490
 6179TIP3    H140096   5.247   2.751   0.530
 6179TIP3    H240097   5.278   2.639   0.433
 6180TIP3   OH240098   6.578   5.625   7.441
 6180TIP3    H140099   6.666   5.588   7.434
 6180TIP3    H240100   6.520   5.549   7.433
 6181TIP3   OH240101   1.109   0.076   0.782
 6181TIP3    H140102   1.160   0.012   0.731
 6181TIP3    H240103   1.089   0.145   0.720
 6182TIP3   OH240104   5.130   3.986   0.209
 6182TIP3    H140105   5.081   4.064   0.181
 6182TIP3    H240106   5.193   4.020   0.273
 6183TIP3   OH240107   2.822   3.859   7.133
 6183TIP3    H140108   2.831   3.822   7.045
 6183TIP3    H240109   2.887   3.811   7.185
 6184TIP3   OH240110   1.441   3.329   6.446
 6184TIP3    H140111   1.472   3.265   6.382
 6184TIP3    H240112   1.496   3.314   6.523
 6185TIP3   OH240113   3.823   4.562   8.336
 6185TIP3    H140114   3.793   4.529   8.421
 6185TIP3    H240115   3.817   4.657   8.345
 6186TIP3   OH240116   5.322   5.552   1.386
 6186TIP3    H140117   5.297   5.641   1.363
 6186TIP3    H240118   5.397   5.533   1.330
 6187TIP3   OH240119   0.637   6.255   1.094
 6187TIP3    H140120   0.603   6.342   1.072
 6187TIP3    H240121   0.634   6.207   1.012
 6188TIP3   OH240122   5.361   5.039   6.967
 6188TIP3    H140123   5.433   5.100   6.981
 6188TIP3    H240124   5.402   4.962   6.926
 6189TIP3   OH240125   4.881   3.657   1.701
 6189TIP3    H140126   4.892   3.751   1.717
 6189TIP3    H240127   4.912   3.615   1.781
 6190TIP3   OH240128   2.785   6.829   7.103
 6190TIP3    H140129   2.729   6.753   7.117
 6190TIP3    H240130   2.864   6.811   7.154
 6191TIP3   OH240131   2.503   0.549   7.777
 6191TIP3    H140132   2.472   0.459   7.785
 6191TIP3    H240133   2.518   0.561   7.683
 6192TIP3   OH240134   2.820   2.251   0.145
 6192TIP3    H140135   2.868   2.314   0.198
 6192TIP3    H240136   2.832   2.167   0.191
 6193TIP3   OH240137   2.431   4.092   8.207
 6193TIP3    H140138   2.449   4.181   8.237
 6193TIP3    H240139   2.513   4.046   8.217
 6194TIP3   OH240140   3.801   3.591   6.692
 6194TIP3    H140141   3.776   3.589   6.784
 6194TIP3    H240142   3.722   3.618   6.646
 6195TIP3   OH240143   4.798   5.727   8.610
 6195TIP3    H140144   4.859   5.800   8.613
 6195TIP3    H240145   4.801   5.695   8.520
 6196TIP3   OH240146   3.317   3.299   1.937
 6196TIP3    H140147   3.348   3.390   1.941
 6196TIP3    H240148   3.244   3.296   1.999
 6197TIP3   OH240149   6.831   0.041   7.062
 6197TIP3    H140150   0.018   0.056   7.146
 6197TIP3    H240151   0.013   6.817   7.028
 6198TIP3   OH240152   4.649   6.098   7.290
 6198TIP3    H140153   4.593   6.133   7.222
 6198TIP3    H240154   4.738   6.115   7.259
 6199TIP3   OH240155   6.697   2.494   8.164
 6199TIP3    H140156   6.748   2.538   8.096
 6199TIP3    H240157   6.741   2.410   8.176
 6200TIP3   OH240158   2.377   5.330   1.323
 6200TIP3    H140159   2.327   5.372   1.393
 6200TIP3    H240160   2.419   5.255   1.365
 6201TIP3   OH240161   4.204   6.430   6.471
 6201TIP3    H140162   4.205   6.349   6.420
 6201TIP3    H240163   4.151   6.409   6.548
 6202TIP3   OH240164   0.731   3.913   2.108
 6202TIP3    H140165   0.638   3.925   2.127
 6202TIP3    H240166   0.744   3.818   2.107
 6203TIP3   OH240167   5.804   4.616   7.882
 6203TIP3    H140168   5.888   4.642   7.843
 6203TIP3    H240169   5.748   4.596   7.807
 6204TIP3   OH240170   2.653   5.447   6.355
 6204TIP3    H140171   2.743   5.460   6.324
 6204TIP3    H240172   2.640   5.516   6.419
 6205TIP3   OH240173   4.303   2.107   7.107
 6205TIP3    H140174   4.394   2.095   7.082
 6205TIP3    H240175   4.305   2.176   7.173
 6206TIP3   OH240176   5.804   5.689   1.106
 6206TIP3    H140177   5.861   5.766   1.100
 6206TIP3    H240178   5.864   5.616   1.117
 6207TIP3   OH240179   6.080   3.918   7.694
 6207TIP3    H140180   6.152   3.855   7.703
 6207TIP3    H240181   6.112   3.982   7.631
 6208TIP3   OH240182   0.969   4.242   1.918
 6208TIP3    H140183   0.980   4.168   1.977
 6208TIP3    H240184   0.989   4.319   1.971
 6209TIP3   OH240185   0.329   3.920   0.289
 6209TIP3    H140186   0.241   3.958   0.290
 6209TIP3    H240187   0.348   3.908   0.196
 6210TIP3   OH240188   1.681   2.874   1.237
 6210TIP3    H140189   1.757   2.818   1.222
 6210TIP3    H240190   1.618   2.847   1.170
 6211TIP3   OH240191   2.559   2.834   1.417
 6211TIP3    H140192   2.503   2.769   1.374
 6211TIP3    H240193   2.499   2.885   1.472
 6212TIP3   OH240194   5.750   3.070   2.287
 6212TIP3    H140195   5.715   2.982   2.276
 6212TIP3    H240196   5.845   3.060   2.281
 6213TIP3   OH240197   5.683   5.344   1.270
 6213TIP3    H140198   5.774   5.315   1.256
 6213TIP3    H240199   5.654   5.294   1.346
 6214TIP3   OH240200   5.922   6.561   8.667
 6214TIP3    H140201   5.923   6.465   8.668
 6214TIP3    H240202   5.993   6.586   8.608
 6215TIP3   OH240203   0.544   0.546   0.335
 6215TIP3    H140204   0.565   0.638   0.320
 6215TIP3    H240205   0.449   0.545   0.347
 6216TIP3   OH240206   2.067   3.017   1.974
 6216TIP3    H140207   1.993   2.970   1.933
 6216TIP3    H240208   2.031   3.103   1.997
 6217TIP3   OH240209   2.823   0.747   0.885
 6217TIP3    H140210   2.891   0.711   0.827
 6217TIP3    H240211   2.849   0.838   0.898
 6218TIP3   OH240212   1.535   3.839   1.576
 6218TIP3    H140213   1.530   3.886   1.659
 6218TIP3    H240214   1.444   3.815   1.557
 6219TIP3   OH240215   4.522   5.994   6.694
 6219TIP3    H140216   4.607   6.034   6.708
 6219TIP3    H240217   4.507   5.999   6.600
 6220TIP3   OH240218   2.954   4.376   8.292
 6220TIP3    H140219   3.032   4.323   8.276
 6220TIP3    H240220   2.986   4.452   8.341
 6221TIP3   OH240221   3.629   4.800   8.126
 6221TIP3    H140222   3.546   4.841   8.152
 6221TIP3    H240223   3.664   4.858   8.059
 6222TIP3   OH240224   6.571   3.992   0.012
 6222TIP3    H140225   6.486   4.027   8.699
 6222TIP3    H240226   6.602   4.053   0.079
 6223TIP3   OH240227   1.590   0.334   7.435
 6223TIP3    H140228   1.598   0.345   7.340
 6223TIP3    H240229   1.677   0.353   7.469
 6224TIP3   OH240230   4.395   3.790   8.040
 6224TIP3    H140231   4.415   3.704   8.076
 6224TIP3    H240232   4.313   3.778   7.992
 6225TIP3   OH240233   6.090   2.629   2.430
 6225TIP3    H140234   6.072   2.557   2.490
 6225TIP3    H240235   6.157   2.682   2.474
 6226TIP3   OH240236   1.136   1.744   7.820
 6226TIP3    H140237   1.191   1.724   7.896
 6226TIP3    H240238   1.174   1.693   7.749
 6227TIP3   OH240239   6.244   5.595   8.307
 6227TIP3    H140240   6.255   5.585   8.402
 6227TIP3    H240241   6.285   5.516   8.270
 6228TIP3   OH240242   4.574   5.443   8.303
 6228TIP3    H140243   4.530   5.476   8.225
 6228TIP3    H240244   4.661   5.417   8.273
 6229TIP3   OH240245   0.912   5.805   1.440
 6229TIP3    H140246   0.918   5.755   1.521
 6229TIP3    H240247   0.916   5.896   1.468
 6230TIP3   OH240248   1.840   2.463   2.155
 6230TIP3    H140249   1.862   2.429   2.241
 6230TIP3    H240250   1.919   2.510   2.126
 6231TIP3   OH240251   6.200   1.976   7.664
 6231TIP3    H140252   6.177   1.994   7.755
 6231TIP3    H240253   6.119   1.989   7.615
 6232TIP3   OH240254   4.635   0.010   0.473
 6232TIP3    H140255   4.707   6.804   0.480
 6232TIP3    H240256   4.573   6.824   0.414
 6233TIP3   OH240257   4.608   0.829   1.611
 6233TIP3    H140258   4.552   0.752   1.627
 6233TIP3    H240259   4.553   0.904   1.634
 6234TIP3   OH240260   2.519   5.473   8.075
 6234TIP3    H140261   2.548   5.382   8.072
 6234TIP3    H240262   2.586   5.521   8.026
 6235TIP3   OH240263   0.499   1.423   7.425
 6235TIP3    H140264   0.492   1.328   7.417
 6235TIP3    H240265   0.409   1.455   7.415
 6236TIP3   OH240266   3.342   4.083   2.266
 6236TIP3    H140267   3.353   3.989   2.251
 6236TIP3    H240268   3.413   4.106   2.325
 6237TIP3   OH240269   4.463   0.976   7.487
 6237TIP3    H140270   4.502   1.056   7.522
 6237TIP3    H240271   4.521   0.906   7.517
 6238TIP3   OH240272   4.188   1.861   1.145
 6238TIP3    H140273   4.218   1.919   1.075
 6238TIP3    H240274   4.215   1.774   1.116
 6239TIP3   OH240275   4.035   2.393   7.933
 6239TIP3    H140276   4.085   2.396   8.014
 6239TIP3    H240277   4.044   2.481   7.896
 6240TIP3   OH240278   0.853   3.855   6.877
 6240TIP3    H140279   0.877   3.844   6.785
 6240TIP3    H240280   0.931   3.889   6.919
 6241TIP3   OH240281   1.169   4.982   7.314
 6241TIP3    H140282   1.084   4.988   7.269
 6241TIP3    H240283   1.216   5.060   7.286
 6242TIP3   OH240284   0.662   3.861   1.223
 6242TIP3    H140285   0.717   3.902   1.157
 6242TIP3    H240286   0.699   3.774   1.236
 6243TIP3   OH240287   6.332   4.011   8.347
 6243TIP3    H140288   6.325   3.979   8.437
 6243TIP3    H240289   6.244   4.042   8.326
 6244TIP3   OH240290   3.012   2.372   8.669
 6244TIP3    H140291   2.932   2.356   0.004
 6244TIP3    H240292   3.071   2.301   8.695
 6245TIP3   OH240293   5.513   6.504   0.603
 6245TIP3    H140294   5.437   6.447   0.591
 6245TIP3    H240295   5.573   6.479   0.533
 6246TIP3   OH240296   3.730   2.713   8.337
 6246TIP3    H140297   3.791   2.658   8.386
 6246TIP3    H240298   3.659   2.731   8.399
 6247TIP3   OH240299   0.617   3.076   1.380
 6247TIP3    H140300   0.615   3.109   1.470
 6247TIP3    H240301   0.528   3.042   1.365
 6248TIP3   OH240302   1.115   0.046   1.179
 6248TIP3    H140303   1.182   0.108   1.152
 6248TIP3    H240304   1.038   0.100   1.197
 6249TIP3   OH240305   3.874   3.060   8.526
 6249TIP3    H140306   3.782   3.053   8.504
 6249TIP3    H240307   3.898   3.150   8.502
 6250TIP3   OH240308   4.961   0.225   8.084
 6250TIP3    H140309   4.909   0.145   8.090
 6250TIP3    H240310   4.996   0.237   8.173
 6251TIP3   OH240311   3.433   1.666   7.993
 6251TIP3    H140312   3.492   1.729   8.035
 6251TIP3    H240313   3.485   1.627   7.923
 6252TIP3   OH240314   5.476   5.693   7.243
 6252TIP3    H140315   5.381   5.680   7.233
 6252TIP3    H240316   5.516   5.628   7.185
 6253TIP3   OH240317   6.827   0.400   2.302
 6253TIP3    H140318   0.031   0.331   2.328
 6253TIP3    H240319   6.786   0.428   2.383
 6254TIP3   OH240320   6.291   0.204   7.818
 6254TIP3    H140321   6.305   0.113   7.795
 6254TIP3    H240322   6.196   0.216   7.815
 6255TIP3   OH240323   3.142   4.981   8.452
 6255TIP3    H140324   3.142   5.010   8.361
 6255TIP3    H240325   3.063   5.020   8.490
 6256TIP3   OH240326   1.901   5.810   7.155
 6256TIP3    H140327   1.970   5.784   7.216
 6256TIP3    H240328   1.821   5.806   7.206
 6257TIP3   OH240329   5.416   1.796   7.142
 6257TIP3    H140330   5.332   1.775   7.182
 6257TIP3    H240331   5.433   1.723   7.082
 6258TIP3   OH240332   2.643   5.667   2.067
 6258TIP3    H140333   2.583   5.742   2.074
 6258TIP3    H240334   2.595   5.602   2.016
 6259TIP3   OH240335   2.647   6.485   1.449
 6259TIP3    H140336   2.718   6.458   1.390
 6259TIP3    H240337   2.601   6.554   1.403
 6260TIP3   OH240338   4.997   2.374   0.568
 6260TIP3    H140339   4.946   2.293   0.580
 6260TIP3    H240340   5.015   2.404   0.657
 6261TIP3   OH240341   5.213   4.887   1.991
 6261TIP3    H140342   5.126   4.917   1.964
 6261TIP3    H240343   5.198   4.799   2.025
 6262TIP3   OH240344   4.889   4.094   8.099
 6262TIP3    H140345   4.853   4.118   8.013
 6262TIP3    H240346   4.965   4.150   8.110
 6263TIP3   OH240347   6.407   4.510   6.565
 6263TIP3    H140348   6.333   4.459   6.533
 6263TIP3    H240349   6.387   4.600   6.540
 6264TIP3   OH240350   2.057   1.334   7.073
 6264TIP3    H140351   2.001   1.410   7.057
 6264TIP3    H240352   2.121   1.336   7.002
 6265TIP3   OH240353   6.045   5.660   6.021
 6265TIP3    H140354   6.091   5.704   6.092
 6265TIP3    H240355   5.953   5.683   6.035
 6266TIP3   OH240356   1.142   5.852   0.288
 6266TIP3    H140357   1.133   5.925   0.349
 6266TIP3    H240358   1.060   5.804   0.297
 6267TIP3   OH240359   4.196   2.614   8.707
 6267TIP3    H140360   4.219   2.526   8.678
 6267TIP3    H240361   4.212   2.614   0.088
 6268TIP3   OH240362   5.512   2.418   0.799
 6268TIP3    H140363   5.520   2.508   0.767
 6268TIP3    H240364   5.471   2.370   0.727
 6269TIP3   OH240365   3.628   5.033   0.721
 6269TIP3    H140366   3.601   5.026   0.813
 6269TIP3    H240367   3.641   4.942   0.693
 6270TIP3   OH240368   1.609   1.849   0.859
 6270TIP3    H140369   1.690   1.893   0.835
 6270TIP3    H240370   1.584   1.799   0.781
 6271TIP3   OH240371   3.780   3.619   0.272
 6271TIP3    H140372   3.687   3.627   0.291
 6271TIP3    H240373   3.824   3.626   0.357
 6272TIP3   OH240374   3.294   1.100   2.168
 6272TIP3    H140375   3.300   1.174   2.107
 6272TIP3    H240376   3.363   1.116   2.232
 6273TIP3   OH240377   4.975   6.444   1.025
 6273TIP3    H140378   5.023   6.509   0.974
 6273TIP3    H240379   4.957   6.487   1.108
 6274TIP3   OH240380   1.000   4.399   7.525
 6274TIP3    H140381   1.083   4.352   7.514
 6274TIP3    H240382   1.013   4.481   7.477
 6275TIP3   OH240383   4.488   4.059   1.174
 6275TIP3    H140384   4.397   4.064   1.201
 6275TIP3    H240385   4.517   4.150   1.167
 6276TIP3   OH240386   3.828   6.516   8.006
 6276TIP3    H140387   3.820   6.427   8.040
 6276TIP3    H240388   3.829   6.571   8.084
 6277TIP3   OH240389   1.284   6.599   0.046
 6277TIP3    H140390   1.293   6.632   0.135
 6277TIP3    H240391   1.206   6.543   0.049
 6278TIP3   OH240392   5.149   3.885   8.572
 6278TIP3    H140393   5.107   3.930   8.499
 6278TIP3    H240394   5.099   3.804   8.583
 6279TIP3   OH240395   2.774   3.287   8.711
 6279TIP3    H140396   2.810   3.201   8.690
 6279TIP3    H240397   2.847   3.336   0.035
 6280TIP3   OH240398   4.746   6.438   0.580
 6280TIP3    H140399   4.758   6.354   0.535
 6280TIP3    H240400   4.683   6.419   0.649
 6281TIP3   OH240401   2.761   5.285   8.380
 6281TIP3    H140402   2.797   5.356   8.328
 6281TIP3    H240403   2.830   5.265   8.444
 6282TIP3   OH240404   0.410   1.427   1.747
 6282TIP3    H140405   0.437   1.464   1.832
 6282TIP3    H240406   0.328   1.381   1.766
 6283TIP3   OH240407   5.846   4.716   0.014
 6283TIP3    H140408   5.853   4.621   0.009
 6283TIP3    H240409   5.887   4.748   8.647
 6284TIP3   OH240410   3.888   6.295   0.551
 6284TIP3    H140411   3.973   6.293   0.594
 6284TIP3    H240412   3.848   6.376   0.582
 6285TIP3   OH240413   2.467   1.790   0.292
 6285TIP3    H140414   2.519   1.865   0.319
 6285TIP3    H240415   2.520   1.714   0.317
 6286TIP3   OH240416   3.842   1.563   1.711
 6286TIP3    H140417   3.892   1.541   1.790
 6286TIP3    H240418   3.851   1.485   1.655
 6287TIP3   OH240419   3.969   4.051   1.470
 6287TIP3    H140420   3.922   3.998   1.407
 6287TIP3    H240421   4.015   3.988   1.526
 6288TIP3   OH240422   2.672   2.877   6.871
 6288TIP3    H140423   2.591   2.927   6.864
 6288TIP3    H240424   2.727   2.909   6.799
 6289TIP3   OH240425   2.031   0.158   2.278
 6289TIP3    H140426   2.074   0.195   2.355
 6289TIP3    H240427   1.954   0.212   2.265
 6290TIP3   OH240428   4.981   2.973   0.224
 6290TIP3    H140429   4.953   3.009   0.140
 6290TIP3    H240430   4.944   3.033   0.289
 6291TIP3   OH240431   0.865   0.430   1.591
 6291TIP3    H140432   0.938   0.396   1.643
 6291TIP3    H240433   0.900   0.509   1.549
 6292TIP3   OH240434   6.460   5.120   0.099
 6292TIP3    H140435   6.415   5.138   0.182
 6292TIP3    H240436   6.516   5.044   0.118
 6293TIP3   OH240437   3.503   4.228   7.156
 6293TIP3    H140438   3.571   4.207   7.092
 6293TIP3    H240439   3.526   4.316   7.187
 6294TIP3   OH240440   4.587   0.788   1.120
 6294TIP3    H140441   4.591   0.873   1.165
 6294TIP3    H240442   4.600   0.723   1.190
 6295TIP3   OH240443   6.768   2.352   1.571
 6295TIP3    H140444   6.780   2.347   1.666
 6295TIP3    H240445   6.688   2.302   1.554
 6296TIP3   OH240446   6.360   4.719   6.122
 6296TIP3    H140447   6.352   4.626   6.105
 6296TIP3    H240448   6.419   4.725   6.197
 6297TIP3   OH240449   4.502   6.671   0.130
 6297TIP3    H140450   4.452   6.710   0.058
 6297TIP3    H240451   4.579   6.727   0.140
 6298TIP3   OH240452   3.246   2.253   0.041
 6298TIP3    H140453   3.237   2.324   0.105
 6298TIP3    H240454   3.315   2.283   8.695
 6299TIP3   OH240455   1.164   3.238   0.732
 6299TIP3    H140456   1.207   3.304   0.678
 6299TIP3    H240457   1.233   3.175   0.754
 6300TIP3   OH240458   5.020   4.616   7.229
 6300TIP3    H140459   5.077   4.667   7.172
 6300TIP3    H240460   4.966   4.565   7.168
 6301TIP3   OH240461   3.254   4.326   0.202
 6301TIP3    H140462   3.286   4.282   0.123
 6301TIP3    H240463   3.334   4.353   0.248
 6302TIP3   OH240464   4.287   1.112   7.306
 6302TIP3    H140465   4.250   1.033   7.266
 6302TIP3    H240466   4.339   1.079   7.380
 6303TIP3   OH240467   4.189   5.547   8.272
 6303TIP3    H140468   4.225   5.513   8.190
 6303TIP3    H240469   4.248   5.516   8.340
 6304TIP3   OH240470   0.095   4.079   0.244
 6304TIP3    H140471   0.099   4.173   0.259
 6304TIP3    H240472   0.003   4.056   0.256
 6305TIP3   OH240473   4.746   0.832   2.156
 6305TIP3    H140474   4.821   0.891   2.162
 6305TIP3    H240475   4.783   0.744   2.158
 6306TIP3   OH240476   0.274   6.307   0.752
 6306TIP3    H140477   0.212   6.379   0.740
 6306TIP3    H240478   0.241   6.260   0.829
 6307TIP3   OH240479   4.894   0.240   7.612
 6307TIP3    H140480   4.897   0.292   7.692
 6307TIP3    H240481   4.897   0.304   7.541
 6308TIP3   OH240482   1.958   2.709   0.904
 6308TIP3    H140483   1.945   2.710   0.998
 6308TIP3    H240484   1.926   2.795   0.875
 6309TIP3   OH240485   3.272   0.157   0.060
 6309TIP3    H140486   3.248   0.219   8.705
 6309TIP3    H240487   3.223   0.185   0.137
 6310TIP3   OH240488   0.382   6.256   1.413
 6310TIP3    H140489   0.448   6.198   1.376
 6310TIP3    H240490   0.301   6.232   1.368
 6311TIP3   OH240491   5.959   1.912   7.232
 6311TIP3    H140492   5.994   1.965   7.161
 6311TIP3    H240493   5.869   1.893   7.206
 6312TIP3   OH240494   6.225   2.752   0.308
 6312TIP3    H140495   6.227   2.692   0.234
 6312TIP3    H240496   6.244   2.838   0.270
 6313TIP3   OH240497   3.533   2.362   7.859
 6313TIP3    H140498   3.624   2.390   7.853
 6313TIP3    H240499   3.484   2.444   7.870
 6314TIP3   OH240500   4.080   5.033   7.953
 6314TIP3    H140501   4.124   5.109   7.915
 6314TIP3    H240502   4.137   4.959   7.932
 6315TIP3   OH240503   3.901   2.838   7.198
 6315TIP3    H140504   3.887   2.821   7.291
 6315TIP3    H240505   3.849   2.915   7.178
 6316TIP3   OH240506   6.254   2.554   7.945
 6316TIP3    H140507   6.193   2.485   7.920
 6316TIP3    H240508   6.322   2.550   7.878
 6317TIP3   OH240509   5.924   6.812   6.735
 6317TIP3    H140510   5.948   6.722   6.714
 6317TIP3    H240511   5.862   6.837   6.667
 6318TIP3   OH240512   5.246   4.462   8.295
 6318TIP3    H140513   5.240   4.441   8.389
 6318TIP3    H240514   5.301   4.541   8.292
 6319TIP3   OH240515   1.011   1.740   7.487
 6319TIP3    H140516   0.989   1.652   7.516
 6319TIP3    H240517   0.998   1.739   7.392
 6320TIP3   OH240518   6.474   4.853   7.481
 6320TIP3    H140519   6.437   4.767   7.462
 6320TIP3    H240520   6.470   4.900   7.398
 6321TIP3   OH240521   1.230   5.206   0.797
 6321TIP3    H140522   1.241   5.131   0.855
 6321TIP3    H240523   1.272   5.180   0.715
 6322TIP3   OH240524   1.653   4.270   6.642
 6322TIP3    H140525   1.746   4.281   6.624
 6322TIP3    H240526   1.617   4.359   6.640
 6323TIP3   OH240527   1.269   0.016   6.627
 6323TIP3    H140528   1.294   6.783   6.649
 6323TIP3    H240529   1.345   0.051   6.580
 6324TIP3   OH240530   0.259   1.928   7.564
 6324TIP3    H140531   0.305   1.967   7.638
 6324TIP3    H240532   0.166   1.938   7.585
 6325TIP3   OH240533   3.465   1.561   1.189
 6325TIP3    H140534   3.398   1.616   1.229
 6325TIP3    H240535   3.418   1.482   1.162
 6326TIP3   OH240536   2.298   0.280   7.718
 6326TIP3    H140537   2.253   0.303   7.799
 6326TIP3    H240538   2.371   0.225   7.746
 6327TIP3   OH240539   5.125   2.365   7.952
 6327TIP3    H140540   5.046   2.368   8.007
 6327TIP3    H240541   5.194   2.333   8.011
 6328TIP3   OH240542   0.080   2.302   0.159
 6328TIP3    H140543   0.061   2.390   0.126
 6328TIP3    H240544   0.149   2.270   0.102
 6329TIP3   OH240545   5.372   2.083   1.598
 6329TIP3    H140546   5.410   2.116   1.680
 6329TIP3    H240547   5.278   2.096   1.608
 6330TIP3   OH240548   0.083   6.191   1.485
 6330TIP3    H140549   6.851   6.184   1.450
 6330TIP3    H240550   0.071   6.197   1.580
 6331TIP3   OH240551   4.956   3.355   1.758
 6331TIP3    H140552   5.001   3.367   1.842
 6331TIP3    H240553   4.891   3.425   1.755
 6332TIP3   OH240554   4.981   6.583   0.523
 6332TIP3    H140555   5.059   6.546   0.482
 6332TIP3    H240556   4.922   6.509   0.535
 6333TIP3   OH240557   3.971   4.005   7.388
 6333TIP3    H140558   4.059   4.042   7.402
 6333TIP3    H240559   3.911   4.076   7.413
 6334TIP3   OH240560   4.533   0.230   0.023
 6334TIP3    H140561   4.516   0.303   0.083
 6334TIP3    H240562   4.500   0.261   8.652
 6335TIP3   OH240563   6.389   5.825   0.806
 6335TIP3    H140564   6.423   5.784   0.886
 6335TIP3    H240565   6.372   5.916   0.831
 6336TIP3   OH240566   6.843   5.504   7.470
 6336TIP3    H140567   0.028   5.419   7.485
 6336TIP3    H240568   6.841   5.544   7.557
 6337TIP3   OH240569   4.096   6.609   8.440
 6337TIP3    H140570   4.050   6.652   8.513
 6337TIP3    H240571   4.029   6.599   8.373
 6338TIP3   OH240572   4.120   0.443   0.565
 6338TIP3    H140573   4.196   0.455   0.622
 6338TIP3    H240574   4.099   0.350   0.573
 6339TIP3   OH240575   6.669   6.407   0.346
 6339TIP3    H140576   6.606   6.341   0.372
 6339TIP3    H240577   6.635   6.441   0.263
 6340TIP3   OH240578   6.734   1.993   1.288
 6340TIP3    H140579   6.765   1.954   1.207
 6340TIP3    H240580   6.639   2.002   1.276
 6341TIP3   OH240581   3.048   6.365   1.854
 6341TIP3    H140582   3.030   6.412   1.936
 6341TIP3    H240583   3.014   6.277   1.870
 6342TIP3   OH240584   0.195   0.344   7.363
 6342TIP3    H140585   0.116   0.298   7.333
 6342TIP3    H240586   0.227   0.390   7.285
 6343TIP3   OH240587   1.067   1.460   1.296
 6343TIP3    H140588   1.076   1.508   1.379
 6343TIP3    H240589   1.148   1.477   1.250
 6344TIP3   OH240590   0.574   0.929   0.568
 6344TIP3    H140591   0.628   0.942   0.491
 6344TIP3    H240592   0.607   0.848   0.607
 6345TIP3   OH240593   1.737   5.007   7.852
 6345TIP3    H140594   1.832   5.003   7.859
 6345TIP3    H240595   1.719   4.987   7.760
 6346TIP3   OH240596   5.915   4.830   8.482
 6346TIP3    H140597   5.901   4.741   8.450
 6346TIP3    H240598   5.975   4.870   8.420
 6347TIP3   OH240599   2.979   3.060   1.395
 6347TIP3    H140600   3.073   3.075   1.401
 6347TIP3    H240601   2.970   2.965   1.396
 6348TIP3   OH240602   1.728   3.955   8.711
 6348TIP3    H140603   1.668   3.997   0.059
 6348TIP3    H240604   1.691   3.868   8.697
 6349TIP3   OH240605   1.749   2.897   7.268
 6349TIP3    H140606   1.702   2.836   7.326
 6349TIP3    H240607   1.841   2.880   7.286
 6350TIP3   OH240608   3.945   1.135   0.342
 6350TIP3    H140609   3.935   1.133   0.247
 6350TIP3    H240610   3.956   1.228   0.363
 6351TIP3   OH240611   1.659   6.184   7.152
 6351TIP3    H140612   1.696   6.260   7.196
 6351TIP3    H240613   1.733   6.123   7.145
 6352TIP3   OH240614   4.590   6.313   6.831
 6352TIP3    H140615   4.598   6.242   6.895
 6352TIP3    H240616   4.644   6.285   6.757
 6353TIP3   OH240617   6.083   3.349   8.282
 6353TIP3    H140618   6.046   3.296   8.212
 6353TIP3    H240619   6.082   3.439   8.248
 6354TIP3   OH240620   1.448   3.597   7.514
 6354TIP3    H140621   1.504   3.540   7.461
 6354TIP3    H240622   1.375   3.541   7.541
 6355TIP3   OH240623   2.639   6.381   7.929
 6355TIP3    H140624   2.661   6.324   7.855
 6355TIP3    H240625   2.723   6.410   7.962
 6356TIP3   OH240626   1.719   6.585   0.892
 6356TIP3    H140627   1.745   6.646   0.823
 6356TIP3    H240628   1.631   6.556   0.868
 6357TIP3   OH240629   4.102   0.464   7.713
 6357TIP3    H140630   4.044   0.392   7.737
 6357TIP3    H240631   4.071   0.493   7.627
 6358TIP3   OH240632   4.691   3.161   7.368
 6358TIP3    H140633   4.636   3.101   7.317
 6358TIP3    H240634   4.657   3.248   7.347
 6359TIP3   OH240635   5.689   5.195   6.314
 6359TIP3    H140636   5.754   5.129   6.337
 6359TIP3    H240637   5.605   5.158   6.340
 6360TIP3   OH240638   4.289   6.700   6.965
 6360TIP3    H140639   4.360   6.671   6.908
 6360TIP3    H240640   4.261   6.784   6.928
 6361TIP3   OH240641   0.874   5.242   8.500
 6361TIP3    H140642   0.850   5.284   8.583
 6361TIP3    H240643   0.945   5.182   8.524
 6362TIP3   OH240644   6.251   3.026   0.299
 6362TIP3    H140645   6.291   3.079   0.230
 6362TIP3    H240646   6.161   3.058   0.305
 6363TIP3   OH240647   5.317   5.546   7.763
 6363TIP3    H140648   5.282   5.558   7.675
 6363TIP3    H240649   5.360   5.460   7.760
 6364TIP3   OH240650   1.696   6.398   1.579
 6364TIP3    H140651   1.647   6.410   1.661
 6364TIP3    H240652   1.694   6.304   1.564
 6365TIP3   OH240653   2.607   2.679   0.870
 6365TIP3    H140654   2.659   2.692   0.949
 6365TIP3    H240655   2.672   2.666   0.801
 6366TIP3   OH240656   3.614   4.091   0.594
 6366TIP3    H140657   3.644   4.019   0.648
 6366TIP3    H240658   3.541   4.056   0.544
 6367TIP3   OH240659   1.513   6.271   7.918
 6367TIP3    H140660   1.460   6.300   7.844
 6367TIP3    H240661   1.531   6.179   7.900
 6368TIP3   OH240662   2.709   2.091   7.404
 6368TIP3    H140663   2.685   2.157   7.340
 6368TIP3    H240664   2.666   2.011   7.374
 6369TIP3   OH240665   4.961   4.377   8.437
 6369TIP3    H140666   4.955   4.450   8.375
 6369TIP3    H240667   5.045   4.390   8.481
 6370TIP3   OH240668   1.671   5.110   1.426
 6370TIP3    H140669   1.577   5.108   1.410
 6370TIP3    H240670   1.701   5.191   1.383
 6371TIP3   OH240671   4.300   3.887   8.431
 6371TIP3    H140672   4.392   3.910   8.417
 6371TIP3    H240673   4.272   3.941   8.504
 6372TIP3   OH240674   3.854   1.903   8.568
 6372TIP3    H140675   3.824   1.930   8.481
 6372TIP3    H240676   3.865   1.809   8.562
 6373TIP3   OH240677   1.886   1.004   0.490
 6373TIP3    H140678   1.809   1.036   0.537
 6373TIP3    H240679   1.895   0.913   0.518
 6374TIP3   OH240680   5.713   5.916   0.816
 6374TIP3    H140681   5.653   5.957   0.753
 6374TIP3    H240682   5.758   5.848   0.765
 6375TIP3   OH240683   4.601   5.898   7.657
 6375TIP3    H140684   4.671   5.964   7.660
 6375TIP3    H240685   4.646   5.817   7.634
 6376TIP3   OH240686   3.873   2.843   8.145
 6376TIP3    H140687   3.955   2.877   8.180
 6376TIP3    H240688   3.831   2.800   8.220
 6377TIP3   OH240689   3.108   0.787   0.011
 6377TIP3    H140690   3.195   0.804   0.048
 6377TIP3    H240691   3.048   0.831   0.071
 6378TIP3   OH240692   6.302   2.754   1.286
 6378TIP3    H140693   6.347   2.700   1.221
 6378TIP3    H240694   6.230   2.700   1.316
 6379TIP3   OH240695   2.281   0.868   0.252
 6379TIP3    H140696   2.262   0.889   0.343
 6379TIP3    H240697   2.218   0.920   0.202
 6380TIP3   OH240698   1.027   6.840   0.350
 6380TIP3    H140699   1.039   6.832   0.256
 6380TIP3    H240700   1.039   0.077   0.368
 6381TIP3   OH240701   6.218   3.411   1.646
 6381TIP3    H140702   6.141   3.380   1.597
 6381TIP3    H240703   6.208   3.506   1.647
 6382TIP3   OH240704   4.731   5.657   7.628
 6382TIP3    H140705   4.671   5.601   7.579
 6382TIP3    H240706   4.812   5.606   7.636
 6383TIP3   OH240707   4.462   3.228   7.179
 6383TIP3    H140708   4.389   3.287   7.163
 6383TIP3    H240709   4.428   3.163   7.240
 6384TIP3   OH240710   4.924   5.666   0.957
 6384TIP3    H140711   4.885   5.747   0.990
 6384TIP3    H240712   5.015   5.689   0.938
 6385TIP3   OH240713   2.134   2.311   1.059
 6385TIP3    H140714   2.060   2.302   0.998
 6385TIP3    H240715   2.160   2.402   1.052
 6386TIP3   OH240716   1.377   0.965   8.567
 6386TIP3    H140717   1.346   0.906   8.636
 6386TIP3    H240718   1.458   0.924   8.536
 6387TIP3   OH240719   0.932   0.359   6.587
 6387TIP3    H140720   0.906   0.319   6.670
 6387TIP3    H240721   0.850   0.389   6.548
 6388TIP3   OH240722   2.998   1.296   0.853
 6388TIP3    H140723   2.928   1.237   0.826
 6388TIP3    H240724   2.953   1.363   0.904
 6389TIP3   OH240725   0.833   3.594   8.570
 6389TIP3    H140726   0.811   3.682   8.537
 6389TIP3    H240727   0.891   3.610   8.644
 6390TIP3   OH240728   5.220   5.269   0.202
 6390TIP3    H140729   5.283   5.340   0.215
 6390TIP3    H240730   5.273   5.189   0.205
 6391TIP3   OH240731   0.085   6.050   1.202
 6391TIP3    H140732   0.020   6.048   1.272
 6391TIP3    H240733   0.087   5.960   1.169
 6392TIP3   OH240734   0.569   0.688   8.596
 6392TIP3    H140735   0.628   0.763   8.599
 6392TIP3    H240736   0.599   0.631   8.667
 6393TIP3   OH240737   6.326   3.736   6.172
 6393TIP3    H140738   6.310   3.700   6.085
 6393TIP3    H240739   6.278   3.677   6.231
 6394TIP3   OH240740   5.802   2.393   2.102
 6394TIP3    H140741   5.819   2.484   2.126
 6394TIP3    H240742   5.881   2.365   2.057
 6395TIP3   OH240743   4.241   2.311   0.339
 6395TIP3    H140744   4.201   2.232   0.303
 6395TIP3    H240745   4.332   2.308   0.308
 6396TIP3   OH240746   5.738   1.015   0.157
 6396TIP3    H140747   5.735   1.012   0.253
 6396TIP3    H240748   5.663   0.962   0.129
 6397TIP3   OH240749   5.259   4.658   0.003
 6397TIP3    H140750   5.172   4.678   8.682
 6397TIP3    H240751   5.316   4.724   8.676
 6398TIP3   OH240752   2.465   4.462   0.000
 6398TIP3    H140753   2.552   4.480   0.036
 6398TIP3    H240754   2.458   4.520   8.638
 6399TIP3   OH240755   3.731   5.756   6.767
 6399TIP3    H140756   3.786   5.794   6.698
 6399TIP3    H240757   3.660   5.713   6.721
 6400TIP3   OH240758   0.045   1.618   8.345
 6400TIP3    H140759   6.833   1.611   8.412
 6400TIP3    H240760   0.002   1.593   8.264
 6401TIP3   OH240761   3.434   2.473   1.114
 6401TIP3    H140762   3.502   2.419   1.073
 6401TIP3    H240763   3.480   2.520   1.184
 6402TIP3   OH240764   0.846   6.037   6.940
 6402TIP3    H140765   0.757   6.071   6.928
 6402TIP3    H240766   0.834   5.955   6.987
 6403TIP3   OH240767   0.157   0.943   6.402
 6403TIP3    H140768   0.165   1.017   6.343
 6403TIP3    H240769   0.095   0.972   6.469
 6404TIP3   OH240770   1.270   5.902   8.359
 6404TIP3    H140771   1.221   5.983   8.378
 6404TIP3    H240772   1.239   5.840   8.425
 6405TIP3   OH240773   4.282   3.741   0.133
 6405TIP3    H140774   4.303   3.835   0.131
 6405TIP3    H240775   4.198   3.736   0.178
 6406TIP3   OH240776   1.449   3.389   7.041
 6406TIP3    H140777   1.363   3.388   7.083
 6406TIP3    H240778   1.450   3.310   6.986
 6407TIP3   OH240779   5.452   2.688   7.258
 6407TIP3    H140780   5.376   2.717   7.208
 6407TIP3    H240781   5.429   2.703   7.349
 6408TIP3   OH240782   4.679   6.707   2.235
 6408TIP3    H140783   4.685   6.616   2.206
 6408TIP3    H240784   4.586   6.722   2.250
 6409TIP3   OH240785   6.146   6.679   0.198
 6409TIP3    H140786   6.124   6.677   0.291
 6409TIP3    H240787   6.180   6.591   0.180
 6410TIP3   OH240788   1.793   3.333   0.236
 6410TIP3    H140789   1.772   3.404   0.296
 6410TIP3    H240790   1.718   3.273   0.243
 6411TIP3   OH240791   5.644   4.882   8.447
 6411TIP3    H140792   5.640   4.970   8.409
 6411TIP3    H240793   5.736   4.870   8.469
 6412TIP3   OH240794   5.174   4.307   2.532
 6412TIP3    H140795   5.243   4.319   2.467
 6412TIP3    H240796   5.097   4.279   2.482
 6413TIP3   OH240797   0.376   1.143   8.483
 6413TIP3    H140798   0.459   1.186   8.502
 6413TIP3    H240799   0.401   1.061   8.439
 6414TIP3   OH240800   5.348   5.990   0.501
 6414TIP3    H140801   5.274   5.981   0.440
 6414TIP3    H240802   5.307   5.992   0.587
 6415TIP3   OH240803   3.522   4.206   2.047
 6415TIP3    H140804   3.567   4.162   1.974
 6415TIP3    H240805   3.592   4.246   2.098
 6416TIP3   OH240806   0.122   4.775   0.929
 6416TIP3    H140807   0.160   4.767   1.017
 6416TIP3    H240808   0.029   4.756   0.942
 6417TIP3   OH240809   5.613   6.565   8.222
 6417TIP3    H140810   5.569   6.487   8.255
 6417TIP3    H240811   5.696   6.567   8.270
 6418TIP3   OH240812   0.480   1.204   6.892
 6418TIP3    H140813   0.515   1.167   6.973
 6418TIP3    H240814   0.385   1.205   6.905
 6419TIP3   OH240815   0.214   1.943   8.087
 6419TIP3    H140816   0.258   1.868   8.046
 6419TIP3    H240817   0.265   1.959   8.167
 6420TIP3   OH240818   1.581   4.691   1.229
 6420TIP3    H140819   1.663   4.646   1.253
 6420TIP3    H240820   1.545   4.721   1.313
 6421TIP3   OH240821   2.113   0.098   0.008
 6421TIP3    H140822   2.067   0.020   8.690
 6421TIP3    H240823   2.046   0.146   0.057
 6422TIP3   OH240824   0.396   5.884   1.441
 6422TIP3    H140825   0.464   5.858   1.503
 6422TIP3    H240826   0.443   5.931   1.372
 6423TIP3   OH240827   1.946   5.277   0.951
 6423TIP3    H140828   1.974   5.217   0.882
 6423TIP3    H240829   2.024   5.293   1.004
 6424TIP3   OH240830   0.117   2.377   0.903
 6424TIP3    H140831   0.117   2.443   0.834
 6424TIP3    H240832   0.169   2.305   0.868
 6425TIP3   OH240833   6.134   5.752   7.400
 6425TIP3    H140834   6.105   5.665   7.427
 6425TIP3    H240835   6.131   5.750   7.304
 6426TIP3   OH240836   2.216   0.525   1.173
 6426TIP3    H140837   2.226   0.542   1.079
 6426TIP3    H240838   2.229   0.431   1.181
 6427TIP3   OH240839   1.477   0.994   7.519
 6427TIP3    H140840   1.545   0.989   7.586
 6427TIP3    H240841   1.516   1.047   7.449
 6428TIP3   OH240842   2.372   5.794   7.473
 6428TIP3    H140843   2.318   5.820   7.548
 6428TIP3    H240844   2.318   5.731   7.425
 6429TIP3   OH240845   2.146   6.432   6.846
 6429TIP3    H140846   2.193   6.359   6.807
 6429TIP3    H240847   2.108   6.396   6.926
 6430TIP3   OH240848   2.718   2.856   8.703
 6430TIP3    H140849   2.625   2.881   8.696
 6430TIP3    H240850   2.719   2.788   0.056
 6431TIP3   OH240851   3.392   0.934   7.700
 6431TIP3    H140852   3.450   1.004   7.668
 6431TIP3    H240853   3.433   0.904   7.781
 6432TIP3   OH240854   5.957   5.660   6.829
 6432TIP3    H140855   5.921   5.616   6.906
 6432TIP3    H240856   6.040   5.615   6.812
 6433TIP3   OH240857   3.154   4.221   8.179
 6433TIP3    H140858   3.222   4.154   8.173
 6433TIP3    H240859   3.150   4.258   8.091
 6434TIP3   OH240860   3.656   6.669   1.307
 6434TIP3    H140861   3.726   6.611   1.275
 6434TIP3    H240862   3.578   6.641   1.259
 6435TIP3   OH240863   0.861   0.062   7.893
 6435TIP3    H140864   0.768   0.069   7.916
 6435TIP3    H240865   0.900   0.142   7.928
 6436TIP3   OH240866   5.693   3.211   1.814
 6436TIP3    H140867   5.687   3.245   1.904
 6436TIP3    H240868   5.632   3.265   1.764
 6437TIP3   OH240869   5.778   6.137   6.758
 6437TIP3    H140870   5.842   6.069   6.780
 6437TIP3    H240871   5.827   6.219   6.767
 6438TIP3   OH240872   5.573   3.419   1.668
 6438TIP3    H140873   5.487   3.378   1.666
 6438TIP3    H240874   5.601   3.422   1.576
 6439TIP3   OH240875   0.579   5.841   6.798
 6439TIP3    H140876   0.618   5.896   6.730
 6439TIP3    H240877   0.506   5.893   6.831
 6440TIP3   OH240878   0.733   2.494   7.260
 6440TIP3    H140879   0.744   2.408   7.300
 6440TIP3    H240880   0.645   2.522   7.286
 6441TIP3   OH240881   3.467   5.218   7.552
 6441TIP3    H140882   3.454   5.218   7.457
 6441TIP3    H240883   3.382   5.243   7.587
 6442TIP3   OH240884   1.882   1.593   0.082
 6442TIP3    H140885   1.791   1.593   0.109
 6442TIP3    H240886   1.881   1.628   8.706
 6443TIP3   OH240887   3.544   2.038   8.210
 6443TIP3    H140888   3.452   2.026   8.232
 6443TIP3    H240889   3.562   1.971   8.144
 6444TIP3   OH240890   0.123   5.593   7.754
 6444TIP3    H140891   0.168   5.607   7.837
 6444TIP3    H240892   0.049   5.535   7.777
 6445TIP3   OH240893   0.436   3.374   8.628
 6445TIP3    H140894   0.430   3.303   8.693
 6445TIP3    H240895   0.494   3.438   8.669
 6446TIP3   OH240896   0.370   5.195   0.711
 6446TIP3    H140897   0.355   5.242   0.629
 6446TIP3    H240898   0.455   5.153   0.700
 6447TIP3   OH240899   3.116   1.342   1.189
 6447TIP3    H140900   3.104   1.296   1.272
 6447TIP3    H240901   3.196   1.305   1.153
 6448TIP3   OH240902   5.610   1.663   1.372
 6448TIP3    H140903   5.565   1.722   1.432
 6448TIP3    H240904   5.553   1.586   1.366
 6449TIP3   OH240905   1.221   2.663   6.815
 6449TIP3    H140906   1.302   2.676   6.866
 6449TIP3    H240907   1.249   2.669   6.724
 6450TIP3   OH240908   0.815   3.416   1.863
 6450TIP3    H140909   0.853   3.347   1.917
 6450TIP3    H240910   0.886   3.442   1.804
 6451TIP3   OH240911   5.752   4.001   1.045
 6451TIP3    H140912   5.715   3.993   0.957
 6451TIP3    H240913   5.835   3.954   1.042
 6452TIP3   OH240914   5.661   2.959   7.827
 6452TIP3    H140915   5.579   2.912   7.844
 6452TIP3    H240916   5.667   2.963   7.732
 6453TIP3   OH240917   4.849   4.503   0.653
 6453TIP3    H140918   4.812   4.589   0.634
 6453TIP3    H240919   4.940   4.509   0.623
 6454TIP3   OH240920   1.786   0.834   1.014
 6454TIP3    H140921   1.828   0.779   1.080
 6454TIP3    H240922   1.828   0.919   1.022
 6455TIP3   OH240923   1.885   2.236   2.011
 6455TIP3    H140924   1.864   2.316   2.059
 6455TIP3    H240925   1.970   2.208   2.046
 6456TIP3   OH240926   3.538   5.893   0.991
 6456TIP3    H140927   3.571   5.978   1.020
 6456TIP3    H240928   3.483   5.863   1.063
 6457TIP3   OH240929   6.302   6.630   1.676
 6457TIP3    H140930   6.298   6.700   1.741
 6457TIP3    H240931   6.367   6.569   1.710
 6458TIP3   OH240932   4.263   4.168   1.482
 6458TIP3    H140933   4.315   4.215   1.547
 6458TIP3    H240934   4.211   4.105   1.534
 6459TIP3   OH240935   0.081   4.576   0.207
 6459TIP3    H140936   0.108   4.496   0.253
 6459TIP3    H240937   0.050   4.545   0.122
 6460TIP3   OH240938   4.770   6.013   1.465
 6460TIP3    H140939   4.784   6.016   1.560
 6460TIP3    H240940   4.739   6.101   1.443
 6461TIP3   OH240941   0.831   3.405   7.101
 6461TIP3    H140942   0.864   3.492   7.125
 6461TIP3    H240943   0.869   3.346   7.166
 6462TIP3   OH240944   5.810   4.929   1.866
 6462TIP3    H140945   5.747   4.879   1.918
 6462TIP3    H240946   5.889   4.929   1.920
 6463TIP3   OH240947   5.686   3.819   1.605
 6463TIP3    H140948   5.722   3.833   1.517
 6463TIP3    H240949   5.693   3.904   1.647
 6464TIP3   OH240950   5.279   4.621   7.920
 6464TIP3    H140951   5.354   4.601   7.864
 6464TIP3    H240952   5.318   4.653   8.001
 6465TIP3   OH240953   4.721   5.076   1.687
 6465TIP3    H140954   4.627   5.079   1.706
 6465TIP3    H240955   4.763   5.084   1.773
 6466TIP3   OH240956   0.653   5.536   8.187
 6466TIP3    H140957   0.643   5.625   8.154
 6466TIP3    H240958   0.744   5.530   8.216
 6467TIP3   OH240959   0.782   3.921   6.452
 6467TIP3    H140960   0.802   3.888   6.364
 6467TIP3    H240961   0.834   3.865   6.510
 6468TIP3   OH240962   0.786   6.168   7.686
 6468TIP3    H140963   0.784   6.111   7.609
 6468TIP3    H240964   0.833   6.118   7.752
 6469TIP3   OH240965   1.775   4.218   8.568
 6469TIP3    H140966   1.816   4.146   8.617
 6469TIP3    H240967   1.689   4.227   8.608
 6470TIP3   OH240968   5.524   5.707   0.184
 6470TIP3    H140969   5.614   5.724   0.214
 6470TIP3    H240970   5.504   5.619   0.217
 6471TIP3   OH240971   6.108   4.026   1.223
 6471TIP3    H140972   6.202   4.024   1.239
 6471TIP3    H240973   6.082   4.116   1.244
 6472TIP3   OH240974   4.381   1.682   7.546
 6472TIP3    H140975   4.296   1.675   7.590
 6472TIP3    H240976   4.360   1.681   7.453
 6473TIP3   OH240977   6.335   0.299   6.715
 6473TIP3    H140978   6.423   0.336   6.708
 6473TIP3    H240979   6.330   0.236   6.643
 6474TIP3   OH240980   5.186   5.308   2.287
 6474TIP3    H140981   5.194   5.352   2.372
 6474TIP3    H240982   5.276   5.283   2.264
 6475TIP3   OH240983   2.926   6.743   0.196
 6475TIP3    H140984   2.838   6.782   0.194
 6475TIP3    H240985   2.914   6.656   0.158
 6476TIP3   OH240986   5.599   0.860   6.131
 6476TIP3    H140987   5.581   0.806   6.208
 6476TIP3    H240988   5.513   0.891   6.103
 6477TIP3   OH240989   2.811   4.237   6.502
 6477TIP3    H140990   2.829   4.323   6.464
 6477TIP3    H240991   2.808   4.178   6.427
 6478TIP3   OH240992   6.319   5.565   0.700
 6478TIP3    H140993   6.328   5.660   0.711
 6478TIP3    H240994   6.395   5.539   0.648
 6479TIP3   OH240995   2.441   5.665   1.493
 6479TIP3    H140996   2.457   5.658   1.587
 6479TIP3    H240997   2.513   5.719   1.460
 6480TIP3   OH240998   2.190   0.902   0.792
 6480TIP3    H140999   2.163   0.984   0.833
 6480TIP3    H241000   2.283   0.895   0.812
 6481TIP3   OH241001   4.273   5.806   7.833
 6481TIP3    H141002   4.321   5.780   7.755
 6481TIP3    H241003   4.199   5.746   7.837
 6482TIP3   OH241004   6.546   5.483   8.382
 6482TIP3    H141005   6.534   5.509   8.291
 6482TIP3    H241006   6.468   5.513   8.427
 6483TIP3   OH241007   0.306   3.098   1.991
 6483TIP3    H141008   0.355   3.136   2.064
 6483TIP3    H241009   0.345   3.136   1.913
 6484TIP3   OH241010   3.783   6.717   6.284
 6484TIP3    H141011   3.854   6.677   6.234
 6484TIP3    H241012   3.826   6.756   6.360
 6485TIP3   OH241013   3.473   2.971   0.455
 6485TIP3    H141014   3.474   2.974   0.360
 6485TIP3    H241015   3.381   2.984   0.479
 6486TIP3   OH241016   4.296   0.893   0.279
 6486TIP3    H141017   4.263   0.982   0.268
 6486TIP3    H241018   4.258   0.863   0.362
 6487TIP3   OH241019   6.820   0.147   1.590
 6487TIP3    H141020   6.737   0.175   1.551
 6487TIP3    H241021   6.821   0.052   1.581
 6488TIP3   OH241022   6.513   4.158   0.994
 6488TIP3    H141023   6.507   4.254   0.997
 6488TIP3    H241024   6.442   4.128   1.051
 6489TIP3   OH241025   1.668   5.041   0.442
 6489TIP3    H141026   1.638   5.132   0.436
 6489TIP3    H241027   1.666   5.021   0.536
 6490TIP3   OH241028   5.281   0.538   7.978
 6490TIP3    H141029   5.238   0.554   7.895
 6490TIP3    H241030   5.370   0.571   7.966
 6491TIP3   OH241031   1.665   3.992   7.413
 6491TIP3    H141032   1.637   4.084   7.415
 6491TIP3    H241033   1.705   3.977   7.498
 6492TIP3   OH241034   2.142   1.793   7.128
 6492TIP3    H141035   2.085   1.820   7.056
 6492TIP3    H241036   2.087   1.801   7.206
 6493TIP3   OH241037   4.796   3.443   7.082
 6493TIP3    H141038   4.870   3.471   7.029
 6493TIP3    H241039   4.817   3.353   7.107
 6494TIP3   OH241040   4.956   4.263   6.709
 6494TIP3    H141041   4.881   4.312   6.743
 6494TIP3    H241042   5.032   4.304   6.750
 6495TIP3   OH241043   6.082   4.300   1.207
 6495TIP3    H141044   6.122   4.387   1.199
 6495TIP3    H241045   6.056   4.277   1.118
 6496TIP3   OH241046   0.841   1.530   8.361
 6496TIP3    H141047   0.755   1.573   8.353
 6496TIP3    H241048   0.835   1.479   8.441
 6497TIP3   OH241049   2.038   2.722   7.991
 6497TIP3    H141050   2.096   2.792   8.021
 6497TIP3    H241051   2.097   2.655   7.956
 6498TIP3   OH241052   5.140   0.135   7.322
 6498TIP3    H141053   5.220   0.090   7.347
 6498TIP3    H241054   5.138   0.132   7.227
 6499TIP3   OH241055   4.339   6.483   0.232
 6499TIP3    H141056   4.253   6.524   0.240
 6499TIP3    H241057   4.397   6.554   0.202
 6500TIP3   OH241058   3.140   6.046   1.835
 6500TIP3    H141059   3.059   6.089   1.862
 6500TIP3    H241060   3.200   6.061   1.908
 6501TIP3   OH241061   3.303   5.914   0.330
 6501TIP3    H141062   3.387   5.960   0.329
 6501TIP3    H241063   3.254   5.955   0.401
 6502TIP3   OH241064   5.418   4.264   1.593
 6502TIP3    H141065   5.453   4.176   1.606
 6502TIP3    H241066   5.414   4.275   1.498
 6503TIP3   OH241067   2.751   4.264   8.133
 6503TIP3    H141068   2.827   4.312   8.164
 6503TIP3    H241069   2.704   4.326   8.076
 6504TIP3   OH241070   2.858   2.271   1.538
 6504TIP3    H141071   2.834   2.351   1.492
 6504TIP3    H241072   2.776   2.239   1.577
 6505TIP3   OH241073   0.778   5.124   0.120
 6505TIP3    H141074   0.785   5.062   0.193
 6505TIP3    H241075   0.707   5.089   0.066
 6506TIP3   OH241076   1.907   2.286   7.543
 6506TIP3    H141077   1.841   2.217   7.533
 6506TIP3    H241078   1.866   2.364   7.507
 6507TIP3   OH241079   4.669   1.972   0.501
 6507TIP3    H141080   4.579   1.984   0.471
 6507TIP3    H241081   4.712   1.923   0.432
 6508TIP3   OH241082   4.483   3.422   1.071
 6508TIP3    H141083   4.535   3.492   1.111
 6508TIP3    H241084   4.423   3.469   1.012
 6509TIP3   OH241085   3.650   6.754   0.743
 6509TIP3    H141086   3.664   6.846   0.722
 6509TIP3    H241087   3.565   6.733   0.705
 6510TIP3   OH241088   1.800   4.982   2.104
 6510TIP3    H141089   1.781   4.898   2.145
 6510TIP3    H241090   1.895   4.983   2.094
 6511TIP3   OH241091   1.186   5.129   1.480
 6511TIP3    H141092   1.192   5.158   1.388
 6511TIP3    H241093   1.229   5.044   1.480
 6512TIP3   OH241094   4.263   6.343   1.756
 6512TIP3    H141095   4.281   6.309   1.843
 6512TIP3    H241096   4.334   6.309   1.702
 6513TIP3   OH241097   1.242   6.480   8.128
 6513TIP3    H141098   1.254   6.386   8.115
 6513TIP3    H241099   1.153   6.497   8.098
 6514TIP3   OH241100   6.788   1.218   7.491
 6514TIP3    H141101   6.817   1.292   7.437
 6514TIP3    H241102   0.012   1.175   7.519
 6515TIP3   OH241103   6.153   6.150   0.055
 6515TIP3    H141104   6.098   6.110   0.123
 6515TIP3    H241105   6.237   6.105   0.064
 6516TIP3   OH241106   0.018   0.113   7.538
 6516TIP3    H141107   6.801   0.108   7.599
 6516TIP3    H241108   0.019   0.027   7.495
 6517TIP3   OH241109   3.470   6.585   0.577
 6517TIP3    H141110   3.460   6.588   0.482
 6517TIP3    H241111   3.381   6.597   0.610
 6518TIP3   OH241112   5.975   3.569   1.793
 6518TIP3    H141113   6.002   3.486   1.831
 6518TIP3    H241114   6.045   3.630   1.816
 6519TIP3   OH241115   6.116   0.908   1.252
 6519TIP3    H141116   6.078   0.878   1.335
 6519TIP3    H241117   6.188   0.964   1.278
 6520TIP3   OH241118   5.301   6.069   0.765
 6520TIP3    H141119   5.237   6.101   0.829
 6520TIP3    H241120   5.355   6.007   0.814
 6521TIP3   OH241121   4.283   1.817   8.059
 6521TIP3    H141122   4.257   1.735   8.018
 6521TIP3    H241123   4.319   1.791   8.144
 6522TIP3   OH241124   2.191   2.416   7.278
 6522TIP3    H141125   2.169   2.409   7.371
 6522TIP3    H241126   2.114   2.455   7.238
 6523TIP3   OH241127   1.367   2.291   8.543
 6523TIP3    H141128   1.430   2.339   8.490
 6523TIP3    H241129   1.312   2.245   8.480
 6524TIP3   OH241130   0.576   4.125   6.433
 6524TIP3    H141131   0.581   4.135   6.338
 6524TIP3    H241132   0.643   4.059   6.454
 6525TIP3   OH241133   1.972   1.455   1.056
 6525TIP3    H141134   1.883   1.466   1.090
 6525TIP3    H241135   2.012   1.542   1.065
 6526TIP3   OH241136   1.956   5.793   7.647
 6526TIP3    H141137   1.926   5.877   7.680
 6526TIP3    H241138   1.893   5.771   7.578
 6527TIP3   OH241139   3.282   2.322   0.936
 6527TIP3    H141140   3.268   2.230   0.959
 6527TIP3    H241141   3.341   2.355   1.004
 6528TIP3   OH241142   2.356   1.736   1.797
 6528TIP3    H141143   2.301   1.807   1.831
 6528TIP3    H241144   2.416   1.715   1.868
 6529TIP3   OH241145   4.400   3.633   7.674
 6529TIP3    H141146   4.418   3.652   7.766
 6529TIP3    H241147   4.377   3.718   7.636
 6530TIP3   OH241148   2.038   0.678   7.502
 6530TIP3    H141149   1.953   0.695   7.543
 6530TIP3    H241150   2.044   0.742   7.431
 6531TIP3   OH241151   2.032   0.382   0.575
 6531TIP3    H141152   2.065   0.353   0.490
 6531TIP3    H241153   2.044   0.306   0.632
 6532TIP3   OH241154   1.850   4.958   6.913
 6532TIP3    H141155   1.839   5.032   6.853
 6532TIP3    H241156   1.931   4.916   6.884
 6533TIP3   OH241157   1.477   5.416   0.790
 6533TIP3    H141158   1.475   5.346   0.854
 6533TIP3    H241159   1.428   5.382   0.715
 6534TIP3   OH241160   4.153   5.331   1.576
 6534TIP3    H141161   4.074   5.333   1.631
 6534TIP3    H241162   4.210   5.398   1.613
 6535TIP3   OH241163   0.719   0.718   1.080
 6535TIP3    H141164   0.706   0.756   1.167
 6535TIP3    H241165   0.632   0.723   1.039
 6536TIP3   OH241166   4.575   2.521   7.490
 6536TIP3    H141167   4.648   2.568   7.530
 6536TIP3    H241168   4.606   2.500   7.402
 6537TIP3   OH241169   5.517   0.500   2.246
 6537TIP3    H141170   5.440   0.553   2.268
 6537TIP3    H241171   5.524   0.437   2.318
 6538TIP3   OH241172   4.581   0.835   7.786
 6538TIP3    H141173   4.637   0.777   7.836
 6538TIP3    H241174   4.492   0.805   7.804
 6539TIP3   OH241175   3.052   3.220   8.418
 6539TIP3    H141176   3.100   3.200   8.337
 6539TIP3    H241177   3.099   3.295   8.456
 6540TIP3   OH241178   4.871   5.750   1.924
 6540TIP3    H141179   4.801   5.702   1.968
 6540TIP3    H241180   4.896   5.818   1.986
 6541TIP3   OH241181   4.807   0.497   7.172
 6541TIP3    H141182   4.820   0.497   7.267
 6541TIP3    H241183   4.894   0.477   7.136
 6542TIP3   OH241184   3.724   6.570   6.532
 6542TIP3    H141185   3.780   6.590   6.457
 6542TIP3    H241186   3.785   6.557   6.604
 6543TIP3   OH241187   4.523   2.975   0.900
 6543TIP3    H141188   4.459   3.039   0.870
 6543TIP3    H241189   4.580   3.024   0.960
 6544TIP3   OH241190   3.151   0.224   0.559
 6544TIP3    H141191   3.141   0.314   0.529
 6544TIP3    H241192   3.232   0.193   0.519
 6545TIP3   OH241193   1.917   2.182   7.146
 6545TIP3    H141194   1.850   2.116   7.162
 6545TIP3    H241195   1.998   2.143   7.179
 6546TIP3   OH241196   1.956   6.385   7.100
 6546TIP3    H141197   1.898   6.459   7.117
 6546TIP3    H241198   1.928   6.317   7.161
 6547TIP3   OH241199   3.864   0.339   0.169
 6547TIP3    H141200   3.817   0.257   0.183
 6547TIP3    H241201   3.956   0.314   0.164
 6548TIP3   OH241202   0.312   2.198   0.796
 6548TIP3    H141203   0.284   2.214   0.705
 6548TIP3    H241204   0.378   2.129   0.788
 6549TIP3   OH241205   2.271   5.643   8.028
 6549TIP3    H141206   2.345   5.622   8.085
 6549TIP3    H241207   2.247   5.732   8.052
 6550TIP3   OH241208   0.866   4.737   7.133
 6550TIP3    H141209   0.896   4.689   7.056
 6550TIP3    H241210   0.798   4.795   7.099
 6551TIP3   OH241211   1.595   4.262   7.433
 6551TIP3    H141212   1.610   4.348   7.472
 6551TIP3    H241213   1.540   4.280   7.356
 6552TIP3   OH241214   0.484   2.952   7.689
 6552TIP3    H141215   0.470   3.047   7.685
 6552TIP3    H241216   0.545   2.940   7.761
 6553TIP3   OH241217   4.619   0.975   7.183
 6553TIP3    H141218   4.640   0.884   7.164
 6553TIP3    H241219   4.611   0.979   7.278
 6554TIP3   OH241220   6.645   6.603   1.248
 6554TIP3    H141221   6.587   6.535   1.213
 6554TIP3    H241222   6.588   6.678   1.264
 6555TIP3   OH241223   2.954   5.226   8.066
 6555TIP3    H141224   2.863   5.199   8.063
 6555TIP3    H241225   2.951   5.319   8.089
 6556TIP3   OH241226   0.233   5.227   7.240
 6556TIP3    H141227   0.302   5.288   7.264
 6556TIP3    H241228   0.214   5.247   7.148
 6557TIP3   OH241229   3.101   1.024   5.824
 6557TIP3    H141230   3.056   1.069   5.895
 6557TIP3    H241231   3.172   0.976   5.866
 6558TIP3   OH241232   2.522   5.227   0.892
 6558TIP3    H141233   2.495   5.160   0.955
 6558TIP3    H241234   2.604   5.194   0.855
 6559TIP3   OH241235   2.966   4.964   2.312
 6559TIP3    H141236   3.021   5.035   2.279
 6559TIP3    H241237   3.026   4.906   2.358
 6560TIP3   OH241238   5.955   0.067   0.919
 6560TIP3    H141239   5.866   0.069   0.885
 6560TIP3    H241240   5.966   0.152   0.963
 6561TIP3   OH241241   3.929   1.554   8.088
 6561TIP3    H141242   3.921   1.646   8.111
 6561TIP3    H241243   3.986   1.553   8.011
 6562TIP3   OH241244   5.556   0.720   7.087
 6562TIP3    H141245   5.590   0.733   6.998
 6562TIP3    H241246   5.600   0.787   7.139
 6563TIP3   OH241247   5.941   6.272   2.538
 6563TIP3    H141248   6.029   6.239   2.557
 6563TIP3    H241249   5.954   6.335   2.466
 6564TIP3   OH241250   4.803   2.872   1.949
 6564TIP3    H141251   4.722   2.823   1.932
 6564TIP3    H241252   4.859   2.810   1.995
 6565TIP3   OH241253   3.650   0.399   8.178
 6565TIP3    H141254   3.596   0.406   8.257
 6565TIP3    H241255   3.738   0.381   8.210
 6566TIP3   OH241256   2.767   2.942   1.241
 6566TIP3    H141257   2.698   2.910   1.299
 6566TIP3    H241258   2.814   3.008   1.292
 6567TIP3   OH241259   3.593   0.048   7.666
 6567TIP3    H141260   3.556   6.822   7.697
 6567TIP3    H241261   3.602   0.036   7.572
 6568TIP3   OH241262   4.969   3.824   8.206
 6568TIP3    H141263   4.930   3.907   8.181
 6568TIP3    H241264   4.953   3.817   8.300
 6569TIP3   OH241265   5.342   3.781   7.882
 6569TIP3    H141266   5.403   3.804   7.952
 6569TIP3    H241267   5.275   3.850   7.885
 6570TIP3   OH241268   5.505   2.925   0.450
 6570TIP3    H141269   5.448   2.852   0.472
 6570TIP3    H241270   5.553   2.896   0.372
 6571TIP3   OH241271   1.966   6.804   7.847
 6571TIP3    H141272   1.995   6.785   7.937
 6571TIP3    H241273   2.025   6.753   7.792
 6572TIP3   OH241274   0.393   2.065   8.280
 6572TIP3    H141275   0.408   2.065   8.375
 6572TIP3    H241276   0.412   2.155   8.252
 6573TIP3   OH241277   4.704   0.898   8.390
 6573TIP3    H141278   4.632   0.849   8.351
 6573TIP3    H241279   4.674   0.916   8.479
 6574TIP3   OH241280   0.730   2.197   8.239
 6574TIP3    H141281   0.783   2.272   8.215
 6574TIP3    H241282   0.780   2.121   8.210
 6575TIP3   OH241283   0.044   5.879   7.944
 6575TIP3    H141284   0.095   5.825   7.884
 6575TIP3    H241285   6.823   5.827   7.964
 6576TIP3   OH241286   4.393   1.335   1.639
 6576TIP3    H141287   4.319   1.351   1.581
 6576TIP3    H241288   4.464   1.387   1.602
 6577TIP3   OH241289   4.895   6.476   7.778
 6577TIP3    H141290   4.862   6.399   7.824
 6577TIP3    H241291   4.835   6.547   7.803
 6578TIP3   OH241292   4.605   3.046   1.239
 6578TIP3    H141293   4.517   3.079   1.257
 6578TIP3    H241294   4.604   2.955   1.271
 6579TIP3   OH241295   2.301   4.377   0.732
 6579TIP3    H141296   2.222   4.353   0.781
 6579TIP3    H241297   2.300   4.472   0.731
 6580TIP3   OH241298   6.646   2.640   6.997
 6580TIP3    H141299   6.662   2.552   7.032
 6580TIP3    H241300   6.601   2.686   7.068
 6581TIP3   OH241301   2.493   2.032   1.170
 6581TIP3    H141302   2.577   2.078   1.178
 6581TIP3    H241303   2.516   1.949   1.128
 6582TIP3   OH241304   2.436   2.142   7.471
 6582TIP3    H141305   2.389   2.068   7.510
 6582TIP3    H241306   2.371   2.212   7.466
 6583TIP3   OH241307   5.562   1.586   0.613
 6583TIP3    H141308   5.525   1.651   0.672
 6583TIP3    H241309   5.515   1.599   0.530
 6584TIP3   OH241310   6.817   5.048   0.243
 6584TIP3    H141311   0.025   4.985   0.211
 6584TIP3    H241312   6.740   4.995   0.265
 6585TIP3   OH241313   4.895   2.368   0.261
 6585TIP3    H141314   4.904   2.279   0.228
 6585TIP3    H241315   4.888   2.358   0.356
 6586TIP3   OH241316   2.708   3.736   1.518
 6586TIP3    H141317   2.709   3.772   1.607
 6586TIP3    H241318   2.783   3.776   1.475
 6587TIP3   OH241319   2.902   0.062   0.534
 6587TIP3    H141320   2.916   6.841   0.589
 6587TIP3    H241321   2.982   0.114   0.544
 6588TIP3   OH241322   1.419   5.091   8.398
 6588TIP3    H141323   1.440   5.076   8.306
 6588TIP3    H241324   1.495   5.137   8.433
 6589TIP3   OH241325   0.276   2.560   8.186
 6589TIP3    H141326   0.213   2.579   8.256
 6589TIP3    H241327   0.226   2.572   8.105
 6590TIP3   OH241328   6.357   0.073   6.481
 6590TIP3    H141329   6.275   0.075   6.431
 6590TIP3    H241330   6.425   0.065   6.414
 6591TIP3   OH241331   1.634   5.480   1.694
 6591TIP3    H141332   1.539   5.465   1.687
 6591TIP3    H241333   1.664   5.414   1.756
 6592TIP3   OH241334   2.515   2.408   7.647
 6592TIP3    H141335   2.501   2.446   7.561
 6592TIP3    H241336   2.547   2.480   7.701
 6593TIP3   OH241337   1.332   5.483   8.248
 6593TIP3    H141338   1.354   5.540   8.174
 6593TIP3    H241339   1.396   5.413   8.243
 6594TIP3   OH241340   1.853   0.561   0.401
 6594TIP3    H141341   1.899   0.526   0.478
 6594TIP3    H241342   1.912   0.541   0.328
 6595TIP3   OH241343   5.009   3.628   8.592
 6595TIP3    H141344   4.955   3.688   8.540
 6595TIP3    H241345   4.951   3.599   8.663
 6596TIP3   OH241346   2.135   5.951   1.532
 6596TIP3    H141347   2.162   5.920   1.445
 6596TIP3    H241348   2.103   6.040   1.517
 6597TIP3   OH241349   3.366   3.553   6.440
 6597TIP3    H141350   3.431   3.605   6.487
 6597TIP3    H241351   3.284   3.602   6.450
 6598TIP3   OH241352   2.189   0.948   0.504
 6598TIP3    H141353   2.192   0.927   0.597
 6598TIP3    H241354   2.261   1.010   0.490
 6599TIP3   OH241355   3.933   0.175   7.085
 6599TIP3    H141356   3.901   0.173   6.995
 6599TIP3    H241357   3.860   0.143   7.138
 6600TIP3   OH241358   4.246   3.177   7.453
 6600TIP3    H141359   4.264   3.097   7.405
 6600TIP3    H241360   4.191   3.149   7.527
 6601TIP3   OH241361   1.229   1.437   6.459
 6601TIP3    H141362   1.193   1.517   6.499
 6601TIP3    H241363   1.205   1.445   6.367
 6602TIP3   OH241364   3.213   4.221   6.193
 6602TIP3    H141365   3.179   4.294   6.140
 6602TIP3    H241366   3.260   4.264   6.264
 6603TIP3   OH241367   3.679   3.340   0.860
 6603TIP3    H141368   3.685   3.356   0.766
 6603TIP3    H241369   3.763   3.300   0.883
 6604TIP3   OH241370   2.115   1.494   1.810
 6604TIP3    H141371   2.114   1.527   1.900
 6604TIP3    H241372   2.120   1.573   1.756
 6605TIP3   OH241373   1.799   4.712   0.815
 6605TIP3    H141374   1.835   4.758   0.739
 6605TIP3    H241375   1.818   4.768   0.889
 6606TIP3   OH241376   2.229   5.335   0.282
 6606TIP3    H141377   2.303   5.344   0.342
 6606TIP3    H241378   2.264   5.359   0.196
 6607TIP3   OH241379   1.042   1.710   0.498
 6607TIP3    H141380   1.073   1.762   0.572
 6607TIP3    H241381   0.971   1.657   0.535
 6608TIP3   OH241382   2.906   5.597   1.954
 6608TIP3    H141383   2.883   5.675   1.903
 6608TIP3    H241384   2.845   5.599   2.028
 6609TIP3   OH241385   5.526   6.379   1.907
 6609TIP3    H141386   5.503   6.456   1.856
 6609TIP3    H241387   5.502   6.305   1.851
 6610TIP3   OH241388   5.066   1.395   6.951
 6610TIP3    H141389   5.090   1.404   6.859
 6610TIP3    H241390   4.996   1.460   6.963
 6611TIP3   OH241391   5.524   1.271   8.092
 6611TIP3    H141392   5.496   1.191   8.046
 6611TIP3    H241393   5.614   1.285   8.062
 6612TIP3   OH241394   1.546   3.818   6.836
 6612TIP3    H141395   1.528   3.911   6.849
 6612TIP3    H241396   1.549   3.807   6.741
 6613TIP3   OH241397   0.695   3.181   7.287
 6613TIP3    H141398   0.652   3.104   7.327
 6613TIP3    H241399   0.625   3.246   7.282
 6614TIP3   OH241400   4.398   2.664   8.272
 6614TIP3    H141401   4.417   2.749   8.231
 6614TIP3    H241402   4.443   2.668   8.356
 6615TIP3   OH241403   1.192   5.957   0.005
 6615TIP3    H141404   1.170   5.963   0.098
 6615TIP3    H241405   1.239   6.038   8.700
 6616TIP3   OH241406   1.496   1.789   7.558
 6616TIP3    H141407   1.440   1.715   7.533
 6616TIP3    H241408   1.445   1.866   7.534
 6617TIP3   OH241409   2.491   6.214   7.243
 6617TIP3    H141410   2.516   6.294   7.290
 6617TIP3    H241411   2.424   6.174   7.298
 6618TIP3   OH241412   6.040   5.693   8.170
 6618TIP3    H141413   5.979   5.629   8.134
 6618TIP3    H241414   6.100   5.641   8.224
 6619TIP3   OH241415   2.360   1.942   8.208
 6619TIP3    H141416   2.283   1.943   8.151
 6619TIP3    H241417   2.427   1.990   8.158
 6620TIP3   OH241418   0.944   6.284   6.075
 6620TIP3    H141419   0.940   6.208   6.133
 6620TIP3    H241420   1.026   6.327   6.097
 6621TIP3   OH241421   0.308   2.948   0.347
 6621TIP3    H141422   0.224   2.905   0.329
 6621TIP3    H241423   0.354   2.945   0.263
 6622TIP3   OH241424   3.918   2.796   8.568
 6622TIP3    H141425   3.925   2.876   8.516
 6622TIP3    H241426   3.890   2.826   8.655
 6623TIP3   OH241427   0.424   0.958   6.591
 6623TIP3    H141428   0.496   0.964   6.654
 6623TIP3    H241429   0.415   1.046   6.555
 6624TIP3   OH241430   4.010   5.533   1.165
 6624TIP3    H141431   3.924   5.498   1.139
 6624TIP3    H241432   4.003   5.627   1.149
 6625TIP3   OH241433   6.598   2.200   6.845
 6625TIP3    H141434   6.505   2.179   6.852
 6625TIP3    H241435   6.633   2.186   6.933
 6626TIP3   OH241436   4.213   1.150   7.613
 6626TIP3    H141437   4.291   1.201   7.594
 6626TIP3    H241438   4.141   1.201   7.574
 6627TIP3   OH241439   1.952   1.213   6.301
 6627TIP3    H141440   1.941   1.142   6.365
 6627TIP3    H241441   2.015   1.178   6.238
 6628TIP3   OH241442   3.657   1.791   1.704
 6628TIP3    H141443   3.578   1.757   1.746
 6628TIP3    H241444   3.729   1.741   1.742
 6629TIP3   OH241445   0.510   2.167   8.050
 6629TIP3    H141446   0.480   2.256   8.035
 6629TIP3    H241447   0.561   2.171   8.131
 6630TIP3   OH241448   4.546   1.770   2.084
 6630TIP3    H141449   4.571   1.837   2.147
 6630TIP3    H241450   4.499   1.817   2.016
 6631TIP3   OH241451   1.977   0.569   1.543
 6631TIP3    H141452   2.044   0.635   1.556
 6631TIP3    H241453   1.928   0.567   1.625
 6632TIP3   OH241454   4.225   3.740   7.162
 6632TIP3    H141455   4.238   3.716   7.070
 6632TIP3    H241456   4.144   3.791   7.162
 6633TIP3   OH241457   2.362   4.120   7.844
 6633TIP3    H141458   2.403   4.153   7.764
 6633TIP3    H241459   2.291   4.064   7.813
 6634TIP3   OH241460   4.502   2.340   1.891
 6634TIP3    H141461   4.471   2.426   1.863
 6634TIP3    H241462   4.445   2.316   1.964
 6635TIP3   OH241463   2.875   4.291   8.565
 6635TIP3    H141464   2.897   4.313   8.475
 6635TIP3    H241465   2.947   4.236   8.595
 6636TIP3   OH241466   6.520   6.806   0.137
 6636TIP3    H141467   6.497   6.759   0.056
 6636TIP3    H241468   6.464   6.767   0.204
 6637TIP3   OH241469   0.947   2.949   8.631
 6637TIP3    H141470   1.042   2.963   8.635
 6637TIP3    H241471   0.910   3.021   8.683
 6638TIP3   OH241472   2.234   3.844   0.038
 6638TIP3    H141473   2.309   3.887   8.712
 6638TIP3    H241474   2.221   3.891   0.121
 6639TIP3   OH241475   4.468   1.486   0.291
 6639TIP3    H141476   4.411   1.544   0.340
 6639TIP3    H241477   4.535   1.458   0.354
 6640TIP3   OH241478   1.128   5.802   1.226
 6640TIP3    H141479   1.073   5.748   1.169
 6640TIP3    H241480   1.069   5.832   1.296
 6641TIP3   OH241481   6.418   5.611   1.719
 6641TIP3    H141482   6.375   5.527   1.706
 6641TIP3    H241483   6.496   5.591   1.772
 6642TIP3   OH241484   1.626   2.095   1.156
 6642TIP3    H141485   1.542   2.099   1.203
 6642TIP3    H241486   1.642   2.002   1.143
 6643TIP3   OH241487   3.381   6.150   1.302
 6643TIP3    H141488   3.452   6.120   1.245
 6643TIP3    H241489   3.353   6.234   1.264
 6644TIP3   OH241490   5.902   0.342   0.403
 6644TIP3    H141491   5.825   0.287   0.415
 6644TIP3    H241492   5.870   0.431   0.418
 6645TIP3   OH241493   0.228   4.833   1.176
 6645TIP3    H141494   0.267   4.769   1.235
 6645TIP3    H241495   0.142   4.852   1.212
 6646TIP3   OH241496   4.548   4.985   7.230
 6646TIP3    H141497   4.501   4.921   7.176
 6646TIP3    H241498   4.594   4.931   7.295
 6647TIP3   OH241499   5.691   2.210   0.354
 6647TIP3    H141500   5.726   2.266   0.423
 6647TIP3    H241501   5.610   2.253   0.327
 6648TIP3   OH241502   4.331   0.250   8.140
 6648TIP3    H141503   4.321   0.159   8.166
 6648TIP3    H241504   4.314   0.251   8.046
 6649TIP3   OH241505   0.614   5.294   8.411
 6649TIP3    H141506   0.609   5.249   8.326
 6649TIP3    H241507   0.699   5.268   8.447
 6650TIP3   OH241508   5.279   0.337   1.787
 6650TIP3    H141509   5.304   0.355   1.877
 6650TIP3    H241510   5.334   0.263   1.761
 6651TIP3   OH241511   0.913   2.795   0.326
 6651TIP3    H141512   0.946   2.788   0.236
 6651TIP3    H241513   0.877   2.708   0.344
 6652TIP3   OH241514   3.071   4.378   2.104
 6652TIP3    H141515   3.034   4.384   2.016
 6652TIP3    H241516   3.052   4.462   2.144
 6653TIP3   OH241517   6.155   1.159   6.326
 6653TIP3    H141518   6.066   1.194   6.326
 6653TIP3    H241519   6.176   1.145   6.233
 6654TIP3   OH241520   4.341   1.305   8.686
 6654TIP3    H141521   4.254   1.315   8.647
 6654TIP3    H241522   4.387   1.244   8.628
 6655TIP3   OH241523   6.306   0.075   1.466
 6655TIP3    H141524   6.280   0.052   1.555
 6655TIP3    H241525   6.276   0.166   1.455
 6656TIP3   OH241526   2.232   6.029   7.336
 6656TIP3    H141527   2.196   6.070   7.414
 6656TIP3    H241528   2.270   5.946   7.368
 6657TIP3   OH241529   2.373   4.468   7.619
 6657TIP3    H141530   2.437   4.520   7.569
 6657TIP3    H241531   2.341   4.528   7.686
 6658TIP3   OH241532   1.951   5.224   8.055
 6658TIP3    H141533   2.001   5.302   8.027
 6658TIP3    H241534   1.965   5.161   7.984
 6659TIP3   OH241535   0.719   2.622   8.544
 6659TIP3    H141536   0.713   2.594   8.452
 6659TIP3    H241537   0.742   2.542   8.591
 6660TIP3   OH241538   2.803   6.538   0.655
 6660TIP3    H141539   2.709   6.549   0.640
 6660TIP3    H241540   2.836   6.500   0.573
 6661TIP3   OH241541   5.644   6.649   7.022
 6661TIP3    H141542   5.684   6.734   7.002
 6661TIP3    H241543   5.719   6.591   7.038
 6662TIP3   OH241544   2.647   5.204   0.224
 6662TIP3    H141545   2.726   5.154   0.203
 6662TIP3    H241546   2.605   5.155   0.295
 6663TIP3   OH241547   0.547   6.569   0.751
 6663TIP3    H141548   0.626   6.598   0.704
 6663TIP3    H241549   0.475   6.607   0.701
 6664TIP3   OH241550   5.575   0.135   2.057
 6664TIP3    H141551   5.631   0.183   1.996
 6664TIP3    H241552   5.628   0.126   2.136
 6665TIP3   OH241553   3.621   5.240   2.303
 6665TIP3    H141554   3.638   5.334   2.304
 6665TIP3    H241555   3.551   5.228   2.367
 6666TIP3   OH241556   0.296   0.123   1.988
 6666TIP3    H141557   0.375   0.100   1.940
 6666TIP3    H241558   0.295   0.065   2.063
 6667TIP3   OH241559   6.009   3.263   1.525
 6667TIP3    H141560   5.994   3.179   1.482
 6667TIP3    H241561   5.987   3.249   1.616
 6668TIP3   OH241562   6.032   4.218   6.824
 6668TIP3    H141563   5.965   4.238   6.759
 6668TIP3    H241564   6.017   4.126   6.846
 6669TIP3   OH241565   3.688   5.510   2.295
 6669TIP3    H141566   3.661   5.568   2.224
 6669TIP3    H241567   3.783   5.516   2.296
 6670TIP3   OH241568   4.374   0.477   0.666
 6670TIP3    H141569   4.440   0.545   0.654
 6670TIP3    H241570   4.394   0.440   0.753
 6671TIP3   OH241571   6.425   5.654   7.034
 6671TIP3    H141572   6.483   5.582   7.060
 6671TIP3    H241573   6.454   5.679   6.947
 6672TIP3   OH241574   0.395   6.334   6.914
 6672TIP3    H141575   0.321   6.393   6.921
 6672TIP3    H241576   0.371   6.259   6.968
 6673TIP3   OH241577   5.249   6.342   0.870
 6673TIP3    H141578   5.285   6.328   0.958
 6673TIP3    H241579   5.154   6.341   0.882
 6674TIP3   OH241580   0.807   1.651   1.161
 6674TIP3    H141581   0.887   1.695   1.188
 6674TIP3    H241582   0.836   1.568   1.122
 6675TIP3   OH241583   6.384   3.343   6.949
 6675TIP3    H141584   6.360   3.370   6.861
 6675TIP3    H241585   6.312   3.374   7.004
 6676TIP3   OH241586   5.700   2.073   0.708
 6676TIP3    H141587   5.611   2.060   0.741
 6676TIP3    H241588   5.706   2.015   0.633
 6677TIP3   OH241589   6.530   5.895   7.449
 6677TIP3    H141590   6.548   5.802   7.435
 6677TIP3    H241591   6.443   5.897   7.488
 6678TIP3   OH241592   3.012   5.665   6.428
 6678TIP3    H141593   3.085   5.696   6.375
 6678TIP3    H241594   2.968   5.599   6.374
 6679TIP3   OH241595   0.578   5.430   7.639
 6679TIP3    H141596   0.482   5.436   7.639
 6679TIP3    H241597   0.608   5.517   7.665
 6680TIP3   OH241598   5.821   5.590   2.422
 6680TIP3    H141599   5.874   5.557   2.349
 6680TIP3    H241600   5.863   5.673   2.446
 6681TIP3   OH241601   2.898   4.566   0.459
 6681TIP3    H141602   2.915   4.564   0.553
 6681TIP3    H241603   2.826   4.504   0.446
 6682TIP3   OH241604   0.415   3.733   7.505
 6682TIP3    H141605   0.419   3.790   7.581
 6682TIP3    H241606   0.331   3.752   7.464
 6683TIP3   OH241607   5.809   3.904   1.375
 6683TIP3    H141608   5.759   3.841   1.323
 6683TIP3    H241609   5.825   3.977   1.316
 6684TIP3   OH241610   1.117   3.440   1.422
 6684TIP3    H141611   1.087   3.497   1.352
 6684TIP3    H241612   1.058   3.364   1.418
 6685TIP3   OH241613   0.125   1.493   1.273
 6685TIP3    H141614   0.216   1.520   1.282
 6685TIP3    H241615   0.086   1.561   1.217
 6686TIP3   OH241616   4.132   3.984   8.240
 6686TIP3    H141617   4.202   3.948   8.295
 6686TIP3    H241618   4.081   3.908   8.213
 6687TIP3   OH241619   4.196   4.244   0.866
 6687TIP3    H141620   4.203   4.339   0.882
 6687TIP3    H241621   4.234   4.232   0.779
 6688TIP3   OH241622   1.313   2.396   0.091
 6688TIP3    H141623   1.320   2.385   8.710
 6688TIP3    H241624   1.313   2.306   0.125
 6689TIP3   OH241625   6.096   2.591   7.619
 6689TIP3    H141626   6.028   2.566   7.556
 6689TIP3    H241627   6.150   2.513   7.629
 6690TIP3   OH241628   5.417   6.437   0.182
 6690TIP3    H141629   5.366   6.366   0.143
 6690TIP3    H241630   5.504   6.401   0.193
 6691TIP3   OH241631   5.890   6.150   0.455
 6691TIP3    H141632   5.940   6.130   0.534
 6691TIP3    H241633   5.928   6.232   0.423
 6692TIP3   OH241634   1.713   4.189   0.565
 6692TIP3    H141635   1.720   4.235   0.649
 6692TIP3    H241636   1.627   4.146   0.568
 6693TIP3   OH241637   1.417   2.847   0.654
 6693TIP3    H141638   1.391   2.796   0.578
 6693TIP3    H241639   1.510   2.828   0.665
 6694TIP3   OH241640   0.377   2.333   8.298
 6694TIP3    H141641   0.358   2.415   8.254
 6694TIP3    H241642   0.298   2.312   8.347
 6695TIP3   OH241643   6.513   6.197   0.421
 6695TIP3    H141644   6.523   6.105   0.394
 6695TIP3    H241645   6.442   6.196   0.484
 6696TIP3   OH241646   1.790   2.994   0.300
 6696TIP3    H141647   1.855   2.987   0.230
 6696TIP3    H241648   1.735   2.916   0.289
 6697TIP3   OH241649   0.633   4.525   8.470
 6697TIP3    H141650   0.690   4.568   8.534
 6697TIP3    H241651   0.636   4.582   8.393
 6698TIP3   OH241652   3.403   1.602   8.256
 6698TIP3    H141653   3.322   1.627   8.301
 6698TIP3    H241654   3.391   1.633   8.166
 6699TIP3   OH241655   6.734   6.606   8.180
 6699TIP3    H141656   6.758   6.537   8.118
 6699TIP3    H241657   6.775   6.579   8.262
 6700TIP3   OH241658   0.666   6.287   1.555
 6700TIP3    H141659   0.700   6.369   1.519
 6700TIP3    H241660   0.585   6.271   1.506
 6701TIP3   OH241661   6.206   0.001   6.758
 6701TIP3    H141662   6.224   6.834   6.667
 6701TIP3    H241663   6.114   0.026   6.758
 6702TIP3   OH241664   0.880   2.022   7.950
 6702TIP3    H141665   0.793   2.061   7.952
 6702TIP3    H241666   0.890   1.989   7.861
 6703TIP3   OH241667   0.213   3.029   8.471
 6703TIP3    H141668   0.229   3.110   8.423
 6703TIP3    H241669   0.145   2.984   8.420
 6704TIP3   OH241670   1.779   2.766   7.959
 6704TIP3    H141671   1.858   2.733   8.002
 6704TIP3    H241672   1.734   2.816   8.026
 6705TIP3   OH241673   4.707   4.923   8.050
 6705TIP3    H141674   4.638   4.886   8.103
 6705TIP3    H241675   4.707   4.871   7.969
 6706TIP3   OH241676   3.903   1.203   1.839
 6706TIP3    H141677   3.989   1.163   1.826
 6706TIP3    H241678   3.922   1.292   1.866
 6707TIP3   OH241679   5.754   0.046   6.920
 6707TIP3    H141680   5.698   0.083   6.852
 6707TIP3    H241681   5.827   0.007   6.873
 6708TIP3   OH241682   2.165   6.561   7.757
 6708TIP3    H141683   2.156   6.503   7.833
 6708TIP3    H241684   2.108   6.523   7.691
 6709TIP3   OH241685   0.697   2.316   0.285
 6709TIP3    H141686   0.708   2.258   0.360
 6709TIP3    H241687   0.752   2.278   0.217
 6710TIP3   OH241688   6.158   5.325   0.289
 6710TIP3    H141689   6.164   5.420   0.280
 6710TIP3    H241690   6.073   5.303   0.251
 6711TIP3   OH241691   6.623   2.609   6.273
 6711TIP3    H141692   6.613   2.668   6.198
 6711TIP3    H241693   6.570   2.532   6.250
 6712TIP3   OH241694   3.111   5.820   7.613
 6712TIP3    H141695   3.017   5.837   7.610
 6712TIP3    H241696   3.150   5.899   7.576
 6713TIP3   OH241697   1.739   4.976   1.157
 6713TIP3    H141698   1.808   4.941   1.102
 6713TIP3    H241699   1.768   4.959   1.247
 6714TIP3   OH241700   0.541   6.080   8.416
 6714TIP3    H141701   0.452   6.048   8.428
 6714TIP3    H241702   0.549   6.097   8.322
 6715TIP3   OH241703   5.514   4.026   1.359
 6715TIP3    H141704   5.593   4.073   1.331
 6715TIP3    H241705   5.540   3.935   1.361
 6716TIP3   OH241706   4.513   4.793   7.794
 6716TIP3    H141707   4.591   4.754   7.834
 6716TIP3    H241708   4.542   4.824   7.709
 6717TIP3   OH241709   0.291   3.877   0.567
 6717TIP3    H141710   0.272   3.939   0.497
 6717TIP3    H241711   0.382   3.850   0.552
 6718TIP3   OH241712   2.621   0.600   7.263
 6718TIP3    H141713   2.543   0.558   7.227
 6718TIP3    H241714   2.644   0.667   7.198
 6719TIP3   OH241715   5.334   3.312   1.624
 6719TIP3    H141716   5.254   3.364   1.628
 6719TIP3    H241717   5.308   3.232   1.578
 6720TIP3   OH241718   5.666   2.278   8.640
 6720TIP3    H141719   5.691   2.369   8.650
 6720TIP3    H241720   5.594   2.280   8.576
 6721TIP3   OH241721   3.310   1.470   0.079
 6721TIP3    H141722   3.276   1.538   0.021
 6721TIP3    H241723   3.339   1.400   0.019
 6722TIP3   OH241724   6.577   4.834   2.067
 6722TIP3    H141725   6.569   4.749   2.024
 6722TIP3    H241726   6.486   4.864   2.078
 6723TIP3   OH241727   6.041   4.508   7.067
 6723TIP3    H141728   6.126   4.490   7.107
 6723TIP3    H241729   6.058   4.508   6.973
 6724TIP3   OH241730   3.570   1.522   0.378
 6724TIP3    H141731   3.479   1.509   0.405
 6724TIP3    H241732   3.618   1.532   0.460
 6725TIP3   OH241733   0.347   4.553   0.031
 6725TIP3    H141734   0.432   4.509   0.041
 6725TIP3    H241735   0.328   4.589   0.117
 6726TIP3   OH241736   4.326   1.999   8.268
 6726TIP3    H141737   4.268   1.976   8.341
 6726TIP3    H241738   4.292   1.950   8.193
 6727TIP3   OH241739   4.947   6.490   6.601
 6727TIP3    H141740   5.040   6.502   6.618
 6727TIP3    H241741   4.944   6.420   6.535
 6728TIP3   OH241742   1.407   3.554   8.170
 6728TIP3    H141743   1.429   3.472   8.126
 6728TIP3    H241744   1.357   3.527   8.247
 6729TIP3   OH241745   0.537   1.021   8.010
 6729TIP3    H141746   0.450   1.060   8.014
 6729TIP3    H241747   0.584   1.059   8.084
 6730TIP3   OH241748   5.360   0.280   1.466
 6730TIP3    H141749   5.407   0.363   1.470
 6730TIP3    H241750   5.372   0.241   1.552
 6731TIP3   OH241751   4.469   5.959   8.412
 6731TIP3    H141752   4.378   5.932   8.396
 6731TIP3    H241753   4.501   5.986   8.326
 6732TIP3   OH241754   0.349   4.803   6.931
 6732TIP3    H141755   0.361   4.785   6.838
 6732TIP3    H241756   0.414   4.872   6.951
 6733TIP3   OH241757   2.523   4.721   1.341
 6733TIP3    H141758   2.550   4.726   1.433
 6733TIP3    H241759   2.454   4.655   1.340
 6734TIP3   OH241760   2.099   1.271   8.183
 6734TIP3    H141761   2.165   1.221   8.231
 6734TIP3    H241762   2.017   1.222   8.196
 6735TIP3   OH241763   3.318   3.078   7.926
 6735TIP3    H141764   3.382   3.008   7.908
 6735TIP3    H241765   3.365   3.159   7.907
 6736TIP3   OH241766   4.008   6.006   1.399
 6736TIP3    H141767   4.097   6.010   1.432
 6736TIP3    H241768   3.988   5.912   1.394
 6737TIP3   OH241769   0.338   6.769   8.155
 6737TIP3    H141770   0.372   6.686   8.122
 6737TIP3    H241771   0.365   6.771   8.247
 6738TIP3   OH241772   2.831   0.679   8.300
 6738TIP3    H141773   2.880   0.661   8.220
 6738TIP3    H241774   2.774   0.603   8.311
 6739TIP3   OH241775   2.431   3.682   8.144
 6739TIP3    H141776   2.473   3.768   8.142
 6739TIP3    H241777   2.337   3.701   8.139
 6740TIP3   OH241778   6.411   6.621   7.331
 6740TIP3    H141779   6.453   6.698   7.369
 6740TIP3    H241780   6.463   6.601   7.253
 6741TIP3   OH241781   4.387   2.730   0.937
 6741TIP3    H141782   4.425   2.817   0.924
 6741TIP3    H241783   4.295   2.746   0.955
 6742TIP3   OH241784   4.240   1.924   7.454
 6742TIP3    H141785   4.311   1.988   7.450
 6742TIP3    H241786   4.262   1.860   7.387
 6743TIP3   OH241787   3.020   4.094   1.760
 6743TIP3    H141788   2.992   4.178   1.797
 6743TIP3    H241789   2.955   4.032   1.792
 6744TIP3   OH241790   0.560   6.303   7.704
 6744TIP3    H141791   0.583   6.375   7.763
 6744TIP3    H241792   0.643   6.257   7.688
 6745TIP3   OH241793   5.766   5.846   0.249
 6745TIP3    H141794   5.798   5.785   0.183
 6745TIP3    H241795   5.783   5.933   0.212
 6746TIP3   OH241796   2.216   2.219   0.031
 6746TIP3    H141797   2.309   2.243   0.026
 6746TIP3    H241798   2.216   2.129   0.061
 6747TIP3   OH241799   2.750   0.730   7.609
 6747TIP3    H141800   2.673   0.683   7.640
 6747TIP3    H241801   2.824   0.684   7.649
 6748TIP3   OH241802   2.687   5.196   6.443
 6748TIP3    H141803   2.591   5.194   6.442
 6748TIP3    H241804   2.709   5.286   6.418
 6749TIP3   OH241805   6.453   1.928   7.573
 6749TIP3    H141806   6.453   2.004   7.515
 6749TIP3    H241807   6.377   1.942   7.630
 6750TIP3   OH241808   3.905   4.636   1.408
 6750TIP3    H141809   3.993   4.663   1.381
 6750TIP3    H241810   3.863   4.717   1.436
 6751TIP3   OH241811   1.862   5.518   7.836
 6751TIP3    H141812   1.921   5.496   7.764
 6751TIP3    H241813   1.915   5.574   7.893
 6752TIP3   OH241814   1.627   4.754   0.442
 6752TIP3    H141815   1.550   4.803   0.415
 6752TIP3    H241816   1.700   4.813   0.424
 6753TIP3   OH241817   2.247   2.787   0.088
 6753TIP3    H141818   2.224   2.786   8.709
 6753TIP3    H241819   2.326   2.734   0.094
 6754TIP3   OH241820   3.620   5.831   7.898
 6754TIP3    H141821   3.546   5.878   7.860
 6754TIP3    H241822   3.697   5.872   7.860
 6755TIP3   OH241823   6.078   3.487   8.653
 6755TIP3    H141824   6.137   3.522   8.587
 6755TIP3    H241825   6.041   3.565   8.695
 6756TIP3   OH241826   5.969   2.834   7.447
 6756TIP3    H141827   6.042   2.829   7.509
 6756TIP3    H241828   5.961   2.745   7.413
 6757TIP3   OH241829   1.879   2.519   7.848
 6757TIP3    H141830   1.840   2.588   7.902
 6757TIP3    H241831   1.807   2.487   7.794
 6758TIP3   OH241832   6.581   2.745   6.046
 6758TIP3    H141833   6.591   2.834   6.011
 6758TIP3    H241834   6.622   2.689   5.981
 6759TIP3   OH241835   3.660   4.868   1.391
 6759TIP3    H141836   3.677   4.960   1.375
 6759TIP3    H241837   3.685   4.855   1.483
 6760TIP3   OH241838   0.266   3.106   1.521
 6760TIP3    H141839   0.250   3.188   1.474
 6760TIP3    H241840   0.190   3.052   1.503
 6761TIP3   OH241841   5.192   3.304   8.358
 6761TIP3    H141842   5.251   3.311   8.283
 6761TIP3    H241843   5.171   3.394   8.382
 6762TIP3   OH241844   1.252   1.735   8.618
 6762TIP3    H141845   1.220   1.820   8.647
 6762TIP3    H241846   1.337   1.755   8.577
 6763TIP3   OH241847   4.015   4.951   0.751
 6763TIP3    H141848   4.077   5.011   0.793
 6763TIP3    H241849   3.934   5.002   0.744
 6764TIP3   OH241850   5.974   1.402   1.089
 6764TIP3    H141851   5.891   1.400   1.137
 6764TIP3    H241852   6.005   1.311   1.089
 6765TIP3   OH241853   4.794   5.311   7.413
 6765TIP3    H141854   4.845   5.237   7.378
 6765TIP3    H241855   4.857   5.361   7.465
 6766TIP3   OH241856   3.544   3.703   7.445
 6766TIP3    H141857   3.516   3.789   7.415
 6766TIP3    H241858   3.637   3.712   7.461
 6767TIP3   OH241859   5.954   0.021   1.555
 6767TIP3    H141860   5.962   6.785   1.579
 6767TIP3    H241861   5.972   0.024   1.461
 6768TIP3   OH241862   2.205   6.338   7.211
 6768TIP3    H141863   2.219   6.391   7.290
 6768TIP3    H241864   2.114   6.353   7.187
 6769TIP3   OH241865   3.576   2.415   6.886
 6769TIP3    H141866   3.622   2.360   6.824
 6769TIP3    H241867   3.510   2.358   6.925
 6770TIP3   OH241868   4.200   5.894   2.196
 6770TIP3    H141869   4.218   5.987   2.185
 6770TIP3    H241870   4.285   5.851   2.185
 6771TIP3   OH241871   4.996   6.382   1.982
 6771TIP3    H141872   5.009   6.357   2.073
 6771TIP3    H241873   4.929   6.322   1.949
 6772TIP3   OH241874   5.016   4.872   0.483
 6772TIP3    H141875   5.064   4.887   0.564
 6772TIP3    H241876   4.944   4.814   0.508
 6773TIP3   OH241877   0.646   0.997   6.748
 6773TIP3    H141878   0.604   1.076   6.782
 6773TIP3    H241879   0.723   1.029   6.701
 6774TIP3   OH241880   0.360   5.722   7.565
 6774TIP3    H141881   0.364   5.699   7.473
 6774TIP3    H241882   0.269   5.749   7.579
 6775TIP3   OH241883   1.496   5.790   6.626
 6775TIP3    H141884   1.532   5.784   6.715
 6775TIP3    H241885   1.410   5.747   6.632
 6776TIP3   OH241886   6.309   6.239   1.315
 6776TIP3    H141887   6.398   6.225   1.282
 6776TIP3    H241888   6.269   6.300   1.253
 6777TIP3   OH241889   4.352   3.979   6.261
 6777TIP3    H141890   4.446   3.993   6.266
 6777TIP3    H241891   4.342   3.886   6.241
 6778TIP3   OH241892   3.828   0.324   0.516
 6778TIP3    H141893   3.844   0.409   0.476
 6778TIP3    H241894   3.781   0.275   0.449
 6779TIP3   OH241895   0.582   5.831   0.851
 6779TIP3    H141896   0.544   5.744   0.867
 6779TIP3    H241897   0.508   5.891   0.856
 6780TIP3   OH241898   5.212   3.119   8.627
 6780TIP3    H141899   5.191   3.210   8.650
 6780TIP3    H241900   5.308   3.114   8.635
 6781TIP3   OH241901   1.269   4.993   0.971
 6781TIP3    H141902   1.310   4.918   1.014
 6781TIP3    H241903   1.218   5.035   1.040
 6782TIP3   OH241904   4.398   2.019   2.072
 6782TIP3    H141905   4.459   2.077   2.117
 6782TIP3    H241906   4.328   2.077   2.041
 6783TIP3   OH241907   4.355   4.506   7.201
 6783TIP3    H141908   4.338   4.414   7.221
 6783TIP3    H241909   4.373   4.547   7.286
 6784TIP3   OH241910   2.991   2.605   8.055
 6784TIP3    H141911   3.035   2.602   7.971
 6784TIP3    H241912   3.015   2.522   8.097
 6785TIP3   OH241913   4.080   6.764   7.546
 6785TIP3    H141914   4.143   6.710   7.498
 6785TIP3    H241915   3.995   6.734   7.516
 6786TIP3   OH241916   2.912   2.431   0.340
 6786TIP3    H141917   2.850   2.485   0.389
 6786TIP3    H241918   2.983   2.414   0.402
 6787TIP3   OH241919   1.654   6.653   6.300
 6787TIP3    H141920   1.714   6.688   6.234
 6787TIP3    H241921   1.640   6.726   6.361
 6788TIP3   OH241922   5.485   0.161   8.035
 6788TIP3    H141923   5.535   0.079   8.034
 6788TIP3    H241924   5.402   0.139   7.992
 6789TIP3   OH241925   0.106   3.413   0.675
 6789TIP3    H141926   0.116   3.453   0.588
 6789TIP3    H241927   0.196   3.393   0.702
 6790TIP3   OH241928   0.935   1.463   7.871
 6790TIP3    H141929   0.872   1.399   7.905
 6790TIP3    H241930   0.912   1.471   7.779
 6791TIP3   OH241931   0.648   6.519   8.384
 6791TIP3    H141932   0.706   6.513   8.308
 6791TIP3    H241933   0.592   6.594   8.365
 6792TIP3   OH241934   0.353   5.714   0.030
 6792TIP3    H141935   0.423   5.743   0.089
 6792TIP3    H241936   0.333   5.625   0.058
 6793TIP3   OH241937   1.599   2.732   7.438
 6793TIP3    H141938   1.603   2.700   7.528
 6793TIP3    H241939   1.568   2.657   7.387
 6794TIP3   OH241940   0.614   2.402   6.776
 6794TIP3    H141941   0.663   2.484   6.770
 6794TIP3    H241942   0.641   2.364   6.859
 6795TIP3   OH241943   0.135   2.228   7.290
 6795TIP3    H141944   0.161   2.305   7.239
 6795TIP3    H241945   0.125   2.261   7.379
 6796TIP3   OH241946   3.041   2.167   2.192
 6796TIP3    H141947   3.112   2.120   2.235
 6796TIP3    H241948   3.080   2.200   2.111
 6797TIP3   OH241949   2.815   4.096   6.947
 6797TIP3    H141950   2.837   4.008   6.978
 6797TIP3    H241951   2.728   4.113   6.982
 6798TIP3   OH241952   6.519   6.000   8.074
 6798TIP3    H141953   6.466   5.921   8.077
 6798TIP3    H241954   6.523   6.024   7.982
 6799TIP3   OH241955   5.002   5.201   7.668
 6799TIP3    H141956   5.069   5.222   7.602
 6799TIP3    H241957   4.971   5.114   7.643
 6800TIP3   OH241958   5.149   1.374   6.688
 6800TIP3    H141959   5.089   1.429   6.636
 6800TIP3    H241960   5.167   1.299   6.632
 6801TIP3   OH241961   2.063   4.850   6.807
 6801TIP3    H141962   2.024   4.797   6.737
 6801TIP3    H241963   2.157   4.833   6.801
 6802TIP3   OH241964   6.184   6.737   1.947
 6802TIP3    H141965   6.255   6.708   2.005
 6802TIP3    H241966   6.105   6.698   1.985
 6803TIP3   OH241967   6.142   0.130   0.626
 6803TIP3    H141968   6.124   0.212   0.579
 6803TIP3    H241969   6.057   0.086   0.630
 6804TIP3   OH241970   5.169   5.442   8.309
 6804TIP3    H141971   5.095   5.386   8.289
 6804TIP3    H241972   5.150   5.476   8.397
 6805TIP3   OH241973   0.452   0.126   8.328
 6805TIP3    H141974   0.492   0.098   8.245
 6805TIP3    H241975   0.500   0.205   8.352
 6806TIP3   OH241976   2.259   3.783   7.149
 6806TIP3    H141977   2.343   3.819   7.176
 6806TIP3    H241978   2.194   3.842   7.187
 6807TIP3   OH241979   0.274   1.805   0.555
 6807TIP3    H141980   0.212   1.762   0.495
 6807TIP3    H241981   0.272   1.751   0.634
 6808TIP3   OH241982   5.840   3.616   6.340
 6808TIP3    H141983   5.931   3.591   6.324
 6808TIP3    H241984   5.812   3.557   6.410
 6809TIP3   OH241985   3.423   2.880   6.536
 6809TIP3    H141986   3.416   2.943   6.464
 6809TIP3    H241987   3.394   2.929   6.614
 6810TIP3   OH241988   3.366   3.890   6.684
 6810TIP3    H141989   3.372   3.858   6.774
 6810TIP3    H241990   3.423   3.967   6.682
 6811TIP3   OH241991   0.790   5.250   6.626
 6811TIP3    H141992   0.834   5.243   6.710
 6811TIP3    H241993   0.852   5.297   6.570
 6812TIP3   OH241994   3.389   4.665   0.279
 6812TIP3    H141995   3.424   4.669   0.368
 6812TIP3    H241996   3.425   4.742   0.235
 6813TIP3   OH241997   6.007   5.508   7.681
 6813TIP3    H141998   5.949   5.582   7.700
 6813TIP3    H241999   5.961   5.460   7.611
 6814TIP3   OH242000   6.668   0.111   0.465
 6814TIP3    H142001   6.756   0.073   0.469
 6814TIP3    H242002   6.664   0.153   0.379
 6815TIP3   OH242003   2.729   4.990   1.548
 6815TIP3    H142004   2.729   5.079   1.514
 6815TIP3    H242005   2.712   5.000   1.642
 6816TIP3   OH242006   3.285   5.451   7.405
 6816TIP3    H142007   3.261   5.389   7.336
 6816TIP3    H242008   3.361   5.497   7.369
 6817TIP3   OH242009   3.291   3.468   6.799
 6817TIP3    H142010   3.220   3.513   6.753
 6817TIP3    H242011   3.259   3.377   6.808
 6818TIP3   OH242012   5.094   6.476   1.642
 6818TIP3    H142013   5.142   6.531   1.703
 6818TIP3    H242014   5.002   6.496   1.658
 6819TIP3   OH242015   0.807   6.735   7.123
 6819TIP3    H142016   0.788   6.777   7.206
 6819TIP3    H242017   0.721   6.715   7.085
 6820TIP3   OH242018   5.000   2.785   7.840
 6820TIP3    H142019   4.955   2.721   7.895
 6820TIP3    H242020   5.025   2.855   7.901
 6821TIP3   OH242021   1.066   0.865   6.918
 6821TIP3    H142022   1.016   0.946   6.915
 6821TIP3    H242023   1.115   0.869   7.000
 6822TIP3   OH242024   0.318   2.545   0.191
 6822TIP3    H142025   0.389   2.598   0.228
 6822TIP3    H242026   0.315   2.467   0.246
 6823TIP3   OH242027   2.283   5.045   6.056
 6823TIP3    H142028   2.251   4.955   6.055
 6823TIP3    H242029   2.305   5.064   5.965
 6824TIP3   OH242030   1.101   2.013   8.100
 6824TIP3    H142031   1.171   2.052   8.048
 6824TIP3    H242032   1.021   2.032   8.052
 6825TIP3   OH242033   6.694   5.932   1.094
 6825TIP3    H142034   6.780   5.902   1.067
 6825TIP3    H242035   6.681   5.892   1.180
 6826TIP3   OH242036   1.111   1.634   7.107
 6826TIP3    H142037   1.037   1.654   7.050
 6826TIP3    H242038   1.091   1.548   7.143
 6827TIP3   OH242039   0.781   6.722   0.300
 6827TIP3    H142040   0.736   6.805   0.315
 6827TIP3    H242041   0.871   6.747   0.280
 6828TIP3   OH242042   1.430   5.098   1.221
 6828TIP3    H142043   1.522   5.070   1.224
 6828TIP3    H242044   1.433   5.185   1.180
 6829TIP3   OH242045   1.576   6.566   7.520
 6829TIP3    H142046   1.505   6.537   7.462
 6829TIP3    H242047   1.564   6.660   7.527
 6830TIP3   OH242048   0.531   1.943   7.449
 6830TIP3    H142049   0.522   1.853   7.418
 6830TIP3    H242050   0.441   1.976   7.451
 6831TIP3   OH242051   3.720   3.822   7.749
 6831TIP3    H142052   3.762   3.839   7.665
 6831TIP3    H242053   3.774   3.869   7.813
 6832TIP3   OH242054   0.769   1.557   7.232
 6832TIP3    H142055   0.687   1.510   7.245
 6832TIP3    H242056   0.767   1.627   7.298
 6833TIP3   OH242057   3.348   5.768   6.737
 6833TIP3    H142058   3.347   5.744   6.830
 6833TIP3    H242059   3.403   5.702   6.696
 6834TIP3   OH242060   1.318   5.687   0.157
 6834TIP3    H142061   1.276   5.760   0.203
 6834TIP3    H242062   1.255   5.661   0.090
 6835TIP3   OH242063   0.436   1.147   7.396
 6835TIP3    H142064   0.426   1.076   7.459
 6835TIP3    H242065   0.408   1.110   7.312
 6836TIP3   OH242066   0.421   3.113   1.751
 6836TIP3    H142067   0.357   3.090   1.684
 6836TIP3    H242068   0.500   3.138   1.702
 6837TIP3   OH242069   3.142   3.751   0.708
 6837TIP3    H142070   3.147   3.702   0.790
 6837TIP3    H242071   3.056   3.792   0.710
 6838TIP3   OH242072   3.121   2.710   2.317
 6838TIP3    H142073   3.215   2.718   2.333
 6838TIP3    H242074   3.091   2.646   2.381
 6839TIP3   OH242075   3.551   3.118   6.933
 6839TIP3    H142076   3.572   3.034   6.972
 6839TIP3    H242077   3.483   3.098   6.869
 6840TIP3   OH242078   2.952   4.587   1.926
 6840TIP3    H142079   2.957   4.664   1.983
 6840TIP3    H242080   2.924   4.621   1.841
 6841TIP3   OH242081   1.356   3.834   0.905
 6841TIP3    H142082   1.262   3.851   0.905
 6841TIP3    H242083   1.395   3.917   0.877
 6842TIP3   OH242084   1.423   1.065   7.931
 6842TIP3    H142085   1.444   1.124   7.858
 6842TIP3    H242086   1.509   1.035   7.962
 6843TIP3   OH242087   5.727   3.490   0.052
 6843TIP3    H142088   5.735   3.580   0.019
 6843TIP3    H242089   5.642   3.487   0.095
 6844TIP3   OH242090   5.711   4.430   8.700
 6844TIP3    H142091   5.649   4.419   8.629
 6844TIP3    H242092   5.756   4.346   8.707
 6845TIP3   OH242093   0.847   0.209   2.389
 6845TIP3    H142094   0.754   0.203   2.409
 6845TIP3    H242095   0.853   0.280   2.325
 6846TIP3   OH242096   0.817   4.514   7.272
 6846TIP3    H142097   0.891   4.545   7.324
 6846TIP3    H242098   0.834   4.547   7.184
 6847TIP3   OH242099   2.086   1.235   1.785
 6847TIP3    H142100   2.112   1.326   1.798
 6847TIP3    H242101   2.147   1.184   1.838
 6848TIP3   OH242102   4.417   4.311   6.416
 6848TIP3    H142103   4.330   4.287   6.383
 6848TIP3    H242104   4.407   4.400   6.448
 6849TIP3   OH242105   5.427   5.002   0.148
 6849TIP3    H142106   5.478   5.082   0.158
 6849TIP3    H242107   5.353   5.012   0.207
 6850TIP3   OH242108   6.719   6.084   1.401
 6850TIP3    H142109   6.655   6.119   1.339
 6850TIP3    H242110   6.706   5.990   1.398
 6851TIP3   OH242111   5.684   5.411   6.774
 6851TIP3    H142112   5.591   5.401   6.752
 6851TIP3    H242113   5.730   5.382   6.696
 6852TIP3   OH242114   4.882   4.497   0.330
 6852TIP3    H142115   4.911   4.567   0.270
 6852TIP3    H242116   4.911   4.526   0.416
 6853TIP3   OH242117   5.459   4.098   1.050
 6853TIP3    H142118   5.548   4.087   1.015
 6853TIP3    H242119   5.462   4.058   1.137
 6854TIP3   OH242120   5.988   6.460   2.334
 6854TIP3    H142121   5.960   6.551   2.326
 6854TIP3    H242122   6.075   6.458   2.294
 6855TIP3   OH242123   3.655   1.484   2.343
 6855TIP3    H142124   3.612   1.497   2.258
 6855TIP3    H242125   3.596   1.525   2.406
 6856TIP3   OH242126   5.854   0.618   8.378
 6856TIP3    H142127   5.847   0.530   8.342
 6856TIP3    H242128   5.918   0.662   8.322
 6857TIP3   OH242129   1.230   1.000   0.806
 6857TIP3    H142130   1.144   1.004   0.765
 6857TIP3    H242131   1.227   0.921   0.860
 6858TIP3   OH242132   1.407   3.845   7.681
 6858TIP3    H142133   1.412   3.757   7.645
 6858TIP3    H242134   1.396   3.902   7.605
 6859TIP3   OH242135   5.624   2.386   6.319
 6859TIP3    H142136   5.686   2.402   6.248
 6859TIP3    H242137   5.609   2.473   6.358
 6860TIP3   OH242138   5.940   3.675   8.408
 6860TIP3    H142139   5.872   3.682   8.341
 6860TIP3    H242140   5.928   3.587   8.445
 6861TIP3   OH242141   0.016   0.004   8.465
 6861TIP3    H142142   0.006   6.793   8.533
 6861TIP3    H242143   0.083   6.826   8.407
 6862TIP3   OH242144   4.083   2.023   7.647
 6862TIP3    H142145   4.148   2.058   7.708
 6862TIP3    H242146   4.130   2.016   7.564
 6863TIP3   OH242147   4.854   0.747   6.173
 6863TIP3    H142148   4.816   0.661   6.192
 6863TIP3    H242149   4.810   0.807   6.234
 6864TIP3   OH242150   1.686   0.230   1.477
 6864TIP3    H142151   1.608   0.176   1.486
 6864TIP3    H242152   1.740   0.184   1.413
 6865TIP3   OH242153   4.072   3.648   7.444
 6865TIP3    H142154   4.087   3.653   7.350
 6865TIP3    H242155   4.133   3.581   7.475
 6866TIP3   OH242156   3.279   2.452   0.257
 6866TIP3    H142157   3.299   2.536   0.216
 6866TIP3    H242158   3.205   2.469   0.314
 6867TIP3   OH242159   4.553   1.847   6.921
 6867TIP3    H142160   4.461   1.846   6.893
 6867TIP3    H242161   4.575   1.940   6.926
 6868TIP3   OH242162   4.233   4.738   7.166
 6868TIP3    H142163   4.273   4.755   7.080
 6868TIP3    H242164   4.265   4.652   7.191
 6869TIP3   OH242165   3.685   3.351   0.570
 6869TIP3    H142166   3.676   3.311   0.483
 6869TIP3    H242167   3.611   3.412   0.576
 6870TIP3   OH242168   5.117   1.964   8.441
 6870TIP3    H142169   5.036   1.914   8.435
 6870TIP3    H242170   5.185   1.899   8.457
 6871TIP3   OH242171   1.596   3.388   2.170
 6871TIP3    H142172   1.517   3.333   2.170
 6871TIP3    H242173   1.668   3.326   2.177
 6872TIP3   OH242174   3.979   6.717   6.489
 6872TIP3    H142175   3.959   6.751   6.576
 6872TIP3    H242176   4.061   6.670   6.500
 6873TIP3   OH242177   3.356   2.600   0.869
 6873TIP3    H142178   3.334   2.552   0.948
 6873TIP3    H242179   3.272   2.615   0.825
 6874TIP3   OH242180   2.259   3.925   8.064
 6874TIP3    H142181   2.228   3.974   7.988
 6874TIP3    H242182   2.328   3.980   8.101
 6875TIP3   OH242183   1.030   6.158   1.218
 6875TIP3    H142184   0.961   6.131   1.157
 6875TIP3    H242185   1.073   6.232   1.174
 6876TIP3   OH242186   1.705   6.853   6.748
 6876TIP3    H142187   1.666   6.836   6.662
 6876TIP3    H242188   1.767   0.068   6.733
 6877TIP3   OH242189   4.750   5.151   8.373
 6877TIP3    H142190   4.805   5.229   8.365
 6877TIP3    H242191   4.807   5.078   8.352
 6878TIP3   OH242192   0.085   1.744   7.867
 6878TIP3    H142193   0.043   1.774   7.948
 6878TIP3    H242194   0.177   1.732   7.891
 6879TIP3   OH242195   0.757   1.259   7.995
 6879TIP3    H142196   0.831   1.250   8.054
 6879TIP3    H242197   0.769   1.190   7.930
 6880TIP3   OH242198   6.408   4.761   7.790
 6880TIP3    H142199   6.358   4.769   7.709
 6880TIP3    H242200   6.409   4.667   7.808
 6881TIP3   OH242201   1.140   2.315   1.150
 6881TIP3    H142202   1.050   2.286   1.136
 6881TIP3    H242203   1.136   2.410   1.142
 6882TIP3   OH242204   5.050   4.774   0.219
 6882TIP3    H142205   5.012   4.797   0.303
 6882TIP3    H242206   5.141   4.752   0.238
 6883TIP3   OH242207   6.227   0.025   8.341
 6883TIP3    H142208   6.217   0.009   8.247
 6883TIP3    H242209   6.144   0.065   8.367
 6884TIP3   OH242210   1.561   4.707   6.929
 6884TIP3    H142211   1.625   4.777   6.944
 6884TIP3    H242212   1.582   4.641   6.996
 6885TIP3   OH242213   3.734   2.453   7.100
 6885TIP3    H142214   3.653   2.466   7.149
 6885TIP3    H242215   3.706   2.447   7.009
 6886TIP3   OH242216   3.879   0.651   2.237
 6886TIP3    H142217   3.876   0.607   2.322
 6886TIP3    H242218   3.809   0.611   2.186
 6887TIP3   OH242219   1.256   4.246   7.482
 6887TIP3    H142220   1.331   4.189   7.497
 6887TIP3    H242221   1.239   4.239   7.388
 6888TIP3   OH242222   3.779   4.431   7.230
 6888TIP3    H142223   3.786   4.399   7.140
 6888TIP3    H242224   3.845   4.381   7.278
 6889TIP3   OH242225   5.934   6.569   1.916
 6889TIP3    H142226   5.880   6.624   1.973
 6889TIP3    H242227   5.878   6.494   1.896
 6890TIP3   OH242228   2.684   6.389   7.056
 6890TIP3    H142229   2.749   6.319   7.066
 6890TIP3    H242230   2.636   6.367   6.976
 6891TIP3   OH242231   0.430   6.852   7.441
 6891TIP3    H142232   0.362   0.043   7.490
 6891TIP3    H242233   0.441   0.047   7.361
 6892TIP3   OH242234   5.329   6.283   0.606
 6892TIP3    H142235   5.380   6.202   0.606
 6892TIP3    H242236   5.274   6.276   0.685
 6893TIP3   OH242237   2.844   4.068   6.289
 6893TIP3    H142238   2.935   4.042   6.275
 6893TIP3    H242239   2.792   3.993   6.262
 6894TIP3   OH242240   0.590   1.757   0.154
 6894TIP3    H142241   0.502   1.767   0.118
 6894TIP3    H242242   0.606   1.838   0.201
 6895TIP3   OH242243   2.273   6.556   0.380
 6895TIP3    H142244   2.247   6.648   0.366
 6895TIP3    H242245   2.270   6.544   0.475
 6896TIP3   OH242246   1.625   6.628   7.838
 6896TIP3    H142247   1.637   6.639   7.744
 6896TIP3    H242248   1.703   6.581   7.867
 6897TIP3   OH242249   4.247   1.568   1.537
 6897TIP3    H142250   4.291   1.579   1.453
 6897TIP3    H242251   4.250   1.656   1.576
 6898TIP3   OH242252   6.227   6.390   1.943
 6898TIP3    H142253   6.159   6.455   1.929
 6898TIP3    H242254   6.294   6.410   1.877
 6899TIP3   OH242255   1.032   4.035   8.261
 6899TIP3    H142256   1.095   3.964   8.252
 6899TIP3    H242257   1.083   4.115   8.248
 6900TIP3   OH242258   3.035   3.736   8.391
 6900TIP3    H142259   2.951   3.696   8.367
 6900TIP3    H242260   3.042   3.812   8.333
 6901TIP3   OH242261   0.459   1.245   0.817
 6901TIP3    H142262   0.507   1.282   0.744
 6901TIP3    H242263   0.475   1.150   0.811
 6902TIP3   OH242264   4.384   2.319   8.441
 6902TIP3    H142265   4.403   2.229   8.414
 6902TIP3    H242266   4.288   2.325   8.437
 6903TIP3   OH242267   1.375   6.009   2.449
 6903TIP3    H142268   1.296   6.038   2.404
 6903TIP3    H242269   1.436   5.986   2.378
 6904TIP3   OH242270   0.792   2.115   6.976
 6904TIP3    H142271   0.748   2.084   7.055
 6904TIP3    H242272   0.790   2.210   6.983
 6905TIP3   OH242273   0.276   5.119   7.890
 6905TIP3    H142274   0.249   5.028   7.897
 6905TIP3    H242275   0.293   5.146   7.980
 6906TIP3   OH242276   3.032   6.484   1.588
 6906TIP3    H142277   3.032   6.451   1.677
 6906TIP3    H242278   3.034   6.579   1.598
 6907TIP3   OH242279   6.676   6.732   6.819
 6907TIP3    H142280   6.738   6.670   6.782
 6907TIP3    H242281   6.730   6.804   6.853
 6908TIP3   OH242282   2.818   5.787   7.885
 6908TIP3    H142283   2.838   5.881   7.884
 6908TIP3    H242284   2.751   5.778   7.953
 6909TIP3   OH242285   2.287   1.029   8.565
 6909TIP3    H142286   2.271   1.036   8.659
 6909TIP3    H242287   2.249   0.944   8.541
 6910TIP3   OH242288   1.013   0.964   8.413
 6910TIP3    H142289   1.006   1.027   8.342
 6910TIP3    H242290   1.056   1.011   8.484
 6911TIP3   OH242291   6.581   0.500   0.583
 6911TIP3    H142292   6.612   0.590   0.592
 6911TIP3    H242293   6.598   0.478   0.492
 6912TIP3   OH242294   2.392   5.843   8.521
 6912TIP3    H142295   2.467   5.791   8.493
 6912TIP3    H242296   2.337   5.782   8.570
 6913TIP3   OH242297   0.600   5.491   2.143
 6913TIP3    H142298   0.630   5.402   2.160
 6913TIP3    H242299   0.671   5.547   2.176
 6914TIP3   OH242300   1.481   4.498   0.613
 6914TIP3    H142301   1.408   4.556   0.594
 6914TIP3    H242302   1.458   4.416   0.570
 6915TIP3   OH242303   3.886   5.559   7.260
 6915TIP3    H142304   3.797   5.533   7.285
 6915TIP3    H242305   3.878   5.652   7.238
 6916TIP3   OH242306   0.378   5.323   1.466
 6916TIP3    H142307   0.402   5.290   1.379
 6916TIP3    H242308   0.436   5.278   1.527
 6917TIP3   OH242309   0.628   0.384   6.474
 6917TIP3    H142310   0.596   0.345   6.393
 6917TIP3    H242311   0.634   0.310   6.535
 6918TIP3   OH242312   1.245   5.660   7.414
 6918TIP3    H142313   1.220   5.568   7.410
 6918TIP3    H242314   1.199   5.701   7.341
 6919TIP3   OH242315   5.431   1.015   7.667
 6919TIP3    H142316   5.414   0.926   7.635
 6919TIP3    H242317   5.477   1.058   7.595
 6920TIP3   OH242318   2.168   5.781   2.239
 6920TIP3    H142319   2.141   5.692   2.265
 6920TIP3    H242320   2.118   5.798   2.159
 6921TIP3   OH242321   3.368   3.100   8.618
 6921TIP3    H142322   3.295   3.136   8.670
 6921TIP3    H242323   3.338   3.106   8.527
 6922TIP3   OH242324   6.216   3.903   0.484
 6922TIP3    H142325   6.197   3.822   0.531
 6922TIP3    H242326   6.134   3.924   0.438
 6923TIP3   OH242327   1.862   6.657   7.186
 6923TIP3    H142328   1.853   6.707   7.105
 6923TIP3    H242329   1.828   6.715   7.254
 6924TIP3   OH242330   0.358   1.746   7.923
 6924TIP3    H142331   0.340   1.684   7.851
 6924TIP3    H242332   0.449   1.728   7.948
 6925TIP3   OH242333   1.342   6.284   7.700
 6925TIP3    H142334   1.297   6.355   7.655
 6925TIP3    H242335   1.274   6.218   7.715
 6926TIP3   OH242336   4.596   5.298   8.051
 6926TIP3    H142337   4.645   5.249   7.985
 6926TIP3    H242338   4.551   5.367   8.001
 6927TIP3   OH242339   1.803   6.583   8.644
 6927TIP3    H142340   1.834   6.528   8.572
 6927TIP3    H242341   1.722   6.541   8.673
 6928TIP3   OH242342   2.148   3.163   0.234
 6928TIP3    H142343   2.092   3.140   0.160
 6928TIP3    H242344   2.127   3.099   0.301
 6929TIP3   OH242345   5.867   0.159   8.609
 6929TIP3    H142346   5.923   0.104   8.663
 6929TIP3    H242347   5.921   0.236   8.589
 6930TIP3   OH242348   3.588   5.419   0.919
 6930TIP3    H142349   3.537   5.339   0.904
 6930TIP3    H242350   3.524   5.482   0.951
 6931TIP3   OH242351   4.556   3.935   8.336
 6931TIP3    H142352   4.579   3.847   8.304
 6931TIP3    H242353   4.569   3.992   8.260
 6932TIP3   OH242354   6.697   6.741   1.526
 6932TIP3    H142355   6.715   6.647   1.519
 6932TIP3    H242356   6.636   6.759   1.455
 6933TIP3   OH242357   5.512   5.261   7.014
 6933TIP3    H142358   5.479   5.281   7.101
 6933TIP3    H242359   5.461   5.317   6.955
 6934TIP3   OH242360   5.616   6.006   0.410
 6934TIP3    H142361   5.637   5.930   0.356
 6934TIP3    H242362   5.520   6.008   0.412
 6935TIP3   OH242363   5.990   2.047   1.325
 6935TIP3    H142364   5.981   1.991   1.248
 6935TIP3    H242365   5.901   2.056   1.359
 6936TIP3   OH242366   4.023   1.519   8.699
 6936TIP3    H142367   3.988   1.485   0.068
 6936TIP3    H242368   4.110   1.551   0.008
 6937TIP3   OH242369   5.237   5.945   7.500
 6937TIP3    H142370   5.316   5.956   7.553
 6937TIP3    H242371   5.176   6.010   7.536
 6938TIP3   OH242372   2.485   4.490   0.359
 6938TIP3    H142373   2.557   4.466   0.417
 6938TIP3    H242374   2.421   4.419   0.369
 6939TIP3   OH242375   0.364   5.230   1.123
 6939TIP3    H142376   0.458   5.225   1.143
 6939TIP3    H242377   0.348   5.154   1.067
 6940TIP3   OH242378   3.404   1.291   7.817
 6940TIP3    H142379   3.322   1.265   7.775
 6940TIP3    H242380   3.379   1.317   7.905
 6941TIP3   OH242381   2.905   1.947   8.464
 6941TIP3    H142382   2.850   1.954   8.542
 6941TIP3    H242383   2.952   1.864   8.475
 6942TIP3   OH242384   0.893   4.732   0.392
 6942TIP3    H142385   0.831   4.697   0.456
 6942TIP3    H242386   0.965   4.668   0.390
 6943TIP3   OH242387   0.949   1.404   7.130
 6943TIP3    H142388   0.878   1.454   7.170
 6943TIP3    H242389   0.945   1.318   7.173
 6944TIP3   OH242390   5.705   1.371   1.179
 6944TIP3    H142391   5.655   1.398   1.256
 6944TIP3    H242392   5.716   1.277   1.190
 6945TIP3   OH242393   1.219   2.667   1.567
 6945TIP3    H142394   1.275   2.699   1.496
 6945TIP3    H242395   1.238   2.727   1.640
 6946TIP3   OH242396   4.673   1.018   0.583
 6946TIP3    H142397   4.730   0.967   0.526
 6946TIP3    H242398   4.728   1.039   0.659
 6947TIP3   OH242399   2.598   3.532   0.317
 6947TIP3    H142400   2.535   3.602   0.336
 6947TIP3    H242401   2.561   3.454   0.357
 6948TIP3   OH242402   3.386   5.239   2.466
 6948TIP3    H142403   3.358   5.155   2.430
 6948TIP3    H242404   3.330   5.304   2.423
 6949TIP3   OH242405   1.950   4.286   2.365
 6949TIP3    H142406   1.945   4.378   2.390
 6949TIP3    H242407   1.878   4.244   2.413
 6950TIP3   OH242408   1.825   6.668   5.911
 6950TIP3    H142409   1.877   6.742   5.880
 6950TIP3    H242410   1.847   6.660   6.004
 6951TIP3   OH242411   2.911   0.238   6.864
 6951TIP3    H142412   2.882   0.183   6.791
 6951TIP3    H242413   2.977   0.296   6.825
 6952TIP3   OH242414   6.206   5.085   6.438
 6952TIP3    H142415   6.239   5.085   6.348
 6952TIP3    H242416   6.199   5.178   6.461
 6953TIP3   OH242417   5.622   1.576   2.001
 6953TIP3    H142418   5.660   1.644   1.945
 6953TIP3    H242419   5.615   1.499   1.943
 6954TIP3   OH242420   4.018   1.553   0.254
 6954TIP3    H142421   4.055   1.502   0.325
 6954TIP3    H242422   4.087   1.615   0.230
 6955TIP3   OH242423   6.267   1.985   8.245
 6955TIP3    H142424   6.317   1.912   8.209
 6955TIP3    H242425   6.176   1.955   8.242
 6956TIP3   OH242426   5.563   4.814   6.547
 6956TIP3    H142427   5.651   4.776   6.548
 6956TIP3    H242428   5.508   4.746   6.507
 6957TIP3   OH242429   2.667   5.368   0.680
 6957TIP3    H142430   2.758   5.377   0.708
 6957TIP3    H242431   2.617   5.360   0.761
 6958TIP3   OH242432   5.676   0.206   6.697
 6958TIP3    H142433   5.662   0.283   6.642
 6958TIP3    H242434   5.672   0.132   6.636
 6959TIP3   OH242435   5.554   2.492   1.276
 6959TIP3    H142436   5.555   2.420   1.340
 6959TIP3    H242437   5.476   2.476   1.224
 6960TIP3   OH242438   1.226   0.388   7.907
 6960TIP3    H142439   1.226   0.371   7.813
 6960TIP3    H242440   1.282   0.465   7.918
 6961TIP3   OH242441   5.430   5.938   1.662
 6961TIP3    H142442   5.427   5.845   1.684
 6961TIP3    H242443   5.373   5.980   1.726
 6962TIP3   OH242444   5.751   1.524   8.087
 6962TIP3    H142445   5.707   1.507   8.170
 6962TIP3    H242446   5.843   1.505   8.106
 6963TIP3   OH242447   3.133   0.883   8.134
 6963TIP3    H142448   3.192   0.948   8.173
 6963TIP3    H242449   3.115   0.822   8.205
 6964TIP3   OH242450   1.700   6.010   1.857
 6964TIP3    H142451   1.695   5.959   1.938
 6964TIP3    H242452   1.774   5.973   1.809
 6965TIP3   OH242453   4.362   0.964   2.426
 6965TIP3    H142454   4.287   1.019   2.406
 6965TIP3    H242455   4.333   0.911   2.500
 6966TIP3   OH242456   1.358   4.165   7.087
 6966TIP3    H142457   1.405   4.229   7.141
 6966TIP3    H242458   1.266   4.190   7.095
 6967TIP3   OH242459   0.205   2.323   6.407
 6967TIP3    H142460   0.185   2.411   6.376
 6967TIP3    H242461   0.287   2.332   6.455
 6968TIP3   OH242462   6.143   5.740   7.140
 6968TIP3    H142463   6.126   5.814   7.082
 6968TIP3    H242464   6.228   5.707   7.113
 6969TIP3   OH242465   5.712   1.788   7.966
 6969TIP3    H142466   5.692   1.698   7.990
 6969TIP3    H242467   5.805   1.799   7.989
 6970TIP3   OH242468   5.976   4.378   1.450
 6970TIP3    H142469   6.012   4.332   1.375
 6970TIP3    H242470   5.960   4.467   1.418
 6971TIP3   OH242471   5.757   3.566   1.119
 6971TIP3    H142472   5.847   3.542   1.096
 6971TIP3    H242473   5.705   3.491   1.089
 6972TIP3   OH242474   3.389   2.585   7.851
 6972TIP3    H142475   3.380   2.617   7.940
 6972TIP3    H242476   3.433   2.656   7.804
 6973TIP3   OH242477   2.182   0.243   1.260
 6973TIP3    H142478   2.216   0.164   1.219
 6973TIP3    H242479   2.090   0.247   1.232
 6974TIP3   OH242480   0.223   5.908   1.864
 6974TIP3    H142481   0.160   5.848   1.904
 6974TIP3    H242482   0.206   5.902   1.770
 6975TIP3   OH242483   5.176   5.675   8.599
 6975TIP3    H142484   5.222   5.712   8.524
 6975TIP3    H242485   5.114   5.612   8.562
 6976TIP3   OH242486   3.381   0.150   2.140
 6976TIP3    H142487   3.451   0.133   2.078
 6976TIP3    H242488   3.417   0.215   2.200
 6977TIP3   OH242489   2.081   0.120   7.603
 6977TIP3    H142490   1.998   0.121   7.651
 6977TIP3    H242491   2.141   0.169   7.659
 6978TIP3   OH242492   5.428   2.880   6.341
 6978TIP3    H142493   5.337   2.867   6.315
 6978TIP3    H242494   5.454   2.962   6.299
 6979TIP3   OH242495   2.813   0.430   7.350
 6979TIP3    H142496   2.765   0.500   7.307
 6979TIP3    H242497   2.905   0.455   7.343
 6980TIP3   OH242498   6.072   3.843   1.519
 6980TIP3    H142499   5.980   3.867   1.530
 6980TIP3    H242500   6.075   3.795   1.437
 6981TIP3   OH242501   4.176   2.260   1.250
 6981TIP3    H142502   4.128   2.280   1.331
 6981TIP3    H242503   4.234   2.335   1.237
 6982TIP3   OH242504   2.231   3.537   0.927
 6982TIP3    H142505   2.147   3.569   0.892
 6982TIP3    H242506   2.206   3.470   0.990
 6983TIP3   OH242507   0.654   4.776   0.125
 6983TIP3    H142508   0.665   4.806   0.215
 6983TIP3    H242509   0.610   4.849   0.080
 6984TIP3   OH242510   3.352   4.684   7.575
 6984TIP3    H142511   3.446   4.692   7.588
 6984TIP3    H242512   3.341   4.605   7.522
 6985TIP3   OH242513   3.889   1.680   0.780
 6985TIP3    H142514   3.910   1.710   0.692
 6985TIP3    H242515   3.947   1.606   0.795
 6986TIP3   OH242516   2.598   3.807   0.059
 6986TIP3    H142517   2.649   3.829   8.694
 6986TIP3    H242518   2.597   3.711   0.060
 6987TIP3   OH242519   0.702   5.704   7.662
 6987TIP3    H142520   0.629   5.743   7.711
 6987TIP3    H242521   0.766   5.774   7.655
 6988TIP3   OH242522   6.099   3.842   6.377
 6988TIP3    H142523   6.010   3.877   6.373
 6988TIP3    H242524   6.155   3.912   6.344
 6989TIP3   OH242525   2.501   5.184   8.376
 6989TIP3    H142526   2.506   5.141   8.462
 6989TIP3    H242527   2.586   5.227   8.366
 6990TIP3   OH242528   5.019   6.233   7.264
 6990TIP3    H142529   5.070   6.158   7.296
 6990TIP3    H242530   5.050   6.247   7.175
 6991TIP3   OH242531   4.301   0.004   0.032
 6991TIP3    H142532   4.362   0.077   0.040
 6991TIP3    H242533   4.240   0.031   8.677
 6992TIP3   OH242534   4.493   5.234   0.301
 6992TIP3    H142535   4.492   5.323   0.338
 6992TIP3    H242536   4.458   5.245   0.213
 6993TIP3   OH242537   4.633   2.444   0.541
 6993TIP3    H142538   4.699   2.512   0.526
 6993TIP3    H242539   4.609   2.454   0.633
 6994TIP3   OH242540   2.612   5.066   8.654
 6994TIP3    H142541   2.656   5.103   0.017
 6994TIP3    H242542   2.618   4.971   8.665
 6995TIP3   OH242543   3.834   5.634   7.863
 6995TIP3    H142544   3.768   5.695   7.897
 6995TIP3    H242545   3.807   5.617   7.773
 6996TIP3   OH242546   6.166   4.605   2.054
 6996TIP3    H142547   6.242   4.574   2.103
 6996TIP3    H242548   6.111   4.649   2.119
 6997TIP3   OH242549   2.352   5.491   7.604
 6997TIP3    H142550   2.403   5.414   7.629
 6997TIP3    H242551   2.382   5.513   7.516
 6998TIP3   OH242552   0.017   5.653   0.056
 6998TIP3    H142553   0.054   5.634   0.143
 6998TIP3    H242554   0.006   5.567   0.016
 6999TIP3   OH242555   1.046   4.135   1.682
 6999TIP3    H142556   0.969   4.079   1.686
 6999TIP3    H242557   1.035   4.197   1.754
 7000TIP3   OH242558   3.794   5.699   8.146
 7000TIP3    H142559   3.830   5.613   8.164
 7000TIP3    H242560   3.705   5.683   8.117
 7001TIP3   OH242561   1.703   6.267   1.997
 7001TIP3    H142562   1.749   6.328   1.940
 7001TIP3    H242563   1.705   6.184   1.950
 7002TIP3   OH242564   3.193   4.327   1.137
 7002TIP3    H142565   3.195   4.422   1.132
 7002TIP3    H242566   3.132   4.308   1.209
 7003TIP3   OH242567   1.989   3.158   6.709
 7003TIP3    H142568   1.987   3.110   6.792
 7003TIP3    H242569   2.061   3.118   6.660
 7004TIP3   OH242570   5.512   6.434   2.603
 7004TIP3    H142571   5.465   6.450   2.521
 7004TIP3    H242572   5.447   6.449   2.671
 7005TIP3   OH242573   4.215   5.774   0.991
 7005TIP3    H142574   4.201   5.752   1.084
 7005TIP3    H242575   4.248   5.693   0.952
 7006TIP3   OH242576   2.597   0.988   7.885
 7006TIP3    H142577   2.582   1.007   7.793
 7006TIP3    H242578   2.517   1.019   7.929
 7007TIP3   OH242579   4.332   5.825   8.109
 7007TIP3    H142580   4.247   5.797   8.143
 7007TIP3    H242581   4.322   5.819   8.014
 7008TIP3   OH242582   0.516   5.121   7.729
 7008TIP3    H142583   0.558   5.199   7.766
 7008TIP3    H242584   0.432   5.115   7.776
 7009TIP3   OH242585   2.938   0.956   0.171
 7009TIP3    H142586   2.864   0.997   0.127
 7009TIP3    H242587   2.900   0.907   0.243
 7010TIP3   OH242588   1.601   5.297   0.410
 7010TIP3    H142589   1.521   5.345   0.389
 7010TIP3    H242590   1.651   5.357   0.466
 7011TIP3   OH242591   5.123   2.409   1.751
 7011TIP3    H142592   5.193   2.453   1.703
 7011TIP3    H242593   5.055   2.476   1.760
 7012TIP3   OH242594   2.983   1.134   1.676
 7012TIP3    H142595   2.961   1.042   1.670
 7012TIP3    H242596   2.980   1.153   1.770
 7013TIP3   OH242597   3.196   5.906   8.506
 7013TIP3    H142598   3.195   5.812   8.489
 7013TIP3    H242599   3.106   5.928   8.528
 7014TIP3   OH242600   6.007   5.067   1.011
 7014TIP3    H142601   6.005   5.006   1.084
 7014TIP3    H242602   6.067   5.027   0.948
 7015TIP3   OH242603   4.936   0.373   6.848
 7015TIP3    H142604   4.926   0.281   6.823
 7015TIP3    H242605   4.884   0.421   6.783
 7016TIP3   OH242606   3.298   1.449   1.745
 7016TIP3    H142607   3.226   1.448   1.681
 7016TIP3    H242608   3.355   1.377   1.718
 7017TIP3   OH242609   2.141   1.055   7.368
 7017TIP3    H142610   2.105   1.030   7.453
 7017TIP3    H242611   2.107   0.988   7.308
 7018TIP3   OH242612   2.145   2.532   0.725
 7018TIP3    H142613   2.126   2.439   0.718
 7018TIP3    H242614   2.079   2.566   0.786
 7019TIP3   OH242615   3.163   3.642   7.904
 7019TIP3    H142616   3.227   3.635   7.833
 7019TIP3    H242617   3.078   3.639   7.859
 7020TIP3   OH242618   3.340   5.299   0.857
 7020TIP3    H142619   3.273   5.265   0.917
 7020TIP3    H242620   3.337   5.394   0.869
 7021TIP3   OH242621   4.298   2.659   0.266
 7021TIP3    H142622   4.369   2.718   0.292
 7021TIP3    H242623   4.299   2.589   0.332
 7022TIP3   OH242624   2.391   1.117   0.468
 7022TIP3    H142625   2.415   1.107   0.376
 7022TIP3    H242626   2.364   1.208   0.476
 7023TIP3   OH242627   5.349   3.825   6.967
 7023TIP3    H142628   5.317   3.862   6.885
 7023TIP3    H242629   5.438   3.796   6.948
 7024TIP3   OH242630   1.486   2.358   7.030
 7024TIP3    H142631   1.526   2.398   6.952
 7024TIP3    H242632   1.498   2.264   7.017
 7025TIP3   OH242633   6.024   0.392   8.511
 7025TIP3    H142634   6.087   0.376   8.581
 7025TIP3    H242635   6.042   0.481   8.482
 7026TIP3   OH242636   5.154   2.931   0.563
 7026TIP3    H142637   5.058   2.934   0.565
 7026TIP3    H242638   5.179   3.011   0.516
 7027TIP3   OH242639   5.216   0.158   7.052
 7027TIP3    H142640   5.308   0.165   7.076
 7027TIP3    H242641   5.195   0.242   7.010
 7028TIP3   OH242642   3.230   5.048   6.988
 7028TIP3    H142643   3.161   5.045   7.054
 7028TIP3    H242644   3.303   5.091   7.031
 7029TIP3   OH242645   5.128   3.299   1.336
 7029TIP3    H142646   5.107   3.366   1.402
 7029TIP3    H242647   5.058   3.235   1.343
 7030TIP3   OH242648   3.243   5.817   0.098
 7030TIP3    H142649   3.271   5.897   0.053
 7030TIP3    H242650   3.265   5.832   0.190
 7031TIP3   OH242651   6.366   5.932   0.192
 7031TIP3    H142652   6.453   5.895   0.205
 7031TIP3    H242653   6.331   5.945   0.280
 7032TIP3   OH242654   4.689   4.782   1.816
 7032TIP3    H142655   4.744   4.738   1.751
 7032TIP3    H242656   4.724   4.871   1.820
 7033TIP3   OH242657   1.357   6.345   0.510
 7033TIP3    H142658   1.328   6.384   0.592
 7033TIP3    H242659   1.365   6.251   0.528
 7034TIP3   OH242660   1.034   4.865   0.159
 7034TIP3    H142661   0.996   4.825   0.236
 7034TIP3    H242662   0.967   4.926   0.128
 7035TIP3   OH242663   4.515   5.360   0.587
 7035TIP3    H142664   4.447   5.293   0.588
 7035TIP3    H242665   4.467   5.442   0.573
 7036TIP3   OH242666   0.244   2.882   7.042
 7036TIP3    H142667   0.285   2.968   7.033
 7036TIP3    H242668   0.172   2.896   7.104
 7037TIP3   OH242669   0.835   6.349   1.289
 7037TIP3    H142670   0.793   6.431   1.316
 7037TIP3    H242671   0.791   6.325   1.207
 7038TIP3   OH242672   2.670   4.763   0.474
 7038TIP3    H142673   2.747   4.707   0.467
 7038TIP3    H242674   2.640   4.752   0.564
 7039TIP3   OH242675   2.262   4.648   1.783
 7039TIP3    H142676   2.319   4.583   1.742
 7039TIP3    H242677   2.315   4.727   1.787
 7040TIP3   OH242678   4.538   4.522   0.024
 7040TIP3    H142679   4.496   4.445   0.060
 7040TIP3    H242680   4.469   4.566   8.687
 7041TIP3   OH242681   5.284   1.485   1.028
 7041TIP3    H142682   5.263   1.578   1.027
 7041TIP3    H242683   5.232   1.449   1.100
 7042TIP3   OH242684   0.475   0.383   0.896
 7042TIP3    H142685   0.460   0.413   0.985
 7042TIP3    H242686   0.470   0.287   0.901
 7043TIP3   OH242687   0.430   5.080   1.637
 7043TIP3    H142688   0.495   5.038   1.692
 7043TIP3    H242689   0.376   5.008   1.603
 7044TIP3   OH242690   5.668   5.908   7.283
 7044TIP3    H142691   5.593   5.851   7.264
 7044TIP3    H242692   5.664   5.976   7.217
 7045TIP3   OH242693   2.005   5.527   6.795
 7045TIP3    H142694   1.952   5.471   6.738
 7045TIP3    H242695   1.960   5.612   6.793
 7046TIP3   OH242696   2.940   6.243   6.873
 7046TIP3    H142697   2.879   6.290   6.816
 7046TIP3    H242698   3.023   6.244   6.827
 7047TIP3   OH242699   1.379   2.135   0.368
 7047TIP3    H142700   1.434   2.210   0.391
 7047TIP3    H242701   1.401   2.117   0.276
 7048TIP3   OH242702   4.655   1.905   1.227
 7048TIP3    H142703   4.589   1.965   1.263
 7048TIP3    H242704   4.616   1.871   1.147
 7049TIP3   OH242705   1.635   4.988   1.747
 7049TIP3    H142706   1.660   4.934   1.672
 7049TIP3    H242707   1.622   5.075   1.710
 7050TIP3   OH242708   6.073   0.635   0.205
 7050TIP3    H142709   6.102   0.579   0.278
 7050TIP3    H242710   5.979   0.618   0.197
 7051TIP3   OH242711   0.584   0.004   1.433
 7051TIP3    H142712   0.611   0.092   1.409
 7051TIP3    H242713   0.542   6.826   1.355
 7052TIP3   OH242714   1.815   0.916   1.434
 7052TIP3    H142715   1.767   0.833   1.437
 7052TIP3    H242716   1.844   0.930   1.524
 7053TIP3   OH242717   3.149   6.129   7.007
 7053TIP3    H142718   3.148   6.036   6.988
 7053TIP3    H242719   3.063   6.160   6.978
 7054TIP3   OH242720   2.690   5.529   7.872
 7054TIP3    H142721   2.764   5.587   7.890
 7054TIP3    H242722   2.728   5.455   7.826
 7055TIP3   OH242723   2.098   4.030   7.420
 7055TIP3    H142724   2.180   4.071   7.394
 7055TIP3    H242725   2.068   4.082   7.495
 7056TIP3   OH242726   3.716   0.620   7.005
 7056TIP3    H142727   3.806   0.644   7.025
 7056TIP3    H242728   3.714   0.608   6.910
 7057TIP3   OH242729   3.229   6.457   1.423
 7057TIP3    H142730   3.149   6.467   1.475
 7057TIP3    H242731   3.299   6.447   1.488
 7058TIP3   OH242732   6.504   1.772   0.845
 7058TIP3    H142733   6.543   1.859   0.840
 7058TIP3    H242734   6.410   1.789   0.858
 7059TIP3   OH242735   6.736   0.435   7.500
 7059TIP3    H142736   6.757   0.382   7.423
 7059TIP3    H242737   6.649   0.406   7.526
 7060TIP3   OH242738   2.774   2.121   6.995
 7060TIP3    H142739   2.850   2.150   6.944
 7060TIP3    H242740   2.698   2.153   6.946
 7061TIP3   OH242741   1.791   5.573   2.276
 7061TIP3    H142742   1.733   5.604   2.345
 7061TIP3    H242743   1.878   5.570   2.316
 7062TIP3   OH242744   3.816   4.721   6.195
 7062TIP3    H142745   3.908   4.742   6.213
 7062TIP3    H242746   3.818   4.636   6.152
 7063TIP3   OH242747   0.584   5.835   7.115
 7063TIP3    H142748   0.668   5.850   7.157
 7063TIP3    H242749   0.605   5.824   7.022
 7064TIP3   OH242750   4.134   3.551   2.288
 7064TIP3    H142751   4.132   3.630   2.234
 7064TIP3    H242752   4.188   3.574   2.363
 7065TIP3   OH242753   2.961   5.922   2.628
 7065TIP3    H142754   3.016   5.892   2.700
 7065TIP3    H242755   2.992   6.011   2.609
 7066TIP3   OH242756   3.474   0.574   1.317
 7066TIP3    H142757   3.549   0.540   1.268
 7066TIP3    H242758   3.492   0.668   1.326
 7067TIP3   OH242759   0.280   4.486   7.807
 7067TIP3    H142760   0.354   4.431   7.783
 7067TIP3    H242761   0.232   4.435   7.873
 7068TIP3   OH242762   1.150   5.260   0.040
 7068TIP3    H142763   1.159   5.279   8.660
 7068TIP3    H242764   1.078   5.315   0.069
 7069TIP3   OH242765   4.117   3.423   0.002
 7069TIP3    H142766   4.078   3.508   8.694
 7069TIP3    H242767   4.049   3.378   0.051
 7070TIP3   OH242768   5.954   5.269   1.195
 7070TIP3    H142769   5.988   5.218   1.121
 7070TIP3    H242770   5.933   5.204   1.262
 7071TIP3   OH242771   6.491   5.677   1.302
 7071TIP3    H142772   6.417   5.690   1.361
 7071TIP3    H242773   6.482   5.586   1.272
 7072LIG      O42774   3.682   0.354   1.703
 7072LIG     C142775   3.763   0.263   1.629
 7072LIG     C242776   3.806   0.162   1.730
 7072LIG     C342777   3.679   0.182   1.533
 7072LIG     H142778   3.841   0.318   1.573
 7072LIG     H242779   3.854   0.080   1.673
 7072LIG     H342780   3.727   0.125   1.799
 7072LIG     H442781   3.885   0.206   1.794
 7072LIG     H542782   3.744   0.104   1.487
 7072LIG     H642783   3.646   0.258   1.458
 7072LIG     H742784   3.594   0.133   1.585
 7072LIG     H842785   3.745   0.410   1.750
   6.85659   6.85659   8.71353
